Title
29212
    1ASP      N    1   1.494   2.860   4.089  0.6605  0.3012 -0.2441
    1ASP    HT1    2   1.405   2.869   4.037 -0.6908 -0.6454  1.7955
    1ASP    HT2    3   1.581   2.893   4.042  2.0642  0.7686  2.4933
    1ASP    HT3    4   1.486   2.911   4.179 -2.2705 -1.9538  0.9246
    1ASP     CA    5   1.508   2.712   4.106 -0.1614  0.4323  0.1324
    1ASP     HA    6   1.434   2.671   4.173  0.4053  0.2720  0.6659
    1ASP     CB    7   1.466   2.646   3.974 -0.2174 -0.3633  0.4278
    1ASP    HB1    8   1.485   2.537   3.982  2.4246 -0.1243 -1.2390
    1ASP    HB2    9   1.521   2.682   3.884 -0.2208 -2.4851 -0.4781
    1ASP     CG   10   1.319   2.659   3.926  0.3359  0.0543  0.0872
    1ASP    OD1   11   1.238   2.727   3.990 -0.4501 -0.1815 -0.7494
    1ASP    OD2   12   1.284   2.602   3.817  0.1978  0.5890  0.4122
    1ASP      C   13   1.651   2.675   4.153  0.2732 -0.2642 -0.2426
    1ASP      O   14   1.699   2.740   4.245 -0.1566 -0.3308 -0.4651
    2GLY      N   15   1.712   2.574   4.098  0.3127 -0.4727  0.0008
    2GLY     HN   16   1.667   2.540   4.015  1.0430 -0.1872 -0.5249
    2GLY     CA   17   1.852   2.529   4.129 -0.4193 -0.6054 -0.1218
    2GLY    HA1   18   1.868   2.448   4.059  0.2579  0.2163 -0.9620
    2GLY    HA2   19   1.869   2.511   4.234  3.1023  1.8132 -0.0964
    2GLY      C   20   1.966   2.625   4.098  0.9310 -0.9229 -0.5463
    2GLY      O   21   1.954   2.736   4.044  0.1343  0.3895  0.1725
    3ASP      N   22   2.092   2.584   4.129 -0.7181 -0.6355 -0.2637
    3ASP     HN   23   2.106   2.497   4.176 -0.5374 -1.6123 -2.0488
    3ASP     CA   24   2.225   2.637   4.081 -0.1326 -0.9636 -0.4076
    3ASP     HA   25   2.233   2.732   4.132 -1.4671 -1.7842  1.4716
    3ASP     CB   26   2.339   2.538   4.120 -0.7510 -0.6764  0.0840
    3ASP    HB1   27   2.372   2.477   4.033 -0.1359 -0.3718  0.0942
    3ASP    HB2   28   2.303   2.478   4.206 -2.4770  0.9100  0.5176
    3ASP     CG   29   2.461   2.610   4.176 -0.2503 -0.8112  0.0411
    3ASP    OD1   30   2.563   2.544   4.189  0.1178  0.8316  0.2928
    3ASP    OD2   31   2.459   2.734   4.206 -0.0025 -0.0771 -0.2981
    3ASP      C   32   2.244   2.667   3.933 -0.4848  0.5099 -0.3935
    3ASP      O   33   2.175   2.622   3.840 -0.1522  0.7363 -0.0563
    4GLY      N   34   2.346   2.760   3.907  0.2859  0.3736  0.0067
    4GLY     HN   35   2.393   2.789   3.990  1.4151  0.7463 -0.7419
    4GLY     CA   36   2.391   2.817   3.781 -0.1942  0.3016  0.1905
    4GLY    HA1   37   2.417   2.920   3.804 -1.2910  0.4718  0.7677
    4GLY    HA2   38   2.314   2.808   3.705 -0.9515 -0.5182  1.0288
    4GLY      C   39   2.523   2.756   3.730  0.9435  0.2067 -0.1712
    4GLY      O   40   2.582   2.666   3.789 -0.2156 -0.4995  0.1370
    5PRO      N   41   2.575   2.812   3.619  0.0103 -0.0815  0.1472
    5PRO     CD   42   2.503   2.910   3.537  0.2664 -0.2317 -0.5793
    5PRO    HD1   43   2.474   3.004   3.589  0.9957  0.2861 -1.0773
    5PRO    HD2   44   2.416   2.858   3.492  1.3805 -2.9038  0.1513
    5PRO     CA   45   2.696   2.764   3.557  0.4876 -1.4047 -0.3442
    5PRO     HA   46   2.705   2.657   3.568 -0.8733 -1.4553  0.6047
    5PRO     CB   47   2.679   2.808   3.407  0.1802  0.1197 -0.3161
    5PRO    HB1   48   2.618   2.726   3.362  1.0128 -0.0426 -1.1722
    5PRO    HB2   49   2.775   2.820   3.353  0.7362  2.3776  1.0494
    5PRO     CG   50   2.599   2.938   3.422  0.2441  0.0451 -0.0801
    5PRO    HG1   51   2.654   3.029   3.453 -2.3762  1.4547  0.6847
    5PRO    HG2   52   2.553   2.951   3.322 -2.0950  0.6254  0.9984
    5PRO      C   53   2.819   2.828   3.615  0.6948 -0.5241 -0.1446
    5PRO      O   54   2.809   2.942   3.662  0.1639  0.1312 -0.3508
    6GLY      N   55   2.931   2.760   3.607 -0.2361  0.6232 -0.2588
    6GLY     HN   56   2.916   2.664   3.583 -1.7626  1.6146 -4.0634
    6GLY     CA   57   3.068   2.812   3.622  0.3171 -0.1482 -1.0929
    6GLY    HA1   58   3.133   2.726   3.632  1.2606  0.6864  0.1548
    6GLY    HA2   59   3.068   2.870   3.713 -0.2552 -0.8580 -0.6255
    6GLY      C   60   3.110   2.897   3.505 -0.0015  1.0959 -0.3523
    6GLY      O   61   3.034   2.967   3.441  0.7782 -0.0134  0.0644
    7ASP      N   62   3.240   2.889   3.468 -0.0525  0.3192  0.0061
    7ASP     HN   63   3.298   2.846   3.537 -0.0837  2.0351  1.1477
    7ASP     CA   64   3.301   2.952   3.359  0.0945 -0.5253  0.7776
    7ASP     HA   65   3.233   3.023   3.315  2.5081  1.0139 -0.7107
    7ASP     CB   66   3.433   3.019   3.403  0.5183  0.1765  0.3453
    7ASP    HB1   67   3.492   3.040   3.312  0.0315 -2.1176 -0.5591
    7ASP    HB2   68   3.486   2.942   3.463 -0.0275 -0.4617  0.0216
    7ASP     CG   69   3.418   3.149   3.484 -0.1231  0.2394 -0.1233
    7ASP    OD1   70   3.525   3.203   3.512 -0.1467  0.0986 -0.5034
    7ASP    OD2   71   3.307   3.190   3.518  0.3256  0.0761  0.1594
    7ASP      C   72   3.338   2.849   3.246  0.0958 -0.2657 -0.4447
    7ASP      O   73   3.342   2.729   3.273 -0.3766  0.5096  0.3082
    8PRO      N   74   3.360   2.886   3.120  0.4411 -1.0148  0.7071
    8PRO     CD   75   3.322   3.018   3.069  0.0462  0.3994 -0.2058
    8PRO    HD1   76   3.403   3.085   3.105  0.1095 -0.3409  1.1028
    8PRO    HD2   77   3.227   3.048   3.116  0.2569  0.6992  0.0270
    8PRO     CA   78   3.405   2.802   3.009 -0.0658 -0.2860 -0.3556
    8PRO     HA   79   3.343   2.713   3.015 -0.5638 -0.0740 -1.8804
    8PRO     CB   80   3.383   2.888   2.881 -0.4758  0.0657  0.2064
    8PRO    HB1   81   3.335   2.825   2.803 -1.2029  0.8543  0.0011
    8PRO    HB2   82   3.480   2.933   2.848  0.0840 -0.3639  1.2404
    8PRO     CG   83   3.296   3.005   2.922 -0.3776  0.3996 -0.8807
    8PRO    HG1   84   3.330   3.095   2.866  2.3403  0.3121  0.4944
    8PRO    HG2   85   3.189   2.978   2.905 -0.6268 -0.7676  2.0210
    8PRO      C   86   3.550   2.761   3.034 -0.0668  0.4047 -0.2816
    8PRO      O   87   3.629   2.834   3.090 -0.3493  0.7070 -0.4560
    9GLY      N   88   3.587   2.634   2.995 -0.4200  0.1384 -0.9288
    9GLY     HN   89   3.515   2.575   2.960 -1.0283 -0.3638  1.0077
    9GLY     CA   90   3.712   2.569   2.970 -0.1966  0.0963  0.0461
    9GLY    HA1   91   3.692   2.464   2.956  1.6629 -0.1277 -1.3204
    9GLY    HA2   92   3.774   2.598   3.053  0.5114  0.5401 -0.6261
    9GLY      C   93   3.779   2.625   2.849  0.0937  0.0421 -0.0389
    9GLY      O   94   3.744   2.727   2.793  0.3995 -0.4905  0.1365
   10ASP      N   95   3.882   2.554   2.800  0.2934 -0.7068  0.1211
   10ASP     HN   96   3.903   2.472   2.852 -0.5336 -0.5722  0.6788
   10ASP     CA   97   3.962   2.581   2.677 -0.0289 -0.0360 -0.5082
   10ASP     HA   98   4.008   2.678   2.691  0.4317 -0.1498 -1.1456
   10ASP     CB   99   4.075   2.471   2.659 -0.2336 -0.4653  0.1912
   10ASP    HB1  100   4.152   2.504   2.586  0.8115 -1.7880  0.6457
   10ASP    HB2  101   4.023   2.381   2.620 -0.4163 -0.1254 -0.3706
   10ASP     CG  102   4.154   2.429   2.780 -0.0798  0.5583 -0.4017
   10ASP    OD1  103   4.189   2.517   2.865  0.3368  0.8186  0.7028
   10ASP    OD2  104   4.192   2.307   2.796  0.1307  0.3287  0.1681
   10ASP      C  105   3.876   2.588   2.556  0.0560  0.9150 -0.2508
   10ASP      O  106   3.790   2.498   2.534  0.3067  0.0608 -0.5286
   11GLY      N  107   3.892   2.689   2.466  0.0775 -0.0798 -0.1708
   11GLY     HN  108   3.950   2.766   2.489  0.4392  0.1191 -1.6718
   11GLY     CA  109   3.817   2.679   2.339 -0.0345  0.1608  0.1101
   11GLY    HA1  110   3.710   2.691   2.348 -0.2015 -0.2009 -1.2374
   11GLY    HA2  111   3.842   2.585   2.292 -2.7029  0.5132 -2.2779
   11GLY      C  112   3.868   2.790   2.245 -0.0122  0.1427 -0.5435
   11GLY    OT1  113   3.807   2.900   2.251 -0.2358 -0.3953  0.4220
   11GLY    OT2  114   3.961   2.762   2.174 -0.3117 -0.6014 -0.0558
   12SOD    SOD  115   0.623   6.035   0.243  0.1810 -0.4460 -0.1816
   13SOD    SOD  116   6.120   4.573   1.747 -0.5494  0.0374  0.4922
   14SOD    SOD  117   4.629   6.581   4.295 -0.3906 -0.5831 -0.1571
   15SOD    SOD  118   2.654   2.050   4.017  0.1480  0.1008  0.0369
   16SOD    SOD  119   2.819   2.381   2.015 -0.0324 -0.0948 -0.0538
   17SOD    SOD  120   1.771   2.226   4.523 -0.1014 -0.1290 -0.0374
   18SOD    SOD  121   3.770   5.337   3.159 -0.2274  0.2245  0.2207
   19SOD    SOD  122   6.406   2.249   1.856 -0.0320  0.1753  0.1783
   20SOD    SOD  123   0.085   3.033   2.712 -0.1826 -0.0167 -0.0309
   21SOD    SOD  124   2.149   3.811   4.246  0.8424 -0.1095  0.7359
   22SOD    SOD  125   0.351   5.207   4.087  0.0432 -0.1333  0.3078
   23SOD    SOD  126   1.120   6.184   2.047 -0.2509  0.0192  0.0051
   24SOD    SOD  127   6.618   4.634   2.204 -0.0943 -0.9667  0.4835
   25SOD    SOD  128   4.010   5.846   0.502  0.0287 -0.0692  0.4996
   26SOD    SOD  129   4.113   3.202   3.284 -0.0175 -0.1791 -0.1624
   27SOD    SOD  130   5.449   3.732   0.513  0.0919  0.1842 -0.2950
   28SOD    SOD  131   5.438   0.977   4.841  0.2853  0.1831  0.1854
   29SOD    SOD  132   0.083   1.659   3.706  0.3067 -0.3398 -0.0842
   30SOD    SOD  133   2.226   2.028   0.130  0.0841  0.5045 -0.3939
   31SOD    SOD  134   3.172   2.985   4.820 -0.4917  0.4851 -0.2643
   32SOD    SOD  135   0.951   3.065   3.778  0.1281 -0.1277 -0.0470
   33SOD    SOD  136   3.483   4.885   2.573 -0.2555  0.3889  0.0017
   34SOD    SOD  137   5.862   5.115   3.640  0.6139  0.4509 -0.3257
   35SOD    SOD  138   3.718   3.440   2.401 -0.5783  0.0454  0.0427
   36SOD    SOD  139   2.854   6.172   0.331  0.2653  0.1421  0.3801
   37SOD    SOD  140   1.562   0.893   1.855  0.3047 -0.0581  0.0127
   38SOD    SOD  141   4.606   4.811   2.361  0.1399  0.2791 -0.1038
   39SOD    SOD  142   1.138   6.401   4.624 -0.0014 -0.2276 -0.3299
   40SOD    SOD  143   6.085   4.918   3.103 -0.1058 -0.2811  0.0238
   41SOD    SOD  144   6.291   4.302   5.229  0.0994  0.4612  0.1508
   42SOD    SOD  145   5.838   4.659   1.140 -0.2791  0.0343  0.4719
   43CLA    CLA  146   2.983   3.768   1.176  0.0431 -0.0162 -0.1770
   44CLA    CLA  147   0.953   0.720   5.866  0.0038 -0.4811  0.0996
   45CLA    CLA  148   5.916   5.566   3.343 -0.1206  0.0731  0.0865
   46CLA    CLA  149   2.344   4.084   0.450  0.4839  0.3385  0.1769
   47CLA    CLA  150   1.332   6.661   5.334  0.0923  0.0190  0.2476
   48CLA    CLA  151   5.507   4.789   0.870 -0.1111  0.8037  0.1394
   49CLA    CLA  152   3.970   0.303   1.332 -0.1083  0.5293 -0.0788
   50CLA    CLA  153   6.304   3.776   4.719 -0.0842 -0.1152 -0.2169
   51CLA    CLA  154   3.917   4.910   1.853  0.2628  0.0331 -0.1842
   52CLA    CLA  155   6.516   1.822   5.041  0.1878 -0.2357 -0.0523
   53CLA    CLA  156   1.397   6.579   3.630  0.2625  0.2052 -0.3163
   54CLA    CLA  157   0.681   4.208   5.406 -0.1062 -0.1372  0.1625
   55CLA    CLA  158   1.365   1.961   3.965  0.4919  0.0327 -0.0648
   56CLA    CLA  159   5.486   3.712   4.595  0.0842  0.0953 -0.0434
   57CLA    CLA  160   5.122   6.258   2.872  0.1118  0.0948 -0.1143
   58CLA    CLA  161   2.889   3.983   5.529 -0.2089 -0.2167  0.0003
   59CLA    CLA  162   0.390   1.746   0.734  0.0242  0.0758 -0.5025
   60CLA    CLA  163   6.873   2.435   3.441 -0.0381 -0.2294 -0.2839
   61CLA    CLA  164   6.182   4.380   2.238 -0.4776  0.0718  0.5721
   62CLA    CLA  165   1.115   0.914   4.045  0.0238  0.0552  0.0185
   63CLA    CLA  166   6.977   1.279   3.645 -0.3011  0.3540  0.1472
   64CLA    CLA  167   5.265   3.627   2.528 -0.3725  0.2384 -0.3424
   65CLA    CLA  168   0.758   5.826   2.103 -0.0031 -0.6376  0.1199
   66CLA    CLA  169   1.793   1.152   5.648  0.0620 -0.2527 -0.2020
   67CLA    CLA  170   6.675   5.041   1.871 -0.1623 -0.4349  0.0986
   68CLA    CLA  171   4.082   2.290   3.741 -0.0043 -0.3845 -0.0773
   69CLA    CLA  172   5.489   4.283   4.115  0.5399  0.0597 -0.0849
   70TIP3   OH2  173   1.358   5.289   1.536 -0.3030 -0.8940 -0.2921
   70TIP3    H1  174   1.336   5.249   1.620 -0.2443 -1.3169 -0.4779
   70TIP3    H2  175   1.275   5.325   1.505 -0.3158 -0.6929 -0.0332
   71TIP3   OH2  176   1.126   3.632   4.820 -0.4128 -0.2468 -0.0693
   71TIP3    H1  177   1.213   3.597   4.838  0.0611  0.4332 -0.9468
   71TIP3    H2  178   1.068   3.556   4.830  0.1781 -0.5665  1.1474
   72TIP3   OH2  179   6.263   0.722   0.613 -0.1992 -0.6070 -0.5400
   72TIP3    H1  180   6.268   0.760   0.701  3.6324 -0.6652 -0.5774
   72TIP3    H2  181   6.169   0.718   0.594 -1.1128  4.3380  1.3846
   73TIP3   OH2  182   4.154   2.863   2.939  0.4535  0.5662 -0.1869
   73TIP3    H1  183   4.221   2.837   2.875 -1.0805 -1.6292 -1.0438
   73TIP3    H2  184   4.203   2.901   3.012  2.7301 -1.6172 -0.4502
   74TIP3   OH2  185   0.989   4.985   5.806  0.1445 -0.3269  0.4748
   74TIP3    H1  186   0.977   4.890   5.813  0.9885 -0.6454 -1.5095
   74TIP3    H2  187   0.908   5.017   5.766 -0.7814  0.0612  2.5628
   75TIP3   OH2  188   1.838   2.038   5.312  0.0620 -0.1370 -0.3074
   75TIP3    H1  189   1.859   1.963   5.255 -0.5718 -1.4033  1.0627
   75TIP3    H2  190   1.873   2.014   5.397  0.9469  1.7142 -0.1104
   76TIP3   OH2  191   1.187   6.471   5.156 -0.6162  0.4277 -0.0077
   76TIP3    H1  192   1.196   6.397   5.215 -0.2963  1.3166  1.0945
   76TIP3    H2  193   1.247   6.537   5.191 -1.2948  1.4090 -0.6417
   77TIP3   OH2  194   5.215   0.455   2.550  0.1317  0.4816 -0.2069
   77TIP3    H1  195   5.210   0.496   2.637  0.0626 -0.5612  0.3056
   77TIP3    H2  196   5.178   0.520   2.491 -2.0140  0.3686  0.8792
   78TIP3   OH2  197   2.782   2.914   3.106 -0.9912  0.2013  0.2271
   78TIP3    H1  198   2.712   2.978   3.105 -1.8719 -0.6342 -3.0528
   78TIP3    H2  199   2.739   2.830   3.089  0.3895 -1.0058  2.1976
   79TIP3   OH2  200   0.773   4.057   2.355 -0.3992  0.1246  0.6417
   79TIP3    H1  201   0.690   4.087   2.319  0.5042  1.8436 -0.1324
   79TIP3    H2  202   0.767   4.074   2.449 -0.6934  0.8288  0.5022
   80TIP3   OH2  203   2.034   5.754   4.678 -0.0686 -0.2496  0.2265
   80TIP3    H1  204   1.947   5.715   4.666 -0.3693  0.5125 -0.0841
   80TIP3    H2  205   2.069   5.710   4.756  0.7339 -3.1777 -1.6169
   81TIP3   OH2  206   2.768   2.513   1.341 -0.2290 -0.3676 -0.6327
   81TIP3    H1  207   2.829   2.531   1.270 -0.5485  0.9769 -0.5914
   81TIP3    H2  208   2.778   2.588   1.401  0.3894 -1.6898  1.0063
   82TIP3   OH2  209   3.886   5.445   3.913 -0.3256 -0.0721 -0.6736
   82TIP3    H1  210   3.818   5.504   3.880 -0.4560 -0.5394 -1.2526
   82TIP3    H2  211   3.917   5.398   3.836  0.9825  0.4502 -0.4940
   83TIP3   OH2  212   4.675   6.772   3.251  0.2110 -0.5166  0.2717
   83TIP3    H1  213   4.631   6.793   3.333 -1.0677  1.2828 -0.7958
   83TIP3    H2  214   4.730   6.697   3.272 -0.9880 -0.8769  2.4584
   84TIP3   OH2  215   1.268   4.517   5.450 -0.1676  0.3887  0.2283
   84TIP3    H1  216   1.205   4.469   5.396  1.9636 -0.1600 -1.9748
   84TIP3    H2  217   1.353   4.492   5.415  1.2223  2.7150  1.6717
   85TIP3   OH2  218   6.492   2.603   3.562  0.2807 -0.0825  0.6090
   85TIP3    H1  219   6.554   2.637   3.626 -0.7878 -1.6844  2.6198
   85TIP3    H2  220   6.522   2.514   3.544  1.5425  0.8352 -2.5637
   86TIP3   OH2  221   2.004   3.988   2.646  0.1638  0.4997  0.3459
   86TIP3    H1  222   1.927   4.032   2.612  0.3856  0.4001 -0.3052
   86TIP3    H2  223   2.033   3.931   2.574  0.0986 -0.4272  1.0220
   87TIP3   OH2  224   4.989   0.230   1.094  0.0830  0.0183  0.2316
   87TIP3    H1  225   4.955   0.252   1.181 -1.0284 -0.3567 -0.0987
   87TIP3    H2  226   4.948   0.147   1.071 -0.9025  0.8732 -1.3128
   88TIP3   OH2  227   0.996   5.681   4.450  1.0482 -0.2896  0.1649
   88TIP3    H1  228   0.988   5.598   4.495  1.4027 -0.3264  0.1599
   88TIP3    H2  229   1.028   5.659   4.363 -1.3714 -0.4057 -0.7833
   89TIP3   OH2  230   0.924   0.038   5.717  0.4824 -0.0815  0.6715
   89TIP3    H1  231   0.959   0.125   5.696  0.4491 -0.2878 -0.2821
   89TIP3    H2  232   0.999  -0.020   5.710  0.4457 -0.1727  1.0302
   90TIP3   OH2  233   6.123   0.094   2.203 -0.0011 -0.5505 -0.7080
   90TIP3    H1  234   6.186   0.046   2.149  0.4774 -1.1945  0.3783
   90TIP3    H2  235   6.177   0.156   2.253 -0.5008  0.4464 -1.3708
   91TIP3   OH2  236   1.363   6.676   2.570 -0.3910 -0.2950  0.1992
   91TIP3    H1  237   1.447   6.677   2.616 -0.6332 -0.6514  0.6642
   91TIP3    H2  238   1.358   6.760   2.525  0.4118 -0.4533 -0.1930
   92TIP3   OH2  239   2.228   1.402   5.499 -0.1826  0.1257  0.2558
   92TIP3    H1  240   2.209   1.490   5.467  1.6296  0.4829  0.0667
   92TIP3    H2  241   2.167   1.389   5.573  0.2543  1.9458  0.9738
   93TIP3   OH2  242   4.695   6.721   3.822  0.1400 -0.1779  0.2025
   93TIP3    H1  243   4.668   6.641   3.777  0.7405 -0.0455 -0.4210
   93TIP3    H2  244   4.769   6.753   3.770  1.0524 -0.1808  1.4665
   94TIP3   OH2  245   2.136   4.748   0.083  0.3878 -0.0842  0.0463
   94TIP3    H1  246   2.159   4.655   0.077 -1.7776 -0.6036 -2.7453
   94TIP3    H2  247   2.200   4.792   0.028 -0.2594 -0.3924 -0.9964
   95TIP3   OH2  248   0.332   1.244   1.044 -0.1397  0.3890  0.8307
   95TIP3    H1  249   0.369   1.205   0.965 -0.2200 -0.8211  1.3749
   95TIP3    H2  250   0.379   1.328   1.053  0.9523 -0.1512  0.3404
   96TIP3   OH2  251   0.777   2.045   2.374  0.0970  0.7780  0.2056
   96TIP3    H1  252   0.810   1.960   2.401 -0.2158  0.2304 -1.0442
   96TIP3    H2  253   0.819   2.061   2.289 -1.5629  0.8184 -0.6473
   97TIP3   OH2  254   0.609   0.178   3.169 -0.5334 -0.1994 -0.3102
   97TIP3    H1  255   0.597   0.183   3.074 -1.3605 -1.1888 -0.2772
   97TIP3    H2  256   0.703   0.193   3.182 -0.3249 -0.5274 -1.3227
   98TIP3   OH2  257   5.948   1.336   2.729 -0.0786  0.0990  0.0259
   98TIP3    H1  258   5.934   1.406   2.793 -0.5566 -1.3207  1.5411
   98TIP3    H2  259   5.867   1.286   2.731  0.8000 -1.3653  0.0835
   99TIP3   OH2  260   1.145   0.464   3.776  0.2105  0.5310 -0.1080
   99TIP3    H1  261   1.234   0.428   3.784  0.9515  1.9528 -1.3618
   99TIP3    H2  262   1.137   0.524   3.850 -0.7743 -1.5461  1.5854
  100TIP3   OH2  263   6.957   1.417   4.410  0.1543  0.1862  0.0507
  100TIP3    H1  264   6.975   1.495   4.461  1.0415 -0.7751  1.2555
  100TIP3    H2  265   7.028   1.413   4.346  0.4594  0.0244  0.3999
  101TIP3   OH2  266   0.670   6.004   4.755 -0.0163  0.2801  0.1137
  101TIP3    H1  267   0.765   5.996   4.741  0.0490  0.8971  0.1514
  101TIP3    H2  268   0.656   5.970   4.843 -0.2818 -2.6502 -0.9480
  102TIP3   OH2  269   2.914   2.390   1.589  0.0811 -0.4380  0.2569
  102TIP3    H1  270   2.927   2.340   1.509  0.5954 -1.7770  1.1349
  102TIP3    H2  271   3.001   2.395   1.628 -0.1729  0.1478  0.7624
  103TIP3   OH2  272   6.543   0.360   5.713 -0.3649  0.2251  0.0315
  103TIP3    H1  273   6.500   0.445   5.701 -0.6077  0.1301  0.2302
  103TIP3    H2  274   6.537   0.318   5.627  1.3567  1.1395 -0.5888
  104TIP3   OH2  275   6.984   4.592   1.285 -0.3849  0.5392 -0.7093
  104TIP3    H1  276   7.062   4.543   1.259 -1.1828 -0.6204 -1.0289
  104TIP3    H2  277   6.996   4.610   1.378 -0.5090 -1.1876 -0.3238
  105TIP3   OH2  278   2.925   1.338   4.679  0.1202 -0.2386  0.7556
  105TIP3    H1  279   2.955   1.363   4.767  0.1170  0.3675  0.5909
  105TIP3    H2  280   2.877   1.257   4.693 -0.6262  0.3029  1.4547
  106TIP3   OH2  281   2.175   5.790   5.279 -0.3233  0.8266  0.0282
  106TIP3    H1  282   2.238   5.817   5.346  0.7980  0.6132 -0.8983
  106TIP3    H2  283   2.169   5.695   5.289  0.7616  0.6329 -0.8963
  107TIP3   OH2  284   1.341   2.981   5.798 -0.0583 -0.4250 -0.7919
  107TIP3    H1  285   1.388   2.903   5.829 -1.1291 -1.5091 -1.7940
  107TIP3    H2  286   1.356   2.982   5.703  0.0442  0.6683 -0.7733
  108TIP3   OH2  287   0.359   4.196   4.150  0.3453  0.4917  0.1839
  108TIP3    H1  288   0.363   4.165   4.241 -0.5092 -1.0156 -0.2732
  108TIP3    H2  289   0.348   4.117   4.098  0.3691  1.3841 -1.2123
  109TIP3   OH2  290   0.772   6.291   1.571 -0.0388 -0.1161 -0.1828
  109TIP3    H1  291   0.756   6.221   1.635  1.2276  0.9878  1.4477
  109TIP3    H2  292   0.695   6.349   1.580 -1.1259 -1.2717 -1.5906
  110TIP3   OH2  293   3.704   0.171   4.853 -0.1726  0.4025 -0.0509
  110TIP3    H1  294   3.629   0.217   4.891 -0.2548  0.8474 -0.7339
  110TIP3    H2  295   3.701   0.083   4.891 -1.1891  0.3391 -0.2590
  111TIP3   OH2  296   5.289   5.555   0.643 -0.1656  0.3782  0.6305
  111TIP3    H1  297   5.306   5.580   0.552  0.0439 -1.0949  0.2460
  111TIP3    H2  298   5.376   5.544   0.681 -0.2484 -0.5219  0.5681
  112TIP3   OH2  299   0.763   5.820   3.543  0.1343  0.3304  0.3236
  112TIP3    H1  300   0.683   5.832   3.492  0.8702 -2.0687 -1.6004
  112TIP3    H2  301   0.833   5.848   3.484  0.9966 -2.4445 -0.1292
  113TIP3   OH2  302   0.763   4.176   4.020  0.6205 -0.4523 -0.3442
  113TIP3    H1  303   0.843   4.203   3.975  0.3873 -1.5172 -1.4493
  113TIP3    H2  304   0.791   4.103   4.075  0.5438 -0.3539 -0.1742
  114TIP3   OH2  305   5.090   2.581   0.527  0.1418  0.6921 -0.3928
  114TIP3    H1  306   5.046   2.515   0.580  0.8833  1.4315  1.2149
  114TIP3    H2  307   5.177   2.543   0.509 -0.3532  0.1368 -1.7490
  115TIP3   OH2  308   6.294   4.438   4.225 -0.2427 -0.8977 -0.1681
  115TIP3    H1  309   6.265   4.394   4.304 -0.4106 -0.9135 -0.2364
  115TIP3    H2  310   6.332   4.520   4.256 -2.5146  0.2689 -0.1924
  116TIP3   OH2  311   0.140   1.785   1.295  0.2739  0.0782 -0.2488
  116TIP3    H1  312   0.170   1.774   1.205  0.4054 -0.5362 -0.1346
  116TIP3    H2  313   0.173   1.870   1.322  0.8128 -0.0307 -0.5596
  117TIP3   OH2  314   1.491   2.939   3.775 -0.1766  0.4111  0.0989
  117TIP3    H1  315   1.578   2.978   3.767 -0.1676  0.3396 -0.1676
  117TIP3    H2  316   1.461   2.929   3.685 -0.4261  0.3573  0.1875
  118TIP3   OH2  317   6.430   5.245   4.838 -0.1663 -0.4550 -0.4192
  118TIP3    H1  318   6.460   5.232   4.928 -0.1302 -0.6121 -0.4531
  118TIP3    H2  319   6.342   5.208   4.837 -0.9828  1.3350  0.0677
  119TIP3   OH2  320   2.855   1.679   0.732  0.1745  0.0740  0.4273
  119TIP3    H1  321   2.917   1.642   0.670  0.2060 -0.5380  0.8135
  119TIP3    H2  322   2.773   1.686   0.682  0.4229  0.4326  0.0604
  120TIP3   OH2  323   4.710   3.181   5.718 -0.7113  0.2646 -0.3896
  120TIP3    H1  324   4.785   3.220   5.763 -1.1239 -0.4031  0.9185
  120TIP3    H2  325   4.746   3.103   5.675 -0.6101  0.0911  0.0122
  121TIP3   OH2  326   3.391   5.311   2.860  0.2705 -0.4716 -0.4609
  121TIP3    H1  327   3.309   5.291   2.905  0.0602  1.9807  0.3927
  121TIP3    H2  328   3.367   5.318   2.768 -0.2626 -0.8251 -0.3529
  122TIP3   OH2  329   5.846   5.692   1.345  0.0239  0.7352 -0.3678
  122TIP3    H1  330   5.808   5.724   1.263 -0.0802  1.4495 -0.0412
  122TIP3    H2  331   5.940   5.690   1.328  0.0536  1.4772 -0.2993
  123TIP3   OH2  332   5.836   3.307   0.441 -0.7667  0.3759 -0.8542
  123TIP3    H1  333   5.916   3.311   0.388  0.6431  0.4347  1.1773
  123TIP3    H2  334   5.816   3.398   0.462  0.1858  0.2469  0.7841
  124TIP3   OH2  335   3.554   6.629   5.506  0.1780  0.9553  0.4240
  124TIP3    H1  336   3.541   6.598   5.417  0.7578  1.2172  0.2461
  124TIP3    H2  337   3.472   6.609   5.550  1.0294 -2.5044  0.8053
  125TIP3   OH2  338   5.753   5.556   0.561 -0.3290 -0.3322  0.0398
  125TIP3    H1  339   5.699   5.477   0.549 -1.1889  0.1098  0.8663
  125TIP3    H2  340   5.743   5.604   0.479 -1.4781 -0.1050  0.2984
  126TIP3   OH2  341   4.583   4.529   2.766 -0.3194 -0.3044  0.3600
  126TIP3    H1  342   4.526   4.487   2.701 -0.3089  1.8045 -1.0982
  126TIP3    H2  343   4.669   4.530   2.725  0.4197 -1.7360  1.7606
  127TIP3   OH2  344   5.606   4.373   3.600 -0.1046 -0.1707 -0.3081
  127TIP3    H1  345   5.617   4.331   3.685  0.6463  2.2286  0.8695
  127TIP3    H2  346   5.653   4.317   3.538  1.1375 -0.8543  1.2101
  128TIP3   OH2  347   1.328   0.220   2.208 -0.4038  1.1769  0.4652
  128TIP3    H1  348   1.355   0.229   2.117 -1.8365 -0.2477 -0.1518
  128TIP3    H2  349   1.241   0.258   2.211 -1.1237 -0.4119  0.7784
  129TIP3   OH2  350   6.307   2.208   5.171  0.5891  0.8120  0.0543
  129TIP3    H1  351   6.300   2.272   5.100  1.4214  0.0492 -0.7502
  129TIP3    H2  352   6.270   2.128   5.134 -0.5975  0.8416  1.1059
  130TIP3   OH2  353   2.356   1.632   0.123 -0.0338 -0.9529 -0.2183
  130TIP3    H1  354   2.297   1.632   0.048  1.0519  0.5718 -1.1540
  130TIP3    H2  355   2.440   1.601   0.088  1.6396  3.4767 -0.8189
  131TIP3   OH2  356   0.816   5.089   0.178 -0.1978  0.4333 -0.2657
  131TIP3    H1  357   0.740   5.148   0.172  0.9444  1.8970 -0.9087
  131TIP3    H2  358   0.886   5.135   0.132  1.1644 -0.7856  0.5011
  132TIP3   OH2  359   1.692   2.726   2.919 -0.1637 -0.0019  0.6639
  132TIP3    H1  360   1.752   2.734   2.993  1.4589 -1.1632 -0.4736
  132TIP3    H2  361   1.739   2.673   2.855 -2.5719 -1.3243 -0.1338
  133TIP3   OH2  362   1.792   0.369   5.598 -0.1951  0.2132  0.2990
  133TIP3    H1  363   1.836   0.324   5.526 -0.5412  2.4545 -1.3892
  133TIP3    H2  364   1.807   0.312   5.674  0.9372 -1.7834 -1.3206
  134TIP3   OH2  365   3.936   5.609   0.487  0.0369 -0.1826 -0.0361
  134TIP3    H1  366   3.845   5.606   0.457 -0.1701  0.3914  0.5171
  134TIP3    H2  367   3.958   5.518   0.505 -1.3645 -0.1300  2.5152
  135TIP3   OH2  368   4.070   1.856   3.134 -0.0325 -0.3967  0.1559
  135TIP3    H1  369   4.117   1.869   3.216  3.5671 -2.3506 -1.4017
  135TIP3    H2  370   4.109   1.919   3.073  0.2031 -1.6582 -1.0478
  136TIP3   OH2  371   4.919   6.485   2.827  0.4182  0.0439  0.4550
  136TIP3    H1  372   4.973   6.424   2.878 -0.4680 -2.5615 -1.5043
  136TIP3    H2  373   4.830   6.470   2.858  0.0240 -0.6791 -0.9488
  137TIP3   OH2  374   2.550   5.223   4.659 -0.0195  0.0501  0.8553
  137TIP3    H1  375   2.459   5.249   4.651 -0.0763  0.2145  1.9100
  137TIP3    H2  376   2.552   5.164   4.734  0.2848 -2.1870 -0.8042
  138TIP3   OH2  377   4.799   5.079   4.111  0.0698  0.0862  0.2119
  138TIP3    H1  378   4.783   5.069   4.017  0.4254 -2.3374  0.3587
  138TIP3    H2  379   4.730   5.028   4.154 -0.2590  1.3909  1.3091
  139TIP3   OH2  380   3.272   4.693   5.800 -0.1015  0.3081  0.3692
  139TIP3    H1  381   3.279   4.758   5.870  0.5922 -0.1040  0.6893
  139TIP3    H2  382   3.181   4.665   5.803 -0.2337  0.7545  0.6862
  140TIP3   OH2  383   1.254   4.468   3.245 -0.6362  0.1781 -0.2456
  140TIP3    H1  384   1.329   4.520   3.277 -1.5478  1.7926 -0.6415
  140TIP3    H2  385   1.181   4.497   3.299 -1.3670  0.0426 -1.1445
  141TIP3   OH2  386   0.459   6.154   2.409 -0.2128  0.8226  0.7085
  141TIP3    H1  387   0.510   6.080   2.442  1.7164  2.3003  1.2460
  141TIP3    H2  388   0.443   6.133   2.317  2.5628  0.8291  0.1311
  142TIP3   OH2  389   3.441   2.318   3.179 -0.1341  0.1536  0.7683
  142TIP3    H1  390   3.514   2.378   3.197  0.1152  0.2311 -0.4114
  142TIP3    H2  391   3.477   2.231   3.196  0.2449  0.1913  0.1970
  143TIP3   OH2  392   1.379   0.677   4.600  0.0040 -0.2536  0.1048
  143TIP3    H1  393   1.350   0.753   4.651  0.3133  0.1750 -0.3496
  143TIP3    H2  394   1.413   0.616   4.666 -0.4605 -0.0973  0.4934
  144TIP3   OH2  395   6.860   3.470   2.138  0.1226 -0.7039 -0.3020
  144TIP3    H1  396   6.847   3.381   2.170  0.6650  0.2519  2.9813
  144TIP3    H2  397   6.952   3.473   2.111 -0.3238 -1.5116 -2.0778
  145TIP3   OH2  398   3.662   2.263   4.951 -0.2532  0.0887  0.1871
  145TIP3    H1  399   3.604   2.339   4.943 -1.9593 -1.0729  0.7920
  145TIP3    H2  400   3.703   2.254   4.865 -0.7260  1.1273 -0.1665
  146TIP3   OH2  401   1.946   0.746   3.215  0.7117  0.8310 -0.2163
  146TIP3    H1  402   1.891   0.821   3.193 -0.5285  0.2749  0.8647
  146TIP3    H2  403   2.035   0.781   3.216  0.5374  1.5534 -2.9116
  147TIP3   OH2  404   3.472   6.406   4.626  0.2015 -0.1916  0.1210
  147TIP3    H1  405   3.486   6.358   4.708 -1.7878  1.3656  1.4983
  147TIP3    H2  406   3.393   6.367   4.589 -1.5679  1.9660  1.3686
  148TIP3   OH2  407   1.951   6.670   2.643  0.1303  0.6604  0.0121
  148TIP3    H1  408   1.892   6.596   2.631 -0.2599  0.9680  0.0222
  148TIP3    H2  409   1.958   6.680   2.738 -2.2888  2.5637  0.0894
  149TIP3   OH2  410   4.096   2.232   5.473  0.3309  0.1924 -0.1759
  149TIP3    H1  411   4.077   2.229   5.379  0.7603  0.5012 -0.2745
  149TIP3    H2  412   4.190   2.212   5.479  0.8761  2.5682 -0.0122
  150TIP3   OH2  413   5.256   6.415   2.624  0.7194  0.1485 -0.5364
  150TIP3    H1  414   5.208   6.356   2.681  0.1409  0.6152 -0.5348
  150TIP3    H2  415   5.189   6.464   2.577  1.1814 -0.2230 -1.6215
  151TIP3   OH2  416   0.996   3.110   0.330 -0.5747 -0.1881 -0.4808
  151TIP3    H1  417   1.051   3.102   0.252 -0.4010  2.9939 -0.8362
  151TIP3    H2  418   0.915   3.150   0.298 -0.5105  1.1719  0.9046
  152TIP3   OH2  419   0.241   5.401   4.138 -0.6854  0.2490 -0.6149
  152TIP3    H1  420   0.169   5.444   4.093 -2.2678  1.6102  2.8821
  152TIP3    H2  421   0.240   5.437   4.227  4.5632  0.6000 -0.3766
  153TIP3   OH2  422   2.869   2.064   0.741 -0.1617 -0.0357 -0.4053
  153TIP3    H1  423   2.945   2.073   0.683  0.0872  0.4473 -0.0208
  153TIP3    H2  424   2.855   2.153   0.775 -0.5928 -0.2201 -0.0898
  154TIP3   OH2  425   2.761   6.678   1.385  0.0398 -0.7021 -0.1959
  154TIP3    H1  426   2.740   6.763   1.345  0.2034 -0.0323  1.1136
  154TIP3    H2  427   2.850   6.659   1.354 -0.0804 -0.5142 -0.6765
  155TIP3   OH2  428   2.430   6.012   3.507 -0.1809 -0.0332  0.1937
  155TIP3    H1  429   2.360   6.078   3.515 -1.6262 -1.4326 -0.2275
  155TIP3    H2  430   2.392   5.944   3.451  1.3962 -1.0441  0.2857
  156TIP3   OH2  431   5.744   0.936   4.045 -0.6266 -0.3118 -0.4939
  156TIP3    H1  432   5.839   0.940   4.041 -0.6204  0.3091  0.0829
  156TIP3    H2  433   5.716   1.027   4.035 -1.0991 -0.3185  0.6627
  157TIP3   OH2  434   5.669   2.723   2.415 -0.2736 -0.0407 -0.3077
  157TIP3    H1  435   5.690   2.816   2.426  0.2074 -0.3565  2.0842
  157TIP3    H2  436   5.747   2.678   2.448 -0.8879 -1.2936 -0.5364
  158TIP3   OH2  437   7.215   1.123   4.024  0.6273 -0.2680  0.2697
  158TIP3    H1  438   7.122   1.107   4.010  0.5219  0.1293  0.5200
  158TIP3    H2  439   7.253   1.122   3.936  0.2620  0.3529  0.1015
  159TIP3   OH2  440   5.881   6.477   5.056 -0.0336  0.1266  0.0975
  159TIP3    H1  441   5.902   6.557   5.009  0.1827  0.4356  0.7172
  159TIP3    H2  442   5.945   6.472   5.127 -2.9495  2.0425  3.1907
  160TIP3   OH2  443   3.937   6.392   0.978  0.7762 -0.2988  0.1028
  160TIP3    H1  444   3.863   6.366   0.922  0.1494  1.0469  0.2768
  160TIP3    H2  445   4.013   6.389   0.920  0.5566 -1.4020 -0.1581
  161TIP3   OH2  446   1.496   6.745   2.223  0.1696 -0.4330 -0.1712
  161TIP3    H1  447   1.524   6.698   2.144  0.3163 -1.5178  0.4954
  161TIP3    H2  448   1.408   6.776   2.202  0.7014  0.4046 -1.2109
  162TIP3   OH2  449   4.775   0.056   3.462 -0.3805  0.1813 -0.1373
  162TIP3    H1  450   4.823  -0.025   3.444  1.8110  0.8981  1.8831
  162TIP3    H2  451   4.717   0.033   3.535 -1.1231 -0.0048 -0.7788
  163TIP3   OH2  452   2.329   4.185   4.033 -0.1240  0.6107 -0.2748
  163TIP3    H1  453   2.383   4.255   3.998 -1.4395  1.7783 -0.0905
  163TIP3    H2  454   2.307   4.214   4.122 -0.9948  0.1488 -0.3255
  164TIP3   OH2  455   5.913   1.347   3.001 -0.0857  0.7051  0.2564
  164TIP3    H1  456   5.945   1.256   3.007  0.1982  0.7844 -0.0184
  164TIP3    H2  457   5.825   1.344   3.038  1.1808  0.9816  3.6687
  165TIP3   OH2  458   0.962   2.577   1.398  0.3998 -0.4081  0.1179
  165TIP3    H1  459   1.034   2.583   1.461 -0.8463  0.8442  1.4914
  165TIP3    H2  460   0.908   2.504   1.430  1.1730 -1.5765 -1.1047
  166TIP3   OH2  461   1.507   3.074   5.537  0.0468 -0.1027 -0.8513
  166TIP3    H1  462   1.566   3.107   5.469 -1.1367  1.0381 -1.3546
  166TIP3    H2  463   1.435   3.137   5.540  0.3620  0.2326  1.9189
  167TIP3   OH2  464   0.713   6.282   3.248 -0.3948  0.1899  0.2131
  167TIP3    H1  465   0.620   6.265   3.239 -0.4049  0.2413  0.2209
  167TIP3    H2  466   0.718   6.371   3.283 -0.3591 -0.0017  0.7027
  168TIP3   OH2  467   1.793   3.695   0.626  0.5841 -0.2144  0.2213
  168TIP3    H1  468   1.836   3.740   0.699 -0.0674 -0.2679  0.6470
  168TIP3    H2  469   1.802   3.602   0.647  2.4195 -0.3559 -0.9346
  169TIP3   OH2  470   6.121   4.740   2.970 -0.2480  0.5354 -0.4173
  169TIP3    H1  471   6.077   4.699   2.896 -0.5474  0.6090 -0.2809
  169TIP3    H2  472   6.163   4.667   3.017 -0.8692  0.3678 -0.1128
  170TIP3   OH2  473   5.342   0.840   2.242  0.1600  0.0772 -0.2589
  170TIP3    H1  474   5.431   0.805   2.234  0.6205  1.4267 -1.4953
  170TIP3    H2  475   5.310   0.845   2.152 -0.8172  0.5089  0.0990
  171TIP3   OH2  476   4.085   2.519   5.221 -0.0105  0.5762  0.4871
  171TIP3    H1  477   4.115   2.558   5.138 -0.5004  0.6738  0.3550
  171TIP3    H2  478   3.990   2.516   5.213 -0.0676  0.7131  1.1069
  172TIP3   OH2  479   1.194   1.063   1.926  0.7261  0.0752  0.3203
  172TIP3    H1  480   1.231   0.978   1.902 -1.6742 -0.6558 -1.2523
  172TIP3    H2  481   1.133   1.043   1.997  0.5367  0.5691  0.2973
  173TIP3   OH2  482   6.184   3.155   3.701  0.2784  0.1110 -0.1977
  173TIP3    H1  483   6.117   3.130   3.764  0.2360 -1.3848 -0.8119
  173TIP3    H2  484   6.218   3.073   3.667  0.2585  0.8677 -2.1784
  174TIP3   OH2  485   6.512   5.249   0.558  0.2295 -0.3251 -0.0729
  174TIP3    H1  486   6.455   5.181   0.594  2.2429 -3.6448 -2.6383
  174TIP3    H2  487   6.468   5.278   0.478  1.2443 -1.7442 -1.2017
  175TIP3   OH2  488   3.573   0.165   0.672  0.1421  0.4261 -0.3501
  175TIP3    H1  489   3.640   0.187   0.607 -0.9840  1.3214 -1.2497
  175TIP3    H2  490   3.590   0.225   0.745 -1.1012  2.3491 -1.5708
  176TIP3   OH2  491   0.063   3.620   5.704  0.0253 -0.2133 -0.1909
  176TIP3    H1  492  -0.011   3.680   5.713  1.0333  1.0277  0.1936
  176TIP3    H2  493   0.115   3.657   5.633  0.9591 -0.3054  0.4288
  177TIP3   OH2  494   3.764   4.808   5.164 -0.0509  0.2487 -0.2613
  177TIP3    H1  495   3.800   4.753   5.233 -0.5538 -0.3944 -0.5026
  177TIP3    H2  496   3.790   4.897   5.188  0.3816 -0.0446  0.3733
  178TIP3   OH2  497   6.884   0.814   3.443 -0.2781  0.0267 -0.0505
  178TIP3    H1  498   6.874   0.778   3.355  0.8438  0.8452 -0.5401
  178TIP3    H2  499   6.971   0.784   3.471 -0.9478 -0.9100  1.1329
  179TIP3   OH2  500   4.120   5.868   2.864 -0.2982 -0.0801 -0.5128
  179TIP3    H1  501   4.145   5.903   2.950  0.1653 -1.6612  0.0285
  179TIP3    H2  502   4.121   5.945   2.806  0.9277  0.7586  0.5583
  180TIP3   OH2  503   5.868   4.465   3.892  0.3885  0.0200 -0.4050
  180TIP3    H1  504   5.948   4.456   3.944 -0.0839  0.0653  0.3437
  180TIP3    H2  505   5.824   4.542   3.928 -0.3316 -0.4064 -0.3477
  181TIP3   OH2  506   3.058   4.768   2.893  0.0915 -0.0317  0.0356
  181TIP3    H1  507   3.137   4.814   2.923 -0.6459  0.0830  1.9400
  181TIP3    H2  508   3.086   4.722   2.814  1.9401  0.3962  0.3862
  182TIP3   OH2  509   6.719   3.898   2.703  0.4113 -0.6482  0.1191
  182TIP3    H1  510   6.653   3.912   2.771 -2.0738 -2.6049 -1.6597
  182TIP3    H2  511   6.746   3.986   2.677  0.9827  0.1671  3.0862
  183TIP3   OH2  512   1.209   0.534   5.823 -0.1868 -1.2738 -0.6035
  183TIP3    H1  513   1.136   0.595   5.837  0.5739 -0.6681  1.0261
  183TIP3    H2  514   1.203   0.510   5.731 -2.4055 -1.1983 -0.5324
  184TIP3   OH2  515   2.738   5.827   5.409  0.2608  0.0973  0.4778
  184TIP3    H1  516   2.643   5.834   5.399  0.0364 -0.5533  1.8738
  184TIP3    H2  517   2.750   5.751   5.466  1.5650  0.6787  1.0112
  185TIP3   OH2  518   4.012   0.756   5.204 -0.0332 -0.3069 -0.1443
  185TIP3    H1  519   4.078   0.724   5.143 -0.8179 -2.2554 -0.0482
  185TIP3    H2  520   3.986   0.841   5.170  2.1581  0.3034 -0.4387
  186TIP3   OH2  521   2.701   4.405   5.644 -0.0270 -0.4903  0.4736
  186TIP3    H1  522   2.660   4.320   5.661 -2.4274  0.4513 -0.2339
  186TIP3    H2  523   2.752   4.424   5.723 -0.3368 -2.0773  1.0748
  187TIP3   OH2  524   7.070   5.646   4.132  0.1406  0.0974  0.0475
  187TIP3    H1  525   7.052   5.598   4.212  1.7491 -0.0142  0.3769
  187TIP3    H2  526   7.094   5.734   4.161  0.2583  0.2002 -0.3459
  188TIP3   OH2  527   5.736   0.609   0.499  0.2232  0.1051 -0.6234
  188TIP3    H1  528   5.748   0.572   0.586 -1.4015 -0.7531 -0.7212
  188TIP3    H2  529   5.792   0.687   0.498  1.7812 -0.9354  0.4731
  189TIP3   OH2  530   0.776   4.617   2.087  0.1718  0.0989  0.8157
  189TIP3    H1  531   0.865   4.605   2.119  0.4656 -0.3394 -0.1328
  189TIP3    H2  532   0.726   4.546   2.128  0.3418  0.0868  1.0056
  190TIP3   OH2  533   2.952   6.182   2.245  0.2466  0.2079 -0.4589
  190TIP3    H1  534   2.964   6.231   2.326  0.3437  0.3477 -0.5576
  190TIP3    H2  535   2.861   6.151   2.250 -0.8994  2.9961 -1.7849
  191TIP3   OH2  536   0.599   5.841   2.375 -0.7125  0.1659  0.2807
  191TIP3    H1  537   0.653   5.864   2.450 -2.2402  0.9698  1.1939
  191TIP3    H2  538   0.661   5.827   2.304  0.6995  0.6351  1.3779
  192TIP3   OH2  539   4.387   0.147   2.862  0.2733 -0.1993 -0.3432
  192TIP3    H1  540   4.387   0.063   2.909  1.2737  0.8647  1.6648
  192TIP3    H2  541   4.303   0.148   2.815  0.6935 -2.7628 -1.2883
  193TIP3   OH2  542   5.012   1.082   0.136  0.3254 -0.3056  0.8227
  193TIP3    H1  543   5.052   1.131   0.063  1.4975 -1.9107  0.3258
  193TIP3    H2  544   4.925   1.058   0.104  1.1710 -1.8324 -0.5220
  194TIP3   OH2  545   5.928   0.834   2.963  0.8819  0.3453  0.1579
  194TIP3    H1  546   6.007   0.782   2.980  1.4537  1.1469  0.0119
  194TIP3    H2  547   5.960   0.924   2.957 -0.2407  0.8549  1.4486
  195TIP3   OH2  548   1.934   1.109   1.101  0.1156  0.0702 -0.1675
  195TIP3    H1  549   1.954   1.178   1.164 -1.4565  0.3401  0.0781
  195TIP3    H2  550   1.902   1.155   1.024 -1.3014 -0.3676  0.1307
  196TIP3   OH2  551   3.509   3.770   2.837 -0.1364  0.2292  0.8613
  196TIP3    H1  552   3.481   3.727   2.756  1.2618 -1.0811  1.0222
  196TIP3    H2  553   3.458   3.727   2.906  0.1856 -0.1417  0.8720
  197TIP3   OH2  554   6.911   5.588   2.508 -0.0557 -0.2912  0.6455
  197TIP3    H1  555   6.875   5.623   2.427 -0.7867 -0.6480  0.8155
  197TIP3    H2  556   6.848   5.613   2.576  0.6787  0.2405  1.1560
  198TIP3   OH2  557   6.176   1.129   2.322  0.2852 -0.1230  0.1938
  198TIP3    H1  558   6.167   1.182   2.400 -0.5365 -0.9228  0.6673
  198TIP3    H2  559   6.087   1.099   2.302  0.5335 -0.2353 -0.8264
  199TIP3   OH2  560   6.080   3.959   1.003  0.1243 -0.6897  0.1149
  199TIP3    H1  561   6.045   3.976   0.916  0.5436 -2.0214 -0.3351
  199TIP3    H2  562   6.099   3.866   1.004  2.2518 -0.3104  0.8420
  200TIP3   OH2  563   0.181   0.312   2.443  0.2122 -0.1555  0.4258
  200TIP3    H1  564   0.240   0.324   2.368  3.1268  1.1220  2.7331
  200TIP3    H2  565   0.117   0.382   2.434  0.5171 -0.0145 -0.8720
  201TIP3   OH2  566   2.726   5.795   2.750  0.2268  0.9224 -0.4934
  201TIP3    H1  567   2.646   5.843   2.771 -1.5525 -1.0399 -2.3189
  201TIP3    H2  568   2.705   5.746   2.671  2.9357 -0.4527 -0.4922
  202TIP3   OH2  569   0.746   1.286   4.015 -0.6096 -0.6501  0.0080
  202TIP3    H1  570   0.685   1.259   3.945  0.3007 -3.8677  0.2899
  202TIP3    H2  571   0.817   1.330   3.969 -0.7121 -1.4635 -0.9747
  203TIP3   OH2  572   1.339   6.583   1.891 -0.1863 -0.0749 -0.1129
  203TIP3    H1  573   1.365   6.673   1.873  1.6291 -0.1521  1.7243
  203TIP3    H2  574   1.394   6.531   1.832  0.2314 -0.0365  0.2344
  204TIP3   OH2  575   1.994   3.353   3.947 -0.0655  0.5653  0.1171
  204TIP3    H1  576   2.001   3.258   3.958 -1.2491  0.5255  0.6940
  204TIP3    H2  577   2.008   3.368   3.853 -0.2612 -0.2088 -0.0378
  205TIP3   OH2  578   1.145   5.030   0.254 -0.0544  0.3571  0.0729
  205TIP3    H1  579   1.096   5.085   0.315  1.9663  2.9708 -0.4802
  205TIP3    H2  580   1.176   4.957   0.307 -0.6820  1.0906  1.4902
  206TIP3   OH2  581   1.410   2.165   5.363 -0.0243  0.1931 -0.1789
  206TIP3    H1  582   1.373   2.081   5.336  0.4475 -0.0065 -0.2255
  206TIP3    H2  583   1.370   2.229   5.304  0.0229 -0.0707 -0.5033
  207TIP3   OH2  584   0.682   6.701   0.781  0.7727 -0.2592  0.1137
  207TIP3    H1  585   0.735   6.703   0.701 -0.4379  1.4006 -0.6969
  207TIP3    H2  586   0.714   6.775   0.832  0.9021 -0.7555  0.7633
  208TIP3   OH2  587   2.754   2.949   5.259  0.5422  0.6778 -0.0222
  208TIP3    H1  588   2.842   2.924   5.230  1.3878  0.4163  2.5225
  208TIP3    H2  589   2.699   2.873   5.239  1.0317  0.5497 -0.9423
  209TIP3   OH2  590   5.345   3.210   5.801 -0.5087  0.5335  0.0280
  209TIP3    H1  591   5.414   3.275   5.815  1.6160 -1.2906 -1.2240
  209TIP3    H2  592   5.268   3.261   5.776  0.9281  2.5792 -0.4812
  210TIP3   OH2  593   3.652   5.149   3.143 -0.6449  0.1089  0.3544
  210TIP3    H1  594   3.667   5.073   3.199 -0.0889 -0.4177 -0.4877
  210TIP3    H2  595   3.562   5.176   3.163 -0.8534 -0.7734  0.6737
  211TIP3   OH2  596   1.855   0.827   2.612  0.1188 -0.0823 -0.0364
  211TIP3    H1  597   1.831   0.918   2.630  1.2619  0.2537 -0.1204
  211TIP3    H2  598   1.847   0.783   2.696  0.9920  0.4379  0.3272
  212TIP3   OH2  599   2.744   1.068   5.794 -0.1541 -0.7887  0.0628
  212TIP3    H1  600   2.677   1.083   5.728 -0.5117 -0.9930  0.3769
  212TIP3    H2  601   2.816   1.127   5.769 -0.3481 -0.7490 -0.4118
  213TIP3   OH2  602   4.692   6.748   4.466 -0.4155 -0.4812  0.5888
  213TIP3    H1  603   4.669   6.839   4.450  0.2182 -0.1075  1.6863
  213TIP3    H2  604   4.677   6.735   4.560  2.4030 -0.5698  1.1209
  214TIP3   OH2  605   0.643   5.871   4.988 -0.5770  0.2355 -0.0219
  214TIP3    H1  606   0.647   5.930   5.063 -1.1348  0.0062  0.1897
  214TIP3    H2  607   0.550   5.869   4.964 -0.4142  0.2539 -0.6776
  215TIP3   OH2  608   7.181   0.741   4.033 -0.1116  0.1289  0.2273
  215TIP3    H1  609   7.096   0.697   4.027  0.9798 -2.0192 -0.6042
  215TIP3    H2  610   7.177   0.810   3.966 -0.9809 -0.3704 -0.2576
  216TIP3   OH2  611   1.901   3.045   0.021 -0.3790  0.7536 -0.1574
  216TIP3    H1  612   1.836   3.104  -0.018 -0.9420 -0.2504 -0.7733
  216TIP3    H2  613   1.918   3.082   0.108 -0.8521  1.7165 -0.4683
  217TIP3   OH2  614   4.194   3.197   4.986  0.3342  0.6691 -0.0400
  217TIP3    H1  615   4.277   3.244   4.985  0.0364  1.1954 -0.6528
  217TIP3    H2  616   4.207   3.126   5.050  1.0400  1.1150  0.3216
  218TIP3   OH2  617   0.540   2.957   5.658 -0.1065 -0.0878 -0.0301
  218TIP3    H1  618   0.506   3.020   5.595  0.0439 -0.0892 -0.1122
  218TIP3    H2  619   0.468   2.944   5.720  0.0166  0.5195  0.2527
  219TIP3   OH2  620   4.642   0.281   3.033 -0.2307  0.4645 -0.3572
  219TIP3    H1  621   4.648   0.366   2.990  1.4309 -0.2932 -1.7384
  219TIP3    H2  622   4.707   0.226   2.988 -1.6918 -1.7343  0.0463
  220TIP3   OH2  623   5.200   6.653   0.934  0.2509 -0.4446 -0.6420
  220TIP3    H1  624   5.262   6.642   0.863 -1.1145  0.1579 -1.9965
  220TIP3    H2  625   5.114   6.642   0.893 -0.5715 -1.1527  1.1295
  221TIP3   OH2  626   5.481   1.248   3.184  0.4001 -0.1075  0.1748
  221TIP3    H1  627   5.545   1.206   3.241 -0.2212 -2.0511 -0.4522
  221TIP3    H2  628   5.420   1.291   3.243 -0.9144 -3.0656  1.1736
  222TIP3   OH2  629   4.516   0.121   0.538 -0.2737  0.3616  0.3231
  222TIP3    H1  630   4.535   0.042   0.588 -0.5323 -0.2366 -0.4942
  222TIP3    H2  631   4.601   0.153   0.509 -0.2354 -0.1874 -0.1824
  223TIP3   OH2  632   1.638   6.549   2.375 -0.3666 -0.1813  0.3093
  223TIP3    H1  633   1.652   6.574   2.467  1.0249  0.2842 -0.0071
  223TIP3    H2  634   1.572   6.611   2.344  0.8517  1.2285  0.3755
  224TIP3   OH2  635   1.183   5.582   5.857 -0.1108 -0.7994  0.6851
  224TIP3    H1  636   1.243   5.509   5.870 -0.0578 -1.3452 -1.9855
  224TIP3    H2  637   1.102   5.556   5.901  0.2849 -1.9605  0.7318
  225TIP3   OH2  638   2.129   3.595   4.327 -0.3669  0.5457 -0.4010
  225TIP3    H1  639   2.088   3.535   4.389  0.1892  1.7803  1.2464
  225TIP3    H2  640   2.147   3.542   4.250  1.9670 -1.9564  1.6835
  226TIP3   OH2  641   5.773   4.466   5.411 -0.4037  0.0169 -0.4646
  226TIP3    H1  642   5.773   4.398   5.478 -0.8857  0.2422 -0.2326
  226TIP3    H2  643   5.834   4.532   5.443  1.4292 -1.0892 -1.5123
  227TIP3   OH2  644   1.739   0.459   2.844 -0.0421 -0.5057  0.3704
  227TIP3    H1  645   1.706   0.399   2.911 -1.9530 -1.2451 -1.1454
  227TIP3    H2  646   1.712   0.420   2.761  0.3197  1.4963 -0.7588
  228TIP3   OH2  647   0.263   0.529   2.215  0.2139  0.4632  0.4139
  228TIP3    H1  648   0.326   0.595   2.188  0.8743 -0.3658 -0.1495
  228TIP3    H2  649   0.205   0.517   2.140  1.2453 -0.9028 -0.2120
  229TIP3   OH2  650   4.375   3.455   1.455  0.7004  0.1795 -0.6307
  229TIP3    H1  651   4.285   3.484   1.470  1.4656  3.2091 -1.3721
  229TIP3    H2  652   4.429   3.533   1.468  3.2640 -1.5084 -0.2938
  230TIP3   OH2  653   6.704   3.037   0.127  0.1437  0.5379  0.3075
  230TIP3    H1  654   6.709   2.965   0.064 -1.2948 -0.1816  0.9638
  230TIP3    H2  655   6.780   3.025   0.184 -1.0656 -1.6477  1.5761
  231TIP3   OH2  656   4.359   4.934   1.464 -0.3001  0.2845 -0.1535
  231TIP3    H1  657   4.332   4.916   1.374 -2.2019  2.0189 -0.0207
  231TIP3    H2  658   4.279   4.962   1.507  0.8557  0.9271  1.6813
  232TIP3   OH2  659   0.724   5.196   1.726  0.2398 -0.3939  0.1298
  232TIP3    H1  660   0.674   5.129   1.680 -0.2314 -0.4558  0.7215
  232TIP3    H2  661   0.752   5.154   1.807 -1.8773  0.7186  1.5374
  233TIP3   OH2  662   1.099   0.682   2.250  0.5079  0.1340 -0.4959
  233TIP3    H1  663   1.017   0.722   2.221 -0.3718  0.5958  2.2716
  233TIP3    H2  664   1.157   0.756   2.268  0.7394 -0.0825 -0.3458
  234TIP3   OH2  665   6.800   6.177   0.750 -0.2404 -0.2684  0.0436
  234TIP3    H1  666   6.728   6.167   0.688  0.3482 -1.4878 -0.4641
  234TIP3    H2  667   6.757   6.187   0.835 -1.0165 -1.7024 -0.1523
  235TIP3   OH2  668   5.100   3.287   5.765  0.0159 -0.3008 -0.0979
  235TIP3    H1  669   5.047   3.227   5.816  1.3829 -0.6649  0.9524
  235TIP3    H2  670   5.054   3.371   5.771 -1.4866 -1.0190 -0.9247
  236TIP3   OH2  671   7.051   2.665   1.877  0.5183  0.0068  0.2085
  236TIP3    H1  672   6.986   2.695   1.813  0.3686 -1.4257 -0.3551
  236TIP3    H2  673   7.003   2.603   1.932  1.2096 -0.4758  0.2743
  237TIP3   OH2  674   6.131   1.326   4.104 -0.5741  0.1315  0.0102
  237TIP3    H1  675   6.063   1.390   4.081 -1.4626 -0.5201  0.7147
  237TIP3    H2  676   6.171   1.362   4.183 -1.5892 -0.5165  0.8486
  238TIP3   OH2  677   0.512   0.100   2.524  0.3022 -0.3442 -0.8412
  238TIP3    H1  678   0.525   0.131   2.435 -0.1696 -1.4895 -1.3274
  238TIP3    H2  679   0.418   0.085   2.531  0.4754 -1.3621 -0.5412
  239TIP3   OH2  680   5.924   5.094   4.818 -0.2550 -0.3915 -0.2093
  239TIP3    H1  681   5.868   5.137   4.753 -0.9324  0.3398  0.8127
  239TIP3    H2  682   5.862   5.055   4.880  0.3247  0.8647  1.2276
  240TIP3   OH2  683   5.956   3.857   3.166  0.0146  0.0473 -0.1778
  240TIP3    H1  684   5.982   3.853   3.258 -0.8783  0.2024  0.0888
  240TIP3    H2  685   5.898   3.781   3.154 -1.3441  1.0291 -0.1186
  241TIP3   OH2  686   4.868   5.071   3.606 -0.1212  0.1096 -0.1429
  241TIP3    H1  687   4.901   5.153   3.641 -0.2617 -0.3582  1.1297
  241TIP3    H2  688   4.940   5.037   3.553  0.7202  0.0687  0.9955
  242TIP3   OH2  689   5.767   0.244   4.270  0.4172 -0.2254 -0.0932
  242TIP3    H1  690   5.683   0.288   4.286 -0.5272 -1.5872 -1.1124
  242TIP3    H2  691   5.782   0.193   4.350  0.4331  0.2505  0.2125
  243TIP3   OH2  692   2.938   5.513   5.753 -0.1895  0.3215  0.3436
  243TIP3    H1  693   2.901   5.428   5.730 -0.3871  0.5291 -0.1119
  243TIP3    H2  694   2.880   5.547   5.820  0.1315 -0.0868  0.8386
  244TIP3   OH2  695   3.243   0.138   0.820  0.1302 -0.4344 -0.1106
  244TIP3    H1  696   3.302   0.134   0.895 -2.1436  0.0115  1.8131
  244TIP3    H2  697   3.298   0.111   0.746  3.8511  3.5721  0.7250
  245TIP3   OH2  698   2.238   4.524   3.139 -0.0708 -0.2199 -0.5072
  245TIP3    H1  699   2.166   4.472   3.104 -0.6390 -0.4745  0.9505
  245TIP3    H2  700   2.195   4.598   3.182  0.5767  0.0157 -0.2521
  246TIP3   OH2  701   4.134   6.614   5.770 -0.4474  0.4192 -1.0713
  246TIP3    H1  702   4.146   6.698   5.727  1.9652  0.5226 -0.3878
  246TIP3    H2  703   4.070   6.630   5.839  0.1384  1.7542 -0.8222
  247TIP3   OH2  704   2.720   5.651   1.510 -0.0377  0.2652 -0.5756
  247TIP3    H1  705   2.787   5.587   1.487  0.0904 -0.4362  1.4818
  247TIP3    H2  706   2.682   5.677   1.427  2.8709  0.8221 -1.8531
  248TIP3   OH2  707   7.210   0.149   0.441 -0.2490  0.6037 -0.3267
  248TIP3    H1  708   7.222   0.240   0.469  0.0224  1.2960 -2.4678
  248TIP3    H2  709   7.180   0.157   0.351  0.5409 -1.4545 -0.8119
  249TIP3   OH2  710   0.077   4.497   5.535 -0.0347  0.2049 -0.1159
  249TIP3    H1  711   0.145   4.430   5.539 -1.5195 -1.3421  1.1413
  249TIP3    H2  712   0.105   4.557   5.466  1.9084 -1.1040 -0.5293
  250TIP3   OH2  713   5.089   0.322   4.842 -0.2625  0.3331 -0.0618
  250TIP3    H1  714   5.068   0.245   4.789 -0.1703  1.2209 -1.4322
  250TIP3    H2  715   5.027   0.318   4.914  0.0218 -1.2552  0.1389
  251TIP3   OH2  716   4.148   3.129   4.162  0.2448  0.3789 -0.4300
  251TIP3    H1  717   4.214   3.061   4.148 -0.1438 -0.1541  0.2834
  251TIP3    H2  718   4.197   3.211   4.159  0.7330  0.0747 -1.2182
  252TIP3   OH2  719   2.750   3.861   4.537  0.1168 -0.3600  0.0877
  252TIP3    H1  720   2.844   3.845   4.526  0.4831  1.7305 -0.1387
  252TIP3    H2  721   2.742   3.897   4.625 -0.4044  0.0194 -0.1137
  253TIP3   OH2  722   3.842   3.672   5.918 -0.9983  0.0507 -0.3997
  253TIP3    H1  723   3.851   3.607   5.848 -2.3657 -0.3689 -0.2180
  253TIP3    H2  724   3.843   3.756   5.872 -1.5626 -0.2051 -0.9000
  254TIP3   OH2  725   1.120   2.051   1.092  0.8148  0.1244  0.2204
  254TIP3    H1  726   1.176   2.077   1.019 -0.9755  0.3023 -1.1662
  254TIP3    H2  727   1.128   1.955   1.095  0.9255  0.1151 -0.2093
  255TIP3   OH2  728   0.764   3.021   3.940 -0.2822  0.1771 -0.5095
  255TIP3    H1  729   0.755   2.926   3.935 -1.3123  0.2763 -0.8363
  255TIP3    H2  730   0.690   3.049   3.994 -0.2922  0.8415 -0.8531
  256TIP3   OH2  731   6.674   2.531   5.166  0.1453  0.3427 -0.6419
  256TIP3    H1  732   6.747   2.474   5.145  0.7881  0.2708  1.5180
  256TIP3    H2  733   6.610   2.517   5.096  1.2616 -1.2719 -1.3706
  257TIP3   OH2  734   3.118   2.781   1.909 -0.4626 -0.1306 -0.6071
  257TIP3    H1  735   3.130   2.824   1.994 -0.2313  1.4036 -1.3695
  257TIP3    H2  736   3.104   2.854   1.848  1.2384 -1.0605 -2.2004
  258TIP3   OH2  737   0.489   5.520   3.080  0.0100  0.5115  0.2297
  258TIP3    H1  738   0.534   5.454   3.028  0.4612 -0.8048  2.1521
  258TIP3    H2  739   0.518   5.603   3.044  0.7398 -0.3238 -1.2085
  259TIP3   OH2  740   3.251   4.711   1.411  1.0939  0.5318 -0.2392
  259TIP3    H1  741   3.180   4.752   1.460  0.3856  0.0137 -0.8192
  259TIP3    H2  742   3.328   4.765   1.432  0.8474  0.2729  1.5059
  260TIP3   OH2  743   5.804   0.544   1.475 -0.3128  0.1515 -0.3356
  260TIP3    H1  744   5.891   0.530   1.436 -0.6944 -0.7602 -0.8892
  260TIP3    H2  745   5.793   0.639   1.474  0.8700  0.3092  0.1793
  261TIP3   OH2  746   2.421   5.006   3.954 -0.3172 -0.7217 -0.6964
  261TIP3    H1  747   2.505   4.960   3.954  0.6199  0.9058 -1.4252
  261TIP3    H2  748   2.390   5.000   3.864  0.1543  0.5890 -0.9742
  262TIP3   OH2  749   2.572   2.140   2.656  0.1972  0.4388  0.2703
  262TIP3    H1  750   2.549   2.084   2.582  0.5002  1.3309 -0.5133
  262TIP3    H2  751   2.667   2.142   2.657  0.1936  0.4830  0.6449
  263TIP3   OH2  752   4.761   0.708   2.129 -0.2768  0.4727  0.2828
  263TIP3    H1  753   4.689   0.646   2.129 -0.3601  0.5392  1.5724
  263TIP3    H2  754   4.827   0.669   2.188  0.2294  0.9702  0.0605
  264TIP3   OH2  755   1.063   4.572   3.749  0.1449 -0.0446  0.2261
  264TIP3    H1  756   1.085   4.629   3.675  0.1786  1.0887  1.0934
  264TIP3    H2  757   1.139   4.514   3.758 -0.8709 -1.9882 -2.2164
  265TIP3   OH2  758   5.108   2.031   0.256 -0.3785 -0.1602  0.0106
  265TIP3    H1  759   5.102   1.938   0.281 -0.4950 -0.2033 -0.1769
  265TIP3    H2  760   5.159   2.030   0.175  1.5091  0.1237  1.1257
  266TIP3   OH2  761   0.240   3.226   5.678 -0.3315  0.0628 -0.0903
  266TIP3    H1  762   0.284   3.160   5.624 -0.6514  0.5445 -0.9658
  266TIP3    H2  763   0.178   3.269   5.618  0.0168  1.2945  0.3930
  267TIP3   OH2  764   5.208   1.355   4.996  0.1628  0.5562 -0.1718
  267TIP3    H1  765   5.114   1.360   4.979  0.3218  3.2130 -0.6397
  267TIP3    H2  766   5.215   1.326   5.087 -1.1686  1.4945  0.2476
  268TIP3   OH2  767   5.731   0.943   0.645  0.2107 -0.7806  0.0607
  268TIP3    H1  768   5.740   0.925   0.739 -1.5562 -1.3794  0.1546
  268TIP3    H2  769   5.648   0.901   0.621 -0.7484  1.6519 -1.2025
  269TIP3   OH2  770   3.384   1.206   0.197 -0.2128 -0.3216 -0.0541
  269TIP3    H1  771   3.423   1.293   0.184 -1.1025 -0.0590 -1.1838
  269TIP3    H2  772   3.332   1.192   0.117 -0.5948 -1.6140  0.4118
  270TIP3   OH2  773   4.031   6.004   1.590  0.0162 -0.0187  0.0492
  270TIP3    H1  774   4.010   6.056   1.512  0.2482 -0.0723 -0.0521
  270TIP3    H2  775   4.103   6.052   1.631 -0.2235  0.1019  0.3258
  271TIP3   OH2  776   2.193   2.465   2.823  0.3173 -0.1139  0.2096
  271TIP3    H1  777   2.191   2.520   2.745 -1.6217  0.6401  0.7337
  271TIP3    H2  778   2.261   2.400   2.805  0.5805  0.6273 -1.6863
  272TIP3   OH2  779   4.943   1.165   0.795  0.0914  0.0956 -0.1828
  272TIP3    H1  780   4.915   1.245   0.751 -0.8409 -0.0152  0.1883
  272TIP3    H2  781   5.031   1.184   0.826  0.6477  0.2942 -1.7746
  273TIP3   OH2  782   5.663   0.274   2.413  0.4698 -0.4877 -0.3150
  273TIP3    H1  783   5.599   0.215   2.453 -1.7069  1.5053 -0.6236
  273TIP3    H2  784   5.732   0.216   2.381 -0.7320 -2.6891  0.8060
  274TIP3   OH2  785   1.778   0.662   1.228 -0.1619  0.4984 -0.1556
  274TIP3    H1  786   1.733   0.581   1.252  0.8595  0.0368  0.2733
  274TIP3    H2  787   1.710   0.718   1.192 -0.6422 -1.1664 -2.0247
  275TIP3   OH2  788   6.323   0.453   0.509  0.1010  0.1559  0.2280
  275TIP3    H1  789   6.354   0.380   0.562  1.6983  0.3035 -0.4377
  275TIP3    H2  790   6.357   0.531   0.554  1.3518  0.2900 -0.9034
  276TIP3   OH2  791   6.769   0.075   3.688 -0.1995  0.0027  0.2081
  276TIP3    H1  792   6.742   0.165   3.670 -0.4153  0.5642  2.9076
  276TIP3    H2  793   6.687   0.027   3.696 -0.2326  0.2653  1.7624
  277TIP3   OH2  794   0.223   1.000   0.987  0.2615 -0.9982 -0.5338
  277TIP3    H1  795   0.290   1.030   0.925 -1.3993  0.1321 -1.8978
  277TIP3    H2  796   0.191   1.080   1.028 -1.7767 -1.1879 -1.6000
  278TIP3   OH2  797   5.112   4.549   3.560 -0.3374 -0.3002 -0.3111
  278TIP3    H1  798   5.095   4.462   3.596  1.0349 -1.0753 -1.4420
  278TIP3    H2  799   5.025   4.588   3.552 -1.0169 -1.6746 -0.0507
  279TIP3   OH2  800   2.664   2.034   0.247  0.0109 -0.3128 -0.4934
  279TIP3    H1  801   2.611   1.980   0.306  0.3836  1.1037  1.2094
  279TIP3    H2  802   2.748   1.989   0.243  0.2223 -0.0484  0.6798
  280TIP3   OH2  803   5.043   0.899   2.278 -0.4704  0.3333 -0.0164
  280TIP3    H1  804   5.000   0.945   2.207 -1.1439  1.4938  1.0896
  280TIP3    H2  805   5.099   0.965   2.319  0.3110 -0.4495  0.1962
  281TIP3   OH2  806   0.461   1.436   0.771 -0.3663 -0.4921  0.1068
  281TIP3    H1  807   0.399   1.415   0.701  1.2099  0.2133 -1.5804
  281TIP3    H2  808   0.454   1.531   0.782 -2.3158 -0.8167  2.6883
  282TIP3   OH2  809   4.460   6.603   3.109  0.1031  0.2422  0.1148
  282TIP3    H1  810   4.467   6.689   3.150 -1.3186  0.3802  0.1146
  282TIP3    H2  811   4.395   6.556   3.161 -0.0903 -0.3623 -0.6412
  283TIP3   OH2  812   0.437   4.642   4.569  0.0018  0.4107 -0.2645
  283TIP3    H1  813   0.474   4.567   4.523 -1.0208 -0.0317 -0.4056
  283TIP3    H2  814   0.501   4.712   4.557  1.1610 -0.5260  0.1709
  284TIP3   OH2  815   0.233   3.894   2.767 -0.4303  0.6053 -0.4691
  284TIP3    H1  816   0.175   3.819   2.758 -0.5207  0.8056 -1.6914
  284TIP3    H2  817   0.321   3.857   2.768 -0.5455  0.2403  2.0561
  285TIP3   OH2  818   2.238   2.047   0.823  0.3376 -0.3487 -0.2474
  285TIP3    H1  819   2.287   2.003   0.892  1.2809  1.3705  0.2490
  285TIP3    H2  820   2.167   2.093   0.870 -0.7369 -1.4152 -0.7683
  286TIP3   OH2  821   6.861   1.102   3.395 -0.0397  0.4575 -0.5589
  286TIP3    H1  822   6.892   1.016   3.421 -1.0099  0.2116 -0.1777
  286TIP3    H2  823   6.878   1.158   3.470 -1.8257 -0.0074  0.2413
  287TIP3   OH2  824   6.853   1.615   4.805  0.2034 -0.0978 -0.5927
  287TIP3    H1  825   6.842   1.521   4.816 -0.0615 -0.0193 -0.1908
  287TIP3    H2  826   6.867   1.626   4.711  2.3763 -0.7586 -0.3968
  288TIP3   OH2  827   0.484   2.969   3.476 -0.1239  0.0670  0.2230
  288TIP3    H1  828   0.426   2.917   3.420  0.2088  0.9882 -1.0202
  288TIP3    H2  829   0.429   3.042   3.506 -0.2743 -0.3732  1.0332
  289TIP3   OH2  830   5.157   0.886   1.484 -0.1475 -0.1105 -0.1314
  289TIP3    H1  831   5.106   0.838   1.549  0.5730 -0.5642  0.1158
  289TIP3    H2  832   5.115   0.972   1.479 -1.6739 -0.8707 -0.8519
  290TIP3   OH2  833   7.172   2.115   0.400 -0.2385 -0.4586 -0.1896
  290TIP3    H1  834   7.086   2.084   0.373 -1.0045  1.6295 -0.3760
  290TIP3    H2  835   7.175   2.206   0.370  2.9308 -1.0666 -2.1648
  291TIP3   OH2  836   1.863   5.304   5.557 -0.2560  0.1980  0.1311
  291TIP3    H1  837   1.913   5.274   5.633  1.2754  0.6524 -0.6460
  291TIP3    H2  838   1.885   5.242   5.488  0.0809  1.0061 -0.5071
  292TIP3   OH2  839   1.418   1.804   4.404 -0.5198  0.2035 -0.0848
  292TIP3    H1  840   1.397   1.893   4.430 -1.1779 -0.1888  0.7885
  292TIP3    H2  841   1.379   1.795   4.317  0.1131  0.9554 -0.4624
  293TIP3   OH2  842   5.715   6.009   4.473 -0.0088  0.1384  0.3992
  293TIP3    H1  843   5.797   6.040   4.510 -0.9806  0.8432  2.0813
  293TIP3    H2  844   5.663   6.088   4.459 -0.2547 -0.2569 -1.0566
  294TIP3   OH2  845   4.255   1.465   0.370  0.6668  0.1580  0.6433
  294TIP3    H1  846   4.171   1.509   0.379  1.2449  1.1134  1.6536
  294TIP3    H2  847   4.242   1.400   0.301 -0.4935  1.2482 -0.1952
  295TIP3   OH2  848   4.027   5.013   5.096 -0.1955  0.0150  0.3153
  295TIP3    H1  849   3.978   4.991   5.175 -0.5653 -1.6140 -0.3198
  295TIP3    H2  850   3.972   5.078   5.051 -0.3272  0.4037  1.0323
  296TIP3   OH2  851   4.844   2.091   5.322 -0.1279  0.3164 -0.3356
  296TIP3    H1  852   4.855   1.999   5.345  0.5126  0.8417  1.6923
  296TIP3    H2  853   4.897   2.103   5.243  2.2614 -0.4258  1.0703
  297TIP3   OH2  854   5.132   0.093   5.226  0.6921  0.3401 -0.6156
  297TIP3    H1  855   5.094   0.008   5.200 -0.6366  0.7779 -0.1989
  297TIP3    H2  856   5.160   0.079   5.317  0.4286  0.3532 -0.5301
  298TIP3   OH2  857   5.307   5.907   2.117  0.4362  0.1286  0.0249
  298TIP3    H1  858   5.297   5.983   2.174 -0.2763 -0.8947  1.2974
  298TIP3    H2  859   5.220   5.867   2.114  1.2158 -1.7651  1.0277
  299TIP3   OH2  860   3.479   2.033   3.258 -0.2995 -0.5942 -0.5316
  299TIP3    H1  861   3.437   2.023   3.344  1.0175  0.2041  0.2273
  299TIP3    H2  862   3.539   1.958   3.252  1.6538  0.7990  0.4983
  300TIP3   OH2  863   4.446   0.327   4.562 -0.5052  0.7810 -0.0808
  300TIP3    H1  864   4.416   0.286   4.481 -0.1514 -3.0614  1.5247
  300TIP3    H2  865   4.511   0.391   4.534  0.6587 -1.3846 -2.7986
  301TIP3   OH2  866   3.692   2.030   5.440 -0.4257 -0.5636  0.2396
  301TIP3    H1  867   3.602   2.055   5.463 -1.2712  0.0851 -3.1821
  301TIP3    H2  868   3.718   2.093   5.372  1.6141 -2.3280 -0.7424
  302TIP3   OH2  869   2.410   3.228   3.679 -0.2172  0.0015  0.1870
  302TIP3    H1  870   2.344   3.159   3.681 -0.3099  0.0895  0.1814
  302TIP3    H2  871   2.460   3.215   3.759  0.7868 -1.0659 -0.5850
  303TIP3   OH2  872   0.172   5.660   4.237  0.4609  0.6976  0.0718
  303TIP3    H1  873   0.252   5.701   4.271 -0.2378  1.5246  0.7599
  303TIP3    H2  874   0.110   5.733   4.226  0.3534  0.3479 -2.1617
  304TIP3   OH2  875   2.177   6.665   2.268  0.0038 -0.6319 -0.1024
  304TIP3    H1  876   2.136   6.676   2.182  0.6507 -1.4712 -0.5273
  304TIP3    H2  877   2.266   6.699   2.257 -0.4719  0.9565  0.7489
  305TIP3   OH2  878   2.992   2.821   5.147 -0.1839  0.3934  0.0942
  305TIP3    H1  879   3.057   2.761   5.109 -0.1070  0.3826  0.2412
  305TIP3    H2  880   2.908   2.779   5.129 -0.2632  1.1668 -1.4666
  306TIP3   OH2  881   2.347   2.248   3.926  0.2222  0.0291  0.2416
  306TIP3    H1  882   2.407   2.235   4.000 -0.1818  1.1287  0.7898
  306TIP3    H2  883   2.400   2.227   3.849  1.2929  0.8391  0.7251
  307TIP3   OH2  884   6.596   5.880   3.818  0.0468 -0.0702  0.5277
  307TIP3    H1  885   6.550   5.800   3.843 -0.9818 -0.2459 -1.7369
  307TIP3    H2  886   6.530   5.933   3.773  1.5257  0.6039 -0.9507
  308TIP3   OH2  887   3.378   5.098   2.050 -0.1668 -0.3424  0.2892
  308TIP3    H1  888   3.447   5.062   2.107  0.1448  0.1273  0.2147
  308TIP3    H2  889   3.344   5.022   2.003  1.9458 -0.3437 -1.4494
  309TIP3   OH2  890   4.456   2.784   3.386 -0.1842  0.3137  0.7892
  309TIP3    H1  891   4.506   2.715   3.343 -0.9971  0.3139 -0.2102
  309TIP3    H2  892   4.376   2.792   3.333  0.3233  2.6964  0.2687
  310TIP3   OH2  893   4.989   4.254   1.370 -0.1938 -0.3341 -0.1907
  310TIP3    H1  894   5.038   4.275   1.291 -1.2712  2.5408 -0.2426
  310TIP3    H2  895   4.919   4.197   1.340  0.6534 -1.0393 -0.8831
  311TIP3   OH2  896   6.531   2.358   3.848 -0.3445  0.3962 -0.3250
  311TIP3    H1  897   6.484   2.276   3.863  1.6307 -0.5236  1.2859
  311TIP3    H2  898   6.551   2.358   3.754 -0.6284 -0.8133 -0.3948
  312TIP3   OH2  899   4.871   5.820   3.430  0.0463 -0.1054  0.1223
  312TIP3    H1  900   4.950   5.872   3.412  0.9903 -0.6949  2.2704
  312TIP3    H2  901   4.805   5.855   3.371  1.2060  2.1759  0.0925
  313TIP3   OH2  902   7.063   6.621   3.869  0.3814 -0.0375 -0.0430
  313TIP3    H1  903   6.975   6.650   3.893  1.3778  1.1278  2.5517
  313TIP3    H2  904   7.087   6.558   3.936  1.9902  0.6148  0.0371
  314TIP3   OH2  905   4.656   6.494   4.082  0.3572 -0.0675 -0.4949
  314TIP3    H1  906   4.611   6.411   4.067  0.4981 -0.6652  2.0447
  314TIP3    H2  907   4.721   6.498   4.012 -0.2172 -1.6816 -1.1802
  315TIP3   OH2  908   1.312   0.450   1.130  0.4136 -0.0855  0.8414
  315TIP3    H1  909   1.394   0.460   1.082 -0.0580  0.1968  0.0587
  315TIP3    H2  910   1.294   0.538   1.165 -0.4906  0.3494 -0.6014
  316TIP3   OH2  911   1.787   6.617   5.336  0.2286  0.1526 -0.2119
  316TIP3    H1  912   1.741   6.628   5.419 -0.1786 -0.6802 -0.3178
  316TIP3    H2  913   1.792   6.706   5.300  0.3438  0.5076  0.6615
  317TIP3   OH2  914   6.406   4.649   4.356 -0.1093 -0.0333  0.1096
  317TIP3    H1  915   6.421   4.732   4.311 -0.5868 -0.0212 -0.0374
  317TIP3    H2  916   6.419   4.669   4.449  0.8498 -0.0513 -0.0070
  318TIP3   OH2  917   4.430   6.132   4.177 -0.0064  0.3933  0.3567
  318TIP3    H1  918   4.508   6.165   4.133  0.1326  0.9795  1.0173
  318TIP3    H2  919   4.362   6.132   4.110  1.3977 -3.9934 -1.4740
  319TIP3   OH2  920   3.449   6.238   5.853 -0.8442  0.2272 -0.4548
  319TIP3    H1  921   3.485   6.274   5.771 -0.8707  0.4610 -0.3653
  319TIP3    H2  922   3.368   6.195   5.826 -1.7263  1.7419 -0.3191
  320TIP3   OH2  923   0.305   2.878   5.780  0.4897 -0.0972 -0.1230
  320TIP3    H1  924   0.219   2.838   5.771  0.2124  0.7270 -1.3414
  320TIP3    H2  925   0.338   2.845   5.864 -1.8135  1.0629  1.3281
  321TIP3   OH2  926   0.663   0.515   4.419  0.1591  0.1754  0.3538
  321TIP3    H1  927   0.703   0.438   4.381  0.8319  0.0927  1.2146
  321TIP3    H2  928   0.725   0.545   4.486 -0.0312  1.5212 -0.0397
  322TIP3   OH2  929   0.457   6.366   5.277  0.2115 -0.3076  0.0054
  322TIP3    H1  930   0.505   6.407   5.205 -1.1368 -0.2668 -0.9138
  322TIP3    H2  931   0.390   6.430   5.301 -1.5961 -1.6934 -1.0962
  323TIP3   OH2  932   2.848   0.886   1.685  0.3564  0.1653  0.3300
  323TIP3    H1  933   2.831   0.793   1.674 -1.1940  0.2945  1.3575
  323TIP3    H2  934   2.820   0.925   1.601 -0.4197 -0.1424  0.4325
  324TIP3   OH2  935   2.039   6.279   2.059  0.5575 -0.2035 -0.5026
  324TIP3    H1  936   2.001   6.261   1.973 -0.6094 -0.8719  0.1190
  324TIP3    H2  937   2.119   6.227   2.061 -1.1025 -2.9295  0.0174
  325TIP3   OH2  938   2.889   5.972   0.962 -0.2819  0.0200  0.2680
  325TIP3    H1  939   2.875   5.997   0.870  0.4555  0.0045  0.1404
  325TIP3    H2  940   2.974   5.927   0.961 -0.5385 -0.4864  0.8687
  326TIP3   OH2  941   0.529   4.591   4.153  0.3315  0.3531  0.1180
  326TIP3    H1  942   0.531   4.513   4.097  0.7473  1.9147 -2.1875
  326TIP3    H2  943   0.493   4.560   4.236 -0.3167 -2.1051 -0.9837
  327TIP3   OH2  944   6.047   6.769   5.499 -0.6941  0.1546  0.2434
  327TIP3    H1  945   5.975   6.706   5.491 -1.2002  0.2410  3.1105
  327TIP3    H2  946   6.120   6.716   5.532  0.2666  0.2919 -1.5528
  328TIP3   OH2  947   5.700   0.503   5.245  0.8015 -0.4312  0.3747
  328TIP3    H1  948   5.701   0.421   5.195 -1.0597  2.0567 -4.2814
  328TIP3    H2  949   5.773   0.554   5.209 -1.1241  1.7979 -0.6221
  329TIP3   OH2  950   6.038   4.494   4.642 -0.2859  0.2048 -0.0497
  329TIP3    H1  951   5.946   4.471   4.627 -0.6597 -0.3736  2.5715
  329TIP3    H2  952   6.034   4.582   4.681  0.1254 -0.2932  1.1714
  330TIP3   OH2  953   6.230   1.549   5.662  0.9711 -0.4336  0.2531
  330TIP3    H1  954   6.140   1.572   5.638  0.9271 -0.7916  0.0637
  330TIP3    H2  955   6.235   1.455   5.646  1.3559 -0.4295  0.3480
  331TIP3   OH2  956   1.467   2.925   4.395 -0.2869  0.4331 -0.2875
  331TIP3    H1  957   1.488   3.011   4.431  0.2369  0.7759 -1.3754
  331TIP3    H2  958   1.379   2.934   4.360 -0.5317  0.2949  0.2810
  332TIP3   OH2  959   4.809   1.502   2.665  0.2083  0.4034 -0.1268
  332TIP3    H1  960   4.829   1.595   2.654 -1.2345  0.7934  0.3448
  332TIP3    H2  961   4.834   1.462   2.582 -0.0352  1.3693 -0.6805
  333TIP3   OH2  962   1.587   1.491   2.629 -0.1431  0.3247  0.3287
  333TIP3    H1  963   1.588   1.548   2.707 -0.6661  0.9179 -0.0833
  333TIP3    H2  964   1.667   1.441   2.635 -1.0897 -1.0813  2.2990
  334TIP3   OH2  965   4.208   0.709   1.037  0.5265  0.5755  0.8267
  334TIP3    H1  966   4.201   0.645   1.108 -0.2584  0.7230  0.8912
  334TIP3    H2  967   4.122   0.751   1.034  0.2791 -0.0090 -0.7742
  335TIP3   OH2  968   5.216   4.946   0.445 -0.6422  0.3366  0.1531
  335TIP3    H1  969   5.176   4.910   0.524 -3.8246  2.6950 -0.1873
  335TIP3    H2  970   5.145   4.993   0.401  1.7378  1.7810 -2.5161
  336TIP3   OH2  971   5.714   1.598   0.206  0.2727 -0.6743 -0.3113
  336TIP3    H1  972   5.624   1.567   0.219 -0.4640  0.6712 -1.8936
  336TIP3    H2  973   5.717   1.625   0.114  1.9071  0.5064  0.0501
  337TIP3   OH2  974   6.394   2.223   4.218  0.3564 -0.2902 -0.8588
  337TIP3    H1  975   6.460   2.289   4.238 -0.2821 -0.1808  1.1256
  337TIP3    H2  976   6.320   2.246   4.274 -0.1189 -2.2837 -0.6048
  338TIP3   OH2  977   2.415   1.381   1.352 -0.4117  0.7021 -0.1912
  338TIP3    H1  978   2.409   1.331   1.434  1.8061  0.4237 -0.1484
  338TIP3    H2  979   2.385   1.320   1.285  2.2706 -0.8291 -0.1403
  339TIP3   OH2  980   4.703   2.901   3.098 -0.0955 -0.3224 -0.6783
  339TIP3    H1  981   4.655   2.856   3.028  0.1645 -1.2893 -0.2495
  339TIP3    H2  982   4.746   2.831   3.147  1.7406  0.5041 -1.0298
  340TIP3   OH2  983   2.099   0.207   1.904  0.1156 -0.2073  0.4889
  340TIP3    H1  984   2.019   0.166   1.871  0.6097 -1.5528  0.9230
  340TIP3    H2  985   2.095   0.297   1.870 -2.3559  0.2702  1.8341
  341TIP3   OH2  986   5.907   0.416   3.149 -0.0715  0.5691 -0.1209
  341TIP3    H1  987   5.817   0.443   3.134 -0.3642  1.0959  2.1897
  341TIP3    H2  988   5.952   0.496   3.177  0.8165  0.0597 -0.0310
  342TIP3   OH2  989   0.682   4.387   5.667 -0.4590 -0.3646  0.5348
  342TIP3    H1  990   0.718   4.343   5.590 -0.6093 -0.2857  0.4197
  342TIP3    H2  991   0.726   4.344   5.741 -0.5280 -0.6389  0.4206
  343TIP3   OH2  992   4.460   5.946   5.388  0.0626  0.4287 -0.1784
  343TIP3    H1  993   4.499   5.993   5.461 -0.7120 -1.5158  1.5894
  343TIP3    H2  994   4.365   5.959   5.399 -0.1547 -1.3482  0.2509
  344TIP3   OH2  995   1.447   4.452   1.314 -0.0438 -0.3369  0.6042
  344TIP3    H1  996   1.538   4.452   1.344 -0.1297 -0.7424  0.8746
  344TIP3    H2  997   1.451   4.418   1.225 -0.0054 -1.0838  0.8798
  345TIP3   OH2  998   1.489   2.270   3.946 -0.5958  0.2920 -0.0444
  345TIP3    H1  999   1.492   2.182   3.982 -0.4212 -0.2157 -1.2633
  345TIP3    H2 1000   1.399   2.280   3.914 -0.4420  0.3000 -0.4919
  346TIP3   OH2 1001   2.664   5.876   3.412 -0.2317 -0.1977  0.1670
  346TIP3    H1 1002   2.622   5.876   3.326  1.1105 -1.6795 -0.5329
  346TIP3    H2 1003   2.593   5.893   3.474 -1.3999 -0.1500 -1.1517
  347TIP3   OH2 1004   2.277   2.836   3.046 -0.0149  0.1430  0.6557
  347TIP3    H1 1005   2.212   2.791   2.993  0.4437 -1.4563  1.3761
  347TIP3    H2 1006   2.259   2.929   3.034 -1.6727 -0.2496 -0.0638
  348TIP3   OH2 1007   6.877   3.950   1.658  0.0345  0.6317 -0.5103
  348TIP3    H1 1008   6.875   3.854   1.649  1.1098  0.7214 -2.1316
  348TIP3    H2 1009   6.818   3.968   1.731 -0.9589 -1.1992 -0.7860
  349TIP3   OH2 1010   3.802   3.015   4.851  0.0050  0.3536  0.0268
  349TIP3    H1 1011   3.823   2.922   4.862 -2.1118 -0.3446 -1.1244
  349TIP3    H2 1012   3.882   3.054   4.816  0.2152 -1.5909 -1.8691
  350TIP3   OH2 1013   2.341   1.814   1.488 -0.0246  0.0665 -0.1763
  350TIP3    H1 1014   2.433   1.815   1.516 -0.3056  2.0688  0.8716
  350TIP3    H2 1015   2.345   1.830   1.393  0.7101  1.4711  0.0584
  351TIP3   OH2 1016   0.078   4.290   3.116  0.0731 -0.0129 -0.1289
  351TIP3    H1 1017   0.081   4.325   3.205  0.0848 -0.6673  0.1344
  351TIP3    H2 1018   0.083   4.367   3.059  0.9081  0.3618  0.4297
  352TIP3   OH2 1019   0.855   4.371   4.237 -0.1608 -0.0538 -0.2148
  352TIP3    H1 1020   0.830   4.362   4.145 -1.2408 -0.1765  0.0817
  352TIP3    H2 1021   0.893   4.459   4.243  1.4284 -0.6337 -1.0960
  353TIP3   OH2 1022   1.381   0.439   3.606  0.1727  0.3601 -0.2480
  353TIP3    H1 1023   1.338   0.521   3.629 -0.4564 -0.0292  0.0136
  353TIP3    H2 1024   1.471   0.449   3.638 -0.3762  0.2543  1.4643
  354TIP3   OH2 1025   0.420   4.355   5.569  0.4187 -0.3616 -0.5589
  354TIP3    H1 1026   0.403   4.374   5.477 -0.7965  0.4411 -0.1973
  354TIP3    H2 1027   0.513   4.373   5.581 -0.0970  3.0217 -0.8335
  355TIP3   OH2 1028   5.588   3.240   3.882  0.1240  0.7567  0.2256
  355TIP3    H1 1029   5.575   3.211   3.972  0.0377 -0.1786 -0.0832
  355TIP3    H2 1030   5.609   3.333   3.890 -1.7263  1.1437  1.0948
  356TIP3   OH2 1031   2.362   6.354   2.096 -0.2689  0.3799  0.0464
  356TIP3    H1 1032   2.426   6.425   2.099  0.4001 -0.1549 -1.0704
  356TIP3    H2 1033   2.352   6.334   2.003 -2.8637  1.1516  0.0571
  357TIP3   OH2 1034   4.484   4.325   1.952  0.4036  0.1548  0.2868
  357TIP3    H1 1035   4.444   4.403   1.914  1.0169 -0.2838 -1.3103
  357TIP3    H2 1036   4.471   4.256   1.887  0.5111 -0.9236  1.3486
  358TIP3   OH2 1037   5.457   0.651   3.047  0.0829  0.1951 -0.0862
  358TIP3    H1 1038   5.388   0.590   3.072  0.7348 -0.5479 -0.0491
  358TIP3    H2 1039   5.411   0.727   3.012 -0.7566 -0.1346  0.2837
  359TIP3   OH2 1040   0.794   1.705   5.645 -0.0232  0.3401  0.6546
  359TIP3    H1 1041   0.806   1.612   5.628  0.5448  0.5498 -0.1296
  359TIP3    H2 1042   0.828   1.718   5.733 -0.2369 -0.2147  0.8247
  360TIP3   OH2 1043   4.128   6.238   5.300  0.0819  0.0246  0.2005
  360TIP3    H1 1044   4.220   6.251   5.278  0.3316  0.5284  1.4723
  360TIP3    H2 1045   4.128   6.226   5.395 -0.9810 -1.7055  0.0187
  361TIP3   OH2 1046   1.156   4.773   0.441  0.2433 -0.3295 -0.1078
  361TIP3    H1 1047   1.067   4.808   0.442 -0.3159 -1.6862  0.3472
  361TIP3    H2 1048   1.165   4.728   0.525  1.7427  0.6653  0.3051
  362TIP3   OH2 1049   0.886   1.259   2.837 -0.3152  0.0801 -0.1187
  362TIP3    H1 1050   0.857   1.210   2.760  0.1851  0.6517 -0.6904
  362TIP3    H2 1051   0.950   1.201   2.879 -0.1007  0.0280 -0.5057
  363TIP3   OH2 1052   2.494   6.544   0.686  0.6524 -0.2999  0.6548
  363TIP3    H1 1053   2.575   6.540   0.737 -0.0447  0.8671  1.9121
  363TIP3    H2 1054   2.501   6.625   0.636  0.9940 -1.0588 -0.5685
  364TIP3   OH2 1055   4.314   4.757   0.095  0.2081  0.0715  0.1875
  364TIP3    H1 1056   4.306   4.678   0.149 -1.4759 -0.9637 -1.4571
  364TIP3    H2 1057   4.225   4.773   0.063  0.7922  1.8023 -0.7196
  365TIP3   OH2 1058   1.469   4.819   1.152 -0.4678 -0.4409  0.6973
  365TIP3    H1 1059   1.421   4.743   1.119 -1.4401 -0.3418  1.8187
  365TIP3    H2 1060   1.401   4.878   1.184 -0.0177  2.3536 -2.8433
  366TIP3   OH2 1061   5.125   4.878   1.780  0.3042  0.1721  0.3807
  366TIP3    H1 1062   5.161   4.960   1.814  0.2761 -0.3667  1.7971
  366TIP3    H2 1063   5.036   4.899   1.754  0.0796  0.4669  1.3436
  367TIP3   OH2 1064   2.523   6.151   3.746 -0.0598 -0.2484  0.3208
  367TIP3    H1 1065   2.570   6.093   3.806  1.0607  0.3694  0.0715
  367TIP3    H2 1066   2.479   6.092   3.684  1.4133 -0.8490 -0.1999
  368TIP3   OH2 1067   6.176   0.292   1.009 -0.5059  0.9927 -0.5345
  368TIP3    H1 1068   6.143   0.303   1.099  0.7476  0.3188  0.0338
  368TIP3    H2 1069   6.165   0.379   0.970  0.0237  1.6348  0.6626
  369TIP3   OH2 1070   0.327   3.065   1.214 -0.0376 -0.0539  0.3111
  369TIP3    H1 1071   0.355   3.157   1.208  1.9076 -0.5918  0.4900
  369TIP3    H2 1072   0.260   3.056   1.147  2.7553  0.4801 -2.8512
  370TIP3   OH2 1073   1.789   1.478   3.639 -0.0419  0.5078 -0.4890
  370TIP3    H1 1074   1.694   1.485   3.648 -0.0774 -0.8852  0.6059
  370TIP3    H2 1075   1.803   1.393   3.596  0.7088  0.7813 -0.8057
  371TIP3   OH2 1076   2.601   0.243   5.069  0.1608 -0.4106 -0.3898
  371TIP3    H1 1077   2.577   0.332   5.044 -1.1834 -0.4811  0.5144
  371TIP3    H2 1078   2.542   0.223   5.142  2.5073 -0.9094  1.4910
  372TIP3   OH2 1079   3.202   5.235   4.053 -0.2459 -0.6072 -0.0432
  372TIP3    H1 1080   3.117   5.277   4.065 -0.3307 -0.5443 -0.8225
  372TIP3    H2 1081   3.238   5.227   4.142 -1.4447 -1.4509  0.3802
  373TIP3   OH2 1082   2.675   6.325   3.606 -0.5268  0.4121 -0.3439
  373TIP3    H1 1083   2.628   6.262   3.660 -1.0874  0.4981 -0.7270
  373TIP3    H2 1084   2.768   6.306   3.624 -0.6964  0.0776  0.2211
  374TIP3   OH2 1085   1.123   5.733   4.185 -0.0933 -0.2671 -0.3346
  374TIP3    H1 1086   1.119   5.678   4.106  1.7741 -0.6000 -0.2409
  374TIP3    H2 1087   1.081   5.815   4.158 -0.3085 -0.6984 -1.3914
  375TIP3   OH2 1088   0.457   2.166   1.643 -0.3062 -0.2218  0.3335
  375TIP3    H1 1089   0.515   2.226   1.595 -1.3046 -0.6622 -1.5239
  375TIP3    H2 1090   0.369   2.199   1.628 -0.9399 -2.3491 -1.1737
  376TIP3   OH2 1091   3.214   1.183   2.317  0.2408  0.1804  0.3984
  376TIP3    H1 1092   3.180   1.111   2.265 -1.6171  0.3749  1.2670
  376TIP3    H2 1093   3.276   1.228   2.259  0.7460 -1.5353 -0.4670
  377TIP3   OH2 1094   6.801   4.571   3.239 -0.0287  0.3078  0.2127
  377TIP3    H1 1095   6.850   4.649   3.264 -1.8838  2.6795 -2.7849
  377TIP3    H2 1096   6.722   4.573   3.295 -0.1194  0.6171  0.0712
  378TIP3   OH2 1097   0.563   0.316   5.199 -0.1517 -0.4631 -0.5238
  378TIP3    H1 1098   0.503   0.347   5.131 -0.2404 -1.0786 -0.7257
  378TIP3    H2 1099   0.526   0.350   5.281  0.1232  0.5494 -0.7960
  379TIP3   OH2 1100   1.654   6.465   0.781  0.5245 -0.2369 -0.0265
  379TIP3    H1 1101   1.737   6.504   0.810  1.0714 -1.4037  0.0530
  379TIP3    H2 1102   1.588   6.503   0.839  0.7583  1.8108 -1.0043
  380TIP3   OH2 1103   2.941   3.216   5.775  0.0666  0.6951  0.3310
  380TIP3    H1 1104   2.968   3.125   5.759 -0.9592  0.3997  0.2280
  380TIP3    H2 1105   2.920   3.250   5.688 -2.1830  0.1602  0.6063
  381TIP3   OH2 1106   1.507   1.409   2.154 -0.3616  0.3716 -0.5765
  381TIP3    H1 1107   1.457   1.407   2.072 -0.0626 -0.5863 -0.7591
  381TIP3    H2 1108   1.541   1.320   2.162 -0.4668  0.4333  0.6473
  382TIP3   OH2 1109   4.863   1.566   0.165 -0.1315 -0.0532  0.4127
  382TIP3    H1 1110   4.833   1.554   0.255 -3.1122 -0.4941 -0.5447
  382TIP3    H2 1111   4.829   1.490   0.118  0.6986  0.5602 -1.2632
  383TIP3   OH2 1112   3.545   4.860   4.700  0.2236 -0.2636 -0.7269
  383TIP3    H1 1113   3.634   4.859   4.664  0.2969 -0.6519 -0.5389
  383TIP3    H2 1114   3.529   4.952   4.722  0.4360 -0.1349 -1.1123
  384TIP3   OH2 1115   3.712   3.928   1.784 -0.0050  0.0916 -0.2543
  384TIP3    H1 1116   3.668   3.873   1.720 -1.1461 -0.1384  0.6965
  384TIP3    H2 1117   3.749   4.000   1.733 -0.3229 -0.4261 -1.2341
  385TIP3   OH2 1118   5.040   3.157   2.587  0.5664 -0.3811  0.2293
  385TIP3    H1 1119   4.966   3.115   2.544  1.4634 -1.3573 -0.4117
  385TIP3    H2 1120   5.005   3.239   2.621 -0.5774 -0.3608 -0.9296
  386TIP3   OH2 1121   0.770   2.752   3.230 -0.0797 -0.1717 -0.3902
  386TIP3    H1 1122   0.788   2.727   3.140 -0.1078  0.2521 -0.5190
  386TIP3    H2 1123   0.836   2.705   3.282 -0.1001 -0.4584 -0.6264
  387TIP3   OH2 1124   5.996   5.584   1.121  0.2156 -0.3864  0.2994
  387TIP3    H1 1125   6.019   5.661   1.069  0.9168 -0.4327  0.5282
  387TIP3    H2 1126   5.951   5.526   1.060  3.7569 -1.8330 -1.1974
  388TIP3   OH2 1127   1.003   6.015   1.672  0.0682  1.0725  0.2351
  388TIP3    H1 1128   0.935   6.054   1.728 -0.7028 -0.9574  0.8273
  388TIP3    H2 1129   0.991   5.920   1.684  1.6629  0.6382 -1.2994
  389TIP3   OH2 1130   6.236   4.703   5.073 -0.2999  0.5299 -0.0184
  389TIP3    H1 1131   6.282   4.622   5.095 -0.3463  1.1923  2.9117
  389TIP3    H2 1132   6.289   4.742   5.004  0.8126 -1.0598 -0.1174
  390TIP3   OH2 1133   1.995   2.347   0.371  0.3429 -1.1496 -0.0422
  390TIP3    H1 1134   1.925   2.291   0.336  0.2521 -0.7587 -0.5007
  390TIP3    H2 1135   1.993   2.331   0.465 -0.0363 -1.5169 -0.1071
  391TIP3   OH2 1136   6.437   2.584   4.015  0.8593 -0.4719  0.5896
  391TIP3    H1 1137   6.380   2.583   4.092 -0.7692  1.5871 -0.5053
  391TIP3    H2 1138   6.445   2.491   3.991 -1.2934 -0.9077  1.3310
  392TIP3   OH2 1139   0.316   0.084   0.282 -0.1578  0.5062  0.0558
  392TIP3    H1 1140   0.372   0.045   0.215  0.7246  1.0490  0.4588
  392TIP3    H2 1141   0.364   0.161   0.312  0.0702 -0.3921  2.1755
  393TIP3   OH2 1142   2.536   3.341   3.214 -0.0360  0.1676  0.4566
  393TIP3    H1 1143   2.580   3.354   3.130 -0.9647  0.9153  0.0584
  393TIP3    H2 1144   2.445   3.364   3.196 -0.3966 -0.3812  1.4959
  394TIP3   OH2 1145   3.019   3.731   3.178  0.2526  0.4210 -0.2328
  394TIP3    H1 1146   3.005   3.826   3.181 -0.0464  0.3555  1.9742
  394TIP3    H2 1147   3.089   3.716   3.242 -0.1399 -0.9053 -0.0979
  395TIP3   OH2 1148   0.156   0.834   4.255  0.1042  0.1797 -0.2099
  395TIP3    H1 1149   0.135   0.919   4.295 -0.1247  0.9519 -1.8742
  395TIP3    H2 1150   0.079   0.812   4.202  1.0297  0.0377 -1.5403
  396TIP3   OH2 1151   1.694   0.400   1.998 -0.1562  0.0951 -0.2520
  396TIP3    H1 1152   1.632   0.353   1.942 -1.7696  0.1676  1.3750
  396TIP3    H2 1153   1.780   0.385   1.957 -0.8761 -2.3958 -1.0316
  397TIP3   OH2 1154   1.911   4.717   3.041 -0.1233  0.0535 -0.0400
  397TIP3    H1 1155   1.883   4.628   3.057  1.5864 -0.3039  1.2355
  397TIP3    H2 1156   1.870   4.741   2.957  0.4100 -2.3750 -1.0656
  398TIP3   OH2 1157   7.044   1.666   5.875 -0.4809 -0.2883 -0.0545
  398TIP3    H1 1158   7.004   1.700   5.795 -3.2068 -1.6351  0.6063
  398TIP3    H2 1159   7.068   1.576   5.853 -1.8353 -0.8837  0.7277
  399TIP3   OH2 1160   1.769   4.706   0.854  1.2272 -0.4725  0.0404
  399TIP3    H1 1161   1.747   4.624   0.810 -0.0117 -0.4494  0.5612
  399TIP3    H2 1162   1.836   4.683   0.918  2.1826 -0.7268 -1.0320
  400TIP3   OH2 1163   0.063   3.947   3.944 -0.0081  0.7795 -0.3920
  400TIP3    H1 1164   0.048   3.899   4.026 -0.8748  0.0864 -0.9382
  400TIP3    H2 1165   0.135   3.899   3.902 -0.7788  0.0204 -0.8714
  401TIP3   OH2 1166   5.690   4.891   3.280  0.3702 -0.5080  0.1134
  401TIP3    H1 1167   5.785   4.881   3.281  0.3783 -0.4008  0.7570
  401TIP3    H2 1168   5.660   4.825   3.218  0.9470  0.2427 -1.0037
  402TIP3   OH2 1169   1.121   1.016   5.098  0.1027  0.5038 -0.1316
  402TIP3    H1 1170   1.209   1.049   5.120  0.3866 -0.7081  0.6678
  402TIP3    H2 1171   1.130   0.984   5.008  0.6910 -0.2404  0.1756
  403TIP3   OH2 1172   4.979   5.158   1.104  0.0632  0.5475 -0.4022
  403TIP3    H1 1173   4.928   5.083   1.133  0.7013  0.4126  0.4021
  403TIP3    H2 1174   4.931   5.192   1.028 -1.4018  0.6533  0.5394
  404TIP3   OH2 1175   6.141   2.174   5.411 -0.0147  0.3066 -0.2467
  404TIP3    H1 1176   6.222   2.154   5.366 -0.1759  0.4468 -0.6027
  404TIP3    H2 1177   6.075   2.119   5.368 -0.1171  0.2224  0.0130
  405TIP3   OH2 1178   6.288   3.173   2.209 -0.4804  0.2173 -0.2253
  405TIP3    H1 1179   6.359   3.154   2.148  0.1899  0.9058  0.3241
  405TIP3    H2 1180   6.230   3.232   2.161 -0.1512  0.4575 -0.3283
  406TIP3   OH2 1181   1.133   1.023   2.717 -0.3356 -0.9741  0.2510
  406TIP3    H1 1182   1.210   1.012   2.660  0.3773  0.4214  0.8845
  406TIP3    H2 1183   1.075   1.081   2.667  0.0197 -0.2436  0.6692
  407TIP3   OH2 1184   4.275   1.041   1.726  0.1551 -0.2723 -0.6903
  407TIP3    H1 1185   4.227   0.990   1.792  3.3302 -2.5732  0.0352
  407TIP3    H2 1186   4.328   1.102   1.777  1.8497 -1.3498 -1.0941
  408TIP3   OH2 1187   7.104   1.388   2.764 -0.4278 -0.1764  0.0720
  408TIP3    H1 1188   7.188   1.430   2.746 -0.4088  0.1550  0.8784
  408TIP3    H2 1189   7.127   1.297   2.785 -0.3491 -0.2860 -0.4875
  409TIP3   OH2 1190   2.311   0.445   1.913  0.2742  0.1589  0.0950
  409TIP3    H1 1191   2.278   0.534   1.898 -0.1578  0.1533  0.9328
  409TIP3    H2 1192   2.234   0.394   1.937  0.6329 -0.2619  0.3649
  410TIP3   OH2 1193   3.674   4.646   4.869  0.4355  0.5096  0.2134
  410TIP3    H1 1194   3.623   4.702   4.811 -0.3616 -1.5646 -1.2158
  410TIP3    H2 1195   3.636   4.661   4.956 -0.8658  0.9341 -0.4074
  411TIP3   OH2 1196   4.674   1.356   5.682 -0.4879 -0.1336 -0.2200
  411TIP3    H1 1197   4.720   1.369   5.599 -0.5790 -0.3438 -0.3043
  411TIP3    H2 1198   4.618   1.434   5.691 -0.8107 -0.3198 -0.5758
  412TIP3   OH2 1199   2.618   1.077   4.440  0.2183 -0.2958  0.0070
  412TIP3    H1 1200   2.616   1.018   4.365  0.2189 -0.3440  0.0450
  412TIP3    H2 1201   2.561   1.036   4.505 -0.6118  0.2617 -0.3532
  413TIP3   OH2 1202   4.172   4.014   1.710 -0.2998  0.0422 -0.2949
  413TIP3    H1 1203   4.155   3.997   1.803 -1.5116  2.1484 -0.0831
  413TIP3    H2 1204   4.260   4.052   1.709  0.8432 -2.3756 -0.3774
  414TIP3   OH2 1205   1.774   5.966   4.323 -0.0785  0.4582 -1.1350
  414TIP3    H1 1206   1.736   5.881   4.348 -0.3406  0.8129 -0.2752
  414TIP3    H2 1207   1.846   5.978   4.385 -1.5735  1.9774  0.4263
  415TIP3   OH2 1208   3.324   6.500   2.190  0.8113  0.5776  0.4034
  415TIP3    H1 1209   3.232   6.476   2.204  0.4697  0.6624 -1.4430
  415TIP3    H2 1210   3.357   6.519   2.278 -1.3935  2.2092  0.9865
  416TIP3   OH2 1211   3.612   5.436   3.020  0.5962  0.5711  0.1083
  416TIP3    H1 1212   3.543   5.382   2.980 -0.1280  0.0921  1.9167
  416TIP3    H2 1213   3.576   5.525   3.020  0.3033  0.4537  0.3258
  417TIP3   OH2 1214   5.408   6.379   2.385 -0.5776 -0.0326 -0.2310
  417TIP3    H1 1215   5.462   6.458   2.376 -0.9634  0.1573 -0.8583
  417TIP3    H2 1216   5.351   6.397   2.460 -1.6203  0.8476 -1.2116
  418TIP3   OH2 1217   4.082   1.700   0.235 -0.3719 -0.2089  0.1259
  418TIP3    H1 1218   4.167   1.686   0.193  0.8186 -0.8143  2.5481
  418TIP3    H2 1219   4.046   1.777   0.191  1.8047  0.5531 -0.4260
  419TIP3   OH2 1220   5.377   2.240   3.333  0.2277  0.4487  0.6352
  419TIP3    H1 1221   5.353   2.259   3.424  0.5367 -1.5118  1.1715
  419TIP3    H2 1222   5.320   2.168   3.308 -0.0070  1.1137 -0.8298
  420TIP3   OH2 1223   4.094   0.357   2.572  0.2776  0.4695 -0.9957
  420TIP3    H1 1224   4.118   0.300   2.644 -0.0833 -0.2166 -1.4116
  420TIP3    H2 1225   4.146   0.326   2.498 -1.8445 -1.0957 -1.9353
  421TIP3   OH2 1226   5.294   6.263   1.719 -0.3468  0.0130  0.1399
  421TIP3    H1 1227   5.250   6.217   1.791 -1.5670 -0.6297 -0.9864
  421TIP3    H2 1228   5.359   6.201   1.687 -1.0314 -0.4036 -0.4633
  422TIP3   OH2 1229   2.543   2.790   1.735 -0.2901  0.0572  0.1176
  422TIP3    H1 1230   2.618   2.771   1.791 -0.7704  1.6481  1.3590
  422TIP3    H2 1231   2.473   2.736   1.770  0.0469 -0.9071 -0.6184
  423TIP3   OH2 1232   1.080   4.347   1.454 -0.0619  0.0841 -0.0416
  423TIP3    H1 1233   1.114   4.427   1.495  0.6472  0.9223 -2.1743
  423TIP3    H2 1234   1.113   4.349   1.365 -0.2163 -2.5134 -0.2316
  424TIP3   OH2 1235   2.732   4.038   5.776 -0.0928 -0.4381 -0.2638
  424TIP3    H1 1236   2.666   3.977   5.742 -0.9467  1.0306 -1.3333
  424TIP3    H2 1237   2.797   4.044   5.705 -1.9908  2.8043 -1.9539
  425TIP3   OH2 1238   7.247   6.011   3.469  0.0897 -0.3441 -0.2217
  425TIP3    H1 1239   7.190   5.940   3.497  0.1349 -0.2263  0.1735
  425TIP3    H2 1240   7.188   6.078   3.436 -0.1287  0.4056  1.5681
  426TIP3   OH2 1241   7.195   4.021   0.730 -0.5125  0.2732  0.2145
  426TIP3    H1 1242   7.130   3.952   0.728 -0.2746  0.0445  0.2778
  426TIP3    H2 1243   7.194   4.058   0.642  0.2590 -0.6595 -0.2072
  427TIP3   OH2 1244   5.452   1.545   0.305 -0.0084  0.1693  0.0204
  427TIP3    H1 1245   5.366   1.524   0.268 -1.0710 -0.6204  2.7375
  427TIP3    H2 1246   5.434   1.574   0.394  2.6035 -0.6658  0.9103
  428TIP3   OH2 1247   6.261   0.512   4.664  0.1391 -0.0244  0.1916
  428TIP3    H1 1248   6.327   0.577   4.641 -0.6050  0.1756 -1.4705
  428TIP3    H2 1249   6.298   0.429   4.634 -0.4650  0.1272 -1.0249
  429TIP3   OH2 1250   5.317   3.678   3.272  0.0275 -0.1156  0.3105
  429TIP3    H1 1251   5.245   3.618   3.250 -0.6287  0.8214 -0.1452
  429TIP3    H2 1252   5.274   3.763   3.285  1.1855  0.7608 -1.3184
  430TIP3   OH2 1253   3.893   4.071   5.679  0.3086  0.1801  0.3037
  430TIP3    H1 1254   3.921   4.158   5.651 -0.5155  0.3255 -0.0953
  430TIP3    H2 1255   3.825   4.087   5.744 -0.4407 -0.1560 -0.3819
  431TIP3   OH2 1256   4.960   2.641   3.434  0.4779 -0.2287 -0.1200
  431TIP3    H1 1257   5.042   2.638   3.384  0.0625 -1.6222 -0.7634
  431TIP3    H2 1258   4.983   2.688   3.514  0.8658  3.2554 -2.0787
  432TIP3   OH2 1259   6.456   5.761   5.137 -0.5923  0.1585  0.4836
  432TIP3    H1 1260   6.383   5.792   5.190  0.7069  1.0947  1.8209
  432TIP3    H2 1261   6.528   5.820   5.159  0.8003 -1.2280 -0.1665
  433TIP3   OH2 1262   2.399   0.013   0.163  0.1965  0.1580 -0.2885
  433TIP3    H1 1263   2.372   0.070   0.234 -0.1873  0.8514 -0.9814
  433TIP3    H2 1264   2.483  -0.023   0.192 -0.2989 -0.1514  0.8267
  434TIP3   OH2 1265   1.158   0.590   1.791 -0.0220 -0.1550 -0.8807
  434TIP3    H1 1266   1.073   0.584   1.746 -1.2903  3.8098  0.5634
  434TIP3    H2 1267   1.140   0.561   1.880 -0.2404  1.7812 -0.2587
  435TIP3   OH2 1268   5.404   2.521   0.594 -0.2196  0.1226  0.0418
  435TIP3    H1 1269   5.420   2.448   0.535 -1.7500 -0.7616  0.6744
  435TIP3    H2 1270   5.426   2.487   0.681 -1.7116  0.1163  0.4404
  436TIP3   OH2 1271   6.853   0.299   3.124 -0.1013  0.1507 -0.4198
  436TIP3    H1 1272   6.764   0.280   3.152 -0.2886  0.2077 -0.9640
  436TIP3    H2 1273   6.847   0.309   3.029  0.1730  1.8982 -0.2832
  437TIP3   OH2 1274   3.957   6.337   4.501 -0.7816 -0.2354  0.0747
  437TIP3    H1 1275   3.904   6.329   4.580 -1.8903 -1.0578 -0.7166
  437TIP3    H2 1276   3.973   6.431   4.492  0.4188 -0.2194  1.9193
  438TIP3   OH2 1277   1.231   1.353   1.280 -0.2463 -0.3732 -0.4236
  438TIP3    H1 1278   1.140   1.380   1.281  0.1016  0.8795 -0.4000
  438TIP3    H2 1279   1.236   1.288   1.210 -0.9046  0.5778 -1.4033
  439TIP3   OH2 1280   2.168   0.775   4.419 -0.0003  0.4325 -0.5235
  439TIP3    H1 1281   2.112   0.777   4.341 -2.7787  1.4017  1.3488
  439TIP3    H2 1282   2.150   0.691   4.460 -0.1171  0.7699  0.1280
  440TIP3   OH2 1283   1.346   5.331   2.808 -0.1338  0.4821  0.1898
  440TIP3    H1 1284   1.386   5.298   2.727  0.3194  1.7884 -0.1449
  440TIP3    H2 1285   1.321   5.252   2.856  2.1210 -0.3911  0.0491
  441TIP3   OH2 1286   5.385   0.681   5.584  0.1635 -0.0624  1.2639
  441TIP3    H1 1287   5.320   0.614   5.604  0.2770 -0.2962  0.8687
  441TIP3    H2 1288   5.462   0.632   5.556 -1.0566  0.1130 -3.3484
  442TIP3   OH2 1289   6.482   1.365   3.570  0.2604 -0.0523  0.5111
  442TIP3    H1 1290   6.523   1.443   3.535 -0.4095 -0.0626 -0.3246
  442TIP3    H2 1291   6.535   1.342   3.646  1.6023  0.1173 -0.3424
  443TIP3   OH2 1292   4.722   0.347   2.404  0.0621  0.0655  0.6781
  443TIP3    H1 1293   4.777   0.335   2.327 -0.3557  0.1637  0.3653
  443TIP3    H2 1294   4.764   0.420   2.452 -0.4363  0.9081 -0.1414
  444TIP3   OH2 1295   5.196   2.376   0.155 -0.0659  0.2173  0.4036
  444TIP3    H1 1296   5.244   2.295   0.137  0.3835  0.2717  1.3120
  444TIP3    H2 1297   5.122   2.374   0.094  0.5759 -0.3160 -0.3800
  445TIP3   OH2 1298   4.964   0.209   3.025 -0.3091  0.1577  0.2356
  445TIP3    H1 1299   4.941   0.187   2.935  1.1671 -0.0196 -0.1141
  445TIP3    H2 1300   5.008   0.131   3.059  0.6425  0.8169  0.5564
  446TIP3   OH2 1301   3.879   0.867   4.609  0.2898  0.0750  0.0958
  446TIP3    H1 1302   3.800   0.826   4.645 -0.7133  2.7521  1.2152
  446TIP3    H2 1303   3.896   0.819   4.528 -2.5323 -0.5873 -0.2193
  447TIP3   OH2 1304   4.106   4.189   2.484  0.1873 -0.0335 -0.2520
  447TIP3    H1 1305   4.154   4.270   2.502 -1.1805  0.5622  0.9035
  447TIP3    H2 1306   4.014   4.213   2.493 -0.2228 -2.1189  1.9745
  448TIP3   OH2 1307   3.395   5.684   0.935 -0.1227 -0.4608 -0.0290
  448TIP3    H1 1308   3.436   5.709   0.852 -2.6548  0.7917 -1.0108
  448TIP3    H2 1309   3.408   5.760   0.993 -1.5335  0.2413 -0.5785
  449TIP3   OH2 1310   4.642   4.311   1.492  0.0606  0.2741 -0.3948
  449TIP3    H1 1311   4.712   4.352   1.543 -0.8011  1.6604 -0.2709
  449TIP3    H2 1312   4.561   4.348   1.528 -0.6711 -0.2683 -1.4267
  450TIP3   OH2 1313   0.347   2.858   5.004 -0.0503 -0.3644 -0.1981
  450TIP3    H1 1314   0.290   2.848   4.928 -0.0787 -1.1533 -0.0803
  450TIP3    H2 1315   0.295   2.824   5.077  0.2861 -0.3880  0.0329
  451TIP3   OH2 1316   6.646   1.943   0.179 -0.1127  0.0949 -0.1512
  451TIP3    H1 1317   6.614   2.000   0.109 -2.5122 -0.9721 -0.0247
  451TIP3    H2 1318   6.676   1.864   0.133 -0.1200  0.0540 -0.0853
  452TIP3   OH2 1319   7.114   1.281   1.459  0.0827  0.1030  0.1721
  452TIP3    H1 1320   7.147   1.370   1.466 -1.8143  0.9073 -0.2578
  452TIP3    H2 1321   7.115   1.247   1.548  0.8668  0.5363  0.3311
  453TIP3   OH2 1322   5.090  -0.016   4.234 -0.1319  0.2139  0.0871
  453TIP3    H1 1323   5.164   0.043   4.221  0.1401 -0.6808 -3.1990
  453TIP3    H2 1324   5.015   0.042   4.246  0.3893  1.2685 -1.4458
  454TIP3   OH2 1325   3.397   4.771   2.192  0.3596  0.2094  0.8082
  454TIP3    H1 1326   3.375   4.765   2.285  1.4747 -1.6998  1.0127
  454TIP3    H2 1327   3.469   4.833   2.189 -0.3259  1.0426  1.0629
  455TIP3   OH2 1328   6.171   6.599   0.941  0.1255  0.0112  0.3930
  455TIP3    H1 1329   6.099   6.545   0.907 -0.5870  0.5076  1.0961
  455TIP3    H2 1330   6.240   6.536   0.961 -0.7146 -0.6720  1.2447
  456TIP3   OH2 1331   5.662   1.234   2.235  0.0823  0.4178  0.2869
  456TIP3    H1 1332   5.645   1.272   2.321 -0.3917 -0.7566  0.7416
  456TIP3    H2 1333   5.716   1.156   2.254  2.9014  1.9490 -0.7916
  457TIP3   OH2 1334   3.321   0.124   3.336  0.4278 -0.3236 -0.0813
  457TIP3    H1 1335   3.311   0.188   3.406  1.2720 -1.1915  0.8690
  457TIP3    H2 1336   3.250   0.143   3.275  0.4982  1.3346  0.3088
  458TIP3   OH2 1337   2.725   0.750   4.386 -0.4873 -0.0517  0.1811
  458TIP3    H1 1338   2.639   0.764   4.346 -0.1959  0.3961 -0.3003
  458TIP3    H2 1339   2.707   0.695   4.462 -1.5316  1.8583  1.4225
  459TIP3   OH2 1340   1.223   0.762   3.327 -0.1363 -0.7216  0.2356
  459TIP3    H1 1341   1.309   0.757   3.284  0.6315 -2.6124  1.8190
  459TIP3    H2 1342   1.238   0.815   3.405 -0.5535 -0.5535  0.2026
  460TIP3   OH2 1343   4.626   6.237   1.932  0.7651 -0.2912  0.8442
  460TIP3    H1 1344   4.622   6.215   2.025 -0.0730 -2.0509  0.4361
  460TIP3    H2 1345   4.717   6.221   1.908  0.6793 -1.2074  1.0808
  461TIP3   OH2 1346   0.136   6.698   0.780  0.3034 -0.2140  0.0617
  461TIP3    H1 1347   0.147   6.762   0.851  0.6164 -0.2405  0.0366
  461TIP3    H2 1348   0.225   6.672   0.757  0.2932  0.7064 -1.1657
  462TIP3   OH2 1349   3.561   4.663   5.420  0.2192 -0.5650  0.2802
  462TIP3    H1 1350   3.531   4.614   5.343 -0.8353 -1.2846  1.1164
  462TIP3    H2 1351   3.484   4.669   5.477  0.4043  1.7958  0.3820
  463TIP3   OH2 1352   0.066   5.147   4.603 -0.6561 -0.4981  0.7919
  463TIP3    H1 1353   0.002   5.124   4.670 -0.8531 -0.0066  0.7778
  463TIP3    H2 1354   0.100   5.063   4.572 -0.6346 -0.7347  1.4369
  464TIP3   OH2 1355   5.752   4.466   2.911  0.5060 -0.4253  0.8486
  464TIP3    H1 1356   5.749   4.378   2.873 -1.4854 -0.5678  1.2132
  464TIP3    H2 1357   5.662   4.497   2.906  1.2791  1.9367  0.0263
  465TIP3   OH2 1358   5.673   0.313   0.429  0.0495  0.2848  0.3760
  465TIP3    H1 1359   5.720   0.396   0.415  0.8671 -0.1285  0.6229
  465TIP3    H2 1360   5.653   0.282   0.341  0.0932  0.5430  0.2732
  466TIP3   OH2 1361   1.426   5.490   5.099  0.1384  1.0448 -0.4213
  466TIP3    H1 1362   1.437   5.428   5.027  1.2801  0.1747  0.4467
  466TIP3    H2 1363   1.512   5.532   5.108  0.2265  0.6568  0.8220
  467TIP3   OH2 1364   2.938   0.763   3.415 -0.0865 -0.1297 -0.3936
  467TIP3    H1 1365   2.958   0.851   3.445  0.9378 -0.6048  0.3712
  467TIP3    H2 1366   2.853   0.743   3.455 -0.1015  0.3339 -0.1887
  468TIP3   OH2 1367   2.728   4.381   0.522  0.1571 -0.5133  0.4574
  468TIP3    H1 1368   2.762   4.291   0.523 -0.5832 -0.8089  0.0875
  468TIP3    H2 1369   2.633   4.371   0.524  0.0693  0.2707  0.5678
  469TIP3   OH2 1370   0.278   0.467   3.569 -0.2802  0.2558  0.6127
  469TIP3    H1 1371   0.203   0.521   3.595  1.1671  2.7454 -0.0031
  469TIP3    H2 1372   0.353   0.507   3.613  0.9621 -0.9312 -0.3377
  470TIP3   OH2 1373   5.422   5.874   5.333  0.7059  0.6460  0.0593
  470TIP3    H1 1374   5.492   5.936   5.352 -0.3776  1.8988  0.2048
  470TIP3    H2 1375   5.368   5.919   5.267  0.0258 -0.2633 -0.0240
  471TIP3   OH2 1376   1.037   5.729   2.794 -0.2994 -0.3010 -0.3225
  471TIP3    H1 1377   1.130   5.714   2.781 -0.2908 -1.9714  1.3126
  471TIP3    H2 1378   1.033   5.797   2.861 -0.3000  0.5745 -1.1828
  472TIP3   OH2 1379   0.348   5.135   3.878 -0.7468 -0.1028 -0.2394
  472TIP3    H1 1380   0.434   5.107   3.845 -0.4877 -0.8535  1.0209
  472TIP3    H2 1381   0.292   5.137   3.801  0.0197 -1.0902 -0.8410
  473TIP3   OH2 1382   1.574   6.523   1.097 -0.1013  0.3683  0.1827
  473TIP3    H1 1383   1.519   6.545   1.022 -1.2281  0.5877  1.0588
  473TIP3    H2 1384   1.568   6.428   1.103  0.4167  0.2979 -0.3132
  474TIP3   OH2 1385   1.258   1.966   3.404 -0.2277  0.1318 -0.1803
  474TIP3    H1 1386   1.238   1.883   3.446  0.7597 -0.1670 -0.2808
  474TIP3    H2 1387   1.196   2.028   3.443  0.8214 -0.0616  1.9709
  475TIP3   OH2 1388   0.745   1.704   3.494 -0.3869 -0.7659 -0.0044
  475TIP3    H1 1389   0.784   1.670   3.574  0.2095 -0.6669 -0.2463
  475TIP3    H2 1390   0.715   1.627   3.447 -1.1605 -0.7997  0.5147
  476TIP3   OH2 1391   2.632   0.950   5.331  0.0841 -0.3709 -0.3109
  476TIP3    H1 1392   2.719   0.974   5.364 -0.2192 -0.4943  0.5906
  476TIP3    H2 1393   2.650   0.883   5.265  0.6644 -0.5364  0.0057
  477TIP3   OH2 1394   0.577   0.769   4.896 -0.6729 -0.4382  0.0970
  477TIP3    H1 1395   0.552   0.841   4.839 -0.0796 -0.6569 -0.4405
  477TIP3    H2 1396   0.499   0.754   4.951 -0.7728  0.6520  0.2683
  478TIP3   OH2 1397   4.725   0.296   5.359 -0.0981  0.1559 -0.0321
  478TIP3    H1 1398   4.726   0.208   5.319  0.5234  0.9659 -1.9201
  478TIP3    H2 1399   4.656   0.291   5.425 -0.0402 -1.7746 -0.0548
  479TIP3   OH2 1400   2.230   5.663   2.345  0.1885  0.0887  0.0857
  479TIP3    H1 1401   2.246   5.632   2.434 -1.5675  0.3060  0.5249
  479TIP3    H2 1402   2.317   5.675   2.307  0.9650 -1.4199  1.2677
  480TIP3   OH2 1403   0.097   1.522   4.122  0.0034 -0.0812 -0.5929
  480TIP3    H1 1404   0.134   1.609   4.108  0.6488 -0.5856 -2.2492
  480TIP3    H2 1405   0.166   1.462   4.094 -1.4332 -1.0708 -2.2409
  481TIP3   OH2 1406   3.898   6.599   3.529  0.8805  0.3307 -0.0534
  481TIP3    H1 1407   3.953   6.659   3.578  1.8206 -1.3800  1.1045
  481TIP3    H2 1408   3.944   6.586   3.446  0.2174  1.8394 -0.6840
  482TIP3   OH2 1409   3.052   4.877   3.307  0.4474 -0.2084  1.6111
  482TIP3    H1 1410   2.959   4.863   3.321  0.3588 -0.6292  0.6525
  482TIP3    H2 1411   3.094   4.830   3.379 -0.0531 -0.7200  1.5771
  483TIP3   OH2 1412   3.994   3.715   3.993 -0.0632 -0.1865 -0.0162
  483TIP3    H1 1413   3.907   3.706   3.954 -0.4070 -0.4627  0.8007
  483TIP3    H2 1414   3.999   3.807   4.019 -0.0968 -0.1603 -0.1033
  484TIP3   OH2 1415   4.011   6.446   0.228 -0.4864  0.4146 -0.2754
  484TIP3    H1 1416   4.049   6.443   0.140 -1.8728 -0.7552 -0.8780
  484TIP3    H2 1417   4.048   6.369   0.273  0.4141  1.1494  0.2691
  485TIP3   OH2 1418   3.344   2.379   5.661 -0.1407  0.2125  0.3256
  485TIP3    H1 1419   3.274   2.444   5.667 -1.3989 -0.6951 -2.8005
  485TIP3    H2 1420   3.410   2.420   5.604 -0.2085 -0.6289 -0.3661
  486TIP3   OH2 1421   2.861   3.942  -0.015 -0.2948  0.4606 -0.0773
  486TIP3    H1 1422   2.802   3.914   0.055 -0.8427  2.1828  0.2088
  486TIP3    H2 1423   2.945   3.956   0.028  0.3126 -1.7475 -0.4377
  487TIP3   OH2 1424   5.995   6.080   0.368 -1.4843  0.0280 -0.5852
  487TIP3    H1 1425   5.971   6.168   0.398  0.0542  1.4359 -3.1339
  487TIP3    H2 1426   5.913   6.041   0.339 -2.1119  0.7928  0.1083
  488TIP3   OH2 1427   2.306   5.960   2.724 -0.4208  0.0565 -0.0517
  488TIP3    H1 1428   2.336   5.899   2.656 -0.4286 -0.8410  0.7331
  488TIP3    H2 1429   2.363   5.943   2.799 -0.6683  0.7660  0.3060
  489TIP3   OH2 1430   5.064   6.537   2.448 -0.1155  0.8760 -0.3560
  489TIP3    H1 1431   5.016   6.619   2.459 -3.0766 -0.7372 -0.1165
  489TIP3    H2 1432   4.998   6.469   2.461  2.0748 -1.5657 -1.1247
  490TIP3   OH2 1433   2.507   5.595   3.422  0.7753 -0.1928  0.0489
  490TIP3    H1 1434   2.458   5.513   3.432  0.0351  0.1691 -0.4746
  490TIP3    H2 1435   2.580   5.573   3.364 -0.0056 -0.2682 -0.9371
  491TIP3   OH2 1436   4.413   3.635   2.169  0.6471  0.1560  0.6559
  491TIP3    H1 1437   4.327   3.676   2.182  1.2166  1.4418  0.4804
  491TIP3    H2 1438   4.404   3.548   2.209 -1.0449 -0.1381 -0.2474
  492TIP3   OH2 1439   7.065   5.592   1.810 -0.2845  0.6617 -0.0452
  492TIP3    H1 1440   7.023   5.556   1.731 -0.7848  1.1774 -0.0177
  492TIP3    H2 1441   7.057   5.523   1.875 -0.1991  0.3741 -0.3379
  493TIP3   OH2 1442   5.042   5.435   3.152 -0.2463 -0.3463 -0.6222
  493TIP3    H1 1443   5.071   5.427   3.061 -0.1218 -0.7808 -0.5418
  493TIP3    H2 1444   5.082   5.517   3.183 -2.5928  1.4047 -1.8394
  494TIP3   OH2 1445   5.359   2.026   0.443  0.6924 -0.5114  0.0698
  494TIP3    H1 1446   5.434   2.038   0.385  0.7802  0.6074  0.3863
  494TIP3    H2 1447   5.283   2.041   0.387  0.7503 -0.3208  0.0396
  495TIP3   OH2 1448   1.899   4.729   0.246  0.2003  0.1667 -0.0079
  495TIP3    H1 1449   1.973   4.755   0.191 -1.4346 -0.2265 -2.5530
  495TIP3    H2 1450   1.823   4.771   0.205 -1.3280 -1.5593  0.9266
  496TIP3   OH2 1451   1.378   1.127   5.057 -0.4382 -0.2919 -0.0716
  496TIP3    H1 1452   1.371   1.173   4.974 -1.2363  0.0978  0.2048
  496TIP3    H2 1453   1.465   1.150   5.089 -0.9353  1.3245  0.2203
  497TIP3   OH2 1454   6.899   4.699   1.022  0.7168 -0.2418  0.0514
  497TIP3    H1 1455   6.962   4.763   0.987  0.3460 -0.0766 -0.3183
  497TIP3    H2 1456   6.894   4.720   1.116  1.5994 -0.5888  0.1881
  498TIP3   OH2 1457   5.172   4.754   4.281 -0.9383 -0.6336 -0.2399
  498TIP3    H1 1458   5.214   4.695   4.343  1.3500  0.0655 -1.0104
  498TIP3    H2 1459   5.178   4.841   4.322 -2.8530 -0.6676  0.1904
  499TIP3   OH2 1460   2.905   5.462   1.440  0.2981 -0.5721 -0.1058
  499TIP3    H1 1461   2.992   5.476   1.477  0.1678  0.6372 -0.2209
  499TIP3    H2 1462   2.896   5.367   1.435  0.3143 -0.8383  3.0235
  500TIP3   OH2 1463   2.782   6.757   1.649  0.1051  0.5658 -0.9552
  500TIP3    H1 1464   2.801   6.752   1.555  1.4323  0.4513 -0.6934
  500TIP3    H2 1465   2.866   6.740   1.691 -0.4305  0.8724  0.2570
  501TIP3   OH2 1466   2.349   0.620   3.610  0.1044  0.3032  0.6629
  501TIP3    H1 1467   2.313   0.539   3.646 -0.3557 -0.0231 -0.5068
  501TIP3    H2 1468   2.429   0.634   3.661  0.6831 -1.3779  0.2936
  502TIP3   OH2 1469   3.670   1.449   3.262  0.4620 -0.1474  0.6567
  502TIP3    H1 1470   3.630   1.439   3.176 -0.0715 -0.1748  0.9051
  502TIP3    H2 1471   3.738   1.515   3.249  0.0786  0.1833  0.3146
  503TIP3   OH2 1472   3.947   3.256   5.631  0.1788  0.3535 -0.1057
  503TIP3    H1 1473   3.899   3.246   5.549  0.7201 -0.3252 -0.3460
  503TIP3    H2 1474   3.966   3.166   5.658  0.9167  0.6079  0.2239
  504TIP3   OH2 1475   7.067   6.133   3.955 -0.0876 -0.3189  0.1869
  504TIP3    H1 1476   6.986   6.082   3.959  0.1075 -0.6497 -0.0320
  504TIP3    H2 1477   7.069   6.169   3.866  0.6525 -1.3905 -0.2427
  505TIP3   OH2 1478   4.414   0.701   5.293  0.2991 -0.0692  0.4745
  505TIP3    H1 1479   4.359   0.726   5.219  2.7342  3.8866 -0.2710
  505TIP3    H2 1480   4.389   0.762   5.363  0.1770 -1.7291  1.9638
  506TIP3   OH2 1481   5.322   1.619   4.303 -0.3318 -0.0442  0.2257
  506TIP3    H1 1482   5.255   1.666   4.353 -1.6835 -0.8792 -0.7187
  506TIP3    H2 1483   5.372   1.688   4.260 -1.0504  0.5954  0.3884
  507TIP3   OH2 1484   3.399   0.961   5.277  0.2720  0.0306 -0.0995
  507TIP3    H1 1485   3.379   1.005   5.194 -2.3371 -0.7332  0.0379
  507TIP3    H2 1486   3.409   1.032   5.340  1.4547  0.5827 -0.8599
  508TIP3   OH2 1487   1.412   1.303   2.608 -0.0617 -0.0048  0.1500
  508TIP3    H1 1488   1.495   1.349   2.594  0.4849 -1.2670 -1.0954
  508TIP3    H2 1489   1.356   1.331   2.536  0.2599 -1.1651 -0.5947
  509TIP3   OH2 1490   6.992   0.211   2.126  0.0100 -0.3493 -0.0565
  509TIP3    H1 1491   7.066   0.168   2.084  0.1546 -0.0345 -0.1199
  509TIP3    H2 1492   6.917   0.192   2.069  0.0291 -0.7047  0.0325
  510TIP3   OH2 1493   4.223   4.313   4.082 -0.4465 -0.2738 -0.2539
  510TIP3    H1 1494   4.138   4.321   4.126 -0.2027  1.0262  0.0358
  510TIP3    H2 1495   4.270   4.246   4.132 -0.0289  1.4180  1.7851
  511TIP3   OH2 1496   1.113   6.080   0.277 -0.5063 -0.1583  0.1583
  511TIP3    H1 1497   1.059   6.116   0.207 -0.4222 -0.8140 -0.2536
  511TIP3    H2 1498   1.112   6.147   0.345 -2.3734 -0.4282  0.4411
  512TIP3   OH2 1499   7.139   3.528   0.907 -0.8053 -0.0631  0.0486
  512TIP3    H1 1500   7.230   3.552   0.886 -1.2751  0.5032 -1.4622
  512TIP3    H2 1501   7.123   3.448   0.856 -0.3416 -1.7491  2.4042
  513TIP3   OH2 1502   2.801   4.961   5.573  0.0285 -0.1550 -0.1420
  513TIP3    H1 1503   2.887   4.958   5.616 -0.1401  0.0017  0.2067
  513TIP3    H2 1504   2.740   4.988   5.642 -0.3048 -0.2812 -0.3836
  514TIP3   OH2 1505   3.168   2.347   1.253 -0.1730  0.2294 -0.2358
  514TIP3    H1 1506   3.221   2.295   1.193 -1.2530  0.2656 -1.2527
  514TIP3    H2 1507   3.166   2.435   1.215  0.7499  0.7751  0.9022
  515TIP3   OH2 1508   3.328   6.079   4.003  0.0223 -0.4100 -0.2129
  515TIP3    H1 1509   3.260   6.113   3.945 -0.6134  1.0568  1.3084
  515TIP3    H2 1510   3.388   6.152   4.017  0.5092 -0.9209  0.4868
  516TIP3   OH2 1511   6.987   1.864   3.307 -0.0984  0.0849 -0.2822
  516TIP3    H1 1512   6.962   1.873   3.216 -0.4143  1.3853 -0.0943
  516TIP3    H2 1513   6.995   1.954   3.339  0.4274 -0.3365  0.8554
  517TIP3   OH2 1514   0.279   5.471   4.961 -0.6695 -0.2545 -0.0321
  517TIP3    H1 1515   0.365   5.455   4.922 -0.3636  1.4831 -0.1725
  517TIP3    H2 1516   0.298   5.481   5.055 -0.4942  1.2461 -0.1920
  518TIP3   OH2 1517   1.301   6.572   4.626  0.4425  0.7592 -0.2376
  518TIP3    H1 1518   1.396   6.575   4.641  0.4009 -0.8518  0.5593
  518TIP3    H2 1519   1.282   6.653   4.578  2.3089  0.8155 -0.9759
  519TIP3   OH2 1520   3.665   6.631   4.700 -0.6545  0.3151 -0.3859
  519TIP3    H1 1521   3.679   6.616   4.793 -0.2152  1.3853 -0.2717
  519TIP3    H2 1522   3.624   6.550   4.669 -0.3733 -0.2367  0.6326
  520TIP3   OH2 1523   5.567   4.564   4.167 -0.5286 -0.1382 -0.4793
  520TIP3    H1 1524   5.622   4.532   4.238  1.7919  3.2778 -0.4695
  520TIP3    H2 1525   5.549   4.487   4.113 -2.3438 -2.8810  3.5496
  521TIP3   OH2 1526   7.093   2.881   2.214 -0.6328  0.3180  0.0102
  521TIP3    H1 1527   6.997   2.877   2.209 -0.6277  0.4844 -0.2657
  521TIP3    H2 1528   7.114   2.970   2.186 -0.3059 -0.1760 -1.4513
  522TIP3   OH2 1529   1.230   1.615   2.841 -0.1136  0.2380 -0.3078
  522TIP3    H1 1530   1.238   1.663   2.924  0.7089 -2.2681  1.1722
  522TIP3    H2 1531   1.294   1.658   2.783 -0.7970  2.1236  0.2544
  523TIP3   OH2 1532   1.702   3.745   3.621 -0.3475  0.1738 -0.4023
  523TIP3    H1 1533   1.672   3.787   3.540  0.5220  0.2614 -0.6865
  523TIP3    H2 1534   1.675   3.804   3.691 -2.6233 -0.6918 -0.4432
  524TIP3   OH2 1535   4.774   1.044   0.466 -0.4254 -0.4700  0.1748
  524TIP3    H1 1536   4.761   1.013   0.555  0.9068  0.4871  0.7347
  524TIP3    H2 1537   4.862   1.014   0.442  0.1419  1.1868  0.0507
  525TIP3   OH2 1538   6.970   1.432   1.795  0.2425 -0.0458 -0.8720
  525TIP3    H1 1539   7.047   1.481   1.765  0.0609  0.0474 -1.1945
  525TIP3    H2 1540   6.981   1.345   1.757  0.8229 -0.4228  0.1176
  526TIP3   OH2 1541   0.644   1.096   5.408  0.4057 -0.3420  0.3097
  526TIP3    H1 1542   0.600   1.105   5.492 -2.2825 -1.4826 -0.8499
  526TIP3    H2 1543   0.709   1.166   5.407  1.1485 -0.8032  3.6143
  527TIP3   OH2 1544   2.989   5.893   2.788 -0.0731  0.0578  0.3570
  527TIP3    H1 1545   2.905   5.852   2.769  0.3942 -0.5275 -0.4806
  527TIP3    H2 1546   3.010   5.942   2.709 -1.0369  2.7285  1.6142
  528TIP3   OH2 1547   5.464   0.430   5.807  0.2722  0.1866 -0.4341
  528TIP3    H1 1548   5.530   0.363   5.826 -0.1510  0.0597  0.6477
  528TIP3    H2 1549   5.395   0.384   5.760 -0.3345 -0.3163  0.8999
  529TIP3   OH2 1550   0.147   5.491   1.286 -0.3218 -0.1742 -0.5751
  529TIP3    H1 1551   0.163   5.579   1.252 -1.3487 -0.8787 -3.0274
  529TIP3    H2 1552   0.222   5.440   1.255  0.7087 -0.0787  1.5385
  530TIP3   OH2 1553   4.442   1.056   3.221 -0.0907  0.2293 -0.3013
  530TIP3    H1 1554   4.439   1.145   3.185  1.7082  0.1422 -0.7754
  530TIP3    H2 1555   4.512   1.059   3.286 -0.7589 -0.5905  0.4763
  531TIP3   OH2 1556   5.686   0.494   0.160  0.0788 -0.6336 -0.0629
  531TIP3    H1 1557   5.776   0.475   0.133 -0.3302  0.2392 -2.3574
  531TIP3    H2 1558   5.633   0.428   0.116 -0.6072  0.5894 -1.1507
  532TIP3   OH2 1559   6.068   1.118   1.960 -0.5738 -0.4062 -0.5148
  532TIP3    H1 1560   6.036   1.072   1.882 -1.1724 -1.9132  0.5802
  532TIP3    H2 1561   6.155   1.081   1.976 -0.9132 -0.9188  0.1725
  533TIP3   OH2 1562   6.260   1.612   2.611  0.0229  0.1217 -0.0690
  533TIP3    H1 1563   6.259   1.534   2.666 -0.2772 -1.9011 -2.7587
  533TIP3    H2 1564   6.339   1.604   2.558 -1.2118  0.3597 -2.0464
  534TIP3   OH2 1565   5.495   4.805   5.736 -0.0932  0.6018  0.1444
  534TIP3    H1 1566   5.540   4.793   5.653  0.4597  0.5315  0.4513
  534TIP3    H2 1567   5.428   4.871   5.719 -1.5917 -1.1161 -0.9834
  535TIP3   OH2 1568   2.640   1.626   4.517  0.1793 -0.5677 -0.3727
  535TIP3    H1 1569   2.635   1.550   4.459 -0.0557 -1.1341  0.3703
  535TIP3    H2 1570   2.630   1.590   4.605 -0.4346  0.3802 -0.0363
  536TIP3   OH2 1571   3.375   5.602   3.236 -0.4053 -0.3437 -0.6267
  536TIP3    H1 1572   3.342   5.543   3.169 -0.3940 -2.7137  1.3015
  536TIP3    H2 1573   3.297   5.644   3.273 -0.8750 -2.1378  0.5496
  537TIP3   OH2 1574   1.532   0.821   2.959 -0.2227 -0.2250  0.4653
  537TIP3    H1 1575   1.531   0.754   2.891 -1.2526 -0.5467  0.7870
  537TIP3    H2 1576   1.457   0.877   2.940 -0.5012 -0.2976  1.3045
  538TIP3   OH2 1577   6.507  -0.010   3.667  0.3437  0.0020  0.0800
  538TIP3    H1 1578   6.448   0.065   3.650  1.5477  1.2679  1.2397
  538TIP3    H2 1579   6.479  -0.043   3.752  1.2910  0.6384  0.6584
  539TIP3   OH2 1580   1.675   5.877   2.638 -0.3953 -0.2135 -0.0268
  539TIP3    H1 1581   1.613   5.947   2.618 -0.4613 -0.4314 -0.6282
  539TIP3    H2 1582   1.743   5.886   2.571 -0.6051 -0.9559 -0.3557
  540TIP3   OH2 1583   6.796   0.685   4.752  0.0712  0.4945  0.2366
  540TIP3    H1 1584   6.866   0.733   4.708  0.4391  0.3018  0.6029
  540TIP3    H2 1585   6.826   0.679   4.843 -0.7940  1.1221  0.5712
  541TIP3   OH2 1586   6.863   3.335   3.637  0.2104  0.3939 -0.9068
  541TIP3    H1 1587   6.803   3.260   3.627 -0.8091  0.3262  3.6159
  541TIP3    H2 1588   6.806   3.412   3.630  0.1171  0.4474  0.2113
  542TIP3   OH2 1589   5.450   1.617   4.591  0.4482 -0.1894  0.3694
  542TIP3    H1 1590   5.415   1.620   4.502  1.9637 -0.5031 -0.2845
  542TIP3    H2 1591   5.418   1.696   4.633 -2.8149 -1.4869  0.5906
  543TIP3   OH2 1592   2.477   1.772   4.329 -0.4531  0.4195 -0.4942
  543TIP3    H1 1593   2.540   1.724   4.382  0.0488  1.9081  0.3349
  543TIP3    H2 1594   2.397   1.772   4.381 -0.7307 -0.2924 -0.9146
  544TIP3   OH2 1595   5.340   1.947   4.987  0.5055  0.1421 -0.0316
  544TIP3    H1 1596   5.427   1.961   5.024 -0.0274  1.7452  0.7211
  544TIP3    H2 1597   5.285   2.014   5.028 -0.8349 -0.0785 -1.3535
  545TIP3   OH2 1598   2.188   1.088   1.614  0.0753 -0.4281  0.8449
  545TIP3    H1 1599   2.101   1.125   1.623  1.7848  4.0491  1.6271
  545TIP3    H2 1600   2.218   1.072   1.703  0.5496 -0.4805  0.6841
  546TIP3   OH2 1601   4.681   4.998   0.582 -0.6715  0.5430 -0.4660
  546TIP3    H1 1602   4.630   5.069   0.621 -0.1571  0.5142  0.2904
  546TIP3    H2 1603   4.617   4.928   0.566 -0.7333  0.0860  1.4776
  547TIP3   OH2 1604   1.317   0.888   1.457  0.4937  0.4739  0.2619
  547TIP3    H1 1605   1.258   0.880   1.533 -1.6344 -0.0471 -1.3405
  547TIP3    H2 1606   1.327   0.982   1.445 -4.1775  0.9937 -2.2320
  548TIP3   OH2 1607   0.309   1.842   2.888 -0.1647  0.2807 -0.0462
  548TIP3    H1 1608   0.404   1.832   2.890  0.0315  1.2963 -2.1120
  548TIP3    H2 1609   0.294   1.920   2.834 -2.1296  1.1200  1.6040
  549TIP3   OH2 1610   1.570   0.173   1.886  0.6111 -0.0178 -0.8174
  549TIP3    H1 1611   1.488   0.221   1.900  0.1654 -0.4786 -1.7275
  549TIP3    H2 1612   1.545   0.101   1.828  1.6742 -0.1531 -1.1166
  550TIP3   OH2 1613   4.272   6.074   0.821  0.2877  0.1930  0.1027
  550TIP3    H1 1614   4.220   6.062   0.901 -0.1618  0.4256 -0.1508
  550TIP3    H2 1615   4.360   6.046   0.845 -0.2698 -1.7262  0.1152
  551TIP3   OH2 1616   2.397   2.281   2.837 -0.5170  0.1530  0.6500
  551TIP3    H1 1617   2.441   2.227   2.903 -0.7017  0.1506  0.7724
  551TIP3    H2 1618   2.394   2.225   2.759 -1.9706 -0.5715  1.1777
  552TIP3   OH2 1619   0.029   5.684   2.047 -0.2796  0.4857 -0.3163
  552TIP3    H1 1620   0.060   5.674   1.957 -0.8442  1.0973 -0.5897
  552TIP3    H2 1621  -0.055   5.729   2.039 -1.2487 -1.1034  0.4061
  553TIP3   OH2 1622   2.989   6.013   0.191  0.3038 -0.1069  0.0628
  553TIP3    H1 1623   3.055   6.008   0.123  1.7455  2.6009  1.1232
  553TIP3    H2 1624   2.961   5.922   0.204  1.8665 -1.0088 -2.2488
  554TIP3   OH2 1625   6.141   6.691   1.461  0.4640 -0.0153  0.2533
  554TIP3    H1 1626   6.199   6.696   1.385 -0.5910 -1.7296 -0.7477
  554TIP3    H2 1627   6.114   6.599   1.464 -2.2407  0.6994  0.5967
  555TIP3   OH2 1628   0.558   3.230   4.071  0.4949  0.1140 -0.2090
  555TIP3    H1 1629   0.643   3.269   4.051 -0.0798  0.6717 -1.8011
  555TIP3    H2 1630   0.502   3.304   4.092  0.2543 -0.1870  0.2123
  556TIP3   OH2 1631   1.252   5.502   0.176  0.1506 -0.9441  0.3313
  556TIP3    H1 1632   1.346   5.505   0.189  0.1613 -0.0553  0.1639
  556TIP3    H2 1633   1.216   5.560   0.243 -0.1011  0.3207 -0.8290
  557TIP3   OH2 1634   6.092   2.624   3.703 -0.2461 -0.5776  0.0715
  557TIP3    H1 1635   6.097   2.535   3.736  1.5402 -1.0760 -1.4050
  557TIP3    H2 1636   5.998   2.643   3.701 -0.6681 -2.4421  0.3555
  558TIP3   OH2 1637   5.323   6.319   5.012  0.1041  0.0989  0.5017
  558TIP3    H1 1638   5.286   6.398   4.973  1.5971  0.8897  0.6133
  558TIP3    H2 1639   5.299   6.324   5.105  0.2013  0.4058  0.5079
  559TIP3   OH2 1640   4.604   0.655   3.710  0.1009 -0.2284 -0.6282
  559TIP3    H1 1641   4.547   0.729   3.690  0.9117 -0.3529 -4.0329
  559TIP3    H2 1642   4.690   0.695   3.726  0.6253 -0.3268 -2.8356
  560TIP3   OH2 1643   4.620   4.641   0.807 -0.6219 -0.0508  0.1222
  560TIP3    H1 1644   4.624   4.733   0.833  1.8116 -0.3894  1.2970
  560TIP3    H2 1645   4.629   4.642   0.712  2.8355  0.9188  0.3226
  561TIP3   OH2 1646   3.016   3.901   5.883 -0.9656  0.0286  0.3408
  561TIP3    H1 1647   3.108   3.923   5.866 -0.5300 -1.2739  0.8700
  561TIP3    H2 1648   2.967   3.957   5.823  0.2007  0.3007 -0.4039
  562TIP3   OH2 1649   5.323   4.876   0.203 -0.7244  0.9038  0.2344
  562TIP3    H1 1650   5.338   4.957   0.154 -0.1796  0.4215 -0.4316
  562TIP3    H2 1651   5.287   4.904   0.286 -1.6712  1.7555 -0.4424
  563TIP3   OH2 1652   0.956   3.961   2.679  0.4974  0.2125 -0.1734
  563TIP3    H1 1653   0.883   4.022   2.675 -0.1478 -0.5269 -0.0047
  563TIP3    H2 1654   0.971   3.947   2.772  1.2330  0.7958 -0.1996
  564TIP3   OH2 1655   7.142   3.054   1.875  0.0141  0.4005  0.0497
  564TIP3    H1 1656   7.165   3.019   1.789 -0.2956  0.2325  0.0321
  564TIP3    H2 1657   7.050   3.031   1.886  0.0118  0.5529  0.3632
  565TIP3   OH2 1658   3.884   6.579   2.191 -0.0612  0.1960 -0.4483
  565TIP3    H1 1659   3.971   6.542   2.173  0.4359  0.4874  1.1633
  565TIP3    H2 1660   3.849   6.600   2.104  1.9599  1.1386 -1.1277
  566TIP3   OH2 1661   0.901   3.106   1.366 -0.4481 -0.3003 -0.2380
  566TIP3    H1 1662   0.878   3.014   1.380 -0.1555 -0.4899 -0.9761
  566TIP3    H2 1663   0.817   3.151   1.364 -0.6435 -0.6756 -0.7431
  567TIP3   OH2 1664   5.417   1.956   2.914 -0.8606  0.5600 -0.3648
  567TIP3    H1 1665   5.502   1.915   2.898 -0.1642  0.6920  2.5087
  567TIP3    H2 1666   5.361   1.885   2.945 -2.1774  0.2888 -3.0608
  568TIP3   OH2 1667   1.746   2.206   0.295 -0.4254 -0.2870 -0.0289
  568TIP3    H1 1668   1.698   2.212   0.212 -0.2239 -2.1777 -0.3380
  568TIP3    H2 1669   1.718   2.282   0.345 -0.7921  0.7264 -1.7056
  569TIP3   OH2 1670   1.532   1.661   3.913  0.2074  0.1400 -0.1966
  569TIP3    H1 1671   1.494   1.747   3.928 -0.9580 -0.2999 -0.5063
  569TIP3    H2 1672   1.609   1.657   3.970  0.3717  1.4374 -0.3141
  570TIP3   OH2 1673   5.729   4.104   1.987 -0.1171  0.4953  0.8779
  570TIP3    H1 1674   5.634   4.112   1.994 -0.4164 -1.2784 -0.4522
  570TIP3    H2 1675   5.751   4.154   1.909 -0.2605 -0.6883  0.0488
  571TIP3   OH2 1676   0.409   5.277   3.531 -0.3527  0.3043 -0.5458
  571TIP3    H1 1677   0.423   5.183   3.514  1.3787  0.5953 -0.9307
  571TIP3    H2 1678   0.401   5.315   3.443 -0.0102  0.6454 -0.4308
  572TIP3   OH2 1679   4.813   2.188   2.332 -0.2340  0.0032 -0.5397
  572TIP3    H1 1680   4.899   2.223   2.357 -0.3143 -0.8294  1.0647
  572TIP3    H2 1681   4.750   2.242   2.379 -0.6203  0.6768 -1.7932
  573TIP3   OH2 1682   2.443   3.353   0.533  0.0853 -0.7495 -0.1239
  573TIP3    H1 1683   2.428   3.434   0.582 -2.1735 -1.3385  0.2940
  573TIP3    H2 1684   2.523   3.369   0.483 -0.3799  1.7901 -0.1704
  574TIP3   OH2 1685   1.804   0.851   5.675 -0.2867  0.1344 -0.6979
  574TIP3    H1 1686   1.781   0.939   5.645  0.5512  0.8876  0.7385
  574TIP3    H2 1687   1.891   0.862   5.715  0.0723 -1.4599 -0.9876
  575TIP3   OH2 1688   4.411   6.244   2.809  0.3430  0.0029  0.4486
  575TIP3    H1 1689   4.381   6.332   2.829  0.9253  0.1164  0.8490
  575TIP3    H2 1690   4.490   6.256   2.757  0.3194 -0.2867  0.3419
  576TIP3   OH2 1691   1.906   1.848   2.889  0.0143 -0.2878  0.6934
  576TIP3    H1 1692   1.959   1.927   2.879 -1.8903  0.9463 -0.1483
  576TIP3    H2 1693   1.849   1.868   2.964  0.3966 -1.4157  1.3051
  577TIP3   OH2 1694   2.985   2.059   0.481 -0.0456 -0.7549  0.2863
  577TIP3    H1 1695   3.070   2.083   0.443 -1.8004  0.6362 -3.1876
  577TIP3    H2 1696   2.985   1.963   0.480  0.8462 -0.7820 -1.4210
  578TIP3   OH2 1697   6.639   3.142   5.699 -0.2049 -0.3595  0.0407
  578TIP3    H1 1698   6.567   3.190   5.740 -0.6119 -0.8452 -0.0979
  578TIP3    H2 1699   6.713   3.152   5.759 -0.6224 -0.5542  0.5929
  579TIP3   OH2 1700   6.129   2.124   2.150 -0.0246 -0.0326  0.1658
  579TIP3    H1 1701   6.177   2.162   2.224 -1.1748  0.6306  0.5887
  579TIP3    H2 1702   6.120   2.031   2.172 -0.7571  0.2523  1.0796
  580TIP3   OH2 1703   1.656   5.364   0.714 -0.3811 -0.3432  0.2867
  580TIP3    H1 1704   1.691   5.314   0.788  2.0401 -0.2444 -0.7020
  580TIP3    H2 1705   1.671   5.456   0.738  0.5433 -0.3135 -0.3347
  581TIP3   OH2 1706   4.919   3.060   1.323  0.2917  0.4938  0.4813
  581TIP3    H1 1707   4.952   2.975   1.295  1.0492  1.5345 -2.0468
  581TIP3    H2 1708   4.949   3.069   1.413 -0.0874 -2.0115  0.9300
  582TIP3   OH2 1709   3.214   5.935   3.108 -0.4635  0.2644 -0.2596
  582TIP3    H1 1710   3.262   5.885   3.174  2.0993  2.4117 -0.3232
  582TIP3    H2 1711   3.188   5.870   3.042  1.9167 -1.1090  0.0624
  583TIP3   OH2 1712   1.877   3.433   0.906 -0.1635 -0.4216 -0.3014
  583TIP3    H1 1713   1.952   3.437   0.846 -0.1219 -1.9819 -0.3785
  583TIP3    H2 1714   1.830   3.354   0.881 -2.5333  1.1064 -1.0156
  584TIP3   OH2 1715   5.526   0.146   4.069 -0.3610 -0.0530 -0.2343
  584TIP3    H1 1716   5.524   0.241   4.051 -0.0426  0.0396  0.2043
  584TIP3    H2 1717   5.614   0.119   4.043 -0.3147 -0.1521  0.0219
  585TIP3   OH2 1718   3.098   3.639   1.980  0.3135  0.1314  0.3308
  585TIP3    H1 1719   3.116   3.733   1.984  1.0845 -0.0385  1.4805
  585TIP3    H2 1720   3.079   3.622   1.888  1.1770  1.2400 -0.0786
  586TIP3   OH2 1721   5.433   2.493   5.511 -0.2543  0.0471 -0.0354
  586TIP3    H1 1722   5.417   2.423   5.574 -1.9650 -1.6016 -2.1516
  586TIP3    H2 1723   5.377   2.564   5.540  0.3409  0.0201  1.2694
  587TIP3   OH2 1724   6.448   1.069   4.890 -0.6771  0.3312  0.0113
  587TIP3    H1 1725   6.506   1.015   4.835 -0.7302  1.3304 -1.0625
  587TIP3    H2 1726   6.448   1.025   4.975  0.6476 -0.4036 -0.3366
  588TIP3   OH2 1727   4.095   4.052   3.540  0.4923  0.7805 -0.1775
  588TIP3    H1 1728   4.121   4.018   3.625 -1.1457  1.3316  0.5964
  588TIP3    H2 1729   4.144   4.133   3.530 -1.4270  2.2836  1.6623
  589TIP3   OH2 1730   3.096   2.647   2.869 -0.4236 -0.1116 -0.2945
  589TIP3    H1 1731   3.083   2.676   2.959 -0.3847  2.5529 -1.0438
  589TIP3    H2 1732   3.065   2.721   2.816  2.8373 -0.0413 -2.3767
  590TIP3   OH2 1733   6.071   0.563   1.452 -0.0383 -0.6339  0.0196
  590TIP3    H1 1734   6.131   0.512   1.506 -1.3324 -0.2995  1.8784
  590TIP3    H2 1735   6.123   0.636   1.420  0.2753  0.4413  2.7682
  591TIP3   OH2 1736   2.436   6.382   4.306 -0.2860 -0.4859  0.2077
  591TIP3    H1 1737   2.424   6.328   4.227 -2.4602 -1.8658  1.3493
  591TIP3    H2 1738   2.478   6.324   4.369 -0.2479 -0.0039  0.6357
  592TIP3   OH2 1739   0.409   4.982   2.919  0.1969 -0.2880 -0.0611
  592TIP3    H1 1740   0.372   5.068   2.897  0.2234 -0.4483 -0.7293
  592TIP3    H2 1741   0.383   4.968   3.010  0.1425  0.4046  0.0360
  593TIP3   OH2 1742   2.245   0.095   5.843 -0.6581  0.5202  0.1159
  593TIP3    H1 1743   2.238   0.153   5.919  1.4946  0.9469  0.0686
  593TIP3    H2 1744   2.237   0.007   5.880 -0.5977  0.7541  0.7021
  594TIP3   OH2 1745   2.197   2.974   1.733 -0.2102 -0.3036 -0.4265
  594TIP3    H1 1746   2.169   2.953   1.822  1.2230  1.0871  0.4042
  594TIP3    H2 1747   2.286   3.006   1.743 -0.3212  0.7139 -2.2770
  595TIP3   OH2 1748   0.923   2.754   5.483  0.3150 -0.2948 -0.3230
  595TIP3    H1 1749   0.931   2.847   5.504  0.8780 -0.5897  0.8629
  595TIP3    H2 1750   1.005   2.716   5.514 -0.8379 -1.5483  1.3675
  596TIP3   OH2 1751   6.899   2.699   1.581  0.4330  0.0268 -0.1004
  596TIP3    H1 1752   6.956   2.777   1.585  0.0669  0.3147 -0.4643
  596TIP3    H2 1753   6.846   2.713   1.503  0.9633 -1.0063 -0.6628
  597TIP3   OH2 1754   3.675   0.860   4.085 -0.6969 -0.2963 -0.3652
  597TIP3    H1 1755   3.707   0.819   4.005  0.6576 -1.1202  0.5648
  597TIP3    H2 1756   3.682   0.791   4.151  1.9939  1.4624  1.3484
  598TIP3   OH2 1757   2.263   6.671   5.692 -0.2544 -0.4665  0.3221
  598TIP3    H1 1758   2.322   6.706   5.759  0.4598 -0.8145 -0.1132
  598TIP3    H2 1759   2.234   6.748   5.644  2.9002 -0.5096 -1.9457
  599TIP3   OH2 1760   6.478   0.716   1.062 -0.2395  0.5626 -0.2462
  599TIP3    H1 1761   6.496   0.768   1.140  0.3337 -0.1561  0.1015
  599TIP3    H2 1762   6.553   0.658   1.053 -2.4486 -2.9289  1.5500
  600TIP3   OH2 1763   4.719   6.017   0.590 -0.2031 -0.1484  0.2707
  600TIP3    H1 1764   4.767   6.097   0.611 -0.4603  0.2589 -0.6385
  600TIP3    H2 1765   4.627   6.043   0.590 -0.2020  0.2315 -2.4729
  601TIP3   OH2 1766   7.137   1.234   2.446  0.4522  0.2257  0.1082
  601TIP3    H1 1767   7.125   1.234   2.351  0.2508 -0.8957  0.1157
  601TIP3    H2 1768   7.201   1.303   2.463  1.0095 -0.0294 -0.9116
  602TIP3   OH2 1769   1.805   6.205   5.606 -0.3812 -0.4770 -0.2709
  602TIP3    H1 1770   1.732   6.198   5.545 -0.1525 -0.2409 -0.5736
  602TIP3    H2 1771   1.820   6.116   5.637 -1.1937 -0.4385  0.2548
  603TIP3   OH2 1772   6.300   2.407   4.987  0.2351  0.3778  0.1736
  603TIP3    H1 1773   6.238   2.473   5.016 -0.7262 -0.2913 -0.3252
  603TIP3    H2 1774   6.386   2.450   4.994  0.0303  0.4904  3.2724
  604TIP3   OH2 1775   4.229   3.604   4.668  0.2685 -0.0172  0.2173
  604TIP3    H1 1776   4.178   3.590   4.748 -1.9432 -1.1685 -1.2813
  604TIP3    H2 1777   4.260   3.694   4.675 -0.7637  0.2622  1.8593
  605TIP3   OH2 1778   4.674   6.252   0.247 -0.5929 -0.5362 -0.5987
  605TIP3    H1 1779   4.746   6.213   0.197  0.3546  0.4836 -0.0735
  605TIP3    H2 1780   4.706   6.340   0.270 -1.6935 -0.3635  0.3346
  606TIP3   OH2 1781   4.276   5.729   2.491  0.1691  0.5624  0.1560
  606TIP3    H1 1782   4.202   5.772   2.533 -0.2477  0.0425 -0.0405
  606TIP3    H2 1783   4.250   5.719   2.399  0.4333  0.2668  0.1105
  607TIP3   OH2 1784   5.820   2.435   3.340 -0.4129 -0.4860 -0.5917
  607TIP3    H1 1785   5.735   2.472   3.319  0.0945  0.7830 -0.4864
  607TIP3    H2 1786   5.882   2.508   3.331  0.6451 -1.3391 -0.5247
  608TIP3   OH2 1787   4.011   5.347   0.479  0.5191 -0.0802  0.2116
  608TIP3    H1 1788   4.082   5.349   0.415  0.0655  0.0604 -0.2874
  608TIP3    H2 1789   3.935   5.316   0.430 -0.4156  2.2104  0.0913
  609TIP3   OH2 1790   3.595   2.882   1.050  0.2381  0.0853  0.3965
  609TIP3    H1 1791   3.571   2.945   1.118 -2.5162 -2.1143  1.6357
  609TIP3    H2 1792   3.530   2.894   0.982  1.1743  0.2029 -0.5027
  610TIP3   OH2 1793   6.809   6.005   4.809  0.9575 -0.0062  0.1312
  610TIP3    H1 1794   6.801   6.016   4.904 -0.1332 -0.7299  0.1346
  610TIP3    H2 1795   6.735   5.950   4.784 -0.3347  2.3065 -1.5238
  611TIP3   OH2 1796   6.225   2.643   1.239 -0.2955 -0.1589  0.2786
  611TIP3    H1 1797   6.185   2.707   1.297  0.1482  0.4986 -0.1265
  611TIP3    H2 1798   6.159   2.628   1.170  0.5174  1.7410 -0.9904
  612TIP3   OH2 1799   2.832   1.886   2.333 -0.2055 -0.1249 -0.0762
  612TIP3    H1 1800   2.846   1.948   2.405  1.0053 -0.0615 -0.3307
  612TIP3    H2 1801   2.782   1.935   2.268 -1.6341 -0.2985  0.8477
  613TIP3   OH2 1802   5.116   2.150   4.805  0.3863  0.4097 -0.0495
  613TIP3    H1 1803   5.069   2.067   4.801  0.6891  0.0988  1.9416
  613TIP3    H2 1804   5.181   2.144   4.735  0.2113 -0.9072 -0.1185
  614TIP3   OH2 1805   2.613   6.737   3.071  0.0879  0.5498  0.0060
  614TIP3    H1 1806   2.523   6.708   3.082 -0.2898  2.2256  1.8696
  614TIP3    H2 1807   2.649   6.679   3.003 -1.4930 -2.0574  1.2400
  615TIP3   OH2 1808   2.222   6.095   4.706 -0.0823 -0.4380  0.3882
  615TIP3    H1 1809   2.290   6.073   4.643  2.1408 -1.2370  2.8802
  615TIP3    H2 1810   2.158   6.146   4.656  2.2500  0.2428 -2.1183
  616TIP3   OH2 1811   0.704   1.661   4.636 -0.0496  0.0657 -0.3969
  616TIP3    H1 1812   0.726   1.650   4.543  0.0486  0.7515 -0.4592
  616TIP3    H2 1813   0.644   1.735   4.637 -0.2007 -0.0625  0.0713
  617TIP3   OH2 1814   6.565   5.743   2.377 -0.6747 -0.0909  0.1910
  617TIP3    H1 1815   6.508   5.732   2.453  0.4596  1.9873  1.4461
  617TIP3    H2 1816   6.644   5.786   2.412  0.1640  0.3360 -2.0431
  618TIP3   OH2 1817   1.207   2.320   3.461  0.4360  0.4992 -0.1234
  618TIP3    H1 1818   1.206   2.245   3.520 -0.2781  0.1736 -0.5316
  618TIP3    H2 1819   1.126   2.367   3.481 -1.0464 -0.9022 -2.4241
  619TIP3   OH2 1820   4.291   3.024   3.880  0.2283 -0.4069  0.8630
  619TIP3    H1 1821   4.309   2.950   3.822 -2.1375 -0.8478  0.5843
  619TIP3    H2 1822   4.307   2.990   3.968 -0.0452 -0.9962  0.6884
  620TIP3   OH2 1823   1.844   0.132   0.521  0.3013  0.5762 -0.2170
  620TIP3    H1 1824   1.869   0.131   0.429  1.4235  0.1694  0.0691
  620TIP3    H2 1825   1.902   0.196   0.562 -1.8295  2.6041 -0.1832
  621TIP3   OH2 1826   3.348   3.453   0.139 -0.0261 -0.2497 -0.5572
  621TIP3    H1 1827   3.405   3.508   0.194 -2.0514  0.6188  0.7815
  621TIP3    H2 1828   3.308   3.515   0.078 -0.2808 -0.6964 -0.8454
  622TIP3   OH2 1829   2.693   0.626   2.095  0.2391 -0.3523 -0.0067
  622TIP3    H1 1830   2.620   0.637   2.034 -0.6368 -0.6185  0.9651
  622TIP3    H2 1831   2.689   0.534   2.123  0.0446 -0.0191  1.1401
  623TIP3   OH2 1832   1.149   5.778   1.825 -0.0231 -0.4612  0.1506
  623TIP3    H1 1833   1.153   5.695   1.778 -0.2382 -2.4874  3.3523
  623TIP3    H2 1834   1.228   5.778   1.880 -0.6519  0.8667  1.1234
  624TIP3   OH2 1835   4.720   5.462   3.146  0.1489  0.8583  0.3567
  624TIP3    H1 1836   4.787   5.397   3.125 -0.7843 -0.6192  1.6655
  624TIP3    H2 1837   4.750   5.543   3.105  2.0061 -0.0946 -0.2517
  625TIP3   OH2 1838   0.207   3.981   4.501  0.4959 -0.2905 -0.6425
  625TIP3    H1 1839   0.155   3.976   4.581 -2.6246  0.8056 -2.4435
  625TIP3    H2 1840   0.229   3.890   4.481  0.3250 -0.6842  0.8023
  626TIP3   OH2 1841   1.254   6.180   3.412  0.3059 -0.3202 -0.3243
  626TIP3    H1 1842   1.215   6.133   3.485 -1.3631 -0.9124 -1.5218
  626TIP3    H2 1843   1.257   6.271   3.440  1.7287 -0.8217  1.2795
  627TIP3   OH2 1844   4.528   0.376   0.916 -0.7925  0.5865  0.5400
  627TIP3    H1 1845   4.596   0.399   0.853 -1.7537  0.4704 -0.5875
  627TIP3    H2 1846   4.454   0.434   0.893 -1.3473  0.1548  1.2023
  628TIP3   OH2 1847   1.006   3.000   3.317 -0.5177  0.3998  0.2991
  628TIP3    H1 1848   1.096   3.025   3.293 -0.6696  0.5415 -0.1221
  628TIP3    H2 1849   0.974   3.073   3.370 -0.5875  0.6175 -0.0397
  629TIP3   OH2 1850   6.985   5.812   5.803  0.8158  0.4222 -0.3287
  629TIP3    H1 1851   6.985   5.761   5.723 -1.3703  0.9477 -0.7182
  629TIP3    H2 1852   7.063   5.867   5.797 -0.0762  1.5428 -2.8434
  630TIP3   OH2 1853   0.493   0.954   2.069 -0.3279 -0.5141 -0.1829
  630TIP3    H1 1854   0.458   1.000   1.993 -1.9512  0.6825  1.2179
  630TIP3    H2 1855   0.555   1.015   2.109 -1.4904 -0.0233  0.9346
  631TIP3   OH2 1856   1.447   1.778   0.968  0.4380  0.4679  0.9375
  631TIP3    H1 1857   1.429   1.712   1.035  0.7363 -0.9773 -0.3487
  631TIP3    H2 1858   1.377   1.767   0.904  1.3492  0.3029 -0.0673
  632TIP3   OH2 1859   0.441   3.481   3.793  0.2066 -0.0721  0.4533
  632TIP3    H1 1860   0.385   3.424   3.742  0.4319 -0.8777  1.0748
  632TIP3    H2 1861   0.527   3.474   3.752  0.2320 -0.1758  0.5235
  633TIP3   OH2 1862   6.564   3.391   2.209 -0.8254 -0.1095  0.1371
  633TIP3    H1 1863   6.537   3.310   2.165  1.7218 -2.1870  2.0710
  633TIP3    H2 1864   6.630   3.428   2.151  1.4343 -2.0413  1.3091
  634TIP3   OH2 1865   0.028   6.202   1.304  0.1978  0.2550  0.4984
  634TIP3    H1 1866   0.048   6.230   1.393  1.6514 -0.9819  0.6030
  634TIP3    H2 1867   0.092   6.248   1.250 -0.5092  0.7955  0.0995
  635TIP3   OH2 1868   4.341   0.243   1.578  0.2268 -0.1395  0.6237
  635TIP3    H1 1869   4.339   0.272   1.487 -1.5958 -0.0159  0.6837
  635TIP3    H2 1870   4.322   0.149   1.574  1.0182 -0.3166  0.8248
  636TIP3   OH2 1871   6.270   0.666   1.284 -0.3105  0.2076  0.0420
  636TIP3    H1 1872   6.345   0.718   1.255  1.1261 -1.4734  0.5331
  636TIP3    H2 1873   6.217   0.653   1.205  1.0301 -0.3244 -0.7929
  637TIP3   OH2 1874   3.656   5.408   5.515 -0.3803 -0.0517  0.1983
  637TIP3    H1 1875   3.666   5.342   5.584  0.5645  1.9151  2.0780
  637TIP3    H2 1876   3.742   5.412   5.473 -0.4051  0.0372  0.1546
  638TIP3   OH2 1877   2.586   1.960   0.954  0.5919 -0.1375  0.2585
  638TIP3    H1 1878   2.546   1.931   0.872 -0.9987  2.2352  0.0837
  638TIP3    H2 1879   2.657   2.018   0.927  1.2885 -0.8240  0.5839
  639TIP3   OH2 1880   4.803   5.594   1.392 -0.1061  0.4168 -0.2175
  639TIP3    H1 1881   4.774   5.556   1.309 -1.1873 -0.2726  0.4495
  639TIP3    H2 1882   4.855   5.670   1.367  0.3642 -0.3092 -1.5435
  640TIP3   OH2 1883   2.278   5.471   3.542  0.9604 -0.1383  0.1534
  640TIP3    H1 1884   2.227   5.532   3.595  1.9109 -0.5425  1.6190
  640TIP3    H2 1885   2.217   5.400   3.522  0.4441  0.2613  0.2936
  641TIP3   OH2 1886   4.069   5.147   3.550 -0.3255 -0.7212  0.2077
  641TIP3    H1 1887   4.034   5.098   3.625 -0.7028 -0.2036  0.3742
  641TIP3    H2 1888   4.059   5.239   3.575 -2.1564 -0.4949 -1.2269
  642TIP3   OH2 1889   0.255   3.142   4.344 -0.1588 -0.0585  0.1492
  642TIP3    H1 1890   0.226   3.061   4.385 -0.0023  0.3480  1.0741
  642TIP3    H2 1891   0.318   3.180   4.405  1.3445 -0.2594 -1.2212
  643TIP3   OH2 1892   2.718   5.074   3.611  0.2659  0.6305 -0.3552
  643TIP3    H1 1893   2.633   5.107   3.582 -0.1151  0.2201  0.2714
  643TIP3    H2 1894   2.775   5.084   3.535 -0.0201  2.0652 -0.4085
  644TIP3   OH2 1895   3.531   1.088   2.380  0.6771  1.0481  0.4204
  644TIP3    H1 1896   3.543   1.026   2.308 -1.6689 -0.7956  1.4593
  644TIP3    H2 1897   3.489   1.164   2.340 -2.0513 -0.5755 -0.0727
  645TIP3   OH2 1898   1.586   6.258   5.448 -0.1551  0.1467 -0.4970
  645TIP3    H1 1899   1.540   6.313   5.385 -1.4838 -1.9066 -1.4526
  645TIP3    H2 1900   1.515   6.216   5.498  0.8125 -0.2757  0.5592
  646TIP3   OH2 1901   1.007   6.573   4.040  0.1133 -0.2253 -0.0300
  646TIP3    H1 1902   1.091   6.547   4.002  0.6625 -0.5423  1.3223
  646TIP3    H2 1903   0.986   6.501   4.100 -1.5694 -0.5665 -0.9868
  647TIP3   OH2 1904   6.255   4.233   3.748  0.1927 -0.0026 -0.1169
  647TIP3    H1 1905   6.266   4.327   3.765 -0.2128 -0.2119  1.4898
  647TIP3    H2 1906   6.234   4.228   3.655  0.9116  1.4366 -0.3826
  648TIP3   OH2 1907   5.001   6.697   4.443  0.5281  0.2029  0.4455
  648TIP3    H1 1908   5.022   6.647   4.522  0.4983  1.0137  0.9714
  648TIP3    H2 1909   4.906   6.691   4.434  0.6657 -1.2693 -0.4739
  649TIP3   OH2 1910   1.597   0.400   4.284 -0.1588  0.0099 -0.4837
  649TIP3    H1 1911   1.575   0.359   4.367  1.6306 -0.5915 -0.2552
  649TIP3    H2 1912   1.523   0.458   4.265 -1.2203 -0.8582  0.8309
  650TIP3   OH2 1913   4.208   2.043   3.916 -0.1950  0.5564  0.0513
  650TIP3    H1 1914   4.169   1.971   3.867 -0.6787  1.5609 -1.0866
  650TIP3    H2 1915   4.167   2.122   3.880  1.6036  1.5297  0.0156
  651TIP3   OH2 1916   0.024   3.367   5.571  0.1167 -0.1095  0.3353
  651TIP3    H1 1917   0.006   3.415   5.652  1.9829  0.2495  0.5703
  651TIP3    H2 1918   0.062   3.431   5.512  0.5889 -0.7979 -0.1260
  652TIP3   OH2 1919   4.424   4.063   1.785 -0.2445 -0.4833 -0.2089
  652TIP3    H1 1920   4.443   4.021   1.868  0.0161 -0.9557 -0.5020
  652TIP3    H2 1921   4.509   4.071   1.742 -0.5756 -1.9745 -1.2370
  653TIP3   OH2 1922   1.433   3.498   2.439 -0.1469 -0.5013 -0.3723
  653TIP3    H1 1923   1.443   3.520   2.531 -1.4618 -1.1844 -0.0441
  653TIP3    H2 1924   1.362   3.554   2.409  0.9519  0.4731 -1.2658
  654TIP3   OH2 1925   2.536   4.991   2.535 -0.4929  0.2130  0.5390
  654TIP3    H1 1926   2.543   4.896   2.525  0.4761  0.1937  1.2937
  654TIP3    H2 1927   2.463   5.003   2.597 -1.3102  0.0196 -0.3668
  655TIP3   OH2 1928   4.868   2.450   2.793  0.0747  0.9102  0.0640
  655TIP3    H1 1929   4.812   2.383   2.754  1.5947 -2.0409  2.4386
  655TIP3    H2 1930   4.807   2.516   2.826 -1.6380  0.0995 -1.3241
  656TIP3   OH2 1931   3.973   4.668   0.348 -0.1598  0.3019 -0.5368
  656TIP3    H1 1932   3.922   4.640   0.424  0.5371  1.2022  0.2757
  656TIP3    H2 1933   3.910   4.666   0.276 -1.5142  1.8611  0.5244
  657TIP3   OH2 1934   2.158   0.780   0.625 -0.1543 -0.4067  0.4037
  657TIP3    H1 1935   2.206   0.766   0.707 -1.8284  0.0435  1.4956
  657TIP3    H2 1936   2.220   0.827   0.569  2.0126 -3.0850  0.3473
  658TIP3   OH2 1937   5.601   1.012   4.308  0.2181  0.3124  1.0452
  658TIP3    H1 1938   5.653   0.950   4.257 -0.5211  0.2188  0.3912
  658TIP3    H2 1939   5.619   1.097   4.268 -0.5006  0.2147  0.5165
  659TIP3   OH2 1940   1.071   2.508   0.647  0.0279  0.5084 -0.5438
  659TIP3    H1 1941   0.982   2.528   0.677  0.9157  1.6278  1.5676
  659TIP3    H2 1942   1.083   2.416   0.669  0.2265  0.9933  1.6893
  660TIP3   OH2 1943   2.154   3.264   2.577 -0.3520 -0.0494 -0.1350
  660TIP3    H1 1944   2.107   3.262   2.660 -1.8025  0.4124 -0.9009
  660TIP3    H2 1945   2.125   3.346   2.536  0.5054 -0.1686 -1.0033
  661TIP3   OH2 1946   4.603   0.114   4.995  0.3389 -0.7361 -0.5586
  661TIP3    H1 1947   4.573   0.023   4.995 -0.6520 -0.4588  1.5946
  661TIP3    H2 1948   4.690   0.111   5.035  0.4991 -0.7668 -0.9007
  662TIP3   OH2 1949   2.585   3.264   3.470  0.2392 -0.3358 -0.0123
  662TIP3    H1 1950   2.542   3.295   3.390  0.6565 -0.9523 -0.4843
  662TIP3    H2 1951   2.512   3.234   3.526 -0.0058 -0.6622 -0.4969
  663TIP3   OH2 1952   3.499   4.874   1.201 -0.1772  0.7116 -0.1117
  663TIP3    H1 1953   3.575   4.920   1.166  1.0024 -1.3003 -0.3426
  663TIP3    H2 1954   3.475   4.922   1.280  0.8204  1.8477 -0.4836
  664TIP3   OH2 1955   6.541   0.303   1.842  0.1287  0.4169  0.2268
  664TIP3    H1 1956   6.474   0.240   1.869 -1.1135  1.7432  0.3810
  664TIP3    H2 1957   6.511   0.387   1.878  3.3420  0.6681  2.8191
  665TIP3   OH2 1958   6.068   5.267   4.612  0.2517 -0.3891  0.1364
  665TIP3    H1 1959   5.995   5.312   4.570 -0.0089 -1.0922 -0.1886
  665TIP3    H2 1960   6.069   5.180   4.572  0.3144 -0.9135  1.2167
  666TIP3   OH2 1961   7.099   3.344   0.683 -0.3288 -0.1496  0.3657
  666TIP3    H1 1962   7.151   3.393   0.619 -1.7932  0.6757 -0.2328
  666TIP3    H2 1963   7.008   3.365   0.661 -0.9148 -1.2755  1.6071
  667TIP3   OH2 1964   0.156   2.440   3.295  0.1875 -0.0634 -0.4818
  667TIP3    H1 1965   0.116   2.362   3.259 -0.5785  0.5699 -1.0346
  667TIP3    H2 1966   0.087   2.482   3.345  0.6040  0.2437 -0.1539
  668TIP3   OH2 1967   2.445   3.570   0.236 -0.6730  0.1703  0.0008
  668TIP3    H1 1968   2.538   3.556   0.252 -0.5630 -0.4822 -1.0672
  668TIP3    H2 1969   2.427   3.657   0.272  0.3958  0.3926  0.0296
  669TIP3   OH2 1970   4.270   0.230   2.396 -0.0413 -0.4495  0.8369
  669TIP3    H1 1971   4.324   0.300   2.359 -0.6749 -1.2009 -1.7555
  669TIP3    H2 1972   4.332   0.161   2.420  0.3199 -1.4841 -2.5121
  670TIP3   OH2 1973   3.007   2.943   1.728 -0.4071  0.2580  0.1337
  670TIP3    H1 1974   2.926   2.969   1.684 -0.6661 -1.4066 -0.4608
  670TIP3    H2 1975   3.066   3.018   1.715 -0.9910  0.4628 -1.7460
  671TIP3   OH2 1976   3.022   1.917   3.153 -0.1340 -0.1479  0.2537
  671TIP3    H1 1977   3.030   1.907   3.248  0.1260  0.8738  0.3435
  671TIP3    H2 1978   3.112   1.927   3.122 -0.0436 -2.2977 -0.3382
  672TIP3   OH2 1979   2.508   3.416   4.746  0.0679  0.9274  0.2523
  672TIP3    H1 1980   2.587   3.451   4.705  0.1939  0.9138  0.4853
  672TIP3    H2 1981   2.529   3.325   4.766  0.5519  1.3271  1.7275
  673TIP3   OH2 1982   0.114   6.410   3.942  0.3614  0.4113 -0.6217
  673TIP3    H1 1983   0.055   6.436   3.872 -1.2997  0.8062  0.8503
  673TIP3    H2 1984   0.135   6.318   3.923 -0.0697  0.5062 -1.6170
  674TIP3   OH2 1985   3.342   5.148   1.196  0.4985 -0.3941  0.3874
  674TIP3    H1 1986   3.305   5.094   1.126  0.0407 -0.1722  0.4548
  674TIP3    H2 1987   3.277   5.144   1.266 -0.1845  1.3067 -0.1000
  675TIP3   OH2 1988   2.170   6.177   5.580  0.3409  0.1816  0.1026
  675TIP3    H1 1989   2.133   6.265   5.573  0.2736  0.2273  0.9174
  675TIP3    H2 1990   2.102   6.120   5.545  0.8690  0.5396 -1.5726
  676TIP3   OH2 1991   7.142   4.388   4.785  0.1328  0.3670 -0.4395
  676TIP3    H1 1992   7.093   4.306   4.786  0.1142  0.3827  0.1532
  676TIP3    H2 1993   7.233   4.361   4.797  0.2745  0.3412 -1.4888
  677TIP3   OH2 1994   1.066   5.715   3.740 -0.8700 -0.4698 -0.4943
  677TIP3    H1 1995   0.997   5.777   3.761  0.1069  1.2584 -2.1080
  677TIP3    H2 1996   1.065   5.709   3.644  1.2787 -0.2958 -0.5675
  678TIP3   OH2 1997   4.927   6.181   5.668  0.5021  0.6810  0.3226
  678TIP3    H1 1998   4.976   6.211   5.744 -0.4512  1.9936  0.4539
  678TIP3    H2 1999   4.856   6.128   5.703  0.9208  0.0446  0.2306
  679TIP3   OH2 2000   6.055   0.059   3.525  0.2685 -0.1526  0.8645
  679TIP3    H1 2001   6.145   0.082   3.500 -0.3576  1.3264 -0.1715
  679TIP3    H2 2002   6.018   0.019   3.446 -0.1451 -0.3018  1.1303
  680TIP3   OH2 2003   5.666   3.536   2.930  0.1889 -0.0387  0.4871
  680TIP3    H1 2004   5.652   3.530   2.836  0.5382  1.0642  0.3513
  680TIP3    H2 2005   5.663   3.445   2.961 -1.0820 -0.3330 -0.4122
  681TIP3   OH2 2006   3.600   2.667   0.706  0.1648  0.0565 -0.4497
  681TIP3    H1 2007   3.688   2.660   0.742  0.4738  0.5385 -1.1009
  681TIP3    H2 2008   3.588   2.760   0.690  0.5195 -0.2522 -2.7830
  682TIP3   OH2 2009   1.483   1.919   1.697  0.1575 -0.8201  0.3220
  682TIP3    H1 2010   1.389   1.903   1.701  0.0698 -0.3264  0.3073
  682TIP3    H2 2011   1.510   1.882   1.613 -0.3088  0.4322 -0.4087
  683TIP3   OH2 2012   7.165   2.415   5.488  0.3027 -0.0792  0.0091
  683TIP3    H1 2013   7.072   2.430   5.473  0.2745  0.4771  0.6844
  683TIP3    H2 2014   7.188   2.475   5.560  0.8477 -1.2343  0.8410
  684TIP3   OH2 2015   6.174   4.708   1.909 -0.4404 -0.0865 -1.0165
  684TIP3    H1 2016   6.108   4.762   1.952 -0.1951 -0.1119 -0.6090
  684TIP3    H2 2017   6.253   4.761   1.910  0.5556 -1.4315  1.7918
  685TIP3   OH2 2018   3.264   3.886   2.114 -0.4337 -0.3892  0.5190
  685TIP3    H1 2019   3.271   3.945   2.039 -0.4069 -0.1298  0.7254
  685TIP3    H2 2020   3.352   3.883   2.150 -0.4092 -0.6461  0.4435
  686TIP3   OH2 2021   2.453   3.940   3.947  0.0235  0.3157 -0.8690
  686TIP3    H1 2022   2.384   3.992   3.989  1.1017  2.3846 -1.5063
  686TIP3    H2 2023   2.487   3.997   3.878  2.4522 -0.5511 -0.4843
  687TIP3   OH2 2024   5.710   3.157   1.219 -0.2399  0.3887 -0.5906
  687TIP3    H1 2025   5.632   3.102   1.216 -0.9403  1.3975 -1.7363
  687TIP3    H2 2026   5.783   3.095   1.221 -1.0210 -0.5805 -1.2207
  688TIP3   OH2 2027   1.125   6.645   1.649 -0.2543  0.0310 -0.1497
  688TIP3    H1 2028   1.093   6.574   1.704  0.2305 -0.1955 -0.1519
  688TIP3    H2 2029   1.048   6.673   1.599 -0.5777 -0.1064  0.2642
  689TIP3   OH2 2030   2.202   5.438   4.400 -0.2078 -0.3711  0.3223
  689TIP3    H1 2031   2.293   5.466   4.399 -0.5661  1.5197  3.7466
  689TIP3    H2 2032   2.152   5.520   4.401 -1.7298 -1.2449  1.6599
  690TIP3   OH2 2033   2.736   3.293   0.351  0.4564  0.1910  0.7519
  690TIP3    H1 2034   2.786   3.310   0.271 -0.0512 -0.4966  0.2727
  690TIP3    H2 2035   2.716   3.379   0.386 -0.5232  0.5697 -0.6307
  691TIP3   OH2 2036   5.596   3.319   0.752  0.9437  0.2709 -0.5491
  691TIP3    H1 2037   5.665   3.351   0.810 -0.8540  1.1422  1.2347
  691TIP3    H2 2038   5.563   3.240   0.795  1.5303 -0.7979 -1.9712
  692TIP3   OH2 2039   5.979   5.481   1.712 -0.1138  0.2425  0.4436
  692TIP3    H1 2040   6.064   5.523   1.702  0.5293 -1.4683 -1.8740
  692TIP3    H2 2041   5.993   5.414   1.779  0.3445  0.0432  0.1523
  693TIP3   OH2 2042   6.189   4.714   2.346  0.8335  0.1594 -0.4884
  693TIP3    H1 2043   6.182   4.742   2.437  0.3970 -0.5655 -0.2938
  693TIP3    H2 2044   6.196   4.618   2.351  1.9132  0.1893 -1.1552
  694TIP3   OH2 2045   5.848   5.737   0.082  0.3007  0.2350 -0.1091
  694TIP3    H1 2046   5.942   5.725   0.091  0.1757 -1.2744 -0.6347
  694TIP3    H2 2047   5.835   5.758  -0.010  0.1550  0.8724  0.0526
  695TIP3   OH2 2048   0.642   6.266   3.784 -0.3003  0.2806  0.3800
  695TIP3    H1 2049   0.631   6.358   3.807  0.3361  0.5736 -0.4562
  695TIP3    H2 2050   0.683   6.267   3.698  1.2156 -0.7747  1.0429
  696TIP3   OH2 2051   5.318   4.465   1.341  0.0702 -0.1956 -0.0100
  696TIP3    H1 2052   5.275   4.404   1.281 -0.4830 -0.3668  0.5582
  696TIP3    H2 2053   5.402   4.424   1.361  0.1990 -0.2046 -0.5513
  697TIP3   OH2 2054   4.119   2.004   5.771  0.7932 -0.1157 -0.7577
  697TIP3    H1 2055   4.183   2.043   5.711  0.4107  0.5577 -0.7334
  697TIP3    H2 2056   4.043   2.061   5.766  0.9939  0.3373  0.8867
  698TIP3   OH2 2057   3.101   2.785   2.368 -0.3108  0.2175 -0.7138
  698TIP3    H1 2058   3.122   2.841   2.293 -1.1176  2.6234  0.7457
  698TIP3    H2 2059   3.174   2.797   2.428 -0.5578 -0.1997 -0.3239
  699TIP3   OH2 2060   5.525   4.409   1.092  0.1233 -0.9771 -0.5356
  699TIP3    H1 2061   5.506   4.438   1.003 -2.8509  0.1253  0.3210
  699TIP3    H2 2062   5.553   4.488   1.138 -1.2450 -0.8562  0.1555
  700TIP3   OH2 2063   2.937   0.457   5.199  0.5720 -0.3477 -0.0553
  700TIP3    H1 2064   3.025   0.482   5.226  0.3798 -1.6174  1.8676
  700TIP3    H2 2065   2.929   0.365   5.222 -1.7062  0.0461  1.0932
  701TIP3   OH2 2066   1.216   4.376   0.709 -0.1620  0.1630  0.3878
  701TIP3    H1 2067   1.136   4.327   0.732 -0.2566  0.5728  0.9258
  701TIP3    H2 2068   1.285   4.332   0.757 -0.2156  0.4323  0.7101
  702TIP3   OH2 2069   1.008   5.415   0.919 -0.0675 -0.0655  0.7278
  702TIP3    H1 2070   0.953   5.491   0.900  0.9773  0.2627 -1.3795
  702TIP3    H2 2071   1.085   5.452   0.962  0.9190  0.3241 -1.2162
  703TIP3   OH2 2072   3.218   1.662   0.703  0.1911  0.1615  0.2521
  703TIP3    H1 2073   3.164   1.652   0.625  1.2831 -0.6931 -0.4369
  703TIP3    H2 2074   3.201   1.751   0.733 -1.8231 -0.1986  0.2691
  704TIP3   OH2 2075   3.222   5.408   3.473 -0.0077 -0.7358  0.0800
  704TIP3    H1 2076   3.309   5.447   3.468  0.7949 -2.4660 -0.2107
  704TIP3    H2 2077   3.205   5.399   3.567  0.0051 -0.1560  0.1414
  705TIP3   OH2 2078   5.146   2.857   0.557 -0.5171  0.1635 -0.5196
  705TIP3    H1 2079   5.186   2.879   0.641  0.0277  0.1010 -0.7600
  705TIP3    H2 2080   5.115   2.767   0.569  2.1270 -0.9702 -1.2684
  706TIP3   OH2 2081   1.185   3.047   0.099 -0.5667 -0.2865 -0.1935
  706TIP3    H1 2082   1.279   3.031   0.099 -0.3244  0.8625 -1.8766
  706TIP3    H2 2083   1.147   2.968   0.062 -0.3949 -1.1367  1.3376
  707TIP3   OH2 2084   7.093   6.066   0.780 -0.1706  0.2265 -0.5335
  707TIP3    H1 2085   7.076   6.045   0.872  0.0864 -0.4744 -0.6392
  707TIP3    H2 2086   7.017   6.118   0.752  0.2553  1.3594  0.3680
  708TIP3   OH2 2087   1.906   1.261   4.813  0.6275 -0.5104 -0.1060
  708TIP3    H1 2088   1.966   1.304   4.752  0.0609  0.6252  0.1157
  708TIP3    H2 2089   1.876   1.331   4.871  1.2024 -1.5609  1.5358
  709TIP3   OH2 2090   5.207   4.799   0.718 -0.0935  0.6810 -0.3717
  709TIP3    H1 2091   5.150   4.845   0.780 -1.1637 -1.5461  0.4214
  709TIP3    H2 2092   5.287   4.781   0.767 -0.0084  0.9355 -0.4137
  710TIP3   OH2 2093   5.340   3.253   4.391  0.3569  0.2511 -0.2069
  710TIP3    H1 2094   5.370   3.309   4.464  0.4222  1.9244 -1.4525
  710TIP3    H2 2095   5.257   3.216   4.422  0.2658  1.1137  0.6538
  711TIP3   OH2 2096   2.215   2.769   0.159 -0.4611 -0.9070  0.2686
  711TIP3    H1 2097   2.289   2.817   0.195  0.3161 -0.9282 -1.2386
  711TIP3    H2 2098   2.183   2.716   0.232  0.0167  0.2616  1.3653
  712TIP3   OH2 2099   7.105   1.315   0.420  0.2606  0.3402  0.3627
  712TIP3    H1 2100   7.129   1.236   0.469 -0.8663  0.0670  0.5029
  712TIP3    H2 2101   7.025   1.346   0.462  0.2766  1.1299 -0.1716
  713TIP3   OH2 2102   5.038   3.747   1.396 -0.0832 -0.6242 -0.0182
  713TIP3    H1 2103   5.026   3.652   1.402 -0.0398 -0.8086 -2.2428
  713TIP3    H2 2104   5.131   3.761   1.413  0.0626 -1.0538 -0.4675
  714TIP3   OH2 2105   3.770   2.735   5.240 -0.3176  0.4190  0.3613
  714TIP3    H1 2106   3.833   2.800   5.271  0.6240 -1.2230  2.0870
  714TIP3    H2 2107   3.771   2.667   5.307 -2.5036 -0.6026 -0.5453
  715TIP3   OH2 2108   6.166   2.147   3.209 -0.0125 -0.2569  0.2422
  715TIP3    H1 2109   6.084   2.134   3.257 -0.2163 -2.2860 -0.5447
  715TIP3    H2 2110   6.171   2.073   3.149  1.5894  0.7329 -0.9373
  716TIP3   OH2 2111   4.845   5.708   3.066 -0.1662 -0.2789  0.0814
  716TIP3    H1 2112   4.929   5.724   3.109 -0.7225  0.8781  0.7770
  716TIP3    H2 2113   4.865   5.711   2.973  0.1605  2.6280  0.1675
  717TIP3   OH2 2114   3.663   0.081   3.607 -0.3713  0.1075 -0.2199
  717TIP3    H1 2115   3.588   0.085   3.666  0.1668 -0.6170  0.5313
  717TIP3    H2 2116   3.711   0.003   3.634 -0.8625 -1.0508 -2.5646
  718TIP3   OH2 2117   3.185   0.433   1.541 -0.3423  0.1184  0.1927
  718TIP3    H1 2118   3.173   0.472   1.627  1.4882 -0.5079  0.7814
  718TIP3    H2 2119   3.275   0.400   1.542  0.3286  1.5343 -2.5332
  719TIP3   OH2 2120   3.078   0.880   2.615 -0.0771  0.4825 -0.1236
  719TIP3    H1 2121   3.028   0.850   2.539  0.6785  0.8897 -0.8036
  719TIP3    H2 2122   3.165   0.843   2.603  0.4054  1.5703 -0.1295
  720TIP3   OH2 2123   2.634   1.520   4.772 -0.0626  0.0986 -0.6159
  720TIP3    H1 2124   2.655   1.570   4.851 -1.4819 -2.3209  1.4463
  720TIP3    H2 2125   2.646   1.429   4.798 -3.0751 -0.9313 -2.3765
  721TIP3   OH2 2126   2.022   0.718   5.414 -0.2564  0.0372  0.0853
  721TIP3    H1 2127   1.949   0.681   5.464 -0.0885  0.1161  0.3954
  721TIP3    H2 2128   2.096   0.661   5.435 -0.2242 -0.0340 -0.2151
  722TIP3   OH2 2129   4.280   4.270   5.376 -0.0289 -0.2694  0.1161
  722TIP3    H1 2130   4.265   4.197   5.315  0.5091 -0.2898 -0.0004
  722TIP3    H2 2131   4.242   4.241   5.458 -3.2704  0.8490 -0.8626
  723TIP3   OH2 2132   0.321   5.286   0.013  0.3963  0.2477  0.8204
  723TIP3    H1 2133   0.245   5.296   0.070  0.8613 -1.3436  1.7856
  723TIP3    H2 2134   0.287   5.241  -0.065  0.3130 -0.3415  1.1921
  724TIP3   OH2 2135   5.662   2.563   0.173  0.3609 -0.3691 -0.5418
  724TIP3    H1 2136   5.670   2.650   0.134 -0.5016  0.4827  1.0683
  724TIP3    H2 2137   5.621   2.510   0.105  2.0222  0.1287 -1.9982
  725TIP3   OH2 2138   5.647   3.996   5.618  0.1473 -0.0116  0.1269
  725TIP3    H1 2139   5.645   4.017   5.711 -0.5074  0.5141 -0.0007
  725TIP3    H2 2140   5.683   3.907   5.614  1.6346  0.5214  0.7788
  726TIP3   OH2 2141   0.089   1.189   2.895 -0.5986 -0.4616  0.1626
  726TIP3    H1 2142   0.075   1.229   2.981  2.2867  1.3691 -0.1169
  726TIP3    H2 2143   0.084   1.095   2.912 -2.5016 -0.1403  1.8170
  727TIP3   OH2 2144   3.554   6.739   3.265  0.3973 -0.2583 -0.6757
  727TIP3    H1 2145   3.605   6.809   3.224  1.2536 -0.7610 -0.4798
  727TIP3    H2 2146   3.584   6.659   3.223  1.4996 -0.8232  1.0940
  728TIP3   OH2 2147   5.330   2.186   3.027 -0.3036  0.8514 -0.0929
  728TIP3    H1 2148   5.332   2.103   2.979 -0.7384  0.1593  1.0531
  728TIP3    H2 2149   5.246   2.226   3.003 -0.3664  0.6686 -0.1780
  729TIP3   OH2 2150   6.284   2.892   1.824  0.2085 -0.4419  0.5419
  729TIP3    H1 2151   6.346   2.823   1.847  0.3544 -0.5223 -0.0634
  729TIP3    H2 2152   6.208   2.845   1.788  0.1489 -0.3054  0.4873
  730TIP3   OH2 2153   5.380   1.904   3.987  0.1396  0.0634  0.1976
  730TIP3    H1 2154   5.311   1.970   3.999 -1.0633 -0.9799 -0.7338
  730TIP3    H2 2155   5.451   1.952   3.944  0.8391  1.6162  2.8238
  731TIP3   OH2 2156   5.488   1.002   4.618 -0.4453 -0.1644  0.0234
  731TIP3    H1 2157   5.461   1.059   4.546 -0.5712  0.1581  0.3233
  731TIP3    H2 2158   5.557   0.947   4.580  0.6783  1.1355  0.1013
  732TIP3   OH2 2159   4.115   6.370   1.209  0.3298 -0.2475  0.0770
  732TIP3    H1 2160   4.052   6.398   1.142  0.0587  0.2482  0.5270
  732TIP3    H2 2161   4.061   6.354   1.287  0.7249 -0.0808  0.3864
  733TIP3   OH2 2162   7.194   0.866   1.449  0.1868 -0.8289  0.4258
  733TIP3    H1 2163   7.120   0.857   1.509  0.1612  0.9426  0.6993
  733TIP3    H2 2164   7.162   0.921   1.378  1.2803  0.1484  0.6534
  734TIP3   OH2 2165   5.024   6.360   2.179 -0.0950 -0.2031 -0.1442
  734TIP3    H1 2166   4.980   6.430   2.131  0.2381  0.0853 -0.0368
  734TIP3    H2 2167   4.971   6.347   2.258 -0.3346 -0.2922 -0.3195
  735TIP3   OH2 2168   1.898   4.057   4.834  0.1962  0.2482 -0.0579
  735TIP3    H1 2169   1.887   3.979   4.779 -0.2867 -1.2952  2.0960
  735TIP3    H2 2170   1.980   4.042   4.881  0.5820  1.5105 -0.3036
  736TIP3   OH2 2171   6.133   0.537   2.589 -0.1033 -0.0726  0.4765
  736TIP3    H1 2172   6.070   0.519   2.658  0.0047  2.4480  1.3289
  736TIP3    H2 2173   6.080   0.549   2.510 -0.4453 -0.5420  0.6324
  737TIP3   OH2 2174   0.431   4.702   5.270 -0.3292  0.0310  0.4412
  737TIP3    H1 2175   0.487   4.626   5.287  0.1237  0.3184  0.2522
  737TIP3    H2 2176   0.368   4.670   5.205  0.0458 -0.0994  0.1395
  738TIP3   OH2 2177   1.272   3.438   1.896  0.5190  0.3359  0.0645
  738TIP3    H1 2178   1.194   3.427   1.950  1.1735  0.7916  1.1286
  738TIP3    H2 2179   1.284   3.533   1.890  1.0767  0.2672  0.0319
  739TIP3   OH2 2180   4.665   3.595   5.675 -0.1176 -0.2739  0.1477
  739TIP3    H1 2181   4.665   3.682   5.716 -3.3081  0.8046 -1.7375
  739TIP3    H2 2182   4.616   3.540   5.735  0.8503 -0.4987  0.7611
  740TIP3   OH2 2183   0.216   1.933   4.416  0.1693 -0.5596  0.2678
  740TIP3    H1 2184   0.256   1.858   4.373  0.8300  0.6088 -1.2705
  740TIP3    H2 2185   0.252   2.009   4.370 -0.8881  0.6879  1.4002
  741TIP3   OH2 2186   1.872   3.660   5.211 -0.3824  0.2206  0.1201
  741TIP3    H1 2187   1.931   3.585   5.198 -1.2224 -0.4857  0.3257
  741TIP3    H2 2188   1.821   3.637   5.288  0.1656  1.5475  0.9105
  742TIP3   OH2 2189   6.846   0.120   4.732  0.3902 -0.1741  0.4909
  742TIP3    H1 2190   6.785   0.152   4.799  2.0614 -0.3875  2.1948
  742TIP3    H2 2191   6.875   0.199   4.686  1.2650  0.3158  1.8416
  743TIP3   OH2 2192   0.973   0.638   1.569  0.2440  0.4227  0.0476
  743TIP3    H1 2193   0.973   0.675   1.481  0.2190  0.7347  0.1754
  743TIP3    H2 2194   0.881   0.627   1.591  0.1506  2.4652  0.8950
  744TIP3   OH2 2195   5.656   5.345   3.347 -0.5037  1.1128  0.0742
  744TIP3    H1 2196   5.726   5.395   3.390  0.3171  1.4592 -1.5839
  744TIP3    H2 2197   5.628   5.401   3.275 -0.9162  0.0060 -0.6433
  745TIP3   OH2 2198   6.392   2.165   0.304  0.0127  0.1033 -0.0977
  745TIP3    H1 2199   6.367   2.242   0.254  1.0817  1.2516  1.0298
  745TIP3    H2 2200   6.363   2.090   0.252 -2.4846  1.2649 -0.4766
  746TIP3   OH2 2201   3.024   2.375   0.521  0.3597  0.2630 -0.0457
  746TIP3    H1 2202   2.988   2.378   0.432  1.0524  1.2432 -0.3033
  746TIP3    H2 2203   3.024   2.282   0.543  0.0268  0.0185 -1.0080
  747TIP3   OH2 2204   6.785   3.376   4.042  0.2985  0.1682  0.1643
  747TIP3    H1 2205   6.723   3.449   4.042 -1.3993 -1.2101  0.7093
  747TIP3    H2 2206   6.754   3.318   4.111  0.6404 -1.8266 -1.2517
  748TIP3   OH2 2207   1.879   0.110   3.841  0.7117  0.6761 -0.5549
  748TIP3    H1 2208   1.907   0.179   3.901  2.5089  1.0284 -1.6944
  748TIP3    H2 2209   1.879   0.153   3.755  0.1644 -0.3129 -1.0605
  749TIP3   OH2 2210   6.627   1.702   3.031 -0.1686 -0.2886 -0.2185
  749TIP3    H1 2211   6.706   1.666   3.070  0.0406  1.0435  0.6709
  749TIP3    H2 2212   6.560   1.636   3.046  0.9917 -2.0010 -2.0862
  750TIP3   OH2 2213   1.152   4.131   4.826  0.1606  0.6085  0.1468
  750TIP3    H1 2214   1.194   4.205   4.870  0.7547  0.5647 -0.3410
  750TIP3    H2 2215   1.179   4.054   4.877  0.3443  0.6233  0.0706
  751TIP3   OH2 2216   6.368   1.732   5.498  0.1174  0.0950  0.7741
  751TIP3    H1 2217   6.379   1.723   5.403 -0.2285 -0.2211  0.7588
  751TIP3    H2 2218   6.303   1.665   5.521 -0.4533  0.7458  1.0985
  752TIP3   OH2 2219   4.948   1.742   5.639  0.3916 -0.2685 -0.0201
  752TIP3    H1 2220   4.903   1.696   5.710  0.7716  0.0420  0.4344
  752TIP3    H2 2221   5.041   1.728   5.658  0.6069  2.4916  1.3972
  753TIP3   OH2 2222   4.345   5.493   0.221 -0.0922  0.1141  0.3490
  753TIP3    H1 2223   4.309   5.455   0.140  0.1673  0.1367  0.2215
  753TIP3    H2 2224   4.332   5.424   0.286  1.1042 -0.5273 -0.0601
  754TIP3   OH2 2225   0.385   5.445   5.485 -0.1363  0.1073 -0.1696
  754TIP3    H1 2226   0.435   5.368   5.456  0.3156  0.8370 -1.4039
  754TIP3    H2 2227   0.451   5.501   5.529 -0.0193  0.7026 -1.0823
  755TIP3   OH2 2228   1.082   1.537   2.304  0.1075  0.1767  0.1504
  755TIP3    H1 2229   1.086   1.563   2.396 -0.7857  0.7659  0.0359
  755TIP3    H2 2230   0.997   1.493   2.296  0.9927 -1.5877  0.0255
  756TIP3   OH2 2231   5.664   6.494   4.476  0.2492  0.3067  0.2622
  756TIP3    H1 2232   5.740   6.442   4.451  0.7823  0.9917  0.4090
  756TIP3    H2 2233   5.699   6.583   4.488 -0.4808  0.5314  0.8022
  757TIP3   OH2 2234   0.477   5.812   3.458  0.4457  0.6758  0.3749
  757TIP3    H1 2235   0.391   5.821   3.499 -0.6834 -2.6535 -0.9537
  757TIP3    H2 2236   0.468   5.854   3.372 -0.6678 -1.5123 -0.6552
  758TIP3   OH2 2237   4.544   4.018   1.023 -0.0008  0.4560  0.1007
  758TIP3    H1 2238   4.473   4.082   1.020  0.6787  1.2293  0.1306
  758TIP3    H2 2239   4.567   4.014   1.116 -0.1488  0.0505  0.1185
  759TIP3   OH2 2240   5.752   4.719   5.635 -0.2533  0.3090 -0.0044
  759TIP3    H1 2241   5.777   4.744   5.723 -0.4192 -2.6621  0.9881
  759TIP3    H2 2242   5.830   4.679   5.598 -0.7221 -0.1711 -0.5000
  760TIP3   OH2 2243   4.076   5.634   4.383 -0.2400  0.0019 -0.2554
  760TIP3    H1 2244   4.042   5.686   4.456  0.4034  0.9886 -0.6402
  760TIP3    H2 2245   4.010   5.643   4.315 -1.5934 -2.1678  0.6835
  761TIP3   OH2 2246   4.635   5.293   3.677  0.4264 -0.3263  1.2370
  761TIP3    H1 2247   4.700   5.327   3.739  0.7973 -0.4685  0.9265
  761TIP3    H2 2248   4.686   5.257   3.605 -0.0039  0.1417  0.6784
  762TIP3   OH2 2249   1.920   5.722   2.052  0.6203  0.3694 -0.0616
  762TIP3    H1 2250   1.923   5.699   2.144  1.5058  2.2235  0.4168
  762TIP3    H2 2251   1.982   5.794   2.043  1.4833 -0.5649 -2.3619
  763TIP3   OH2 2252   6.054   4.756   4.496 -0.3880 -0.1494  0.0386
  763TIP3    H1 2253   6.033   4.696   4.424 -1.7746 -1.5188  1.4995
  763TIP3    H2 2254   6.132   4.718   4.537  0.1175  0.3659 -0.4295
  764TIP3   OH2 2255   3.615   3.572   3.237  0.1428  0.1630  0.6816
  764TIP3    H1 2256   3.691   3.623   3.262  0.3817  0.9010 -1.3552
  764TIP3    H2 2257   3.648   3.507   3.175 -1.1585  2.1316 -2.2769
  765TIP3   OH2 2258   0.382   5.621   0.442  0.5932 -0.0627 -0.1608
  765TIP3    H1 2259   0.335   5.542   0.469  0.2929 -0.3956 -1.6123
  765TIP3    H2 2260   0.468   5.613   0.484  0.3441 -0.8364  0.2244
  766TIP3   OH2 2261   6.906   1.425   2.575 -0.6458  0.9095 -0.0042
  766TIP3    H1 2262   6.973   1.425   2.643 -1.5822  0.5025  0.9528
  766TIP3    H2 2263   6.878   1.334   2.569 -0.1263  0.8269 -1.4116
  767TIP3   OH2 2264   6.927   3.556   2.382  0.1620 -0.1374  0.0716
  767TIP3    H1 2265   6.849   3.596   2.419 -0.8143 -1.9069  0.0632
  767TIP3    H2 2266   6.901   3.529   2.294  1.0245 -0.0849 -0.2087
  768TIP3   OH2 2267   4.928   4.340   4.887  0.0765 -0.4414 -0.6505
  768TIP3    H1 2268   5.022   4.333   4.904  0.3219  3.0979  0.1297
  768TIP3    H2 2269   4.913   4.282   4.812  2.3537 -2.8968  0.6365
  769TIP3   OH2 2270   1.716   4.976   3.486  0.0491 -0.2129  0.4139
  769TIP3    H1 2271   1.716   4.999   3.579 -0.9183  0.1524  0.3317
  769TIP3    H2 2272   1.715   5.059   3.440  1.9040 -0.3591  0.0303
  770TIP3   OH2 2273   3.537   3.533   1.294 -0.5379  0.1431 -0.2762
  770TIP3    H1 2274   3.577   3.451   1.325 -0.2771  0.0728 -0.7975
  770TIP3    H2 2275   3.510   3.578   1.375 -0.4072 -0.3172  0.0267
  771TIP3   OH2 2276   6.269   1.263   1.482 -0.1679 -0.3502 -0.2261
  771TIP3    H1 2277   6.269   1.353   1.515 -0.6181 -0.8493  1.2049
  771TIP3    H2 2278   6.191   1.223   1.520 -1.6363 -0.5749 -3.1627
  772TIP3   OH2 2279   2.063   6.241   4.490  0.5442 -0.0254 -0.4128
  772TIP3    H1 2280   2.001   6.276   4.426  0.1160 -0.4795 -0.2496
  772TIP3    H2 2281   2.140   6.298   4.481 -0.4512  1.5502  0.4749
  773TIP3   OH2 2282   4.562   5.514   3.525 -0.5240  0.1213  0.6166
  773TIP3    H1 2283   4.479   5.488   3.484  1.3533 -2.3854 -1.9850
  773TIP3    H2 2284   4.584   5.440   3.582  0.0878  0.6457  1.0726
  774TIP3   OH2 2285   6.146   5.455   5.833 -0.7463  0.4361 -0.4880
  774TIP3    H1 2286   6.180   5.523   5.775 -1.2966 -0.1504 -1.5171
  774TIP3    H2 2287   6.224   5.407   5.861 -0.5543  0.2019 -1.4119
  775TIP3   OH2 2288   3.144   0.990   0.982 -0.2633  0.5432  0.2375
  775TIP3    H1 2289   3.182   1.076   0.964 -1.2316  0.6213 -1.6180
  775TIP3    H2 2290   3.051   1.008   1.000 -1.1275 -0.2814 -2.8960
  776TIP3   OH2 2291   5.623   5.129   3.112 -0.0354 -0.2205 -0.1662
  776TIP3    H1 2292   5.547   5.136   3.169 -1.2760  1.5518 -1.9051
  776TIP3    H2 2293   5.685   5.194   3.146  0.2449 -0.8585  0.5650
  777TIP3   OH2 2294   3.118   4.578   4.244  0.2197  0.2737 -0.3173
  777TIP3    H1 2295   3.177   4.504   4.259 -0.5858 -0.0765  1.3939
  777TIP3    H2 2296   3.130   4.601   4.152  2.0472 -0.6197 -0.3407
  778TIP3   OH2 2297   5.563   3.113   0.179  0.0348  0.0502  0.0784
  778TIP3    H1 2298   5.515   3.191   0.149 -0.1954 -0.1231 -0.0036
  778TIP3    H2 2299   5.544   3.109   0.273  1.3081  0.9839  0.3964
  779TIP3   OH2 2300   6.143   3.109   1.436 -0.4274  0.0280 -0.0011
  779TIP3    H1 2301   6.225   3.154   1.458  0.0042 -0.1557 -1.1739
  779TIP3    H2 2302   6.095   3.172   1.381  0.0129 -0.7510 -1.3360
  780TIP3   OH2 2303   5.903   2.728   2.070  0.5410  0.8216  0.7248
  780TIP3    H1 2304   5.825   2.674   2.072  0.0100  1.1606 -3.0522
  780TIP3    H2 2305   5.877   2.811   2.109 -1.5831  1.4494 -1.7770
  781TIP3   OH2 2306   1.817   2.327   2.271 -0.1226  0.2867  0.0932
  781TIP3    H1 2307   1.809   2.264   2.200 -0.5632  0.7567 -0.2778
  781TIP3    H2 2308   1.898   2.374   2.254  1.2047 -1.3859  1.3661
  782TIP3   OH2 2309   5.520   3.751   2.369  0.5173 -0.0123  0.3392
  782TIP3    H1 2310   5.554   3.668   2.335  0.9222 -0.3693  1.5541
  782TIP3    H2 2311   5.429   3.733   2.392 -0.1663  0.5949 -1.7330
  783TIP3   OH2 2312   5.982   3.701   1.425 -0.0671  0.2571 -1.2995
  783TIP3    H1 2313   5.972   3.678   1.518 -2.1178 -0.2390 -1.5969
  783TIP3    H2 2314   5.931   3.781   1.414  0.3735  0.4583 -1.9689
  784TIP3   OH2 2315   3.396   6.340   5.417 -0.5328 -0.0486  0.9584
  784TIP3    H1 2316   3.476   6.311   5.461 -0.5125 -1.5820 -0.0305
  784TIP3    H2 2317   3.359   6.406   5.476  1.0986  0.2100  1.7517
  785TIP3   OH2 2318   3.965   6.033   5.154  0.0866 -0.0158  0.1189
  785TIP3    H1 2319   4.024   5.958   5.163 -0.0132 -0.1587 -0.4144
  785TIP3    H2 2320   3.999   6.097   5.217 -0.5054 -0.9355  1.4150
  786TIP3   OH2 2321   5.440   1.514   3.569 -0.1878 -0.1575 -0.3714
  786TIP3    H1 2322   5.467   1.438   3.620 -1.9243 -1.4028 -1.1945
  786TIP3    H2 2323   5.498   1.584   3.598  1.4186 -1.7534  0.4864
  787TIP3   OH2 2324   0.763   5.678   3.152 -0.2059 -0.2161 -0.3406
  787TIP3    H1 2325   0.687   5.682   3.094  0.8167  2.3495 -1.6608
  787TIP3    H2 2326   0.751   5.752   3.212  1.1039  0.0862 -0.4191
  788TIP3   OH2 2327   6.706   1.098   4.556 -0.0836  0.2439 -0.6054
  788TIP3    H1 2328   6.733   1.044   4.482 -0.2434  0.7013 -1.0038
  788TIP3    H2 2329   6.638   1.155   4.521  2.4005  3.1427 -1.1797
  789TIP3   OH2 2330   2.495   2.560   4.923  0.0853 -0.5679  0.3646
  789TIP3    H1 2331   2.534   2.475   4.942 -1.0573 -0.7993  1.8838
  789TIP3    H2 2332   2.412   2.560   4.971  0.7766  2.0237  1.7717
  790TIP3   OH2 2333   5.017   5.770   1.808  0.0966 -0.2427 -0.1493
  790TIP3    H1 2334   4.921   5.780   1.809  0.0581 -0.6064 -0.3488
  790TIP3    H2 2335   5.049   5.857   1.832 -0.3387 -0.9735  3.9619
  791TIP3   OH2 2336   3.222   5.569   3.874  0.3372 -0.0830 -0.3732
  791TIP3    H1 2337   3.147   5.553   3.816  1.3619 -0.5871 -1.6046
  791TIP3    H2 2338   3.183   5.602   3.955 -1.1726  0.1624 -1.1652
  792TIP3   OH2 2339   6.644   4.416   4.430  0.6319  0.0837 -0.0827
  792TIP3    H1 2340   6.555   4.437   4.458  0.3457 -0.2147 -0.7471
  792TIP3    H2 2341   6.679   4.499   4.398  0.9682  0.4320  1.1413
  793TIP3   OH2 2342   0.596   4.508   3.367 -0.2813  0.4115 -0.5335
  793TIP3    H1 2343   0.529   4.440   3.373 -2.0574  2.1234 -0.3756
  793TIP3    H2 2344   0.585   4.546   3.280 -0.3829  1.5781 -0.0218
  794TIP3   OH2 2345   3.652   2.249   2.347 -0.0075 -0.0635  0.1226
  794TIP3    H1 2346   3.587   2.180   2.338 -0.0479 -0.1396  0.9347
  794TIP3    H2 2347   3.605   2.323   2.385  0.2337  0.0996  0.1084
  795TIP3   OH2 2348   1.659   4.898   1.728 -0.2378  0.2009 -0.0783
  795TIP3    H1 2349   1.665   4.939   1.642 -0.8404  1.2449  0.3693
  795TIP3    H2 2350   1.580   4.934   1.767  1.4003  1.8592  1.9872
  796TIP3   OH2 2351   2.653   1.128   2.597 -0.0633  0.3087 -0.5974
  796TIP3    H1 2352   2.720   1.129   2.529 -1.5854  0.6392 -2.1584
  796TIP3    H2 2353   2.641   1.035   2.618  0.1438  0.1716 -1.0673
  797TIP3   OH2 2354   3.401   1.551   1.031  0.4899  0.2176  0.2425
  797TIP3    H1 2355   3.406   1.530   0.938 -1.9021 -3.7585  0.8088
  797TIP3    H2 2356   3.331   1.617   1.037  1.3087  1.2200 -0.7819
  798TIP3   OH2 2357   4.861   1.016   2.096 -0.0298 -0.5070 -0.7191
  798TIP3    H1 2358   4.820   1.103   2.088  0.2615 -0.3853 -0.8651
  798TIP3    H2 2359   4.787   0.957   2.114  0.0013  0.1183  1.8750
  799TIP3   OH2 2360   4.681   1.723   1.690  0.1034  0.5498  0.1760
  799TIP3    H1 2361   4.596   1.768   1.688  0.7808  1.9079  0.8662
  799TIP3    H2 2362   4.686   1.684   1.777 -0.1202 -0.2078 -0.1337
  800TIP3   OH2 2363   5.738   1.480   3.374 -0.5997 -0.3855  0.6044
  800TIP3    H1 2364   5.692   1.427   3.439  0.3385 -1.4712  0.4143
  800TIP3    H2 2365   5.819   1.507   3.417 -1.6107  2.0446  1.1564
  801TIP3   OH2 2366   3.658   6.018   4.336 -0.0123 -0.2747 -0.1413
  801TIP3    H1 2367   3.672   6.032   4.429  2.3131  1.2329 -0.6351
  801TIP3    H2 2368   3.583   6.073   4.314  0.8296  1.1369  0.4372
  802TIP3   OH2 2369   6.724   1.899   4.832 -0.1063 -0.3479 -0.2421
  802TIP3    H1 2370   6.681   1.858   4.907  0.3811  1.2173  0.9399
  802TIP3    H2 2371   6.795   1.838   4.809  0.2029 -0.5008  1.0454
  803TIP3   OH2 2372   5.584   5.651   1.872 -0.3550  0.0005  0.3135
  803TIP3    H1 2373   5.613   5.561   1.857  3.0525  1.0328 -0.0387
  803TIP3    H2 2374   5.627   5.677   1.954  0.1182  1.8132 -0.4534
  804TIP3   OH2 2375   3.386   2.672   0.361  0.4027 -0.1942 -0.4410
  804TIP3    H1 2376   3.383   2.748   0.303  0.3446  2.2519  2.5443
  804TIP3    H2 2377   3.472   2.674   0.401  0.0533 -1.1498  0.4220
  805TIP3   OH2 2378   3.330   4.558   2.037  0.1028 -0.0806  0.8845
  805TIP3    H1 2379   3.358   4.636   2.086  0.6153 -0.9908  2.0994
  805TIP3    H2 2380   3.389   4.555   1.962 -1.9840  2.4806 -1.0413
  806TIP3   OH2 2381   0.088   2.392   0.042 -0.5330 -0.1958  0.1781
  806TIP3    H1 2382   0.120   2.411  -0.046  0.1470  0.3439  0.5311
  806TIP3    H2 2383   0.035   2.468   0.066 -0.7376 -0.3522  0.2219
  807TIP3   OH2 2384   2.704   0.471   5.750  0.1930 -0.1057 -0.0579
  807TIP3    H1 2385   2.691   0.480   5.844  3.1090  1.1262  0.3303
  807TIP3    H2 2386   2.633   0.413   5.721 -1.7677  0.8123  2.5662
  808TIP3   OH2 2387   5.986   2.302   2.363  0.0776 -0.0876  0.0674
  808TIP3    H1 2388   6.021   2.274   2.448  1.9750 -1.6878 -1.1460
  808TIP3    H2 2389   5.909   2.247   2.351  0.0925 -0.2182  0.5361
  809TIP3   OH2 2390   5.226   6.427   4.432 -0.2076 -0.3024  0.2289
  809TIP3    H1 2391   5.191   6.338   4.436 -1.1800  0.0595  0.0275
  809TIP3    H2 2392   5.207   6.464   4.519 -3.0741  0.8633 -0.7535
  810TIP3   OH2 2393   4.577   0.555   4.667  0.7847 -0.4315  0.2482
  810TIP3    H1 2394   4.661   0.598   4.652  0.2599  0.0854 -1.4541
  810TIP3    H2 2395   4.515   0.603   4.612 -0.3351 -1.7795  0.2652
  811TIP3   OH2 2396   0.762   5.397   1.174  0.5215 -0.1526 -0.1182
  811TIP3    H1 2397   0.714   5.338   1.116 -0.3644  1.2662 -0.8702
  811TIP3    H2 2398   0.790   5.469   1.117 -0.6296  1.4381  1.2489
  812TIP3   OH2 2399   4.386   1.659   4.336 -0.2841 -0.1242  0.4329
  812TIP3    H1 2400   4.477   1.646   4.309 -0.0588 -0.1365  1.1765
  812TIP3    H2 2401   4.339   1.678   4.254 -0.0387 -2.2750 -0.2808
  813TIP3   OH2 2402   4.201   4.930   4.261 -0.8096 -0.6888 -0.3667
  813TIP3    H1 2403   4.132   4.957   4.321  0.1286 -1.1861  0.9870
  813TIP3    H2 2404   4.275   4.987   4.283 -0.4108 -0.9655 -0.9695
  814TIP3   OH2 2405   1.020   6.354   1.409  0.2875 -0.1661 -0.0898
  814TIP3    H1 2406   1.060   6.431   1.449  0.5594  0.1361 -0.9258
  814TIP3    H2 2407   0.932   6.350   1.447  0.6726 -0.1211  0.8275
  815TIP3   OH2 2408   0.821   3.303   4.200  0.6164 -0.9461 -0.4573
  815TIP3    H1 2409   0.838   3.396   4.218  2.0853 -1.1663 -0.5929
  815TIP3    H2 2410   0.803   3.299   4.106  1.5398 -0.9064 -0.6483
  816TIP3   OH2 2411   5.155   3.276   4.961  0.5450  0.0549 -0.1539
  816TIP3    H1 2412   5.159   3.195   5.012 -1.1600  0.4646  0.7272
  816TIP3    H2 2413   5.162   3.247   4.870  0.6570 -1.0116  0.1792
  817TIP3   OH2 2414   6.278   2.597   0.901  0.0211  0.5514  0.2907
  817TIP3    H1 2415   6.198   2.649   0.897  0.2092  0.8537  0.4497
  817TIP3    H2 2416   6.247   2.507   0.900 -0.2373  0.5887 -2.4915
  818TIP3   OH2 2417   4.913   3.256   5.279 -0.0561  0.5338  0.1434
  818TIP3    H1 2418   5.002   3.267   5.311 -0.3523  0.1897  1.1126
  818TIP3    H2 2419   4.858   3.291   5.349 -0.7046  0.2061 -0.1932
  819TIP3   OH2 2420   1.243   4.777   4.090  0.1446 -0.0226  0.5512
  819TIP3    H1 2421   1.235   4.794   3.996  0.0427  1.7749  0.8584
  819TIP3    H2 2422   1.318   4.718   4.097 -0.9180 -1.6210 -0.7777
  820TIP3   OH2 2423   5.646   2.660   2.058 -0.1379 -0.5556  0.1436
  820TIP3    H1 2424   5.584   2.648   1.987 -1.1704  1.0892  0.7145
  820TIP3    H2 2425   5.593   2.653   2.138  0.5631 -0.0110  0.6731
  821TIP3   OH2 2426   4.115   0.040   5.183 -0.1483 -0.2739  0.0611
  821TIP3    H1 2427   4.122   0.121   5.132 -3.0158 -1.6398 -2.8148
  821TIP3    H2 2428   4.029   0.046   5.225  0.6729 -0.8079  1.9433
  822TIP3   OH2 2429   3.284   3.721   3.998 -0.0530  0.2039  0.5433
  822TIP3    H1 2430   3.242   3.714   4.084  2.2258 -1.0191  1.6244
  822TIP3    H2 2431   3.346   3.649   3.995  0.4023  0.6005 -1.9092
  823TIP3   OH2 2432   5.624   4.323   1.389  0.1082  0.0571  0.5590
  823TIP3    H1 2433   5.694   4.379   1.424  0.7078 -0.5246  0.3154
  823TIP3    H2 2434   5.629   4.335   1.294  0.1549 -0.3098  0.5157
  824TIP3   OH2 2435   1.757   4.198   0.684 -0.6646  0.1816 -0.2282
  824TIP3    H1 2436   1.851   4.194   0.698 -0.2239 -0.4305 -2.8041
  824TIP3    H2 2437   1.719   4.172   0.768  1.4048  0.9610  1.0352
  825TIP3   OH2 2438   5.085   5.382   2.058  0.3631 -0.9276  0.5662
  825TIP3    H1 2439   5.038   5.433   1.991 -0.3959 -1.3145  0.8039
  825TIP3    H2 2440   5.105   5.446   2.126  1.7578 -0.3624 -0.3039
  826TIP3   OH2 2441   1.530   4.335   3.246 -0.5903  0.3521  0.4952
  826TIP3    H1 2442   1.528   4.429   3.263 -1.0297  0.0005  2.7224
  826TIP3    H2 2443   1.477   4.323   3.167 -0.5496  1.9491  0.1982
  827TIP3   OH2 2444   0.779   6.048   1.141  0.1831  0.3735  0.3013
  827TIP3    H1 2445   0.743   6.134   1.116  1.2675  0.7952  0.1496
  827TIP3    H2 2446   0.868   6.049   1.107 -0.0244 -1.1134 -0.3554
  828TIP3   OH2 2447   1.505   4.039   0.483  0.3042  0.3066  0.9335
  828TIP3    H1 2448   1.545   3.956   0.456 -0.6142  0.4843 -1.1479
  828TIP3    H2 2449   1.577   4.088   0.521  1.1014 -1.0353  1.2424
  829TIP3   OH2 2450   2.140   5.537   5.330 -0.0203 -0.2059 -0.0216
  829TIP3    H1 2451   2.055   5.515   5.293 -0.4675  1.1631  0.1418
  829TIP3    H2 2452   2.165   5.459   5.381 -0.2697 -1.3678 -1.5830
  830TIP3   OH2 2453   0.704   2.706   4.719  0.2293  0.4666  0.6022
  830TIP3    H1 2454   0.624   2.672   4.759 -0.0616 -0.6665 -0.8487
  830TIP3    H2 2455   0.678   2.731   4.630  1.3492  0.6821  0.3153
  831TIP3   OH2 2456   4.629   6.352   2.706  0.2609 -0.8278 -0.3544
  831TIP3    H1 2457   4.620   6.422   2.771 -0.9665 -2.0932  0.9007
  831TIP3    H2 2458   4.692   6.291   2.744  0.2060 -1.1448 -0.7591
  832TIP3   OH2 2459   0.113   3.588   3.243  0.0784 -0.2176 -0.6061
  832TIP3    H1 2460   0.078   3.665   3.199  2.0409  1.2120  0.1810
  832TIP3    H2 2461   0.070   3.587   3.328  1.8411  1.5604  0.3812
  833TIP3   OH2 2462   4.222   5.987   2.049 -0.1695 -0.9425 -0.3934
  833TIP3    H1 2463   4.304   5.968   2.094 -0.3055 -0.5907  0.0154
  833TIP3    H2 2464   4.248   6.035   1.970 -0.0178 -0.2415  0.0733
  834TIP3   OH2 2465   4.856   1.939   3.537  0.5821  0.4772  0.6398
  834TIP3    H1 2466   4.785   1.924   3.599 -1.1247 -1.0963 -1.4885
  834TIP3    H2 2467   4.936   1.934   3.589 -0.7159 -1.3903  2.6282
  835TIP3   OH2 2468   6.649   3.229   5.004 -0.7524  0.7728 -0.4911
  835TIP3    H1 2469   6.621   3.249   4.914  1.6788  1.7827 -1.1085
  835TIP3    H2 2470   6.723   3.171   4.993  0.5114  2.0726  0.7550
  836TIP3   OH2 2471   3.419   0.353   2.568 -0.2357 -0.1631  0.5249
  836TIP3    H1 2472   3.342   0.300   2.589  1.1734 -2.1641  0.9382
  836TIP3    H2 2473   3.494   0.295   2.585  1.4984  2.2949  2.0805
  837TIP3   OH2 2474   2.136   2.020   4.330  0.1208  0.4396 -0.0401
  837TIP3    H1 2475   2.076   1.992   4.261 -0.1279 -2.1449  1.0908
  837TIP3    H2 2476   2.219   2.035   4.285 -0.5862  1.0625 -1.1867
  838TIP3   OH2 2477   1.662   1.960   2.208 -0.0551 -0.1162 -0.1383
  838TIP3    H1 2478   1.619   1.952   2.293 -2.2862 -2.2656 -1.3468
  838TIP3    H2 2479   1.673   1.870   2.177 -0.6104  0.6082 -2.7109
  839TIP3   OH2 2480   6.568   6.353   2.452 -0.4340 -0.0530 -0.3353
  839TIP3    H1 2481   6.495   6.413   2.464 -1.1641 -0.7599 -1.1186
  839TIP3    H2 2482   6.646   6.405   2.474 -1.2027  0.4918  1.2354
  840TIP3   OH2 2483   1.392   6.412   0.658  0.4608  0.5555  0.0983
  840TIP3    H1 2484   1.394   6.324   0.619 -1.0743  0.8304 -0.6897
  840TIP3    H2 2485   1.473   6.417   0.709  0.6874 -1.2419  0.0121
  841TIP3   OH2 2486   4.651   1.131   1.425  0.0106  0.4165 -0.0822
  841TIP3    H1 2487   4.617   1.083   1.500 -0.1276  0.6206 -0.0157
  841TIP3    H2 2488   4.712   1.195   1.463  0.0364  0.4346 -0.1539
  842TIP3   OH2 2489   0.428   1.530   1.553 -0.0182  0.1169 -0.2254
  842TIP3    H1 2490   0.480   1.555   1.476 -0.3963 -1.0832 -0.8936
  842TIP3    H2 2491   0.338   1.527   1.522 -0.3219  0.7556  0.5644
  843TIP3   OH2 2492   5.225   6.591   1.882 -0.2065  0.4052  0.0750
  843TIP3    H1 2493   5.197   6.626   1.966  0.8569  2.4755 -0.3628
  843TIP3    H2 2494   5.289   6.523   1.904  0.1447  1.0002  0.9187
  844TIP3   OH2 2495   4.373   0.867   4.205 -0.7047  0.7118 -0.1793
  844TIP3    H1 2496   4.320   0.807   4.151 -0.7643 -1.6844  2.3245
  844TIP3    H2 2497   4.459   0.826   4.208 -0.9153  0.2939  2.0812
  845TIP3   OH2 2498   1.313   1.390   2.373  0.0160  0.0418  0.2521
  845TIP3    H1 2499   1.249   1.451   2.335  1.0490  1.2470  0.3717
  845TIP3    H2 2500   1.383   1.386   2.308  0.4812 -0.1347  0.7595
  846TIP3   OH2 2501   4.048   2.958   1.971  0.3382 -0.4719  0.1261
  846TIP3    H1 2502   4.005   2.893   2.026 -0.2912  0.5740  0.8961
  846TIP3    H2 2503   4.128   2.914   1.940  0.0008 -1.5507  0.7387
  847TIP3   OH2 2504   2.002   1.222   0.867  0.1981 -0.4103  0.5631
  847TIP3    H1 2505   2.081   1.253   0.822 -1.4036  2.1852 -0.7311
  847TIP3    H2 2506   1.982   1.138   0.826  0.4679  0.4826 -1.5265
  848TIP3   OH2 2507   0.429   4.882   0.491 -0.1591  0.6642 -0.0043
  848TIP3    H1 2508   0.382   4.855   0.413 -0.9534  1.7572  0.0722
  848TIP3    H2 2509   0.517   4.846   0.480 -1.3092 -2.5406  0.4811
  849TIP3   OH2 2510   4.018   3.810   5.705 -0.7459  0.4059  0.4045
  849TIP3    H1 2511   3.941   3.859   5.677 -1.3840 -1.1757 -0.7528
  849TIP3    H2 2512   4.048   3.764   5.627  0.5855 -0.0504  1.1401
  850TIP3   OH2 2513   4.730   5.943   3.243 -0.1999 -0.1601  0.1214
  850TIP3    H1 2514   4.637   5.920   3.251 -0.3854  0.9218  1.7252
  850TIP3    H2 2515   4.761   5.893   3.168 -2.1804 -0.2167 -0.7254
  851TIP3   OH2 2516   3.267   0.784   0.309  0.0816 -0.7028  0.2056
  851TIP3    H1 2517   3.277   0.699   0.267 -0.8582  0.7468 -3.2853
  851TIP3    H2 2518   3.188   0.821   0.270 -0.1185  1.3846  2.3656
  852TIP3   OH2 2519   7.145   2.393   3.883  0.1686 -0.0761 -0.5440
  852TIP3    H1 2520   7.137   2.434   3.969  0.6277  0.2784 -0.6682
  852TIP3    H2 2521   7.096   2.451   3.825  1.0534  0.4654 -0.7701
  853TIP3   OH2 2522   2.701   0.723   3.578  0.0928 -0.5449  0.3302
  853TIP3    H1 2523   2.674   0.720   3.670 -0.1249 -0.8351  0.2582
  853TIP3    H2 2524   2.685   0.813   3.551 -1.1396 -0.7945  0.1881
  854TIP3   OH2 2525   5.542   3.052   2.798  0.3336 -0.2041 -0.2915
  854TIP3    H1 2526   5.455   3.029   2.833  0.4719  0.6611  0.6637
  854TIP3    H2 2527   5.575   2.970   2.761 -1.0175 -0.4753 -0.9478
  855TIP3   OH2 2528   5.876   4.115   3.002 -0.0664  0.3832 -0.8070
  855TIP3    H1 2529   5.931   4.038   3.016  2.2382  1.7096 -2.1201
  855TIP3    H2 2530   5.825   4.095   2.924 -1.6910 -0.9042  0.4934
  856TIP3   OH2 2531   6.230   5.658   3.452 -0.2925 -0.0323  0.0960
  856TIP3    H1 2532   6.266   5.587   3.505 -0.6820 -0.2568  0.0681
  856TIP3    H2 2533   6.138   5.634   3.440 -0.7879  1.1719  1.2369
  857TIP3   OH2 2534   4.597   6.749   1.555 -0.0815  0.6819  0.0540
  857TIP3    H1 2535   4.634   6.789   1.476 -1.3202  1.4424 -0.1576
  857TIP3    H2 2536   4.664   6.686   1.583  1.0119  1.4459 -0.7603
  858TIP3   OH2 2537   4.934   4.873   0.028  0.2033 -0.4115 -0.2424
  858TIP3    H1 2538   4.856   4.823   0.054 -1.4394  1.8472 -0.4911
  858TIP3    H2 2539   5.001   4.848   0.092 -1.4257 -0.7490  1.4398
  859TIP3   OH2 2540   2.956   3.110   0.985  0.4419  0.2988  0.1338
  859TIP3    H1 2541   2.906   3.123   1.066 -1.8672  0.4624 -1.2252
  859TIP3    H2 2542   3.020   3.042   1.007  0.0079  0.4789  2.1300
  860TIP3   OH2 2543   3.200   5.746   2.890  0.3507  0.0744  0.0565
  860TIP3    H1 2544   3.272   5.754   2.826  0.9907  1.8606  0.9031
  860TIP3    H2 2545   3.121   5.767   2.840  0.7126  0.4077 -0.3862
  861TIP3   OH2 2546   0.784   4.902   2.235  0.0002  0.5888 -0.4932
  861TIP3    H1 2547   0.802   4.817   2.275 -0.7323  1.1404  1.0941
  861TIP3    H2 2548   0.694   4.923   2.261 -0.7170  0.7811 -2.8781
  862TIP3   OH2 2549   0.205   4.856   0.309 -0.0287 -0.1085 -0.4437
  862TIP3    H1 2550   0.165   4.778   0.348  0.3541 -0.5361 -0.8985
  862TIP3    H2 2551   0.180   4.852   0.217 -0.7546  0.7885 -0.2985
  863TIP3   OH2 2552   1.564   3.336   3.410 -0.3964 -0.4249 -0.2125
  863TIP3    H1 2553   1.479   3.376   3.429  0.0731  0.7426 -0.4519
  863TIP3    H2 2554   1.618   3.358   3.486  0.1942  0.3991 -0.8549
  864TIP3   OH2 2555   5.083   2.773   3.090 -0.0389  0.2018 -0.4952
  864TIP3    H1 2556   5.086   2.773   2.994  0.9360 -1.9037 -0.5279
  864TIP3    H2 2557   5.149   2.708   3.116 -0.7390  0.2450  1.5794
  865TIP3   OH2 2558   4.504   2.051   4.758 -0.0288  0.2146 -0.3043
  865TIP3    H1 2559   4.472   2.000   4.684  1.4866 -0.4907 -0.5059
  865TIP3    H2 2560   4.576   2.000   4.794  0.9553  1.7745  0.0641
  866TIP3   OH2 2561   4.229   1.030   0.987  0.2828  0.1596 -0.4797
  866TIP3    H1 2562   4.180   0.951   1.009  0.7128  0.0271  0.0197
  866TIP3    H2 2563   4.194   1.056   0.902 -0.8652  0.2525  0.0016
  867TIP3   OH2 2564   2.644   1.484   3.207 -0.3215 -0.0678  0.0443
  867TIP3    H1 2565   2.728   1.531   3.206 -0.0389 -0.4132  2.0409
  867TIP3    H2 2566   2.653   1.417   3.140  0.3190  0.9855 -0.9616
  868TIP3   OH2 2567   0.108   6.741   2.811 -0.2050 -0.0173 -0.1117
  868TIP3    H1 2568   0.067   6.777   2.732  0.6978  0.3448 -0.4305
  868TIP3    H2 2569   0.133   6.652   2.786  1.0879  0.4690 -0.6197
  869TIP3   OH2 2570   4.100   3.585   3.696  0.0890  0.0530  0.3997
  869TIP3    H1 2571   4.169   3.625   3.643  0.7243  0.1991  1.3112
  869TIP3    H2 2572   4.022   3.590   3.641  1.1316 -1.7314 -1.4231
  870TIP3   OH2 2573   3.852   2.594   0.762  0.6193  0.5145 -0.1725
  870TIP3    H1 2574   3.841   2.592   0.857 -1.0199  0.1845 -0.3526
  870TIP3    H2 2575   3.867   2.503   0.737  0.1345  0.4749 -0.3247
  871TIP3   OH2 2576   1.996   5.967   4.536 -0.5846  0.0320  0.1019
  871TIP3    H1 2577   2.034   5.941   4.620 -0.9351  2.8817  1.2425
  871TIP3    H2 2578   2.035   6.053   4.517 -0.5801 -0.4691 -2.6539
  872TIP3   OH2 2579   5.748   0.854   1.539  0.2164  0.2894 -0.1976
  872TIP3    H1 2580   5.788   0.839   1.624 -0.5986  1.8440  0.5007
  872TIP3    H2 2581   5.741   0.950   1.532 -1.4764  0.1415 -1.1545
  873TIP3   OH2 2582   5.250   4.904   1.022 -0.7496  0.4512 -0.0844
  873TIP3    H1 2583   5.335   4.864   1.007 -0.8733  0.6340 -1.3618
  873TIP3    H2 2584   5.271   4.991   1.057 -0.4215  0.3932 -0.1297
  874TIP3   OH2 2585   4.947   4.825   0.318  0.1785  0.3386  0.0413
  874TIP3    H1 2586   4.959   4.920   0.307 -0.7533  0.5197  0.4092
  874TIP3    H2 2587   4.870   4.818   0.376 -0.7689 -0.6478 -1.2736
  875TIP3   OH2 2588   4.708   3.389   2.868  0.4462  0.2725  0.5403
  875TIP3    H1 2589   4.731   3.449   2.939 -0.4706  0.6281  0.5490
  875TIP3    H2 2590   4.648   3.439   2.813  0.6926 -0.1999 -0.1714
  876TIP3   OH2 2591   6.673   5.656   4.576  0.0058 -0.0174 -0.3448
  876TIP3    H1 2592   6.722   5.635   4.656  0.3414 -1.3626 -0.8789
  876TIP3    H2 2593   6.606   5.588   4.570 -1.1173  1.0528 -0.3259
  877TIP3   OH2 2594   0.208   2.612   5.109  0.3677 -0.0877  0.7293
  877TIP3    H1 2595   0.162   2.607   5.025  1.3164 -0.6517  0.2252
  877TIP3    H2 2596   0.260   2.531   5.112  1.4862  0.6229  1.1764
  878TIP3   OH2 2597   5.620   4.228   2.794  0.1452 -0.0608  0.0020
  878TIP3    H1 2598   5.552   4.232   2.727  0.1447  0.4514  0.0302
  878TIP3    H2 2599   5.688   4.172   2.756 -0.4415 -0.8713  0.1161
  879TIP3   OH2 2600   5.495   4.117   5.425  0.4391  0.0900  0.1119
  879TIP3    H1 2601   5.549   4.057   5.375  1.6079  1.6873 -0.6524
  879TIP3    H2 2602   5.515   4.098   5.516 -1.9615 -3.0807  0.1399
  880TIP3   OH2 2603   0.966   5.256   5.390  0.0559  0.4258  0.4148
  880TIP3    H1 2604   1.055   5.257   5.354 -0.4625  0.9469 -0.9001
  880TIP3    H2 2605   0.945   5.349   5.403 -0.8606  0.3924 -0.7542
  881TIP3   OH2 2606   3.174   3.449   0.362 -0.1391 -0.2931  0.6701
  881TIP3    H1 2607   3.215   3.453   0.275 -0.3818  1.2329  0.6071
  881TIP3    H2 2608   3.238   3.489   0.421 -0.8906  0.7497  0.8107
  882TIP3   OH2 2609   0.475   3.780   5.556  0.1305  0.0870  1.0121
  882TIP3    H1 2610   0.536   3.848   5.583  4.3537 -2.2426 -1.5244
  882TIP3    H2 2611   0.529   3.701   5.549 -2.9384 -2.0452 -2.3590
  883TIP3   OH2 2612   7.129   1.404   5.801  0.0983  0.1817 -0.1800
  883TIP3    H1 2613   7.212   1.357   5.812 -0.8006 -1.1262  1.5796
  883TIP3    H2 2614   7.105   1.390   5.709  1.5959  0.2435 -0.6075
  884TIP3   OH2 2615   6.387   1.644   5.242  0.0810  0.2457  0.4327
  884TIP3    H1 2616   6.325   1.584   5.201  0.6915  0.4903 -0.9011
  884TIP3    H2 2617   6.425   1.693   5.169  0.9374  0.9653  1.3326
  885TIP3   OH2 2618   1.082   2.132   2.109  0.0242 -0.4640  0.3983
  885TIP3    H1 2619   1.100   2.220   2.143  1.8663 -0.6058 -0.1105
  885TIP3    H2 2620   1.002   2.142   2.058  0.6119  1.0988 -0.2822
  886TIP3   OH2 2621   6.779   1.607   1.677  0.0435  0.2410  0.2638
  886TIP3    H1 2622   6.739   1.584   1.593  1.0997  0.6953 -0.3831
  886TIP3    H2 2623   6.849   1.543   1.688 -0.1775  0.0966  0.8826
  887TIP3   OH2 2624   0.614   2.599   2.209 -0.2073 -0.0845  0.2627
  887TIP3    H1 2625   0.698   2.626   2.171 -0.6214 -0.0735 -0.6678
  887TIP3    H2 2626   0.548   2.647   2.159 -0.9318 -2.2238 -0.9466
  888TIP3   OH2 2627   5.862   5.999   3.707  0.3386 -0.0447  0.4034
  888TIP3    H1 2628   5.922   5.933   3.672  0.6518 -0.0790  0.9876
  888TIP3    H2 2629   5.821   6.038   3.630  0.1744 -0.8994  0.0486
  889TIP3   OH2 2630   0.573   5.215   0.095  0.5581 -0.5901 -0.1006
  889TIP3    H1 2631   0.608   5.207   0.006 -0.0575  1.7937 -0.6419
  889TIP3    H2 2632   0.484   5.248   0.083  0.5468  0.0031  1.4017
  890TIP3   OH2 2633   5.839   2.103   1.600 -0.0274  0.7111  0.1073
  890TIP3    H1 2634   5.758   2.139   1.563 -0.3857 -0.5127 -0.3885
  890TIP3    H2 2635   5.833   2.122   1.694 -0.5288  1.2960 -0.0374
  891TIP3   OH2 2636   0.620   5.848   1.425  0.0832  0.2864 -0.5020
  891TIP3    H1 2637   0.643   5.890   1.342  2.3174 -0.8320 -0.5324
  891TIP3    H2 2638   0.673   5.768   1.426 -1.4176 -0.7486  1.1105
  892TIP3   OH2 2639   4.787   6.117   4.375  0.3194  0.0980 -0.2310
  892TIP3    H1 2640   4.822   6.176   4.441  0.0060 -0.6405  0.6140
  892TIP3    H2 2641   4.864   6.072   4.340  0.4956  0.5524 -0.4207
  893TIP3   OH2 2642   6.705   3.318   0.110  0.3119 -0.2194  0.2486
  893TIP3    H1 2643   6.691   3.355   0.023 -0.1782 -0.1449  0.3576
  893TIP3    H2 2644   6.696   3.223   0.097  1.0803 -0.2752  0.0628
  894TIP3   OH2 2645   6.717   5.480   2.321 -0.0001 -0.0064  0.7041
  894TIP3    H1 2646   6.662   5.420   2.270 -0.2097  1.2253 -0.6031
  894TIP3    H2 2647   6.655   5.543   2.358  0.2372 -0.4602  1.9056
  895TIP3   OH2 2648   5.762   5.773   1.100  0.0375  0.0240  0.4979
  895TIP3    H1 2649   5.833   5.770   1.037  0.1062 -1.2476  0.6104
  895TIP3    H2 2650   5.698   5.833   1.062  0.3481 -0.2606 -0.4912
  896TIP3   OH2 2651   2.787   1.718   5.472  0.0752 -0.9016 -0.1470
  896TIP3    H1 2652   2.809   1.685   5.559  1.0778 -0.3523 -0.1843
  896TIP3    H2 2653   2.860   1.775   5.448 -1.0672  0.4294 -0.5658
  897TIP3   OH2 2654   0.885   1.869   0.218 -0.1054 -0.0019 -0.0826
  897TIP3    H1 2655   0.814   1.869   0.283  0.3626 -0.3892  0.4444
  897TIP3    H2 2656   0.848   1.913   0.142 -1.4758 -1.6677 -0.4347
  898TIP3   OH2 2657   6.264   3.111   3.165  0.2413  0.3013  0.3027
  898TIP3    H1 2658   6.318   3.066   3.230 -0.3246 -0.3531  0.3285
  898TIP3    H2 2659   6.327   3.151   3.105  0.7634 -0.4793  0.3101
  899TIP3   OH2 2660   3.016   0.679   2.012 -0.0661  0.0503  0.3751
  899TIP3    H1 2661   3.023   0.691   2.107 -0.4426 -0.6261  0.4955
  899TIP3    H2 2662   2.965   0.598   2.002  0.0885  0.0437 -0.4023
  900TIP3   OH2 2663   5.299   1.340   2.013  0.2723 -0.0791 -0.5031
  900TIP3    H1 2664   5.383   1.295   2.021 -0.0937 -0.5254  1.0489
  900TIP3    H2 2665   5.235   1.269   2.007 -0.1117  0.2594 -0.4139
  901TIP3   OH2 2666   0.904   0.919   1.476 -0.7718  0.2912 -0.4304
  901TIP3    H1 2667   0.816   0.941   1.508 -0.4180  0.3957  0.5191
  901TIP3    H2 2668   0.920   0.980   1.404  0.1506  3.2435  2.0637
  902TIP3   OH2 2669   2.353   1.506   4.795  0.1698 -0.3999 -0.4183
  902TIP3    H1 2670   2.432   1.560   4.800 -0.2726  0.1231  1.4279
  902TIP3    H2 2671   2.347   1.462   4.880 -2.4813  0.9887  0.2243
  903TIP3   OH2 2672   7.170   5.674   4.475 -0.2850 -0.5396  0.8508
  903TIP3    H1 2673   7.174   5.711   4.563  1.9134  1.3762  0.0808
  903TIP3    H2 2674   7.207   5.743   4.419  0.8570 -2.6619 -1.1924
  904TIP3   OH2 2675   1.036   5.681   0.260 -0.1894  0.7648  0.1724
  904TIP3    H1 2676   0.944   5.658   0.248 -0.0687  0.9476 -1.2694
  904TIP3    H2 2677   1.034   5.755   0.321 -1.0395  1.1296 -0.2752
  905TIP3   OH2 2678   4.178   0.085   0.285  0.0387  0.0992  0.1185
  905TIP3    H1 2679   4.096   0.130   0.266  0.2623  1.1117  1.4359
  905TIP3    H2 2680   4.152   0.006   0.332 -0.1983  0.3250  0.3713
  906TIP3   OH2 2681   3.905   3.063   2.430 -0.2807  0.2395  0.8636
  906TIP3    H1 2682   3.994   3.062   2.395 -0.4202 -0.3662  0.4935
  906TIP3    H2 2683   3.860   2.993   2.382 -0.4477 -0.7308  2.3551
  907TIP3   OH2 2684   3.105   3.875   1.542  0.0317 -0.5597 -0.1976
  907TIP3    H1 2685   3.024   3.849   1.497 -0.2288  0.4963 -0.3654
  907TIP3    H2 2686   3.097   3.970   1.552  0.3584 -0.6802  1.5500
  908TIP3   OH2 2687   4.623   2.930   1.430 -0.1330  0.1680  0.2301
  908TIP3    H1 2688   4.681   2.994   1.389 -0.4879  0.3252 -0.0303
  908TIP3    H2 2689   4.664   2.845   1.413 -0.3241  0.2203 -0.5377
  909TIP3   OH2 2690   5.312   1.048   4.269  0.4770  0.6672 -0.4278
  909TIP3    H1 2691   5.323   1.144   4.273 -2.5106  1.0547  1.2225
  909TIP3    H2 2692   5.371   1.015   4.336 -0.4670  1.6549  0.9541
  910TIP3   OH2 2693   6.142   3.313   3.401  0.3842 -0.0289  0.1132
  910TIP3    H1 2694   6.131   3.278   3.489  2.4595 -1.1911 -0.0284
  910TIP3    H2 2695   6.228   3.283   3.373 -0.4817 -0.3252 -2.6029
  911TIP3   OH2 2696   4.989   1.474   0.568  0.4167  0.4603 -0.4895
  911TIP3    H1 2697   5.059   1.540   0.576  0.3114  0.4049  1.3001
  911TIP3    H2 2698   5.032   1.391   0.589  0.3383  0.0409 -1.8453
  912TIP3   OH2 2699   2.523   6.627   3.358 -0.0109  0.0774 -0.1165
  912TIP3    H1 2700   2.481   6.541   3.364 -1.9093  0.7896 -1.7516
  912TIP3    H2 2701   2.608   6.610   3.317 -0.2930 -1.0564 -0.2478
  913TIP3   OH2 2702   3.475   1.310   4.783 -0.1125  0.2383 -0.3658
  913TIP3    H1 2703   3.411   1.239   4.775 -0.9489  1.0378 -0.9727
  913TIP3    H2 2704   3.532   1.299   4.707 -1.1621  1.0922 -1.3017
  914TIP3   OH2 2705   0.728   5.276   5.579  0.6631 -0.0025  0.1614
  914TIP3    H1 2706   0.722   5.191   5.622  1.4678  0.6159  1.5593
  914TIP3    H2 2707   0.795   5.264   5.511  0.3753 -0.6238 -0.0179
  915TIP3   OH2 2708   2.075   2.937   2.727  0.2391  1.1391 -0.2587
  915TIP3    H1 2709   2.018   3.013   2.735 -0.3952  0.6661 -0.2065
  915TIP3    H2 2710   2.054   2.883   2.802 -0.5167  0.1289 -1.1663
  916TIP3   OH2 2711   3.313   3.916   5.255 -0.4856  0.2046  0.1727
  916TIP3    H1 2712   3.312   3.821   5.243 -1.7946  0.2585 -0.3044
  916TIP3    H2 2713   3.344   3.929   5.344  0.5982 -0.6249 -0.0627
  917TIP3   OH2 2714   4.546   2.491   1.787 -0.0792  0.5170  0.0901
  917TIP3    H1 2715   4.599   2.446   1.853 -0.3511  1.3647  0.9106
  917TIP3    H2 2716   4.591   2.475   1.704  0.6821  0.0595  0.5849
  918TIP3   OH2 2717   2.651   3.191   4.231 -0.1259 -0.0776 -0.1072
  918TIP3    H1 2718   2.636   3.111   4.180 -0.9183  0.5736 -0.9492
  918TIP3    H2 2719   2.575   3.246   4.210 -0.2342  0.4037  1.4445
  919TIP3   OH2 2720   1.724   3.552   1.322  0.2557 -0.5546 -0.4886
  919TIP3    H1 2721   1.732   3.471   1.372  0.0072 -1.0723 -1.2654
  919TIP3    H2 2722   1.717   3.621   1.388 -0.3810 -1.2494  0.1831
  920TIP3   OH2 2723   3.030   0.411   0.538 -0.0855  0.2021  0.0180
  920TIP3    H1 2724   3.031   0.326   0.492 -2.3982  0.4309 -0.5762
  920TIP3    H2 2725   3.120   0.423   0.566  0.2709 -2.6339  0.4527
  921TIP3   OH2 2726   0.722   6.822   1.481  0.3569 -0.2649 -0.0849
  921TIP3    H1 2727   0.719   6.751   1.545 -0.9606 -1.3250 -1.2314
  921TIP3    H2 2728   0.809   6.816   1.443  0.4009 -1.0500  0.1119
  922TIP3   OH2 2729   5.288   5.338   5.765 -0.3550  0.5300 -0.1755
  922TIP3    H1 2730   5.347   5.274   5.726  0.5111  0.6130  0.9653
  922TIP3    H2 2731   5.341   5.417   5.775 -0.4714  0.4484  1.3444
  923TIP3   OH2 2732   0.626   3.163   1.355  0.0579  0.1394  0.2097
  923TIP3    H1 2733   0.583   3.195   1.276  1.3500  0.5501 -0.3700
  923TIP3    H2 2734   0.602   3.071   1.360  1.2101 -0.3308 -1.6003
  924TIP3   OH2 2735   1.647   0.429   1.320 -0.2794 -0.5477 -0.1677
  924TIP3    H1 2736   1.720   0.374   1.349 -0.3532 -0.8054 -0.4619
  924TIP3    H2 2737   1.599   0.374   1.258  0.5709  0.4277 -1.7289
  925TIP3   OH2 2738   0.366   4.217   4.737 -0.2585  0.3548 -0.0075
  925TIP3    H1 2739   0.459   4.212   4.716 -0.3839  0.8405 -0.6766
  925TIP3    H2 2740   0.331   4.132   4.711 -0.3116  0.7553 -1.3099
  926TIP3   OH2 2741   0.322   5.829   2.617  0.1879 -0.6304  0.3186
  926TIP3    H1 2742   0.297   5.845   2.526 -0.3468  0.4937  0.6472
  926TIP3    H2 2743   0.354   5.739   2.617 -0.2899 -0.8251 -0.8821
  927TIP3   OH2 2744   5.759   1.780   0.765 -0.4266 -0.3792 -0.6306
  927TIP3    H1 2745   5.694   1.818   0.823  0.6739 -0.1400  0.4895
  927TIP3    H2 2746   5.829   1.845   0.761 -0.8640  0.0385 -3.0167
  928TIP3   OH2 2747   2.041   4.260   3.461  0.0777 -0.3495  0.1619
  928TIP3    H1 2748   1.958   4.213   3.472  0.9549 -2.2212 -0.8366
  928TIP3    H2 2749   2.083   4.254   3.547 -0.1427 -0.7315  0.2459
  929TIP3   OH2 2750   0.212   5.677   1.073 -0.0748 -0.3368 -0.1177
  929TIP3    H1 2751   0.141   5.722   1.118  1.0567  0.9896  0.4233
  929TIP3    H2 2752   0.241   5.740   1.006  0.5888 -0.8571 -0.3316
  930TIP3   OH2 2753   6.712   4.210   0.645 -0.6481 -0.6384 -0.5990
  930TIP3    H1 2754   6.794   4.166   0.664 -0.3075 -0.7816 -2.2603
  930TIP3    H2 2755   6.683   4.245   0.730  0.9438 -0.8613  0.0683
  931TIP3   OH2 2756   6.663   0.541   4.468  0.0868 -0.5708 -0.1782
  931TIP3    H1 2757   6.636   0.464   4.517 -0.1271 -1.1636 -1.1832
  931TIP3    H2 2758   6.759   0.541   4.474  0.2350 -2.0300 -1.7274
  932TIP3   OH2 2759   4.298   5.039   1.202 -0.2918  0.5484 -0.5371
  932TIP3    H1 2760   4.204   5.055   1.214 -0.2992  2.1900 -2.2775
  932TIP3    H2 2761   4.318   5.081   1.118  1.8600 -0.4156 -0.5529
  933TIP3   OH2 2762   5.588   0.947   0.038 -0.4337 -0.5846  0.7322
  933TIP3    H1 2763   5.579   1.032   0.083  1.2482  1.1617 -1.9115
  933TIP3    H2 2764   5.682   0.939   0.022 -0.8717 -1.2715 -2.0061
  934TIP3   OH2 2765   6.186   0.775   4.265 -0.1024  0.1776  0.1304
  934TIP3    H1 2766   6.144   0.696   4.298 -0.5044  0.7963  1.1528
  934TIP3    H2 2767   6.148   0.787   4.178 -0.9444 -0.0999  0.4448
  935TIP3   OH2 2768   5.024   2.285   0.345  0.1710  0.3658 -0.0433
  935TIP3    H1 2769   5.089   2.344   0.305 -0.7796  2.1861  0.9384
  935TIP3    H2 2770   5.053   2.197   0.320  1.4433  1.2383 -1.9374
  936TIP3   OH2 2771   5.970   1.127   4.354  0.7530  0.1522  0.2825
  936TIP3    H1 2772   5.901   1.145   4.418 -0.7835  0.8103 -1.4530
  936TIP3    H2 2773   6.004   1.041   4.378 -1.0504 -0.4311  0.9106
  937TIP3   OH2 2774   1.064   6.783   4.455  0.1254 -0.3341  0.1961
  937TIP3    H1 2775   1.059   6.716   4.523  0.7678 -0.6491 -0.0647
  937TIP3    H2 2776   1.058   6.734   4.373  0.3551 -0.0496  0.0078
  938TIP3   OH2 2777   4.707   4.681   3.831  0.1141 -0.7020  0.1375
  938TIP3    H1 2778   4.696   4.767   3.874  1.0653 -1.0842  1.2079
  938TIP3    H2 2779   4.802   4.667   3.830  0.0907 -0.9153 -1.7494
  939TIP3   OH2 2780   4.222   0.474   4.650 -0.2181 -0.7066  0.0686
  939TIP3    H1 2781   4.259   0.554   4.613 -0.0100 -0.4648  0.7821
  939TIP3    H2 2782   4.287   0.407   4.631  0.7751 -0.2287  1.5760
  940TIP3   OH2 2783   0.883   4.121   0.503 -0.0941  0.1135 -0.2248
  940TIP3    H1 2784   0.920   4.202   0.469  1.9878 -0.0214  1.4987
  940TIP3    H2 2785   0.958   4.063   0.514 -1.1686 -1.1396  0.9694
  941TIP3   OH2 2786   6.963   6.125   2.292 -0.5665 -0.2469 -0.0998
  941TIP3    H1 2787   6.950   6.158   2.380  0.9637  0.6440 -0.1828
  941TIP3    H2 2788   6.878   6.136   2.249 -0.4703  2.3970  0.2688
  942TIP3   OH2 2789   5.134   6.170   4.406 -0.7577 -0.0578  0.1563
  942TIP3    H1 2790   5.229   6.162   4.408 -0.6895  0.8174  1.0871
  942TIP3    H2 2791   5.103   6.095   4.456 -0.5828 -0.5902 -0.5211
  943TIP3   OH2 2792   0.764   3.249   5.706  0.4391 -1.0651 -0.4357
  943TIP3    H1 2793   0.765   3.284   5.617  1.6543 -0.3298 -0.1592
  943TIP3    H2 2794   0.680   3.278   5.742  1.0030  0.8797 -0.5203
  944TIP3   OH2 2795   7.053   2.698   3.118  0.0689  0.2259  0.0389
  944TIP3    H1 2796   7.137   2.726   3.081  0.2203  1.1545  1.0282
  944TIP3    H2 2797   7.012   2.646   3.049  0.8588  0.9096 -0.9715
  945TIP3   OH2 2798   5.742   0.887   5.306  0.3366 -0.0490 -0.1090
  945TIP3    H1 2799   5.728   0.975   5.270  0.4968  0.6205  1.3953
  945TIP3    H2 2800   5.678   0.880   5.377 -0.0602 -1.3862 -0.5644
  946TIP3   OH2 2801   6.062   2.505   5.722  0.1712  0.3118  0.0022
  946TIP3    H1 2802   6.019   2.480   5.640  0.5391 -0.5983  0.0712
  946TIP3    H2 2803   6.066   2.424   5.772 -0.1024  0.8757  0.9553
  947TIP3   OH2 2804   5.037   5.036   5.330  0.0079 -0.7300 -0.5694
  947TIP3    H1 2805   5.055   5.107   5.269 -0.7338 -0.0001  0.0348
  947TIP3    H2 2806   5.123   5.001   5.352  0.4258  0.2862 -0.5277
  948TIP3   OH2 2807   6.190   1.257   3.391 -0.4499  0.8506  0.5364
  948TIP3    H1 2808   6.256   1.202   3.434  0.9768  0.6062 -1.7953
  948TIP3    H2 2809   6.111   1.203   3.390 -0.2156  0.4574  1.8525
  949TIP3   OH2 2810   4.201   5.595   2.843 -0.5065  0.2516 -0.4811
  949TIP3    H1 2811   4.295   5.579   2.837 -0.3445  1.1367 -0.4904
  949TIP3    H2 2812   4.194   5.690   2.853 -1.4018  0.1996 -0.5520
  950TIP3   OH2 2813   0.480   0.611   3.862 -0.0768 -0.3052 -0.0430
  950TIP3    H1 2814   0.540   0.574   3.797  0.2856  0.2306 -0.0242
  950TIP3    H2 2815   0.443   0.535   3.907  0.9035 -0.6476  0.2217
  951TIP3   OH2 2816   6.768   0.974   3.182  0.4852 -0.5127 -0.0423
  951TIP3    H1 2817   6.846   0.992   3.130  0.0841  1.8347  0.0328
  951TIP3    H2 2818   6.785   1.018   3.266 -1.0547  0.4570 -0.1989
  952TIP3   OH2 2819   5.009   5.764   0.283 -0.0444 -0.4482  0.6298
  952TIP3    H1 2820   5.066   5.805   0.218  0.3283 -1.9771 -0.0630
  952TIP3    H2 2821   4.945   5.715   0.231 -1.1081  0.0632  1.4158
  953TIP3   OH2 2822   6.842   3.254   2.532  0.3953  0.3072  0.1264
  953TIP3    H1 2823   6.925   3.300   2.549  1.4418 -2.0121  1.7554
  953TIP3    H2 2824   6.867   3.162   2.525 -2.0076 -0.3998  0.1253
  954TIP3   OH2 2825   1.313   4.856   0.092  0.0174 -0.1026 -0.4198
  954TIP3    H1 2826   1.225   4.836   0.125 -0.4639 -0.1841 -1.6811
  954TIP3    H2 2827   1.308   4.948   0.067  0.4142 -0.0026 -0.1331
  955TIP3   OH2 2828   5.538   1.375   2.470  0.8593  0.0313 -0.2119
  955TIP3    H1 2829   5.591   1.391   2.548  1.7144 -1.0249 -0.5470
  955TIP3    H2 2830   5.456   1.338   2.504  0.8485  0.4673  0.2356
  956TIP3   OH2 2831   1.930   1.607   2.754 -0.3823  0.2608 -0.2263
  956TIP3    H1 2832   1.842   1.571   2.766 -0.5146  0.9930  1.2619
  956TIP3    H2 2833   1.924   1.695   2.790  1.2298 -0.0504  0.8795
  957TIP3   OH2 2834   5.730   2.350   0.356 -0.1882 -0.5342  0.0942
  957TIP3    H1 2835   5.744   2.430   0.306  0.1854 -0.3390  0.5004
  957TIP3    H2 2836   5.636   2.349   0.375 -0.5285 -1.1465 -1.4909
  958TIP3   OH2 2837   6.509   6.226   2.756 -0.2203 -0.5316  0.3338
  958TIP3    H1 2838   6.498   6.320   2.770 -0.0126 -0.5943  0.9242
  958TIP3    H2 2839   6.464   6.185   2.830  0.1385 -0.8871  0.3545
  959TIP3   OH2 2840   6.895   0.169   1.138  0.3308 -0.4915 -0.1548
  959TIP3    H1 2841   6.898   0.240   1.074 -2.0440  0.2572  0.4641
  959TIP3    H2 2842   6.810   0.179   1.180  1.4623 -1.4743  2.5417
  960TIP3   OH2 2843   0.671   4.333   2.217 -0.1304  0.3588  0.1966
  960TIP3    H1 2844   0.650   4.240   2.206  2.1007 -0.3386  1.0591
  960TIP3    H2 2845   0.605   4.379   2.166 -2.0222 -1.6275  0.6808
  961TIP3   OH2 2846   0.439   4.733   3.806 -0.6138  0.1156  0.0773
  961TIP3    H1 2847   0.399   4.649   3.828 -0.1193  0.7196  3.9879
  961TIP3    H2 2848   0.510   4.711   3.747 -1.2141 -2.0607  0.0765
  962TIP3   OH2 2849   0.598   0.128   1.214 -1.0412  0.5309  0.4947
  962TIP3    H1 2850   0.675   0.107   1.266 -1.0726 -0.0861  0.2986
  962TIP3    H2 2851   0.604   0.222   1.199  0.7756  0.2137 -1.2442
  963TIP3   OH2 2852   2.382   5.491   2.007 -0.2443 -0.6162  0.0734
  963TIP3    H1 2853   2.456   5.484   1.948 -1.2576 -0.0709 -1.3128
  963TIP3    H2 2854   2.388   5.579   2.045 -0.1147 -0.6164  0.0506
  964TIP3   OH2 2855   3.696   6.285   3.410  0.4709  0.4966 -0.5568
  964TIP3    H1 2856   3.772   6.278   3.352  1.6719  1.1074  0.8725
  964TIP3    H2 2857   3.690   6.378   3.431  1.5926  0.0506  2.1699
  965TIP3   OH2 2858   6.505   1.437   2.263 -0.2553  0.1308  0.1547
  965TIP3    H1 2859   6.572   1.483   2.212 -1.1082  1.7850  0.4433
  965TIP3    H2 2860   6.492   1.492   2.340 -0.4834 -1.2527  1.1441
  966TIP3   OH2 2861   2.133   2.369   2.246  0.5369 -0.1992  0.1644
  966TIP3    H1 2862   2.135   2.290   2.192 -1.9682 -0.7330  0.7343
  966TIP3    H2 2863   2.213   2.364   2.299  1.0497 -1.6948 -0.6948
  967TIP3   OH2 2864   3.817   1.197   0.879 -0.1033 -0.7183 -0.1467
  967TIP3    H1 2865   3.723   1.210   0.869 -0.0112 -0.0985 -0.2154
  967TIP3    H2 2866   3.835   1.216   0.971  0.2335  1.0001 -0.5296
  968TIP3   OH2 2867   6.584   3.419   2.510 -0.2979 -0.4795  0.9091
  968TIP3    H1 2868   6.650   3.349   2.511 -0.0923 -0.3007  0.0042
  968TIP3    H2 2869   6.592   3.459   2.424  1.5181  2.5261  2.3359
  969TIP3   OH2 2870   6.934   6.606   2.016 -0.0715 -0.0237 -0.2921
  969TIP3    H1 2871   6.863   6.644   2.068  0.2293 -1.1611  1.0196
  969TIP3    H2 2872   6.994   6.678   2.001 -0.5548  0.5042  0.2720
  970TIP3   OH2 2873   1.173   5.465   1.390 -0.0287  0.8783  0.3194
  970TIP3    H1 2874   1.081   5.437   1.393  0.5583 -1.1862  0.7200
  970TIP3    H2 2875   1.186   5.490   1.299 -0.4436 -1.0222 -0.3290
  971TIP3   OH2 2876   2.811   2.687   0.389  0.2765 -0.5232 -0.0048
  971TIP3    H1 2877   2.811   2.757   0.454 -0.6535 -0.6149  0.1072
  971TIP3    H2 2878   2.895   2.643   0.401  0.5267  0.0692  0.4722
  972TIP3   OH2 2879   0.809   1.557   5.195 -0.4139 -0.2622  0.5680
  972TIP3    H1 2880   0.740   1.556   5.129  1.9302 -0.3607 -2.0955
  972TIP3    H2 2881   0.811   1.468   5.229  1.6171 -1.9050 -3.1932
  973TIP3   OH2 2882   4.757   2.209   0.334  0.2028 -0.3453  0.5309
  973TIP3    H1 2883   4.850   2.232   0.338  0.4324 -1.3853  2.3464
  973TIP3    H2 2884   4.713   2.277   0.386 -0.1028  0.2198 -0.4306
  974TIP3   OH2 2885   6.853   5.950   3.922  0.0602 -0.2628 -0.1177
  974TIP3    H1 2886   6.771   5.940   3.873  0.4824  0.9090 -1.1095
  974TIP3    H2 2887   6.828   5.939   4.013 -1.9038  3.5063 -0.0231
  975TIP3   OH2 2888   0.566   4.808   2.756  0.1126  0.1294 -0.4528
  975TIP3    H1 2889   0.479   4.820   2.794  0.0307 -0.6232 -0.3829
  975TIP3    H2 2890   0.554   4.738   2.692  0.4709  0.6828 -1.1286
  976TIP3   OH2 2891   6.468   5.652   3.882  0.3350 -0.2424 -0.7350
  976TIP3    H1 2892   6.408   5.594   3.836  1.2729 -1.7473 -0.1602
  976TIP3    H2 2893   6.529   5.593   3.926  0.1877  1.1541  1.4803
  977TIP3   OH2 2894   6.319   3.507   4.188 -0.1203 -0.1601 -0.1356
  977TIP3    H1 2895   6.278   3.562   4.254  0.2850  0.5403 -0.4622
  977TIP3    H2 2896   6.272   3.528   4.107 -0.3531 -0.7261 -0.1517
  978TIP3   OH2 2897   2.285   3.043   2.129  0.0711  0.4142 -0.6024
  978TIP3    H1 2898   2.277   3.105   2.202  0.1223 -0.3426  0.0647
  978TIP3    H2 2899   2.332   3.092   2.061 -0.0906  1.1762 -0.1749
  979TIP3   OH2 2900   1.808   3.407   2.621 -0.2075  0.1537  0.2569
  979TIP3    H1 2901   1.777   3.320   2.647 -0.5935  0.4554  0.8302
  979TIP3    H2 2902   1.810   3.457   2.703 -0.1671  0.7379 -0.0963
  980TIP3   OH2 2903   1.311   4.833   1.559 -0.0730 -0.1210 -0.0569
  980TIP3    H1 2904   1.247   4.771   1.594 -0.7490  0.1902 -0.7012
  980TIP3    H2 2905   1.281   4.849   1.469  2.2043 -1.7648 -1.2364
  981TIP3   OH2 2906   2.058   3.505   2.469 -0.2200  0.0713  0.4027
  981TIP3    H1 2907   1.964   3.524   2.474  0.1022  2.5618 -0.9698
  981TIP3    H2 2908   2.099   3.577   2.516  1.0421 -1.1310  1.2083
  982TIP3   OH2 2909   6.048   0.408   0.536  0.2735  0.2417  0.2813
  982TIP3    H1 2910   6.143   0.421   0.534  0.2918  0.0188 -1.2532
  982TIP3    H2 2911   6.012   0.496   0.545  0.6170  0.2945  1.2713
  983TIP3   OH2 2912   0.579   0.650   3.045  0.3581 -0.1992  0.6364
  983TIP3    H1 2913   0.551   0.591   3.115 -2.6258  0.4778  0.1544
  983TIP3    H2 2914   0.603   0.731   3.090 -2.4588  0.5638  0.9656
  984TIP3   OH2 2915   5.616   0.346   4.787 -0.4924 -0.1934 -0.0825
  984TIP3    H1 2916   5.534   0.338   4.835 -0.6729  2.1854  0.0909
  984TIP3    H2 2917   5.683   0.315   4.848 -0.8958  1.2634  1.1651
  985TIP3   OH2 2918   5.705   1.218   2.747  0.2659  0.3329 -0.1194
  985TIP3    H1 2919   5.701   1.141   2.804 -0.9468 -1.1235 -2.0079
  985TIP3    H2 2920   5.633   1.274   2.776 -0.1924 -0.2860 -0.0304
  986TIP3   OH2 2921   0.407   6.094   5.266  0.6871 -0.1343 -0.0002
  986TIP3    H1 2922   0.451   6.078   5.182  0.7709 -0.0465  0.0256
  986TIP3    H2 2923   0.406   6.190   5.273  0.6575 -0.1417  0.0863
  987TIP3   OH2 2924   0.182   5.463   4.465  0.1587 -0.1008 -0.1605
  987TIP3    H1 2925   0.164   5.550   4.431 -0.9216 -0.7451 -1.3366
  987TIP3    H2 2926   0.117   5.407   4.423  1.0833 -1.5433  0.2419
  988TIP3   OH2 2927   6.764   3.470   0.920  0.3495 -0.0258 -0.7694
  988TIP3    H1 2928   6.784   3.396   0.978 -0.6375  0.1580 -0.1644
  988TIP3    H2 2929   6.691   3.515   0.963  0.3151  0.7564 -1.6115
  989TIP3   OH2 2930   6.545   2.721   2.635 -0.5349  0.1763 -0.1107
  989TIP3    H1 2931   6.475   2.786   2.634 -1.0787 -0.1904  3.1847
  989TIP3    H2 2932   6.509   2.648   2.685  1.4305 -0.9829 -0.2871
  990TIP3   OH2 2933   3.042   3.715   5.476 -0.7071  0.9350  0.3218
  990TIP3    H1 2934   3.006   3.799   5.504 -1.2986  0.4703  1.0210
  990TIP3    H2 2935   3.089   3.683   5.554 -0.1559  0.7883 -0.0639
  991TIP3   OH2 2936   5.974   1.124   0.692  0.4179 -0.3650 -0.0097
  991TIP3    H1 2937   5.915   1.184   0.737  0.7787 -0.0548  0.0639
  991TIP3    H2 2938   5.942   1.121   0.602  0.2019 -0.3187  0.0653
  992TIP3   OH2 2939   6.789   1.890   2.098  0.2762 -0.5038  0.2048
  992TIP3    H1 2940   6.731   1.840   2.041  0.0878 -0.8584  0.6944
  992TIP3    H2 2941   6.772   1.982   2.076 -0.4623 -0.6052  0.3298
  993TIP3   OH2 2942   3.177   1.186   4.443 -0.4052 -0.4211  0.2019
  993TIP3    H1 2943   3.137   1.270   4.422 -1.1506 -0.8957 -0.3322
  993TIP3    H2 2944   3.106   1.123   4.435  0.6063 -1.4227 -1.7002
  994TIP3   OH2 2945   5.687   1.171   1.236 -0.2272 -0.6365  0.2820
  994TIP3    H1 2946   5.596   1.164   1.207 -0.2434  0.6688 -0.0330
  994TIP3    H2 2947   5.739   1.164   1.157 -0.1478  0.4052  0.2351
  995TIP3   OH2 2948   4.964   6.475   4.124  0.3451 -0.3159 -0.0542
  995TIP3    H1 2949   5.058   6.457   4.122  0.3137 -0.4497 -0.7398
  995TIP3    H2 2950   4.936   6.462   4.033 -0.2183  0.3354  0.0204
  996TIP3   OH2 2951   6.676   0.270   1.606 -0.1366 -0.2551  0.0553
  996TIP3    H1 2952   6.622   0.280   1.684  0.1633  0.3838  0.1851
  996TIP3    H2 2953   6.756   0.319   1.625 -0.7242  1.3189 -1.2648
  997TIP3   OH2 2954   4.944   0.557   0.593  0.4884 -0.0016  0.1497
  997TIP3    H1 2955   4.939   0.616   0.668 -0.4805  1.2167 -0.8212
  997TIP3    H2 2956   5.035   0.528   0.590  0.3072 -1.0469  2.4683
  998TIP3   OH2 2957   0.806   1.290   4.969  0.4138 -0.4567  0.7958
  998TIP3    H1 2958   0.794   1.206   5.013 -0.8420 -1.1890 -0.8547
  998TIP3    H2 2959   0.723   1.336   4.981  0.2009 -0.4957 -0.4253
  999TIP3   OH2 2960   0.267   6.755   0.276 -0.0891  0.5892  0.0186
  999TIP3    H1 2961   0.299   6.845   0.280 -1.0881  0.9020  1.9811
  999TIP3    H2 2962   0.343   6.701   0.297  0.0591  1.1098  0.8577
 1000TIP3   OH2 2963   0.928   6.392   2.993  0.2084 -0.2405  0.3118
 1000TIP3    H1 2964   1.006   6.377   3.046  0.0766  0.2687  0.6559
 1000TIP3    H2 2965   0.897   6.304   2.971  0.7193 -0.4476  0.4041
 1001TIP3   OH2 2966   0.851   0.018   3.321 -0.6211  0.0243  0.1952
 1001TIP3    H1 2967   0.924   0.027   3.384 -0.8096  0.4310  0.3572
 1001TIP3    H2 2968   0.863   0.091   3.260  0.7057 -1.4724 -1.4364
 1002TIP3   OH2 2969   5.599   1.276   4.420  0.1671 -0.0835 -0.1425
 1002TIP3    H1 2970   5.650   1.351   4.451 -0.0736  0.0855 -0.1579
 1002TIP3    H2 2971   5.645   1.200   4.456 -0.2927  0.1237  0.9133
 1003TIP3   OH2 2972   4.525   6.772   1.828 -0.3513 -0.0091 -0.1621
 1003TIP3    H1 2973   4.545   6.773   1.734 -3.6596 -1.0798 -0.9954
 1003TIP3    H2 2974   4.542   6.682   1.856 -1.2829 -0.2291 -0.2611
 1004TIP3   OH2 2975   6.341   1.087   1.965  0.5147 -0.3837  0.2882
 1004TIP3    H1 2976   6.409   1.085   1.897  0.4305 -1.0860  0.2171
 1004TIP3    H2 2977   6.389   1.104   2.046  0.4784  1.8163 -0.0877
 1005TIP3   OH2 2978   6.042   6.771   4.926 -0.3291 -0.2307  0.2561
 1005TIP3    H1 2979   6.034   6.828   5.002 -0.9092 -1.5678  1.2428
 1005TIP3    H2 2980   5.956   6.773   4.884  0.2272  1.1799 -0.9204
 1006TIP3   OH2 2981   6.002   1.941   1.977 -0.2104  0.5038  0.1671
 1006TIP3    H1 2982   6.007   2.020   2.030  3.0681 -0.0732  0.9748
 1006TIP3    H2 2983   5.943   1.883   2.026 -2.0028  2.0906 -0.0208
 1007TIP3   OH2 2984   6.153   5.379   4.870 -0.0594  0.3220  0.1528
 1007TIP3    H1 2985   6.228   5.434   4.847  1.7842 -1.6060  1.2174
 1007TIP3    H2 2986   6.140   5.323   4.794 -0.9219  1.1490 -0.3192
 1008TIP3   OH2 2987   1.696   2.220   3.751 -0.4020  0.3267 -0.6601
 1008TIP3    H1 2988   1.745   2.147   3.789  0.7380  1.3307 -0.1234
 1008TIP3    H2 2989   1.631   2.243   3.817  2.0378  2.5432  1.2293
 1009TIP3   OH2 2990   3.491   4.704   2.750  0.2592  0.1624  0.1054
 1009TIP3    H1 2991   3.458   4.710   2.839  1.2137  0.8533  0.4226
 1009TIP3    H2 2992   3.450   4.625   2.715 -0.9274  0.4399  0.8043
 1010TIP3   OH2 2993   0.561   3.653   3.391  0.0291 -0.2252  0.6562
 1010TIP3    H1 2994   0.580   3.728   3.447 -1.3967  0.0874  0.7463
 1010TIP3    H2 2995   0.524   3.691   3.311  1.7056 -0.6857 -0.3953
 1011TIP3   OH2 2996   2.151   0.900   4.671  0.4833 -0.9522 -0.0051
 1011TIP3    H1 2997   2.118   0.840   4.738 -1.1054 -0.8355 -0.6616
 1011TIP3    H2 2998   2.152   0.849   4.590 -1.2667 -0.0253 -0.6544
 1012TIP3   OH2 2999   1.084   6.073   3.658 -0.0149 -0.5724 -0.2989
 1012TIP3    H1 3000   1.015   6.077   3.724 -0.5164 -0.5457 -0.8205
 1012TIP3    H2 3001   1.159   6.115   3.700 -0.1789 -0.9938  0.4283
 1013TIP3   OH2 3002   1.516   3.094   1.279  0.1452 -0.3913  0.3983
 1013TIP3    H1 3003   1.447   3.157   1.297  0.8821 -0.2191  3.1934
 1013TIP3    H2 3004   1.578   3.141   1.223 -1.4959 -0.2828 -1.4438
 1014TIP3   OH2 3005   3.326   5.289   2.591 -0.0913  0.5279  0.2044
 1014TIP3    H1 3006   3.311   5.383   2.583  2.6297  1.2820  2.4134
 1014TIP3    H2 3007   3.242   5.249   2.567 -0.9528  3.3956 -2.0678
 1015TIP3   OH2 3008   6.876   0.184   0.628  0.4447  0.2812 -0.2817
 1015TIP3    H1 3009   6.862   0.116   0.563 -0.0398  0.4472 -0.3503
 1015TIP3    H2 3010   6.807   0.248   0.612  0.2856  0.2961  0.4275
 1016TIP3   OH2 3011   5.964   5.209   0.400 -0.3570 -0.0053 -0.0176
 1016TIP3    H1 3012   5.979   5.285   0.343  0.0769  2.0425  2.6546
 1016TIP3    H2 3013   5.870   5.211   0.418 -0.9392 -2.0198 -2.3164
 1017TIP3   OH2 3014   4.547   1.466   2.732 -0.3584 -0.2428  0.1356
 1017TIP3    H1 3015   4.633   1.502   2.711 -1.1572  0.7603 -1.6677
 1017TIP3    H2 3016   4.529   1.403   2.661 -1.1565 -0.3247  0.3961
 1018TIP3   OH2 3017   1.770   5.486   5.815 -0.2663 -0.4768 -0.3571
 1018TIP3    H1 3018   1.781   5.578   5.839 -0.3074 -0.8783  1.2800
 1018TIP3    H2 3019   1.802   5.481   5.724 -1.6791  1.4331 -1.0139
 1019TIP3   OH2 3020   3.088   0.806   2.943 -0.5892  0.2932 -0.0210
 1019TIP3    H1 3021   3.099   0.742   2.873  1.8674  0.0301  0.5261
 1019TIP3    H2 3022   3.056   0.885   2.898  0.7395  0.0734 -1.4441
 1020TIP3   OH2 3023   3.943   5.284   2.995  0.1288 -0.6055 -0.1545
 1020TIP3    H1 3024   3.936   5.192   2.969 -0.5378 -0.2152 -1.4431
 1020TIP3    H2 3025   4.033   5.293   3.026  1.6775 -0.7473 -4.0419
 1021TIP3   OH2 3026   2.352   0.041   2.592  0.1544 -0.5723  0.3268
 1021TIP3    H1 3027   2.302   0.118   2.622  1.4004 -0.1925  1.5077
 1021TIP3    H2 3028   2.319   0.025   2.503 -0.4606  1.0433  0.2198
 1022TIP3   OH2 3029   2.348   0.802   0.221 -0.4316 -0.4270 -0.3551
 1022TIP3    H1 3030   2.373   0.847   0.140 -0.5622 -0.9960 -0.7200
 1022TIP3    H2 3031   2.318   0.716   0.192 -1.3156 -0.3315  0.2117
 1023TIP3   OH2 3032   5.685   2.690   1.745  0.6906  0.2822  0.4600
 1023TIP3    H1 3033   5.729   2.695   1.830  0.6370  1.2646  0.4380
 1023TIP3    H2 3034   5.728   2.755   1.691 -1.1225  1.7110  0.6141
 1024TIP3   OH2 3035   5.165   2.631   1.892  0.1245 -0.0027  0.0810
 1024TIP3    H1 3036   5.256   2.660   1.886  0.1375 -0.2055 -0.7887
 1024TIP3    H2 3037   5.171   2.539   1.920  0.0676  0.8825  3.4607
 1025TIP3   OH2 3038   4.842   1.839   1.298 -0.3493  0.1751  0.2888
 1025TIP3    H1 3039   4.832   1.771   1.364 -0.1194  1.3915  1.6282
 1025TIP3    H2 3040   4.933   1.867   1.306  0.1556 -0.6758 -1.6335
 1026TIP3   OH2 3041   6.036   1.337   2.140  0.1660 -0.1720 -0.1534
 1026TIP3    H1 3042   6.078   1.291   2.213  0.3104 -0.9524 -0.7077
 1026TIP3    H2 3043   6.045   1.277   2.066 -0.6037  0.2947 -0.6444
 1027TIP3   OH2 3044   7.187   5.377   4.727 -0.2680 -0.0656 -0.1401
 1027TIP3    H1 3045   7.241   5.320   4.674 -1.4574 -0.4066 -1.0128
 1027TIP3    H2 3046   7.193   5.341   4.816  0.3640 -0.5026 -0.3579
 1028TIP3   OH2 3047   6.043   0.637   3.234 -0.0007 -0.1010 -0.1728
 1028TIP3    H1 3048   5.993   0.702   3.284 -0.3267 -1.3071  1.1535
 1028TIP3    H2 3049   6.126   0.680   3.215 -0.4175  0.8944  0.1913
 1029TIP3   OH2 3050   2.771   5.677   2.444  0.3988  0.3738 -0.3429
 1029TIP3    H1 3051   2.808   5.663   2.357  2.9227 -0.7858  0.8238
 1029TIP3    H2 3052   2.755   5.589   2.479  2.6502  0.6224  1.5786
 1030TIP3   OH2 3053   6.864   3.066   0.702 -0.0050 -0.5108  0.4068
 1030TIP3    H1 3054   6.844   3.158   0.717 -0.4211 -0.5675  0.2144
 1030TIP3    H2 3055   6.790   3.018   0.739  0.6139 -0.8173  1.2923
 1031TIP3   OH2 3056   1.604   4.963   4.646  0.4097 -0.4083 -0.3062
 1031TIP3    H1 3057   1.547   4.903   4.694  0.5438 -1.2590 -1.1737
 1031TIP3    H2 3058   1.545   5.033   4.617  0.0261 -0.6997 -0.2427
 1032TIP3   OH2 3059   3.480   5.613   5.493 -0.2244 -0.1126  0.4209
 1032TIP3    H1 3060   3.544   5.546   5.517 -1.2233 -1.0390  0.5648
 1032TIP3    H2 3061   3.443   5.642   5.576  0.4392  0.8877  0.3891
 1033TIP3   OH2 3062   2.853   5.222   2.777 -0.2539 -0.2189  0.6159
 1033TIP3    H1 3063   2.873   5.179   2.860 -1.2788 -0.4362  0.7627
 1033TIP3    H2 3064   2.757   5.223   2.773 -0.2315  0.8718 -0.0022
 1034TIP3   OH2 3065   5.160   2.414   1.548 -0.0625  0.1380  0.3463
 1034TIP3    H1 3066   5.086   2.443   1.601 -0.7373 -0.7412 -0.0794
 1034TIP3    H2 3067   5.166   2.320   1.567  0.5443  0.0883 -0.1010
 1035TIP3   OH2 3068   4.043   1.732   4.355  0.8763 -0.1261 -0.6088
 1035TIP3    H1 3069   4.104   1.806   4.355  0.2442  0.5727  2.9460
 1035TIP3    H2 3070   4.069   1.680   4.431 -1.8327 -0.7485 -0.0028
 1036TIP3   OH2 3071   3.164   4.210   1.080  0.1014  0.3949  0.2655
 1036TIP3    H1 3072   3.259   4.215   1.076  0.4023 -0.8469  3.1804
 1036TIP3    H2 3073   3.136   4.292   1.119 -0.0433  0.7052 -0.4696
 1037TIP3   OH2 3074   2.054   4.973   5.586  0.8803 -0.8583 -0.7414
 1037TIP3    H1 3075   2.135   5.007   5.624  0.7037 -1.0583 -0.1732
 1037TIP3    H2 3076   2.020   4.912   5.652 -1.4051  1.5321  0.4823
 1038TIP3   OH2 3077   6.643   4.077   5.496  0.1633  0.0559  0.1121
 1038TIP3    H1 3078   6.572   4.121   5.543  0.2593 -0.2132  0.5124
 1038TIP3    H2 3079   6.701   4.044   5.564 -0.1430 -1.0904 -0.1563
 1039TIP3   OH2 3080   4.457   3.148   4.746  0.0830 -0.0225 -0.0181
 1039TIP3    H1 3081   4.447   3.243   4.749 -1.2071 -0.1643  1.2570
 1039TIP3    H2 3082   4.538   3.134   4.697  0.6440  1.7520  0.3226
 1040TIP3   OH2 3083   1.894   3.093   5.195  0.0241 -0.5144  0.5239
 1040TIP3    H1 3084   1.960   3.141   5.145 -2.0723  1.6969 -0.3969
 1040TIP3    H2 3085   1.841   3.049   5.128 -0.2075 -1.1580  1.1200
 1041TIP3   OH2 3086   2.500   2.123   3.059  0.1595  0.4856 -0.0637
 1041TIP3    H1 3087   2.553   2.049   3.089  0.9271  2.0501  2.7920
 1041TIP3    H2 3088   2.424   2.122   3.116 -0.5380  1.0961 -0.9528
 1042TIP3   OH2 3089   0.538   2.114   0.446  0.1767  0.1382  0.1684
 1042TIP3    H1 3090   0.493   2.198   0.458 -0.9787 -0.2776 -0.9896
 1042TIP3    H2 3091   0.467   2.050   0.445  0.7715 -0.5584 -1.5863
 1043TIP3   OH2 3092   1.536   1.685   3.126  0.0112  0.3106  0.3500
 1043TIP3    H1 3093   1.555   1.606   3.176  0.0456 -1.0080 -1.6195
 1043TIP3    H2 3094   1.440   1.691   3.127  0.0428  1.0766  1.6398
 1044TIP3   OH2 3095   6.441   5.831   0.485  0.1499  0.0062  0.0621
 1044TIP3    H1 3096   6.373   5.786   0.436  0.2805  0.0100 -0.1233
 1044TIP3    H2 3097   6.477   5.894   0.423 -0.9598  1.3406  0.7200
 1045TIP3   OH2 3098   1.467   3.241   3.160  0.0532 -0.9891 -0.2044
 1045TIP3    H1 3099   1.507   3.294   3.229 -1.5041  0.8879 -0.6527
 1045TIP3    H2 3100   1.538   3.226   3.097  0.2131  2.1580 -0.9242
 1046TIP3   OH2 3101   1.155   4.696   3.108  0.1108  0.0532  0.5081
 1046TIP3    H1 3102   1.161   4.610   3.150  0.0261 -1.3475 -2.1424
 1046TIP3    H2 3103   1.206   4.687   3.027 -0.6770  2.2080 -0.3072
 1047TIP3   OH2 3104   1.161   3.642   1.401 -0.5665 -0.1502  0.2882
 1047TIP3    H1 3105   1.252   3.649   1.373 -0.2046 -0.2328  1.3858
 1047TIP3    H2 3106   1.126   3.730   1.394 -1.3523 -0.5885 -3.0722
 1048TIP3   OH2 3107   6.651   0.322   3.643  0.1912  0.2128  0.0089
 1048TIP3    H1 3108   6.733   0.364   3.619  0.8153 -0.3475  1.0783
 1048TIP3    H2 3109   6.605   0.386   3.697  0.3972  0.1502  0.2614
 1049TIP3   OH2 3110   3.178   0.636   5.840  0.5221  0.3660  0.0905
 1049TIP3    H1 3111   3.269   0.627   5.810  1.3864 -0.7759  2.8322
 1049TIP3    H2 3112   3.179   0.714   5.896 -0.3009  0.5213 -0.0889
 1050TIP3   OH2 3113   2.947   5.863   5.863 -0.0694  0.4257  0.6953
 1050TIP3    H1 3114   3.000   5.879   5.785 -0.1800 -0.7363  0.3676
 1050TIP3    H2 3115   2.997   5.798   5.913 -1.0869 -0.5692  0.4538
 1051TIP3   OH2 3116   6.614   0.875   5.705 -0.3959 -0.1974 -0.5206
 1051TIP3    H1 3117   6.672   0.878   5.781 -0.9177 -1.2940 -0.0467
 1051TIP3    H2 3118   6.606   0.966   5.677  0.7375  0.0861  0.0131
 1052TIP3   OH2 3119   6.453   0.000   1.309  0.4799 -0.5236 -0.4369
 1052TIP3    H1 3120   6.480   0.037   1.226  0.9826  0.9164  0.3296
 1052TIP3    H2 3121   6.534  -0.034   1.348  0.4527 -0.1444 -0.0416
 1053TIP3   OH2 3122   0.968   0.850   3.520 -0.2288 -0.4054  0.0533
 1053TIP3    H1 3123   1.063   0.862   3.515 -0.5177  2.1496 -0.8153
 1053TIP3    H2 3124   0.948   0.789   3.449  0.6138  0.2782 -0.8017
 1054TIP3   OH2 3125   0.884   0.274  -0.024  0.4502  0.6556 -0.1257
 1054TIP3    H1 3126   0.818   0.267   0.044  0.5383 -0.0800 -0.1140
 1054TIP3    H2 3127   0.967   0.270   0.022  0.5740 -2.1655 -0.4133
 1055TIP3   OH2 3128   4.780   4.296   0.713  0.0744 -0.4138  0.3862
 1055TIP3    H1 3129   4.769   4.262   0.802 -1.2899 -0.5129  0.1983
 1055TIP3    H2 3130   4.693   4.290   0.674  0.5422  0.1264 -0.7864
 1056TIP3   OH2 3131   5.581   3.147   1.722  0.3855 -0.0951 -0.1676
 1056TIP3    H1 3132   5.675   3.165   1.720  0.3781  0.2211  1.1643
 1056TIP3    H2 3133   5.574   3.062   1.765  0.0507 -0.0467 -0.1243
 1057TIP3   OH2 3134   3.507   5.446   4.978 -0.0480 -0.5585 -0.0028
 1057TIP3    H1 3135   3.595   5.423   5.007 -0.7569 -1.6764  1.3794
 1057TIP3    H2 3136   3.519   5.523   4.922  1.8212 -0.8890 -0.1107
 1058TIP3   OH2 3137   7.186   2.474   1.681 -0.8481  0.0362  1.0889
 1058TIP3    H1 3138   7.259   2.526   1.648  0.3731 -1.0758  1.9343
 1058TIP3    H2 3139   7.141   2.531   1.742  0.2985  0.2136  1.7917
 1059TIP3   OH2 3140   5.915   2.170   3.306  0.0617 -0.0200 -0.2395
 1059TIP3    H1 3141   5.862   2.118   3.246  0.6970  0.7263 -1.5166
 1059TIP3    H2 3142   5.889   2.261   3.287  0.8663  0.2715  0.0227
 1060TIP3   OH2 3143   1.366   3.502   4.911  0.4538  0.0231 -0.1544
 1060TIP3    H1 3144   1.329   3.490   4.998 -0.4436 -1.3560 -0.6908
 1060TIP3    H2 3145   1.460   3.485   4.923  0.2776 -0.5672  0.4753
 1061TIP3   OH2 3146   4.054   0.578   1.230 -0.4052  0.9624  0.3741
 1061TIP3    H1 3147   4.042   0.492   1.271 -0.7507  0.9773  0.3103
 1061TIP3    H2 3148   3.966   0.616   1.228 -0.5645  0.6022 -1.1744
 1062TIP3   OH2 3149   6.613   4.456   2.381  0.5354 -0.0318 -0.2757
 1062TIP3    H1 3150   6.555   4.462   2.457 -0.6378  0.6646 -1.1891
 1062TIP3    H2 3151   6.600   4.368   2.347 -0.1439  0.1767 -0.5765
 1063TIP3   OH2 3152   4.535   0.893   2.271 -0.1961 -0.7094 -0.0761
 1063TIP3    H1 3153   4.453   0.873   2.317  0.9351 -0.4333  2.1784
 1063TIP3    H2 3154   4.585   0.811   2.273  0.3927 -0.3457  0.3566
 1064TIP3   OH2 3155   3.805   0.657   5.017  0.4160  0.4578  0.3715
 1064TIP3    H1 3156   3.878   0.637   4.959  0.3292  0.2544  0.3307
 1064TIP3    H2 3157   3.793   0.577   5.069  0.6560  0.7220  0.8439
 1065TIP3   OH2 3158   3.938   5.877   3.877 -0.0288 -0.5721 -0.7402
 1065TIP3    H1 3159   4.014   5.827   3.846  1.6151  1.7112 -0.6411
 1065TIP3    H2 3160   3.972   5.929   3.950 -1.4097  1.3376 -1.3926
 1066TIP3   OH2 3161   5.689   1.213   4.117 -0.2710  0.3151  0.7022
 1066TIP3    H1 3162   5.603   1.241   4.084 -0.1467 -1.5561 -1.4970
 1066TIP3    H2 3163   5.717   1.284   4.174 -1.3629  3.0830 -1.9115
 1067TIP3   OH2 3164   3.184   2.588   1.053 -0.1922 -0.3045  0.0904
 1067TIP3    H1 3165   3.231   2.661   1.095 -0.3589 -0.7355  1.0555
 1067TIP3    H2 3166   3.237   2.565   0.977  0.5060  0.0239  0.4752
 1068TIP3   OH2 3167   6.734   3.110   3.497 -0.1599 -0.4130 -0.6479
 1068TIP3    H1 3168   6.723   3.083   3.406 -0.8792  1.5183 -1.1922
 1068TIP3    H2 3169   6.727   3.029   3.547  1.5961 -1.7355 -2.3595
 1069TIP3   OH2 3170   0.123   2.622   5.767  0.3925 -0.1050 -0.0031
 1069TIP3    H1 3171   0.141   2.587   5.854 -0.1411 -0.4750 -0.0381
 1069TIP3    H2 3172   0.032   2.600   5.750  0.6197 -0.4514 -0.8465
 1070TIP3   OH2 3173   6.224   6.809   1.156 -0.1304 -0.2854  0.6582
 1070TIP3    H1 3174   6.303   6.763   1.131  0.8866  2.4116 -1.5554
 1070TIP3    H2 3175   6.153   6.760   1.113  1.0617  0.9719 -3.1490
 1071TIP3   OH2 3176   3.328   0.567   3.330  0.0350 -0.1469 -0.6070
 1071TIP3    H1 3177   3.420   0.587   3.351 -0.6320  1.0990  1.4511
 1071TIP3    H2 3178   3.297   0.643   3.282 -0.9039  1.3346  2.1198
 1072TIP3   OH2 3179   5.056   0.852   5.026 -0.5423 -0.4194  0.6357
 1072TIP3    H1 3180   4.978   0.821   4.979 -0.3781 -2.0171  1.3331
 1072TIP3    H2 3181   5.078   0.780   5.085  1.0400  0.3017  0.9809
 1073TIP3   OH2 3182   4.305   3.811   1.529  0.0125  0.4478 -0.2325
 1073TIP3    H1 3183   4.265   3.874   1.590  0.6725 -0.9150  1.7036
 1073TIP3    H2 3184   4.238   3.798   1.462 -0.9293  1.6993  0.4011
 1074TIP3   OH2 3185   4.279   2.545   3.718 -0.0201  0.2105 -0.2450
 1074TIP3    H1 3186   4.217   2.471   3.722 -0.5963  0.6382 -0.8894
 1074TIP3    H2 3187   4.346   2.516   3.656 -0.5066  0.4099 -0.8729
 1075TIP3   OH2 3188   2.555   3.527   4.993  0.3704  0.1348 -0.1206
 1075TIP3    H1 3189   2.538   3.476   4.913 -0.0127 -1.3503  0.8694
 1075TIP3    H2 3190   2.552   3.618   4.963  0.7890 -0.3858 -1.9026
 1076TIP3   OH2 3191   0.319   5.375   1.526 -0.1266  0.1865 -0.5609
 1076TIP3    H1 3192   0.225   5.370   1.508 -0.3116  1.0331  0.1616
 1076TIP3    H2 3193   0.342   5.466   1.508  0.4602  0.1054 -0.2297
 1077TIP3   OH2 3194   2.184   2.517   5.762 -0.1371  0.3504  0.0252
 1077TIP3    H1 3195   2.179   2.463   5.682 -0.7225  1.1726 -0.5075
 1077TIP3    H2 3196   2.110   2.578   5.754 -0.9667 -0.3616  1.8038
 1078TIP3   OH2 3197   5.458   2.971   4.397  0.1969 -0.0386  0.2807
 1078TIP3    H1 3198   5.528   2.946   4.457  0.4481  0.5195  0.2239
 1078TIP3    H2 3199   5.415   3.046   4.439 -0.0842 -0.1000  0.1069
 1079TIP3   OH2 3200   6.709   5.641   5.159  0.1202 -0.4514 -0.1077
 1079TIP3    H1 3201   6.615   5.658   5.166  0.4365  2.0486 -0.9595
 1079TIP3    H2 3202   6.723   5.615   5.068  0.4842  1.6145 -0.7137
 1080TIP3   OH2 3203   4.008   1.983   0.041 -0.6765  0.1973 -0.0345
 1080TIP3    H1 3204   4.071   2.044   0.080 -1.7825  1.2784  0.1257
 1080TIP3    H2 3205   4.032   1.980  -0.051  1.0636 -1.2641  0.4025
 1081TIP3   OH2 3206   6.584   5.898   4.706 -0.5737  0.1003  1.2686
 1081TIP3    H1 3207   6.628   5.824   4.664 -0.7575  0.2383  0.8401
 1081TIP3    H2 3208   6.509   5.859   4.751  0.3163 -0.2343  2.5270
 1082TIP3   OH2 3209   2.608   4.094   0.613  0.3867  0.0388  0.4489
 1082TIP3    H1 3210   2.589   4.146   0.691  1.1027  1.9665 -0.6030
 1082TIP3    H2 3211   2.527   4.098   0.562  0.7043  0.8563 -0.0092
 1083TIP3   OH2 3212   6.412   6.553   2.581  0.6297 -0.3191 -0.2178
 1083TIP3    H1 3213   6.491   6.527   2.628  0.2625 -2.2611 -0.5715
 1083TIP3    H2 3214   6.342   6.549   2.647  0.5322 -0.4512 -0.3287
 1084TIP3   OH2 3215   4.033   5.792   5.717 -0.3711  0.1509 -0.0231
 1084TIP3    H1 3216   3.940   5.769   5.708 -0.2302  0.0495 -1.4045
 1084TIP3    H2 3217   4.065   5.733   5.786 -1.3135  0.1512  0.4337
 1085TIP3   OH2 3218   4.555   1.493   0.268  0.5217 -0.5476 -0.1797
 1085TIP3    H1 3219   4.596   1.512   0.352  1.0147 -2.0196 -0.0631
 1085TIP3    H2 3220   4.479   1.439   0.290  1.3930 -2.0443 -0.7556
 1086TIP3   OH2 3221   2.080   2.194   3.550  0.4537 -0.0896 -0.0572
 1086TIP3    H1 3222   2.059   2.151   3.467 -1.4723 -0.2217  0.4518
 1086TIP3    H2 3223   2.009   2.256   3.564  0.2891 -0.6373  1.8700
 1087TIP3   OH2 3224   5.110   0.213   2.483  0.4287 -0.2402  0.1210
 1087TIP3    H1 3225   5.150   0.299   2.491  0.9730 -0.2957 -1.6067
 1087TIP3    H2 3226   5.055   0.219   2.405  0.3291 -1.3852  0.0820
 1088TIP3   OH2 3227   4.713   2.890   4.383 -0.7069  0.2519 -0.4244
 1088TIP3    H1 3228   4.631   2.862   4.423  0.0183 -2.2412 -0.4789
 1088TIP3    H2 3229   4.710   2.854   4.295  0.3388  0.3221 -0.5001
 1089TIP3   OH2 3230   0.112   5.608   2.931  0.3499 -0.0083  0.3034
 1089TIP3    H1 3231   0.124   5.615   2.836 -1.8795 -0.1713 -0.0394
 1089TIP3    H2 3232   0.106   5.514   2.947 -0.0824  0.0474  0.4782
 1090TIP3   OH2 3233   0.610   6.722   4.667  0.2082  0.4802 -0.3394
 1090TIP3    H1 3234   0.669   6.685   4.600 -2.2727 -2.4534 -1.1303
 1090TIP3    H2 3235   0.636   6.679   4.748 -1.2332 -1.4771 -0.8447
 1091TIP3   OH2 3236   2.572   6.187   1.823 -0.6613 -0.9503  0.3586
 1091TIP3    H1 3237   2.478   6.201   1.827 -0.3325  1.4772  1.0188
 1091TIP3    H2 3238   2.610   6.273   1.838  1.6846 -1.9527  0.6142
 1092TIP3   OH2 3239   5.548   3.343   5.675 -0.1460 -0.9003  0.7528
 1092TIP3    H1 3240   5.506   3.368   5.593 -1.0439 -1.1233  1.1353
 1092TIP3    H2 3241   5.588   3.258   5.656  0.1002 -0.7088  0.4009
 1093TIP3   OH2 3242   0.426   3.480   1.874 -0.1216  0.7432  0.3183
 1093TIP3    H1 3243   0.466   3.472   1.960 -0.0221 -2.2067  0.1106
 1093TIP3    H2 3244   0.338   3.443   1.885  0.0069  0.0261 -0.8720
 1094TIP3   OH2 3245   1.722   4.757   3.320 -0.5159  0.4164  0.0274
 1094TIP3    H1 3246   1.726   4.813   3.398 -0.1257 -1.0180  1.0799
 1094TIP3    H2 3247   1.771   4.805   3.253  0.9048  0.7785  1.2704
 1095TIP3   OH2 3248   3.457   1.694   3.521 -0.3367 -0.4536  0.1117
 1095TIP3    H1 3249   3.462   1.613   3.470 -1.1382  0.4499 -1.4780
 1095TIP3    H2 3250   3.410   1.669   3.600  0.5052 -1.7881  0.2364
 1096TIP3   OH2 3251   5.737   3.582   3.601  0.3076  0.0231 -0.3186
 1096TIP3    H1 3252   5.669   3.633   3.646  0.1351 -1.5020  1.2785
 1096TIP3    H2 3253   5.705   3.492   3.604  1.2256 -0.3878 -1.8534
 1097TIP3   OH2 3254   6.330   5.438   5.105 -0.1744  0.0148 -0.0239
 1097TIP3    H1 3255   6.402   5.482   5.060  0.8405 -0.5849  0.9319
 1097TIP3    H2 3256   6.262   5.427   5.038 -0.7263  3.4378 -0.1749
 1098TIP3   OH2 3257   3.569   1.754   2.694 -0.3518  0.2587 -0.0927
 1098TIP3    H1 3258   3.573   1.659   2.706 -1.4717 -0.0023 -1.5398
 1098TIP3    H2 3259   3.526   1.786   2.773 -0.0055 -0.4399  0.3861
 1099TIP3   OH2 3260   6.911   5.071   4.455 -0.2244  0.1562 -0.1244
 1099TIP3    H1 3261   6.965   5.004   4.414 -0.1624 -0.2337  0.5684
 1099TIP3    H2 3262   6.832   5.076   4.401  0.3991  0.5710 -1.0145
 1100TIP3   OH2 3263   4.841   5.518   0.226  0.3525  0.0262 -0.3477
 1100TIP3    H1 3264   4.836   5.556   0.314 -1.8093  0.2198 -0.5020
 1100TIP3    H2 3265   4.755   5.536   0.187  1.1543 -0.3264 -2.3995
 1101TIP3   OH2 3266   2.564   3.564   2.069  0.2932 -0.2786  0.0073
 1101TIP3    H1 3267   2.505   3.628   2.029  0.9394 -0.2946 -1.0112
 1101TIP3    H2 3268   2.637   3.616   2.102 -0.7397 -0.1211  2.2771
 1102TIP3   OH2 3269   4.487   2.134   4.418  0.1634 -0.7435  0.7252
 1102TIP3    H1 3270   4.452   2.131   4.329  2.0753  1.7031 -0.2238
 1102TIP3    H2 3271   4.503   2.042   4.440 -1.6694 -1.5153 -0.8526
 1103TIP3   OH2 3272   5.004   2.028   3.113  0.4425  0.2128 -0.4381
 1103TIP3    H1 3273   5.046   2.028   3.199 -1.1800  0.3472  0.4000
 1103TIP3    H2 3274   4.952   2.108   3.112 -2.4288 -1.4873  0.0036
 1104TIP3   OH2 3275   1.972   6.703   4.745 -0.8956 -0.2319  0.8114
 1104TIP3    H1 3276   1.881   6.728   4.727 -0.8345 -0.8475 -0.4325
 1104TIP3    H2 3277   1.966   6.613   4.777 -0.7604 -0.0720  1.3015
 1105TIP3   OH2 3278   4.007   6.350   5.728 -0.1807 -0.7751  0.0755
 1105TIP3    H1 3279   3.921   6.381   5.697 -0.5233 -0.7859  0.9648
 1105TIP3    H2 3280   4.063   6.428   5.723 -0.6529 -0.3609  0.9068
 1106TIP3   OH2 3281   2.544   0.743   3.804  0.5051 -0.0639  0.1010
 1106TIP3    H1 3282   2.474   0.806   3.783 -0.1262 -1.1516 -1.1937
 1106TIP3    H2 3283   2.549   0.745   3.900 -1.1473  0.2204  0.2223
 1107TIP3   OH2 3284   5.741   1.852   5.773  0.6234 -0.2415  0.1131
 1107TIP3    H1 3285   5.787   1.936   5.763  1.0598 -0.6176 -1.2424
 1107TIP3    H2 3286   5.808   1.786   5.756  0.3245 -0.8812  1.3682
 1108TIP3   OH2 3287   1.764   3.757   3.054 -0.5609  0.1368 -0.5147
 1108TIP3    H1 3288   1.859   3.752   3.048 -0.5710 -0.9959 -0.0175
 1108TIP3    H2 3289   1.743   3.714   3.137 -1.4867  0.5911 -0.5071
 1109TIP3   OH2 3290   3.523   3.872   2.249 -0.2160  0.1934  0.0588
 1109TIP3    H1 3291   3.593   3.920   2.204  0.3235 -0.7554 -0.1362
 1109TIP3    H2 3292   3.525   3.905   2.338  0.5967  0.0680  0.1003
 1110TIP3   OH2 3293   7.035   0.718   0.473  0.5486 -0.1894  0.0849
 1110TIP3    H1 3294   6.948   0.753   0.453  2.0371  1.9851 -3.8789
 1110TIP3    H2 3295   7.045   0.644   0.413  2.1081  0.9948 -1.2241
 1111TIP3   OH2 3296   6.356   1.324   0.882  0.0347 -0.5613  0.1838
 1111TIP3    H1 3297   6.278   1.339   0.935  0.2005 -1.2579  0.6359
 1111TIP3    H2 3298   6.349   1.387   0.810 -0.4964 -0.0258  0.6996
 1112TIP3   OH2 3299   4.121   2.624   0.480  0.2652  0.3236  0.7317
 1112TIP3    H1 3300   4.162   2.537   0.486  0.3824  0.2020 -1.1308
 1112TIP3    H2 3301   4.190   2.681   0.448 -0.4914  0.5141 -0.6359
 1113TIP3   OH2 3302   3.737   5.025   0.778  0.2843  0.7137 -0.5442
 1113TIP3    H1 3303   3.828   5.038   0.750  0.6305 -0.4831 -0.0409
 1113TIP3    H2 3304   3.697   4.973   0.709  0.6909 -0.8528  0.3456
 1114TIP3   OH2 3305   5.926   2.898   2.936 -0.5188 -0.1453 -0.3427
 1114TIP3    H1 3306   5.937   2.827   2.872 -1.0587  0.4315 -1.0951
 1114TIP3    H2 3307   5.851   2.872   2.989  0.5311 -1.1091  0.7502
 1115TIP3   OH2 3308   4.659   4.058   3.057 -0.0061  0.1090  0.5284
 1115TIP3    H1 3309   4.666   3.995   2.986 -2.2770 -0.0730  0.3781
 1115TIP3    H2 3310   4.724   4.125   3.037  2.2356 -1.9490  0.4991
 1116TIP3   OH2 3311   7.037   1.554   4.206  0.5903  0.1176 -0.0891
 1116TIP3    H1 3312   7.131   1.536   4.213  0.8167  1.5718  1.0570
 1116TIP3    H2 3313   7.025   1.582   4.115  1.5810  1.4594  0.1662
 1117TIP3   OH2 3314   0.878   4.162   3.582 -0.2394 -0.0027 -0.3051
 1117TIP3    H1 3315   0.869   4.147   3.488 -0.8086  0.5957 -0.3539
 1117TIP3    H2 3316   0.836   4.246   3.597 -1.0142 -0.5279  0.6300
 1118TIP3   OH2 3317   2.676   2.206   4.353  0.4542 -0.1222 -0.1485
 1118TIP3    H1 3318   2.687   2.295   4.318  1.2897 -0.2408 -0.2096
 1118TIP3    H2 3319   2.738   2.153   4.304  1.9070 -0.2383  1.6874
 1119TIP3   OH2 3320   3.191   2.497   3.529  0.3186 -0.1040 -0.0100
 1119TIP3    H1 3321   3.204   2.541   3.444 -0.9953  0.3420  0.0052
 1119TIP3    H2 3322   3.248   2.420   3.524 -0.1961 -0.4223 -1.5557
 1120TIP3   OH2 3323   2.917   0.958   1.952 -1.2567  0.1180  0.1378
 1120TIP3    H1 3324   2.940   0.866   1.962  1.6938  0.7165 -0.0983
 1120TIP3    H2 3325   2.880   0.964   1.864 -0.5605 -0.7070 -0.2287
 1121TIP3   OH2 3326   1.562   5.619   1.205  0.1980 -0.0619  0.2930
 1121TIP3    H1 3327   1.638   5.565   1.186 -0.4359 -1.0918  0.5926
 1121TIP3    H2 3328   1.492   5.581   1.152 -0.5171 -0.2227  1.3171
 1122TIP3   OH2 3329   4.467   5.852   1.308  0.0423 -0.1576  0.3643
 1122TIP3    H1 3330   4.557   5.883   1.298  0.2394 -1.2612 -1.7475
 1122TIP3    H2 3331   4.475   5.757   1.321 -0.8086 -0.3914 -0.6271
 1123TIP3   OH2 3332   6.727   1.593   2.207 -0.8096  0.2234 -0.3710
 1123TIP3    H1 3333   6.802   1.546   2.242 -1.2254  0.2439  0.5735
 1123TIP3    H2 3334   6.765   1.660   2.150 -0.0888  0.4973  0.4103
 1124TIP3   OH2 3335   5.046   2.312   2.404  0.0690 -0.2408  0.2527
 1124TIP3    H1 3336   5.094   2.288   2.483 -0.1369  0.5413  0.6287
 1124TIP3    H2 3337   5.006   2.397   2.425  0.5948  0.3250 -0.9396
 1125TIP3   OH2 3338   5.759   2.863   1.531  0.5101  0.7654 -0.2359
 1125TIP3    H1 3339   5.665   2.873   1.513  0.7831  0.7764 -1.7930
 1125TIP3    H2 3340   5.792   2.952   1.537  0.4963  0.7604 -0.0699
 1126TIP3   OH2 3341   1.360   2.399   4.648 -0.0578  0.2136 -0.1786
 1126TIP3    H1 3342   1.414   2.395   4.726  1.0722  0.1035 -0.9530
 1126TIP3    H2 3343   1.284   2.345   4.669  0.0878  0.4164  0.9352
 1127TIP3   OH2 3344   1.420   2.178   0.406  0.1169 -0.3434  0.2325
 1127TIP3    H1 3345   1.435   2.272   0.409 -0.4414  0.0069 -3.4462
 1127TIP3    H2 3346   1.328   2.168   0.379  0.8839 -1.7356 -2.2894
 1128TIP3   OH2 3347   2.207   5.321   5.450 -0.2647 -0.1220 -0.0730
 1128TIP3    H1 3348   2.164   5.269   5.382 -0.5668  0.4874 -0.3568
 1128TIP3    H2 3349   2.284   5.270   5.474  0.0639 -0.1534 -1.1535
 1129TIP3   OH2 3350   0.156   1.143   2.233 -0.1438 -0.3208 -0.5828
 1129TIP3    H1 3351   0.226   1.179   2.178  0.1924 -0.5794 -0.3281
 1129TIP3    H2 3352   0.201   1.114   2.312 -0.1596 -2.7218 -1.3750
 1130TIP3   OH2 3353   2.856   5.634   3.186  0.5967 -0.6387 -0.2879
 1130TIP3    H1 3354   2.765   5.611   3.166  0.7544 -0.0315 -1.8906
 1130TIP3    H2 3355   2.906   5.600   3.111  1.2796  1.6343 -0.9275
 1131TIP3   OH2 3356   1.417   4.282   3.002  0.0666 -0.6682 -0.0365
 1131TIP3    H1 3357   1.482   4.238   2.947  0.1705 -2.7240  1.6059
 1131TIP3    H2 3358   1.350   4.216   3.018 -1.8353  1.0191 -0.6329
 1132TIP3   OH2 3359   5.895   2.997   1.853 -0.2904 -0.8718  0.1366
 1132TIP3    H1 3360   5.915   2.913   1.894 -2.2557 -0.6439  1.6996
 1132TIP3    H2 3361   5.801   2.995   1.837 -0.0026  0.1239 -2.0350
 1133TIP3   OH2 3362   4.733   3.098   0.526 -0.1235  0.4445  0.1340
 1133TIP3    H1 3363   4.795   3.078   0.456  1.8627  3.3754  0.8805
 1133TIP3    H2 3364   4.778   3.072   0.606 -0.8540  0.4797  0.5672
 1134TIP3   OH2 3365   0.155   3.782   3.767 -0.6926 -0.3728  0.5069
 1134TIP3    H1 3366   0.128   3.823   3.685 -0.5508  0.4410  0.8608
 1134TIP3    H2 3367   0.124   3.691   3.760  1.9211 -1.2109 -1.7291
 1135TIP3   OH2 3368   3.098   1.757   4.907  0.0413  0.4814 -0.4919
 1135TIP3    H1 3369   3.171   1.700   4.929  0.7393  1.2004 -0.8934
 1135TIP3    H2 3370   3.114   1.837   4.957 -0.7097  0.4751 -0.2371
 1136TIP3   OH2 3371   4.304   2.162   2.601  0.2420  0.1382 -0.1436
 1136TIP3    H1 3372   4.241   2.201   2.662 -0.6955  2.6214 -2.5160
 1136TIP3    H2 3373   4.379   2.137   2.656 -1.3140  0.4292  2.2427
 1137TIP3   OH2 3374   4.348   4.592   0.852  0.1636 -0.1614 -0.4231
 1137TIP3    H1 3375   4.444   4.588   0.848  0.1656 -1.6196  0.4530
 1137TIP3    H2 3376   4.329   4.680   0.883  1.2137  0.1870 -0.7197
 1138TIP3   OH2 3377   1.727   6.380   3.959 -0.4201  0.0903 -0.0470
 1138TIP3    H1 3378   1.759   6.338   3.880 -0.3915 -0.0149  0.0207
 1138TIP3    H2 3379   1.805   6.408   4.006 -0.4466  1.4368 -0.7398
 1139TIP3   OH2 3380   6.552   0.390   4.257  0.5167  0.6397 -0.1442
 1139TIP3    H1 3381   6.456   0.384   4.254  0.4870  0.7943  0.4124
 1139TIP3    H2 3382   6.570   0.454   4.326  1.0334 -0.0803  0.4038
 1140TIP3   OH2 3383   6.902   6.146   4.289  0.7448 -0.7853  0.0296
 1140TIP3    H1 3384   6.817   6.131   4.330  0.6764 -1.7390 -0.4347
 1140TIP3    H2 3385   6.881   6.176   4.201  0.8977  0.5639  0.4290
 1141TIP3   OH2 3386   0.444   5.165   5.368 -0.4607  0.0173  0.6649
 1141TIP3    H1 3387   0.351   5.148   5.384 -0.1534 -0.3384  2.1690
 1141TIP3    H2 3388   0.490   5.097   5.416  0.6264  1.2305  1.4090
 1142TIP3   OH2 3389   0.082   4.230   4.542  0.3565  0.2236 -0.0273
 1142TIP3    H1 3390   0.127   4.151   4.513  0.0152  1.0010 -3.0112
 1142TIP3    H2 3391  -0.001   4.198   4.579  1.7718 -0.9659  2.3677
 1143TIP3   OH2 3392   3.342   4.040   4.823  0.0101  0.1833  0.1487
 1143TIP3    H1 3393   3.374   3.952   4.804  0.7057  0.8535 -2.1536
 1143TIP3    H2 3394   3.417   4.085   4.864 -0.2376 -0.1775  1.0139
 1144TIP3   OH2 3395   3.036   0.327   0.829  0.4528  0.8185 -0.0352
 1144TIP3    H1 3396   3.020   0.347   0.737 -1.4505 -1.0139 -0.1883
 1144TIP3    H2 3397   3.116   0.274   0.829  0.1445  0.3418 -0.7158
 1145TIP3   OH2 3398   2.140   3.092   4.694 -0.0422 -0.4571  0.1942
 1145TIP3    H1 3399   2.163   3.000   4.680  0.6308 -0.2682  0.0272
 1145TIP3    H2 3400   2.170   3.136   4.615 -2.6837 -0.4652 -0.9063
 1146TIP3   OH2 3401   4.202   2.803   1.418 -0.4310 -0.5217 -0.1479
 1146TIP3    H1 3402   4.258   2.880   1.407  0.1405 -0.9265 -0.1359
 1146TIP3    H2 3403   4.201   2.787   1.513 -0.6569 -0.4488 -0.1383
 1147TIP3   OH2 3404   4.622   2.080   0.658  0.3431 -0.1962 -0.2870
 1147TIP3    H1 3405   4.645   2.074   0.565  1.5876 -0.9416  0.0357
 1147TIP3    H2 3406   4.531   2.107   0.659  0.5207  0.5662 -1.7203
 1148TIP3   OH2 3407   3.565   3.639   5.885 -0.5649 -0.3144 -0.6632
 1148TIP3    H1 3408   3.546   3.696   5.810  0.3807  1.2550  0.2453
 1148TIP3    H2 3409   3.647   3.673   5.921 -1.2830 -0.6696  1.4351
 1149TIP3   OH2 3410   3.953   1.478   2.825  0.2127 -0.2532 -0.0710
 1149TIP3    H1 3411   3.990   1.548   2.772 -0.3385  1.5926  1.8438
 1149TIP3    H2 3412   4.017   1.463   2.894 -0.4788 -0.3690  0.5639
 1150TIP3   OH2 3413   4.489   3.492   3.731  0.2900  0.3083 -0.1281
 1150TIP3    H1 3414   4.486   3.397   3.720 -0.7338 -0.0242  2.3241
 1150TIP3    H2 3415   4.582   3.514   3.723  0.9672 -1.3755  2.1111
 1151TIP3   OH2 3416   1.078   2.911   3.923 -0.1391 -0.4042 -0.7770
 1151TIP3    H1 3417   1.146   2.848   3.949 -0.6586 -0.9858 -0.8030
 1151TIP3    H2 3418   0.996   2.867   3.945 -0.5497 -0.2931 -2.0326
 1152TIP3   OH2 3419   6.987   1.008   4.362  0.4300  0.0570 -0.0185
 1152TIP3    H1 3420   7.074   1.021   4.325 -0.1034 -0.2091 -1.4355
 1152TIP3    H2 3421   6.935   1.081   4.328  0.1984  0.4949  1.2158
 1153TIP3   OH2 3422   5.579   0.285   3.256  0.2269 -0.2230 -0.5318
 1153TIP3    H1 3423   5.660   0.237   3.272 -0.6809 -1.6247  0.0575
 1153TIP3    H2 3424   5.533   0.284   3.340 -1.1891 -1.0061 -1.2826
 1154TIP3   OH2 3425   1.454   6.406   0.293 -0.6336 -0.2865 -0.7192
 1154TIP3    H1 3426   1.375   6.410   0.347 -0.3960 -0.9546 -0.3158
 1154TIP3    H2 3427   1.435   6.338   0.228  0.7794 -2.8202  1.3382
 1155TIP3   OH2 3428   3.912   4.582   1.352 -0.2121 -0.2957  0.2813
 1155TIP3    H1 3429   3.819   4.602   1.340 -0.3009 -1.3958 -1.1415
 1155TIP3    H2 3430   3.924   4.580   1.447 -1.7414 -0.5512  0.4964
 1156TIP3   OH2 3431   0.747   6.636   1.680 -0.0933 -0.5562 -0.4892
 1156TIP3    H1 3432   0.811   6.566   1.685 -0.2254 -0.7148 -0.9649
 1156TIP3    H2 3433   0.664   6.592   1.663  0.0964 -0.1963 -2.5894
 1157TIP3   OH2 3434   5.087   1.044   3.276  0.3787  0.2018  0.4823
 1157TIP3    H1 3435   5.037   0.977   3.229 -0.0384  1.1270 -0.4281
 1157TIP3    H2 3436   5.168   1.051   3.226  1.0616 -0.6518  1.4346
 1158TIP3   OH2 3437   1.482   3.788   1.809 -0.3953  0.2268 -0.5770
 1158TIP3    H1 3438   1.557   3.730   1.792  0.2002  0.9929 -0.6353
 1158TIP3    H2 3439   1.503   3.869   1.762  0.0346  1.4426  1.5477
 1159TIP3   OH2 3440   4.693   3.891   3.410 -0.3038  0.3719 -0.1212
 1159TIP3    H1 3441   4.654   3.808   3.382 -0.3242  0.2647  0.2137
 1159TIP3    H2 3442   4.625   3.956   3.393 -0.0310  0.4351 -1.0474
 1160TIP3   OH2 3443   6.182   6.380   2.383  0.1583  0.4303  0.1254
 1160TIP3    H1 3444   6.189   6.402   2.476  0.3515 -0.9552  0.4585
 1160TIP3    H2 3445   6.239   6.304   2.372  0.4523  0.8106 -1.2265
 1161TIP3   OH2 3446   5.154   5.804   3.440 -0.3596 -0.2079 -0.4034
 1161TIP3    H1 3447   5.195   5.736   3.386 -0.2197 -1.5721  1.3139
 1161TIP3    H2 3448   5.223   5.832   3.500 -1.2468 -0.8328  0.9677
 1162TIP3   OH2 3449   6.421   6.658   1.879  0.3229  0.6988 -0.1943
 1162TIP3    H1 3450   6.335   6.680   1.843  0.3066 -2.1826 -2.2325
 1162TIP3    H2 3451   6.482   6.670   1.806  0.5835 -3.4911 -0.8830
 1163TIP3   OH2 3452   1.509   4.723   3.695 -0.3068  0.2363  0.3245
 1163TIP3    H1 3453   1.588   4.671   3.705 -0.9873 -0.6090  1.5239
 1163TIP3    H2 3454   1.486   4.715   3.602  0.9480  0.4333 -0.0181
 1164TIP3   OH2 3455   2.420   3.047   5.564 -0.0498  0.2017  0.3662
 1164TIP3    H1 3456   2.346   3.036   5.505  0.5681  2.9296 -1.1025
 1164TIP3    H2 3457   2.494   3.064   5.506  1.8504 -2.4632  1.7718
 1165TIP3   OH2 3458   6.057   1.082   5.410 -0.8522  0.0222 -0.8805
 1165TIP3    H1 3459   6.061   0.995   5.449  0.3505 -1.2307 -3.5366
 1165TIP3    H2 3460   6.149   1.111   5.409 -1.2002  1.2233 -0.3480
 1166TIP3   OH2 3461   4.239   4.565   0.279  0.4315  0.1188 -0.0140
 1166TIP3    H1 3462   4.236   4.469   0.274  0.1099  0.1342 -4.1802
 1166TIP3    H2 3463   4.148   4.590   0.294  0.3085 -0.2420 -0.1375
 1167TIP3   OH2 3464   1.421   5.178   4.608  0.6620  0.1392  0.3073
 1167TIP3    H1 3465   1.382   5.178   4.520 -0.4581  0.9757  0.7803
 1167TIP3    H2 3466   1.477   5.255   4.610 -1.0111  1.3950  1.0103
 1168TIP3   OH2 3467   4.973   3.344   2.784 -0.3737 -0.0834 -0.2205
 1168TIP3    H1 3468   5.022   3.426   2.785 -0.1055 -0.2491  0.4737
 1168TIP3    H2 3469   4.881   3.372   2.791 -0.3813  0.2057 -1.1912
 1169TIP3   OH2 3470   2.912   0.609   1.579 -0.0561 -0.0319 -0.7055
 1169TIP3    H1 3471   2.951   0.605   1.491 -0.3258 -1.7649 -0.7876
 1169TIP3    H2 3472   2.973   0.561   1.634 -1.2450 -1.4386 -0.5363
 1170TIP3   OH2 3473   6.877   0.845   5.458 -0.0132 -0.3402  0.5525
 1170TIP3    H1 3474   6.807   0.908   5.442  0.2831 -0.4531 -1.4957
 1170TIP3    H2 3475   6.840   0.761   5.431  0.6434 -0.5127  0.1494
 1171TIP3   OH2 3476   6.752   2.774   1.375 -0.2679  0.3947 -0.2503
 1171TIP3    H1 3477   6.686   2.725   1.325 -0.8997  3.1236 -2.3301
 1171TIP3    H2 3478   6.779   2.845   1.316  1.0046  2.2185  2.3327
 1172TIP3   OH2 3479   3.197   2.402   1.653  0.1130 -0.2416 -0.3293
 1172TIP3    H1 3480   3.229   2.486   1.686  1.0404 -1.6008  2.5131
 1172TIP3    H2 3481   3.256   2.381   1.581  1.1833  0.5859  0.2647
 1173TIP3   OH2 3482   1.028   5.984   2.024 -0.1407 -0.5614 -0.3590
 1173TIP3    H1 3483   0.948   5.941   2.054  0.2302 -0.9748  0.0527
 1173TIP3    H2 3484   1.069   5.921   1.965  0.0201 -0.4626 -0.3538
 1174TIP3   OH2 3485   4.621   2.423   2.316 -0.9384 -0.4991  0.3206
 1174TIP3    H1 3486   4.575   2.394   2.395 -1.6551 -0.9528 -0.2467
 1174TIP3    H2 3487   4.586   2.366   2.247  0.7763 -1.1276 -0.0642
 1175TIP3   OH2 3488   0.801   0.396   2.423 -0.1008  0.3667 -0.3900
 1175TIP3    H1 3489   0.786   0.367   2.513 -0.1910  0.5123 -0.3577
 1175TIP3    H2 3490   0.787   0.318   2.370 -1.5155  0.6177 -0.4204
 1176TIP3   OH2 3491   1.296   0.246   5.505  0.2007 -0.0131  0.0336
 1176TIP3    H1 3492   1.279   0.174   5.443 -0.8268  0.1753  0.0893
 1176TIP3    H2 3493   1.392   0.249   5.511  0.2719 -1.1672 -0.2193
 1177TIP3   OH2 3494   4.148   5.114   4.687  0.0144  0.1860 -0.4764
 1177TIP3    H1 3495   4.068   5.101   4.737  0.1746 -3.1241 -0.8677
 1177TIP3    H2 3496   4.117   5.137   4.599 -0.6142 -1.7309 -0.8070
 1178TIP3   OH2 3497   2.351   2.794   2.700 -0.0428 -0.0217 -0.0958
 1178TIP3    H1 3498   2.341   2.873   2.646 -1.3036  0.4700  0.8168
 1178TIP3    H2 3499   2.401   2.823   2.776  0.5776 -0.4109 -0.3455
 1179TIP3   OH2 3500   3.076   5.656   4.114  0.2146  0.0934 -0.1826
 1179TIP3    H1 3501   3.161   5.662   4.157  0.5285  1.8461 -0.9754
 1179TIP3    H2 3502   3.041   5.745   4.117 -0.2702  0.0327 -2.5230
 1180TIP3   OH2 3503   3.027   2.449   5.630 -0.1818 -0.4735  0.0734
 1180TIP3    H1 3504   2.932   2.435   5.630 -0.5762  1.7861 -0.9734
 1180TIP3    H2 3505   3.046   2.481   5.718  0.1356 -3.4597  1.2108
 1181TIP3   OH2 3506   6.303   0.882   0.850  0.5282  0.2958 -0.6500
 1181TIP3    H1 3507   6.342   0.808   0.896 -2.0195 -1.2204 -0.7193
 1181TIP3    H2 3508   6.294   0.950   0.917  0.5148 -0.4289  0.1036
 1182TIP3   OH2 3509   2.426   2.669   2.434 -0.3365  0.5982 -0.1716
 1182TIP3    H1 3510   2.368   2.695   2.506 -0.0496  0.0564  0.2614
 1182TIP3    H2 3511   2.508   2.644   2.477  0.3243  1.6277 -0.7988
 1183TIP3   OH2 3512   2.691   0.739   0.190  0.2022  0.2552  0.6969
 1183TIP3    H1 3513   2.747   0.771   0.261  0.9532  2.9210 -0.9434
 1183TIP3    H2 3514   2.691   0.810   0.126 -4.2420 -0.0362  0.0990
 1184TIP3   OH2 3515   6.830   4.730   2.658  0.7752 -0.2161  0.4589
 1184TIP3    H1 3516   6.828   4.684   2.742 -0.1416 -1.4875 -0.2230
 1184TIP3    H2 3517   6.749   4.780   2.655  0.0953 -1.3030 -0.2354
 1185TIP3   OH2 3518   0.787   6.206   2.808  0.5267 -0.7544  0.1722
 1185TIP3    H1 3519   0.789   6.224   2.714 -2.6016 -2.2199 -0.2792
 1185TIP3    H2 3520   0.723   6.268   2.844 -1.1048 -2.6013  0.6302
 1186TIP3   OH2 3521   6.624   1.362   0.994  0.4227  0.5837  0.4993
 1186TIP3    H1 3522   6.625   1.274   1.032 -0.5418  0.5732  0.5299
 1186TIP3    H2 3523   6.549   1.361   0.934  0.3557  1.4042  0.5568
 1187TIP3   OH2 3524   5.455   1.253   5.608  0.3837 -0.3735  0.4421
 1187TIP3    H1 3525   5.388   1.199   5.650  1.8573 -2.7775 -0.0814
 1187TIP3    H2 3526   5.536   1.230   5.654  1.2312  0.6811 -0.4680
 1188TIP3   OH2 3527   2.605   2.329   1.023  0.3718 -0.2400 -0.0487
 1188TIP3    H1 3528   2.579   2.385   1.095  1.5826  1.0560 -0.5838
 1188TIP3    H2 3529   2.682   2.282   1.055 -0.8639 -1.9946  0.5470
 1189TIP3   OH2 3530   1.554   5.711   2.821 -0.0242 -0.3869 -0.0571
 1189TIP3    H1 3531   1.500   5.780   2.859  0.1044 -0.0770 -0.4399
 1189TIP3    H2 3532   1.608   5.755   2.756 -0.4802 -0.9775 -0.8442
 1190TIP3   OH2 3533   1.227   1.985   5.687 -0.6655  0.4245  0.2879
 1190TIP3    H1 3534   1.285   1.932   5.632 -1.1438  1.1935 -1.0163
 1190TIP3    H2 3535   1.149   1.997   5.633 -1.6397  0.2578  1.6138
 1191TIP3   OH2 3536   1.964   0.664   4.265 -0.4338  0.1428 -0.1789
 1191TIP3    H1 3537   1.955   0.571   4.284 -0.6406  0.7859  3.5333
 1191TIP3    H2 3538   1.874   0.693   4.247 -1.0412  0.2132  2.5025
 1192TIP3   OH2 3539   2.668   3.612   1.441  0.2800  0.2375  0.5171
 1192TIP3    H1 3540   2.620   3.550   1.495  0.4253 -1.6142 -1.3844
 1192TIP3    H2 3541   2.760   3.602   1.468  0.1107  1.0193  1.4760
 1193TIP3   OH2 3542   2.774   2.059   4.890  0.2336  0.1737  0.2060
 1193TIP3    H1 3543   2.680   2.055   4.870  0.3630  1.0980 -0.6696
 1193TIP3    H2 3544   2.815   2.080   4.806  1.0606  1.4068  0.8829
 1194TIP3   OH2 3545   6.171   5.415   1.250 -0.3834  0.1719 -0.3810
 1194TIP3    H1 3546   6.097   5.458   1.207 -0.8083  0.5365  0.6637
 1194TIP3    H2 3547   6.137   5.394   1.338  0.2148 -1.1821 -0.4600
 1195TIP3   OH2 3548   2.632   3.984   2.087 -0.5118  0.3829 -0.2586
 1195TIP3    H1 3549   2.595   4.061   2.130 -0.9052  0.1749 -0.2210
 1195TIP3    H2 3550   2.623   4.001   1.994  1.6783  1.4941 -0.3251
 1196TIP3   OH2 3551   5.727   0.527   3.478 -0.3132  0.3155 -0.2354
 1196TIP3    H1 3552   5.820   0.504   3.470  0.3542  1.8306  2.1488
 1196TIP3    H2 3553   5.696   0.532   3.388  1.6378 -1.2548 -1.0748
 1197TIP3   OH2 3554   3.336   5.954   1.661  0.3506 -0.0113  0.1808
 1197TIP3    H1 3555   3.342   5.962   1.757 -1.2361  0.3043  0.2800
 1197TIP3    H2 3556   3.305   5.864   1.647 -2.1345  0.7801  0.1492
 1198TIP3   OH2 3557   1.536   1.464   5.365  0.1955 -0.2592 -0.1662
 1198TIP3    H1 3558   1.459   1.521   5.365  0.9540  0.8671  1.7612
 1198TIP3    H2 3559   1.504   1.380   5.331 -1.5230  0.5932 -0.7854
 1199TIP3   OH2 3560   1.935   3.722   2.121 -0.1243 -0.0957  0.1334
 1199TIP3    H1 3561   1.888   3.698   2.041  0.2682 -0.8654  0.1262
 1199TIP3    H2 3562   2.020   3.752   2.090  0.1610 -0.7422  0.2812
 1200TIP3   OH2 3563   5.581   3.679   3.310  0.4395  0.3888 -0.2473
 1200TIP3    H1 3564   5.487   3.674   3.294  0.9429 -1.0999 -3.5899
 1200TIP3    H2 3565   5.598   3.772   3.324 -1.2535  0.9999 -1.8901
 1201TIP3   OH2 3566   6.774   0.837   4.388 -0.2977 -0.1433  0.2876
 1201TIP3    H1 3567   6.784   0.758   4.441 -0.2930 -1.3623 -1.4447
 1201TIP3    H2 3568   6.864   0.864   4.368 -0.2771 -0.9940 -0.8957
 1202TIP3   OH2 3569   5.861   2.841   4.866  0.3411 -0.0453  0.1858
 1202TIP3    H1 3570   5.844   2.929   4.831  3.2488  0.7311  0.5104
 1202TIP3    H2 3571   5.857   2.852   4.961  1.9219  0.0637  0.2618
 1203TIP3   OH2 3572   3.576   3.394   5.614  0.3779 -0.2723 -0.2124
 1203TIP3    H1 3573   3.568   3.299   5.605  1.3269 -0.2083 -2.2279
 1203TIP3    H2 3574   3.496   3.420   5.661 -0.3976 -1.9460 -0.5314
 1204TIP3   OH2 3575   0.805   4.287   4.508 -0.1947  0.7002  0.7456
 1204TIP3    H1 3576   0.879   4.302   4.567  0.3453  1.4587 -0.0822
 1204TIP3    H2 3577   0.834   4.326   4.425 -1.0491 -0.0838  0.0728
 1205TIP3   OH2 3578   5.132   5.517   5.357  0.4281 -0.0798  0.1749
 1205TIP3    H1 3579   5.038   5.527   5.343  0.7237  0.2021 -1.9673
 1205TIP3    H2 3580   5.139   5.484   5.446 -1.8083 -1.7438 -0.1676
 1206TIP3   OH2 3581   1.299   4.991   4.745  0.4975 -0.2241  0.0071
 1206TIP3    H1 3582   1.341   5.068   4.707  1.2154 -1.6570 -2.2905
 1206TIP3    H2 3583   1.228   4.969   4.685 -0.4349 -0.7169  1.2388
 1207TIP3   OH2 3584   0.408   2.124   2.994 -0.2117 -0.1224  0.1081
 1207TIP3    H1 3585   0.416   2.102   2.901  1.0406  0.5538  0.0402
 1207TIP3    H2 3586   0.450   2.050   3.040  2.7068  1.2890 -0.0650
 1208TIP3   OH2 3587   4.019   6.024   4.079 -0.4783  0.3514  0.1261
 1208TIP3    H1 3588   4.107   6.053   4.056 -0.6439  1.0702  0.3711
 1208TIP3    H2 3589   3.980   6.099   4.125 -1.6569  0.5381 -1.0848
 1209TIP3   OH2 3590   5.832   2.961   2.173  0.1840 -0.7720  0.3748
 1209TIP3    H1 3591   5.881   3.043   2.174 -1.0177  0.0089 -0.9285
 1209TIP3    H2 3592   5.770   2.970   2.246 -1.6421  0.6311 -1.2514
 1210TIP3   OH2 3593   5.230   1.550   3.756 -0.4057 -0.2009  0.0509
 1210TIP3    H1 3594   5.219   1.457   3.773 -1.9263  0.3000  2.2494
 1210TIP3    H2 3595   5.308   1.556   3.701  1.8374 -2.5164  2.7154
 1211TIP3   OH2 3596   3.401   2.014   1.412 -0.3087  0.3406  0.6391
 1211TIP3    H1 3597   3.357   1.938   1.376  1.0533  0.0271 -0.4193
 1211TIP3    H2 3598   3.494   1.993   1.408  0.0069  1.2046  2.3166
 1212TIP3   OH2 3599   0.015   1.677   3.310  0.9799 -0.8136 -0.2183
 1212TIP3    H1 3600   0.083   1.739   3.283  2.0445 -1.2672  1.3208
 1212TIP3    H2 3601  -0.054   1.733   3.347  1.2911 -0.4610 -0.1653
 1213TIP3   OH2 3602   5.560   0.472   2.254  0.3531 -0.4243 -0.0970
 1213TIP3    H1 3603   5.585   0.433   2.171  4.6795 -0.8077  1.1326
 1213TIP3    H2 3604   5.596   0.412   2.320 -0.9562  0.9907  2.0179
 1214TIP3   OH2 3605   5.802   3.671   4.578 -0.4615  0.3860 -0.7102
 1214TIP3    H1 3606   5.826   3.720   4.499 -2.4969  0.5356 -1.2881
 1214TIP3    H2 3607   5.706   3.677   4.582 -0.6049 -1.7137  0.4068
 1215TIP3   OH2 3608   2.267   4.407   1.910  0.0320  0.0278 -0.0634
 1215TIP3    H1 3609   2.305   4.398   1.997 -1.6304 -0.5172  0.6522
 1215TIP3    H2 3610   2.173   4.418   1.925 -0.2353  0.4943 -1.7714
 1216TIP3   OH2 3611   6.974   3.031   0.195  0.0566 -0.6998 -0.8415
 1216TIP3    H1 3612   7.008   2.974   0.264 -0.2864 -0.7763 -0.7363
 1216TIP3    H2 3613   7.051   3.081   0.166  0.2160 -0.7021 -0.4392
 1217TIP3   OH2 3614   0.962   1.637   1.222 -0.0554  0.3771 -0.3905
 1217TIP3    H1 3615   1.024   1.601   1.159 -0.0552  0.2624 -0.3262
 1217TIP3    H2 3616   0.941   1.724   1.189  1.7173  1.2527  0.6789
 1218TIP3   OH2 3617   4.451   5.455   4.073 -0.0338  0.3936  0.6997
 1218TIP3    H1 3618   4.543   5.442   4.051 -0.6367 -0.7113 -1.4828
 1218TIP3    H2 3619   4.439   5.550   4.075  1.1909  0.5477  1.2898
 1219TIP3   OH2 3620   6.942   6.184   3.272  0.0333 -0.0179 -0.4647
 1219TIP3    H1 3621   6.978   6.232   3.347  0.6686  0.5363 -1.1137
 1219TIP3    H2 3622   7.018   6.164   3.217 -0.4591 -0.1787 -1.1065
 1220TIP3   OH2 3623   6.380   6.641   3.758  0.6362 -0.3869  0.1318
 1220TIP3    H1 3624   6.330   6.591   3.823 -0.3928 -0.6791 -0.8580
 1220TIP3    H2 3625   6.452   6.680   3.808 -0.1029 -0.6388  1.4339
 1221TIP3   OH2 3626   4.862   4.509   2.681  0.2656  0.1431 -0.2897
 1221TIP3    H1 3627   4.860   4.512   2.777  0.5501 -0.3283 -0.2649
 1221TIP3    H2 3628   4.941   4.460   2.660 -0.3921 -0.7691 -0.7371
 1222TIP3   OH2 3629   7.131   4.079   4.907 -0.1859  0.2728 -0.4635
 1222TIP3    H1 3630   7.190   4.009   4.880  1.3291  0.5887  1.7360
 1222TIP3    H2 3631   7.064   4.082   4.839  0.7722 -1.9907 -1.6072
 1223TIP3   OH2 3632   2.193   0.097   2.147 -0.1501 -0.3024  0.0564
 1223TIP3    H1 3633   2.147   0.136   2.073  0.5067  0.4010  0.0179
 1223TIP3    H2 3634   2.184   0.161   2.218 -1.2156 -1.1849  0.7759
 1224TIP3   OH2 3635   2.235   2.077   3.171  0.1643  0.1363  0.0230
 1224TIP3    H1 3636   2.170   2.013   3.199  0.8666 -0.4360  0.3519
 1224TIP3    H2 3637   2.183   2.149   3.136 -0.6732  0.0549  1.0596
 1225TIP3   OH2 3638   2.520   5.778   4.118 -0.2898  0.7374  0.5366
 1225TIP3    H1 3639   2.610   5.748   4.107 -0.4718 -0.0749  1.1078
 1225TIP3    H2 3640   2.499   5.757   4.209 -1.9198 -1.5937 -0.2849
 1226TIP3   OH2 3641   1.516   2.363   4.254  0.5724  0.4437 -0.3525
 1226TIP3    H1 3642   1.592   2.356   4.197  0.4259  0.7313 -0.5864
 1226TIP3    H2 3643   1.552   2.374   4.342  0.8107 -0.7931 -0.2652
 1227TIP3   OH2 3644   2.038   1.889   0.117  0.0123  0.5002  0.1024
 1227TIP3    H1 3645   1.987   1.905   0.196 -0.9366 -1.6384  0.0092
 1227TIP3    H2 3646   2.104   1.824   0.144 -0.5482 -0.5242 -0.8921
 1228TIP3   OH2 3647   6.911   3.191   5.812  0.5725 -0.0839  0.3182
 1228TIP3    H1 3648   6.978   3.146   5.759 -0.1769 -0.0456 -0.7013
 1228TIP3    H2 3649   6.908   3.279   5.775  2.2296  0.9560  2.4826
 1229TIP3   OH2 3650   3.829   2.148   2.864 -0.1714  0.1804 -0.4564
 1229TIP3    H1 3651   3.833   2.095   2.943 -0.7858 -0.2756 -0.7220
 1229TIP3    H2 3652   3.865   2.233   2.890  1.6738 -0.6180 -0.2456
 1230TIP3   OH2 3653   5.841   2.145   3.901  0.1069 -0.1631 -0.5035
 1230TIP3    H1 3654   5.831   2.195   3.820 -0.7796  1.0504  0.3281
 1230TIP3    H2 3655   5.935   2.150   3.921 -0.0277  1.6911 -0.1436
 1231TIP3   OH2 3656   7.043   2.405   5.898 -0.2638  0.6825 -0.2065
 1231TIP3    H1 3657   7.049   2.317   5.861  0.2065  0.1685  1.0472
 1231TIP3    H2 3658   7.069   2.463   5.826  0.0670 -0.2412 -0.8510
 1232TIP3   OH2 3659   4.453   4.174   3.578 -0.8992  0.1926 -0.1041
 1232TIP3    H1 3660   4.437   4.157   3.485  0.9107  1.3025 -0.6862
 1232TIP3    H2 3661   4.524   4.239   3.578 -0.2526 -0.4337  2.0709
 1233TIP3   OH2 3662   0.283   6.605   1.896  0.1740 -0.1633  0.1456
 1233TIP3    H1 3663   0.340   6.638   1.965 -0.4643 -0.2565  0.7302
 1233TIP3    H2 3664   0.304   6.659   1.820  0.5352  0.2723  0.5458
 1234TIP3   OH2 3665   2.789   1.816   4.695 -0.0250 -0.4370  0.7286
 1234TIP3    H1 3666   2.754   1.746   4.640 -1.3039  0.3455  0.5013
 1234TIP3    H2 3667   2.872   1.839   4.653 -0.3217 -0.7782 -0.0886
 1235TIP3   OH2 3668   0.856   6.796   4.019 -0.3028 -0.2232 -0.0600
 1235TIP3    H1 3669   0.841   6.811   4.112 -1.2633 -1.1948 -0.0371
 1235TIP3    H2 3670   0.924   6.729   4.017  0.9610  1.0210 -0.1029
 1236TIP3   OH2 3671   2.784   5.752   1.229 -0.8876  0.9905  0.3467
 1236TIP3    H1 3672   2.723   5.750   1.155  1.9168 -0.0334 -2.1342
 1236TIP3    H2 3673   2.785   5.843   1.257 -1.7683  1.5117 -1.1659
 1237TIP3   OH2 3674   2.802   3.650   5.665 -0.1084 -0.4656  0.0611
 1237TIP3    H1 3675   2.819   3.672   5.756 -1.2672 -0.5747  0.3128
 1237TIP3    H2 3676   2.839   3.723   5.615  0.1121 -0.1826  0.6350
 1238TIP3   OH2 3677   1.930   6.195   1.076  0.0082  0.5344  0.5833
 1238TIP3    H1 3678   2.009   6.232   1.114  0.2681  1.9740 -1.1945
 1238TIP3    H2 3679   1.918   6.243   0.994 -1.2346 -1.4704 -0.5092
 1239TIP3   OH2 3680   4.200   0.467   5.533  0.5540  0.0071 -0.5151
 1239TIP3    H1 3681   4.266   0.434   5.595  0.6056 -0.5915 -0.8774
 1239TIP3    H2 3682   4.251   0.492   5.456  0.4699  0.5793 -0.3882
 1240TIP3   OH2 3683   1.433   3.812   5.548  0.4050 -0.2739 -0.2657
 1240TIP3    H1 3684   1.459   3.803   5.457 -1.0349  1.5573 -0.9130
 1240TIP3    H2 3685   1.432   3.906   5.564 -0.4470 -0.5150  1.3218
 1241TIP3   OH2 3686   2.733   2.092   3.361  0.2161 -0.1322 -0.2193
 1241TIP3    H1 3687   2.771   2.117   3.277  1.1016 -1.5642 -0.2879
 1241TIP3    H2 3688   2.640   2.078   3.343  0.1842  0.6742 -0.6926
 1242TIP3   OH2 3689   7.174   6.128   4.298 -0.7172 -0.3605 -0.1593
 1242TIP3    H1 3690   7.079   6.138   4.285 -1.3637 -0.9449  3.1249
 1242TIP3    H2 3691   7.210   6.212   4.269 -2.1367 -0.2927 -1.9304
 1243TIP3   OH2 3692   5.141   1.982   3.362  0.4277  0.4587  0.2841
 1243TIP3    H1 3693   5.139   2.005   3.455  0.4777 -0.6074  0.5536
 1243TIP3    H2 3694   5.125   1.888   3.360 -1.0942  0.7163 -0.8891
 1244TIP3   OH2 3695   2.839   2.057   1.640  0.2829 -0.0076  0.1593
 1244TIP3    H1 3696   2.903   2.128   1.642 -0.7690  0.9685  1.6294
 1244TIP3    H2 3697   2.774   2.082   1.705 -1.3465 -1.2095 -0.9302
 1245TIP3   OH2 3698   1.350   0.220   0.669 -0.0569 -0.2986 -0.0979
 1245TIP3    H1 3699   1.259   0.211   0.695  0.2502 -0.1562  1.0942
 1245TIP3    H2 3700   1.397   0.153   0.719  0.6551  0.4417  0.2567
 1246TIP3   OH2 3701   0.988   3.605   3.835  0.0770  0.0886 -0.1152
 1246TIP3    H1 3702   1.025   3.682   3.792 -0.6891  2.6222  3.3412
 1246TIP3    H2 3703   1.062   3.546   3.847  2.0957  2.8407  2.1870
 1247TIP3   OH2 3704   4.644   3.199   0.952 -0.0129 -0.3812  0.8149
 1247TIP3    H1 3705   4.721   3.163   0.997 -0.1549 -0.7732  0.7424
 1247TIP3    H2 3706   4.596   3.122   0.921 -0.0238 -0.1203  0.1678
 1248TIP3   OH2 3707   6.931   0.862   5.721  0.2804  0.0560  0.3563
 1248TIP3    H1 3708   7.024   0.882   5.719  0.3694 -0.3544  0.1048
 1248TIP3    H2 3709   6.909   0.839   5.631 -0.1728  0.6039  0.3170
 1249TIP3   OH2 3710   4.532   4.501   4.794  0.4794  0.1172  0.0001
 1249TIP3    H1 3711   4.456   4.531   4.745  0.5100  1.4091  0.7037
 1249TIP3    H2 3712   4.558   4.419   4.750 -1.0371 -0.1267 -0.5021
 1250TIP3   OH2 3713   3.072   4.220   4.998 -0.5770 -0.4994  0.0197
 1250TIP3    H1 3714   3.132   4.210   5.071 -0.2654 -0.4130 -0.2226
 1250TIP3    H2 3715   3.001   4.274   5.033 -0.1693 -0.0123  0.1108
 1251TIP3   OH2 3716   3.827   2.367   1.500  0.1084  0.0427 -0.3529
 1251TIP3    H1 3717   3.735   2.387   1.519  0.0051 -1.0800  0.4351
 1251TIP3    H2 3718   3.839   2.279   1.535  1.2802 -0.1265 -1.1689
 1252TIP3   OH2 3719   6.528   6.226   2.212 -0.4958 -0.0743  0.0254
 1252TIP3    H1 3720   6.575   6.291   2.264  0.3702  0.3628 -1.2612
 1252TIP3    H2 3721   6.469   6.183   2.275  0.7826  0.1545  1.4385
 1253TIP3   OH2 3722   2.654   4.760   1.451  0.1047 -0.4843  0.0334
 1253TIP3    H1 3723   2.728   4.745   1.392 -0.0923 -0.6769 -0.1660
 1253TIP3    H2 3724   2.590   4.807   1.398 -0.0797 -0.6719  0.0881
 1254TIP3   OH2 3725   2.083   5.765   3.529  0.0685 -0.2775  0.3859
 1254TIP3    H1 3726   2.105   5.719   3.610  2.6910  1.8840  1.0371
 1254TIP3    H2 3727   2.165   5.769   3.480 -0.9136  0.5852 -1.2690
 1255TIP3   OH2 3728   5.294   3.774   1.821  0.3109  0.0161 -0.5379
 1255TIP3    H1 3729   5.381   3.735   1.834  0.1963  0.1029  0.6189
 1255TIP3    H2 3730   5.282   3.829   1.898 -0.5000  0.5180 -1.0221
 1256TIP3   OH2 3731   4.666   3.993   4.659 -0.1441  0.3871 -0.1921
 1256TIP3    H1 3732   4.612   3.974   4.583 -0.4350  0.9428 -0.1305
 1256TIP3    H2 3733   4.669   3.911   4.708  0.2078 -0.0243 -0.9008
 1257TIP3   OH2 3734   1.315   1.738   0.195  0.0844 -0.2852  0.1753
 1257TIP3    H1 3735   1.370   1.814   0.215  0.5468 -0.1515 -1.4950
 1257TIP3    H2 3736   1.370   1.662   0.216  0.4353 -0.1570 -0.2928
 1258TIP3   OH2 3737   3.960   5.518   0.844 -0.0181 -0.2602  0.3856
 1258TIP3    H1 3738   3.984   5.546   0.756 -0.1073 -0.3209  0.3417
 1258TIP3    H2 3739   4.032   5.547   0.899  0.6321 -1.2919  0.1097
 1259TIP3   OH2 3740   1.471   5.679   5.767 -0.1974 -0.1725 -0.1105
 1259TIP3    H1 3741   1.497   5.587   5.763 -0.1119 -0.3087  2.1585
 1259TIP3    H2 3742   1.377   5.677   5.751 -0.0160 -0.4873 -1.2639
 1260TIP3   OH2 3743   2.655   6.558   4.392  0.2249 -0.3250 -0.0642
 1260TIP3    H1 3744   2.654   6.628   4.327 -0.2146 -0.6055 -0.3626
 1260TIP3    H2 3745   2.588   6.497   4.363 -0.0043 -0.4383  0.6755
 1261TIP3   OH2 3746   3.165   2.960   2.119  0.1150 -0.2439 -0.0478
 1261TIP3    H1 3747   3.177   3.022   2.191  2.8293 -0.5913 -0.1068
 1261TIP3    H2 3748   3.164   3.015   2.041 -3.6473  0.2244  0.1234
 1262TIP3   OH2 3749   0.018   0.565   5.473  0.1800 -0.3311 -0.3822
 1262TIP3    H1 3750   0.041   0.647   5.516 -0.8836  0.4981 -1.3236
 1262TIP3    H2 3751   0.037   0.581   5.381 -0.1351 -1.1087 -0.5842
 1263TIP3   OH2 3752   4.241   6.798   0.038  0.0038 -0.0656  0.0694
 1263TIP3    H1 3753   4.165   6.776   0.091  0.3627 -1.7381 -0.0626
 1263TIP3    H2 3754   4.214   6.781  -0.052  0.1783  0.4209 -0.0772
 1264TIP3   OH2 3755   2.429   2.375   5.597 -0.5974 -0.5787  0.4226
 1264TIP3    H1 3756   2.430   2.460   5.639  0.8556 -0.9095  1.1050
 1264TIP3    H2 3757   2.346   2.373   5.549  0.0214  1.8110 -0.8775
 1265TIP3   OH2 3758   3.133   2.902   1.067  0.3757 -0.4550 -0.1154
 1265TIP3    H1 3759   3.217   2.885   1.110  0.7422  0.2223 -0.5511
 1265TIP3    H2 3760   3.124   2.831   1.004 -0.9328 -2.4291  2.1142
 1266TIP3   OH2 3761   0.223   4.464   4.146 -0.3152  0.3443 -0.0186
 1266TIP3    H1 3762   0.241   4.479   4.239  2.5490  1.6528 -0.6676
 1266TIP3    H2 3763   0.250   4.373   4.131  1.7741  0.9146 -0.0234
 1267TIP3   OH2 3764   0.068   4.773   1.363 -0.1711  0.4923 -0.0275
 1267TIP3    H1 3765   0.095   4.811   1.446 -0.2419 -0.5414  0.4750
 1267TIP3    H2 3766   0.148   4.737   1.325 -0.5229 -1.2595  0.7812
 1268TIP3   OH2 3767   1.905   0.066   4.748  0.1122 -0.0787 -0.5047
 1268TIP3    H1 3768   1.924   0.043   4.839  0.6589  0.6500 -0.4307
 1268TIP3    H2 3769   1.990   0.089   4.711 -0.2457  0.5701 -0.9329
 1269TIP3   OH2 3770   0.968   1.558   4.288 -0.0528  0.3243  0.0918
 1269TIP3    H1 3771   0.971   1.462   4.293  0.7951  0.3953  1.2277
 1269TIP3    H2 3772   0.875   1.579   4.300 -0.1967 -0.3302  0.1809
 1270TIP3   OH2 3773   2.540   3.396   1.557 -0.4623  0.3840 -0.0200
 1270TIP3    H1 3774   2.503   3.432   1.637 -0.1643  0.7288 -0.0354
 1270TIP3    H2 3775   2.510   3.305   1.555  1.2122 -0.2851  1.5897
 1271TIP3   OH2 3776   5.473   6.627   4.259 -0.2753  0.8962  0.0644
 1271TIP3    H1 3777   5.381   6.654   4.261 -0.8125 -0.8204 -0.1741
 1271TIP3    H2 3778   5.485   6.576   4.339  0.2626  0.4655 -0.2843
 1272TIP3   OH2 3779   2.323   1.431   0.579  0.0893 -0.0220  0.0989
 1272TIP3    H1 3780   2.386   1.425   0.651  0.7879 -0.1636 -0.5069
 1272TIP3    H2 3781   2.272   1.510   0.597  2.9752  2.3836 -1.3365
 1273TIP3   OH2 3782   6.769   4.124   1.070 -0.1155  0.1397 -0.0904
 1273TIP3    H1 3783   6.822   4.179   1.128 -2.6061  1.0723  1.4488
 1273TIP3    H2 3784   6.833   4.078   1.016  2.1589  3.2803 -0.3326
 1274TIP3   OH2 3785   5.230   1.340   5.277  0.1049  0.0914 -0.1901
 1274TIP3    H1 3786   5.308   1.363   5.328  0.4995 -0.1938 -0.6527
 1274TIP3    H2 3787   5.159   1.388   5.319  0.5964  0.6700 -0.0002
 1275TIP3   OH2 3788   6.732   0.718   0.378  0.0467 -0.3638  0.1341
 1275TIP3    H1 3789   6.652   0.738   0.426 -0.3255 -1.1335 -0.1584
 1275TIP3    H2 3790   6.711   0.737   0.287  0.8005  1.2498  0.2544
 1276TIP3   OH2 3791   2.224   4.548   0.946 -0.2794  0.1405  0.2984
 1276TIP3    H1 3792   2.253   4.542   1.037  0.8332  0.8720  0.0112
 1276TIP3    H2 3793   2.272   4.623   0.911 -3.3413  2.1410  0.0676
 1277TIP3   OH2 3794   6.023   1.050   5.127 -0.1841  0.4753  0.1325
 1277TIP3    H1 3795   6.051   1.123   5.073  0.0958  0.6493  0.5073
 1277TIP3    H2 3796   6.005   1.089   5.213 -2.9828  0.6404 -0.4363
 1278TIP3   OH2 3797   2.308   1.395   3.792 -0.0470  0.0917  0.0921
 1278TIP3    H1 3798   2.399   1.366   3.794  0.1627  0.6813 -0.2847
 1278TIP3    H2 3799   2.303   1.465   3.857  0.2391  1.3053 -1.1512
 1279TIP3   OH2 3800   5.778   2.088   4.958  0.1180 -0.1867  0.1159
 1279TIP3    H1 3801   5.863   2.100   4.916  1.0385 -0.1683  1.9251
 1279TIP3    H2 3802   5.757   1.996   4.942  1.1896 -0.5882  0.8781
 1280TIP3   OH2 3803   1.726   4.473   0.720  0.4637 -0.1434  0.2675
 1280TIP3    H1 3804   1.743   4.497   0.629 -2.3653 -0.6212 -0.4601
 1280TIP3    H2 3805   1.709   4.379   0.717  0.7556 -0.2490  1.3966
 1281TIP3   OH2 3806   0.695   0.468   2.771 -0.5653 -0.1654 -0.2101
 1281TIP3    H1 3807   0.708   0.385   2.726 -0.2730 -0.8304  1.0432
 1281TIP3    H2 3808   0.602   0.469   2.793 -0.7530  0.2580 -0.9877
 1282TIP3   OH2 3809   6.273   3.341   1.571  0.5993  0.2120 -0.1546
 1282TIP3    H1 3810   6.208   3.401   1.534  0.9532  0.5466 -0.2468
 1282TIP3    H2 3811   6.352   3.357   1.518  1.5273  1.6591  1.5614
 1283TIP3   OH2 3812   6.470   3.943   2.264 -0.2849  0.2242 -0.3100
 1283TIP3    H1 3813   6.383   3.922   2.232  0.1257 -1.7291 -0.2890
 1283TIP3    H2 3814   6.460   3.947   2.359 -0.2654 -0.6329 -0.2586
 1284TIP3   OH2 3815   6.483   5.153   1.218 -0.3989  0.2723  0.0963
 1284TIP3    H1 3816   6.546   5.130   1.149 -1.6314 -0.0274 -0.9767
 1284TIP3    H2 3817   6.435   5.227   1.182 -2.3782 -1.1058 -0.2572
 1285TIP3   OH2 3818   6.002   4.706   0.957  0.2970  0.5817 -0.0452
 1285TIP3    H1 3819   5.966   4.762   0.888  0.4412  0.6023 -0.1051
 1285TIP3    H2 3820   6.072   4.656   0.913  0.5734  0.7934  0.1465
 1286TIP3   OH2 3821   4.407   2.687   5.281  0.8263  0.3699 -0.2486
 1286TIP3    H1 3822   4.326   2.637   5.271  0.2721  1.4233 -1.1471
 1286TIP3    H2 3823   4.474   2.631   5.243  0.3503 -0.0523 -0.4841
 1287TIP3   OH2 3824   3.216   5.004   5.001 -0.4436  0.4549  0.0298
 1287TIP3    H1 3825   3.172   4.976   5.081  0.8438 -1.8189  0.0360
 1287TIP3    H2 3826   3.307   5.017   5.026 -0.3574  1.4043 -0.7223
 1288TIP3   OH2 3827   7.069   2.946   0.475 -0.2565  0.5333 -0.3441
 1288TIP3    H1 3828   7.140   3.006   0.500  1.0730 -0.8790 -0.5755
 1288TIP3    H2 3829   6.997   2.969   0.533  0.9503  0.8942  1.0923
 1289TIP3   OH2 3830   2.966   5.379   4.549  0.2159  0.1401 -0.2561
 1289TIP3    H1 3831   2.990   5.425   4.629 -0.0241 -0.7669  0.3522
 1289TIP3    H2 3832   2.870   5.372   4.553  0.3020 -1.2120  0.1404
 1290TIP3   OH2 3833   6.593   4.262   0.127  0.0443 -0.8539  0.3020
 1290TIP3    H1 3834   6.624   4.246   0.216  1.4134 -0.7090 -0.1306
 1290TIP3    H2 3835   6.545   4.182   0.104  0.3710 -1.2248  0.8785
 1291TIP3   OH2 3836   3.526   4.441   1.532  0.0256 -0.1928  0.5577
 1291TIP3    H1 3837   3.608   4.433   1.483 -0.2090  3.5082 -0.7382
 1291TIP3    H2 3838   3.461   4.397   1.477  0.3964  0.8594 -0.7831
 1292TIP3   OH2 3839   5.007   4.320   3.306 -1.0507 -0.2861  0.5933
 1292TIP3    H1 3840   5.092   4.284   3.280 -1.0281  0.2640 -0.1491
 1292TIP3    H2 3841   5.019   4.415   3.302 -1.9990 -0.1876 -0.5957
 1293TIP3   OH2 3842   2.003   4.852   5.800 -0.0185  0.5547  0.0971
 1293TIP3    H1 3843   2.010   4.930   5.855 -1.4209  0.5530  0.3106
 1293TIP3    H2 3844   1.963   4.786   5.856 -3.2844  1.1034 -1.3631
 1294TIP3   OH2 3845   3.534   3.591   1.901 -0.5713  0.4447 -0.0729
 1294TIP3    H1 3846   3.471   3.549   1.960  0.5653 -2.1133 -0.5170
 1294TIP3    H2 3847   3.608   3.615   1.957 -0.1070 -0.6668 -0.1691
 1295TIP3   OH2 3848   3.552   0.915   3.019 -0.2828 -0.2688 -0.0044
 1295TIP3    H1 3849   3.629   0.860   3.032  1.4576  2.0191 -0.1607
 1295TIP3    H2 3850   3.498   0.865   2.958  1.5623 -1.5027 -0.7264
 1296TIP3   OH2 3851   1.648   2.262   4.725 -0.7106  0.5848 -0.2295
 1296TIP3    H1 3852   1.612   2.185   4.769  1.1587  0.9366  2.1214
 1296TIP3    H2 3853   1.637   2.333   4.789  2.1740  1.1137 -0.1867
 1297TIP3   OH2 3854   1.758   6.730   1.100  0.3448 -0.1515  0.0989
 1297TIP3    H1 3855   1.697   6.656   1.096  1.3572 -0.9656 -1.6612
 1297TIP3    H2 3856   1.744   6.768   1.187 -0.7681 -1.9288  0.7578
 1298TIP3   OH2 3857   1.533   1.134   0.965 -0.0252 -0.2501 -0.0323
 1298TIP3    H1 3858   1.613   1.186   0.953 -1.5480  2.2069 -0.2144
 1298TIP3    H2 3859   1.509   1.106   0.877  0.5895 -0.9956  0.0225
 1299TIP3   OH2 3860   3.078   1.397   0.160 -0.1223  0.1008  0.2385
 1299TIP3    H1 3861   3.026   1.474   0.139 -1.3182 -0.6122  0.5020
 1299TIP3    H2 3862   3.132   1.424   0.234  0.2900  1.0144 -0.3788
 1300TIP3   OH2 3863   4.001   6.338   3.579 -0.1379 -0.5205  0.3550
 1300TIP3    H1 3864   3.949   6.417   3.565 -0.9783 -1.4113 -2.2447
 1300TIP3    H2 3865   3.971   6.304   3.663  0.7830  2.2283  1.9147
 1301TIP3   OH2 3866   0.934   5.157   4.851  0.1802  0.4186 -0.0535
 1301TIP3    H1 3867   0.902   5.248   4.852  1.2750  0.8094  0.2535
 1301TIP3    H2 3868   0.986   5.151   4.771  1.2627  0.4823  0.6311
 1302TIP3   OH2 3869   3.664   5.274   3.678 -0.2510 -0.3511  0.1442
 1302TIP3    H1 3870   3.632   5.206   3.619 -1.4915  0.9647 -0.7662
 1302TIP3    H2 3871   3.646   5.239   3.766 -0.8458 -1.2000 -0.2934
 1303TIP3   OH2 3872   6.176   6.286   5.056  0.3572 -0.3916 -0.2714
 1303TIP3    H1 3873   6.110   6.320   5.117  0.1200 -0.4145 -0.5151
 1303TIP3    H2 3874   6.260   6.310   5.096  0.2012 -0.3080  0.0084
 1304TIP3   OH2 3875   0.156  -0.010   5.312 -0.7864 -0.2489 -0.1858
 1304TIP3    H1 3876   0.142  -0.060   5.232  1.9536 -1.1847 -0.1905
 1304TIP3    H2 3877   0.161   0.081   5.283 -1.6061 -0.3766 -0.7763
 1305TIP3   OH2 3878   5.290   5.371   0.067 -0.1388 -0.5311 -0.4199
 1305TIP3    H1 3879   5.196   5.386   0.062 -0.0530 -0.1598 -1.0242
 1305TIP3    H2 3880   5.323   5.396  -0.019  0.5329 -0.5086 -0.1620
 1306TIP3   OH2 3881   1.583   3.988   1.640 -0.0531  0.1562  0.4657
 1306TIP3    H1 3882   1.597   4.042   1.717 -0.1447  0.1228  0.5061
 1306TIP3    H2 3883   1.574   4.050   1.567  0.0815  0.1859  0.4737
 1307TIP3   OH2 3884   1.391   1.403   0.212 -0.3910  0.0115 -0.5061
 1307TIP3    H1 3885   1.438   1.486   0.213 -0.4396  0.2278  3.7798
 1307TIP3    H2 3886   1.458   1.337   0.229 -1.0522  0.1636  3.9488
 1308TIP3   OH2 3887   5.463   0.979   3.121  0.6466 -0.3922 -0.6498
 1308TIP3    H1 3888   5.477   0.929   3.202  1.1581 -0.4861 -0.7910
 1308TIP3    H2 3889   5.442   1.067   3.150  0.4427 -0.5186 -0.4091
 1309TIP3   OH2 3890   7.013   1.382   5.156 -0.1719 -0.2264  0.1905
 1309TIP3    H1 3891   7.050   1.460   5.115  1.5108 -0.2474  1.5302
 1309TIP3    H2 3892   6.956   1.415   5.224 -0.7585 -0.1853 -0.3141
 1310TIP3   OH2 3893   3.990   0.354   4.575 -0.5308 -0.1425 -0.6562
 1310TIP3    H1 3894   3.990   0.372   4.481  0.7228 -1.0771 -0.8527
 1310TIP3    H2 3895   4.058   0.412   4.610  1.5815 -2.3383 -0.8946
 1311TIP3   OH2 3896   3.779   4.347   0.487 -0.2644  0.0907  0.2969
 1311TIP3    H1 3897   3.850   4.292   0.520  2.2121  2.7832 -0.1638
 1311TIP3    H2 3898   3.767   4.318   0.396 -2.0747 -2.4752  1.2482
 1312TIP3   OH2 3899   6.599   0.328   2.470 -0.3415 -0.1884 -0.2572
 1312TIP3    H1 3900   6.693   0.322   2.489 -0.1726  0.6113 -0.7750
 1312TIP3    H2 3901   6.594   0.328   2.375 -0.6741  1.9725 -0.2843
 1313TIP3   OH2 3902   7.125   3.452   5.188  0.1822 -0.1525  0.2083
 1313TIP3    H1 3903   7.111   3.534   5.140 -0.1798  0.5570  1.4826
 1313TIP3    H2 3904   7.037   3.418   5.204  0.2014  0.4557  1.7471
 1314TIP3   OH2 3905   0.209   3.606   2.502  0.2312 -0.6211  0.4741
 1314TIP3    H1 3906   0.161   3.623   2.583  0.9333 -0.2364  0.8066
 1314TIP3    H2 3907   0.175   3.671   2.440  1.0705  0.3594  1.0127
 1315TIP3   OH2 3908   6.965   4.030   0.143  0.0216 -0.0238 -0.2175
 1315TIP3    H1 3909   7.044   4.007   0.093  0.3043  0.2782  0.0778
 1315TIP3    H2 3910   6.898   4.045   0.077 -0.2309 -1.8408 -0.4177
 1316TIP3   OH2 3911   2.527   5.397   0.463  0.3940 -0.3958  0.1527
 1316TIP3    H1 3912   2.585   5.353   0.526  0.4297  0.3854  0.6848
 1316TIP3    H2 3913   2.451   5.339   0.456  0.7879 -0.9270  0.2366
 1317TIP3   OH2 3914   6.667   5.253   2.087 -0.3388 -0.2833  0.2531
 1317TIP3    H1 3915   6.679   5.324   2.024 -0.6185 -0.4485  0.0122
 1317TIP3    H2 3916   6.679   5.173   2.036  1.8609 -0.4274  0.8885
 1318TIP3   OH2 3917   5.533   0.460   0.845  0.7128 -0.2546 -0.2198
 1318TIP3    H1 3918   5.580   0.376   0.849  1.2411  0.0207 -0.4419
 1318TIP3    H2 3919   5.602   0.524   0.827  0.3031  0.2180 -0.1131
 1319TIP3   OH2 3920   1.893   0.844   3.635 -0.0804 -0.4615 -0.2093
 1319TIP3    H1 3921   1.947   0.774   3.599  1.2668  1.0269 -1.1668
 1319TIP3    H2 3922   1.928   0.858   3.723 -0.5748 -1.1747  0.1180
 1320TIP3   OH2 3923   2.192   5.951   1.790 -0.2831  0.1679  0.0707
 1320TIP3    H1 3924   2.146   5.891   1.731  2.1496 -2.4545  0.5800
 1320TIP3    H2 3925   2.273   5.972   1.743  0.4892  0.1787  1.3725
 1321TIP3   OH2 3926   7.119   4.469   4.503 -0.4652  0.5851 -0.3153
 1321TIP3    H1 3927   7.124   4.376   4.521  1.1415  0.8570  0.8771
 1321TIP3    H2 3928   7.177   4.509   4.568 -2.3999  2.5665  0.3114
 1322TIP3   OH2 3929   2.767   0.319   1.687  0.8793  0.9490  0.0943
 1322TIP3    H1 3930   2.692   0.324   1.628  0.4041  0.6362  0.6682
 1322TIP3    H2 3931   2.837   0.281   1.634  0.2630  0.0550 -0.0846
 1323TIP3   OH2 3932   4.928   4.019   4.084  0.1039  0.3685  0.1446
 1323TIP3    H1 3933   4.984   3.941   4.088 -0.0836  0.1378 -1.2137
 1323TIP3    H2 3934   4.875   4.015   4.164 -0.1734 -1.1096 -0.0887
 1324TIP3   OH2 3935   4.874   2.317   3.113 -0.3924  0.7646 -0.0194
 1324TIP3    H1 3936   4.825   2.349   3.189 -0.4399  0.3556  0.1251
 1324TIP3    H2 3937   4.825   2.350   3.038 -0.7516  0.5688  0.1247
 1325TIP3   OH2 3938   3.141   2.154   3.961 -0.5712 -0.1257  0.1269
 1325TIP3    H1 3939   3.220   2.100   3.965 -0.9534 -0.6220  1.5763
 1325TIP3    H2 3940   3.165   2.228   3.905 -0.0537 -1.8008 -2.0330
 1326TIP3   OH2 3941   2.457   4.874   5.459 -0.0083 -0.3119 -0.0605
 1326TIP3    H1 3942   2.400   4.819   5.404  0.7876 -1.1466 -0.0715
 1326TIP3    H2 3943   2.528   4.900   5.400 -0.1512  0.3795  0.0668
 1327TIP3   OH2 3944   1.369   1.199   3.086 -0.3817 -0.2615 -0.1155
 1327TIP3    H1 3945   1.399   1.127   3.141 -1.8143 -0.7937  0.0067
 1327TIP3    H2 3946   1.331   1.261   3.148  1.5787  1.0448 -0.1247
 1328TIP3   OH2 3947   1.286   2.051   4.432  0.5993  0.1930  0.1052
 1328TIP3    H1 3948   1.204   2.095   4.450 -0.3731 -1.3168 -0.4299
 1328TIP3    H2 3949   1.307   2.074   4.342  0.1248 -0.3661 -0.1534
 1329TIP3   OH2 3950   2.305   5.752   4.901  0.4750 -0.1245 -0.2442
 1329TIP3    H1 3951   2.221   5.713   4.927  0.4711 -0.0684 -0.1736
 1329TIP3    H2 3952   2.366   5.679   4.900  0.6500 -0.0047  0.6611
 1330TIP3   OH2 3953   2.481   0.636   5.413 -0.0308  0.0837  0.0120
 1330TIP3    H1 3954   2.568   0.630   5.374 -0.3161 -1.0148 -0.4976
 1330TIP3    H2 3955   2.472   0.728   5.438  1.6866  0.0041  1.0628
 1331TIP3   OH2 3956   3.494   3.555   0.759 -0.0437  0.2319  0.1449
 1331TIP3    H1 3957   3.555   3.616   0.717 -1.1260  1.4522  0.2822
 1331TIP3    H2 3958   3.524   3.550   0.849  0.5699 -0.1368 -0.0727
 1332TIP3   OH2 3959   5.238   5.605   1.613  0.4520  0.3261 -0.5971
 1332TIP3    H1 3960   5.191   5.665   1.671  1.9696  0.9735  0.0037
 1332TIP3    H2 3961   5.330   5.615   1.637  0.8131 -1.8027 -0.8961
 1333TIP3   OH2 3962   5.691   5.087   3.486  0.4759  0.1641 -0.3083
 1333TIP3    H1 3963   5.639   5.163   3.460 -0.2424 -0.5496 -1.0016
 1333TIP3    H2 3964   5.688   5.028   3.410 -0.5910 -1.4135  0.8847
 1334TIP3   OH2 3965   6.047   6.061   5.810  0.2370  0.1626  0.2028
 1334TIP3    H1 3966   5.992   5.986   5.833  1.2662 -1.2351 -1.6232
 1334TIP3    H2 3967   6.015   6.132   5.866  1.0039 -2.2506  4.0752
 1335TIP3   OH2 3968   2.273   4.806   1.793  0.4095  0.7233  0.0927
 1335TIP3    H1 3969   2.180   4.826   1.800  0.5840  1.6343 -0.0219
 1335TIP3    H2 3970   2.284   4.775   1.703 -0.0280 -0.8386  0.5547
 1336TIP3   OH2 3971   4.728   5.420   0.710 -0.0082 -0.0644 -0.1418
 1336TIP3    H1 3972   4.805   5.461   0.671  1.0399 -0.1144  1.7549
 1336TIP3    H2 3973   4.662   5.488   0.710  0.9448  0.9069  0.7357
 1337TIP3   OH2 3974   1.532   2.813   1.156  0.3754  0.3629  0.1376
 1337TIP3    H1 3975   1.497   2.750   1.219  3.7489 -1.4591  0.4354
 1337TIP3    H2 3976   1.541   2.895   1.206 -0.7422  0.0894  0.8064
 1338TIP3   OH2 3977   5.952   1.981   0.730  0.1235 -0.5155  0.7871
 1338TIP3    H1 3978   6.047   1.983   0.742  0.0255 -2.0815  2.1652
 1338TIP3    H2 3979   5.921   2.064   0.766  0.9949  0.1833 -0.0527
 1339TIP3   OH2 3980   1.909   5.178   4.928 -0.0946  0.4578  0.4057
 1339TIP3    H1 3981   1.850   5.181   5.003  0.0102  0.3927  0.4904
 1339TIP3    H2 3982   1.937   5.086   4.923 -0.1702  0.4423  0.2340
 1340TIP3   OH2 3983   1.505   5.793   0.602 -0.6101  0.0035 -0.4196
 1340TIP3    H1 3984   1.532   5.714   0.649  0.2262  0.2876 -0.4100
 1340TIP3    H2 3985   1.509   5.769   0.510 -1.3486 -0.2717 -0.3835
 1341TIP3   OH2 3986   4.084   6.380   0.571 -0.1936 -0.0168 -0.2549
 1341TIP3    H1 3987   4.120   6.371   0.660  1.5440 -1.0977 -1.0203
 1341TIP3    H2 3988   4.008   6.323   0.571 -0.6933  0.6124  0.7639
 1342TIP3   OH2 3989   2.982   2.564   4.417  0.3376 -0.1613 -0.4975
 1342TIP3    H1 3990   3.016   2.646   4.380 -0.3059  0.7513  0.8594
 1342TIP3    H2 3991   3.031   2.496   4.371  1.3438  0.9925 -1.2280
 1343TIP3   OH2 3992   1.841   6.753   1.606  0.0269  0.2489  0.2548
 1343TIP3    H1 3993   1.819   6.782   1.518  1.2696  1.2804  0.2563
 1343TIP3    H2 3994   1.853   6.658   1.597  0.4643  0.3842 -0.7672
 1344TIP3   OH2 3995   1.863   5.489   3.703 -0.1398  0.3207 -0.2835
 1344TIP3    H1 3996   1.938   5.506   3.759 -0.3744 -0.9283  0.4540
 1344TIP3    H2 3997   1.850   5.570   3.654 -0.1202  1.5726  1.6831
 1345TIP3   OH2 3998   1.651   0.797   0.830  0.1570  0.4180  0.5950
 1345TIP3    H1 3999   1.681   0.789   0.739  0.8164  3.6009  0.4286
 1345TIP3    H2 4000   1.570   0.747   0.833  0.6318 -0.5863 -1.4668
 1346TIP3   OH2 4001   5.948   6.607   2.074 -0.1347  0.4726  0.4531
 1346TIP3    H1 4002   5.970   6.658   1.996 -0.9105  0.3749  0.1680
 1346TIP3    H2 4003   5.913   6.525   2.040 -0.4546  0.4182  0.9043
 1347TIP3   OH2 4004   1.654   3.346   5.545  0.6257  0.1747  0.0107
 1347TIP3    H1 4005   1.584   3.321   5.485 -0.4219  0.3055  1.1423
 1347TIP3    H2 4006   1.632   3.436   5.571 -0.4852 -0.7549  2.6358
 1348TIP3   OH2 4007   4.986   4.726   3.823  0.3957  0.2124  0.6014
 1348TIP3    H1 4008   4.999   4.814   3.859 -0.4643  0.4282  0.4067
 1348TIP3    H2 4009   5.070   4.682   3.836  1.0409  1.2663  0.1227
 1349TIP3   OH2 4010   1.627   6.688   3.981  0.2552 -0.2135  0.2996
 1349TIP3    H1 4011   1.658   6.605   4.017  0.6333 -0.1227  0.1826
 1349TIP3    H2 4012   1.657   6.754   4.044  0.1851 -0.1391  0.2548
 1350TIP3   OH2 4013   5.754   3.350   0.977 -0.0895 -0.1520 -0.3945
 1350TIP3    H1 4014   5.769   3.436   1.017 -0.4502 -0.3057  0.0798
 1350TIP3    H2 4015   5.753   3.289   1.051  1.3463 -0.7339 -0.8377
 1351TIP3   OH2 4016   6.271   1.064   1.055 -0.0036  0.0237  0.0137
 1351TIP3    H1 4017   6.335   1.069   1.126 -1.1405  1.1052  1.0269
 1351TIP3    H2 4018   6.256   1.156   1.031  0.6278 -0.3420 -1.9080
 1352TIP3   OH2 4019   5.650   5.239   2.861 -0.3926  0.1874  0.0885
 1352TIP3    H1 4020   5.667   5.188   2.941  0.8793  0.8955  0.2983
 1352TIP3    H2 4021   5.581   5.191   2.816 -0.1566 -0.9857  0.9377
 1353TIP3   OH2 4022   5.540   3.509   2.238 -0.2468  0.2341 -0.1548
 1353TIP3    H1 4023   5.558   3.515   2.144  2.7736  1.3088  0.3792
 1353TIP3    H2 4024   5.606   3.448   2.272  0.1194  1.4640  1.5145
 1354TIP3   OH2 4025   2.626   5.845   4.369  0.0174 -0.2257  0.0084
 1354TIP3    H1 4026   2.691   5.774   4.374  0.3936  0.1761  3.2446
 1354TIP3    H2 4027   2.677   5.922   4.343  0.1184 -0.5934 -0.9175
 1355TIP3   OH2 4028   4.008   3.896   0.924  0.1329 -0.0299 -0.3095
 1355TIP3    H1 4029   3.926   3.871   0.880  0.2053 -1.2644  0.2162
 1355TIP3    H2 4030   4.073   3.835   0.890  0.2505 -0.8288  1.2477
 1356TIP3   OH2 4031   3.941   4.919   3.983 -0.3915  0.0381  0.9650
 1356TIP3    H1 4032   3.900   4.996   4.023  0.4080  0.5791  0.7536
 1356TIP3    H2 4033   3.907   4.918   3.894 -2.1319 -1.1379  1.5817
 1357TIP3   OH2 4034   4.353   3.963   5.013 -0.2221 -0.7684  0.0917
 1357TIP3    H1 4035   4.336   3.873   4.984 -0.8750 -0.2571 -1.1603
 1357TIP3    H2 4036   4.430   3.990   4.963 -0.2511 -0.5004  0.1916
 1358TIP3   OH2 4037   1.632   0.299   2.235  0.4025  0.2144 -0.1276
 1358TIP3    H1 4038   1.556   0.243   2.219 -0.1587  0.6086  1.0843
 1358TIP3    H2 4039   1.651   0.337   2.149 -0.7920  0.1547 -0.4451
 1359TIP3   OH2 4040   3.809   6.011   2.565 -0.2638 -0.2178  0.3377
 1359TIP3    H1 4041   3.841   6.096   2.534  1.1502 -0.6985  0.3988
 1359TIP3    H2 4042   3.862   5.946   2.519 -0.8081 -1.0501  0.8439
 1360TIP3   OH2 4043   0.755   2.266   1.823 -0.6175 -0.3947  0.3417
 1360TIP3    H1 4044   0.719   2.345   1.864  0.1117  1.1869 -1.8510
 1360TIP3    H2 4045   0.722   2.194   1.877 -1.8852  1.3434  2.0419
 1361TIP3   OH2 4046   4.901   5.773   5.824 -0.5900  0.4347  0.1864
 1361TIP3    H1 4047   4.850   5.831   5.881  0.2484 -1.1395  2.7270
 1361TIP3    H2 4048   4.991   5.806   5.832 -0.5639  0.6276 -0.8358
 1362TIP3   OH2 4049   0.104   4.306   3.507  0.0322 -0.5515 -0.0934
 1362TIP3    H1 4050   0.150   4.250   3.444  1.1109 -1.1710  1.1808
 1362TIP3    H2 4051   0.080   4.246   3.577 -0.6539  0.2205  0.3382
 1363TIP3   OH2 4052   2.191   3.586   2.247 -0.3886  0.2950 -0.1024
 1363TIP3    H1 4053   2.133   3.528   2.296  0.1809 -1.3930 -1.3515
 1363TIP3    H2 4054   2.220   3.651   2.311 -1.1455 -0.7154  1.3015
 1364TIP3   OH2 4055   3.444   6.335   1.451 -0.4627  0.1672 -0.3657
 1364TIP3    H1 4056   3.408   6.406   1.398 -0.0035  0.2493 -0.5699
 1364TIP3    H2 4057   3.538   6.338   1.435 -0.5227 -1.0961 -1.1255
 1365TIP3   OH2 4058   7.100   5.420   2.279  0.0122 -0.4015 -0.3249
 1365TIP3    H1 4059   7.042   5.493   2.258 -1.0639 -1.6358 -1.9656
 1365TIP3    H2 4060   7.188   5.453   2.259 -0.2886  0.8870  0.3783
 1366TIP3   OH2 4061   6.084   4.520   0.185  0.0879  0.3079 -0.2702
 1366TIP3    H1 4062   6.015   4.549   0.125 -1.0923  1.2860  1.4690
 1366TIP3    H2 4063   6.059   4.556   0.270  0.7823 -2.4344  1.2105
 1367TIP3   OH2 4064   6.517   4.373   1.817 -0.3791  0.5326  0.0900
 1367TIP3    H1 4065   6.471   4.346   1.897 -0.0298 -1.3582 -0.3005
 1367TIP3    H2 4066   6.608   4.381   1.844 -0.1852 -0.5713 -0.1995
 1368TIP3   OH2 4067   0.253   5.908   2.880 -0.2373 -0.3321  0.1756
 1368TIP3    H1 4068   0.264   5.850   2.804  1.3406  1.3651 -0.9604
 1368TIP3    H2 4069   0.338   5.907   2.923  0.0974  1.7280 -0.3496
 1369TIP3   OH2 4070   1.203   5.376   5.290  0.2777  0.1700  0.6900
 1369TIP3    H1 4071   1.272   5.427   5.332  0.0024  1.7699 -0.6910
 1369TIP3    H2 4072   1.240   5.349   5.206 -0.4312  0.1967  0.3641
 1370TIP3   OH2 4073   4.001   3.064   2.692  0.1661  0.2777 -0.0018
 1370TIP3    H1 4074   3.961   3.029   2.612  4.9425 -2.0332 -1.7511
 1370TIP3    H2 4075   3.941   3.037   2.762 -2.3963 -0.8734 -2.4258
 1371TIP3   OH2 4076   6.198   4.902   1.041 -0.1689  0.0296 -0.9869
 1371TIP3    H1 4077   6.158   4.943   1.118 -0.9070  2.0908 -2.3807
 1371TIP3    H2 4078   6.164   4.812   1.041 -1.0382  0.3291  0.4652
 1372TIP3   OH2 4079   4.731   1.488   0.486  0.0972  0.2281 -0.6711
 1372TIP3    H1 4080   4.718   1.577   0.518 -0.0285  0.0596 -0.2489
 1372TIP3    H2 4081   4.804   1.454   0.537 -0.2534 -0.1218 -0.3925
 1373TIP3   OH2 4082   4.876   2.350   3.664 -0.5546 -1.0932  0.3322
 1373TIP3    H1 4083   4.956   2.298   3.671  0.7212  0.5086 -1.4469
 1373TIP3    H2 4084   4.872   2.400   3.746  0.6181 -0.7382  0.1857
 1374TIP3   OH2 4085   2.236   1.662   5.319 -0.1417  0.1059  1.0184
 1374TIP3    H1 4086   2.295   1.591   5.294 -0.7452 -0.3716  0.9259
 1374TIP3    H2 4087   2.173   1.666   5.247  0.4342  1.3661  0.5544
 1375TIP3   OH2 4088   0.055   1.257   1.096 -0.1851  0.6003 -0.3196
 1375TIP3    H1 4089   0.044   1.345   1.131 -1.0501  0.9418 -1.3957
 1375TIP3    H2 4090   0.150   1.248   1.084 -0.1678  1.8985 -1.4199
 1376TIP3   OH2 4091   6.252   0.829   0.274 -0.0806  0.0672  0.2797
 1376TIP3    H1 4092   6.173   0.882   0.269  1.6179  3.3096  3.4445
 1376TIP3    H2 4093   6.315   0.874   0.217  0.3924 -0.7152  0.1640
 1377TIP3   OH2 4094   4.565   4.994   1.249  0.1584  0.2489 -1.0946
 1377TIP3    H1 4095   4.611   5.075   1.228  0.7920  0.3648  0.5878
 1377TIP3    H2 4096   4.473   5.014   1.235  0.1976  1.6570  0.4147
 1378TIP3   OH2 4097   1.143   2.194   0.363  0.3504 -0.0327 -0.2086
 1378TIP3    H1 4098   1.094   2.267   0.326 -0.4649 -0.7079 -0.4990
 1378TIP3    H2 4099   1.139   2.207   0.458  1.0787  0.8395 -0.2928
 1379TIP3   OH2 4100   4.887   1.965   4.813  0.0673 -0.3543  0.0368
 1379TIP3    H1 4101   4.857   1.930   4.729  0.5517  1.8324 -1.1450
 1379TIP3    H2 4102   4.812   1.958   4.871 -0.1335 -2.3556 -0.4032
 1380TIP3   OH2 4103   6.636   6.101   2.531  0.4961  0.2835  0.3477
 1380TIP3    H1 4104   6.617   6.180   2.480 -0.6267  0.1093  0.4723
 1380TIP3    H2 4105   6.588   6.113   2.613 -1.7765 -1.5730 -0.5804
 1381TIP3   OH2 4106   2.497   1.112   3.231  0.7480 -0.6573 -0.4665
 1381TIP3    H1 4107   2.488   1.027   3.187 -1.0532 -1.0299  0.5304
 1381TIP3    H2 4108   2.465   1.175   3.167  2.0248 -0.7067 -1.1855
 1382TIP3   OH2 4109   4.407   0.268   0.295  0.0119  0.0114  0.4377
 1382TIP3    H1 4110   4.483   0.225   0.335 -0.0108 -1.6385 -1.1464
 1382TIP3    H2 4111   4.339   0.201   0.295 -1.0003  1.0121  0.5275
 1383TIP3   OH2 4112   1.640   0.095   1.413  0.2311 -0.3438  0.1787
 1383TIP3    H1 4113   1.572   0.139   1.362  0.6679 -0.5903 -0.6334
 1383TIP3    H2 4114   1.718   0.148   1.399  0.3381 -0.3697  0.6692
 1384TIP3   OH2 4115   4.448   3.180   1.180  0.5674  0.5010  0.1169
 1384TIP3    H1 4116   4.536   3.215   1.190  0.7289 -0.2801  1.5563
 1384TIP3    H2 4117   4.414   3.173   1.269  0.0752 -1.7896 -0.1883
 1385TIP3   OH2 4118   2.553   5.076   0.944  0.6772  0.2219  0.7240
 1385TIP3    H1 4119   2.529   4.985   0.960 -1.6237  0.5406 -0.5130
 1385TIP3    H2 4120   2.470   5.124   0.950  1.3219  1.8012 -1.5786
 1386TIP3   OH2 4121   7.122   1.951   4.152  0.1666 -0.3858  0.0043
 1386TIP3    H1 4122   7.128   2.032   4.101 -1.6046 -0.2008  0.0171
 1386TIP3    H2 4123   7.210   1.915   4.150  1.3572  2.1620  1.0102
 1387TIP3   OH2 4124   2.915   1.908   0.190  0.0983 -0.4187 -0.2310
 1387TIP3    H1 4125   2.902   1.912   0.095 -1.4150  0.9311 -0.0145
 1387TIP3    H2 4126   2.981   1.975   0.208  0.1171 -0.4189 -0.3003
 1388TIP3   OH2 4127   5.673   6.622   4.085  0.1394 -0.2943  0.4925
 1388TIP3    H1 4128   5.606   6.637   4.152 -0.0787  0.1784  0.1806
 1388TIP3    H2 4129   5.756   6.637   4.130  0.0367 -0.7705  0.8534
 1389TIP3   OH2 4130   6.761   4.627   2.922  0.5740 -0.3862 -0.7095
 1389TIP3    H1 4131   6.677   4.616   2.965  0.3678 -2.0634 -1.4628
 1389TIP3    H2 4132   6.801   4.702   2.966 -1.6243  0.9767 -0.8773
 1390TIP3   OH2 4133   2.156   4.318   4.640  0.7079 -0.3642 -0.3018
 1390TIP3    H1 4134   2.211   4.350   4.568  0.2026 -3.6324 -2.3358
 1390TIP3    H2 4135   2.219   4.292   4.708  1.3877  0.1684 -0.7097
 1391TIP3   OH2 4136   2.384   3.978   5.204  1.0727 -0.1988 -0.8029
 1391TIP3    H1 4137   2.404   4.002   5.294  0.3056 -0.1584 -0.6422
 1391TIP3    H2 4138   2.319   3.907   5.211  1.3787 -0.5419 -1.3134
 1392TIP3   OH2 4139   6.292   0.756   3.215  0.4086 -0.2173 -0.0285
 1392TIP3    H1 4140   6.367   0.737   3.271 -1.0567 -0.8924  1.8175
 1392TIP3    H2 4141   6.328   0.806   3.142  2.6917 -0.8720  0.5888
 1393TIP3   OH2 4142   1.122   3.818   4.225 -0.3845 -0.0766 -0.0245
 1393TIP3    H1 4143   1.172   3.842   4.303  0.0256 -0.2928 -0.2190
 1393TIP3    H2 4144   1.145   3.726   4.209 -0.4226 -0.0192 -0.4270
 1394TIP3   OH2 4145   7.031   2.383   3.179  0.3213 -0.3394 -0.1694
 1394TIP3    H1 4146   6.957   2.343   3.225  0.1416 -1.2715 -1.2444
 1394TIP3    H2 4147   7.043   2.467   3.223 -1.2118 -0.2769  0.1843
 1395TIP3   OH2 4148   5.324   4.752   4.062 -0.4392  0.0170 -0.1183
 1395TIP3    H1 4149   5.246   4.773   4.113  0.0786 -0.2696  0.8159
 1395TIP3    H2 4150   5.321   4.657   4.051 -1.0410  0.1645 -1.4737
 1396TIP3   OH2 4151   4.306   6.434   5.615 -0.1279  0.2887 -0.1812
 1396TIP3    H1 4152   4.277   6.517   5.652 -0.5493 -0.5834  1.5922
 1396TIP3    H2 4153   4.394   6.422   5.649 -0.1776 -0.1123 -0.1808
 1397TIP3   OH2 4154   4.254   2.465   2.354  0.1784 -0.2294  0.8731
 1397TIP3    H1 4155   4.302   2.446   2.274 -0.6373 -2.8882  0.9102
 1397TIP3    H2 4156   4.214   2.551   2.338  0.1975 -0.5935 -1.4874
 1398TIP3   OH2 4157   0.955   1.781   4.042 -0.3343  0.4160 -0.4152
 1398TIP3    H1 4158   0.999   1.777   4.127  1.2582 -0.1383 -1.2072
 1398TIP3    H2 4159   0.878   1.724   4.051  1.1143 -1.5973 -0.0118
 1399TIP3   OH2 4160   4.788   6.559   1.589 -0.4094  0.0233 -0.4499
 1399TIP3    H1 4161   4.869   6.573   1.542  0.1791  0.6721  0.6989
 1399TIP3    H2 4162   4.815   6.526   1.675 -1.3373  0.4296  0.0193
 1400TIP3   OH2 4163   7.102   4.133   2.961 -0.3033 -0.4329  0.2726
 1400TIP3    H1 4164   7.149   4.137   2.877 -2.3845  2.1931 -0.9137
 1400TIP3    H2 4165   7.162   4.172   3.024  1.1141 -2.0110 -0.0215
 1401TIP3   OH2 4166   4.770   2.610   1.443 -0.0691 -0.5640 -0.3488
 1401TIP3    H1 4167   4.695   2.568   1.486 -1.0909  1.6278  0.1260
 1401TIP3    H2 4168   4.807   2.667   1.510  0.6197  0.1057 -1.2868
 1402TIP3   OH2 4169   3.319   1.487   3.401  0.4075  0.1074 -0.3907
 1402TIP3    H1 4170   3.289   1.573   3.372  1.1702  0.8395  0.9114
 1402TIP3    H2 4171   3.284   1.427   3.336 -2.8068  1.0327  0.2646
 1403TIP3   OH2 4172   2.456   3.788   1.351  0.0867  0.0307 -0.1030
 1403TIP3    H1 4173   2.526   3.794   1.416 -0.6330  3.0858  0.5210
 1403TIP3    H2 4174   2.500   3.752   1.273  1.2241 -2.5686  1.5937
 1404TIP3   OH2 4175   5.504   4.357   5.298 -0.5392 -0.3959  0.1961
 1404TIP3    H1 4176   5.578   4.401   5.341 -0.8280  0.1976  0.1009
 1404TIP3    H2 4177   5.501   4.271   5.338  0.2726 -0.4690  0.1299
 1405TIP3   OH2 4178   5.246   6.143   0.044 -0.1341 -0.1665 -0.9703
 1405TIP3    H1 4179   5.188   6.070   0.067 -0.1395 -0.0612 -0.6458
 1405TIP3    H2 4180   5.190   6.202  -0.006 -1.0845  1.2199  1.5319
 1406TIP3   OH2 4181   1.901   5.491   1.294 -0.2299 -0.0441  0.6812
 1406TIP3    H1 4182   1.982   5.526   1.256 -0.6663 -0.2113 -0.4511
 1406TIP3    H2 4183   1.877   5.555   1.361 -0.1120  0.9688 -0.2043
 1407TIP3   OH2 4184   5.672   5.189   0.436  0.3896 -0.8249  0.5206
 1407TIP3    H1 4185   5.621   5.265   0.407  2.0931 -0.0695 -0.6637
 1407TIP3    H2 4186   5.662   5.125   0.365  0.9880 -0.7071  0.3257
 1408TIP3   OH2 4187   6.389   4.305   4.579  0.2937 -0.4487  0.5268
 1408TIP3    H1 4188   6.423   4.276   4.663  0.5955 -2.1252 -0.1243
 1408TIP3    H2 4189   6.441   4.257   4.514 -0.0159  0.6925 -0.6304
 1409TIP3   OH2 4190   4.623   2.131   1.640 -0.7446  0.2590 -0.1711
 1409TIP3    H1 4191   4.588   2.094   1.721 -1.0573 -0.3227 -0.5629
 1409TIP3    H2 4192   4.708   2.088   1.628 -0.7488  0.2599 -0.2070
 1410TIP3   OH2 4193   0.521   6.144   5.038  0.5936 -0.3663  0.3939
 1410TIP3    H1 4194   0.546   6.232   5.068 -1.7611 -0.3338  2.5740
 1410TIP3    H2 4195   0.465   6.160   4.962 -1.0740  0.1715  1.6890
 1411TIP3   OH2 4196   1.517   5.208   2.611  0.3070  0.2249  0.4327
 1411TIP3    H1 4197   1.571   5.252   2.546 -0.2156  1.8285  1.0532
 1411TIP3    H2 4198   1.575   5.191   2.684  1.0099 -1.9710 -0.5342
 1412TIP3   OH2 4199   3.554   4.075   5.741  0.1708 -0.5222 -0.2035
 1412TIP3    H1 4200   3.558   4.157   5.691  0.4119 -1.6515 -2.1179
 1412TIP3    H2 4201   3.464   4.073   5.775  0.6197  1.2699  1.2587
 1413TIP3   OH2 4202   1.310   0.900   5.435  0.2281  0.0827  0.1008
 1413TIP3    H1 4203   1.315   0.828   5.373  2.4229 -0.5422  0.8873
 1413TIP3    H2 4204   1.271   0.862   5.514 -0.4433  0.2914 -0.1218
 1414TIP3   OH2 4205   0.781   3.003   3.093  0.0532  0.2803 -0.2697
 1414TIP3    H1 4206   0.766   2.942   3.020 -0.8817  0.6098 -0.3645
 1414TIP3    H2 4207   0.829   2.951   3.158 -2.4536 -1.2336  0.5195
 1415TIP3   OH2 4208   6.284   3.913   3.248 -0.0801 -0.0157  0.6172
 1415TIP3    H1 4209   6.352   3.878   3.191 -2.3185 -1.2785 -1.4993
 1415TIP3    H2 4210   6.296   3.868   3.332  1.1641 -0.8440  0.0203
 1416TIP3   OH2 4211   5.752   0.190   1.269 -0.3132 -0.5839  0.0541
 1416TIP3    H1 4212   5.683   0.162   1.328 -1.0154  1.0914  0.0549
 1416TIP3    H2 4213   5.831   0.190   1.323 -0.7307 -0.2312  0.6665
 1417TIP3   OH2 4214   3.723   0.466   3.841  0.2091 -0.1088  0.0747
 1417TIP3    H1 4215   3.717   0.371   3.835  1.2046 -0.2598  1.0486
 1417TIP3    H2 4216   3.780   0.492   3.770 -0.9863 -0.0915 -0.9132
 1418TIP3   OH2 4217   5.571   5.371   4.157  0.3563  0.0523 -0.3844
 1418TIP3    H1 4218   5.496   5.391   4.100  0.3393 -1.1815 -0.8360
 1418TIP3    H2 4219   5.585   5.451   4.207 -1.7647  0.0739  0.2816
 1419TIP3   OH2 4220   6.245   2.787   0.373  0.0381  0.4737  0.3238
 1419TIP3    H1 4221   6.185   2.858   0.395  0.8250  0.1582  4.1588
 1419TIP3    H2 4222   6.332   2.828   0.374  0.1928  0.6145 -3.6965
 1420TIP3   OH2 4223   4.609   0.042   4.329  0.6593  0.2299  0.1520
 1420TIP3    H1 4224   4.554   0.118   4.346  0.3414 -0.2283  1.2494
 1420TIP3    H2 4225   4.554  -0.033   4.351  2.3187 -0.2142  3.5186
 1421TIP3   OH2 4226   3.191   2.997   0.420 -0.6032 -0.8664  0.1452
 1421TIP3    H1 4227   3.152   3.017   0.335 -1.3328 -0.3019  0.5997
 1421TIP3    H2 4228   3.127   3.028   0.484  1.2616  1.5853  0.9674
 1422TIP3   OH2 4229   4.141   2.235   2.407  0.4833  0.0446  0.4803
 1422TIP3    H1 4230   4.173   2.322   2.385 -1.2984  1.6449  3.5895
 1422TIP3    H2 4231   4.200   2.205   2.477 -0.5002 -0.0207  1.3062
 1423TIP3   OH2 4232   1.280   5.963   2.555  0.2888 -0.1799  0.1333
 1423TIP3    H1 4233   1.204   5.908   2.534  0.6723 -1.1325  1.1804
 1423TIP3    H2 4234   1.343   5.945   2.486 -0.6927  1.2145 -1.2039
 1424TIP3   OH2 4235   4.057   4.095   1.101  0.2232 -0.2833  0.3627
 1424TIP3    H1 4236   3.978   4.123   1.148 -0.1312 -1.0973  0.2630
 1424TIP3    H2 4237   4.025   4.035   1.034  1.0394 -1.5781  1.0952
 1425TIP3   OH2 4238   0.286   2.912   2.199  0.4021  0.0692  0.5302
 1425TIP3    H1 4239   0.261   2.992   2.153 -1.0411 -0.3065  0.5981
 1425TIP3    H2 4240   0.217   2.850   2.177  0.4812 -0.5721  1.9844
 1426TIP3   OH2 4241   6.851   1.561   3.138 -0.2550  0.0386  0.0295
 1426TIP3    H1 4242   6.945   1.567   3.121 -0.3890  0.5307 -0.5924
 1426TIP3    H2 4243   6.839   1.474   3.176  0.2102 -0.7964 -1.6264
 1427TIP3   OH2 4244   4.269   4.264   2.738 -0.1267  0.0311  0.7193
 1427TIP3    H1 4245   4.290   4.301   2.824  0.4186  0.6688  0.3188
 1427TIP3    H2 4246   4.243   4.339   2.686  0.2307 -0.2606  0.1161
 1428TIP3   OH2 4247   0.587   1.485   0.423  0.3969 -0.4624  0.1421
 1428TIP3    H1 4248   0.610   1.563   0.473 -1.6406  1.9986 -2.4411
 1428TIP3    H2 4249   0.511   1.449   0.468  1.1785 -0.8441  1.1883
 1429TIP3   OH2 4250   0.347   5.901   1.298 -0.4787  0.2265  0.1341
 1429TIP3    H1 4251   0.337   5.806   1.291 -0.2194  0.1827  0.3378
 1429TIP3    H2 4252   0.442   5.915   1.296 -0.5190  0.6520 -2.2412
 1430TIP3   OH2 4253   3.512   1.369   1.869 -0.1469 -0.1194 -0.3009
 1430TIP3    H1 4254   3.605   1.373   1.888 -0.2535 -1.1317  0.5258
 1430TIP3    H2 4255   3.494   1.276   1.856 -1.4159 -0.2280  1.6879
 1431TIP3   OH2 4256   3.664   3.421   3.577  0.3826 -0.2626 -0.5233
 1431TIP3    H1 4257   3.607   3.352   3.543  0.0188 -0.5784  0.6765
 1431TIP3    H2 4258   3.607   3.473   3.634  0.6887  0.9432 -1.2700
 1432TIP3   OH2 4259   6.685   3.549   3.593  0.3151 -0.0555  0.0929
 1432TIP3    H1 4260   6.664   3.617   3.530 -2.3989 -0.3738  0.5583
 1432TIP3    H2 4261   6.640   3.575   3.673  2.2878 -0.5372  1.4271
 1433TIP3   OH2 4262   6.202   5.660   5.646 -0.0123  0.0890 -0.1604
 1433TIP3    H1 4263   6.249   5.622   5.572 -1.2029 -1.9299  0.0509
 1433TIP3    H2 4264   6.112   5.669   5.615 -0.1392  1.0303  0.4391
 1434TIP3   OH2 4265   3.228   6.313   4.498  0.1286 -0.1597  0.1594
 1434TIP3    H1 4266   3.209   6.320   4.404 -1.3856 -2.1700  0.2397
 1434TIP3    H2 4267   3.147   6.278   4.535  0.5849  0.9270  2.2874
 1435TIP3   OH2 4268   6.217   6.477   4.350  0.4001  0.0628 -0.3434
 1435TIP3    H1 4269   6.221   6.422   4.428 -0.2268  0.1831 -0.2224
 1435TIP3    H2 4270   6.204   6.416   4.277 -1.9728  0.1262 -0.0444
 1436TIP3   OH2 4271   0.105   6.783   5.753 -0.3100  0.4350  0.3631
 1436TIP3    H1 4272   0.059   6.703   5.779 -0.4968  0.6850  0.8014
 1436TIP3    H2 4273   0.049   6.854   5.785 -0.2044  0.7430 -0.1281
 1437TIP3   OH2 4274   4.138   5.957   2.318  0.2336  0.2380  0.1283
 1437TIP3    H1 4275   4.058   5.905   2.320  0.5183 -0.1969  0.6801
 1437TIP3    H2 4276   4.160   5.964   2.225  0.1890 -0.6404  0.0390
 1438TIP3   OH2 4277   7.008   1.683   2.485  0.2193  0.3624  0.2349
 1438TIP3    H1 4278   6.931   1.626   2.475  1.9594 -1.9544 -1.2181
 1438TIP3    H2 4279   7.016   1.727   2.401 -0.8099  2.4924  1.1826
 1439TIP3   OH2 4280   0.924   6.317   2.088  0.3750  0.2186 -0.4018
 1439TIP3    H1 4281   0.867   6.268   2.148  1.3833  0.0658  0.4691
 1439TIP3    H2 4282   0.940   6.400   2.133  1.3696 -0.0078 -0.3051
 1440TIP3   OH2 4283   6.355   4.545   1.675 -0.3138  0.3675 -0.8013
 1440TIP3    H1 4284   6.433   4.491   1.689 -0.4775  0.0943 -0.9428
 1440TIP3    H2 4285   6.385   4.616   1.618 -0.0476  0.5477 -0.4386
 1441TIP3   OH2 4286   6.226   0.561   5.484  0.2754  1.3881 -0.4482
 1441TIP3    H1 4287   6.203   0.503   5.556 -0.2677  0.7041 -1.1556
 1441TIP3    H2 4288   6.193   0.647   5.510 -0.5386  1.0041 -0.1918
 1442TIP3   OH2 4289   0.878   5.535   2.573 -0.2094  0.5635  0.2170
 1442TIP3    H1 4290   0.891   5.606   2.511  0.6785  0.1731 -0.0609
 1442TIP3    H2 4291   0.837   5.465   2.521  2.0615 -0.3962 -0.4025
 1443TIP3   OH2 4292   2.694   4.275   1.818 -0.7132  0.3473 -0.2077
 1443TIP3    H1 4293   2.711   4.311   1.905 -0.3726  0.4855 -0.3276
 1443TIP3    H2 4294   2.738   4.336   1.758  1.0885 -0.9861 -0.3521
 1444TIP3   OH2 4295   5.563   4.571   4.590  0.1061  0.1836 -0.1270
 1444TIP3    H1 4296   5.502   4.589   4.519  0.1492 -3.3382 -1.2417
 1444TIP3    H2 4297   5.508   4.553   4.666 -0.0681  0.7854 -0.1087
 1445TIP3   OH2 4298   5.487   0.700   0.491 -0.4454  0.7308 -0.2434
 1445TIP3    H1 4299   5.494   0.785   0.446  1.0073  0.6525 -0.2161
 1445TIP3    H2 4300   5.578   0.673   0.505 -0.8666 -0.0417  1.2574
 1446TIP3   OH2 4301   5.822   4.892   4.989 -0.3102  0.3048 -0.2212
 1446TIP3    H1 4302   5.734   4.904   5.026 -0.0351 -1.6893  1.2332
 1446TIP3    H2 4303   5.881   4.921   5.059  0.2339 -3.8503  1.2794
 1447TIP3   OH2 4304   6.963   4.192   1.503 -0.4387 -0.6566 -0.0283
 1447TIP3    H1 4305   6.925   4.119   1.552  0.1061 -0.2723  1.0076
 1447TIP3    H2 4306   6.986   4.256   1.571 -1.1367  0.5905 -0.9208
 1448TIP3   OH2 4307   3.650   5.746   1.810 -0.4996  0.2079  0.0467
 1448TIP3    H1 4308   3.681   5.664   1.773 -1.1311  0.8789 -2.1274
 1448TIP3    H2 4309   3.559   5.728   1.836 -0.4322  0.0508  0.1756
 1449TIP3   OH2 4310   5.765   3.428   4.293  0.8764  0.2784 -0.1369
 1449TIP3    H1 4311   5.857   3.402   4.301  1.2744  1.3986 -0.6864
 1449TIP3    H2 4312   5.737   3.391   4.209  1.4666  1.6100 -0.9617
 1450TIP3   OH2 4313   0.134   6.254   5.541  0.0238 -0.1750  0.1868
 1450TIP3    H1 4314   0.149   6.317   5.470 -1.6088 -0.8245 -0.7843
 1450TIP3    H2 4315   0.217   6.207   5.549 -0.0741 -0.8435 -2.0805
 1451TIP3   OH2 4316   2.674   3.520   0.486  0.3603  0.1261  0.6836
 1451TIP3    H1 4317   2.733   3.482   0.550  0.1735  0.5197  1.0959
 1451TIP3    H2 4318   2.634   3.594   0.532  0.0445  0.2609  0.1931
 1452TIP3   OH2 4319   4.592   1.336   4.372  0.1768  0.3883 -0.0322
 1452TIP3    H1 4320   4.657   1.293   4.317  1.7201  2.7292 -0.1771
 1452TIP3    H2 4321   4.639   1.357   4.453 -0.7560  0.9819  0.3735
 1453TIP3   OH2 4322   3.741   1.539   1.799 -0.2032 -0.0262 -0.1767
 1453TIP3    H1 4323   3.753   1.459   1.748 -0.2930  0.2353 -0.6164
 1453TIP3    H2 4324   3.789   1.524   1.880 -0.7536 -0.7747  0.0146
 1454TIP3   OH2 4325   4.041   0.801   3.096 -0.8356  0.3616  0.1509
 1454TIP3    H1 4326   4.117   0.773   3.045 -1.7286 -0.3875 -0.8191
 1454TIP3    H2 4327   4.076   0.822   3.182  0.4123 -0.3527 -0.1620
 1455TIP3   OH2 4328   2.937   3.218   4.301  0.1806  0.0480 -0.2316
 1455TIP3    H1 4329   2.909   3.291   4.357  0.9391 -0.2645  0.5873
 1455TIP3    H2 4330   2.859   3.193   4.252 -0.5935  0.1274  0.9323
 1456TIP3   OH2 4331   4.027   5.167   1.179  0.2323 -0.4780  0.8589
 1456TIP3    H1 4332   4.096   5.232   1.177 -0.3078  0.1324  1.6531
 1456TIP3    H2 4333   3.972   5.188   1.103 -1.1287  1.3560  2.2553
 1457TIP3   OH2 4334   0.828   2.742   3.919 -0.3626  0.7679 -0.1851
 1457TIP3    H1 4335   0.866   2.696   3.994  0.3194  1.5655 -0.0295
 1457TIP3    H2 4336   0.736   2.715   3.919  0.3617 -1.9282 -1.1154
 1458TIP3   OH2 4337   4.760   2.014   2.872  0.1365  0.3368  0.1513
 1458TIP3    H1 4338   4.707   1.964   2.810 -0.1426  0.5305  0.2288
 1458TIP3    H2 4339   4.716   2.003   2.956  1.2062 -0.9436  0.5725
 1459TIP3   OH2 4340   4.557   0.922   5.793 -0.0525  0.2753 -0.1316
 1459TIP3    H1 4341   4.604   0.939   5.874 -0.0102 -1.0019  0.1364
 1459TIP3    H2 4342   4.510   1.003   5.774 -0.1092  0.5642  1.2077
 1460TIP3   OH2 4343   1.969   2.655   2.007  0.2581  0.7146 -0.4478
 1460TIP3    H1 4344   1.984   2.646   1.913  0.6397  0.6014 -0.3777
 1460TIP3    H2 4345   1.875   2.666   2.015 -0.2177 -2.3989 -0.6152
 1461TIP3   OH2 4346   1.571   4.836   4.249 -0.8635  0.1961  0.1381
 1461TIP3    H1 4347   1.511   4.888   4.195 -1.5964  0.1015  0.8593
 1461TIP3    H2 4348   1.522   4.816   4.328 -0.4251 -1.2261  0.0712
 1462TIP3   OH2 4349   2.023   6.636   0.436  0.7527  0.0561  0.4908
 1462TIP3    H1 4350   1.996   6.713   0.486 -0.3871 -0.5435  0.8235
 1462TIP3    H2 4351   1.983   6.562   0.481 -0.9729 -0.4541 -1.7077
 1463TIP3   OH2 4352   3.063   0.751   0.578  0.1539  0.2099 -0.0699
 1463TIP3    H1 4353   3.135   0.813   0.564  0.9767 -0.5650  0.6111
 1463TIP3    H2 4354   3.104   0.665   0.577 -0.2468 -0.1378  3.0471
 1464TIP3   OH2 4355   0.239   2.364   2.932 -0.1201  0.0859 -0.1999
 1464TIP3    H1 4356   0.328   2.383   2.901  0.3206  1.3138  1.6683
 1464TIP3    H2 4357   0.247   2.279   2.975 -0.1944 -0.4629 -1.2297
 1465TIP3   OH2 4358   1.362   3.643   3.285  0.0562  0.2990 -0.0844
 1465TIP3    H1 4359   1.341   3.584   3.357 -1.2754 -1.0814 -1.5036
 1465TIP3    H2 4360   1.288   3.703   3.280 -0.8228 -0.8388 -1.4486
 1466TIP3   OH2 4361   3.345   6.376   0.393  0.2419  0.0771 -0.1791
 1466TIP3    H1 4362   3.337   6.281   0.385 -1.7685  0.2124 -0.1241
 1466TIP3    H2 4363   3.295   6.412   0.320  0.1707  1.1134  0.3524
 1467TIP3   OH2 4364   1.918   3.118   0.285 -0.1420  0.1877  0.1086
 1467TIP3    H1 4365   2.004   3.127   0.325 -0.3271 -0.6250  0.6989
 1467TIP3    H2 4366   1.883   3.037   0.320 -0.2416 -0.6764 -1.8447
 1468TIP3   OH2 4367   2.151   4.682   2.662  0.3489  0.3113  0.0816
 1468TIP3    H1 4368   2.109   4.759   2.699  0.5360  0.0963  0.7441
 1468TIP3    H2 4369   2.131   4.611   2.722  1.7348  0.2260  0.4956
 1469TIP3   OH2 4370   5.363   4.524   0.839  0.4214 -0.8577  0.4671
 1469TIP3    H1 4371   5.390   4.611   0.869 -0.6906 -0.1699 -0.4671
 1469TIP3    H2 4372   5.279   4.508   0.883  0.2694 -1.1501  0.0765
 1470TIP3   OH2 4373   6.708   5.353   5.282 -0.1880 -0.1691  0.1129
 1470TIP3    H1 4374   6.745   5.270   5.252  1.5151  0.8311 -0.7337
 1470TIP3    H2 4375   6.765   5.420   5.243 -2.1944  1.4494 -0.2053
 1471TIP3   OH2 4376   6.469   1.258   4.552 -0.1518  0.7978 -0.2320
 1471TIP3    H1 4377   6.472   1.235   4.459 -1.3021  2.7776 -0.8176
 1471TIP3    H2 4378   6.405   1.198   4.590  1.0883 -0.7235 -0.4653
 1472TIP3   OH2 4379   4.381   5.925   3.736  0.4590  0.5090  0.4457
 1472TIP3    H1 4380   4.462   5.942   3.784  0.9413 -0.0538 -0.1450
 1472TIP3    H2 4381   4.396   5.963   3.649 -0.4419  1.6168  0.7430
 1473TIP3   OH2 4382   0.221   1.857   3.312 -0.0058 -0.1644 -0.1489
 1473TIP3    H1 4383   0.313   1.882   3.317 -0.0786  0.3288 -1.0970
 1473TIP3    H2 4384   0.189   1.898   3.231 -1.1766  0.0899  0.4147
 1474TIP3   OH2 4385   2.475   2.387   2.235  0.5459  0.1710 -0.6873
 1474TIP3    H1 4386   2.482   2.348   2.149  1.5894  0.6790 -0.8526
 1474TIP3    H2 4387   2.405   2.452   2.226 -1.2147 -1.5863 -0.4003
 1475TIP3   OH2 4388   3.254   5.049   1.521  0.5316  0.4343  0.2486
 1475TIP3    H1 4389   3.191   5.075   1.454  1.0877  0.6442 -0.2010
 1475TIP3    H2 4390   3.204   5.050   1.603 -0.2364 -0.1630 -0.2039
 1476TIP3   OH2 4391   1.423   3.244   1.768 -0.5015  0.0102  0.3984
 1476TIP3    H1 4392   1.456   3.183   1.834 -0.8955 -0.6886 -0.0398
 1476TIP3    H2 4393   1.357   3.296   1.815  0.0407  0.3078  0.8467
 1477TIP3   OH2 4394   2.658   3.328   5.174 -0.0754 -0.2490  0.3869
 1477TIP3    H1 4395   2.616   3.387   5.112 -0.3206 -0.2367  0.5643
 1477TIP3    H2 4396   2.732   3.379   5.209 -0.8342  0.3065  1.2368
 1478TIP3   OH2 4397   1.288   3.102   3.968  0.1355 -0.2191  0.6059
 1478TIP3    H1 4398   1.213   3.043   3.979  1.5889 -2.5949 -1.1242
 1478TIP3    H2 4399   1.302   3.105   3.873  1.4141  1.2777  0.7989
 1479TIP3   OH2 4400   1.787   1.631   4.713 -0.1281 -0.5490 -0.1874
 1479TIP3    H1 4401   1.837   1.712   4.726 -0.3057 -0.7593  2.0876
 1479TIP3    H2 4402   1.822   1.570   4.777 -0.9179 -1.8660 -0.9691
 1480TIP3   OH2 4403   0.109   2.004   5.887  0.2815  0.8683  0.2949
 1480TIP3    H1 4404   0.159   1.937   5.840  0.8222  0.3164  1.6208
 1480TIP3    H2 4405   0.021   1.968   5.893  0.1649  1.0131 -0.4082
 1481TIP3   OH2 4406   5.360   2.014   2.607 -0.0949 -0.1909 -0.2859
 1481TIP3    H1 4407   5.354   2.022   2.702 -0.5435 -0.6142 -0.2757
 1481TIP3    H2 4408   5.452   2.031   2.587 -0.3754  1.9411  0.0156
 1482TIP3   OH2 4409   4.434   6.365   3.717  0.1942 -0.5949 -0.2894
 1482TIP3    H1 4410   4.416   6.277   3.684  0.2214 -0.2997 -1.1266
 1482TIP3    H2 4411   4.375   6.422   3.668  0.6196 -0.0793 -0.2203
 1483TIP3   OH2 4412   0.739   3.163   5.091  0.0262 -0.3834  0.1529
 1483TIP3    H1 4413   0.692   3.116   5.160 -0.6402  0.2314  0.1332
 1483TIP3    H2 4414   0.670   3.201   5.037  0.5476 -0.3295 -0.4875
 1484TIP3   OH2 4415   1.864   6.654   0.841 -0.0988 -0.2891  0.4186
 1484TIP3    H1 4416   1.819   6.698   0.914  0.6998  0.4641  0.4747
 1484TIP3    H2 4417   1.946   6.702   0.831 -0.3232 -0.1798 -1.1864
 1485TIP3   OH2 4418   4.384   1.512   1.811 -0.2806 -0.0256  0.0595
 1485TIP3    H1 4419   4.454   1.540   1.871 -1.4871 -1.3024  2.1986
 1485TIP3    H2 4420   4.314   1.575   1.824 -0.6815 -0.5091  0.2652
 1486TIP3   OH2 4421   5.850   6.343   3.599 -0.0649 -0.0035  0.0893
 1486TIP3    H1 4422   5.932   6.348   3.647 -0.2671 -1.1297  0.5863
 1486TIP3    H2 4423   5.802   6.421   3.626  1.0483  0.9523 -0.6260
 1487TIP3   OH2 4424   0.730   0.619   5.684 -0.6601 -0.5748  0.1175
 1487TIP3    H1 4425   0.662   0.686   5.690 -0.8933 -0.7289 -0.5884
 1487TIP3    H2 4426   0.785   0.633   5.760 -1.6564 -0.6341  0.8700
 1488TIP3   OH2 4427   6.317   6.143   0.878  0.3482 -0.1059 -0.0083
 1488TIP3    H1 4428   6.345   6.090   0.803 -1.1132 -1.5159  0.4109
 1488TIP3    H2 4429   6.222   6.151   0.869  0.1778 -0.0275  1.5278
 1489TIP3   OH2 4430   1.406   1.030   2.644 -0.5034 -0.0212  0.0102
 1489TIP3    H1 4431   1.414   1.006   2.736 -0.6073 -0.0454  0.0127
 1489TIP3    H2 4432   1.404   1.125   2.644  0.9584  0.0428 -0.0775
 1490TIP3   OH2 4433   6.870   3.883   3.630  0.0908  0.2095 -0.1116
 1490TIP3    H1 4434   6.941   3.932   3.672 -0.3251  0.6478  0.0998
 1490TIP3    H2 4435   6.894   3.880   3.537  0.4370  0.2623 -0.0237
 1491TIP3   OH2 4436   3.795   3.149   5.390 -0.0146 -0.0891  0.4321
 1491TIP3    H1 4437   3.710   3.109   5.408  0.0317  0.0072  0.8810
 1491TIP3    H2 4438   3.830   3.100   5.316 -0.7923  0.3562 -0.2534
 1492TIP3   OH2 4439   6.488   3.736   0.305 -0.5447 -0.1597  0.3552
 1492TIP3    H1 4440   6.548   3.793   0.257 -0.6009  0.0468  0.5245
 1492TIP3    H2 4441   6.495   3.651   0.262  0.3177 -0.2951  0.7521
 1493TIP3   OH2 4442   6.407   4.558   2.133 -0.2531 -0.3623  0.1642
 1493TIP3    H1 4443   6.370   4.617   2.068 -0.0674  1.0063  1.2504
 1493TIP3    H2 4444   6.331   4.521   2.178 -0.3653 -0.9459 -0.4777
 1494TIP3   OH2 4445   6.174   4.210   3.484 -0.4217  0.4711 -0.0800
 1494TIP3    H1 4446   6.182   4.211   3.389  2.4179 -0.9259  0.0371
 1494TIP3    H2 4447   6.107   4.144   3.502 -0.1988 -0.0506 -1.0959
 1495TIP3   OH2 4448   2.139   1.293   3.295  0.1518  0.5460 -0.2944
 1495TIP3    H1 4449   2.199   1.292   3.370 -1.4885 -0.7424  1.0809
 1495TIP3    H2 4450   2.100   1.205   3.294 -2.5544  1.6544 -0.3680
 1496TIP3   OH2 4451   6.096   5.511   3.684  0.0932  0.3704  0.1071
 1496TIP3    H1 4452   6.119   5.603   3.677  0.6919  0.1314 -1.4620
 1496TIP3    H2 4453   6.012   5.510   3.730  0.4395  1.6268  0.7972
 1497TIP3   OH2 4454   6.043   5.508   0.340  0.1672 -0.6653  1.3422
 1497TIP3    H1 4455   6.015   5.599   0.334  0.7294 -0.4980  1.2096
 1497TIP3    H2 4456   6.121   5.510   0.394  1.1829 -0.8434 -0.0607
 1498TIP3   OH2 4457   5.177   3.346   1.875 -0.5767 -0.5135 -0.0370
 1498TIP3    H1 4458   5.161   3.440   1.887  2.3382 -0.2104  2.8597
 1498TIP3    H2 4459   5.142   3.306   1.955  1.0711 -1.4372  0.2560
 1499TIP3   OH2 4460   0.499   3.540   5.165 -0.0916 -0.0379  0.4644
 1499TIP3    H1 4461   0.480   3.629   5.197 -2.5940  0.2309 -1.4582
 1499TIP3    H2 4462   0.580   3.549   5.116 -1.5009  1.8421 -1.7374
 1500TIP3   OH2 4463   6.197   4.177   5.061  0.1648 -0.4953 -0.0146
 1500TIP3    H1 4464   6.175   4.089   5.031  2.8394 -0.7286 -1.5926
 1500TIP3    H2 4465   6.153   4.235   4.999 -0.9715 -0.7149  0.5647
 1501TIP3   OH2 4466   2.099   2.564   5.312 -0.1352  0.0105  0.2879
 1501TIP3    H1 4467   2.009   2.578   5.342 -0.7224  1.3432 -1.8233
 1501TIP3    H2 4468   2.090   2.532   5.222  1.5115 -2.2453  0.8403
 1502TIP3   OH2 4469   3.178   5.890   5.667 -0.0796  0.1812 -0.1026
 1502TIP3    H1 4470   3.204   5.798   5.675  1.3284  0.4846 -0.9412
 1502TIP3    H2 4471   3.180   5.908   5.573 -0.0214  1.1551  0.0724
 1503TIP3   OH2 4472   5.538   5.651   3.215 -0.5834  0.6105  0.5560
 1503TIP3    H1 4473   5.622   5.694   3.225  0.0529 -0.6174  0.7720
 1503TIP3    H2 4474   5.475   5.722   3.206  0.3077  1.5846  1.6432
 1504TIP3   OH2 4475   4.008   1.345   4.625 -0.0136  0.2789 -0.5863
 1504TIP3    H1 4476   3.976   1.264   4.585 -1.0426  0.8494 -0.9797
 1504TIP3    H2 4477   4.035   1.320   4.713 -3.2976 -0.0063  0.5019
 1505TIP3   OH2 4478   5.601   4.108   0.794  0.6341 -0.1221 -0.3686
 1505TIP3    H1 4479   5.590   4.120   0.888  1.5765 -1.1260 -0.1058
 1505TIP3    H2 4480   5.556   4.182   0.755 -0.3938 -0.0769  0.8460
 1506TIP3   OH2 4481   6.144   3.028   4.173  0.2570 -0.4621 -0.0201
 1506TIP3    H1 4482   6.160   3.102   4.115 -0.6174  1.8281  2.4158
 1506TIP3    H2 4483   6.048   3.022   4.179  0.2988 -0.0742  1.7245
 1507TIP3   OH2 4484   1.761   2.172   2.032 -0.3288  0.2576  0.9160
 1507TIP3    H1 4485   1.711   2.159   1.952  0.0568 -1.4622  0.9123
 1507TIP3    H2 4486   1.729   2.104   2.092 -0.1700  1.1060  1.9981
 1508TIP3   OH2 4487   1.523   6.450   4.987 -0.3224  0.2549 -0.4155
 1508TIP3    H1 4488   1.529   6.378   4.924 -0.7493 -0.7995  0.6992
 1508TIP3    H2 4489   1.610   6.453   5.028  0.4057  1.8412 -1.9434
 1509TIP3   OH2 4490   2.478   2.477   3.053 -0.1439  0.0596  0.0238
 1509TIP3    H1 4491   2.548   2.432   3.100 -1.0122 -1.2854  0.0822
 1509TIP3    H2 4492   2.449   2.414   2.987 -0.1225  1.2675 -1.1771
 1510TIP3   OH2 4493   4.884   6.648   5.079 -0.0511 -0.5146 -0.1396
 1510TIP3    H1 4494   4.900   6.695   4.997  0.0006 -1.3166 -0.5983
 1510TIP3    H2 4495   4.931   6.565   5.069  0.2897 -0.4545  0.8679
 1511TIP3   OH2 4496   5.389   3.385   5.455 -0.2654 -0.0181 -0.0420
 1511TIP3    H1 4497   5.305   3.417   5.421 -0.1198  1.7072  1.1020
 1511TIP3    H2 4498   5.427   3.336   5.382 -0.6713  2.1609 -1.8286
 1512TIP3   OH2 4499   2.692   5.761   0.348 -0.8393 -0.1217 -0.1508
 1512TIP3    H1 4500   2.653   5.698   0.287 -0.5194 -1.0138  0.5629
 1512TIP3    H2 4501   2.700   5.714   0.430  0.2510  0.5655  0.1581
 1513TIP3   OH2 4502   4.153   1.889   2.660  0.3053  0.0859  0.1054
 1513TIP3    H1 4503   4.180   1.912   2.571  0.6789  0.6750  0.3638
 1513TIP3    H2 4504   4.058   1.901   2.659 -0.0441 -2.2561 -0.8838
 1514TIP3   OH2 4505   0.967   2.305   3.940  0.0588  0.0628 -0.1031
 1514TIP3    H1 4506   0.979   2.211   3.945  0.8346  0.1978  0.9481
 1514TIP3    H2 4507   1.038   2.342   3.992 -0.1522  1.2380 -0.5997
 1515TIP3   OH2 4508   2.736   2.003   5.538 -0.9470 -0.1161 -0.3243
 1515TIP3    H1 4509   2.721   1.914   5.504 -1.0314  0.3208 -1.4601
 1515TIP3    H2 4510   2.831   2.011   5.541 -0.9327  0.0357 -1.0034
 1516TIP3   OH2 4511   0.244   5.139   0.310  0.7278 -0.0828 -0.6778
 1516TIP3    H1 4512   0.171   5.103   0.361 -0.1676 -1.3786 -2.7419
 1516TIP3    H2 4513   0.310   5.070   0.310  1.3894  0.5381  0.0194
 1517TIP3   OH2 4514   2.404   4.753   4.496 -0.2909  0.3407  0.0687
 1517TIP3    H1 4515   2.413   4.840   4.534 -0.6949  0.1159  0.7008
 1517TIP3    H2 4516   2.487   4.737   4.452  0.1145  0.6998  0.6900
 1518TIP3   OH2 4517   5.612   1.985   3.841  0.2500  0.6230  0.7312
 1518TIP3    H1 4518   5.646   1.907   3.797 -0.9854  0.3079  0.2893
 1518TIP3    H2 4519   5.687   2.044   3.846  2.3202 -1.8931  4.4291
 1519TIP3   OH2 4520   5.574   3.787   1.936 -0.4188  0.0844 -0.1362
 1519TIP3    H1 4521   5.598   3.850   1.868 -0.9381 -1.7763 -2.1506
 1519TIP3    H2 4522   5.658   3.757   1.971 -0.1694  1.9275  0.9548
 1520TIP3   OH2 4523   0.967   1.158   3.546  0.4232  0.6294  0.3256
 1520TIP3    H1 4524   1.056   1.141   3.515  0.4510 -0.2074  0.8173
 1520TIP3    H2 4525   0.919   1.077   3.527 -0.1732  0.9806  0.2900
 1521TIP3   OH2 4526   4.541   0.085   5.513 -0.0434 -0.1542  1.0214
 1521TIP3    H1 4527   4.459   0.120   5.478  0.1414  0.0650  0.8022
 1521TIP3    H2 4528   4.559   0.008   5.460 -0.8645 -1.0620  2.0193
 1522TIP3   OH2 4529   6.029   6.364   0.045 -0.2287 -0.6624  0.6842
 1522TIP3    H1 4530   5.955   6.382   0.103 -0.0818  1.0373  0.4092
 1522TIP3    H2 4531   6.096   6.328   0.102 -0.1763  0.7407  1.5717
 1523TIP3   OH2 4532   1.126   0.389   0.488  0.1502  0.5207  0.3071
 1523TIP3    H1 4533   1.221   0.383   0.481  0.0629  0.8963 -1.6201
 1523TIP3    H2 4534   1.093   0.349   0.408 -1.3292  0.3956  0.9454
 1524TIP3   OH2 4535   1.867   1.054   0.407 -0.4225  0.5790  0.1464
 1524TIP3    H1 4536   1.807   1.003   0.460 -0.2309  1.2727  1.0646
 1524TIP3    H2 4537   1.840   1.145   0.421  1.5502  1.0268  1.5852
 1525TIP3   OH2 4538   3.437   6.341   4.033  0.2475 -0.3063 -0.3591
 1525TIP3    H1 4539   3.501   6.338   3.962  0.7824 -0.1523  0.1135
 1525TIP3    H2 4540   3.368   6.399   4.001  0.5850 -0.0713 -0.6638
 1526TIP3   OH2 4541   3.460   2.006   0.690  0.3998 -0.4588  0.2848
 1526TIP3    H1 4542   3.495   2.034   0.775 -2.5399  2.2325  0.7994
 1526TIP3    H2 4543   3.476   2.081   0.632 -1.5029 -0.4233 -0.2719
 1527TIP3   OH2 4544   3.921   3.076   3.866  0.3439 -0.8568 -0.1784
 1527TIP3    H1 4545   3.935   3.151   3.924  0.3525 -1.1294  0.1799
 1527TIP3    H2 4546   3.912   3.114   3.779 -2.2228 -0.1726  0.2908
 1528TIP3   OH2 4547   5.363   1.669   5.479 -0.1503  0.1714 -0.3049
 1528TIP3    H1 4548   5.417   1.735   5.435  3.6252 -1.9089  0.7072
 1528TIP3    H2 4549   5.386   1.587   5.434 -3.3104 -0.7908 -0.3627
 1529TIP3   OH2 4550   5.265   4.476   4.020  0.2479 -0.3010 -0.3411
 1529TIP3    H1 4551   5.220   4.400   3.984  1.1783 -1.0704  0.0812
 1529TIP3    H2 4552   5.345   4.441   4.060  0.8611  0.9325 -0.4171
 1530TIP3   OH2 4553   6.374   3.044   1.043 -0.0361  0.2735 -0.1384
 1530TIP3    H1 4554   6.415   2.986   0.979  0.4452  0.4160  0.0371
 1530TIP3    H2 4555   6.406   3.012   1.128  0.1873  0.7539 -0.0360
 1531TIP3   OH2 4556   2.920   0.696   2.443  0.1084  0.4836 -0.3086
 1531TIP3    H1 4557   2.840   0.719   2.396  1.1091  0.3744 -2.1739
 1531TIP3    H2 4558   2.981   0.668   2.374  2.1393  1.6800  0.9112
 1532TIP3   OH2 4559   1.681   1.295   0.251 -0.1073 -0.2233  0.9613
 1532TIP3    H1 4560   1.757   1.277   0.195 -0.2817  1.5744  0.0401
 1532TIP3    H2 4561   1.718   1.308   0.338  0.5507 -0.1453  0.6804
 1533TIP3   OH2 4562   1.604   2.963   2.846 -0.4126 -0.2640 -0.0694
 1533TIP3    H1 4563   1.642   2.881   2.876 -1.1576  0.1917  2.2868
 1533TIP3    H2 4564   1.509   2.949   2.848 -0.5274  0.3622 -0.5205
 1534TIP3   OH2 4565   4.896   2.149   4.529  0.2046  0.2391 -0.0829
 1534TIP3    H1 4566   4.863   2.193   4.450 -0.2916  0.4036  0.2136
 1534TIP3    H2 4567   4.832   2.080   4.546  1.2007 -0.9235 -0.8034
 1535TIP3   OH2 4568   1.136   1.827   4.677  0.3470 -0.6340  0.0251
 1535TIP3    H1 4569   1.130   1.809   4.583 -2.2343 -2.1131  0.3641
 1535TIP3    H2 4570   1.183   1.752   4.713  2.1916  0.3897 -0.1218
 1536TIP3   OH2 4571   0.024   5.260   5.531  0.3637  0.0757 -0.0774
 1536TIP3    H1 4572  -0.070   5.281   5.530  0.1863 -0.6762  0.3253
 1536TIP3    H2 4573   0.059   5.313   5.602  0.3037  0.5755 -0.4112
 1537TIP3   OH2 4574   5.837   5.898   5.421  0.0713  0.4193  0.0558
 1537TIP3    H1 4575   5.843   5.986   5.457 -1.7472  0.0150  1.4631
 1537TIP3    H2 4576   5.766   5.903   5.357  0.1505  0.0159 -0.0690
 1538TIP3   OH2 4577   1.999   5.383   4.625 -0.5917  0.4273  0.1772
 1538TIP3    H1 4578   1.974   5.466   4.665 -0.3128  1.2894 -1.3628
 1538TIP3    H2 4579   2.087   5.366   4.658  0.0746  1.6865 -0.8941
 1539TIP3   OH2 4580   2.618   4.383   1.182 -0.4358  0.0817  0.3807
 1539TIP3    H1 4581   2.680   4.359   1.112 -1.0792 -1.7464  0.3747
 1539TIP3    H2 4582   2.604   4.477   1.171 -1.1874 -0.2656 -2.5697
 1540TIP3   OH2 4583   1.551   4.986   5.049  0.2316 -0.2440 -0.2690
 1540TIP3    H1 4584   1.592   4.938   4.978  0.2776 -0.2403 -0.2448
 1540TIP3    H2 4585   1.575   4.937   5.128  0.6624  0.0808 -0.1994
 1541TIP3   OH2 4586   5.740   5.208   5.270 -0.6656 -0.2696 -0.6794
 1541TIP3    H1 4587   5.791   5.255   5.337 -2.7051  0.4961  0.4277
 1541TIP3    H2 4588   5.653   5.200   5.308 -1.5457 -1.0232 -2.7274
 1542TIP3   OH2 4589   5.819   0.496   1.749 -0.3154 -0.1928  0.3679
 1542TIP3    H1 4590   5.791   0.474   1.660 -1.3916 -0.5299  0.7877
 1542TIP3    H2 4591   5.881   0.569   1.737  0.4042 -0.9599 -0.7355
 1543TIP3   OH2 4592   5.894   4.116   4.018  0.1582  0.7194  0.6993
 1543TIP3    H1 4593   5.842   4.037   4.033 -0.6616  1.4236  1.7425
 1543TIP3    H2 4594   5.888   4.165   4.100  1.4942  1.3973  0.4308
 1544TIP3   OH2 4595   4.403   2.183   1.816  0.5114 -0.2786 -0.0504
 1544TIP3    H1 4596   4.342   2.112   1.836  1.2342 -0.9437 -0.1844
 1544TIP3    H2 4597   4.375   2.215   1.730  0.2467 -0.4593 -0.0327
 1545TIP3   OH2 4598   6.466   4.532   4.880  0.0163  0.0950 -0.3198
 1545TIP3    H1 4599   6.474   4.437   4.890 -0.8962  0.1301  0.9107
 1545TIP3    H2 4600   6.556   4.564   4.887  0.2671 -0.6298 -0.1249
 1546TIP3   OH2 4601   0.149   3.281   3.932  0.8084 -0.1249  0.4002
 1546TIP3    H1 4602   0.187   3.319   3.853 -1.1041 -2.1427 -1.6275
 1546TIP3    H2 4603   0.066   3.327   3.944  0.6719 -0.4373  0.6962
 1547TIP3   OH2 4604   0.293   6.374   1.232  0.2629  0.0061 -0.4809
 1547TIP3    H1 4605   0.293   6.469   1.222  2.4982 -0.0308 -1.7250
 1547TIP3    H2 4606   0.373   6.355   1.282  0.1721 -1.2345 -0.7711
 1548TIP3   OH2 4607   0.528   1.376   4.656 -0.6810 -0.4738 -0.1341
 1548TIP3    H1 4608   0.453   1.326   4.624 -0.9951  0.4230 -0.8625
 1548TIP3    H2 4609   0.522   1.460   4.609 -0.5837  0.5241  1.5751
 1549TIP3   OH2 4610   5.018   2.407   4.560 -0.1612  0.2309 -0.3329
 1549TIP3    H1 4611   4.990   2.316   4.577 -1.0298  0.3898 -0.8517
 1549TIP3    H2 4612   4.957   2.438   4.493  0.4146  1.0610 -0.4771
 1550TIP3   OH2 4613   3.359   3.186   0.116 -0.4503  0.1095  0.0709
 1550TIP3    H1 4614   3.351   3.280   0.134 -1.3284  0.2589 -0.9950
 1550TIP3    H2 4615   3.268   3.155   0.114 -0.2132 -0.5395 -0.7045
 1551TIP3   OH2 4616   2.906   2.360   2.632 -0.2876 -0.0328 -0.4626
 1551TIP3    H1 4617   2.884   2.413   2.709  0.5966 -2.5919  1.7226
 1551TIP3    H2 4618   2.941   2.423   2.569  0.0767  2.0678  1.6740
 1552TIP3   OH2 4619   3.152   1.321   1.946  0.4492 -0.2049 -0.3755
 1552TIP3    H1 4620   3.189   1.269   1.874  0.8116  0.9088 -1.0205
 1552TIP3    H2 4621   3.198   1.405   1.941 -1.2178  0.7522 -0.3719
 1553TIP3   OH2 4622   2.106   0.983   0.105  0.6703 -0.7927 -0.6783
 1553TIP3    H1 4623   2.171   1.048   0.132 -0.7161 -0.0643  1.0782
 1553TIP3    H2 4624   2.158   0.915   0.062  2.4517  0.3156 -0.4135
 1554TIP3   OH2 4625   2.534   3.846   5.627 -0.6347 -0.1745  0.0122
 1554TIP3    H1 4626   2.548   3.928   5.579 -0.0541  0.3833  1.0970
 1554TIP3    H2 4627   2.545   3.778   5.561  1.3609  0.5205 -0.4463
 1555TIP3   OH2 4628   2.380   6.220   2.689 -0.0368 -0.1549 -0.4965
 1555TIP3    H1 4629   2.369   6.263   2.774  1.0619 -0.7672 -0.0158
 1555TIP3    H2 4630   2.351   6.130   2.705  0.1927 -0.2761 -0.7555
 1556TIP3   OH2 4631   5.320   0.359   3.745 -0.1907 -0.0929 -1.1916
 1556TIP3    H1 4632   5.261   0.290   3.775  0.6869 -0.6753 -0.7692
 1556TIP3    H2 4633   5.310   0.429   3.809  1.5306 -1.2481  0.4773
 1557TIP3   OH2 4634   4.694   4.854   4.887 -0.1900 -0.3156  0.3361
 1557TIP3    H1 4635   4.716   4.769   4.850 -0.0278  1.0100 -3.0379
 1557TIP3    H2 4636   4.778   4.892   4.911 -0.0669 -0.4107  0.0666
 1558TIP3   OH2 4637   2.785   3.727   5.296  0.1987  0.1161 -0.2118
 1558TIP3    H1 4638   2.717   3.679   5.342 -0.0054 -0.8112 -1.4187
 1558TIP3    H2 4639   2.823   3.785   5.362 -0.6910 -0.4919  0.8646
 1559TIP3   OH2 4640   2.050   4.196   5.187  0.0875 -0.2277  0.3216
 1559TIP3    H1 4641   2.058   4.240   5.101  2.4764  0.9622  1.0404
 1559TIP3    H2 4642   2.009   4.112   5.167  0.3338  0.1099 -1.9648
 1560TIP3   OH2 4643   5.699   0.012   2.986 -0.2633  0.0195  0.1097
 1560TIP3    H1 4644   5.624   0.070   3.001 -0.6869 -0.4954  0.0022
 1560TIP3    H2 4645   5.770   0.071   2.961 -0.9551  0.4150 -0.9651
 1561TIP3   OH2 4646   2.255   2.396   2.515  0.1158 -0.7861  0.4955
 1561TIP3    H1 4647   2.178   2.427   2.563  1.1761  0.5619  1.4145
 1561TIP3    H2 4648   2.280   2.469   2.459 -0.3532 -1.8906 -1.2412
 1562TIP3   OH2 4649   3.263   5.568   2.285 -0.4491  0.6353 -0.3343
 1562TIP3    H1 4650   3.301   5.653   2.261  0.2886  0.7310  1.0373
 1562TIP3    H2 4651   3.339   5.510   2.296 -0.8055  0.3422  0.6844
 1563TIP3   OH2 4652   0.087   2.789   0.770 -0.1621  0.3298  0.4756
 1563TIP3    H1 4653   0.063   2.878   0.744 -0.0675  0.4067  0.6476
 1563TIP3    H2 4654   0.060   2.783   0.862  0.6539  0.4881  0.7333
 1564TIP3   OH2 4655   2.254   1.204   3.992  0.0110 -0.3165 -0.3636
 1564TIP3    H1 4656   2.343   1.231   4.014  0.1580 -0.1221 -1.1762
 1564TIP3    H2 4657   2.235   1.132   4.052  1.0127 -0.8894 -0.7238
 1565TIP3   OH2 4658   3.920   4.464   4.001  0.1264  0.0128 -0.4541
 1565TIP3    H1 4659   3.976   4.538   4.024  2.2746 -2.0040  1.4681
 1565TIP3    H2 4660   3.848   4.469   4.064  0.3666  0.3757 -0.1995
 1566TIP3   OH2 4661   0.359   5.211   4.340  0.2934  0.1461 -0.0610
 1566TIP3    H1 4662   0.340   5.131   4.389  2.2657  1.0866  2.4917
 1566TIP3    H2 4663   0.281   5.266   4.352  0.2263 -0.1598  0.9881
 1567TIP3   OH2 4664   0.689   5.804   5.876  0.0013 -0.0058  0.0070
 1567TIP3    H1 4665   0.623   5.734   5.883  0.5743 -0.7053 -1.3208
 1567TIP3    H2 4666   0.654   5.863   5.810 -0.7675  1.3251  1.5531
 1568TIP3   OH2 4667   2.213   2.783   4.978  0.2725 -0.8793  0.7165
 1568TIP3    H1 4668   2.127   2.806   5.013  0.6318 -1.3952  1.9868
 1568TIP3    H2 4669   2.214   2.687   4.979  0.1756 -0.9186 -1.0417
 1569TIP3   OH2 4670   4.012   2.806   0.657  0.0146 -0.1629  0.2026
 1569TIP3    H1 4671   3.996   2.751   0.734 -0.4489 -0.1729  0.1058
 1569TIP3    H2 4672   4.026   2.744   0.586 -1.0976 -0.1747 -0.0265
 1570TIP3   OH2 4673   3.357   6.586   0.646 -0.7900  0.6902 -0.4093
 1570TIP3    H1 4674   3.438   6.536   0.647 -1.1356  0.1037 -0.9087
 1570TIP3    H2 4675   3.330   6.586   0.554 -1.1058  1.2864 -0.3211
 1571TIP3   OH2 4676   3.966   0.236   0.194  0.6737  0.2571  0.8245
 1571TIP3    H1 4677   3.997   0.316   0.237  1.6421  0.2315  0.1983
 1571TIP3    H2 4678   3.873   0.252   0.179  0.6190  0.8246  1.6750
 1572TIP3   OH2 4679   2.958   1.307   3.820 -0.0961 -0.2565  0.4546
 1572TIP3    H1 4680   2.876   1.301   3.772 -0.4278 -0.4985  1.0418
 1572TIP3    H2 4681   3.025   1.313   3.752 -0.6989  1.5370 -0.0143
 1573TIP3   OH2 4682   3.529   2.181   4.358 -0.0518 -0.2453 -0.1062
 1573TIP3    H1 4683   3.447   2.153   4.397 -0.0169 -0.8386 -0.4484
 1573TIP3    H2 4684   3.588   2.106   4.369  0.3891  0.1058 -0.0257
 1574TIP3   OH2 4685   6.057   6.485   5.237  0.4025  0.0808 -0.0599
 1574TIP3    H1 4686   6.072   6.467   5.330  1.1835 -0.3740 -0.2551
 1574TIP3    H2 4687   6.077   6.578   5.227 -3.2038  1.0984  0.8765
 1575TIP3   OH2 4688   3.136   5.699   1.705  0.1349  0.1249 -0.3318
 1575TIP3    H1 4689   3.089   5.676   1.626  0.2486 -1.8616  0.1269
 1575TIP3    H2 4690   3.068   5.708   1.772  0.1470  0.4582 -0.3640
 1576TIP3   OH2 4691   6.680   1.537   4.030 -0.1672 -0.0484 -0.4915
 1576TIP3    H1 4692   6.592   1.502   4.015 -0.8818  1.2758  0.4052
 1576TIP3    H2 4693   6.667   1.630   4.045  1.2389 -0.0401  1.0173
 1577TIP3   OH2 4694   3.873   4.615   0.109 -0.2920  0.5368 -0.4574
 1577TIP3    H1 4695   3.844   4.642   0.022 -0.9565  0.1805 -0.3483
 1577TIP3    H2 4696   3.814   4.544   0.134  0.1778  0.3307  0.0983
 1578TIP3   OH2 4697   1.467   2.947   5.232  0.0652 -0.3168  0.1697
 1578TIP3    H1 4698   1.373   2.962   5.238 -0.0980 -0.6604 -1.2809
 1578TIP3    H2 4699   1.506   3.034   5.238 -0.4069 -0.0781 -0.2188
 1579TIP3   OH2 4700   3.432   4.741   3.555  0.2054 -0.7288 -0.4725
 1579TIP3    H1 4701   3.380   4.663   3.574  0.8798 -1.6468 -2.1909
 1579TIP3    H2 4702   3.477   4.761   3.637 -3.0838  0.3751  1.2346
 1580TIP3   OH2 4703   6.627   4.134   0.412  0.4263 -0.2395  0.1720
 1580TIP3    H1 4704   6.639   4.154   0.505  1.3564 -1.4027  0.3247
 1580TIP3    H2 4705   6.550   4.079   0.409  0.1277  0.1694  0.1882
 1581TIP3   OH2 4706   4.609   6.556   3.615  0.2097 -0.2373 -0.5935
 1581TIP3    H1 4707   4.629   6.505   3.536  0.9323 -1.0860  0.1236
 1581TIP3    H2 4708   4.563   6.494   3.672 -0.7678  0.5146 -0.5287
 1582TIP3   OH2 4709   3.495   2.504   4.951  0.1150 -0.0116 -0.1853
 1582TIP3    H1 4710   3.423   2.566   4.958 -1.0214 -1.4503  1.7367
 1582TIP3    H2 4711   3.568   2.556   4.916 -1.2332  1.9693 -0.2239
 1583TIP3   OH2 4712   2.249   1.145   1.334  0.7856  0.4470  0.5220
 1583TIP3    H1 4713   2.317   1.092   1.291 -0.7587 -0.9640 -0.2886
 1583TIP3    H2 4714   2.221   1.090   1.408 -0.8636  0.0619 -0.3472
 1584TIP3   OH2 4715   4.860   3.008   2.823 -0.1493 -0.3936 -0.7112
 1584TIP3    H1 4716   4.775   2.998   2.780  0.6683 -0.8895 -2.2744
 1584TIP3    H2 4717   4.902   3.080   2.777 -0.0093  0.3778  0.5814
 1585TIP3   OH2 4718   0.973   2.555   3.246  0.0641 -0.7567  0.1502
 1585TIP3    H1 4719   1.056   2.576   3.203 -0.0589 -0.8943 -0.1573
 1585TIP3    H2 4720   0.979   2.462   3.267  0.5330 -0.4707  1.3447
 1586TIP3   OH2 4721   4.503   4.559   5.070 -0.0217  0.0823 -0.1697
 1586TIP3    H1 4722   4.544   4.474   5.086 -0.3737  0.2613  1.8809
 1586TIP3    H2 4723   4.506   4.569   4.975  1.7878 -1.3366 -0.3171
 1587TIP3   OH2 4724   2.688   6.035   0.456  0.3981  0.0170 -0.2219
 1587TIP3    H1 4725   2.683   5.949   0.415  0.1999  0.5871 -1.4119
 1587TIP3    H2 4726   2.605   6.045   0.502  0.2146 -0.2198 -0.5006
 1588TIP3   OH2 4727   5.526   2.372   0.904 -0.9674  0.2257 -0.5218
 1588TIP3    H1 4728   5.462   2.302   0.916 -0.1201 -0.2394  1.8219
 1588TIP3    H2 4729   5.610   2.326   0.896 -0.4886  0.9262  0.3297
 1589TIP3   OH2 4730   7.067   2.283   2.132 -0.1365 -0.1195  0.5078
 1589TIP3    H1 4731   7.149   2.323   2.161 -0.2223 -0.6426  1.4922
 1589TIP3    H2 4732   7.005   2.302   2.202 -0.0928 -2.2344  1.1625
 1590TIP3   OH2 4733   1.136   2.491   0.370 -0.1287 -0.3491  0.3803
 1590TIP3    H1 4734   1.082   2.526   0.440  0.2493 -0.9760  0.9891
 1590TIP3    H2 4735   1.134   2.559   0.302 -0.6961  0.1477  0.8883
 1591TIP3   OH2 4736   5.494  -0.018   2.298  0.4582  0.5192 -0.5128
 1591TIP3    H1 4737   5.514   0.066   2.255  2.0220  1.3664  1.6453
 1591TIP3    H2 4738   5.449   0.007   2.379  0.4543 -0.7594 -0.0994
 1592TIP3   OH2 4739   0.086   2.781   3.000  0.3027  0.1997 -0.7307
 1592TIP3    H1 4740   0.153   2.725   2.961 -0.0308  0.0021 -1.0237
 1592TIP3    H2 4741   0.070   2.849   2.936 -1.4697 -1.0698 -1.7395
 1593TIP3   OH2 4742   3.483   1.788   0.536  0.4037  0.2559 -0.1181
 1593TIP3    H1 4743   3.489   1.861   0.597 -1.1844  0.0684  0.3162
 1593TIP3    H2 4744   3.477   1.711   0.592 -0.7117  0.0474 -0.5030
 1594TIP3   OH2 4745   0.565   1.157   2.293  0.8227 -0.0355  0.4934
 1594TIP3    H1 4746   0.575   1.244   2.331 -2.4055  0.6347  0.0665
 1594TIP3    H2 4747   0.619   1.159   2.214  0.2300  1.8686  0.0991
 1595TIP3   OH2 4748   4.113   4.452   0.934  0.2671 -0.0836  0.4339
 1595TIP3    H1 4749   4.131   4.365   0.969  1.1508  0.6503  1.8928
 1595TIP3    H2 4750   4.194   4.477   0.889  0.3302  0.3325  0.7759
 1596TIP3   OH2 4751   2.739   0.165   1.975 -0.2986  0.1542  0.6569
 1596TIP3    H1 4752   2.740   0.248   1.927 -1.7870  0.1085  0.5012
 1596TIP3    H2 4753   2.815   0.117   1.941 -0.9520  0.3715 -1.2336
 1597TIP3   OH2 4754   6.141   6.653   3.368  0.0392 -0.1393  0.1720
 1597TIP3    H1 4755   6.111   6.617   3.284 -2.6446  1.0761  0.4897
 1597TIP3    H2 4756   6.205   6.720   3.344  0.9684 -1.2942 -0.7224
 1598TIP3   OH2 4757   5.606   4.263   0.174 -0.3291  0.4007  0.1621
 1598TIP3    H1 4758   5.519   4.294   0.147 -0.1621 -0.0335 -0.9336
 1598TIP3    H2 4759   5.644   4.336   0.223 -0.9899  0.8976 -0.0579
 1599TIP3   OH2 4760   1.110   3.223   1.219  0.4400 -0.1171 -0.1157
 1599TIP3    H1 4761   1.168   3.150   1.195  0.7772  0.7626 -2.2434
 1599TIP3    H2 4762   1.051   3.186   1.284 -0.4317 -2.8163 -2.2187
 1600TIP3   OH2 4763   7.135   0.211   3.123 -0.2268 -0.2780 -0.3492
 1600TIP3    H1 4764   7.058   0.268   3.119  0.4649  0.7176  0.1242
 1600TIP3    H2 4765   7.101   0.126   3.151 -1.2298 -0.0096 -0.7047
 1601TIP3   OH2 4766   7.087   2.001   2.432  0.5352 -0.1825 -0.1571
 1601TIP3    H1 4767   7.169   1.954   2.413  1.8662  0.7469  2.7717
 1601TIP3    H2 4768   7.115   2.087   2.463 -1.6949  0.9856 -1.1593
 1602TIP3   OH2 4769   5.874   5.142   2.683  0.0445 -0.6819  0.3465
 1602TIP3    H1 4770   5.787   5.170   2.710 -0.0446 -0.4344 -0.1788
 1602TIP3    H2 4771   5.858   5.069   2.623  0.0676  0.7502 -1.4897
 1603TIP3   OH2 4772   6.116   6.528   2.720  0.3929 -0.3987 -0.1183
 1603TIP3    H1 4773   6.051   6.531   2.789 -0.4550 -1.6851 -0.8392
 1603TIP3    H2 4774   6.109   6.614   2.677 -0.6895 -0.4610 -0.0748
 1604TIP3   OH2 4775   3.990   3.057   4.421  0.0816 -0.5895  0.0517
 1604TIP3    H1 4776   4.048   3.068   4.345 -1.3839 -1.1619 -1.2059
 1604TIP3    H2 4777   3.903   3.045   4.383 -1.0554  1.1779  1.9059
 1605TIP3   OH2 4778   7.087   2.156   5.750  0.8271  0.5368 -0.1834
 1605TIP3    H1 4779   7.043   2.095   5.691 -1.0309  1.3728  0.2654
 1605TIP3    H2 4780   7.093   2.108   5.833  2.1204 -0.1031 -0.6226
 1606TIP3   OH2 4781   6.723   6.018   1.467 -0.0836  0.2583  0.2970
 1606TIP3    H1 4782   6.800   6.044   1.415  1.3142 -1.0141  1.6200
 1606TIP3    H2 4783   6.661   5.985   1.402  1.2835 -0.5388 -0.6694
 1607TIP3   OH2 4784   1.319   1.228   0.663 -0.1562 -0.3019 -0.4480
 1607TIP3    H1 4785   1.397   1.174   0.674 -0.3162 -0.6815 -1.1180
 1607TIP3    H2 4786   1.295   1.217   0.571  0.4596  1.8065 -0.9103
 1608TIP3   OH2 4787   2.371   1.273   4.322  0.4977  0.3756 -0.2160
 1608TIP3    H1 4788   2.348   1.189   4.284 -0.2213  0.4818 -0.0254
 1608TIP3    H2 4789   2.337   1.269   4.412 -0.9311  1.4363 -0.6699
 1609TIP3   OH2 4790   2.143   1.541   3.161  0.0097 -0.3998  0.3621
 1609TIP3    H1 4791   2.137   1.452   3.197  0.3364  0.0601  1.6093
 1609TIP3    H2 4792   2.058   1.554   3.118 -0.7919 -0.6791  1.7590
 1610TIP3   OH2 4793   1.409   3.713   1.307 -0.3029  0.3837 -0.1282
 1610TIP3    H1 4794   1.418   3.643   1.242  0.1306 -0.6955  1.0572
 1610TIP3    H2 4795   1.484   3.770   1.292  2.3752 -2.2165  2.1267
 1611TIP3   OH2 4796   4.474   1.554   3.890  0.1977  0.2590  1.0851
 1611TIP3    H1 4797   4.520   1.623   3.843  0.5917 -0.7436 -0.0502
 1611TIP3    H2 4798   4.533   1.479   3.886 -1.2212 -0.8701  0.1317
 1612TIP3   OH2 4799   4.473   4.049   0.488  0.0414  0.2373 -0.2685
 1612TIP3    H1 4800   4.457   4.071   0.397  1.7804  1.1868 -0.3902
 1612TIP3    H2 4801   4.562   4.013   0.489 -0.9609 -2.4108  0.6667
 1613TIP3   OH2 4802   4.541   6.096   2.988  0.4693 -1.0458  0.7969
 1613TIP3    H1 4803   4.630   6.130   2.984 -0.4656  1.5741  0.0126
 1613TIP3    H2 4804   4.498   6.132   2.910 -1.6285 -1.0682  1.8578
 1614TIP3   OH2 4805   4.339   6.045   4.406 -0.3932  0.0506  0.3004
 1614TIP3    H1 4806   4.368   6.075   4.320  2.0837 -0.1246  0.9905
 1614TIP3    H2 4807   4.327   5.950   4.396  1.6059 -0.2695  0.5018
 1615TIP3   OH2 4808   3.510   0.423   5.175  0.2090  0.1465  0.3837
 1615TIP3    H1 4809   3.510   0.519   5.167  1.8751  0.2782  1.5622
 1615TIP3    H2 4810   3.541   0.406   5.264 -2.4222 -1.4843  1.0921
 1616TIP3   OH2 4811   3.518   2.198   1.804  0.2972 -0.3372  0.5462
 1616TIP3    H1 4812   3.582   2.198   1.875 -1.0960  0.7858  1.8674
 1616TIP3    H2 4813   3.529   2.284   1.763 -0.1618 -0.2562  0.5921
 1617TIP3   OH2 4814   0.892   3.947   4.178  0.2884  0.3461 -0.4156
 1617TIP3    H1 4815   0.977   3.904   4.193  0.8360  0.7975 -2.0537
 1617TIP3    H2 4816   0.841   3.883   4.129  0.0958  0.5230 -0.4463
 1618TIP3   OH2 4817   2.351   3.816   0.762  0.6572 -0.4037 -0.1705
 1618TIP3    H1 4818   2.368   3.907   0.788  2.2091 -1.1619  1.6527
 1618TIP3    H2 4819   2.284   3.824   0.693 -1.0283  1.9844  1.5435
 1619TIP3   OH2 4820   3.025   5.876   2.226 -0.5681  0.4696 -0.1084
 1619TIP3    H1 4821   3.010   5.967   2.253 -0.0277  0.5413 -0.0393
 1619TIP3    H2 4822   3.048   5.883   2.133  0.4254  0.5021  0.1301
 1620TIP3   OH2 4823   1.820   4.502   3.332 -0.4047 -0.0309  0.0430
 1620TIP3    H1 4824   1.783   4.582   3.294 -0.8129 -0.3750 -0.2873
 1620TIP3    H2 4825   1.744   4.450   3.359 -0.1720 -0.7178 -0.5897
 1621TIP3   OH2 4826   4.241   2.290   1.602 -0.9720  0.2696  0.2534
 1621TIP3    H1 4827   4.162   2.284   1.655 -0.2024 -1.1434  1.2821
 1621TIP3    H2 4828   4.281   2.373   1.628 -1.6551  0.5730  0.3591
 1622TIP3   OH2 4829   3.441   3.084   2.206  0.5520  0.1108  0.1840
 1622TIP3    H1 4830   3.368   3.112   2.262  0.4603  0.8265 -0.2788
 1622TIP3    H2 4831   3.508   3.054   2.268  0.9454  2.0585  0.7759
 1623TIP3   OH2 4832   0.695   0.712   4.210  0.3674 -0.2352 -0.5125
 1623TIP3    H1 4833   0.760   0.776   4.238 -1.6402  1.8348 -0.2705
 1623TIP3    H2 4834   0.672   0.664   4.289  1.6219 -1.0600 -0.6234
 1624TIP3   OH2 4835   0.736   2.584   1.582  0.1163 -0.0764 -0.1161
 1624TIP3    H1 4836   0.712   2.609   1.671  0.3915  0.6021 -0.2240
 1624TIP3    H2 4837   0.789   2.505   1.593  3.0896  1.8426  0.6739
 1625TIP3   OH2 4838   3.805   1.548   5.723 -0.0383  0.2243 -0.2305
 1625TIP3    H1 4839   3.876   1.509   5.774  0.7272  0.6233 -0.9768
 1625TIP3    H2 4840   3.826   1.641   5.718  0.6583  0.0081 -2.4202
 1626TIP3   OH2 4841   4.043   0.269   3.765  0.9461  0.3838  0.3442
 1626TIP3    H1 4842   4.030   0.228   3.679  0.1724  0.1896  0.5480
 1626TIP3    H2 4843   3.956   0.271   3.804  1.1279  1.3521  0.7367
 1627TIP3   OH2 4844   0.229   3.101   3.671  0.8121  0.0524  0.0242
 1627TIP3    H1 4845   0.252   3.194   3.676 -1.2750  0.5661  1.2752
 1627TIP3    H2 4846   0.200   3.089   3.580 -1.1073  1.2520  0.4245
 1628TIP3   OH2 4847   0.664   4.463   0.654 -0.3031 -0.6695 -0.2357
 1628TIP3    H1 4848   0.576   4.499   0.645 -0.0784 -0.4180 -1.7134
 1628TIP3    H2 4849   0.717   4.516   0.595  0.6566 -1.4186 -0.0633
 1629TIP3   OH2 4850   2.426   5.571   5.703  0.0039 -0.3561  0.5819
 1629TIP3    H1 4851   2.414   5.477   5.689  1.5220 -0.4824 -0.0758
 1629TIP3    H2 4852   2.400   5.586   5.794 -0.4279 -1.3626  0.6351
 1630TIP3   OH2 4853   1.018   0.944   2.091 -0.0814 -0.4331  0.0368
 1630TIP3    H1 4854   0.986   0.986   2.171 -0.6854  1.4787 -1.1310
 1630TIP3    H2 4855   0.947   0.885   2.066  0.0158 -0.8742  0.7875
 1631TIP3   OH2 4856   3.604   3.460   4.430  0.4775  0.3950 -0.0559
 1631TIP3    H1 4857   3.542   3.403   4.476  2.5911 -1.7022  0.4149
 1631TIP3    H2 4858   3.613   3.537   4.487 -0.6191  0.0879  0.5573
 1632TIP3   OH2 4859   3.185   0.288   1.819 -0.0917 -0.5192 -0.3565
 1632TIP3    H1 4860   3.257   0.275   1.757 -0.1530  0.9557 -0.7872
 1632TIP3    H2 4861   3.227   0.327   1.896 -0.3082 -0.4201 -0.2883
 1633TIP3   OH2 4862   0.116   4.015   1.287 -0.2642 -0.0611  0.2039
 1633TIP3    H1 4863   0.097   3.977   1.201  0.7496  0.9278 -0.4851
 1633TIP3    H2 4864   0.205   4.047   1.279 -0.4162  0.6903  1.4036
 1634TIP3   OH2 4865   4.880   5.969   1.482  0.0458  0.1049 -0.0248
 1634TIP3    H1 4866   4.968   5.933   1.473 -0.2643 -0.2269 -2.2909
 1634TIP3    H2 4867   4.880   6.011   1.568  2.2498 -0.2828  0.2246
 1635TIP3   OH2 4868   0.711   6.706   0.268  0.0053  0.2211  0.0410
 1635TIP3    H1 4869   0.630   6.657   0.279  0.0066  0.3187  0.5015
 1635TIP3    H2 4870   0.712   6.730   0.175 -0.1300 -0.4090 -0.1281
 1636TIP3   OH2 4871   2.530   2.057   1.291 -0.4986 -0.3189  0.6173
 1636TIP3    H1 4872   2.595   2.002   1.246  1.1784  1.0646  1.2389
 1636TIP3    H2 4873   2.582   2.118   1.342 -2.2793  1.8966 -0.0775
 1637TIP3   OH2 4874   1.713   2.996   1.664  0.1762  0.2406  0.0045
 1637TIP3    H1 4875   1.756   3.012   1.748  0.0715 -1.7692  0.4947
 1637TIP3    H2 4876   1.784   2.998   1.600  0.4533  0.5146  0.3164
 1638TIP3   OH2 4877   0.331   3.925   4.064 -0.2068  0.0954  0.0971
 1638TIP3    H1 4878   0.389   3.878   4.004  1.5701 -0.2519  1.9647
 1638TIP3    H2 4879   0.281   3.856   4.108 -0.7045  0.2701 -0.1890
 1639TIP3   OH2 4880   7.154   0.436   4.425 -0.4016  0.5523 -0.2921
 1639TIP3    H1 4881   7.124   0.350   4.396  0.1497  0.3038 -0.1495
 1639TIP3    H2 4882   7.240   0.419   4.463 -0.8253  0.9681  0.8939
 1640TIP3   OH2 4883   0.030   0.859   0.340  0.6416 -0.3669 -0.2218
 1640TIP3    H1 4884  -0.037   0.808   0.385  0.5248  1.8181  2.3248
 1640TIP3    H2 4885   0.067   0.799   0.276 -1.3559 -2.7138  0.6733
 1641TIP3   OH2 4886   3.960   1.586   3.787 -0.0448  0.1204 -0.0413
 1641TIP3    H1 4887   4.008   1.618   3.711  0.7290 -3.2048 -1.1283
 1641TIP3    H2 4888   3.895   1.525   3.751  1.4379 -2.8731  1.8949
 1642TIP3   OH2 4889   0.135   5.325   2.737 -0.2289  0.1692  0.5346
 1642TIP3    H1 4890   0.145   5.287   2.649 -0.1514  0.3714  0.4549
 1642TIP3    H2 4891   0.082   5.404   2.723 -1.0726 -0.3360  0.8130
 1643TIP3   OH2 4892   3.011   4.587   1.664  0.6890  0.5719 -0.7486
 1643TIP3    H1 4893   3.062   4.532   1.723 -0.7085 -0.1079 -0.1154
 1643TIP3    H2 4894   3.040   4.562   1.576  1.0610 -0.1727 -0.4248
 1644TIP3   OH2 4895   1.518   2.856   1.788 -0.0921 -0.3477 -0.7885
 1644TIP3    H1 4896   1.573   2.780   1.772  2.1886  0.7280  1.3486
 1644TIP3    H2 4897   1.567   2.930   1.751 -0.4725  0.5511  0.4545
 1645TIP3   OH2 4898   5.680   5.994   0.951  0.0808 -0.0720  0.0623
 1645TIP3    H1 4899   5.597   5.967   0.911 -0.7022  1.5954  0.4824
 1645TIP3    H2 4900   5.735   6.019   0.877 -0.6473  1.0703 -0.1203
 1646TIP3   OH2 4901   4.737   5.902   5.344  0.0747 -0.2602  0.4751
 1646TIP3    H1 4902   4.642   5.895   5.349 -0.1731 -1.7226 -3.0126
 1646TIP3    H2 4903   4.764   5.928   5.432 -3.4570 -0.4027  1.7762
 1647TIP3   OH2 4904   6.656   0.981   0.803  0.0239 -0.8097 -0.1218
 1647TIP3    H1 4905   6.686   1.012   0.888  3.3546 -0.8377 -1.1522
 1647TIP3    H2 4906   6.693   0.893   0.795 -2.0602 -1.6909 -0.7704
 1648TIP3   OH2 4907   0.072   4.755   3.873  0.4653  0.3099  0.3325
 1648TIP3    H1 4908   0.014   4.830   3.887  0.8650  0.3328  2.1889
 1648TIP3    H2 4909   0.160   4.790   3.888  0.6890 -0.4197  0.7629
 1649TIP3   OH2 4910   5.825   4.054   2.715  0.5415  0.3829 -0.1785
 1649TIP3    H1 4911   5.854   4.113   2.646  0.4930  0.8092  0.1568
 1649TIP3    H2 4912   5.844   3.966   2.682  0.5826  0.5843 -0.6989
 1650TIP3   OH2 4913   2.427   6.118   5.494 -0.3733  0.0636  0.0266
 1650TIP3    H1 4914   2.413   6.142   5.402  0.9761  0.5859 -0.0678
 1650TIP3    H2 4915   2.343   6.135   5.537 -2.1497 -3.2973 -1.6764
 1651TIP3   OH2 4916   2.027   6.234   0.118  0.3268  0.2943  0.0585
 1651TIP3    H1 4917   1.952   6.294   0.115 -0.0369  0.0285  2.3458
 1651TIP3    H2 4918   2.097   6.286   0.158  0.7644 -0.0655 -0.2392
 1652TIP3   OH2 4919   1.070   1.840   1.986  0.1323 -0.0914 -0.3661
 1652TIP3    H1 4920   1.000   1.891   2.027  0.9383  0.8081 -0.0735
 1652TIP3    H2 4921   1.095   1.890   1.909  2.2393  1.0359  0.9428
 1653TIP3   OH2 4922   1.358   0.012   4.606  0.0599 -0.4114  0.5171
 1653TIP3    H1 4923   1.298   0.053   4.668 -0.1022 -0.3156  0.3012
 1653TIP3    H2 4924   1.417  -0.041   4.659  0.5858  0.4933  0.8584
 1654TIP3   OH2 4925   1.888   4.224   1.782 -0.2523 -0.1640 -0.6783
 1654TIP3    H1 4926   1.968   4.174   1.764  1.0553  0.3737  2.6819
 1654TIP3    H2 4927   1.912   4.279   1.858 -3.8674 -0.0893  0.5887
 1655TIP3   OH2 4928   3.823   4.992   1.331 -0.4733 -0.1204 -0.3886
 1655TIP3    H1 4929   3.908   5.036   1.333  0.2935 -1.5654  1.0340
 1655TIP3    H2 4930   3.815   4.959   1.241  2.2441 -3.1136  0.2815
 1656TIP3   OH2 4931   5.567   3.268   5.004  0.4701 -0.4184  0.4211
 1656TIP3    H1 4932   5.541   3.186   4.962  1.3692 -0.8837  0.7566
 1656TIP3    H2 4933   5.502   3.331   4.974 -1.8968 -1.7934  2.3076
 1657TIP3   OH2 4934   6.722   4.825   1.590 -0.1622  0.1258 -0.0161
 1657TIP3    H1 4935   6.698   4.898   1.647 -0.9107  0.9480 -1.3406
 1657TIP3    H2 4936   6.701   4.747   1.642 -0.5438  0.8454  0.9476
 1658TIP3   OH2 4937   1.680   1.805   4.338  0.1574  0.2392 -0.4537
 1658TIP3    H1 4938   1.592   1.788   4.370 -0.1496 -0.3533 -1.5810
 1658TIP3    H2 4939   1.668   1.833   4.247  1.1959 -0.8233 -0.9385
 1659TIP3   OH2 4940   2.483   4.855   5.725  0.3613  0.1911  0.3715
 1659TIP3    H1 4941   2.496   4.846   5.631  1.9901  2.8265  0.2519
 1659TIP3    H2 4942   2.566   4.829   5.764  0.1991  0.5237  0.9661
 1660TIP3   OH2 4943   4.466   5.142   3.038  0.3325 -0.0697  0.1581
 1660TIP3    H1 4944   4.476   5.061   2.988  1.2033  0.7147 -0.9850
 1660TIP3    H2 4945   4.524   5.130   3.114  1.3081 -0.0941 -0.5749
 1661TIP3   OH2 4946   3.575   1.339   3.610 -0.3663 -0.0192  0.0580
 1661TIP3    H1 4947   3.664   1.365   3.635 -0.4224  0.3433 -0.1173
 1661TIP3    H2 4948   3.542   1.413   3.559  0.3191 -1.3437 -2.4924
 1662TIP3   OH2 4949   6.019   1.593   1.293 -0.7818 -0.1258 -0.1006
 1662TIP3    H1 4950   5.972   1.629   1.218  0.4406 -1.3572 -1.5088
 1662TIP3    H2 4951   5.959   1.527   1.329 -1.4482  0.6009  0.1496
 1663TIP3   OH2 4952   2.213   6.051   0.875 -0.1259  0.2823 -0.1168
 1663TIP3    H1 4953   2.203   6.145   0.887 -1.6992  0.0944  0.1588
 1663TIP3    H2 4954   2.303   6.033   0.903  0.1705  1.6727 -0.1003
 1664TIP3   OH2 4955   5.837   3.930   1.320  0.0170 -0.4698  0.2211
 1664TIP3    H1 4956   5.853   3.931   1.225  1.9150  0.7986  0.5037
 1664TIP3    H2 4957   5.745   3.954   1.329 -0.0241  0.0386 -1.2699
 1665TIP3   OH2 4958   3.371   1.570   1.981 -0.1259 -0.2120 -0.0001
 1665TIP3    H1 4959   3.436   1.503   1.961  1.5810  1.0887  0.9221
 1665TIP3    H2 4960   3.367   1.624   1.902 -0.7105 -0.7590 -0.3525
 1666TIP3   OH2 4961   4.136   2.283   2.075  0.5308  0.4471 -0.4737
 1666TIP3    H1 4962   4.053   2.262   2.118  0.2573  2.0798 -0.1299
 1666TIP3    H2 4963   4.122   2.370   2.037  2.8322  1.9019  1.6909
 1667TIP3   OH2 4964   1.285   5.073   2.098  0.1672 -0.1746 -0.4361
 1667TIP3    H1 4965   1.273   5.166   2.081  1.9229  0.4941  1.5464
 1667TIP3    H2 4966   1.198   5.040   2.120 -0.1339  1.5345  1.0979
 1668TIP3   OH2 4967   2.605   0.433   4.285  0.1420 -0.1061  0.2935
 1668TIP3    H1 4968   2.552   0.438   4.206  0.0468  0.1924  0.3781
 1668TIP3    H2 4969   2.695   0.424   4.252 -0.0286 -1.5570  0.1441
 1669TIP3   OH2 4970   5.735   4.300   5.617 -0.3951  0.0387 -0.1621
 1669TIP3    H1 4971   5.734   4.209   5.587  2.2352  0.5025 -2.0597
 1669TIP3    H2 4972   5.776   4.297   5.703  1.0055 -0.5148 -0.8121
 1670TIP3   OH2 4973   7.028   4.145   4.620  0.0144 -0.9597 -0.7193
 1670TIP3    H1 4974   6.933   4.146   4.624  0.0039 -1.8693 -0.4124
 1670TIP3    H2 4975   7.048   4.104   4.535  0.1468  0.0037 -1.1684
 1671TIP3   OH2 4976   5.345   4.287   0.057 -0.4445 -0.0297  0.1847
 1671TIP3    H1 4977   5.327   4.203   0.013 -1.7666  0.3227 -0.0086
 1671TIP3    H2 4978   5.275   4.345   0.026 -0.3447  0.7557  1.3645
 1672TIP3   OH2 4979   5.267   4.705   3.035 -0.3948 -0.0468 -0.2625
 1672TIP3    H1 4980   5.252   4.699   2.941 -0.4985 -0.4603 -0.2195
 1672TIP3    H2 4981   5.340   4.645   3.052  0.7928  1.3191 -0.3417
 1673TIP3   OH2 4982   7.077   5.275   0.375  0.1585  0.0177 -1.3571
 1673TIP3    H1 4983   7.015   5.345   0.396 -0.8704 -0.4244 -2.7339
 1673TIP3    H2 4984   7.065   5.210   0.445 -0.5655  0.1748 -1.3254
 1674TIP3   OH2 4985   2.964   2.190   1.983  0.1914 -0.3182  0.2278
 1674TIP3    H1 4986   2.919   2.110   2.011 -1.2268  0.0759 -0.8098
 1674TIP3    H2 4987   3.025   2.160   1.915 -0.0572 -0.5793  0.1137
 1675TIP3   OH2 4988   0.329   3.408   0.383  0.0892  0.4548 -0.2517
 1675TIP3    H1 4989   0.234   3.419   0.372  0.1499  1.9725  0.5205
 1675TIP3    H2 4990   0.351   3.334   0.327 -1.3833  0.7549 -1.2806
 1676TIP3   OH2 4991   6.163   2.289   4.322 -0.8471  0.0966  0.1479
 1676TIP3    H1 4992   6.173   2.342   4.401  1.2894 -0.4059  0.2685
 1676TIP3    H2 4993   6.095   2.226   4.344 -0.6226  0.2771  1.4209
 1677TIP3   OH2 4994   1.983   2.017   2.467 -0.3588  0.0849  0.0841
 1677TIP3    H1 4995   2.011   1.932   2.435 -0.2158 -0.5808  1.8436
 1677TIP3    H2 4996   2.064   2.068   2.474 -0.6055  0.9714 -2.4422
 1678TIP3   OH2 4997   1.112   4.114   3.701 -0.1262 -0.0303 -0.1667
 1678TIP3    H1 4998   1.026   4.138   3.665  0.3821 -0.1878 -1.5586
 1678TIP3    H2 4999   1.155   4.197   3.719 -0.0735  0.0667 -0.7243
 1679TIP3   OH2 5000   5.927   2.517   1.437 -0.0694 -0.4148  0.2646
 1679TIP3    H1 5001   5.907   2.527   1.344 -0.3798 -1.1913  0.2417
 1679TIP3    H2 5002   5.968   2.600   1.462  1.4879 -0.7846 -0.9417
 1680TIP3   OH2 5003   3.161   0.606   2.763  0.2825  0.0704  0.0439
 1680TIP3    H1 5004   3.179   0.621   2.671  1.0888  0.1496  0.2069
 1680TIP3    H2 5005   3.121   0.519   2.766 -0.0979  0.2312 -0.4173
 1681TIP3   OH2 5006   5.080   2.842   2.523 -0.1815  0.0160 -0.6239
 1681TIP3    H1 5007   5.165   2.847   2.479  0.5303 -1.0241  0.5474
 1681TIP3    H2 5008   5.036   2.923   2.500  2.3921  2.1207  1.2778
 1682TIP3   OH2 5009   2.003   4.339   3.768  0.2028  0.3837 -0.1496
 1682TIP3    H1 5010   2.091   4.304   3.771  0.4251  1.0095  1.2387
 1682TIP3    H2 5011   2.015   4.434   3.771 -0.4949  0.4991 -0.6552
 1683TIP3   OH2 5012   0.274   4.480   2.731  0.2116  0.2579  0.0110
 1683TIP3    H1 5013   0.186   4.477   2.768  0.4534 -0.2847  0.5665
 1683TIP3    H2 5014   0.319   4.548   2.781  0.9847 -1.4640  1.8029
 1684TIP3   OH2 5015   3.101   1.316   3.570  0.2437 -0.6513 -0.6541
 1684TIP3    H1 5016   3.031   1.363   3.525  0.8567  2.2929  1.1863
 1684TIP3    H2 5017   3.177   1.327   3.514  0.2080 -0.0463 -0.5893
 1685TIP3   OH2 5018   1.785   1.573   4.457  0.0558  0.0287 -0.5122
 1685TIP3    H1 5019   1.760   1.595   4.547  1.0185 -1.0466  0.0395
 1685TIP3    H2 5020   1.751   1.646   4.405 -2.2382 -0.2605  0.4478
 1686TIP3   OH2 5021   6.912   5.851   4.459 -0.5635 -0.0320  0.4467
 1686TIP3    H1 5022   6.848   5.790   4.495 -1.3262  1.2988  1.4229
 1686TIP3    H2 5023   6.996   5.820   4.493 -0.4521 -2.4135 -1.6693
 1687TIP3   OH2 5024   7.104   2.280   4.976 -0.2245 -0.5118  0.2071
 1687TIP3    H1 5025   7.040   2.244   5.037  1.1262 -0.6392  1.6091
 1687TIP3    H2 5026   7.186   2.284   5.026  0.9078 -0.4676 -1.5449
 1688TIP3   OH2 5027   3.296   4.781   2.471  0.2352 -0.2813  0.0101
 1688TIP3    H1 5028   3.235   4.839   2.426 -0.5367 -0.2393  1.0803
 1688TIP3    H2 5029   3.241   4.712   2.508  1.0548 -1.3013 -0.6021
 1689TIP3   OH2 5030   1.789   2.914   4.811 -0.0706  0.0582  0.4116
 1689TIP3    H1 5031   1.818   2.887   4.724  2.1401  1.4853  0.6496
 1689TIP3    H2 5032   1.830   2.852   4.871 -0.1391  0.1429  0.5471
 1690TIP3   OH2 5033   5.225   6.491   1.561 -0.3538 -0.6483  0.1716
 1690TIP3    H1 5034   5.174   6.458   1.487 -0.8217 -1.1672  0.7153
 1690TIP3    H2 5035   5.251   6.412   1.609  0.6901 -0.3747  0.0857
 1691TIP3   OH2 5036   0.888   5.453   4.531  0.4226  0.7626  0.0954
 1691TIP3    H1 5037   0.949   5.396   4.483  1.5126  0.6226  1.6108
 1691TIP3    H2 5038   0.886   5.417   4.619 -0.7075  1.6941  0.4680
 1692TIP3   OH2 5039   2.492   1.403   0.368 -0.2677  0.0761  0.5721
 1692TIP3    H1 5040   2.423   1.423   0.432 -1.7451  1.2058 -1.2606
 1692TIP3    H2 5041   2.530   1.489   0.347  1.0100 -0.4186  0.7857
 1693TIP3   OH2 5042   5.374   1.839   0.654 -0.7343  0.1581 -0.1176
 1693TIP3    H1 5043   5.371   1.896   0.577  0.6724  2.4482  1.3679
 1693TIP3    H2 5044   5.282   1.825   0.677 -1.1375  0.8994 -1.1836
 1694TIP3   OH2 5045   4.184   6.072   3.282  0.0831 -0.0498 -0.2953
 1694TIP3    H1 5046   4.222   6.021   3.212  0.3101 -1.1567  0.6049
 1694TIP3    H2 5047   4.217   6.032   3.362  0.1167  1.3953  0.4514
 1695TIP3   OH2 5048   3.454   6.597   2.938 -0.6626 -0.3210  0.3875
 1695TIP3    H1 5049   3.392   6.661   2.974 -0.6435 -0.6101  0.9440
 1695TIP3    H2 5050   3.530   6.650   2.912 -0.9144 -0.0353  0.2163
 1696TIP3   OH2 5051   0.175   2.020   3.950  0.4176  0.1205 -0.4525
 1696TIP3    H1 5052   0.253   2.056   3.993  0.9002 -1.2189 -0.1631
 1696TIP3    H2 5053   0.108   2.087   3.963  1.6703  1.5987 -1.2784
 1697TIP3   OH2 5054   5.770   1.307   4.752  0.1509  0.5891  0.2665
 1697TIP3    H1 5055   5.780   1.383   4.810 -0.6407  0.2894  0.8211
 1697TIP3    H2 5056   5.675   1.294   4.747  0.3042 -1.2434  1.3709
 1698TIP3   OH2 5057   6.631   3.403   5.487 -0.5656  0.2348  0.0098
 1698TIP3    H1 5058   6.564   3.385   5.553 -2.1469  0.6575 -1.3896
 1698TIP3    H2 5059   6.604   3.486   5.447  1.8631  1.4048  0.6257
 1699TIP3   OH2 5060   1.976   5.986   4.151  0.4377  0.4355 -0.1847
 1699TIP3    H1 5061   1.899   5.956   4.200 -0.2413 -0.1043 -1.5217
 1699TIP3    H2 5062   2.049   5.973   4.211 -0.3814 -0.0434  0.7414
 1700TIP3   OH2 5063   5.290   3.447   0.849 -0.4045  0.1085  0.4020
 1700TIP3    H1 5064   5.309   3.391   0.925 -3.0435  0.2849  1.2934
 1700TIP3    H2 5065   5.247   3.524   0.886 -2.4675 -0.1476 -1.2764
 1701TIP3   OH2 5066   1.218   0.841   1.034  0.3567  0.0756 -0.0793
 1701TIP3    H1 5067   1.129   0.862   1.007 -0.8904 -4.3186 -0.1715
 1701TIP3    H2 5068   1.266   0.826   0.952 -0.1359 -1.8279 -0.0609
 1702TIP3   OH2 5069   2.732   6.685   5.878 -0.2951  0.1041 -0.7122
 1702TIP3    H1 5070   2.750   6.615   5.815 -1.3156 -1.0453  0.2115
 1702TIP3    H2 5071   2.637   6.685   5.889 -0.1181 -0.1989  1.2737
 1703TIP3   OH2 5072   4.645   0.296   3.401  0.0068 -0.2108  0.2902
 1703TIP3    H1 5073   4.564   0.252   3.426 -0.4427  0.7762  0.6312
 1703TIP3    H2 5074   4.711   0.226   3.397 -1.0416 -1.1654 -0.9169
 1704TIP3   OH2 5075   5.978   5.615   0.685  0.0594  0.3813  0.0242
 1704TIP3    H1 5076   5.891   5.582   0.662  0.0381  1.2533 -1.2777
 1704TIP3    H2 5077   6.018   5.636   0.600  0.5704  2.3858  0.7177
 1705TIP3   OH2 5078   0.092   5.962   5.435 -0.7942 -0.0858 -0.3401
 1705TIP3    H1 5079   0.015   6.007   5.469  0.2275  0.9105  0.7621
 1705TIP3    H2 5080   0.115   6.012   5.356  0.8740  2.0737  1.3671
 1706TIP3   OH2 5081   0.493   3.162   3.812 -0.1073  0.2912  0.1279
 1706TIP3    H1 5082   0.466   3.072   3.795 -0.4892  0.5569 -0.7469
 1706TIP3    H2 5083   0.510   3.165   3.906  1.3797 -1.0721 -0.0564
 1707TIP3   OH2 5084   7.076   3.828   2.232  0.2818 -0.3425 -0.8192
 1707TIP3    H1 5085   7.088   3.807   2.139  0.4948 -0.7776 -0.6962
 1707TIP3    H2 5086   6.992   3.790   2.255 -1.2810  2.3478 -1.5749
 1708TIP3   OH2 5087   2.534   6.204   3.210 -0.3558 -0.2375  0.6121
 1708TIP3    H1 5088   2.602   6.259   3.172 -0.0452 -0.2134  1.2054
 1708TIP3    H2 5089   2.499   6.255   3.283 -0.9311 -0.2982  0.3869
 1709TIP3   OH2 5090   1.326   0.980   2.933 -0.7662  0.2129 -0.4538
 1709TIP3    H1 5091   1.251   0.995   2.875 -2.1093 -0.8085  0.9084
 1709TIP3    H2 5092   1.294   1.008   3.019  0.1459 -0.9592  0.2913
 1710TIP3   OH2 5093   1.641   0.780   5.128 -0.1056  0.3313  0.0306
 1710TIP3    H1 5094   1.637   0.719   5.201  0.2839  1.0067  0.6273
 1710TIP3    H2 5095   1.728   0.819   5.133  0.6480 -0.9444 -1.9106
 1711TIP3   OH2 5096   6.762   5.359   5.649  0.6020  0.2790 -0.5652
 1711TIP3    H1 5097   6.800   5.368   5.737  2.3244 -1.7948 -1.0139
 1711TIP3    H2 5098   6.707   5.280   5.655  0.5881  0.2303 -1.2951
 1712TIP3   OH2 5099   3.669   3.830   0.331 -0.3166 -0.1539 -0.0349
 1712TIP3    H1 5100   3.718   3.912   0.335  0.8486 -0.8125 -0.3104
 1712TIP3    H2 5101   3.660   3.812   0.237 -1.2607  0.0472  0.0066
 1713TIP3   OH2 5102   6.910   1.533   5.350 -0.0715  0.2318  0.0592
 1713TIP3    H1 5103   6.818   1.553   5.329 -0.7288  0.1202  2.5068
 1713TIP3    H2 5104   6.959   1.607   5.315 -1.2936  1.0980  0.0781
 1714TIP3   OH2 5105   4.416   1.054   2.557 -0.7769 -0.0677 -0.0923
 1714TIP3    H1 5106   4.341   1.112   2.543  0.0953  0.9238 -0.7880
 1714TIP3    H2 5107   4.394   0.974   2.509 -2.0108 -0.3674  0.9095
 1715TIP3   OH2 5108   0.572   3.800   1.604 -0.1019 -0.2214  0.1482
 1715TIP3    H1 5109   0.488   3.794   1.560 -0.6274  2.1572  0.7197
 1715TIP3    H2 5110   0.609   3.883   1.575  2.7060 -1.7503 -1.0956
 1716TIP3   OH2 5111   0.331   1.823   4.782  0.1956  0.3861  0.4717
 1716TIP3    H1 5112   0.382   1.857   4.708  0.5497  1.5094  1.1962
 1716TIP3    H2 5113   0.251   1.876   4.783  0.7994  1.3445  1.6746
 1717TIP3   OH2 5114   1.423   6.679   0.552  0.2568  0.4514  0.0757
 1717TIP3    H1 5115   1.503   6.727   0.576  0.8233  0.8009 -2.2582
 1717TIP3    H2 5116   1.448   6.587   0.559  1.4058  0.5382 -1.9902
 1718TIP3   OH2 5117   6.069   1.619   2.259  0.5204 -0.8964 -0.5420
 1718TIP3    H1 5118   6.049   1.626   2.353 -3.5136  0.9865 -1.3026
 1718TIP3    H2 5119   6.032   1.535   2.234  1.7091 -1.4550 -0.4903
 1719TIP3   OH2 5120   2.829   4.383   1.376 -0.2647 -0.1142  0.0802
 1719TIP3    H1 5121   2.758   4.402   1.315 -0.5042  0.1251  0.4305
 1719TIP3    H2 5122   2.795   4.409   1.461 -1.0669 -3.1359  0.8011
 1720TIP3   OH2 5123   2.064   2.854   3.467  0.5959 -0.1123 -0.1313
 1720TIP3    H1 5124   1.991   2.811   3.423  1.4775 -2.2185  0.3241
 1720TIP3    H2 5125   2.120   2.782   3.497  0.6052  1.1942  3.5113
 1721TIP3   OH2 5126   0.298   2.117   5.542 -0.1743  0.2070  0.0007
 1721TIP3    H1 5127   0.265   2.028   5.556 -2.0996  0.6872 -1.1095
 1721TIP3    H2 5128   0.246   2.171   5.601  0.2332  0.7279 -0.1132
 1722TIP3   OH2 5129   0.168   6.636   3.539  0.2508 -0.1644 -0.5304
 1722TIP3    H1 5130   0.080   6.672   3.550  0.3129 -0.3173  0.6196
 1722TIP3    H2 5131   0.226   6.711   3.554  0.3636 -0.5623  1.2760
 1723TIP3   OH2 5132   6.556   5.560   0.186  0.4578  0.0141 -0.0103
 1723TIP3    H1 5133   6.625   5.528   0.128  0.8369 -0.5647  0.7476
 1723TIP3    H2 5134   6.519   5.482   0.226  0.6653  0.4258  1.0351
 1724TIP3   OH2 5135   6.944   4.258   5.391 -0.4135 -0.0221  0.3513
 1724TIP3    H1 5136   6.918   4.197   5.459  1.3300 -0.6800  0.4812
 1724TIP3    H2 5137   6.990   4.204   5.326 -0.3392  0.8876 -0.3822
 1725TIP3   OH2 5138   5.701   6.503   3.227 -0.2311  0.1604 -0.0830
 1725TIP3    H1 5139   5.609   6.508   3.200  0.1519  1.8015 -1.2960
 1725TIP3    H2 5140   5.719   6.589   3.266  1.2013  0.5130 -1.4141
 1726TIP3   OH2 5141   1.079   3.214   1.585 -0.2621 -0.0845 -0.2820
 1726TIP3    H1 5142   1.038   3.228   1.671 -0.2105 -2.9894  0.3400
 1726TIP3    H2 5143   1.005   3.198   1.526 -0.2387 -1.8281  0.0946
 1727TIP3   OH2 5144   3.686   2.948   2.634 -0.1176 -0.0309 -0.0700
 1727TIP3    H1 5145   3.658   2.947   2.542  1.0183  1.4855 -0.4764
 1727TIP3    H2 5146   3.679   2.857   2.662  0.2348 -0.6659 -1.8931
 1728TIP3   OH2 5147   7.075   0.582   3.781  0.1263  0.3570  0.7412
 1728TIP3    H1 5148   7.168   0.563   3.797  1.0625  1.0869 -2.8981
 1728TIP3    H2 5149   7.074   0.676   3.760 -1.0018 -0.1216 -1.5872
 1729TIP3   OH2 5150   6.905   4.170   0.377  0.3775 -0.0102  0.1755
 1729TIP3    H1 5151   6.908   4.113   0.300 -1.5372  1.0263 -0.7150
 1729TIP3    H2 5152   6.812   4.180   0.396  0.7778 -0.7998  3.1099
 1730TIP3   OH2 5153   6.218   5.120   0.162  0.2044  0.2223  0.6042
 1730TIP3    H1 5154   6.168   5.038   0.161  0.0335  0.3273  0.4685
 1730TIP3    H2 5155   6.283   5.110   0.093 -0.5786  0.6671 -0.2253
 1731TIP3   OH2 5156   5.391   2.632   3.530  0.2923  0.0700  0.6133
 1731TIP3    H1 5157   5.357   2.703   3.584  0.6274  0.8185 -0.1452
 1731TIP3    H2 5158   5.407   2.561   3.592 -0.3186  0.5514  1.3381
 1732TIP3   OH2 5159   6.959   0.879   1.624 -0.3000  0.1418  0.1868
 1732TIP3    H1 5160   6.909   0.797   1.626  1.1147 -0.7779 -0.1049
 1732TIP3    H2 5161   6.994   0.888   1.712  0.7697 -0.3975 -0.1606
 1733TIP3   OH2 5162   0.347   4.878   1.526 -0.2239  0.4010 -0.3944
 1733TIP3    H1 5163   0.319   4.912   1.441  0.2059  1.9527  0.0484
 1733TIP3    H2 5164   0.273   4.894   1.584 -0.6261 -0.9150 -0.5098
 1734TIP3   OH2 5165   3.537   0.585   2.485  0.2381  0.5044  0.4706
 1734TIP3    H1 5166   3.480   0.516   2.519  0.2133  0.1055 -0.3550
 1734TIP3    H2 5167   3.550   0.644   2.559  0.6192 -0.6167  1.3243
 1735TIP3   OH2 5168   6.239   3.822   3.757 -0.7466  0.0466 -0.0421
 1735TIP3    H1 5169   6.159   3.771   3.765 -1.6154  1.5407  1.3465
 1735TIP3    H2 5170   6.225   3.898   3.813  1.3503  0.7365 -0.3609
 1736TIP3   OH2 5171   7.050   1.787   2.222 -0.3612  0.0680  0.3516
 1736TIP3    H1 5172   6.981   1.779   2.156 -0.4018 -0.8222  0.4944
 1736TIP3    H2 5173   7.110   1.852   2.185 -0.2325 -0.6176 -0.7039
 1737TIP3   OH2 5174   1.007   3.742   1.913 -0.7768 -0.6064 -0.0798
 1737TIP3    H1 5175   1.044   3.826   1.886 -2.5959  1.3825  3.0104
 1737TIP3    H2 5176   1.000   3.691   1.832  0.7571  2.0376 -2.0061
 1738TIP3   OH2 5177   3.083   4.886   2.196  0.1260 -0.3243  0.5925
 1738TIP3    H1 5178   3.021   4.841   2.254  0.3846 -1.2913  0.1394
 1738TIP3    H2 5179   3.028   4.928   2.130 -0.0813 -0.6614  0.5497
 1739TIP3   OH2 5180   5.058   3.762   4.141 -0.7418  0.1591 -0.3800
 1739TIP3    H1 5181   5.135   3.798   4.185 -0.5608 -1.2818  0.5455
 1739TIP3    H2 5182   5.092   3.729   4.057 -0.6804  1.0182 -0.6997
 1740TIP3   OH2 5183   6.604   3.692   4.773 -0.6657 -0.0989  0.2603
 1740TIP3    H1 5184   6.556   3.622   4.816 -3.5724 -0.6134 -3.3410
 1740TIP3    H2 5185   6.538   3.759   4.755  0.2951  0.1898 -2.8688
 1741TIP3   OH2 5186   3.855   6.155   1.345  0.0266 -0.1495 -0.2693
 1741TIP3    H1 5187   3.927   6.218   1.351  0.4401 -0.6669  0.3313
 1741TIP3    H2 5188   3.782   6.198   1.390  0.5881 -0.4677  0.9979
 1742TIP3   OH2 5189   2.095   5.730   5.766 -0.8464 -0.0090 -0.0778
 1742TIP3    H1 5190   2.077   5.641   5.735 -2.5814  0.3123 -0.1078
 1742TIP3    H2 5191   2.085   5.725   5.861  1.7734 -0.3901  0.2649
 1743TIP3   OH2 5192   2.483   1.932   4.733  0.2164 -0.4544  0.4070
 1743TIP3    H1 5193   2.467   1.859   4.793  0.6944  0.3061  1.4827
 1743TIP3    H2 5194   2.565   1.909   4.689 -0.7086 -1.5564 -0.8355
 1744TIP3   OH2 5195   3.337   6.505   2.696  0.2862 -0.0517  0.3771
 1744TIP3    H1 5196   3.397   6.514   2.771  1.8501 -1.6326 -0.6106
 1744TIP3    H2 5197   3.320   6.411   2.690 -1.7935  0.2934  0.1874
 1745TIP3   OH2 5198   2.169   5.848   1.298  0.8492  0.4922 -0.8197
 1745TIP3    H1 5199   2.187   5.927   1.349  0.1509 -1.0262  2.0126
 1745TIP3    H2 5200   2.255   5.821   1.266  1.6845  0.5149  1.2220
 1746TIP3   OH2 5201   1.362   1.444   4.223 -0.0675  0.0268  0.0974
 1746TIP3    H1 5202   1.292   1.509   4.229 -0.5467 -0.5583  1.4819
 1746TIP3    H2 5203   1.400   1.442   4.311  0.2902 -1.1670 -0.0685
 1747TIP3   OH2 5204   6.494   0.267   5.172 -0.0737  0.2429  0.1736
 1747TIP3    H1 5205   6.476   0.184   5.215 -1.5731  0.4148 -0.0742
 1747TIP3    H2 5206   6.415   0.319   5.184  0.1065  0.9392 -1.2969
 1748TIP3   OH2 5207   4.407   1.507   1.541 -0.0207  0.1878 -0.0064
 1748TIP3    H1 5208   4.321   1.482   1.508  0.2028 -0.1365 -0.3595
 1748TIP3    H2 5209   4.399   1.505   1.636 -0.8925  1.8644 -0.0051
 1749TIP3   OH2 5210   5.661   0.037   4.548 -0.0873 -0.3499  0.3334
 1749TIP3    H1 5211   5.598   0.091   4.500  1.4231  0.4048 -0.9200
 1749TIP3    H2 5212   5.615  -0.045   4.564 -1.6051  0.4051  0.0685
 1750TIP3   OH2 5213   5.844   3.133   4.854 -0.3409  0.0165 -0.4446
 1750TIP3    H1 5214   5.829   3.212   4.906  0.8122  0.5311 -0.8635
 1750TIP3    H2 5215   5.911   3.158   4.791  0.9941 -1.6737  0.2275
 1751TIP3   OH2 5216   2.233   6.032   4.969  0.1943 -0.2966  0.1182
 1751TIP3    H1 5217   2.242   6.047   4.875 -1.7157 -1.5480 -0.3289
 1751TIP3    H2 5218   2.264   5.942   4.982 -0.2537 -0.3925  0.5530
 1752TIP3   OH2 5219   2.906   4.714   3.706  0.3405 -0.0254 -0.1107
 1752TIP3    H1 5220   2.837   4.649   3.696 -1.2292  1.4549  0.4752
 1752TIP3    H2 5221   2.861   4.791   3.741  1.7328  2.0045 -2.4331
 1753TIP3   OH2 5222   4.424   0.544   3.489 -0.1690 -0.5256  0.1491
 1753TIP3    H1 5223   4.468   0.460   3.476 -0.6392 -0.9981  1.4150
 1753TIP3    H2 5224   4.438   0.564   3.582  1.1984  1.5498 -0.4457
 1754TIP3   OH2 5225   2.255   0.803   2.076 -0.3019 -0.1641  0.6389
 1754TIP3    H1 5226   2.313   0.828   2.148 -1.2936  0.1806  1.3342
 1754TIP3    H2 5227   2.313   0.794   2.000  0.4963  1.3328  1.0431
 1755TIP3   OH2 5228   1.802   3.184   2.198 -0.3420 -0.0041 -0.1605
 1755TIP3    H1 5229   1.743   3.252   2.228 -0.4817 -1.0212  2.1098
 1755TIP3    H2 5230   1.861   3.169   2.272 -0.3882 -2.3993 -0.5200
 1756TIP3   OH2 5231   1.364   3.999   3.637 -0.1396  0.0652  0.6676
 1756TIP3    H1 5232   1.398   4.055   3.568 -0.7466  1.2431  1.2937
 1756TIP3    H2 5233   1.281   4.039   3.663 -0.7323 -1.2796  0.9558
 1757TIP3   OH2 5234   7.062   1.920   1.367  0.4613  0.4270 -0.5546
 1757TIP3    H1 5235   7.031   1.973   1.293  0.5720  1.3225  0.0318
 1757TIP3    H2 5236   7.131   1.973   1.407 -1.3868  1.1875  1.8241
 1758TIP3   OH2 5237   6.315   1.909   4.157 -0.3990 -0.4905 -0.1529
 1758TIP3    H1 5238   6.349   1.994   4.130 -1.1419  0.5053  1.8833
 1758TIP3    H2 5239   6.332   1.905   4.251 -2.2008 -1.7216  0.1672
 1759TIP3   OH2 5240   1.402   0.785   3.784 -0.1216  0.3245  0.3182
 1759TIP3    H1 5241   1.390   0.692   3.804 -0.8348  0.5962  1.2508
 1759TIP3    H2 5242   1.382   0.830   3.866 -1.3897  1.3956 -0.5313
 1760TIP3   OH2 5243   5.269   1.637   2.193  0.3193  0.0477 -0.4055
 1760TIP3    H1 5244   5.222   1.643   2.110 -0.1637  0.6667 -0.0956
 1760TIP3    H2 5245   5.350   1.592   2.171 -0.3252 -0.8811 -0.9888
 1761TIP3   OH2 5246   1.322   1.756   1.343 -0.3069 -0.3322  0.3884
 1761TIP3    H1 5247   1.412   1.760   1.375 -0.1844 -1.1777  0.1447
 1761TIP3    H2 5248   1.325   1.698   1.268 -0.5040  2.0506 -1.5818
 1762TIP3   OH2 5249   2.894   1.668   3.073 -0.2606 -0.3304  0.4680
 1762TIP3    H1 5250   2.946   1.743   3.100 -0.4949  0.2866 -0.7387
 1762TIP3    H2 5251   2.945   1.628   3.003 -0.3296 -1.0839  0.8342
 1763TIP3   OH2 5252   5.002   3.730   4.475 -0.0886 -0.5775  0.2061
 1763TIP3    H1 5253   5.061   3.656   4.468 -0.0070 -0.4532 -0.5403
 1763TIP3    H2 5254   4.920   3.699   4.435 -0.2189 -0.4342  0.3582
 1764TIP3   OH2 5255   4.427   1.994   0.186 -0.7565  0.4295  0.2082
 1764TIP3    H1 5256   4.384   1.908   0.187  0.1045 -0.0340  1.9297
 1764TIP3    H2 5257   4.480   1.993   0.107 -0.4975 -0.7898  0.3656
 1765TIP3   OH2 5258   7.229   5.876   0.555  0.0093  0.4123 -0.2374
 1765TIP3    H1 5259   7.190   5.948   0.603 -0.2561  0.2295 -0.1799
 1765TIP3    H2 5260   7.191   5.797   0.593  0.3203  0.2380 -0.2799
 1766TIP3   OH2 5261   2.600   3.140   5.394 -0.1095  0.4637  0.5013
 1766TIP3    H1 5262   2.652   3.070   5.354  0.2951 -0.6140  2.7661
 1766TIP3    H2 5263   2.603   3.211   5.329  0.5096 -1.1252 -1.3330
 1767TIP3   OH2 5264   2.931   2.039   3.546  0.4847 -0.3933 -0.6616
 1767TIP3    H1 5265   2.900   2.064   3.634  0.7958 -0.6956 -0.4654
 1767TIP3    H2 5266   2.861   2.069   3.488  0.7718  0.8077 -0.4225
 1768TIP3   OH2 5267   4.832   3.075   4.528 -0.0682 -0.3281 -0.0780
 1768TIP3    H1 5268   4.798   3.008   4.469  1.7134 -0.4047 -1.0808
 1768TIP3    H2 5269   4.762   3.140   4.533 -1.7758 -2.1128  0.7688
 1769TIP3   OH2 5270   3.271   6.237   2.793  0.3758 -0.4047  0.4039
 1769TIP3    H1 5271   3.271   6.247   2.888  1.2820 -0.3364  0.4030
 1769TIP3    H2 5272   3.194   6.182   2.775 -0.4576  0.5254  1.0577
 1770TIP3   OH2 5273   4.232   4.021   2.324 -0.7191  0.0997 -0.2242
 1770TIP3    H1 5274   4.182   4.069   2.391  0.8532  1.0697  0.3138
 1770TIP3    H2 5275   4.271   3.948   2.371 -3.4222 -2.1192 -1.1202
 1771TIP3   OH2 5276   4.812   0.542   2.588  0.3664  0.1314  0.1759
 1771TIP3    H1 5277   4.903   0.554   2.615  0.6832 -1.2485 -0.1896
 1771TIP3    H2 5278   4.793   0.617   2.532  1.1906  0.5770  0.4904
 1772TIP3   OH2 5279   3.269   3.507   3.667 -0.2761  0.0209  0.0679
 1772TIP3    H1 5280   3.205   3.443   3.698  2.4508 -3.0084 -0.0337
 1772TIP3    H2 5281   3.296   3.475   3.581  1.5387  1.0296  0.2047
 1773TIP3   OH2 5282   4.193   2.725   3.951  0.6741 -0.6662  0.3092
 1773TIP3    H1 5283   4.266   2.681   3.909 -0.5380 -1.1091 -1.4436
 1773TIP3    H2 5284   4.121   2.662   3.945 -0.3072  0.4098  0.4396
 1774TIP3   OH2 5285   5.170   1.380   5.828  0.2418 -0.2613  0.3431
 1774TIP3    H1 5286   5.087   1.380   5.876  0.5529  0.2729  0.8931
 1774TIP3    H2 5287   5.174   1.293   5.788 -0.1286 -0.6413  1.1134
 1775TIP3   OH2 5288   6.478   2.584   3.302 -0.0369 -0.7877 -0.1340
 1775TIP3    H1 5289   6.384   2.595   3.286 -0.4779 -1.4570  1.7978
 1775TIP3    H2 5290   6.490   2.606   3.394  2.2111  2.0239 -0.9396
 1776TIP3   OH2 5291   0.235   4.039   0.525 -0.0931  0.0254 -0.2545
 1776TIP3    H1 5292   0.260   4.095   0.450  1.2732  0.7293  0.6856
 1776TIP3    H2 5293   0.158   3.992   0.494 -0.2552  1.1509 -1.7112
 1777TIP3   OH2 5294   1.520   6.805   1.730  0.6704 -0.7086  0.1026
 1777TIP3    H1 5295   1.535   6.714   1.703 -0.3079 -1.0748  0.7214
 1777TIP3    H2 5296   1.580   6.819   1.802  0.9623 -0.8061 -0.1214
 1778TIP3   OH2 5297   0.658   3.698   1.885  0.3734 -0.4353  0.4566
 1778TIP3    H1 5298   0.747   3.734   1.893 -0.6340  2.0647  1.5620
 1778TIP3    H2 5299   0.637   3.707   1.792  1.1474 -0.7831  0.2378
 1779TIP3   OH2 5300   5.950   5.043   0.004 -0.3651  0.0160  0.2880
 1779TIP3    H1 5301   5.879   5.088   0.050  0.7438  0.7943  1.3191
 1779TIP3    H2 5302   5.928   4.950   0.009 -1.7951  0.2938 -0.2989
 1780TIP3   OH2 5303   2.841   0.556   4.965 -0.2639  0.0423  0.3630
 1780TIP3    H1 5304   2.908   0.498   4.930  0.8455  1.1456  0.5917
 1780TIP3    H2 5305   2.844   0.540   5.060 -0.0480  0.3752  0.4123
 1781TIP3   OH2 5306   4.739   3.162   2.082  0.2418  0.1494  0.1220
 1781TIP3    H1 5307   4.776   3.222   2.146  1.4695 -0.1404 -0.3013
 1781TIP3    H2 5308   4.665   3.210   2.045  0.2183  0.7592  0.9384
 1782TIP3   OH2 5309   7.172   0.871   3.787 -0.2883 -0.5262 -0.0560
 1782TIP3    H1 5310   7.083   0.890   3.818  0.2585 -0.3554  1.4926
 1782TIP3    H2 5311   7.204   0.954   3.752  0.5592  0.4623  2.7993
 1783TIP3   OH2 5312   6.092   4.423   1.934 -0.0678 -0.0522  0.4281
 1783TIP3    H1 5313   6.072   4.333   1.911 -1.9937  0.3204  0.5112
 1783TIP3    H2 5314   6.127   4.418   2.022 -2.7971 -0.5362  1.5907
 1784TIP3   OH2 5315   1.016   4.862   0.015  0.1715 -0.0031 -0.3106
 1784TIP3    H1 5316   0.956   4.894  -0.053 -0.1703  0.2747  0.1176
 1784TIP3    H2 5317   1.012   4.929   0.084  1.4731  0.3630 -0.5482
 1785TIP3   OH2 5318   0.201   3.791   0.137 -0.2037 -0.2536  0.1230
 1785TIP3    H1 5319   0.188   3.767   0.229  1.7151  0.7694  0.7143
 1785TIP3    H2 5320   0.296   3.795   0.127 -0.2299 -2.8146 -2.5847
 1786TIP3   OH2 5321   3.827   5.926   1.001  0.0900 -0.1881  0.3977
 1786TIP3    H1 5322   3.755   5.984   0.975  1.1414  0.9114 -0.1989
 1786TIP3    H2 5323   3.805   5.842   0.961 -0.4472  0.3629 -0.5259
 1787TIP3   OH2 5324   2.811   4.883   2.786  0.1597 -0.1165 -0.4659
 1787TIP3    H1 5325   2.798   4.929   2.869  1.0209  0.6307 -0.7374
 1787TIP3    H2 5326   2.886   4.825   2.802  0.0449 -0.3029 -0.5947
 1788TIP3   OH2 5327   4.713   0.504   2.867 -0.6251 -0.0600 -0.7899
 1788TIP3    H1 5328   4.731   0.593   2.898  0.4643 -0.7673  0.7202
 1788TIP3    H2 5329   4.734   0.506   2.774  2.0095  0.6218 -0.2585
 1789TIP3   OH2 5330   4.803   6.396   5.485 -0.1822  0.0902 -0.3844
 1789TIP3    H1 5331   4.833   6.348   5.561 -1.0348  3.2248  2.1686
 1789TIP3    H2 5332   4.838   6.485   5.497 -1.0495  0.9500 -3.2483
 1790TIP3   OH2 5333   1.708   5.847   5.457  0.2314 -0.1989  0.0660
 1790TIP3    H1 5334   1.798   5.827   5.483  1.5278  3.7780 -0.6772
 1790TIP3    H2 5335   1.672   5.895   5.532  0.6917  2.9004 -1.5513
 1791TIP3   OH2 5336   3.073   5.529   3.033  0.6449  0.7800 -0.1984
 1791TIP3    H1 5337   3.062   5.474   2.955 -1.7336 -0.0932  0.6737
 1791TIP3    H2 5338   3.130   5.600   3.004 -0.7115  0.8695 -2.9504
 1792TIP3   OH2 5339   6.354   3.772   3.487  0.3356  0.2914 -0.3883
 1792TIP3    H1 5340   6.326   3.817   3.567  0.1323  0.6346 -0.6467
 1792TIP3    H2 5341   6.343   3.679   3.507 -2.2331  0.4221 -0.8961
 1793TIP3   OH2 5342   1.044   1.662   0.156  0.0304 -0.3346 -0.5778
 1793TIP3    H1 5343   1.139   1.673   0.157 -0.0387  1.2725 -2.6665
 1793TIP3    H2 5344   1.010   1.744   0.192 -0.4906  0.6418 -3.0299
 1794TIP3   OH2 5345   0.293   1.534   5.110  0.1919 -0.0093 -0.0361
 1794TIP3    H1 5346   0.237   1.501   5.040 -0.3692  0.2066  0.2993
 1794TIP3    H2 5347   0.339   1.609   5.071 -0.0164  0.0274 -0.2117
 1795TIP3   OH2 5348   2.635   0.896   1.936  0.3196 -0.1288  0.4044
 1795TIP3    H1 5349   2.575   0.822   1.932 -0.1587  0.0083  3.1615
 1795TIP3    H2 5350   2.718   0.857   1.964  0.8754  0.0496 -0.8869
 1796TIP3   OH2 5351   4.284   3.644   3.940 -0.0614 -0.1466 -0.2233
 1796TIP3    H1 5352   4.193   3.612   3.934 -0.3619  0.8457 -1.5783
 1796TIP3    H2 5353   4.322   3.622   3.854  0.7250  0.1960  0.0323
 1797TIP3   OH2 5354   3.302   4.366   4.891  0.0527 -0.0100  0.4026
 1797TIP3    H1 5355   3.232   4.431   4.888 -0.6163 -0.7354 -0.5988
 1797TIP3    H2 5356   3.260   4.287   4.923  0.7667 -0.0737  1.2234
 1798TIP3   OH2 5357   4.281   5.986   5.050  0.5464 -0.3411  0.0918
 1798TIP3    H1 5358   4.248   6.076   5.059 -0.9996 -0.8124 -0.4738
 1798TIP3    H2 5359   4.375   5.993   5.068  0.6519  1.5537 -0.9494
 1799TIP3   OH2 5360   1.997   1.444   1.569 -0.0400  0.1844 -0.1349
 1799TIP3    H1 5361   1.908   1.422   1.543 -0.3604  0.0535  1.0291
 1799TIP3    H2 5362   1.998   1.540   1.575 -1.0149  0.1012  2.8110
 1800TIP3   OH2 5363   6.464   1.663   2.440  0.3462 -0.2425  0.0846
 1800TIP3    H1 5364   6.548   1.704   2.418  0.3588  0.9488  2.1722
 1800TIP3    H2 5365   6.399   1.714   2.391  0.6971 -0.1804 -0.3218
 1801TIP3   OH2 5366   0.520   4.928   2.335 -0.6470  0.2352 -0.0505
 1801TIP3    H1 5367   0.500   5.005   2.282 -1.2452  0.2206  0.1492
 1801TIP3    H2 5368   0.455   4.863   2.309 -0.2474 -0.1535 -0.1026
 1802TIP3   OH2 5369   3.158   2.953   4.594 -0.1278  0.1452  0.1391
 1802TIP3    H1 5370   3.241   2.973   4.551  0.1317 -0.7377  0.2142
 1802TIP3    H2 5371   3.092   2.961   4.525  0.0634  0.4872 -0.0036
 1803TIP3   OH2 5372   6.551   2.335   2.218  0.0373 -0.0124  0.1010
 1803TIP3    H1 5373   6.548   2.277   2.294 -0.5143 -0.3108 -0.1464
 1803TIP3    H2 5374   6.466   2.325   2.176  0.7857 -0.8322 -1.2950
 1804TIP3   OH2 5375   6.915   3.907   4.166 -0.5313 -0.2459 -0.2734
 1804TIP3    H1 5376   6.909   3.827   4.114 -1.8113 -0.1092 -0.3620
 1804TIP3    H2 5377   6.928   3.976   4.101 -0.7122 -0.2356 -0.2982
 1805TIP3   OH2 5378   5.661   5.516   0.102 -0.1601  0.6669  0.0963
 1805TIP3    H1 5379   5.601   5.539   0.031 -1.0365  0.9581  0.9078
 1805TIP3    H2 5380   5.745   5.554   0.076 -1.0124  2.7893  0.2811
 1806TIP3   OH2 5381   4.627   3.891   5.705  0.1116  0.0773  0.2392
 1806TIP3    H1 5382   4.581   3.895   5.621  0.9198 -0.4253 -0.2419
 1806TIP3    H2 5383   4.645   3.982   5.727  0.4732  0.1810 -0.4661
 1807TIP3   OH2 5384   6.333   2.615   1.816  0.1928 -0.2602 -0.1777
 1807TIP3    H1 5385   6.421   2.613   1.778 -1.1237  0.6011 -3.7455
 1807TIP3    H2 5386   6.287   2.542   1.773 -1.3030  0.4469  0.1330
 1808TIP3   OH2 5387   3.972   6.355   1.775  0.9882  0.0488  0.6408
 1808TIP3    H1 5388   4.026   6.278   1.792 -0.1610 -0.9905 -0.2038
 1808TIP3    H2 5389   3.908   6.325   1.710  0.2090  1.5845  0.6581
 1809TIP3   OH2 5390   1.403   5.753   4.266 -0.1395  0.3284 -0.1091
 1809TIP3    H1 5391   1.479   5.739   4.210  1.0431 -1.5277  1.7986
 1809TIP3    H2 5392   1.333   5.700   4.228  0.2850  0.0331 -0.4759
 1810TIP3   OH2 5393   1.406   3.585   0.151 -0.2984 -0.2338 -0.4924
 1810TIP3    H1 5394   1.421   3.675   0.180 -0.2835 -0.4518  0.2095
 1810TIP3    H2 5395   1.319   3.587   0.110 -0.6495 -0.0564  0.2395
 1811TIP3   OH2 5396   0.887   5.103   0.856 -0.2279 -0.0121  0.2320
 1811TIP3    H1 5397   0.918   5.054   0.780 -0.8621 -0.2276  0.1038
 1811TIP3    H2 5398   0.798   5.072   0.870 -1.2306  2.1536 -0.7824
 1812TIP3   OH2 5399   4.481   2.642   0.011  0.1010  0.5168 -0.0949
 1812TIP3    H1 5400   4.535   2.565  -0.003  0.6308  1.1039 -1.4180
 1812TIP3    H2 5401   4.533   2.697   0.071 -0.4112 -0.2532  1.0929
 1813TIP3   OH2 5402   6.742   5.244   2.472  0.0734  0.2290  0.6147
 1813TIP3    H1 5403   6.750   5.302   2.396  1.4629 -3.3124 -2.2305
 1813TIP3    H2 5404   6.809   5.276   2.533 -0.1152  2.3421 -0.1859
 1814TIP3   OH2 5405   4.675   5.617   3.759 -0.1638  0.2103  0.4353
 1814TIP3    H1 5406   4.617   5.594   3.686  0.4012 -0.7295  0.2676
 1814TIP3    H2 5407   4.761   5.629   3.719  0.3260 -1.1235  1.0436
 1815TIP3   OH2 5408   1.737   0.707   3.377  0.4704  0.0535  0.1677
 1815TIP3    H1 5409   1.735   0.720   3.282  0.9140  2.2106  0.3908
 1815TIP3    H2 5410   1.829   0.716   3.401  0.1065  1.9943  1.0382
 1816TIP3   OH2 5411   7.032   4.081   4.359  0.1879  0.3280  0.3365
 1816TIP3    H1 5412   6.994   4.006   4.315 -2.3936  1.9285 -0.3947
 1816TIP3    H2 5413   7.057   4.140   4.288  0.6011  0.8688  0.9156
 1817TIP3   OH2 5414   1.941   3.079   3.839  0.2418 -0.2505 -0.4969
 1817TIP3    H1 5415   2.029   3.083   3.802  0.0203  2.0594 -0.9436
 1817TIP3    H2 5416   1.882   3.081   3.763 -0.1909 -0.0528 -0.1643
 1818TIP3   OH2 5417   2.571   0.964   0.438  0.4270  0.0346  0.6274
 1818TIP3    H1 5418   2.621   1.011   0.371 -0.9850  0.9402  0.1653
 1818TIP3    H2 5419   2.585   0.872   0.418  0.0956  0.2805 -0.9019
 1819TIP3   OH2 5420   1.205   0.103   0.866 -0.3076  0.2446 -0.3627
 1819TIP3    H1 5421   1.174   0.175   0.921 -0.3012  0.9259 -1.2185
 1819TIP3    H2 5422   1.249   0.043   0.927  1.1306  1.7566  0.1840
 1820TIP3   OH2 5423   5.933   1.839   1.557  0.4497 -0.1126 -0.2913
 1820TIP3    H1 5424   5.881   1.798   1.626 -0.4030  1.6311  0.1492
 1820TIP3    H2 5425   5.886   1.920   1.536  2.3308  0.9216 -0.7369
 1821TIP3   OH2 5426   0.671   4.541   5.239 -0.1420  0.4525 -0.0963
 1821TIP3    H1 5427   0.708   4.523   5.325 -0.2700  1.2432  0.1330
 1821TIP3    H2 5428   0.722   4.615   5.205 -1.0473  1.1201 -0.0594
 1822TIP3   OH2 5429   0.806   6.040   0.100  0.4404 -0.2640  0.2174
 1822TIP3    H1 5430   0.855   5.972   0.055 -0.7890 -0.9134 -0.2068
 1822TIP3    H2 5431   0.862   6.117   0.097  1.5318 -1.0512  0.0121
 1823TIP3   OH2 5432   0.934   5.530   5.486  0.0638  1.0408 -0.0111
 1823TIP3    H1 5433   1.016   5.579   5.484  0.3434  0.5854 -2.1316
 1823TIP3    H2 5434   0.898   5.546   5.573  2.0699  1.7807  0.7230
 1824TIP3   OH2 5435   6.963  -0.020   5.676  0.1499 -0.4722  0.0520
 1824TIP3    H1 5436   6.976   0.072   5.698 -0.7679 -0.8624  2.5429
 1824TIP3    H2 5437   7.051  -0.051   5.653  1.1861  0.2323  2.6883
 1825TIP3   OH2 5438   3.105   3.121   1.498  0.5120 -0.3030 -0.2555
 1825TIP3    H1 5439   3.086   3.213   1.481  0.0455 -0.5676 -1.2210
 1825TIP3    H2 5440   3.193   3.108   1.462  1.4455  0.2228  1.6677
 1826TIP3   OH2 5441   5.169   4.656   0.238 -0.3718  0.0437 -0.5756
 1826TIP3    H1 5442   5.224   4.733   0.227  0.1674 -0.5350 -2.3985
 1826TIP3    H2 5443   5.097   4.685   0.294  1.0650  1.1804  0.7741
 1827TIP3   OH2 5444   3.805   1.245   3.402  0.2894 -0.1549  0.6400
 1827TIP3    H1 5445   3.750   1.312   3.361  1.1294  0.1559 -0.0268
 1827TIP3    H2 5446   3.794   1.168   3.347 -0.8114 -0.6369  1.5068
 1828TIP3   OH2 5447   2.915   3.227   1.839 -0.2703  0.5846 -0.2549
 1828TIP3    H1 5448   2.835   3.251   1.886 -0.1222  0.6971 -0.0630
 1828TIP3    H2 5449   2.915   3.282   1.761  0.1638  1.3370  0.2731
 1829TIP3   OH2 5450   5.337   2.869   3.681  0.0939  0.1839  0.4789
 1829TIP3    H1 5451   5.349   2.896   3.773  0.8057 -0.8895  0.7152
 1829TIP3    H2 5452   5.375   2.941   3.630  0.7844  0.2362  1.0546
 1830TIP3   OH2 5453   1.793   0.078   3.242 -0.0778 -0.1144  0.2550
 1830TIP3    H1 5454   1.776  -0.013   3.216  0.0653  0.5125 -2.2648
 1830TIP3    H2 5455   1.879   0.098   3.206 -0.4361  1.2597  0.1050
 1831TIP3   OH2 5456   7.180   1.253   3.431  0.4508 -0.1566  0.2453
 1831TIP3    H1 5457   7.107   1.260   3.492  0.4173 -1.4147  0.3919
 1831TIP3    H2 5458   7.218   1.167   3.450  0.3642 -0.6326 -1.5729
 1832TIP3   OH2 5459   1.114  -0.009   1.134 -0.3231 -0.1776  0.5050
 1832TIP3    H1 5460   1.124  -0.001   1.228 -1.6978  0.7678  0.6120
 1832TIP3    H2 5461   1.100   0.081   1.103 -0.0747 -0.4876 -0.5688
 1833TIP3   OH2 5462   5.141   1.217   0.531 -0.0138 -0.1334 -0.6036
 1833TIP3    H1 5463   5.203   1.184   0.595  0.1243  0.6809 -0.3038
 1833TIP3    H2 5464   5.124   1.143   0.473 -0.1079 -0.8682  0.3465
 1834TIP3   OH2 5465   0.601   0.463   3.246 -0.7032 -0.0548 -0.1720
 1834TIP3    H1 5466   0.588   0.376   3.208 -1.8957 -1.6702  3.4317
 1834TIP3    H2 5467   0.662   0.447   3.319 -0.7386  2.2112  0.4118
 1835TIP3   OH2 5468   2.397   3.944   4.609 -0.4564 -0.5705 -0.3010
 1835TIP3    H1 5469   2.399   3.854   4.577  0.3498 -0.1063 -1.6336
 1835TIP3    H2 5470   2.465   3.989   4.559 -0.8709  0.7918  0.3126
 1836TIP3   OH2 5471   5.371   5.022   3.598  0.5286 -0.1936 -0.1225
 1836TIP3    H1 5472   5.376   4.961   3.671 -0.7478  0.4975  0.5757
 1836TIP3    H2 5473   5.410   5.103   3.630  0.1327  0.0552 -0.2584
 1837TIP3   OH2 5474   4.232   5.854   5.541 -0.5749 -0.6844 -0.2771
 1837TIP3    H1 5475   4.182   5.848   5.459 -0.3042 -0.6689 -0.4466
 1837TIP3    H2 5476   4.174   5.817   5.607 -1.0125 -0.1922 -0.3773
 1838TIP3   OH2 5477   0.154   3.912   4.761  0.1838 -0.0463  0.1310
 1838TIP3    H1 5478   0.208   3.882   4.834  1.4541 -0.3029 -0.8754
 1838TIP3    H2 5479   0.103   3.834   4.736  0.3958 -0.2047  0.1883
 1839TIP3   OH2 5480   4.391   0.975   0.575  0.3020  0.3813  0.4704
 1839TIP3    H1 5481   4.439   0.964   0.657 -0.5040  1.6175  1.1276
 1839TIP3    H2 5482   4.367   1.067   0.572 -2.5360 -0.2441  0.4828
 1840TIP3   OH2 5483   3.334   5.911   1.976 -0.8221  0.1403  0.0677
 1840TIP3    H1 5484   3.361   5.865   2.055  1.2296 -2.5962 -2.0239
 1840TIP3    H2 5485   3.358   6.002   1.992  3.5201 -0.9443  1.1798
 1841TIP3   OH2 5486   4.944   4.204   3.018 -0.1871  0.1871 -0.8397
 1841TIP3    H1 5487   4.974   4.184   3.107 -0.5185 -0.0549 -0.7821
 1841TIP3    H2 5488   5.018   4.179   2.962 -0.5107 -1.0266 -0.7527
 1842TIP3   OH2 5489   5.087   2.163   1.299  0.3222  0.0542 -0.1530
 1842TIP3    H1 5490   5.079   2.070   1.277 -1.9998 -0.0512  0.8049
 1842TIP3    H2 5491   5.038   2.209   1.230  0.9454  0.5105 -0.2951
 1843TIP3   OH2 5492   4.777   4.983   3.276  0.2441  0.1746  0.0111
 1843TIP3    H1 5493   4.800   5.070   3.245 -1.6012  0.1386 -1.6458
 1843TIP3    H2 5494   4.854   4.953   3.325  0.4429  3.2398  1.8275
 1844TIP3   OH2 5495   3.991   2.412   1.293  0.8250 -0.2748  0.4531
 1844TIP3    H1 5496   4.067   2.415   1.352  0.7004 -0.4223  0.6213
 1844TIP3    H2 5497   3.915   2.412   1.351  0.6061  2.2879  0.2731
 1845TIP3   OH2 5498   3.288   0.932   0.554  0.0467  0.5517  0.1662
 1845TIP3    H1 5499   3.251   1.014   0.521  1.6718  1.4521  0.4750
 1845TIP3    H2 5500   3.317   0.885   0.475 -0.2079  0.6057  0.0386
 1846TIP3   OH2 5501   0.678   4.652   5.578  0.4656  0.9318 -0.0124
 1846TIP3    H1 5502   0.670   4.702   5.659  2.6232  1.4115 -0.0513
 1846TIP3    H2 5503   0.674   4.560   5.605  1.1859  1.0863  0.6520
 1847TIP3   OH2 5504   0.158   4.626   0.435  0.3386  0.0824  0.2489
 1847TIP3    H1 5505   0.210   4.553   0.403  0.2371  1.0483 -2.4050
 1847TIP3    H2 5506   0.070   4.610   0.402 -0.4727 -0.1855  2.4155
 1848TIP3   OH2 5507   3.326   3.607   0.539  0.2402 -0.1705 -0.0528
 1848TIP3    H1 5508   3.351   3.696   0.565  0.2158 -0.0642 -0.3954
 1848TIP3    H2 5509   3.348   3.554   0.615 -0.8302  0.2988  0.6124
 1849TIP3   OH2 5510   0.389   4.466   0.722 -0.3950  0.2918  0.2457
 1849TIP3    H1 5511   0.341   4.549   0.721  0.0838  0.5641 -0.2542
 1849TIP3    H2 5512   0.374   4.429   0.635  0.8414  0.6979 -0.1641
 1850TIP3   OH2 5513   0.225   0.878   1.901 -0.6083 -0.0522 -0.0907
 1850TIP3    H1 5514   0.263   0.964   1.880  0.8384 -0.4147  0.9399
 1850TIP3    H2 5515   0.300   0.823   1.922 -1.3321 -2.1108 -2.3706
 1851TIP3   OH2 5516   0.974   6.323   1.145  0.8682  0.2770 -0.7404
 1851TIP3    H1 5517   1.046   6.338   1.084  0.1434  0.3269 -1.5992
 1851TIP3    H2 5518   1.015   6.330   1.232  2.2534 -1.3510 -1.1927
 1852TIP3   OH2 5519   2.991   5.918   4.129 -0.0637 -0.0347 -0.2055
 1852TIP3    H1 5520   2.960   5.987   4.070 -3.1512 -1.2961 -0.2293
 1852TIP3    H2 5521   2.987   5.958   4.216  1.8683  0.9523 -0.5146
 1853TIP3   OH2 5522   0.826   1.445   0.188 -0.0747  0.0100  0.6739
 1853TIP3    H1 5523   0.848   1.384   0.258  2.4652  0.9329  0.7551
 1853TIP3    H2 5524   0.892   1.514   0.193 -0.9354  1.1013 -1.4528
 1854TIP3   OH2 5525   5.818   2.828   5.153  0.6258 -0.3065 -0.0545
 1854TIP3    H1 5526   5.882   2.809   5.221  0.2412 -0.9694  0.1228
 1854TIP3    H2 5527   5.755   2.757   5.157  0.1807  0.0398 -0.6055
 1855TIP3   OH2 5528   0.920   4.440   0.793 -0.3830 -0.0523  0.6885
 1855TIP3    H1 5529   0.942   4.441   0.887  0.9656  0.3061  0.3898
 1855TIP3    H2 5530   0.837   4.392   0.789  0.0361 -0.9619  1.9630
 1856TIP3   OH2 5531   5.712   3.734   5.553  0.0989 -0.1286 -0.1515
 1856TIP3    H1 5532   5.744   3.668   5.491 -2.1036 -0.4083 -1.1030
 1856TIP3    H2 5533   5.617   3.720   5.555 -0.1284  1.2994  1.6714
 1857TIP3   OH2 5534   6.296   6.052   5.709 -0.4837  0.2357  0.0285
 1857TIP3    H1 5535   6.218   6.047   5.763 -0.1263 -0.0721  0.5296
 1857TIP3    H2 5536   6.320   6.145   5.709 -1.1453  0.4095 -0.5658
 1858TIP3   OH2 5537   3.345   4.889   0.718 -0.2555 -0.1533 -0.4270
 1858TIP3    H1 5538   3.414   4.835   0.680  0.1188  1.1187 -1.6566
 1858TIP3    H2 5539   3.283   4.902   0.646 -0.0812  1.4119 -0.3278
 1859TIP3   OH2 5540   1.742   1.173   3.113  0.2164  0.1974 -0.1057
 1859TIP3    H1 5541   1.685   1.220   3.052  2.1785  4.0238  0.7311
 1859TIP3    H2 5542   1.830   1.185   3.077  1.0140 -1.0747  1.3186
 1860TIP3   OH2 5543   3.969   6.642   1.719  0.1489  0.2263 -0.0632
 1860TIP3    H1 5544   3.908   6.635   1.646  0.3998  0.1515 -0.2721
 1860TIP3    H2 5545   3.989   6.551   1.742 -0.2633  0.2462  0.3879
 1861TIP3   OH2 5546   2.984   3.186   0.382  0.3206 -0.0324 -0.3247
 1861TIP3    H1 5547   2.896   3.222   0.398  1.2314  1.9005  0.5925
 1861TIP3    H2 5548   3.033   3.259   0.346  2.0137 -0.5915  0.7489
 1862TIP3   OH2 5549   2.676   6.715   2.361  0.3605  0.0150 -0.0631
 1862TIP3    H1 5550   2.679   6.679   2.450  1.3430  0.5464  0.1358
 1862TIP3    H2 5551   2.722   6.799   2.367 -1.6095  1.1779 -0.5961
 1863TIP3   OH2 5552   5.918   1.648   5.651 -0.2624  0.1688 -0.1651
 1863TIP3    H1 5553   5.877   1.672   5.567 -1.0573 -0.3088  0.0807
 1863TIP3    H2 5554   5.888   1.559   5.668  1.6573 -0.5789 -0.4441
 1864TIP3   OH2 5555   6.392   5.365   5.665  0.1737  0.0833  0.3692
 1864TIP3    H1 5556   6.370   5.295   5.605 -0.9224  1.3546 -0.7688
 1864TIP3    H2 5557   6.458   5.417   5.619 -0.6098  1.0183  0.2653
 1865TIP3   OH2 5558   3.441   0.467   5.602  0.2318  0.2261 -0.4784
 1865TIP3    H1 5559   3.410   0.387   5.644 -0.3338  0.9931  0.6006
 1865TIP3    H2 5560   3.503   0.436   5.536 -0.3044 -1.1244 -0.3865
 1866TIP3   OH2 5561   2.875   5.230   2.188 -0.0276 -0.0382 -0.0696
 1866TIP3    H1 5562   2.833   5.217   2.273  0.8432  0.3914  0.4432
 1866TIP3    H2 5563   2.948   5.290   2.206  0.2040  0.0194 -1.1093
 1867TIP3   OH2 5564   3.344   2.026   1.689  0.2777  0.3619 -0.2636
 1867TIP3    H1 5565   3.385   2.100   1.733 -0.5182  1.8451 -1.9077
 1867TIP3    H2 5566   3.366   2.038   1.597 -0.8815 -0.7825 -0.7107
 1868TIP3   OH2 5567   4.806   1.419   1.099  0.1626  0.4777 -0.1264
 1868TIP3    H1 5568   4.865   1.480   1.056 -0.7780 -0.2141 -2.5767
 1868TIP3    H2 5569   4.748   1.388   1.029  0.3038 -2.8729  1.0265
 1869TIP3   OH2 5570   3.838   3.777   5.016  0.1273  0.0336 -0.5532
 1869TIP3    H1 5571   3.790   3.714   5.070  1.1873 -1.7053 -1.5385
 1869TIP3    H2 5572   3.771   3.820   4.964 -0.5281 -1.2271 -0.7889
 1870TIP3   OH2 5573   6.573   0.334   3.102  0.4445 -0.0626 -0.8757
 1870TIP3    H1 5574   6.484   0.369   3.113  1.6476  2.4644  2.1309
 1870TIP3    H2 5575   6.614   0.393   3.039  0.7900  0.4993 -0.1342
 1871TIP3   OH2 5576   6.083   3.039   5.029 -0.6395  0.2571 -0.5082
 1871TIP3    H1 5577   6.007   3.015   4.976 -0.4159 -0.4113 -0.5262
 1871TIP3    H2 5578   6.080   3.135   5.032 -1.8290  0.2301 -0.0106
 1872TIP3   OH2 5579   2.313   1.216   5.694 -0.0641 -0.1581 -0.5855
 1872TIP3    H1 5580   2.226   1.218   5.656 -0.5758 -0.8236  0.4916
 1872TIP3    H2 5581   2.305   1.266   5.776  0.5494 -0.2558 -0.4539
 1873TIP3   OH2 5582   4.094   4.004   3.825  0.4679  0.1354 -0.8848
 1873TIP3    H1 5583   4.049   4.064   3.884  0.3652 -0.7052 -0.0747
 1873TIP3    H2 5584   4.025   3.950   3.787  0.7284 -1.0100  0.1914
 1874TIP3   OH2 5585   5.961   2.375   5.480  0.1950  0.1460  0.6656
 1874TIP3    H1 5586   6.052   2.363   5.454 -0.5097 -0.2683 -1.8614
 1874TIP3    H2 5587   5.918   2.293   5.456 -0.9949  0.6151  1.1123
 1875TIP3   OH2 5588   6.537   3.740   2.037 -0.1154 -0.0315 -0.0058
 1875TIP3    H1 5589   6.529   3.789   2.119 -1.2344 -0.0441 -0.0837
 1875TIP3    H2 5590   6.467   3.776   1.982  1.6293  1.1483 -1.5882
 1876TIP3   OH2 5591   3.975   0.651   1.511  0.6228  0.6297  0.1577
 1876TIP3    H1 5592   4.056   0.683   1.551  2.2125 -2.2942 -0.3971
 1876TIP3    H2 5593   3.936   0.728   1.470  2.5764  2.3488  1.3408
 1877TIP3   OH2 5594   2.932   3.498   1.392  0.2066 -0.1105 -0.0416
 1877TIP3    H1 5595   3.010   3.455   1.357 -0.3891 -0.2390 -1.2596
 1877TIP3    H2 5596   2.933   3.585   1.353 -0.7217 -0.4169 -0.7866
 1878TIP3   OH2 5597   4.724   6.001   2.180  0.1878  0.1909 -0.4589
 1878TIP3    H1 5598   4.739   5.960   2.265 -4.2420  0.8541  0.8978
 1878TIP3    H2 5599   4.716   6.094   2.199  0.1098  0.4883 -1.7991
 1879TIP3   OH2 5600   6.896   3.596   5.792  0.1989 -0.1295 -0.2528
 1879TIP3    H1 5601   6.809   3.583   5.830 -0.4007  1.1481 -1.1256
 1879TIP3    H2 5602   6.903   3.529   5.725 -0.2628 -0.0107 -0.4229
 1880TIP3   OH2 5603   6.838   2.939   5.296 -0.0328 -0.2256 -0.3529
 1880TIP3    H1 5604   6.776   3.005   5.327  0.0619 -0.1589 -0.3049
 1880TIP3    H2 5605   6.924   2.981   5.306  0.1933 -1.0022  1.3893
 1881TIP3   OH2 5606   3.667   4.881   0.558 -0.2833 -0.2337  0.1417
 1881TIP3    H1 5607   3.761   4.892   0.548 -0.5172  0.4135 -1.7068
 1881TIP3    H2 5608   3.651   4.790   0.533 -0.2103 -0.2163  0.0342
 1882TIP3   OH2 5609   5.302   6.068   1.178 -0.6403  0.0297  0.0577
 1882TIP3    H1 5610   5.338   5.988   1.218 -0.6500 -0.0258 -0.0436
 1882TIP3    H2 5611   5.316   6.136   1.244 -2.0140 -0.3472  0.7736
 1883TIP3   OH2 5612   0.229   4.755   4.234  0.1190  1.2186  0.1931
 1883TIP3    H1 5613   0.135   4.742   4.220  0.5674 -2.4416 -0.3484
 1883TIP3    H2 5614   0.263   4.778   4.147  0.1372 -1.3223 -0.5649
 1884TIP3   OH2 5615   3.854   5.898   1.321  0.2499  0.4347 -0.3501
 1884TIP3    H1 5616   3.865   5.992   1.333 -1.0764  0.5536  0.1250
 1884TIP3    H2 5617   3.825   5.866   1.407 -0.3192 -0.2328 -0.7786
 1885TIP3   OH2 5618   5.472   4.603   3.430  0.0885 -0.7938 -0.2093
 1885TIP3    H1 5619   5.487   4.522   3.478  0.0394 -0.7832 -0.1754
 1885TIP3    H2 5620   5.537   4.664   3.466 -0.4041 -0.5809  0.3364
 1886TIP3   OH2 5621   3.952   4.315   5.600 -0.1176 -0.1607  0.4041
 1886TIP3    H1 5622   3.989   4.345   5.684  2.8348  2.0096 -1.4711
 1886TIP3    H2 5623   3.912   4.394   5.563  1.0275 -0.3684 -1.3603
 1887TIP3   OH2 5624   6.793   5.574   4.257 -0.0757  0.8126  0.4498
 1887TIP3    H1 5625   6.751   5.563   4.342 -0.6561 -0.1981  0.0462
 1887TIP3    H2 5626   6.869   5.516   4.260 -1.5163 -1.2315 -0.6228
 1888TIP3   OH2 5627   4.449   5.221   1.481 -1.0434  0.4206  0.4784
 1888TIP3    H1 5628   4.436   5.149   1.419  0.2212  0.4057  0.1995
 1888TIP3    H2 5629   4.366   5.267   1.482 -1.4401 -0.2500 -0.3791
 1889TIP3   OH2 5630   1.375   1.803   2.709  0.8052 -0.5422 -0.1416
 1889TIP3    H1 5631   1.325   1.832   2.633 -0.9984 -0.0758  1.1467
 1889TIP3    H2 5632   1.462   1.781   2.675 -0.2351 -1.2734 -2.4616
 1890TIP3   OH2 5633   6.367   4.577   0.122  0.3774  0.4574  0.4359
 1890TIP3    H1 5634   6.276   4.571   0.153 -0.1479  2.4229 -0.5347
 1890TIP3    H2 5635   6.418   4.590   0.202 -0.3767  0.7901  0.8824
 1891TIP3   OH2 5636   5.322   2.741   5.586  0.6087  0.0570 -0.1691
 1891TIP3    H1 5637   5.326   2.794   5.665  1.3584 -0.6088  0.2446
 1891TIP3    H2 5638   5.232   2.709   5.583  0.8815 -0.8589  1.0457
 1892TIP3   OH2 5639   4.038   6.401   2.884  0.2487 -0.0068  0.5200
 1892TIP3    H1 5640   3.982   6.477   2.898 -0.6379 -0.1258 -1.8731
 1892TIP3    H2 5641   4.113   6.435   2.834 -0.1953 -0.6750 -0.6435
 1893TIP3   OH2 5642   5.039   5.118   0.320  0.0648  0.1352 -0.6451
 1893TIP3    H1 5643   4.980   5.146   0.250  0.6623  0.6069 -0.9770
 1893TIP3    H2 5644   5.024   5.179   0.391  1.0177  1.0473 -1.1885
 1894TIP3   OH2 5645   0.042   0.443   0.511 -0.2822  0.2510 -0.5969
 1894TIP3    H1 5646  -0.026   0.457   0.445 -0.5819  0.0755 -0.3277
 1894TIP3    H2 5647   0.021   0.505   0.580  1.0713  1.7208 -1.4358
 1895TIP3   OH2 5648   2.787  -0.004   5.751 -0.0442  0.0696 -0.0550
 1895TIP3    H1 5649   2.698  -0.031   5.774  0.1350  0.7846  1.6682
 1895TIP3    H2 5650   2.775   0.064   5.685 -0.5975 -2.0977 -2.3398
 1896TIP3   OH2 5651   2.875   6.704   0.455 -0.2582 -0.1373 -0.6125
 1896TIP3    H1 5652   2.892   6.721   0.547 -2.0766 -0.4992 -0.1767
 1896TIP3    H2 5653   2.885   6.790   0.413  1.1449 -0.0760 -0.2152
 1897TIP3   OH2 5654   3.716   6.372   1.449  0.1637 -0.1358  0.4862
 1897TIP3    H1 5655   3.730   6.325   1.531  0.9249  1.1140  1.1022
 1897TIP3    H2 5656   3.802   6.405   1.425 -0.1036 -0.2253 -0.6771
 1898TIP3   OH2 5657   4.147   0.653   3.752  0.3685 -0.1534 -0.2749
 1898TIP3    H1 5658   4.214   0.589   3.775 -0.5449 -1.3169 -0.7112
 1898TIP3    H2 5659   4.195   0.733   3.731  1.5295 -0.6398  0.4459
 1899TIP3   OH2 5660   3.282   0.335   3.480 -0.0175  0.3080 -0.3195
 1899TIP3    H1 5661   3.291   0.380   3.564  1.8971  1.6032 -1.1498
 1899TIP3    H2 5662   3.299   0.403   3.415 -0.1227 -0.9753 -1.7228
 1900TIP3   OH2 5663   5.029   2.735   3.716  0.9257  1.0799 -0.2295
 1900TIP3    H1 5664   5.056   2.672   3.783 -1.3212 -0.4186 -0.5843
 1900TIP3    H2 5665   5.010   2.815   3.764 -0.4836  0.0835  0.9970
 1901TIP3   OH2 5666   2.585   4.805   0.957 -0.2688 -0.4135  0.0983
 1901TIP3    H1 5667   2.670   4.799   0.912  0.0899 -0.1185  0.7169
 1901TIP3    H2 5668   2.521   4.776   0.892  0.6379 -4.2561  0.6604
 1902TIP3   OH2 5669   1.389   5.946   2.900 -0.4022 -0.3999 -0.2530
 1902TIP3    H1 5670   1.403   6.004   2.825  0.2027 -0.2743 -0.0508
 1902TIP3    H2 5671   1.300   5.966   2.930  0.1836  1.2663  0.5131
 1903TIP3   OH2 5672   5.912   2.024   2.550 -0.2827 -0.6750  0.5483
 1903TIP3    H1 5673   5.989   2.079   2.569 -0.9218 -0.7008  3.9695
 1903TIP3    H2 5674   5.942   1.935   2.567 -0.5480 -0.9009 -0.1430
 1904TIP3   OH2 5675   2.279   3.761   2.440 -0.2258 -0.2384 -0.3669
 1904TIP3    H1 5676   2.306   3.845   2.477 -0.0727 -0.3565 -0.2096
 1904TIP3    H2 5677   2.361   3.714   2.425 -0.1796  0.3175 -2.1011
 1905TIP3   OH2 5678   0.472   0.339   5.682  0.2175  0.5214 -0.0291
 1905TIP3    H1 5679   0.555   0.299   5.656  0.8160  0.1193  2.3106
 1905TIP3    H2 5680   0.497   0.414   5.735 -0.9503  1.3690 -0.6258
 1906TIP3   OH2 5681   4.643   2.039   5.837  0.0889  0.0229  0.4932
 1906TIP3    H1 5682   4.722   1.992   5.866 -0.2833 -0.4919  0.6871
 1906TIP3    H2 5683   4.656   2.053   5.744  0.7590  0.6318  0.6684
 1907TIP3   OH2 5684   1.505   3.962   3.260  0.4780 -0.2844  0.2871
 1907TIP3    H1 5685   1.423   3.942   3.305  0.4498 -0.1472  0.2960
 1907TIP3    H2 5686   1.496   3.921   3.174 -0.4227  1.3863 -0.4747
 1908TIP3   OH2 5687   6.942   0.933   0.740 -0.3492  0.3366  0.1916
 1908TIP3    H1 5688   6.895   1.015   0.753  1.6594  1.8214 -1.2774
 1908TIP3    H2 5689   6.948   0.894   0.827  0.3057  2.7560  1.3055
 1909TIP3   OH2 5690   6.779   4.828   1.328 -0.4369 -0.0706  0.4300
 1909TIP3    H1 5691   6.819   4.746   1.297 -1.0139  0.9864 -3.6927
 1909TIP3    H2 5692   6.802   4.832   1.421  0.7052 -4.2249  0.5348
 1910TIP3   OH2 5693   3.031   5.898   4.576  0.0300 -0.0300 -0.4346
 1910TIP3    H1 5694   2.939   5.899   4.605  0.1597  0.2519 -0.0291
 1910TIP3    H2 5695   3.027   5.926   4.485 -0.2121  0.7728 -0.1872
 1911TIP3   OH2 5696   6.748   2.422   5.688 -0.2867 -0.3622 -0.2203
 1911TIP3    H1 5697   6.698   2.385   5.761  1.3684 -1.7319  0.2581
 1911TIP3    H2 5698   6.805   2.488   5.728  0.6161 -1.1057 -0.2521
 1912TIP3   OH2 5699   1.791   1.755   0.078  0.1264  0.1447  0.5459
 1912TIP3    H1 5700   1.813   1.841   0.114  1.2961 -0.1000  0.4781
 1912TIP3    H2 5701   1.864   1.699   0.105 -0.1336 -0.5918 -0.2358
 1913TIP3   OH2 5702   4.760   6.453   3.390  0.1775 -0.0358  0.0415
 1913TIP3    H1 5703   4.793   6.502   3.314 -1.1193  0.7817 -0.0348
 1913TIP3    H2 5704   4.767   6.361   3.364  1.5555  0.1406 -0.2833
 1914TIP3   OH2 5705   1.710   4.425   2.378  0.5148  0.6320  0.5531
 1914TIP3    H1 5706   1.748   4.362   2.316 -0.1893 -0.8275  1.5266
 1914TIP3    H2 5707   1.653   4.481   2.325  2.1116  1.2935 -0.5401
 1915TIP3   OH2 5708   0.619   5.663   5.221  0.2098 -0.0311 -0.0753
 1915TIP3    H1 5709   0.591   5.609   5.147  1.2483  0.0814 -0.5610
 1915TIP3    H2 5710   0.658   5.741   5.180  0.1472  0.3626  0.6014
 1916TIP3   OH2 5711   5.396   5.595   5.758  0.4218 -0.1338  0.4807
 1916TIP3    H1 5712   5.376   5.635   5.674  2.0942 -1.7395 -0.7499
 1916TIP3    H2 5713   5.425   5.668   5.813  0.2825  0.7936 -0.6450
 1917TIP3   OH2 5714   6.951   1.442   2.271 -0.3958 -0.2125 -0.4828
 1917TIP3    H1 5715   7.030   1.394   2.244 -0.9908 -1.6006  0.1252
 1917TIP3    H2 5716   6.939   1.418   2.363  0.1173  2.3522  0.3170
 1918TIP3   OH2 5717   3.564   4.986   2.218  0.3883  0.1969  0.1728
 1918TIP3    H1 5718   3.660   4.984   2.211  0.3925  0.3582  0.1803
 1918TIP3    H2 5719   3.547   5.011   2.309  0.3473  1.3293 -0.1234
 1919TIP3   OH2 5720   7.129   4.762   4.198  0.3296  0.0055 -0.4552
 1919TIP3    H1 5721   7.071   4.690   4.173 -0.4830  0.0925  1.0200
 1919TIP3    H2 5722   7.113   4.830   4.133 -1.2835  0.0356 -0.0750
 1920TIP3   OH2 5723   0.559   3.781   2.789  0.3449 -0.0332 -0.4462
 1920TIP3    H1 5724   0.573   3.875   2.778  1.4177 -0.3648 -2.3320
 1920TIP3    H2 5725   0.612   3.758   2.865  0.5693  0.7807 -0.3404
 1921TIP3   OH2 5726   2.032   4.843   2.232  0.2360 -0.0641  0.1191
 1921TIP3    H1 5727   2.042   4.783   2.305 -0.3767  1.1293  1.2312
 1921TIP3    H2 5728   2.117   4.886   2.224  0.6739 -1.0471 -0.6774
 1922TIP3   OH2 5729   1.029   0.095   3.549  0.1237 -0.0575  0.0448
 1922TIP3    H1 5730   1.108   0.139   3.518  1.0303 -0.0562  2.1561
 1922TIP3    H2 5731   0.992   0.155   3.614  0.3020 -1.4979  1.5555
 1923TIP3   OH2 5732   1.760   0.548   5.852 -0.1812 -0.1938  0.7790
 1923TIP3    H1 5733   1.784   0.518   5.764  0.2303  0.8457  0.5320
 1923TIP3    H2 5734   1.665   0.539   5.855 -0.2626  0.3474  0.0118
 1924TIP3   OH2 5735   1.810   1.564   1.255  0.0955  0.0935  0.0413
 1924TIP3    H1 5736   1.809   1.491   1.317  2.7897 -0.0350  0.0765
 1924TIP3    H2 5737   1.902   1.591   1.251 -0.6716  3.0348 -0.5476
 1925TIP3   OH2 5738   1.952   0.709   0.468 -0.4807 -0.5122  0.2356
 1925TIP3    H1 5739   1.990   0.631   0.426  0.5872  0.3269 -0.4340
 1925TIP3    H2 5740   2.018   0.736   0.532  0.2518  1.1370 -1.1330
 1926TIP3   OH2 5741   3.958   4.175   0.596 -0.0922  0.1395  0.3433
 1926TIP3    H1 5742   3.979   4.126   0.516 -0.2128  0.3809  0.1599
 1926TIP3    H2 5743   4.043   4.195   0.635 -0.0784 -2.1176  1.6061
 1927TIP3   OH2 5744   2.517   1.913   2.422 -0.0699 -0.1107  0.3053
 1927TIP3    H1 5745   2.571   1.882   2.495  0.2301  0.9409  0.5604
 1927TIP3    H2 5746   2.427   1.904   2.453  0.0382 -0.0950  0.6267
 1928TIP3   OH2 5747   3.366   1.522   3.733  0.3968  0.0029 -0.4772
 1928TIP3    H1 5748   3.326   1.528   3.820  1.7471  0.5030  0.1532
 1928TIP3    H2 5749   3.375   1.428   3.717  2.0439 -0.1421  0.9081
 1929TIP3   OH2 5750   3.692   5.638   1.248  0.8261  0.4148  0.1465
 1929TIP3    H1 5751   3.663   5.636   1.340 -2.3237  3.4496 -0.5362
 1929TIP3    H2 5752   3.739   5.720   1.240  1.9760 -0.3130 -0.7859
 1930TIP3   OH2 5753   6.561   1.925   0.946  0.5776  0.4725 -0.4324
 1930TIP3    H1 5754   6.593   1.901   0.859  0.1498  0.0182 -0.4705
 1930TIP3    H2 5755   6.629   1.982   0.981  0.7954  0.5963 -1.0308
 1931TIP3   OH2 5756   5.899   2.416   4.130 -0.1303  0.1266 -0.7142
 1931TIP3    H1 5757   5.830   2.407   4.064 -1.3424 -1.3294  0.6546
 1931TIP3    H2 5758   5.966   2.354   4.103 -0.7904 -0.7368 -0.4372
 1932TIP3   OH2 5759   2.864   3.408   1.639  0.3056  0.0812 -0.0129
 1932TIP3    H1 5760   2.873   3.413   1.543 -0.6881  1.3356 -0.0712
 1932TIP3    H2 5761   2.872   3.498   1.668 -1.4720 -0.0073  0.8620
 1933TIP3   OH2 5762   2.755   6.665   2.647 -0.0501  0.4645 -0.5930
 1933TIP3    H1 5763   2.836   6.625   2.678 -0.8797 -0.6934  0.1848
 1933TIP3    H2 5764   2.701   6.673   2.726 -1.4923 -0.7644 -1.4211
 1934TIP3   OH2 5765   3.171   4.642   0.906  0.7222  0.4515  0.4978
 1934TIP3    H1 5766   3.212   4.652   0.991 -0.1664 -0.8741  1.1173
 1934TIP3    H2 5767   3.206   4.560   0.871 -1.3232 -0.7387  1.0599
 1935TIP3   OH2 5768   2.344   4.035   3.047  0.5168 -0.5593  0.0621
 1935TIP3    H1 5769   2.397   4.001   2.975  1.8492  0.4114  0.5421
 1935TIP3    H2 5770   2.373   3.985   3.123  1.8608  0.9296  0.6030
 1936TIP3   OH2 5771   5.033   0.431   0.921 -0.1135  0.3405  0.2867
 1936TIP3    H1 5772   5.118   0.469   0.947 -0.3122  0.2121  1.1587
 1936TIP3    H2 5773   5.015   0.365   0.988  0.3924 -1.5790 -1.4034
 1937TIP3   OH2 5774   5.949   4.932   0.331 -0.1988  0.2996  0.7589
 1937TIP3    H1 5775   5.853   4.929   0.330 -0.2801  2.0892 -0.8370
 1937TIP3    H2 5776   5.970   5.022   0.355  1.0336  0.5196 -1.0099
 1938TIP3   OH2 5777   5.219   4.286   1.181 -0.4116  0.0624 -0.7161
 1938TIP3    H1 5778   5.181   4.310   1.097 -0.4630  0.2747 -0.6334
 1938TIP3    H2 5779   5.197   4.193   1.193 -1.4357  0.3385 -0.3871
 1939TIP3   OH2 5780   1.160   6.677   0.194 -0.1517 -0.7964  0.1577
 1939TIP3    H1 5781   1.130   6.766   0.211 -0.5609 -1.1345  1.2689
 1939TIP3    H2 5782   1.253   6.678   0.218 -0.1179 -0.6435  0.0285
 1940TIP3   OH2 5783   7.115   1.004   2.630 -0.4205  0.1612  0.0271
 1940TIP3    H1 5784   7.046   1.044   2.682  0.3757  0.8152  0.6051
 1940TIP3    H2 5785   7.137   1.071   2.564  0.7714  0.6255  0.8659
 1941TIP3   OH2 5786   2.015   3.229   2.836 -0.1836  0.0949  0.1877
 1941TIP3    H1 5787   1.978   3.179   2.909 -1.0188  1.2410  0.5948
 1941TIP3    H2 5788   2.052   3.307   2.878 -1.5864  1.2742 -0.6604
 1942TIP3   OH2 5789   4.002   4.613   3.169  0.3532 -0.2970 -0.2390
 1942TIP3    H1 5790   4.075   4.651   3.218  1.1063  0.8468 -2.1272
 1942TIP3    H2 5791   4.044   4.563   3.099 -0.6755 -0.2800 -0.8888
 1943TIP3   OH2 5792   3.554   6.120   1.025 -0.6565  0.2994  0.0444
 1943TIP3    H1 5793   3.468   6.149   1.056 -1.2892 -0.1118 -1.2166
 1943TIP3    H2 5794   3.604   6.201   1.016 -1.4615  0.7399 -0.7324
 1944TIP3   OH2 5795   6.473   4.242   5.658 -0.2530  0.2571  0.5524
 1944TIP3    H1 5796   6.561   4.267   5.685 -0.1467  0.3003  0.1816
 1944TIP3    H2 5797   6.415   4.285   5.720  0.0331 -1.0732  1.7832
 1945TIP3   OH2 5798   5.644   0.845   1.170 -0.2251  0.1836 -0.1003
 1945TIP3    H1 5799   5.609   0.933   1.179  3.1059  1.5748  1.1956
 1945TIP3    H2 5800   5.636   0.806   1.257 -0.6132 -0.3485 -0.3667
 1946TIP3   OH2 5801   5.057   3.517   4.755  0.1963  0.1747  0.0984
 1946TIP3    H1 5802   5.040   3.440   4.700  1.3664  0.7893 -1.1837
 1946TIP3    H2 5803   4.991   3.512   4.824 -0.8629 -1.0292 -0.9459
 1947TIP3   OH2 5804   1.869   0.874   0.197 -0.2571 -0.0976 -0.0425
 1947TIP3    H1 5805   1.870   0.942   0.265 -0.5589 -0.1212 -0.0158
 1947TIP3    H2 5806   1.952   0.886   0.150 -0.9867  1.3106 -1.0501
 1948TIP3   OH2 5807   2.343   1.240   2.219  0.3078 -0.4747 -0.6977
 1948TIP3    H1 5808   2.250   1.240   2.239  0.5280  0.5656  0.4527
 1948TIP3    H2 5809   2.350   1.279   2.132 -0.2386  0.5903 -0.2726
 1949TIP3   OH2 5810   2.091   4.109   3.007  0.4692 -0.5106 -0.5702
 1949TIP3    H1 5811   2.171   4.063   3.031  0.4274 -1.9560 -2.9184
 1949TIP3    H2 5812   2.115   4.163   2.932  0.1389  2.3045  1.1929
 1950TIP3   OH2 5813   3.909   6.617   4.528  0.0464  0.7359  0.4802
 1950TIP3    H1 5814   3.828   6.665   4.547  0.2300  0.6440  1.5710
 1950TIP3    H2 5815   3.968   6.683   4.492 -0.3175  0.9314  0.2408
 1951TIP3   OH2 5816   0.543   2.004   2.744 -0.4878 -0.0047 -0.0317
 1951TIP3    H1 5817   0.622   2.058   2.752 -1.6037  1.5265  1.6365
 1951TIP3    H2 5818   0.554   1.935   2.809 -0.3678 -0.0113 -0.0589
 1952TIP3   OH2 5819   2.272   2.792   5.576  0.1344  0.1435 -0.7100
 1952TIP3    H1 5820   2.347   2.850   5.591  0.7835 -0.7738 -0.3049
 1952TIP3    H2 5821   2.216   2.805   5.653 -1.3212  2.5516 -2.0757
 1953TIP3   OH2 5822   2.746   0.535   4.693  0.0206  0.1807 -0.1470
 1953TIP3    H1 5823   2.770   0.489   4.774 -1.4221 -0.4409 -0.0438
 1953TIP3    H2 5824   2.821   0.520   4.635  0.7960  0.0729  0.8392
 1954TIP3   OH2 5825   2.987   5.637   1.078 -0.1684  0.2286  0.0056
 1954TIP3    H1 5826   2.935   5.679   1.147  1.1655  2.1226 -0.0853
 1954TIP3    H2 5827   2.948   5.550   1.069 -0.6259  0.0398  2.8821
 1955TIP3   OH2 5828   7.149   5.027   3.863  0.3921  0.0409  0.4972
 1955TIP3    H1 5829   7.162   5.114   3.900  0.3347 -0.4673  1.7743
 1955TIP3    H2 5830   7.105   5.042   3.779  0.3987  1.2311  0.6952
 1956TIP3   OH2 5831   1.956   1.230   0.159  0.1904  0.0223  0.1848
 1956TIP3    H1 5832   1.981   1.138   0.164  0.9639  0.2125 -0.0948
 1956TIP3    H2 5833   2.031   1.274   0.118 -0.8650  0.4979 -1.3373
 1957TIP3   OH2 5834   4.996   4.608   5.441 -0.2657 -0.2583  0.1644
 1957TIP3    H1 5835   5.090   4.619   5.426  0.1341 -1.0172  1.8328
 1957TIP3    H2 5836   4.959   4.696   5.433  1.3298  0.9513  3.9380
 1958TIP3   OH2 5837   1.719   2.920   5.092 -0.5703  0.6207 -0.2646
 1958TIP3    H1 5838   1.635   2.917   5.137 -0.2515  0.7078  0.3467
 1958TIP3    H2 5839   1.698   2.952   5.004 -1.1536  0.7862 -0.0705
 1959TIP3   OH2 5840   4.560   2.492   3.015 -0.2772  0.3220 -0.2844
 1959TIP3    H1 5841   4.477   2.529   3.045 -0.8050  0.2600 -1.6313
 1959TIP3    H2 5842   4.536   2.416   2.962  0.7568 -1.4797  1.6545
 1960TIP3   OH2 5843   7.120   2.508   2.386  0.1843 -0.0523  0.0141
 1960TIP3    H1 5844   7.112   2.603   2.395  0.6600 -0.1103  1.1980
 1960TIP3    H2 5845   7.048   2.473   2.440  0.0419 -0.3677 -0.3768
 1961TIP3   OH2 5846   3.284   5.191   5.285 -0.0525 -0.5282 -0.2303
 1961TIP3    H1 5847   3.223   5.250   5.240 -0.1456 -0.0545  0.5058
 1961TIP3    H2 5848   3.369   5.234   5.276  0.2194 -1.2287 -1.3282
 1962TIP3   OH2 5849   5.448   3.029   4.794 -0.9490  0.0832  0.2058
 1962TIP3    H1 5850   5.402   2.945   4.790 -0.8105  0.0508 -1.0840
 1962TIP3    H2 5851   5.379   3.095   4.781 -0.8247  0.0911 -0.4306
 1963TIP3   OH2 5852   2.207   4.958   4.925  0.2841  0.0594 -0.3491
 1963TIP3    H1 5853   2.270   4.893   4.953  0.5087  0.4723  0.1102
 1963TIP3    H2 5854   2.122   4.923   4.952  0.3273 -0.4135 -0.8155
 1964TIP3   OH2 5855   1.443   5.745   4.975  0.4599  0.1626 -0.2059
 1964TIP3    H1 5856   1.355   5.783   4.966 -0.4062 -1.7144 -0.2095
 1964TIP3    H2 5857   1.434   5.681   5.046  2.1051  0.6414  0.4832
 1965TIP3   OH2 5858   2.678   6.558   2.889  0.0269 -0.4127  0.0472
 1965TIP3    H1 5859   2.730   6.489   2.930  1.1053  0.9126  0.9626
 1965TIP3    H2 5860   2.587   6.529   2.900  0.4858 -2.2235 -0.6244
 1966TIP3   OH2 5861   3.047   2.769   3.100  0.3210 -0.1419  0.7740
 1966TIP3    H1 5862   2.989   2.760   3.176  0.8158 -2.1693  0.9771
 1966TIP3    H2 5863   3.025   2.855   3.063 -2.0908 -0.3973  1.4154
 1967TIP3   OH2 5864   1.137   0.983   4.842  0.0067 -0.2408 -0.3615
 1967TIP3    H1 5865   1.101   1.069   4.820  0.6425  0.1200 -0.0348
 1967TIP3    H2 5866   1.225   0.983   4.805  0.4410 -0.2971  0.6234
 1968TIP3   OH2 5867   2.047   1.300   1.270 -0.1475 -0.1482  0.1247
 1968TIP3    H1 5868   2.039   1.366   1.339 -0.0109  0.3062 -0.2905
 1968TIP3    H2 5869   2.121   1.246   1.298 -0.1688 -0.0372  0.3976
 1969TIP3   OH2 5870   0.489   4.283   1.466 -0.1733 -0.2830  0.1616
 1969TIP3    H1 5871   0.474   4.273   1.560 -0.0483 -0.4524  0.1638
 1969TIP3    H2 5872   0.568   4.337   1.460 -1.2708  1.3952  0.1504
 1970TIP3   OH2 5873   1.291   1.130   1.155 -0.0919 -0.2546  0.7677
 1970TIP3    H1 5874   1.288   1.034   1.159 -1.9952 -0.2902 -0.2445
 1970TIP3    H2 5875   1.352   1.148   1.083 -1.2603 -0.8046 -0.4078
 1971TIP3   OH2 5876   3.377   1.649   4.740 -0.0075 -0.0021 -0.0553
 1971TIP3    H1 5877   3.378   1.709   4.666 -0.5256 -0.5260 -0.4970
 1971TIP3    H2 5878   3.401   1.564   4.703 -0.3233 -0.2767  0.3550
 1972TIP3   OH2 5879   5.371   6.159   4.173  0.5349  0.2484  0.5971
 1972TIP3    H1 5880   5.325   6.241   4.154 -2.0276 -1.4044 -1.0021
 1972TIP3    H2 5881   5.443   6.156   4.110 -0.8954  0.1666 -1.0950
 1973TIP3   OH2 5882   5.975   2.818   5.791 -0.0720 -0.8302  0.2990
 1973TIP3    H1 5883   6.051   2.774   5.827 -0.5884  0.0568  2.5862
 1973TIP3    H2 5884   6.008   2.899   5.754  0.3586 -1.4358 -0.6978
 1974TIP3   OH2 5885   7.071   4.047   1.296  0.1872 -0.1335  0.1629
 1974TIP3    H1 5886   7.166   4.058   1.291  0.0239  1.1206 -0.8439
 1974TIP3    H2 5887   7.042   4.120   1.352 -0.2649  0.1630 -0.4422
 1975TIP3   OH2 5888   1.688   4.093   0.933  0.5466  0.5762  0.0824
 1975TIP3    H1 5889   1.735   4.010   0.937 -1.9254 -0.9009 -0.1696
 1975TIP3    H2 5890   1.617   4.085   0.996  1.1413  3.1746  1.2548
 1976TIP3   OH2 5891   0.724   0.905   1.175 -0.4945 -0.1564 -0.3633
 1976TIP3    H1 5892   0.773   0.955   1.240 -1.3749 -0.3390  0.4646
 1976TIP3    H2 5893   0.695   0.971   1.111 -1.2007  0.3444  0.4422
 1977TIP3   OH2 5894   4.451   2.335   2.789 -0.1541  0.6417  0.0783
 1977TIP3    H1 5895   4.356   2.322   2.794 -0.2766 -0.9230 -3.2014
 1977TIP3    H2 5896   4.462   2.398   2.717  1.2911  0.3355 -0.0016
 1978TIP3   OH2 5897   6.390   6.281   0.534  0.5209 -0.5474  0.0362
 1978TIP3    H1 5898   6.398   6.377   0.540  0.8804 -0.5898  0.2910
 1978TIP3    H2 5899   6.305   6.262   0.571 -0.4342 -0.1578 -1.8008
 1979TIP3   OH2 5900   0.564   6.445   2.467 -0.2283 -0.1092  0.1655
 1979TIP3    H1 5901   0.506   6.380   2.428  0.9446 -0.2687 -1.3927
 1979TIP3    H2 5902   0.519   6.528   2.454 -1.4781 -0.4817  1.6822
 1980TIP3   OH2 5903   2.852   2.952   0.248  0.3296  0.4294 -0.3391
 1980TIP3    H1 5904   2.813   2.883   0.301  1.1023  1.6986  2.0741
 1980TIP3    H2 5905   2.872   3.021   0.311  2.4968  1.5536 -2.1183
 1981TIP3   OH2 5906   6.490   6.399   4.791 -0.3897  0.3399 -0.7350
 1981TIP3    H1 5907   6.570   6.397   4.739 -0.6057 -2.0117 -1.0709
 1981TIP3    H2 5908   6.420   6.416   4.727 -0.5596 -1.6833 -1.1407
 1982TIP3   OH2 5909   5.680   1.124   1.503 -0.2414  0.1381 -0.5265
 1982TIP3    H1 5910   5.708   1.132   1.412  0.6770 -2.6248 -0.5821
 1982TIP3    H2 5911   5.585   1.136   1.500 -0.1547  0.7518 -1.7176
 1983TIP3   OH2 5912   3.638   3.142   4.434 -0.1814  0.3081  0.2625
 1983TIP3    H1 5913   3.671   3.072   4.379 -1.1840  0.0844 -0.0828
 1983TIP3    H2 5914   3.662   3.222   4.388  0.1051  0.1575  0.1496
 1984TIP3   OH2 5915   0.999   5.071   1.477 -0.2688 -0.4619  0.7284
 1984TIP3    H1 5916   0.920   5.082   1.424 -0.6529  0.1924  1.4130
 1984TIP3    H2 5917   0.975   5.006   1.542  0.2203 -1.3065  0.0909
 1985TIP3   OH2 5918   6.232   3.552   1.863 -0.2939  0.4698 -0.1898
 1985TIP3    H1 5919   6.169   3.514   1.802  1.4105  0.9641 -2.3960
 1985TIP3    H2 5920   6.251   3.639   1.827 -0.2618  1.3782  1.8832
 1986TIP3   OH2 5921   2.223   0.770   3.226  0.3963  0.1219  0.2922
 1986TIP3    H1 5922   2.312   0.806   3.223  1.1968 -1.6048  1.5490
 1986TIP3    H2 5923   2.231   0.683   3.188 -0.3727 -0.7025  1.9108
 1987TIP3   OH2 5924   5.302   5.251   4.480  0.1005 -0.2322 -0.0542
 1987TIP3    H1 5925   5.240   5.285   4.544 -1.3096 -2.6625 -0.0108
 1987TIP3    H2 5926   5.267   5.277   4.396  0.1791  0.1893  0.0421
 1988TIP3   OH2 5927   6.049   6.702   3.901 -0.2546  0.4082  0.4053
 1988TIP3    H1 5928   6.086   6.787   3.927 -1.1886  0.7704  0.5976
 1988TIP3    H2 5929   6.072   6.693   3.809 -1.7455  1.7819 -0.1609
 1989TIP3   OH2 5930   4.313   2.875   1.867  0.9889  0.3327 -0.3742
 1989TIP3    H1 5931   4.384   2.937   1.850  1.6881 -0.2429  0.3487
 1989TIP3    H2 5932   4.279   2.854   1.780 -1.7164  4.4220 -0.5687
 1990TIP3   OH2 5933   6.475   3.741   4.188  0.3548 -0.1893  0.2403
 1990TIP3    H1 5934   6.547   3.726   4.126  0.2174  1.3961 -0.3588
 1990TIP3    H2 5935   6.447   3.654   4.214  1.5135 -0.8635 -0.6722
 1991TIP3   OH2 5936   1.995   6.023   3.507 -0.3618 -0.1479 -0.0160
 1991TIP3    H1 5937   2.035   5.936   3.511  2.4878  1.0217 -1.0966
 1991TIP3    H2 5938   1.936   6.019   3.432 -1.8777 -1.6940  1.1708
 1992TIP3   OH2 5939   5.769   0.849   0.901 -0.0285  0.4153 -0.2283
 1992TIP3    H1 5940   5.712   0.867   0.975 -0.0491  2.0952 -0.6097
 1992TIP3    H2 5941   5.858   0.860   0.935 -0.0382  1.2032 -0.4380
 1993TIP3   OH2 5942   1.040   4.916   0.739 -0.4073 -0.0724  0.2725
 1993TIP3    H1 5943   1.126   4.945   0.708 -0.0318  0.0655  1.4124
 1993TIP3    H2 5944   1.033   4.825   0.708  1.2753 -0.9782  2.2959
 1994TIP3   OH2 5945   3.161   6.269   1.473 -0.0292 -0.5602 -0.7541
 1994TIP3    H1 5946   3.255   6.272   1.490 -0.0082 -0.9732 -0.7939
 1994TIP3    H2 5947   3.154   6.253   1.379 -0.1429  0.1343 -0.8698
 1995TIP3   OH2 5948   2.465   6.195   2.364  0.0528 -0.5493 -0.1685
 1995TIP3    H1 5949   2.513   6.206   2.447 -0.3305 -0.7552  0.0823
 1995TIP3    H2 5950   2.376   6.172   2.391 -0.6586  1.4827 -0.5730
 1996TIP3   OH2 5951   1.280   3.473   3.480 -0.0463 -0.2349  0.1950
 1996TIP3    H1 5952   1.211   3.416   3.516  0.2476 -0.0768  1.0392
 1996TIP3    H2 5953   1.277   3.551   3.535  0.1346  0.1977 -0.4106
 1997TIP3   OH2 5954   5.158   5.030   4.362 -0.2813 -0.0483 -0.0679
 1997TIP3    H1 5955   5.238   5.072   4.392 -0.4205  0.5960 -0.5650
 1997TIP3    H2 5956   5.109   5.012   4.442 -1.0232  2.3793  0.1312
 1998TIP3   OH2 5957   6.207   3.681   5.518  0.3491  0.0424 -0.0722
 1998TIP3    H1 5958   6.124   3.634   5.526 -0.4311  1.3403 -0.3238
 1998TIP3    H2 5959   6.182   3.771   5.498  1.8142  0.5630  0.3239
 1999TIP3   OH2 5960   3.509   3.106   5.732 -0.5038  0.3099  0.1401
 1999TIP3    H1 5961   3.416   3.108   5.756  0.0314  1.5902  2.4718
 1999TIP3    H2 5962   3.552   3.063   5.806  1.0160  2.1644  0.4199
 2000TIP3   OH2 5963   6.904   5.510   0.655  0.3034  1.1273 -0.4110
 2000TIP3    H1 5964   6.898   5.504   0.560 -0.4500 -0.2632 -0.2953
 2000TIP3    H2 5965   6.853   5.588   0.678 -1.9836 -0.1186 -0.9605
 2001TIP3   OH2 5966   0.097   1.328   4.431  0.1734 -0.5669  0.1699
 2001TIP3    H1 5967   0.019   1.298   4.477  0.2191  0.0630  0.6752
 2001TIP3    H2 5968   0.083   1.421   4.418  0.5428 -0.5781 -0.3406
 2002TIP3   OH2 5969   6.040   0.909   1.042 -0.0257  0.0786 -0.1525
 2002TIP3    H1 5970   5.971   0.969   1.073 -0.2592 -0.3658  0.1970
 2002TIP3    H2 5971   6.121   0.959   1.054 -0.2692  0.5571 -0.4452
 2003TIP3   OH2 5972   4.069   0.089   1.940  0.4491  0.5421 -0.5169
 2003TIP3    H1 5973   4.137   0.138   1.893  2.3084  0.6409  2.1061
 2003TIP3    H2 5974   4.091   0.099   2.032 -2.3531 -0.6546  0.3863
 2004TIP3   OH2 5975   2.202   2.485   0.240  0.2549 -0.0337  0.2174
 2004TIP3    H1 5976   2.281   2.476   0.294  0.5297 -3.3656 -0.5314
 2004TIP3    H2 5977   2.133   2.443   0.292 -0.6026  1.1223  0.0388
 2005TIP3   OH2 5978   5.442   3.183   1.504  0.1316  0.2060  0.1503
 2005TIP3    H1 5979   5.361   3.225   1.534 -0.5176  0.8477 -2.2689
 2005TIP3    H2 5980   5.495   3.174   1.583 -1.7790  0.9352  1.5972
 2006TIP3   OH2 5981   2.545   3.098   0.445  0.3069  0.6453 -0.0381
 2006TIP3    H1 5982   2.619   3.154   0.420 -0.0222  1.3544  0.5273
 2006TIP3    H2 5983   2.487   3.156   0.494  1.0567 -0.7016  2.6505
 2007TIP3   OH2 5984   5.340   6.726   4.552 -0.3941 -0.4115  0.8016
 2007TIP3    H1 5985   5.260   6.728   4.500 -0.7517  1.7342  1.3180
 2007TIP3    H2 5986   5.319   6.668   4.625 -1.4133 -0.0673  0.8054
 2008TIP3   OH2 5987   5.210   3.189   1.631  0.5997  0.2764  0.7048
 2008TIP3    H1 5988   5.200   3.244   1.709  0.2505  2.3343 -0.7123
 2008TIP3    H2 5989   5.121   3.175   1.599  0.7163 -0.7986  0.8055
 2009TIP3   OH2 5990   4.106   6.050   0.589 -0.2177 -0.3290 -0.3732
 2009TIP3    H1 5991   4.148   6.011   0.665  0.0252 -2.1560 -1.3798
 2009TIP3    H2 5992   4.041   6.111   0.625  0.9492  0.0166  1.2355
 2010TIP3   OH2 5993   3.615   3.968   3.662  0.3387 -0.4758 -1.5068
 2010TIP3    H1 5994   3.593   3.906   3.732 -2.2724  0.8367 -1.0298
 2010TIP3    H2 5995   3.684   4.022   3.699 -1.4145  0.6041  0.4478
 2011TIP3   OH2 5996   1.847   2.740   3.767  0.1970  1.1453 -0.1028
 2011TIP3    H1 5997   1.889   2.769   3.848  1.2018 -0.0560 -0.1643
 2011TIP3    H2 5998   1.801   2.660   3.790  2.1024 -0.3105 -1.0785
 2012TIP3   OH2 5999   4.942   6.319   0.111 -0.2643 -0.2535 -0.4400
 2012TIP3    H1 6000   4.996   6.375   0.055 -0.6837  2.7368  1.8512
 2012TIP3    H2 6001   4.852   6.339   0.084 -0.4496  0.8887  0.8914
 2013TIP3   OH2 6002   0.128   6.134   5.223  0.4847 -0.2373 -0.6596
 2013TIP3    H1 6003   0.119   6.205   5.159 -0.6747  1.3758  1.2025
 2013TIP3    H2 6004   0.221   6.112   5.220  2.0808  4.6491  1.9069
 2014TIP3   OH2 6005   0.007   0.641   0.695 -0.0583  0.4515  0.1079
 2014TIP3    H1 6006  -0.047   0.691   0.635 -1.1160 -0.5054  0.2164
 2014TIP3    H2 6007   0.073   0.702   0.726 -2.2415  2.2856  1.4816
 2015TIP3   OH2 6008   3.433   0.291   4.474  0.2024 -0.1333  0.4385
 2015TIP3    H1 6009   3.443   0.196   4.472 -0.2896 -0.1873  0.4520
 2015TIP3    H2 6010   3.522   0.325   4.467  0.4815 -0.6079  1.5008
 2016TIP3   OH2 6011   1.741   5.226   2.447 -0.0179  0.0444 -0.1180
 2016TIP3    H1 6012   1.674   5.231   2.379 -0.5451 -0.9038  0.3081
 2016TIP3    H2 6013   1.751   5.316   2.477 -1.5060  0.1341  0.1857
 2017TIP3   OH2 6014   6.956   3.363   1.366 -0.3882 -0.0913 -0.2181
 2017TIP3    H1 6015   6.887   3.425   1.390 -0.8063 -0.8830  0.6781
 2017TIP3    H2 6016   7.006   3.409   1.298 -1.0021  1.0170  0.0444
 2018TIP3   OH2 6017   1.952   3.036   3.058 -0.5462 -0.1022  0.0953
 2018TIP3    H1 6018   1.984   3.082   3.136 -1.0462  0.6033 -0.0993
 2018TIP3    H2 6019   1.960   2.943   3.079  0.1960  0.0771  0.6252
 2019TIP3   OH2 6020   0.641   1.449   1.234 -0.5449 -0.5319  0.2128
 2019TIP3    H1 6021   0.548   1.468   1.219 -0.5039  1.9549  2.3590
 2019TIP3    H2 6022   0.681   1.535   1.249  1.4050 -1.7258  2.7526
 2020TIP3   OH2 6023   6.563   2.180   4.477  0.5080 -0.1558 -0.2723
 2020TIP3    H1 6024   6.648   2.210   4.509  0.2261  1.3968 -0.8828
 2020TIP3    H2 6025   6.584   2.129   4.399  0.9833 -1.4058  0.6434
 2021TIP3   OH2 6026   2.338   0.940   3.789  0.1992 -0.3330  0.2350
 2021TIP3    H1 6027   2.262   0.882   3.787  1.6032 -2.5833  3.1930
 2021TIP3    H2 6028   2.311   1.013   3.844 -0.0986 -0.6842  0.5584
 2022TIP3   OH2 6029   0.269   1.758   4.059 -0.0340  0.4100  0.1190
 2022TIP3    H1 6030   0.293   1.681   4.006 -2.5587 -2.0313  2.1955
 2022TIP3    H2 6031   0.216   1.812   4.000  1.7433  0.6651 -1.3670
 2023TIP3   OH2 6032   1.417   4.840   2.213  0.5547  0.2403  0.0617
 2023TIP3    H1 6033   1.423   4.872   2.303 -0.1739 -0.5731  0.4124
 2023TIP3    H2 6034   1.368   4.908   2.167  3.1175  1.9209 -0.3780
 2024TIP3   OH2 6035   3.790   2.420   1.938  0.2082 -0.1957 -0.9345
 2024TIP3    H1 6036   3.756   2.494   1.889 -0.6927  0.0946  0.0952
 2024TIP3    H2 6037   3.867   2.455   1.983 -0.2655  0.1442 -0.3820
 2025TIP3   OH2 6038   2.677   4.963   5.317  0.1257  0.5271  0.5719
 2025TIP3    H1 6039   2.701   4.879   5.277 -0.6963  0.1222  0.9100
 2025TIP3    H2 6040   2.720   4.962   5.402  0.0512  0.4091  0.6092
 2026TIP3   OH2 6041   1.362   0.943   4.667  0.0639  0.5537  0.6092
 2026TIP3    H1 6042   1.446   0.985   4.647  0.6712 -0.4651  0.9224
 2026TIP3    H2 6043   1.321   0.930   4.582  0.4855  0.5473  0.4035
 2027TIP3   OH2 6044   5.104   4.204   5.445  0.2170 -0.1216 -0.3361
 2027TIP3    H1 6045   5.101   4.140   5.373  0.0633 -1.0855  0.5012
 2027TIP3    H2 6046   5.185   4.252   5.430 -0.0098 -0.0378 -1.3749
 2028TIP3   OH2 6047   4.219   0.573   0.475  0.2489 -0.0544 -0.0355
 2028TIP3    H1 6048   4.213   0.665   0.501 -0.2862 -0.3640  0.9939
 2028TIP3    H2 6049   4.144   0.531   0.518  0.2493 -0.8970 -0.8244
 2029TIP3   OH2 6050   2.246   4.564   4.112  0.2689 -0.5997 -0.5061
 2029TIP3    H1 6051   2.266   4.525   4.027  0.5430 -0.2179 -0.6219
 2029TIP3    H2 6052   2.256   4.658   4.098 -1.2348 -0.4119 -0.4527
 2030TIP3   OH2 6053   1.708   0.888   3.152 -0.2071  0.5014  0.0094
 2030TIP3    H1 6054   1.717   0.983   3.143 -2.9017  0.8162 -0.1601
 2030TIP3    H2 6055   1.667   0.860   3.070  1.0570 -0.9449 -0.1765
 2031TIP3   OH2 6056   1.082   3.687   2.918 -0.1338  0.7499 -0.1867
 2031TIP3    H1 6057   1.005   3.637   2.890  0.7309  0.2167 -1.7969
 2031TIP3    H2 6058   1.058   3.778   2.902 -0.4503  0.5920 -0.6399
 2032TIP3   OH2 6059   3.145   2.111   4.775 -0.1148  0.2387  0.0009
 2032TIP3    H1 6060   3.213   2.105   4.842 -0.5529  2.1704  0.6743
 2032TIP3    H2 6061   3.152   2.028   4.727  1.4948 -0.3744  1.1871
 2033TIP3   OH2 6062   5.464   5.777   0.801  0.7010 -0.3507 -0.0750
 2033TIP3    H1 6063   5.424   5.820   0.877  2.2100  0.3425  0.3721
 2033TIP3    H2 6064   5.391   5.759   0.742 -0.3433  0.2264  1.0051
 2034TIP3   OH2 6065   6.602   4.884   4.873 -0.1762  0.2384 -0.5433
 2034TIP3    H1 6066   6.551   4.953   4.916  0.4243  2.2745 -2.8756
 2034TIP3    H2 6067   6.600   4.908   4.780  1.0210 -2.3031 -1.2994
 2035TIP3   OH2 6068   6.371   5.341   1.045  0.0403 -0.3469  0.6298
 2035TIP3    H1 6069   6.358   5.383   0.959  0.1617 -1.7728 -0.1150
 2035TIP3    H2 6070   6.287   5.354   1.090 -0.7249 -1.2573 -0.4751
 2036TIP3   OH2 6071   3.030   0.481   3.021  0.7592  0.4226  0.4037
 2036TIP3    H1 6072   3.011   0.480   2.927  1.5427 -0.6768  0.2415
 2036TIP3    H2 6073   3.029   0.574   3.045 -1.0255  0.6297 -0.3423
 2037TIP3   OH2 6074   6.147   4.282   2.950 -0.1839 -0.6757  0.2477
 2037TIP3    H1 6075   6.211   4.288   2.878 -0.0575 -1.5634  0.2749
 2037TIP3    H2 6076   6.078   4.225   2.916 -0.7972 -0.0009  0.3474
 2038TIP3   OH2 6077   0.549   3.457   0.690 -0.2931 -0.0654  0.6909
 2038TIP3    H1 6078   0.628   3.408   0.668 -0.9212 -0.5977 -0.4941
 2038TIP3    H2 6079   0.579   3.546   0.708  0.6728 -0.4785  1.1469
 2039TIP3   OH2 6080   5.936   0.673   3.999  0.0713  0.3197 -0.0162
 2039TIP3    H1 6081   5.912   0.583   3.979  1.4091  0.0094 -0.2665
 2039TIP3    H2 6082   5.913   0.723   3.920 -1.9486  0.4815  0.6042
 2040TIP3   OH2 6083   6.206   0.313   2.375  0.6129 -0.1797 -0.0399
 2040TIP3    H1 6084   6.257   0.394   2.381 -0.2547  0.2909  1.2825
 2040TIP3    H2 6085   6.115   0.341   2.371  0.2139 -1.0983  1.6632
 2041TIP3   OH2 6086   7.193   1.024   5.754 -0.5256  0.4749  0.1261
 2041TIP3    H1 6087   7.165   1.040   5.664 -1.8060  0.1139  0.4445
 2041TIP3    H2 6088   7.265   0.961   5.746 -0.0597  1.0780 -0.6829
 2042TIP3   OH2 6089   1.368   3.353   5.556 -0.1879  0.5148 -0.4406
 2042TIP3    H1 6090   1.420   3.420   5.600  0.6114  1.1773 -2.3355
 2042TIP3    H2 6091   1.287   3.397   5.532 -0.2740  0.3837 -0.3917
 2043TIP3   OH2 6092   5.456   4.804   1.376 -0.4203  0.2743 -0.7545
 2043TIP3    H1 6093   5.451   4.899   1.389  2.3420  0.1608  3.1241
 2043TIP3    H2 6094   5.384   4.769   1.428  0.6084  0.2756  0.7556
 2044TIP3   OH2 6095   3.087   2.146   1.739 -0.3793 -0.5226  0.0322
 2044TIP3    H1 6096   3.147   2.216   1.716 -0.2516 -0.6704 -0.0940
 2044TIP3    H2 6097   3.117   2.071   1.687 -0.6135 -0.6236  0.0395
 2045TIP3   OH2 6098   4.499   2.667   0.579  0.0184  0.2899  0.0758
 2045TIP3    H1 6099   4.431   2.621   0.627  1.3989 -0.7839  1.0794
 2045TIP3    H2 6100   4.497   2.756   0.614 -0.4183  0.0819  0.5883
 2046TIP3   OH2 6101   4.278   6.464   3.968 -0.0235  0.2765 -0.2435
 2046TIP3    H1 6102   4.351   6.429   3.919  0.5517  0.7941  0.2253
 2046TIP3    H2 6103   4.253   6.543   3.921  0.9674  1.1463  0.6424
 2047TIP3   OH2 6104   3.607   6.548   5.243 -0.0270  0.0768 -0.4535
 2047TIP3    H1 6105   3.602   6.452   5.243  0.3878  0.0506  0.1299
 2047TIP3    H2 6106   3.700   6.567   5.239  0.1509  0.4057  2.8149
 2048TIP3   OH2 6107   5.239   6.579   2.194  0.1869  0.3746 -0.1331
 2048TIP3    H1 6108   5.235   6.634   2.272 -1.8808  0.4221 -0.2134
 2048TIP3    H2 6109   5.182   6.505   2.213  0.3037 -0.0344 -1.2761
 2049TIP3   OH2 6110   3.288   2.662   1.738 -0.0309  0.2549  0.1670
 2049TIP3    H1 6111   3.235   2.706   1.805  1.3697  2.2623  0.0400
 2049TIP3    H2 6112   3.350   2.608   1.788 -0.6308 -0.2525  0.3806
 2050TIP3   OH2 6113   4.438   1.512   2.268 -0.4062  0.2414  0.3705
 2050TIP3    H1 6114   4.428   1.603   2.239  1.3823  0.5245  0.5106
 2050TIP3    H2 6115   4.499   1.473   2.205  2.2615  0.4099  2.6288
 2051TIP3   OH2 6116   0.368   2.366   3.472  0.2188 -0.3755  0.3549
 2051TIP3    H1 6117   0.333   2.301   3.533  0.3961 -0.1924  0.6545
 2051TIP3    H2 6118   0.294   2.388   3.415  0.1227 -0.7437  0.3319
 2052TIP3   OH2 6119   1.263   5.954   3.935  0.5391  0.1830 -0.3092
 2052TIP3    H1 6120   1.282   5.886   3.870 -1.1790  0.4775 -1.1907
 2052TIP3    H2 6121   1.283   5.914   4.019  2.4478 -0.3520 -0.9713
 2053TIP3   OH2 6122   2.787   3.388   0.991  0.3116  0.5160 -0.1890
 2053TIP3    H1 6123   2.856   3.321   0.981  0.4527  0.5717  0.3653
 2053TIP3    H2 6124   2.832   3.471   0.978  0.4929  0.5891  0.7697
 2054TIP3   OH2 6125   4.143   1.454   1.457  0.2493  0.1015  0.1254
 2054TIP3    H1 6126   4.084   1.399   1.404 -0.2666  0.4016  0.3851
 2054TIP3    H2 6127   4.085   1.498   1.519  0.1755  3.2552 -1.9520
 2055TIP3   OH2 6128   1.434   4.306   2.194  0.0966 -0.1074 -0.8955
 2055TIP3    H1 6129   1.500   4.240   2.212  0.5240  0.2388 -1.1564
 2055TIP3    H2 6130   1.477   4.368   2.134 -0.2023  0.5422 -0.4575
 2056TIP3   OH2 6131   0.519   6.217   1.320 -0.0435 -0.0669 -0.7414
 2056TIP3    H1 6132   0.589   6.152   1.328  0.5514  0.6061 -0.3831
 2056TIP3    H2 6133   0.505   6.227   1.226 -2.0509 -2.7108 -0.8557
 2057TIP3   OH2 6134   4.269   5.232   4.072 -0.3441  0.0526 -0.1890
 2057TIP3    H1 6135   4.316   5.312   4.096  0.6495 -0.1063 -1.5172
 2057TIP3    H2 6136   4.259   5.184   4.154 -0.1488  1.1081  0.4674
 2058TIP3   OH2 6137   6.486   0.471   0.799 -0.1206  0.5444  1.1411
 2058TIP3    H1 6138   6.552   0.491   0.865  2.1642 -1.3415 -0.3998
 2058TIP3    H2 6139   6.454   0.384   0.822  0.6654 -0.1131 -0.1333
 2059TIP3   OH2 6140   0.337   6.571   2.343 -0.3548  0.4810 -0.0586
 2059TIP3    H1 6141   0.256   6.522   2.328 -0.9250  0.9274  1.3784
 2059TIP3    H2 6142   0.353   6.617   2.261 -1.0100 -0.3872 -0.6914
 2060TIP3   OH2 6143   5.469   4.151   4.769 -0.7617 -0.1452 -0.1969
 2060TIP3    H1 6144   5.457   4.216   4.839 -0.8653  0.5583 -0.8546
 2060TIP3    H2 6145   5.503   4.074   4.814  0.8998  0.8708  0.4122
 2061TIP3   OH2 6146   4.341   2.702   4.253  0.0664 -0.4257  0.4260
 2061TIP3    H1 6147   4.250   2.706   4.283 -0.1039  1.0126 -0.2273
 2061TIP3    H2 6148   4.335   2.709   4.158  0.9011  0.3470  0.4216
 2062TIP3   OH2 6149   5.231   2.246   0.737  0.1299  0.3544  0.0287
 2062TIP3    H1 6150   5.259   2.208   0.654 -1.3190 -1.5289  0.3488
 2062TIP3    H2 6151   5.140   2.271   0.723  0.3058  1.4010  0.6254
 2063TIP3   OH2 6152   0.233   5.373   0.492  0.0965  0.2037  0.3392
 2063TIP3    H1 6153   0.258   5.316   0.420 -0.0245  1.1713 -0.4923
 2063TIP3    H2 6154   0.191   5.315   0.555 -0.2529 -0.5858 -0.5981
 2064TIP3   OH2 6155   5.546   2.380   1.811  0.2897  0.2096  0.0997
 2064TIP3    H1 6156   5.631   2.361   1.851 -0.7070 -2.0871  1.3331
 2064TIP3    H2 6157   5.558   2.356   1.719  0.9964 -0.1004  0.2611
 2065TIP3   OH2 6158   7.073   5.454   1.360  0.3395  0.5310 -0.4622
 2065TIP3    H1 6159   7.064   5.389   1.290 -0.5989 -0.5676  0.6238
 2065TIP3    H2 6160   7.158   5.495   1.344  0.2608  0.1384 -2.0844
 2066TIP3   OH2 6161   1.479   4.150   4.617  0.2764  0.1454  0.0814
 2066TIP3    H1 6162   1.531   4.120   4.542  0.1648 -0.2771  0.1723
 2066TIP3    H2 6163   1.480   4.245   4.609 -1.4242  0.0814 -1.6449
 2067TIP3   OH2 6164   1.525   1.889   5.086 -0.3486  0.0391  0.9086
 2067TIP3    H1 6165   1.500   1.896   4.994  0.1724 -2.8119  0.4611
 2067TIP3    H2 6166   1.444   1.907   5.134 -1.1287 -0.4806 -0.1869
 2068TIP3   OH2 6167   3.551   3.275   4.813  0.3481  0.0336  0.5552
 2068TIP3    H1 6168   3.533   3.305   4.902 -0.7044  0.4078  0.2396
 2068TIP3    H2 6169   3.610   3.341   4.777 -1.7100  1.6750 -0.0348
 2069TIP3   OH2 6170   3.309   5.723   1.369 -0.1387  0.3647 -0.7329
 2069TIP3    H1 6171   3.388   5.771   1.342  0.5077  0.4328  1.1270
 2069TIP3    H2 6172   3.342   5.648   1.418 -1.2193 -0.1021 -0.6940
 2070TIP3   OH2 6173   6.659   3.697   4.495  0.0679  0.2200  0.1337
 2070TIP3    H1 6174   6.601   3.680   4.569 -0.5335 -1.6890 -0.7264
 2070TIP3    H2 6175   6.743   3.661   4.522  0.3217  1.0881  0.5434
 2071TIP3   OH2 6176   6.922   1.696   5.609 -0.2316 -0.1534 -0.1816
 2071TIP3    H1 6177   6.945   1.636   5.538 -1.9040 -2.0915  0.8169
 2071TIP3    H2 6178   6.827   1.688   5.617 -0.9006  4.2265 -1.3055
 2072TIP3   OH2 6179   6.612   6.050   3.491 -0.3246  0.4347 -0.3619
 2072TIP3    H1 6180   6.627   6.144   3.488 -1.0126  0.5276 -1.1743
 2072TIP3    H2 6181   6.682   6.013   3.438 -0.6156  0.5691 -0.8471
 2073TIP3   OH2 6182   5.036   4.777   2.846 -1.0357  0.0142  0.4357
 2073TIP3    H1 6183   4.964   4.823   2.802  0.0303  0.3565 -0.9998
 2073TIP3    H2 6184   4.992   4.708   2.896 -2.2136 -1.9689 -3.0208
 2074TIP3   OH2 6185   6.310   2.355   2.067 -0.1909  0.0589 -0.1704
 2074TIP3    H1 6186   6.272   2.440   2.091 -2.0453 -0.1741 -2.0080
 2074TIP3    H2 6187   6.263   2.292   2.122 -2.5521 -0.2111 -2.3222
 2075TIP3   OH2 6188   6.020   2.487   4.633  0.1722  0.0074 -0.1344
 2075TIP3    H1 6189   5.942   2.441   4.604 -0.1137  0.3185  0.1311
 2075TIP3    H2 6190   6.074   2.419   4.674  0.4868 -0.3926 -1.1779
 2076TIP3   OH2 6191   0.713   1.519   1.682 -0.3793  0.1154  0.4898
 2076TIP3    H1 6192   0.717   1.606   1.641 -0.0893  0.4855  1.2730
 2076TIP3    H2 6193   0.793   1.514   1.734 -0.4569 -0.5773  0.5442
 2077TIP3   OH2 6194   6.771   4.252   1.927  0.2778  0.6663 -0.2234
 2077TIP3    H1 6195   6.694   4.197   1.943  0.2710  1.3216  2.5511
 2077TIP3    H2 6196   6.846   4.194   1.942  0.3128  0.5352 -0.8894
 2078TIP3   OH2 6197   5.612   2.094   0.265 -0.3006  0.5885 -0.1073
 2078TIP3    H1 6198   5.663   2.016   0.285  0.2388  0.6296 -1.2567
 2078TIP3    H2 6199   5.663   2.167   0.300 -1.6134  0.3516  2.5009
 2079TIP3   OH2 6200   4.870   0.347   5.009  0.6129 -0.5553 -0.4902
 2079TIP3    H1 6201   4.862   0.296   5.089  0.9934 -0.8853 -0.6604
 2079TIP3    H2 6202   4.782   0.346   4.971 -0.2615  1.8208  1.2359
 2080TIP3   OH2 6203   0.870   2.833   5.127  0.4792 -0.0778  0.0738
 2080TIP3    H1 6204   0.850   2.759   5.184  0.0505 -0.9307 -1.1307
 2080TIP3    H2 6205   0.849   2.910   5.179  1.6321 -0.7564  1.6298
 2081TIP3   OH2 6206   2.075   5.152   1.885  0.1087 -0.1422  0.3383
 2081TIP3    H1 6207   2.108   5.240   1.900  0.0020  0.1100 -0.7982
 2081TIP3    H2 6208   1.982   5.158   1.905 -0.5815  0.8484 -2.6548
 2082TIP3   OH2 6209   5.078   1.698   3.342 -0.5152 -0.0730  0.1203
 2082TIP3    H1 6210   4.985   1.702   3.320 -0.5464  0.5650  0.3344
 2082TIP3    H2 6211   5.088   1.615   3.390 -0.8392 -0.4599 -0.4713
 2083TIP3   OH2 6212   3.087   3.086   5.404  0.1967  0.0739 -0.5018
 2083TIP3    H1 6213   3.110   3.022   5.336  0.3131  0.3861 -0.7578
 2083TIP3    H2 6214   3.132   3.166   5.378  0.7925  0.0188  0.3053
 2084TIP3   OH2 6215   5.206   1.236   0.897 -0.3117 -0.2689 -0.6478
 2084TIP3    H1 6216   5.267   1.218   0.825  0.6283 -0.3314  0.1521
 2084TIP3    H2 6217   5.186   1.149   0.933  0.2178 -0.1349 -0.0284
 2085TIP3   OH2 6218   3.738   5.145   5.067 -0.1529 -0.2805  0.1323
 2085TIP3    H1 6219   3.670   5.167   5.130 -0.6660 -1.1941 -0.0821
 2085TIP3    H2 6220   3.755   5.226   5.020  0.0470  0.3502  1.2511
 2086TIP3   OH2 6221   2.841   4.546   0.716 -0.0003 -0.3519 -1.1267
 2086TIP3    H1 6222   2.819   4.634   0.685 -1.7280 -0.1548  0.4667
 2086TIP3    H2 6223   2.784   4.487   0.666 -1.6926 -0.1606  0.4466
 2087TIP3   OH2 6224   5.332   2.707   5.199  0.2245  0.5690 -0.1140
 2087TIP3    H1 6225   5.299   2.618   5.189  0.4201  0.4767  0.0624
 2087TIP3    H2 6226   5.256   2.758   5.225 -0.1271  0.6597 -1.2751
 2088TIP3   OH2 6227   5.993   0.714   0.550  0.8550 -0.4856  0.1881
 2088TIP3    H1 6228   6.007   0.797   0.506  2.1643  0.0522  1.5481
 2088TIP3    H2 6229   5.974   0.737   0.641  0.6302 -1.6414  0.4581
 2089TIP3   OH2 6230   2.188   0.135   3.904  0.0032 -0.2921  0.4379
 2089TIP3    H1 6231   2.098   0.166   3.903 -0.0008 -0.3267 -0.6753
 2089TIP3    H2 6232   2.192   0.078   3.981 -0.4627  0.9948  1.4584
 2090TIP3   OH2 6233   2.926   1.655   4.120  0.2331  0.0003 -0.2548
 2090TIP3    H1 6234   3.003   1.676   4.066 -0.4560 -0.7433 -1.5955
 2090TIP3    H2 6235   2.916   1.560   4.110  0.1883 -0.1823  1.3748
 2091TIP3   OH2 6236   2.513   5.047   1.497 -0.0257 -0.6493 -0.0348
 2091TIP3    H1 6237   2.569   5.034   1.574  0.9828 -1.9609 -0.9445
 2091TIP3    H2 6238   2.425   5.060   1.533  0.5864 -0.2294  1.3666
 2092TIP3   OH2 6239   6.718   6.108   5.684  0.1076  0.4007 -0.5512
 2092TIP3    H1 6240   6.754   6.070   5.763 -0.3669 -0.0691 -0.5553
 2092TIP3    H2 6241   6.721   6.038   5.619 -3.5185 -0.7159  0.2390
 2093TIP3   OH2 6242   4.039   4.075   0.358 -0.1523 -0.5553  0.6410
 2093TIP3    H1 6243   3.977   4.067   0.285  0.2634  2.6256 -0.1916
 2093TIP3    H2 6244   4.113   4.021   0.331  0.8148  1.9866 -2.3693
 2094TIP3   OH2 6245   0.948   2.158   3.360  0.9240  0.5095  0.0161
 2094TIP3    H1 6246   0.911   2.196   3.440 -0.5545  2.1688 -1.3687
 2094TIP3    H2 6247   0.925   2.066   3.365 -1.2565  1.0051  0.4393
 2095TIP3   OH2 6248   5.870   3.118   0.108  0.0741  0.0228 -0.5338
 2095TIP3    H1 6249   5.779   3.147   0.109 -0.1553 -0.6725 -0.3206
 2095TIP3    H2 6250   5.905   3.151   0.026 -0.3095  0.4816 -0.5152
 2096TIP3   OH2 6251   1.851   2.752   3.128 -0.4606  0.6560 -0.0797
 2096TIP3    H1 6252   1.895   2.673   3.158 -1.2511 -0.3863 -1.5050
 2096TIP3    H2 6253   1.797   2.779   3.202  0.4183  0.3357  0.6988
 2097TIP3   OH2 6254   4.887   3.412   0.569  0.1868 -0.0354  0.5124
 2097TIP3    H1 6255   4.846   3.405   0.655 -0.8054 -2.3834 -0.0675
 2097TIP3    H2 6256   4.849   3.491   0.530 -1.4175 -0.4175  1.2187
 2098TIP3   OH2 6257   3.838   0.230   1.585  0.3546  0.1972  0.0302
 2098TIP3    H1 6258   3.891   0.243   1.506  0.5070 -0.0366  0.0941
 2098TIP3    H2 6259   3.878   0.156   1.629 -1.2522 -1.3813 -0.9841
 2099TIP3   OH2 6260   0.703   2.096   4.416  0.5066 -0.1388 -0.0195
 2099TIP3    H1 6261   0.715   2.022   4.476 -1.4572  0.2177  0.8779
 2099TIP3    H2 6262   0.790   2.112   4.380  1.4235 -1.4118  1.5140
 2100TIP3   OH2 6263   2.004   5.272   1.437 -0.2223 -0.2312 -0.0556
 2100TIP3    H1 6264   1.989   5.200   1.375  0.9903  0.8025 -1.6632
 2100TIP3    H2 6265   1.960   5.347   1.397  1.3033  0.6610 -0.1414
 2101TIP3   OH2 6266   1.377   0.530   4.168 -0.2220 -0.2566  0.4301
 2101TIP3    H1 6267   1.385   0.613   4.215  0.1241  0.2032 -0.4195
 2101TIP3    H2 6268   1.335   0.471   4.230 -2.0013  1.0118  0.5143
 2102TIP3   OH2 6269   1.102   2.556   5.311 -0.1357  0.3217 -0.2551
 2102TIP3    H1 6270   1.016   2.520   5.331 -0.5113  1.3759  0.1023
 2102TIP3    H2 6271   1.119   2.618   5.382  0.2857  1.1625 -1.0736
 2103TIP3   OH2 6272   4.779   5.733   4.178 -0.1402 -0.1052 -0.1424
 2103TIP3    H1 6273   4.717   5.799   4.210  1.4002  1.2150  0.3020
 2103TIP3    H2 6274   4.732   5.688   4.109 -1.1473  1.7503 -0.7497
 2104TIP3   OH2 6275   5.758   0.241   5.155 -0.1372  0.0307 -0.1066
 2104TIP3    H1 6276   5.812   0.183   5.208 -1.3092  0.6115  1.8375
 2104TIP3    H2 6277   5.812   0.262   5.080  1.5386 -0.9971  0.7458
 2105TIP3   OH2 6278   3.492   2.706   5.717 -0.1486 -0.2992  0.3876
 2105TIP3    H1 6279   3.517   2.615   5.696  1.0798  0.4699 -1.8307
 2105TIP3    H2 6280   3.574   2.755   5.711 -1.1077  1.2671 -0.4380
 2106TIP3   OH2 6281   2.512   4.390   4.235 -0.1751  0.2645  0.6752
 2106TIP3    H1 6282   2.468   4.314   4.272  1.1033 -1.1951 -0.6681
 2106TIP3    H2 6283   2.445   4.459   4.236 -1.2427 -0.7200  2.3027
 2107TIP3   OH2 6284   1.835   0.107   1.908  0.0263 -0.0925 -0.0612
 2107TIP3    H1 6285   1.750   0.143   1.883  0.7977  0.4629 -2.0622
 2107TIP3    H2 6286   1.845   0.029   1.853 -0.1550 -1.5330  1.8288
 2108TIP3   OH2 6287   3.879   1.810   4.904 -0.3724  0.7343  0.1373
 2108TIP3    H1 6288   3.947   1.769   4.850  0.0916 -0.2048  1.3930
 2108TIP3    H2 6289   3.799   1.762   4.880 -0.0056 -0.3084  0.8979
 2109TIP3   OH2 6290   6.002   2.506   0.147  0.1179  0.8482 -0.9470
 2109TIP3    H1 6291   5.945   2.563   0.199 -0.5843  0.2129 -1.0110
 2109TIP3    H2 6292   6.013   2.427   0.199 -1.4015 -0.2168 -2.1250
 2110TIP3   OH2 6293   3.171   1.585   5.703 -0.1542 -0.3189 -0.3217
 2110TIP3    H1 6294   3.234   1.560   5.771 -0.4745 -1.5551 -0.4579
 2110TIP3    H2 6295   3.102   1.519   5.708  0.0082 -0.6759 -2.0998
 2111TIP3   OH2 6296   3.548   5.753   3.045  0.4021  0.0593 -0.2545
 2111TIP3    H1 6297   3.495   5.722   3.118 -1.2536  1.2471 -0.8865
 2111TIP3    H2 6298   3.596   5.828   3.081 -0.2107  0.4812 -0.2997
 2112TIP3   OH2 6299   4.139   2.750   1.686  0.2787 -0.0166  0.2595
 2112TIP3    H1 6300   4.098   2.663   1.684  1.6018 -0.6631 -0.3517
 2112TIP3    H2 6301   4.068   2.811   1.667 -0.2892 -1.1366 -1.4404
 2113TIP3   OH2 6302   3.595   0.055   3.309  0.4327  0.2680  0.2860
 2113TIP3    H1 6303   3.516   0.108   3.303 -0.5819 -1.0570  1.2477
 2113TIP3    H2 6304   3.612   0.047   3.402  1.5213  0.2650  0.0976
 2114TIP3   OH2 6305   0.084   5.079   2.230  0.2084  0.1897 -0.2495
 2114TIP3    H1 6306   0.075   5.110   2.140  0.6005  0.4985 -0.1831
 2114TIP3    H2 6307  -0.006   5.074   2.263  0.1747  2.1552  0.0504
 2115TIP3   OH2 6308   6.606   4.914   2.655 -0.2717  0.1828  0.1511
 2115TIP3    H1 6309   6.526   4.890   2.702 -0.7932  1.6012  0.0469
 2115TIP3    H2 6310   6.652   4.973   2.715  1.2830 -1.4502  0.6642
 2116TIP3   OH2 6311   2.089   4.036   2.024  0.3256  0.1238  0.3123
 2116TIP3    H1 6312   2.093   3.949   1.985  2.2418 -0.0739  0.8380
 2116TIP3    H2 6313   2.130   4.094   1.960  0.6999  0.3217  0.7247
 2117TIP3   OH2 6314   5.456   1.781   0.904  0.6361 -0.7039  0.1030
 2117TIP3    H1 6315   5.506   1.857   0.933  0.6106 -1.3230  1.9297
 2117TIP3    H2 6316   5.424   1.805   0.817  1.5729  0.9003  0.1571
 2118TIP3   OH2 6317   1.453   3.924   4.792  0.0533  0.2189 -0.4694
 2118TIP3    H1 6318   1.509   3.853   4.761 -1.5751 -1.6506  0.6362
 2118TIP3    H2 6319   1.447   3.985   4.718  1.4751 -0.7860 -1.4600
 2119TIP3   OH2 6320   0.096   0.422   1.343  0.2046 -0.0551 -0.5537
 2119TIP3    H1 6321   0.180   0.377   1.337  0.4859  0.5587 -1.4782
 2119TIP3    H2 6322   0.052   0.403   1.260  0.0654  0.8372 -0.6973
 2120TIP3   OH2 6323   6.435   4.145   3.496 -0.2933 -0.0914  0.0044
 2120TIP3    H1 6324   6.360   4.196   3.527 -0.5065 -0.1187 -0.4655
 2120TIP3    H2 6325   6.474   4.199   3.427 -0.5795 -0.6003 -0.5671
 2121TIP3   OH2 6326   6.263   3.959   5.815  0.2545  0.0281 -0.0299
 2121TIP3    H1 6327   6.243   3.865   5.813 -0.1864  0.0119  2.2039
 2121TIP3    H2 6328   6.178   4.002   5.815  0.4553  0.5091 -1.6034
 2122TIP3   OH2 6329   6.288   0.244   4.633  0.0552 -0.0572  0.0667
 2122TIP3    H1 6330   6.215   0.208   4.582 -0.6714  1.2951  0.1144
 2122TIP3    H2 6331   6.293   0.187   4.710 -0.9445 -0.1833  0.0591
 2123TIP3   OH2 6332   4.953   0.207   2.751 -0.5032 -0.1910  0.0542
 2123TIP3    H1 6333   4.860   0.187   2.740 -0.2224 -1.0841 -0.8928
 2123TIP3    H2 6334   4.989   0.202   2.662  0.4324  0.2635  0.3941
 2124TIP3   OH2 6335   4.500   1.674   5.658  0.3871 -0.5934 -0.4041
 2124TIP3    H1 6336   4.466   1.609   5.720  0.2757 -1.6488 -1.5251
 2124TIP3    H2 6337   4.423   1.711   5.616  0.4658  0.0475 -0.0036
 2125TIP3   OH2 6338   4.543   4.221   4.768  0.5592  0.3624  0.5091
 2125TIP3    H1 6339   4.484   4.212   4.842 -0.1222  1.6242  0.1467
 2125TIP3    H2 6340   4.561   4.131   4.740 -0.1589 -0.0767  1.4238
 2126TIP3   OH2 6341   3.354   3.052   4.435  0.2581 -0.2463 -0.4282
 2126TIP3    H1 6342   3.358   3.099   4.352  0.9803 -1.4031 -1.0784
 2126TIP3    H2 6343   3.428   3.087   4.485  0.7845 -0.6652 -0.9028
 2127TIP3   OH2 6344   0.115   4.144   3.759 -0.5061 -0.5859  0.2104
 2127TIP3    H1 6345   0.118   4.074   3.824  1.0245  0.6258  1.5477
 2127TIP3    H2 6346   0.142   4.222   3.807  0.0677  0.4861 -1.7473
 2128TIP3   OH2 6347   6.081   2.667   2.754  0.0978 -0.6336 -0.0336
 2128TIP3    H1 6348   6.089   2.692   2.663 -0.1777 -0.1112  0.0827
 2128TIP3    H2 6349   6.143   2.722   2.801  0.0790 -0.7423  0.1227
 2129TIP3   OH2 6350   1.269   3.858   4.465 -0.0037 -0.6199  0.4317
 2129TIP3    H1 6351   1.359   3.827   4.463  0.6069  0.7438  2.7082
 2129TIP3    H2 6352   1.257   3.891   4.554 -2.0181  1.3369 -0.4638
 2130TIP3   OH2 6353   4.102   3.565   3.364 -0.0387 -0.1732 -0.0333
 2130TIP3    H1 6354   4.040   3.496   3.386 -1.4283  1.0453  0.0267
 2130TIP3    H2 6355   4.174   3.520   3.320 -0.4333 -1.7595  0.8907
 2131TIP3   OH2 6356   0.628   4.752   1.353 -0.4661  0.2167  0.0932
 2131TIP3    H1 6357   0.618   4.761   1.448 -1.0254 -1.6826  0.2628
 2131TIP3    H2 6358   0.543   4.778   1.318 -1.6869 -2.7970  0.4865
 2132TIP3   OH2 6359   2.708   0.369   2.243  0.0920 -0.2182 -0.0338
 2132TIP3    H1 6360   2.722   0.316   2.321 -0.7382  1.1488  1.0835
 2132TIP3    H2 6361   2.654   0.314   2.186 -1.6281 -0.2594  1.5378
 2133TIP3   OH2 6362   2.103   4.606   4.976  0.0801  0.8820  0.1694
 2133TIP3    H1 6363   2.194   4.633   4.973  0.0685  0.8667 -0.4084
 2133TIP3    H2 6364   2.056   4.681   5.012  0.3982  0.6635  1.0649
 2134TIP3   OH2 6365   0.503   5.860   0.164 -0.2312  0.4133  0.3504
 2134TIP3    H1 6366   0.472   5.859   0.073 -1.9155 -0.7438  0.8811
 2134TIP3    H2 6367   0.425   5.842   0.216  0.9343 -0.2654  1.9499
 2135TIP3   OH2 6368   2.273   4.826   4.124  0.1096 -0.3697 -0.1063
 2135TIP3    H1 6369   2.246   4.881   4.197  0.5057  1.0778 -1.0098
 2135TIP3    H2 6370   2.343   4.876   4.081 -0.2411 -1.0956 -1.5691
 2136TIP3   OH2 6371   0.797   5.066   5.237 -0.1195  0.2530 -0.0474
 2136TIP3    H1 6372   0.797   5.040   5.329 -0.3060 -0.0780 -0.1385
 2136TIP3    H2 6373   0.875   5.121   5.227  0.0829  0.0206  0.2353
 2137TIP3   OH2 6374   2.702   3.717   3.893 -0.4018 -0.5335  0.4663
 2137TIP3    H1 6375   2.793   3.743   3.882 -0.3880 -0.2211  1.2130
 2137TIP3    H2 6376   2.677   3.679   3.809  0.5027 -0.8903  0.3472
 2138TIP3   OH2 6377   4.519   3.219   3.728  0.4411  0.0276  0.1731
 2138TIP3    H1 6378   4.521   3.216   3.633 -0.5666  0.4173  0.1239
 2138TIP3    H2 6379   4.519   3.127   3.756 -0.2571 -0.0962 -0.2326
 2139TIP3   OH2 6380   5.456   5.944   2.626 -0.5595 -0.3173  0.5150
 2139TIP3    H1 6381   5.551   5.933   2.617 -0.3748  0.8065  0.9076
 2139TIP3    H2 6382   5.433   5.894   2.705 -0.3465 -0.8013  0.2768
 2140TIP3   OH2 6383   0.867   3.602   4.631 -0.3230  0.8301  0.5216
 2140TIP3    H1 6384   0.940   3.632   4.686  0.8731  2.5128 -1.8280
 2140TIP3    H2 6385   0.905   3.533   4.577 -1.3401 -0.4083  1.3253
 2141TIP3   OH2 6386   5.180   6.298   5.526 -0.0049  0.4696  0.9690
 2141TIP3    H1 6387   5.164   6.378   5.576 -1.2964  1.4059 -0.8408
 2141TIP3    H2 6388   5.100   6.247   5.538 -0.6486  1.0297 -0.6423
 2142TIP3   OH2 6389   0.939   6.471   1.778 -0.2176  0.0071  0.4963
 2142TIP3    H1 6390   0.975   6.509   1.858  3.2234 -1.0312 -0.3751
 2142TIP3    H2 6391   0.954   6.377   1.788 -2.4586 -0.4827 -0.1786
 2143TIP3   OH2 6392   6.423   4.828   1.908 -0.1498 -0.4289  0.2230
 2143TIP3    H1 6393   6.386   4.875   1.983  0.0160  0.2215 -0.0936
 2143TIP3    H2 6394   6.508   4.871   1.892  0.8625 -2.0119  1.0660
 2144TIP3   OH2 6395   6.262   5.282   3.746  0.2858  0.0938  0.6615
 2144TIP3    H1 6396   6.350   5.271   3.711 -0.1390 -0.2696 -0.3367
 2144TIP3    H2 6397   6.229   5.361   3.704 -0.5102 -0.7678 -0.3986
 2145TIP3   OH2 6398   2.547   0.124  -0.037  0.3549 -0.0859  0.2001
 2145TIP3    H1 6399   2.629   0.140   0.011 -0.6393  0.9827  1.6502
 2145TIP3    H2 6400   2.485   0.100   0.031 -1.2848  2.0992 -0.4319
 2146TIP3   OH2 6401   4.966   6.535   3.575 -0.3436  0.8029 -0.0838
 2146TIP3    H1 6402   5.009   6.454   3.603 -1.4690  0.4392  0.7003
 2146TIP3    H2 6403   4.897   6.505   3.515  0.1497  1.3268 -0.9320
 2147TIP3   OH2 6404   0.365   1.050   0.018  0.0880  0.0756 -0.0173
 2147TIP3    H1 6405   0.270   1.045   0.010  0.0559  0.4950  0.0680
 2147TIP3    H2 6406   0.386   0.995   0.093  0.1628 -2.0043 -1.4978
 2148TIP3   OH2 6407   1.412   6.229   0.089  0.8673 -0.6216 -0.1356
 2148TIP3    H1 6408   1.442   6.160   0.029 -0.6059 -1.2969 -0.1452
 2148TIP3    H2 6409   1.363   6.182   0.156 -1.0508  0.4863 -0.6991
 2149TIP3   OH2 6410   6.317   5.588   5.407  0.0859  0.3604  0.2927
 2149TIP3    H1 6411   6.412   5.587   5.421  0.0175 -0.0760  0.7544
 2149TIP3    H2 6412   6.306   5.559   5.316  0.3225 -1.2306  0.7388
 2150TIP3   OH2 6413   1.013   6.314   3.758 -0.2297 -0.4927  0.6855
 2150TIP3    H1 6414   0.923   6.296   3.786  0.1740 -1.4449  1.4114
 2150TIP3    H2 6415   1.016   6.281   3.668 -0.8436  0.3622  0.3337
 2151TIP3   OH2 6416   5.026   0.445   3.729  0.5418 -0.2256 -0.2843
 2151TIP3    H1 6417   5.042   0.363   3.774  0.2664 -1.4993 -2.3473
 2151TIP3    H2 6418   4.930   0.452   3.724  0.5624  0.2343 -0.0819
 2152TIP3   OH2 6419   2.224   5.962   5.783  0.2470  0.8843 -0.1701
 2152TIP3    H1 6420   2.189   6.032   5.727 -0.9476  0.7821  0.4013
 2152TIP3    H2 6421   2.173   5.885   5.758  0.7013  0.5063  0.0679
 2153TIP3   OH2 6422   1.180   2.691   5.555  0.4449  0.4274 -0.4841
 2153TIP3    H1 6423   1.186   2.710   5.648 -1.1460 -1.6284  0.1215
 2153TIP3    H2 6424   1.262   2.645   5.535  1.0376  1.3661 -0.2556
 2154TIP3   OH2 6425   4.993   0.668   0.340  0.5862 -0.4440  0.3888
 2154TIP3    H1 6426   5.058   0.723   0.383 -1.4635  1.4961  1.1491
 2154TIP3    H2 6427   4.957   0.614   0.410  1.8338 -2.0903 -0.1676
 2155TIP3   OH2 6428   0.650   0.181   1.606  0.4418  0.8378  0.0774
 2155TIP3    H1 6429   0.623   0.268   1.576 -0.2512  0.9339  0.9285
 2155TIP3    H2 6430   0.717   0.153   1.543  0.1122  1.6539 -0.6561
 2156TIP3   OH2 6431   4.177   4.832   4.723  0.4659 -0.0507 -0.3914
 2156TIP3    H1 6432   4.111   4.832   4.791 -0.6238 -0.0554 -1.4090
 2156TIP3    H2 6433   4.206   4.923   4.718  0.6110 -0.0670  0.1220
 2157TIP3   OH2 6434   2.424   4.704   2.743  0.3913 -0.2232  0.1309
 2157TIP3    H1 6435   2.347   4.693   2.687  1.0940 -0.0296 -0.8985
 2157TIP3    H2 6436   2.494   4.729   2.683  0.4133  3.5839  1.4962
 2158TIP3   OH2 6437   5.067   1.130   3.533  0.0985 -0.0801 -0.5538
 2158TIP3    H1 6438   5.088   1.079   3.455  2.6986 -2.8942  1.7258
 2158TIP3    H2 6439   5.017   1.070   3.589  1.0294  0.7004  1.2143
 2159TIP3   OH2 6440   1.026   2.273   3.123 -0.3441 -0.1734  0.3152
 2159TIP3    H1 6441   1.103   2.329   3.138  0.3456 -0.9740 -0.1556
 2159TIP3    H2 6442   1.007   2.235   3.208  1.5240 -2.1350 -0.0688
 2160TIP3   OH2 6443   1.901   2.206   0.710  0.2600  0.3822  0.0893
 2160TIP3    H1 6444   1.918   2.166   0.796  3.1581  1.5594  0.1886
 2160TIP3    H2 6445   1.938   2.144   0.647 -0.3996  0.2778 -0.2001
 2161TIP3   OH2 6446   0.124   4.283   1.661  0.3507  0.3385  0.1369
 2161TIP3    H1 6447   0.035   4.303   1.692 -0.0656 -1.4354  0.1716
 2161TIP3    H2 6448   0.179   4.350   1.702 -1.1135  2.2934 -0.9266
 2162TIP3   OH2 6449   2.149   3.828   1.600  0.0607 -0.1640  0.5133
 2162TIP3    H1 6450   2.240   3.844   1.626 -0.2787  1.3223  0.9102
 2162TIP3    H2 6451   2.155   3.765   1.529  1.2602 -1.6826  1.8889
 2163TIP3   OH2 6452   6.012   2.812   0.895  0.1693  0.0591  0.2263
 2163TIP3    H1 6453   5.965   2.786   0.816  2.5260 -1.9365 -0.6058
 2163TIP3    H2 6454   6.072   2.881   0.866  0.5483 -0.1798  0.4406
 2164TIP3   OH2 6455   7.203   1.585   2.097 -0.6203 -0.0644 -0.8977
 2164TIP3    H1 6456   7.285   1.612   2.138 -1.1396  1.5851 -0.8479
 2164TIP3    H2 6457   7.135   1.610   2.159 -1.2441 -0.0979 -1.5466
 2165TIP3   OH2 6458   1.193   4.516   1.871 -0.0429  0.2459  0.3122
 2165TIP3    H1 6459   1.273   4.493   1.919  0.7241  1.0275 -0.5386
 2165TIP3    H2 6460   1.180   4.443   1.810  0.5027  0.4978 -0.1151
 2166TIP3   OH2 6461   3.378   5.997   4.523 -0.1730 -0.4785 -0.1392
 2166TIP3    H1 6462   3.408   6.081   4.488  0.4628  0.0831  1.6331
 2166TIP3    H2 6463   3.352   5.947   4.446 -1.0386  1.5182 -1.2195
 2167TIP3   OH2 6464   0.231   1.658   3.087 -0.3065 -0.2529  0.0405
 2167TIP3    H1 6465   0.223   1.562   3.082 -1.3957 -0.1465 -0.4782
 2167TIP3    H2 6466   0.182   1.690   3.011 -1.0182  0.7625  0.8996
 2168TIP3   OH2 6467   1.218   3.925   2.165  0.1429  0.1453 -0.1995
 2168TIP3    H1 6468   1.275   3.859   2.126  0.8782  0.9802 -0.5661
 2168TIP3    H2 6469   1.220   3.998   2.104 -0.9298  0.3915  0.0329
 2169TIP3   OH2 6470   3.768   0.703   2.999 -0.2097 -0.2468 -0.0358
 2169TIP3    H1 6471   3.840   0.729   3.057 -0.1692  0.6957 -0.4968
 2169TIP3    H2 6472   3.810   0.648   2.932  0.4546  1.7785 -1.3656
 2170TIP3   OH2 6473   2.836   2.159   4.609 -0.8828 -0.1652 -0.1280
 2170TIP3    H1 6474   2.770   2.095   4.583 -0.7782  0.1620 -1.2452
 2170TIP3    H2 6475   2.910   2.142   4.551 -0.8456  0.9494 -0.4224
 2171TIP3   OH2 6476   6.539   4.593   3.076  0.1350 -0.4550 -0.0374
 2171TIP3    H1 6477   6.538   4.648   3.154  3.2019  0.0572 -0.2200
 2171TIP3    H2 6478   6.451   4.556   3.071 -2.0885  4.1093  0.2809
 2172TIP3   OH2 6479   2.076   1.838   0.988 -0.0159 -0.0549  0.4891
 2172TIP3    H1 6480   2.147   1.786   0.950  0.8876  0.6662  1.1407
 2172TIP3    H2 6481   2.013   1.773   1.019  1.5218 -0.8506  2.1418
 2173TIP3   OH2 6482   2.202   2.144   2.103 -0.2823 -0.3967 -0.3117
 2173TIP3    H1 6483   2.148   2.086   2.048  1.6435 -2.9271  0.2434
 2173TIP3    H2 6484   2.225   2.090   2.179 -0.5599  2.0663  1.6377
 2174TIP3   OH2 6485   2.181   2.392   4.744 -0.2895  0.1793 -0.5501
 2174TIP3    H1 6486   2.215   2.470   4.701 -0.5378  0.7176  0.2067
 2174TIP3    H2 6487   2.251   2.327   4.737 -0.3657  0.2181 -1.8299
 2175TIP3   OH2 6488   1.761   1.033   4.883 -0.1720  0.0217  0.0038
 2175TIP3    H1 6489   1.823   1.105   4.875  0.2559 -0.3092  0.2916
 2175TIP3    H2 6490   1.717   1.049   4.966  0.1263 -0.2022  0.2072
 2176TIP3   OH2 6491   4.400   1.487   5.787  0.3575  0.0725 -1.0473
 2176TIP3    H1 6492   4.382   1.457   5.876  0.6162  1.9496 -0.3099
 2176TIP3    H2 6493   4.337   1.440   5.732  0.7540 -1.7573 -0.0126
 2177TIP3   OH2 6494   1.669   1.734   5.707 -0.0464  0.0135  0.2989
 2177TIP3    H1 6495   1.671   1.699   5.796 -0.6813 -1.4007 -0.2025
 2177TIP3    H2 6496   1.700   1.661   5.652 -0.0280  0.7341 -0.6727
 2178TIP3   OH2 6497   7.129   3.037   1.384  0.4773 -0.1658  0.3505
 2178TIP3    H1 6498   7.159   3.128   1.380  1.2412 -0.3937  0.6416
 2178TIP3    H2 6499   7.210   2.986   1.377  0.1672 -0.8053  1.2805
 2179TIP3   OH2 6500   3.162   1.070   3.707  0.5010  0.3461 -0.5997
 2179TIP3    H1 6501   3.241   1.081   3.759 -0.5096  1.1306  0.8469
 2179TIP3    H2 6502   3.144   1.158   3.672 -0.8221  0.6785  0.7929
 2180TIP3   OH2 6503   1.296   4.109   0.323  0.3951  0.3984 -0.4177
 2180TIP3    H1 6504   1.290   4.202   0.345  0.9112 -0.0174  1.6826
 2180TIP3    H2 6505   1.374   4.079   0.369 -0.2413 -1.2636 -0.3588
 2181TIP3   OH2 6506   4.571   2.545   3.309 -0.0369  0.5665 -0.1989
 2181TIP3    H1 6507   4.565   2.499   3.225  0.9012  0.3937 -0.1742
 2181TIP3    H2 6508   4.653   2.514   3.347  0.8025  2.5373 -0.3309
 2182TIP3   OH2 6509   6.749   2.053   3.910 -0.4526 -0.0984 -0.2461
 2182TIP3    H1 6510   6.664   2.075   3.948  0.4940  1.3586  1.1334
 2182TIP3    H2 6511   6.775   2.132   3.862  0.5817 -0.1313  0.2339
 2183TIP3   OH2 6512   2.898   5.281   5.612  0.0026  0.3565 -0.1575
 2183TIP3    H1 6513   2.991   5.300   5.593  0.2073 -0.1119  0.3762
 2183TIP3    H2 6514   2.873   5.217   5.545  0.1310  0.2969 -0.1492
 2184TIP3   OH2 6515   0.461   4.444   2.097 -0.2600  0.4045  0.3913
 2184TIP3    H1 6516   0.396   4.377   2.120 -0.5250  0.6353  0.3213
 2184TIP3    H2 6517   0.427   4.483   2.016  0.1159  0.3276  0.1939
 2185TIP3   OH2 6518   4.731   0.959   3.981  0.2221 -0.1133 -0.5376
 2185TIP3    H1 6519   4.693   0.976   3.895 -0.9312 -0.8535 -0.2052
 2185TIP3    H2 6520   4.667   0.993   4.043  1.1566  0.6366  0.0468
 2186TIP3   OH2 6521   1.206   2.009   1.779 -0.3432 -0.0374  0.4548
 2186TIP3    H1 6522   1.238   2.099   1.789  0.7304 -0.2433 -0.7692
 2186TIP3    H2 6523   1.160   2.010   1.695 -0.7953 -0.5065  0.6937
 2187TIP3   OH2 6524   4.885   2.997   0.353 -0.2104  0.0559  0.1212
 2187TIP3    H1 6525   4.889   2.902   0.363  0.6979  0.0550 -0.1548
 2187TIP3    H2 6526   4.970   3.021   0.315 -1.0083  0.8129 -1.2493
 2188TIP3   OH2 6527   2.143   6.765   0.746  0.8469 -0.0815  0.4812
 2188TIP3    H1 6528   2.215   6.814   0.786  1.0374  0.9877 -1.0915
 2188TIP3    H2 6529   2.176   6.675   0.741  1.0001 -0.1599  2.2186
 2189TIP3   OH2 6530   0.496   5.616   1.093 -0.7485 -0.0550 -0.3369
 2189TIP3    H1 6531   0.419   5.620   1.036 -2.1540  0.8433  1.4940
 2189TIP3    H2 6532   0.530   5.706   1.093  0.6492 -0.5512 -1.5187
 2190TIP3   OH2 6533   7.017   3.843   2.513 -0.1628  0.1615 -0.1244
 2190TIP3    H1 6534   7.081   3.886   2.456 -1.7332 -0.0488 -2.1466
 2190TIP3    H2 6535   6.988   3.767   2.463 -3.0889  1.0778  0.0030
 2191TIP3   OH2 6536   4.346   6.557   4.648 -0.2495 -0.3278 -0.2766
 2191TIP3    H1 6537   4.255   6.543   4.674 -0.8584  0.9064 -1.6395
 2191TIP3    H2 6538   4.348   6.645   4.611  1.1868 -0.8753 -1.6143
 2192TIP3   OH2 6539   6.287   3.415   3.747  0.4818 -0.7174 -0.0628
 2192TIP3    H1 6540   6.263   3.324   3.729 -2.5582  0.1566 -1.1711
 2192TIP3    H2 6541   6.357   3.409   3.811  0.7006 -3.8244 -0.4179
 2193TIP3   OH2 6542   1.892   4.217   4.265  0.5784 -0.4463 -0.0507
 2193TIP3    H1 6543   1.875   4.189   4.175 -0.3047  1.4325 -0.5107
 2193TIP3    H2 6544   1.950   4.292   4.256 -0.2822  0.3612  0.8694
 2194TIP3   OH2 6545   6.650   5.129   4.681  0.5438 -0.5504  0.1431
 2194TIP3    H1 6546   6.597   5.188   4.736  0.9871  0.2857 -0.3195
 2194TIP3    H2 6547   6.706   5.187   4.630  1.5530 -1.4099  0.2495
 2195TIP3   OH2 6548   6.840   2.029   5.057 -0.4662 -0.5718  0.3387
 2195TIP3    H1 6549   6.826   1.943   5.095 -3.2159 -0.6076 -0.4975
 2195TIP3    H2 6550   6.802   2.023   4.969 -3.4452  2.1536  1.2090
 2196TIP3   OH2 6551   1.384   0.533   3.885  0.4061 -0.0542 -0.3007
 2196TIP3    H1 6552   1.350   0.541   3.974 -2.6740  1.7169 -1.4672
 2196TIP3    H2 6553   1.433   0.451   3.885  0.6821 -0.0144  3.0221
 2197TIP3   OH2 6554   0.408   5.804   4.330 -0.1173 -0.3570  0.1747
 2197TIP3    H1 6555   0.494   5.763   4.322  1.2101  2.4240 -1.3165
 2197TIP3    H2 6556   0.396   5.816   4.424  0.2636 -2.4096  0.5168
 2198TIP3   OH2 6557   3.788   1.218   2.467  0.6840  0.0397 -0.1575
 2198TIP3    H1 6558   3.800   1.234   2.560  1.1857 -0.1923 -0.1755
 2198TIP3    H2 6559   3.696   1.192   2.458  0.3673  1.0260  0.1279
 2199TIP3   OH2 6560   5.025   5.177   2.635  0.4486 -0.1068  0.0471
 2199TIP3    H1 6561   4.995   5.265   2.654 -0.9984  0.1069 -2.6891
 2199TIP3    H2 6562   5.056   5.143   2.719 -0.0855  2.5366  1.4142
 2200TIP3   OH2 6563   3.081   5.375   2.310  0.5016 -0.1910  0.1761
 2200TIP3    H1 6564   3.131   5.456   2.299  1.3362 -0.4828  1.6114
 2200TIP3    H2 6565   3.146   5.308   2.327 -0.2099 -1.1314 -0.6422
 2201TIP3   OH2 6566   4.328   1.620   3.438 -0.0475 -0.1397 -0.0097
 2201TIP3    H1 6567   4.341   1.609   3.344 -0.1755  1.8818 -0.3011
 2201TIP3    H2 6568   4.415   1.638   3.473 -0.2374  0.9099 -0.0421
 2202TIP3   OH2 6569   4.461   5.657   2.736  0.0795 -0.0901  0.3847
 2202TIP3    H1 6570   4.417   5.710   2.669 -0.8772  0.3819  1.3385
 2202TIP3    H2 6571   4.507   5.721   2.791 -1.3218 -0.1545  1.7201
 2203TIP3   OH2 6572   0.502   5.828   0.671 -0.6467  0.2507 -0.6570
 2203TIP3    H1 6573   0.490   5.734   0.675 -0.6783  0.3051  0.9210
 2203TIP3    H2 6574   0.421   5.861   0.633 -1.4619 -0.2084  0.6275
 2204TIP3   OH2 6575   0.311   5.867   2.061 -0.0856  0.3307 -0.7476
 2204TIP3    H1 6576   0.321   5.795   1.999 -0.2335 -0.8817  0.5708
 2204TIP3    H2 6577   0.246   5.925   2.021 -0.0530 -0.3227 -1.7839
 2205TIP3   OH2 6578   5.376   5.895   3.160  0.2137 -0.4207 -0.0730
 2205TIP3    H1 6579   5.365   5.975   3.211 -0.6702 -0.7929  0.3384
 2205TIP3    H2 6580   5.408   5.925   3.075 -0.0549  0.3645  0.0988
 2206TIP3   OH2 6581   4.572   6.499   1.100  0.1594  0.0190 -0.0924
 2206TIP3    H1 6582   4.649   6.539   1.059  1.0905 -1.5165  0.0719
 2206TIP3    H2 6583   4.599   6.485   1.191 -0.9149  0.9106  0.3873
 2207TIP3   OH2 6584   3.194   6.159   5.742 -0.1111  0.0661  0.0423
 2207TIP3    H1 6585   3.125   6.203   5.692  0.0095  0.4785  0.2328
 2207TIP3    H2 6586   3.177   6.066   5.729 -2.5716  0.0475  2.5797
 2208TIP3   OH2 6587   2.286   2.003   2.711 -0.1754 -0.2187  0.1477
 2208TIP3    H1 6588   2.366   1.975   2.756  1.2179  0.0308 -2.0185
 2208TIP3    H2 6589   2.237   1.922   2.697  1.9801 -1.2131 -2.5968
 2209TIP3   OH2 6590   4.232   6.170   1.680  0.2155 -0.1956 -0.3478
 2209TIP3    H1 6591   4.240   6.208   1.767 -2.5815  0.5080 -0.2976
 2209TIP3    H2 6592   4.319   6.136   1.660  0.9377 -0.3689  2.6816
 2210TIP3   OH2 6593   0.781   4.130   2.945  0.1391  0.0151 -0.2610
 2210TIP3    H1 6594   0.707   4.104   2.891 -0.5960  0.0330  0.7046
 2210TIP3    H2 6595   0.786   4.225   2.935 -0.9312  0.2187  0.8032
 2211TIP3   OH2 6596   5.023   3.512   3.710 -0.0682  0.0247  0.1889
 2211TIP3    H1 6597   5.050   3.475   3.626 -0.1846  0.3070  0.0262
 2211TIP3    H2 6598   5.099   3.501   3.767 -0.5800 -1.7875  0.5797
 2212TIP3   OH2 6599   6.356   3.108   5.593 -0.4062  0.1255 -0.1174
 2212TIP3    H1 6600   6.352   3.202   5.613  1.9766 -0.0706  1.7764
 2212TIP3    H2 6601   6.344   3.065   5.677  0.0027 -1.2310 -0.7211
 2213TIP3   OH2 6602   0.222   4.466   1.872 -0.1232  0.2901  0.1550
 2213TIP3    H1 6603   0.177   4.495   1.951  0.3294  0.7616  0.2516
 2213TIP3    H2 6604   0.303   4.518   1.871 -0.4256  0.7765 -0.9539
 2214TIP3   OH2 6605   3.199   0.828   3.236  0.0336  0.2145  0.5434
 2214TIP3    H1 6606   3.172   0.819   3.144 -1.0756 -1.0296  0.9548
 2214TIP3    H2 6607   3.187   0.921   3.256  0.7642  0.6028 -0.6876
 2215TIP3   OH2 6608   0.140   5.715   0.082  0.1621  0.3092  0.6662
 2215TIP3    H1 6609   0.095   5.784   0.130  0.7443  0.4542  1.0102
 2215TIP3    H2 6610   0.083   5.697   0.007  0.0211  1.1911  0.5511
 2216TIP3   OH2 6611   6.565   6.530   1.124 -0.4817  0.0553  0.6431
 2216TIP3    H1 6612   6.549   6.603   1.065 -2.1721  0.5707  1.6629
 2216TIP3    H2 6613   6.531   6.560   1.209  1.4569 -0.8227  1.7828
 2217TIP3   OH2 6614   6.046   2.887   3.408 -0.1201  0.2081 -0.5554
 2217TIP3    H1 6615   6.035   2.941   3.330  2.7377  0.3958 -0.9179
 2217TIP3    H2 6616   6.140   2.875   3.416 -0.4838 -2.1855  1.2760
 2218TIP3   OH2 6617   6.020   0.698   1.748  0.1557 -0.0292 -0.0102
 2218TIP3    H1 6618   6.110   0.680   1.719  0.5640 -0.7913  1.6182
 2218TIP3    H2 6619   6.004   0.788   1.719  1.6645  0.3335  0.1613
 2219TIP3   OH2 6620   3.769   0.599   4.138 -0.5120  0.0175 -0.5804
 2219TIP3    H1 6621   3.817   0.605   4.056  0.7502  0.1647  0.1461
 2219TIP3    H2 6622   3.722   0.516   4.132 -3.2305  1.5411 -2.8646
 2220TIP3   OH2 6623   0.438   4.291   1.834  0.5467  0.0643  0.3014
 2220TIP3    H1 6624   0.358   4.306   1.884  0.9515  0.0589  0.9624
 2220TIP3    H2 6625   0.425   4.206   1.793 -0.7529  1.0590 -1.5097
 2221TIP3   OH2 6626   2.016   4.638   2.416 -0.3339 -0.6557 -0.1275
 2221TIP3    H1 6627   2.053   4.554   2.389 -1.0119 -0.7175 -0.8977
 2221TIP3    H2 6628   2.058   4.657   2.500  1.4879 -0.6959 -0.9830
 2222TIP3   OH2 6629   2.188   3.679   4.065 -0.2149 -0.5266  0.3949
 2222TIP3    H1 6630   2.128   3.695   3.993  0.8808 -0.0183 -0.4390
 2222TIP3    H2 6631   2.275   3.677   4.024  0.4775  0.1895  1.7365
 2223TIP3   OH2 6632   0.761   6.239   2.522 -0.0246  0.5298 -0.2823
 2223TIP3    H1 6633   0.752   6.219   2.429 -0.7822  2.9187 -0.8126
 2223TIP3    H2 6634   0.690   6.301   2.540  0.4863  0.6015  1.7373
 2224TIP3   OH2 6635   6.416   5.548   2.510 -0.4308  0.1963 -0.1733
 2224TIP3    H1 6636   6.476   5.474   2.498  1.2807  1.1347  1.9607
 2224TIP3    H2 6637   6.390   5.542   2.602 -0.6548  1.9413 -0.0970
 2225TIP3   OH2 6638   1.727   4.976   3.039  0.3062 -0.1765 -0.6483
 2225TIP3    H1 6639   1.696   5.066   3.053  1.8170  0.2089  0.4420
 2225TIP3    H2 6640   1.646   4.924   3.032 -0.5985  1.2766 -1.5564
 2226TIP3   OH2 6641   2.379   0.011   0.594  0.9730 -0.0133 -0.2082
 2226TIP3    H1 6642   2.467   0.042   0.572  1.7161 -1.5444  0.4177
 2226TIP3    H2 6643   2.390  -0.038   0.675 -0.5347  0.0482  0.0692
 2227TIP3   OH2 6644   5.184   0.166   5.909  0.2378 -0.7681 -0.4435
 2227TIP3    H1 6645   5.207   0.188   5.819 -0.3312  0.5356 -0.2958
 2227TIP3    H2 6646   5.166   0.072   5.908  2.3166 -1.2216 -1.2299
 2228TIP3   OH2 6647   2.179   0.728   3.806 -0.0349  0.1043 -0.1135
 2228TIP3    H1 6648   2.229   0.657   3.764  2.3873  0.3774  2.0391
 2228TIP3    H2 6649   2.104   0.684   3.846  1.0351 -1.1843  0.5643
 2229TIP3   OH2 6650   5.400   4.150   2.925 -0.1121 -0.0127  0.5896
 2229TIP3    H1 6651   5.462   4.211   2.886  2.0084 -1.4070  1.5823
 2229TIP3    H2 6652   5.448   4.067   2.931 -2.2848 -1.3316  0.8928
 2230TIP3   OH2 6653   1.649   1.498   0.662  0.0808  0.2470 -0.2701
 2230TIP3    H1 6654   1.554   1.509   0.653  0.0345  1.1186  0.9728
 2230TIP3    H2 6655   1.674   1.564   0.727  1.4807 -0.2489 -0.2806
 2231TIP3   OH2 6656   4.495   4.561   3.669  0.5555 -0.3762 -0.0521
 2231TIP3    H1 6657   4.435   4.538   3.740  0.4913 -0.4739 -0.1371
 2231TIP3    H2 6658   4.561   4.617   3.710  0.3392 -0.1719  0.0163
 2232TIP3   OH2 6659   0.636   5.107   0.560 -0.0203  0.8758 -0.0160
 2232TIP3    H1 6660   0.690   5.144   0.490  2.1544 -0.6396  0.7587
 2232TIP3    H2 6661   0.559   5.071   0.515 -0.1375  2.5496 -1.2289
 2233TIP3   OH2 6662   1.662   4.941   2.514 -0.0285  0.0693 -0.0048
 2233TIP3    H1 6663   1.676   5.033   2.493 -0.7705  0.1953  0.0234
 2233TIP3    H2 6664   1.650   4.898   2.429 -0.0629  0.0696 -0.0003
 2234TIP3   OH2 6665   3.177   4.158   5.596 -0.0557 -0.2872  0.5895
 2234TIP3    H1 6666   3.092   4.117   5.583  0.2915 -0.8676  0.1154
 2234TIP3    H2 6667   3.158   4.251   5.603 -0.5134 -0.1611 -1.7401
 2235TIP3   OH2 6668   4.868   2.990   4.132 -0.4009  0.0848 -0.5965
 2235TIP3    H1 6669   4.895   3.016   4.220  1.7430  0.8313 -1.3948
 2235TIP3    H2 6670   4.799   3.052   4.109  1.1023  1.8716 -0.5195
 2236TIP3   OH2 6671   6.664   5.378   2.736 -0.3910  0.4970 -0.3341
 2236TIP3    H1 6672   6.685   5.471   2.725  0.5543  0.2853 -0.3931
 2236TIP3    H2 6673   6.734   5.345   2.792 -0.6126 -0.2297 -0.4844
 2237TIP3   OH2 6674   2.800   4.545   2.668 -0.0797  0.5141  0.3762
 2237TIP3    H1 6675   2.750   4.524   2.747  2.2449 -0.1633  1.7697
 2237TIP3    H2 6676   2.810   4.461   2.623  0.9575  0.3689  0.8508
 2238TIP3   OH2 6677   4.153   1.734   3.608 -0.3681 -0.0436  0.2451
 2238TIP3    H1 6678   4.075   1.741   3.553 -0.3764 -0.5761  0.1786
 2238TIP3    H2 6679   4.207   1.668   3.564 -0.2984 -0.3457  0.7726
 2239TIP3   OH2 6680   0.891   4.529   0.287 -0.5483 -0.5195 -0.0748
 2239TIP3    H1 6681   0.825   4.482   0.236 -1.0887  0.1059  0.0368
 2239TIP3    H2 6682   0.907   4.473   0.363 -0.4612 -0.9850 -0.4271
 2240TIP3   OH2 6683   4.641   4.868   0.971 -0.3747 -0.6806  0.2554
 2240TIP3    H1 6684   4.639   4.783   1.015  1.5697 -1.3741 -0.8699
 2240TIP3    H2 6685   4.696   4.923   1.026  0.4030 -0.9345 -0.2501
 2241TIP3   OH2 6686   5.145   5.412   1.032 -0.3656 -0.0234  0.4187
 2241TIP3    H1 6687   5.121   5.322   1.055 -0.0207 -0.6510 -1.4413
 2241TIP3    H2 6688   5.218   5.434   1.090 -0.1147 -1.1432  0.5419
 2242TIP3   OH2 6689   1.382   0.314   0.297  0.3789  0.1939 -0.6125
 2242TIP3    H1 6690   1.419   0.288   0.213  0.1069 -0.8214 -0.4313
 2242TIP3    H2 6691   1.351   0.404   0.283 -0.6945 -0.3517 -1.9473
 2243TIP3   OH2 6692   5.160   3.054   5.126  0.3295 -0.0011 -0.1585
 2243TIP3    H1 6693   5.197   3.021   5.208 -0.0413  0.5066  0.2131
 2243TIP3    H2 6694   5.200   2.999   5.059  2.2743  0.9065  0.1685
 2244TIP3   OH2 6695   3.980   6.265   3.877  0.7958 -0.0575 -0.9999
 2244TIP3    H1 6696   3.992   6.252   3.971 -0.0566  2.3950 -0.4992
 2244TIP3    H2 6697   3.912   6.202   3.853  0.0091  0.2704  0.3128
 2245TIP3   OH2 6698   1.896   6.759   5.728 -0.3335 -0.1802  0.1358
 2245TIP3    H1 6699   1.858   6.674   5.709  1.0629 -0.1266 -3.8679
 2245TIP3    H2 6700   1.902   6.803   5.643 -0.0634  3.5563  1.8704
 2246TIP3   OH2 6701   2.004   5.048   3.035 -0.0965 -0.3462  0.1090
 2246TIP3    H1 6702   1.911   5.029   3.045 -0.2404  0.3574  0.1899
 2246TIP3    H2 6703   2.008   5.144   3.028  0.2350 -0.5075 -4.0684
 2247TIP3   OH2 6704   6.463   0.512   0.089  0.0188 -0.2397 -0.4179
 2247TIP3    H1 6705   6.463   0.593   0.141 -1.0173 -0.2614 -0.3576
 2247TIP3    H2 6706   6.460   0.542  -0.002 -0.4251 -0.2067 -0.3938
 2248TIP3   OH2 6707   4.839   0.620   0.117 -0.0257 -0.1766 -0.0309
 2248TIP3    H1 6708   4.925   0.650   0.147  0.1420  1.8073 -2.1472
 2248TIP3    H2 6709   4.779   0.647   0.186  0.8986 -0.3725  0.8730
 2249TIP3   OH2 6710   3.343   4.362   4.587 -0.4250 -0.3495  0.1720
 2249TIP3    H1 6711   3.332   4.335   4.678 -1.8024 -2.0916 -0.4648
 2249TIP3    H2 6712   3.436   4.348   4.569 -0.2391 -0.4375  1.1737
 2250TIP3   OH2 6713   5.602   6.277   1.853 -0.1802  0.3963  0.2090
 2250TIP3    H1 6714   5.580   6.188   1.881  0.3135 -0.3429 -1.6291
 2250TIP3    H2 6715   5.549   6.333   1.909 -1.7770 -1.1123  0.3003
 2251TIP3   OH2 6716   2.967   3.702   2.672  0.3136  0.4612 -0.1639
 2251TIP3    H1 6717   2.995   3.622   2.628 -0.9208  0.4989 -1.0821
 2251TIP3    H2 6718   2.982   3.684   2.765 -0.7845 -1.2287 -0.2599
 2252TIP3   OH2 6719   4.330   1.094   3.462 -0.0536  0.5990 -0.2044
 2252TIP3    H1 6720   4.366   1.034   3.396  1.0906 -0.1048  1.0237
 2252TIP3    H2 6721   4.294   1.166   3.410  0.0672 -0.3168 -1.6403
 2253TIP3   OH2 6722   6.929   4.827   5.712 -0.2120 -0.0837  0.1836
 2253TIP3    H1 6723   7.008   4.805   5.762 -0.6413  1.5606  1.6945
 2253TIP3    H2 6724   6.961   4.840   5.623  0.9932 -0.8016  0.4785
 2254TIP3   OH2 6725   6.342   6.117   2.357  0.2052 -0.1241 -0.2745
 2254TIP3    H1 6726   6.312   6.131   2.447  2.0805  0.1923  0.3641
 2254TIP3    H2 6727   6.316   6.028   2.336  1.0004 -0.7272  1.1503
 2255TIP3   OH2 6728   3.771   3.644   3.841 -0.0332  0.2094 -0.1456
 2255TIP3    H1 6729   3.823   3.646   3.760 -2.1125  1.8511 -1.5769
 2255TIP3    H2 6730   3.695   3.590   3.819 -0.3105  0.1493  0.9232
 2256TIP3   OH2 6731   0.672   4.721   1.610  0.3564 -0.3433 -0.0215
 2256TIP3    H1 6732   0.766   4.727   1.627  0.5662 -1.6081 -0.6652
 2256TIP3    H2 6733   0.646   4.636   1.646 -0.8970  0.6641  1.6214
 2257TIP3   OH2 6734   1.946   3.215   4.407 -0.1527  0.3138 -0.0866
 2257TIP3    H1 6735   1.997   3.139   4.434 -0.2548 -0.0644 -0.9415
 2257TIP3    H2 6736   1.959   3.221   4.313 -1.1165  0.6451 -0.2090
 2258TIP3   OH2 6737   3.319   2.493   0.543 -0.0143  0.3054 -0.3960
 2258TIP3    H1 6738   3.339   2.557   0.474 -1.2043  0.0901 -0.9572
 2258TIP3    H2 6739   3.224   2.498   0.554  0.1290  0.1655  1.0799
 2259TIP3   OH2 6740   2.041   1.522   4.139 -0.4827 -0.2521  0.0243
 2259TIP3    H1 6741   2.124   1.538   4.095 -0.6293 -0.6646 -0.4116
 2259TIP3    H2 6742   1.993   1.465   4.079 -1.3229  0.4671  0.0001
 2260TIP3   OH2 6743   2.051   2.622   0.934 -0.0058 -0.1267 -0.3308
 2260TIP3    H1 6744   1.962   2.638   0.964  0.0230  0.7141 -0.6587
 2260TIP3    H2 6745   2.086   2.556   0.994 -0.2057  0.9333  0.9774
 2261TIP3   OH2 6746   0.788   1.496   2.580  0.0973  0.5066 -0.3820
 2261TIP3    H1 6747   0.843   1.442   2.524 -0.1256  0.5335 -0.6285
 2261TIP3    H2 6748   0.848   1.536   2.643  0.3659  0.6019 -0.7017
 2262TIP3   OH2 6749   5.180   3.969   3.326  0.1529  0.1866  0.1210
 2262TIP3    H1 6750   5.147   4.008   3.407  0.6689 -1.1403  1.0093
 2262TIP3    H2 6751   5.102   3.955   3.272 -0.4872 -0.9092  1.2997
 2263TIP3   OH2 6752   1.958   1.591   2.296  0.4698  0.2002 -0.0053
 2263TIP3    H1 6753   2.023   1.543   2.348  0.5179  0.7588  0.4700
 2263TIP3    H2 6754   1.882   1.599   2.354  0.0948 -0.1602 -0.4399
 2264TIP3   OH2 6755   5.982   1.934   0.461  0.2935 -0.0981  0.4787
 2264TIP3    H1 6756   5.894   1.909   0.431  1.2782 -1.2357 -1.7027
 2264TIP3    H2 6757   5.974   1.941   0.556 -1.8113 -1.6609  0.4940
 2265TIP3   OH2 6758   1.325   4.233   3.445 -0.3433 -0.2103 -0.1564
 2265TIP3    H1 6759   1.252   4.294   3.444 -0.0831  0.1070 -1.2222
 2265TIP3    H2 6760   1.390   4.272   3.387 -0.4174 -1.7885 -1.3682
 2266TIP3   OH2 6761   2.406   5.371   2.448  0.0589  0.1685 -0.6417
 2266TIP3    H1 6762   2.447   5.379   2.534  2.9078 -2.0060 -1.6127
 2266TIP3    H2 6763   2.446   5.441   2.396 -0.2787  0.3442 -0.6672
 2267TIP3   OH2 6764   3.623   0.894   2.203  0.0997 -0.3310  0.5752
 2267TIP3    H1 6765   3.679   0.822   2.172 -0.1190 -0.6075  0.8193
 2267TIP3    H2 6766   3.539   0.879   2.159  0.7761  1.2319 -1.4073
 2268TIP3   OH2 6767   2.372   5.311   2.939 -0.1160  0.3120 -0.2591
 2268TIP3    H1 6768   2.440   5.244   2.942  1.2311  1.6139 -0.1891
 2268TIP3    H2 6769   2.303   5.279   2.998  2.6527  1.1675  3.9134
 2269TIP3   OH2 6770   2.670   2.458   3.423 -0.5342  0.1956  0.5976
 2269TIP3    H1 6771   2.697   2.420   3.340  0.2093 -0.8435  1.2882
 2269TIP3    H2 6772   2.750   2.464   3.474 -1.3952 -2.3598  2.4710
 2270TIP3   OH2 6773   4.483   3.082   1.843  0.0908  0.2175  0.4309
 2270TIP3    H1 6774   4.485   3.141   1.767 -0.5530  0.8063  0.8614
 2270TIP3    H2 6775   4.424   3.124   1.905 -2.1653 -1.9039 -0.0909
 2271TIP3   OH2 6776   2.563   1.916   2.136  0.5553  0.1152  0.4674
 2271TIP3    H1 6777   2.588   1.913   2.228  1.4285 -0.8030  0.2166
 2271TIP3    H2 6778   2.469   1.898   2.136  0.6435 -0.3977  1.1509
 2272TIP3   OH2 6779   0.653   0.691   2.588  0.1595  0.4325 -0.1532
 2272TIP3    H1 6780   0.683   0.607   2.623 -2.4994 -1.3756 -1.8102
 2272TIP3    H2 6781   0.567   0.704   2.628 -1.4107  0.0450 -3.0775
 2273TIP3   OH2 6782   3.149   5.893   5.249 -0.2723  0.2390 -0.1900
 2273TIP3    H1 6783   3.174   5.895   5.157 -1.5269 -0.1156 -0.5550
 2273TIP3    H2 6784   3.191   5.815   5.284 -1.8734 -1.0877 -1.1152
 2274TIP3   OH2 6785   4.418   4.910   2.271  0.6166 -0.0808  0.0702
 2274TIP3    H1 6786   4.400   4.964   2.194 -1.7625 -0.0694  0.5639
 2274TIP3    H2 6787   4.337   4.860   2.285  1.7419 -1.6534  1.3285
 2275TIP3   OH2 6788   3.354   6.280   4.981  0.4369  0.3401 -0.0840
 2275TIP3    H1 6789   3.339   6.217   5.051 -1.4913  1.0472  0.1982
 2275TIP3    H2 6790   3.400   6.230   4.913  1.3584 -0.6378  1.2073
 2276TIP3   OH2 6791   4.832   6.567   3.155  0.3669 -0.0736 -0.2866
 2276TIP3    H1 6792   4.917   6.598   3.188  1.6169 -2.0208 -1.4342
 2276TIP3    H2 6793   4.827   6.600   3.066  1.3061 -2.2135 -1.2107
 2277TIP3   OH2 6794   4.702   2.838   5.813 -0.0783 -0.5774 -0.2835
 2277TIP3    H1 6795   4.706   2.876   5.900 -1.8339  0.7205 -0.7268
 2277TIP3    H2 6796   4.643   2.763   5.821  0.9800 -1.4193 -0.0664
 2278TIP3   OH2 6797   0.827   0.910   5.665  0.0406 -0.7096 -0.0677
 2278TIP3    H1 6798   0.886   0.897   5.591 -1.3186 -2.4988 -0.9259
 2278TIP3    H2 6799   0.866   0.858   5.735  0.1460 -0.8750 -0.2457
 2279TIP3   OH2 6800   4.569   3.381   3.276 -0.0943  0.2024  0.1773
 2279TIP3    H1 6801   4.584   3.305   3.220 -0.3661  0.6254 -0.4832
 2279TIP3    H2 6802   4.644   3.381   3.336  2.2417  1.7789 -2.4841
 2280TIP3   OH2 6803   4.467   1.848   4.520  0.1419 -0.2861 -0.3504
 2280TIP3    H1 6804   4.416   1.781   4.474  0.4441 -1.0709  0.4190
 2280TIP3    H2 6805   4.477   1.813   4.608  0.1660  0.8691  0.1171
 2281TIP3   OH2 6806   6.621   2.209   4.866  0.2148  0.0489  0.2437
 2281TIP3    H1 6807   6.672   2.163   4.800 -0.9885  0.3975 -0.9658
 2281TIP3    H2 6808   6.553   2.146   4.893  0.6096 -0.0436  1.0793
 2282TIP3   OH2 6809   4.785   3.377   3.430  0.2948 -0.7958 -0.0022
 2282TIP3    H1 6810   4.880   3.392   3.423 -0.2608  2.6625 -3.2715
 2282TIP3    H2 6811   4.755   3.446   3.489 -0.4465  0.4148 -1.6998
 2283TIP3   OH2 6812   1.625   0.055   2.589  0.5908 -0.2889 -0.4844
 2283TIP3    H1 6813   1.714   0.036   2.560  0.2833 -0.4345 -1.3838
 2283TIP3    H2 6814   1.581  -0.030   2.590  0.1595 -0.0874 -1.1618
 2284TIP3   OH2 6815   5.850   3.788   3.433 -0.9601  0.3634  0.1230
 2284TIP3    H1 6816   5.875   3.707   3.388 -0.1770 -0.3707  1.7862
 2284TIP3    H2 6817   5.763   3.770   3.468 -1.4447  0.8263 -0.8246
 2285TIP3   OH2 6818   2.498   6.191   5.917  0.8911 -0.2091 -0.0053
 2285TIP3    H1 6819   2.561   6.121   5.899  1.4668  0.3595 -0.2292
 2285TIP3    H2 6820   2.496   6.242   5.836 -2.6218 -2.2816 -1.4398
 2286TIP3   OH2 6821   7.044   0.204   4.349  0.3300 -0.1040  0.7891
 2286TIP3    H1 6822   7.108   0.150   4.302 -1.1052 -1.4743  0.3157
 2286TIP3    H2 6823   6.980   0.228   4.283  0.6819  1.8663  1.0991
 2287TIP3   OH2 6824   6.496   4.694   0.897  0.2243 -0.1677 -0.0165
 2287TIP3    H1 6825   6.431   4.703   0.827  1.1623 -1.4082 -1.0856
 2287TIP3    H2 6826   6.532   4.782   0.908 -0.4065  0.1790 -0.6124
 2288TIP3   OH2 6827   3.737   2.425   3.874  0.5185 -0.0573 -0.4181
 2288TIP3    H1 6828   3.682   2.501   3.892  1.0881  0.0057  1.1381
 2288TIP3    H2 6829   3.704   2.357   3.934  1.9389 -0.0988  0.3527
 2289TIP3   OH2 6830   0.566   2.081   1.906  0.0309 -0.1314 -0.1242
 2289TIP3    H1 6831   0.487   2.121   1.941  0.2782  1.2896 -1.0943
 2289TIP3    H2 6832   0.574   2.117   1.818  0.6030 -1.9229 -0.8461
 2290TIP3   OH2 6833   4.024   5.771   1.958  0.0913 -0.0323 -0.8033
 2290TIP3    H1 6834   4.094   5.829   1.987  1.4230 -1.0648 -1.8245
 2290TIP3    H2 6835   3.945   5.825   1.962  0.4521  0.5085  2.6760
 2291TIP3   OH2 6836   0.083   4.883   1.614  0.1709 -0.0565  0.7292
 2291TIP3    H1 6837   0.019   4.951   1.634  0.9187  0.8834  0.0420
 2291TIP3    H2 6838   0.046   4.803   1.651 -1.4425  0.4348  0.2661
 2292TIP3   OH2 6839   5.036   5.960   1.055  0.4812 -0.2795 -0.4272
 2292TIP3    H1 6840   5.082   5.883   1.022  2.0500  0.8800 -1.0498
 2292TIP3    H2 6841   5.104   6.025   1.068 -0.9654  1.4974 -1.3170
 2293TIP3   OH2 6842   3.001   6.321   3.127  0.1546 -0.1295  0.4865
 2293TIP3    H1 6843   3.044   6.369   3.198  0.8941 -0.8080  0.5159
 2293TIP3    H2 6844   3.045   6.352   3.047 -0.8977  0.8751  0.2682
 2294TIP3   OH2 6845   3.638   5.403   0.452 -0.3231  0.0887  0.0090
 2294TIP3    H1 6846   3.700   5.349   0.403 -0.0831 -0.4683  0.9192
 2294TIP3    H2 6847   3.656   5.384   0.544  0.2621  2.2595  0.3882
 2295TIP3   OH2 6848   6.021   0.442   1.207 -0.1249 -0.3861 -0.3992
 2295TIP3    H1 6849   6.041   0.494   1.285 -1.0309  0.0620 -0.4481
 2295TIP3    H2 6850   6.043   0.499   1.134 -0.5935 -0.2820 -0.4594
 2296TIP3   OH2 6851   2.560   4.745   3.108 -0.1940 -0.4895 -0.0607
 2296TIP3    H1 6852   2.465   4.755   3.106 -0.3501 -1.6910  0.4424
 2296TIP3    H2 6853   2.588   4.764   3.019 -1.0005 -0.9281 -0.4209
 2297TIP3   OH2 6854   0.604   2.840   4.989 -0.0338  0.1429  0.5409
 2297TIP3    H1 6855   0.615   2.867   5.080  0.3921  0.9181  0.2618
 2297TIP3    H2 6856   0.520   2.795   4.989 -1.3414  2.4120  0.8233
 2298TIP3   OH2 6857   1.797   6.493   5.628 -0.6452  0.1670  0.4561
 2298TIP3    H1 6858   1.707   6.517   5.609 -0.0289  1.8807 -0.5243
 2298TIP3    H2 6859   1.816   6.421   5.567 -1.1308  0.3006  0.1405
 2299TIP3   OH2 6860   6.085   1.882   5.680 -0.3843  0.1573 -0.6466
 2299TIP3    H1 6861   6.103   1.865   5.588  0.8037  0.3869 -0.4663
 2299TIP3    H2 6862   6.049   1.799   5.713  1.2154 -0.6481 -0.8183
 2300TIP3   OH2 6863   2.898   4.165   4.797  0.2417  0.6833 -0.2936
 2300TIP3    H1 6864   2.973   4.219   4.823 -0.9330  1.4544  1.7369
 2300TIP3    H2 6865   2.869   4.123   4.878  0.2097 -1.9321 -1.5581
 2301TIP3   OH2 6866   5.208   2.802   4.659  0.4292 -0.1552 -0.0274
 2301TIP3    H1 6867   5.265   2.731   4.689 -1.7912 -2.1282 -0.1585
 2301TIP3    H2 6868   5.216   2.800   4.564  1.1123  0.4717  0.0074
 2302TIP3   OH2 6869   3.084   1.952   5.273 -0.4714 -0.1203  0.1762
 2302TIP3    H1 6870   3.102   1.858   5.268 -0.6269 -0.1326 -4.1980
 2302TIP3    H2 6871   3.169   1.992   5.290  0.2695 -0.9797 -1.3171
 2303TIP3   OH2 6872   2.414   3.948   1.710  0.1358 -0.2704  0.6170
 2303TIP3    H1 6873   2.421   4.011   1.782 -3.1023 -0.9960  1.7409
 2303TIP3    H2 6874   2.383   3.999   1.636  0.8269 -0.0090  0.4930
 2304TIP3   OH2 6875   5.849   5.417   4.494  0.1661  0.1030 -0.3624
 2304TIP3    H1 6876   5.818   5.501   4.460  0.7933  1.1439  1.4983
 2304TIP3    H2 6877   5.790   5.396   4.566 -0.4121 -1.4485 -1.2344
 2305TIP3   OH2 6878   0.408   4.068   5.316  0.0400  0.2923 -0.2343
 2305TIP3    H1 6879   0.443   4.043   5.231  2.4299 -0.6780  0.9527
 2305TIP3    H2 6880   0.483   4.102   5.364 -0.9642 -0.3879  1.9311
 2306TIP3   OH2 6881   0.658   3.073   2.574 -0.2411 -0.0741  0.2300
 2306TIP3    H1 6882   0.709   2.998   2.545 -0.1318 -0.3931  1.2400
 2306TIP3    H2 6883   0.719   3.147   2.566 -0.5693  0.0571 -1.4619
 2307TIP3   OH2 6884   0.669   3.521   1.014 -0.6583 -0.1236 -0.3778
 2307TIP3    H1 6885   0.703   3.465   1.084 -1.7851  0.1485  0.4255
 2307TIP3    H2 6886   0.622   3.460   0.956  1.0088 -0.4786 -1.4161
 2308TIP3   OH2 6887   3.610   1.445   1.173  0.2084  0.0168 -0.2486
 2308TIP3    H1 6888   3.687   1.486   1.134  0.1980  1.3992  1.1311
 2308TIP3    H2 6889   3.536   1.489   1.132  0.1771  0.2311  0.0385
 2309TIP3   OH2 6890   1.036   5.600   0.656 -0.5238  0.1179 -0.5153
 2309TIP3    H1 6891   1.080   5.530   0.705 -1.4794  0.5482  1.0555
 2309TIP3    H2 6892   1.107   5.658   0.628  0.0142  0.3855  1.2698
 2310TIP3   OH2 6893   5.686   2.121   2.876 -0.6586 -0.5553  0.5018
 2310TIP3    H1 6894   5.695   2.190   2.942  0.0423 -1.2862  1.1933
 2310TIP3    H2 6895   5.594   2.127   2.848 -0.6196  0.6233  0.5769
 2311TIP3   OH2 6896   3.513   6.757   4.274  0.3447  0.5003  0.0886
 2311TIP3    H1 6897   3.418   6.769   4.265  0.3172  0.7570  0.7064
 2311TIP3    H2 6898   3.539   6.715   4.192 -0.2597  0.6819 -0.2049
 2312TIP3   OH2 6899   2.181   6.448   3.704  0.2710  0.2682 -0.4816
 2312TIP3    H1 6900   2.269   6.453   3.666  0.7360  1.4465  0.6937
 2312TIP3    H2 6901   2.190   6.489   3.790 -1.6832  1.4262 -0.7867
 2313TIP3   OH2 6902   7.182   0.282   4.687 -0.4329  0.4057 -0.8182
 2313TIP3    H1 6903   7.244   0.341   4.645 -1.4120  1.1153 -1.3231
 2313TIP3    H2 6904   7.096   0.323   4.672 -0.9089  0.2091  1.0945
 2314TIP3   OH2 6905   4.856   5.952   2.425  0.0786 -0.0608 -0.2987
 2314TIP3    H1 6906   4.838   5.877   2.483 -0.1145  0.3503  0.1750
 2314TIP3    H2 6907   4.874   6.025   2.484 -0.6375  0.4914 -0.7523
 2315TIP3   OH2 6908   5.856   3.715   1.972 -0.2309  0.2844 -0.7983
 2315TIP3    H1 6909   5.912   3.756   1.906  0.5094  1.5487  0.5679
 2315TIP3    H2 6910   5.848   3.624   1.943  1.9323  0.2407 -1.4403
 2316TIP3   OH2 6911   0.223   3.214   2.634 -0.7973  0.1381 -0.1904
 2316TIP3    H1 6912   0.233   3.248   2.545  1.8785  1.1156  0.4027
 2316TIP3    H2 6913   0.240   3.290   2.691 -0.1905 -0.9547  1.1486
 2317TIP3   OH2 6914   6.875   0.686   5.041 -0.3128 -0.3410 -0.2519
 2317TIP3    H1 6915   6.913   0.763   5.081  0.2039 -0.9126  0.3839
 2317TIP3    H2 6916   6.926   0.613   5.076 -0.8773 -0.9832 -0.7330
 2318TIP3   OH2 6917   5.135   4.139   2.782 -0.3916 -0.3075  0.0426
 2318TIP3    H1 6918   5.130   4.050   2.747  0.8617  0.1604 -1.4685
 2318TIP3    H2 6919   5.224   4.145   2.819 -1.0970 -0.2324  1.8252
 2319TIP3   OH2 6920   5.593   1.686   1.989 -0.0265  0.7043  0.1763
 2319TIP3    H1 6921   5.502   1.708   1.969  0.0183 -0.0145 -0.9427
 2319TIP3    H2 6922   5.587   1.612   2.050 -0.2338 -0.4455 -1.1867
 2320TIP3   OH2 6923   0.834   0.797   0.177  0.5049 -0.3347 -0.9739
 2320TIP3    H1 6924   0.905   0.783   0.240 -0.7703  0.3530  0.6584
 2320TIP3    H2 6925   0.756   0.764   0.220 -1.1686  3.8330 -0.3693
 2321TIP3   OH2 6926   5.391   2.179   0.150 -0.2069  0.4567  0.5053
 2321TIP3    H1 6927   5.477   2.148   0.178  0.7157  1.3579 -1.1628
 2321TIP3    H2 6928   5.358   2.111   0.092 -0.3661  0.3860  0.6760
 2322TIP3   OH2 6929   4.007   2.990   3.365  0.3734 -0.3478  0.0923
 2322TIP3    H1 6930   4.036   2.968   3.454 -1.1065  1.5977  1.1349
 2322TIP3    H2 6931   3.963   2.911   3.333  0.2565 -0.8307  1.4099
 2323TIP3   OH2 6932   4.679   5.203   5.105 -0.5309 -0.9025  0.0501
 2323TIP3    H1 6933   4.640   5.173   5.023  1.4586  0.0392 -1.3275
 2323TIP3    H2 6934   4.766   5.164   5.106  0.3174  0.8822  0.5789
 2324TIP3   OH2 6935   5.532   1.843   1.678 -0.6280 -0.2303  0.8597
 2324TIP3    H1 6936   5.618   1.803   1.695  0.1366  0.6347 -0.6938
 2324TIP3    H2 6937   5.502   1.873   1.764  0.7696 -0.3165  1.4029
 2325TIP3   OH2 6938   0.073   1.466   2.503 -0.3782 -0.1802 -0.0022
 2325TIP3    H1 6939   0.017   1.539   2.478 -0.8545 -0.7617 -0.6436
 2325TIP3    H2 6940   0.133   1.503   2.568 -0.3350  0.8835 -0.6362
 2326TIP3   OH2 6941   2.052   2.613   4.532 -0.4429  0.1420 -0.4155
 2326TIP3    H1 6942   2.002   2.694   4.533  0.7049  0.8832 -0.8749
 2326TIP3    H2 6943   2.130   2.633   4.480  0.0226 -1.1579 -0.2700
 2327TIP3   OH2 6944   7.009   2.555   3.717  0.0796 -0.5233  0.1396
 2327TIP3    H1 6945   6.957   2.542   3.637 -0.7776  1.5811  0.3136
 2327TIP3    H2 6946   7.008   2.649   3.732  1.6491 -0.7032  1.7279
 2328TIP3   OH2 6947   6.283   1.089   4.190  0.2758 -0.4878 -0.3805
 2328TIP3    H1 6948   6.283   1.004   4.147 -1.5131 -0.8436  0.2429
 2328TIP3    H2 6949   6.237   1.147   4.130 -0.8364 -0.6115  0.3314
 2329TIP3   OH2 6950   1.512   6.544   2.977  0.1811 -0.6160 -0.4080
 2329TIP3    H1 6951   1.430   6.585   2.953  1.1601  2.2943  0.7995
 2329TIP3    H2 6952   1.526   6.477   2.909 -2.7317 -0.6963 -1.0586
 2330TIP3   OH2 6953   2.233   1.893   4.614 -0.3162  0.1367 -0.0890
 2330TIP3    H1 6954   2.256   1.949   4.540 -0.5327 -0.5853 -0.7180
 2330TIP3    H2 6955   2.303   1.908   4.677  1.0267 -0.7763 -1.2873
 2331TIP3   OH2 6956   2.482   4.809   3.395  0.2812  0.7898  0.0438
 2331TIP3    H1 6957   2.443   4.792   3.481  1.0657 -1.8610 -0.0254
 2331TIP3    H2 6958   2.411   4.846   3.343 -0.5896  1.1606  1.4488
 2332TIP3   OH2 6959   0.887   0.375   0.635 -0.2970 -0.1301  0.3419
 2332TIP3    H1 6960   0.887   0.290   0.680  2.4250 -0.8443 -0.8516
 2332TIP3    H2 6961   0.952   0.366   0.566 -0.5989  2.6738 -0.4187
 2333TIP3   OH2 6962   5.995   5.093   1.639  0.3006 -0.4976  0.2758
 2333TIP3    H1 6963   6.036   5.139   1.566 -0.0076  0.0954  0.4691
 2333TIP3    H2 6964   6.057   5.102   1.712  2.0474 -3.6578 -0.6625
 2334TIP3   OH2 6965   1.851   1.924   0.305 -0.1424  0.2431  0.8054
 2334TIP3    H1 6966   1.821   2.012   0.325 -0.8430  0.1458  0.2410
 2334TIP3    H2 6967   1.814   1.869   0.374 -0.3129  0.2928  0.7548
 2335TIP3   OH2 6968   6.203   6.633   2.236 -0.1705  0.0664  0.4546
 2335TIP3    H1 6969   6.145   6.635   2.160 -0.1897  1.7555  0.4800
 2335TIP3    H2 6970   6.185   6.549   2.278 -1.7583  0.0599 -0.1885
 2336TIP3   OH2 6971   1.332   2.926   4.639 -0.1629 -0.4948  0.6448
 2336TIP3    H1 6972   1.326   2.880   4.555 -0.4852  0.5310  0.0975
 2336TIP3    H2 6973   1.328   2.856   4.704 -1.7832 -1.1839 -0.1316
 2337TIP3   OH2 6974   2.727   1.248   0.813  0.0056 -1.0483  0.2825
 2337TIP3    H1 6975   2.674   1.328   0.807 -0.1548 -1.2478 -1.2719
 2337TIP3    H2 6976   2.677   1.183   0.763  0.9854 -1.6415  0.0619
 2338TIP3   OH2 6977   3.880   5.741   2.928 -0.0885  0.7140  0.6967
 2338TIP3    H1 6978   3.960   5.750   2.875  1.1349 -2.2200  1.8379
 2338TIP3    H2 6979   3.836   5.826   2.919  1.8564  1.5929 -2.0197
 2339TIP3   OH2 6980   2.472   0.881   4.311  0.2658 -0.1844  0.3867
 2339TIP3    H1 6981   2.404   0.932   4.267  0.6595 -0.1466 -0.1830
 2339TIP3    H2 6982   2.452   0.890   4.404 -1.0412 -0.9020  0.2005
 2340TIP3   OH2 6983   0.824   5.748   1.203  0.3163 -0.5264  0.1049
 2340TIP3    H1 6984   0.799   5.823   1.149 -1.8666  0.5834  2.4321
 2340TIP3    H2 6985   0.909   5.773   1.239  0.0629  0.4280  0.0893
 2341TIP3   OH2 6986   5.888   0.458   2.645 -0.7547 -0.0206  0.1649
 2341TIP3    H1 6987   5.862   0.438   2.555  0.1165 -0.3588 -0.0229
 2341TIP3    H2 6988   5.813   0.504   2.682 -2.3306 -2.4500  0.2160
 2342TIP3   OH2 6989   5.804   6.612   5.457 -0.0215  0.2579 -0.1065
 2342TIP3    H1 6990   5.741   6.598   5.528  0.8932 -0.5586  0.5693
 2342TIP3    H2 6991   5.755   6.660   5.391 -1.4034 -0.5177  0.3221
 2343TIP3   OH2 6992   3.799   6.120   4.943  0.2411 -0.2298 -0.2258
 2343TIP3    H1 6993   3.860   6.190   4.968 -0.3713  0.2758 -0.0908
 2343TIP3    H2 6994   3.828   6.044   4.992  0.6779  0.0432 -0.0554
 2344TIP3   OH2 6995   1.837   5.941   1.133 -0.3235 -0.8285  0.0592
 2344TIP3    H1 6996   1.886   5.892   1.067 -0.9482 -1.3078 -0.0521
 2344TIP3    H2 6997   1.852   6.033   1.110 -1.5029 -0.9876 -1.4795
 2345TIP3   OH2 6998   2.524   0.721   4.062 -0.0256 -0.0097 -0.6283
 2345TIP3    H1 6999   2.533   0.801   4.114 -1.2386  0.7583 -1.5515
 2345TIP3    H2 7000   2.438   0.687   4.087 -0.0617 -0.3299 -1.1763
 2346TIP3   OH2 7001   1.679   4.585   3.872  0.5290 -0.5441 -0.4610
 2346TIP3    H1 7002   1.679   4.500   3.828  1.9238 -1.0844  0.5119
 2346TIP3    H2 7003   1.771   4.611   3.874  0.3406  0.1374  0.8051
 2347TIP3   OH2 7004   0.348   5.343   2.047 -0.0750 -0.1077 -0.1238
 2347TIP3    H1 7005   0.407   5.418   2.039 -0.1848  0.1244  1.0538
 2347TIP3    H2 7006   0.338   5.310   1.958  2.4500 -0.6513 -0.2678
 2348TIP3   OH2 7007   2.556   1.603   4.036  0.0378  0.1125 -0.4983
 2348TIP3    H1 7008   2.597   1.517   4.034  1.4174  0.7636 -1.5010
 2348TIP3    H2 7009   2.469   1.587   4.073 -0.3640 -1.9585 -2.1446
 2349TIP3   OH2 7010   3.078   4.823   4.650 -0.1786 -0.3144  0.5088
 2349TIP3    H1 7011   3.043   4.845   4.563  1.1705 -0.6829 -0.1531
 2349TIP3    H2 7012   3.144   4.757   4.633 -1.5951 -2.2652  2.0898
 2350TIP3   OH2 7013   5.383   4.884   4.709  0.0323  0.4887 -0.5651
 2350TIP3    H1 7014   5.395   4.922   4.622 -0.6174  1.8167 -0.1084
 2350TIP3    H2 7015   5.418   4.795   4.702  1.2429  1.0216 -1.8107
 2351TIP3   OH2 7016   2.549   0.280   0.765  0.2239 -0.2904 -0.1597
 2351TIP3    H1 7017   2.567   0.221   0.837  0.5342 -0.0629 -0.0467
 2351TIP3    H2 7018   2.591   0.362   0.790 -1.2905  0.3896  0.2909
 2352TIP3   OH2 7019   2.399   6.519   2.406  0.2924  0.1831  0.1771
 2352TIP3    H1 7020   2.384   6.427   2.429 -0.6665  0.1322 -0.5911
 2352TIP3    H2 7021   2.331   6.567   2.453 -0.2701  0.3077 -0.7394
 2353TIP3   OH2 7022   6.926   2.787   2.728  0.1173  0.1547  0.0568
 2353TIP3    H1 7023   6.948   2.701   2.691 -0.3920 -0.4493  1.0975
 2353TIP3    H2 7024   6.871   2.767   2.803  0.0867  1.4051  0.3914
 2354TIP3   OH2 7025   7.155   0.482   3.338  0.1176 -0.1539 -0.5721
 2354TIP3    H1 7026   7.140   0.399   3.384 -0.7891  0.0316 -0.5179
 2354TIP3    H2 7027   7.249   0.482   3.320  0.1056 -1.2810 -0.7485
 2355TIP3   OH2 7028   4.973   4.931   4.545  0.1834  0.4232  0.4728
 2355TIP3    H1 7029   4.933   4.847   4.569 -1.7168  1.6494  1.9240
 2355TIP3    H2 7030   4.909   4.971   4.486 -0.4849  2.1192  2.2488
 2356TIP3   OH2 7031   5.312   4.213   0.370  0.2992  0.0950  0.0032
 2356TIP3    H1 7032   5.357   4.265   0.304  1.2319 -1.6670 -0.8145
 2356TIP3    H2 7033   5.227   4.193   0.331  0.0838  0.6728  0.1659
 2357TIP3   OH2 7034   0.504   1.305   4.936 -0.3465  0.2324 -0.1209
 2357TIP3    H1 7035   0.531   1.300   4.844 -0.5246 -0.2710 -0.1484
 2357TIP3    H2 7036   0.416   1.268   4.937 -1.2137  2.1770 -0.0902
 2358TIP3   OH2 7037   3.580   1.664   1.627 -0.4657 -0.0360 -0.5216
 2358TIP3    H1 7038   3.537   1.585   1.594 -1.7220 -0.3688  1.7290
 2358TIP3    H2 7039   3.639   1.632   1.695  0.4770  0.8176 -0.9069
 2359TIP3   OH2 7040   5.230   5.051   4.094  0.3820  0.1847 -0.0899
 2359TIP3    H1 7041   5.298   5.114   4.118  0.5784 -0.6560  1.7993
 2359TIP3    H2 7042   5.179   5.040   4.175  1.0817 -2.9488  0.0573
 2360TIP3   OH2 7043   6.740   2.596   1.846 -0.0090 -0.5660 -0.3373
 2360TIP3    H1 7044   6.735   2.655   1.921 -1.6431 -0.5045 -0.4539
 2360TIP3    H2 7045   6.685   2.637   1.779  0.0579 -1.4682 -0.9696
 2361TIP3   OH2 7046   2.505   6.272   0.685 -0.0605  0.2904  0.1041
 2361TIP3    H1 7047   2.465   6.336   0.626  0.3080  0.7341  0.3268
 2361TIP3    H2 7048   2.461   6.285   0.769 -1.6979 -1.3987 -0.4132
 2362TIP3   OH2 7049   3.904   2.204   2.237 -0.1585 -0.7727  0.1154
 2362TIP3    H1 7050   3.964   2.208   2.311  0.3434 -2.6547 -0.1508
 2362TIP3    H2 7051   3.818   2.222   2.276  0.4671  1.7666  0.5215
 2363TIP3   OH2 7052   4.631   6.560   5.826 -0.4315 -0.6367 -0.1237
 2363TIP3    H1 7053   4.599   6.469   5.827  0.4530 -0.9507  0.5078
 2363TIP3    H2 7054   4.570   6.605   5.767  0.3372 -2.0740 -2.1528
 2364TIP3   OH2 7055   3.273   3.302   5.283 -0.0660 -0.0966  0.2312
 2364TIP3    H1 7056   3.352   3.278   5.233  0.7537  2.1041  0.3377
 2364TIP3    H2 7057   3.202   3.292   5.220  0.3028 -1.8828  0.0506
 2365TIP3   OH2 7058   6.979   0.680   1.971  0.4795  0.7068  0.0108
 2365TIP3    H1 7059   7.034   0.602   1.964  0.6403  0.3233  3.6043
 2365TIP3    H2 7060   6.890   0.646   1.980  0.3319  1.0323 -0.2235
 2366TIP3   OH2 7061   5.437   0.098   2.537 -0.5106 -0.0541 -0.4267
 2366TIP3    H1 7062   5.350   0.103   2.576 -0.5190  1.7489 -0.6026
 2366TIP3    H2 7063   5.485   0.039   2.595 -1.2338  0.6372  0.9378
 2367TIP3   OH2 7064   0.961   0.492   0.173 -0.0097  0.4277  0.0203
 2367TIP3    H1 7065   0.876   0.449   0.177  0.3430 -0.2164  0.9033
 2367TIP3    H2 7066   0.960   0.540   0.091 -0.6559 -0.7781 -0.7058
 2368TIP3   OH2 7067   4.277   3.301   3.960  0.0028  0.5431  0.2204
 2368TIP3    H1 7068   4.305   3.238   3.894 -0.4528  0.8338 -0.2596
 2368TIP3    H2 7069   4.346   3.299   4.026  0.6973  0.5730 -0.4847
 2369TIP3   OH2 7070   1.054   1.472   0.540 -0.1132 -0.3927 -0.3850
 2369TIP3    H1 7071   1.105   1.418   0.479 -1.5108 -0.7206 -1.2944
 2369TIP3    H2 7072   1.076   1.563   0.515 -0.1309 -0.5277 -0.9108
 2370TIP3   OH2 7073   6.918   5.540   3.885 -0.4212  0.1069  0.0933
 2370TIP3    H1 7074   6.965   5.552   3.968 -1.2670  1.5442  0.3964
 2370TIP3    H2 7075   6.881   5.626   3.866  1.7501  0.5102 -3.0588
 2371TIP3   OH2 7076   5.902   2.531   3.053  0.0078 -0.0508 -0.1491
 2371TIP3    H1 7077   5.978   2.529   2.995  1.0335  0.2508  1.1429
 2371TIP3    H2 7078   5.937   2.557   3.138 -1.8022  1.9755  0.0823
 2372TIP3   OH2 7079   0.151   2.575   2.725 -0.3097  0.2626 -0.4421
 2372TIP3    H1 7080   0.207   2.609   2.655 -0.6824  1.4647 -0.1820
 2372TIP3    H2 7081   0.200   2.592   2.805 -0.3430 -0.1583 -0.3304
 2373TIP3   OH2 7082   7.108   3.693   3.374  0.0494 -0.1497 -0.0276
 2373TIP3    H1 7083   7.074   3.664   3.458  1.9304  0.9879  1.2147
 2373TIP3    H2 7084   7.037   3.677   3.312 -1.9334  0.2635  2.0097
 2374TIP3   OH2 7085   1.359   6.664   3.923  0.2315  0.0066 -0.0694
 2374TIP3    H1 7086   1.341   6.611   3.845  0.6930 -1.1947  0.6047
 2374TIP3    H2 7087   1.449   6.643   3.946 -0.5297 -1.3778  2.0195
 2375TIP3   OH2 7088   3.663   5.779   4.648  0.7131  0.2898 -0.3003
 2375TIP3    H1 7089   3.753   5.762   4.677  0.7737  0.3428 -0.4509
 2375TIP3    H2 7090   3.627   5.692   4.630  0.9831  0.3077 -0.9575
 2376TIP3   OH2 7091   6.622   6.590   3.145  0.6515 -1.1838  0.0227
 2376TIP3    H1 7092   6.675   6.515   3.119  0.9246 -1.0525  0.1882
 2376TIP3    H2 7093   6.643   6.658   3.081 -0.0359 -1.4298 -0.4733
 2377TIP3   OH2 7094   1.821   1.031   2.364  0.5702 -0.4211 -0.5140
 2377TIP3    H1 7095   1.788   1.047   2.453  0.7673  1.3906 -0.7388
 2377TIP3    H2 7096   1.891   0.966   2.376 -0.8010 -1.8298  0.3609
 2378TIP3   OH2 7097   0.923   1.823   2.414  0.3357 -0.2689 -0.3816
 2378TIP3    H1 7098   0.929   1.801   2.507 -1.2620 -0.1548 -0.2214
 2378TIP3    H2 7099   0.913   1.738   2.370 -0.6162 -0.2173 -0.2745
 2379TIP3   OH2 7100   0.665   6.532   3.807 -0.2024  0.4071 -0.2182
 2379TIP3    H1 7101   0.644   6.585   3.730  0.3883 -2.0592 -2.2332
 2379TIP3    H2 7102   0.597   6.553   3.871 -2.5335  0.4184 -2.5327
 2380TIP3   OH2 7103   6.493   6.256   3.853  0.6167  0.3081 -0.6049
 2380TIP3    H1 7104   6.578   6.298   3.838  0.8632  0.1556  0.3468
 2380TIP3    H2 7105   6.441   6.323   3.898  1.2046 -0.5526  1.4658
 2381TIP3   OH2 7106   2.091   5.712   4.402 -0.3547 -0.2020  0.7520
 2381TIP3    H1 7107   2.154   5.771   4.362 -1.9158  0.6901 -0.5120
 2381TIP3    H2 7108   2.070   5.753   4.486 -0.6974  0.5433  0.3109
 2382TIP3   OH2 7109   0.805   6.231   3.531 -0.3576 -0.4445 -0.2525
 2382TIP3    H1 7110   0.837   6.147   3.564  1.6023 -0.2173 -1.4084
 2382TIP3    H2 7111   0.746   6.206   3.459  0.4343 -0.8457 -0.7778
 2383TIP3   OH2 7112   6.291   6.295   4.563  0.3797 -0.4369  0.5589
 2383TIP3    H1 7113   6.356   6.232   4.532 -0.0596  0.1457 -1.7192
 2383TIP3    H2 7114   6.274   6.269   4.654  3.9349 -0.4579  1.3625
 2384TIP3   OH2 7115   4.217   2.169   0.202 -0.3870  0.0505  0.1930
 2384TIP3    H1 7116   4.250   2.257   0.180 -1.5874  0.8792  1.5596
 2384TIP3    H2 7117   4.295   2.114   0.202  0.3777  1.0661 -0.8594
 2385TIP3   OH2 7118   3.448   0.533   4.705 -0.3464  0.0022 -0.0147
 2385TIP3    H1 7119   3.363   0.513   4.745  0.0223 -0.2207  0.6733
 2385TIP3    H2 7120   3.481   0.448   4.675  0.5181 -0.2382  1.5132
 2386TIP3   OH2 7121   0.239   6.426   3.361 -0.0652 -0.5581 -0.1208
 2386TIP3    H1 7122   0.208   6.499   3.415  0.3312 -0.4031 -0.1059
 2386TIP3    H2 7123   0.331   6.443   3.346  0.0753 -1.1449  0.0245
 2387TIP3   OH2 7124   2.317   0.188   0.375 -0.1238  0.5003 -0.1660
 2387TIP3    H1 7125   2.304   0.275   0.413  0.0600 -0.2566  1.7580
 2387TIP3    H2 7126   2.325   0.130   0.451  2.0771 -0.8716 -1.3325
 2388TIP3   OH2 7127   3.298   1.121   5.052 -0.1332  0.3559 -0.2297
 2388TIP3    H1 7128   3.281   1.151   4.963 -0.0981  2.8314  0.5196
 2388TIP3    H2 7129   3.232   1.164   5.105  0.3553 -0.4200  1.0585
 2389TIP3   OH2 7130   4.957   0.242   2.271  0.5974  0.2748 -0.7244
 2389TIP3    H1 7131   4.937   0.151   2.247  2.0805  0.0308 -1.1096
 2389TIP3    H2 7132   4.983   0.283   2.188  0.0685  1.0338 -0.5287
 2390TIP3   OH2 7133   5.217   4.744   3.393  0.0029  0.2565 -0.0268
 2390TIP3    H1 7134   5.296   4.690   3.383 -0.3436 -0.1040 -0.9041
 2390TIP3    H2 7135   5.160   4.693   3.451 -0.6105 -0.6696 -1.4064
 2391TIP3   OH2 7136   3.984   5.307   3.292  0.0768 -0.4539  0.2356
 2391TIP3    H1 7137   4.005   5.217   3.270 -0.3144 -0.3761 -0.4693
 2391TIP3    H2 7138   4.062   5.357   3.268 -0.1453 -0.4450 -0.4785
 2392TIP3   OH2 7139   3.824   5.981   0.591 -0.0422 -0.2858 -0.1047
 2392TIP3    H1 7140   3.762   5.942   0.653 -0.8765 -0.0004 -0.7404
 2392TIP3    H2 7141   3.804   6.075   0.593 -0.8748 -0.3956 -1.6304
 2393TIP3   OH2 7142   1.872   5.496   0.383 -0.0673  0.0627  0.5760
 2393TIP3    H1 7143   1.845   5.586   0.365  0.6956 -0.1392 -1.9787
 2393TIP3    H2 7144   1.793   5.444   0.371 -0.4977  0.3610  2.0032
 2394TIP3   OH2 7145   0.846   0.282   5.393  0.5624  0.3266 -0.5932
 2394TIP3    H1 7146   0.905   0.269   5.318 -1.5058 -1.1655 -2.1028
 2394TIP3    H2 7147   0.827   0.375   5.393  0.4495  0.3349 -2.1050
 2395TIP3   OH2 7148   2.355   4.748   5.023  0.3313 -0.1536 -0.4155
 2395TIP3    H1 7149   2.441   4.720   4.991  0.5330 -0.2066  0.1567
 2395TIP3    H2 7150   2.360   4.735   5.118 -0.0948  0.4216 -0.3102
 2396TIP3   OH2 7151   6.768   5.505   3.215  0.1033  0.2023  0.3250
 2396TIP3    H1 7152   6.800   5.595   3.216  1.4073 -0.2289  1.6205
 2396TIP3    H2 7153   6.828   5.458   3.157 -0.0187  0.0040  0.3559
 2397TIP3   OH2 7154   1.316   2.407   2.084  0.1762 -0.4264 -0.7069
 2397TIP3    H1 7155   1.291   2.342   2.019 -0.5536 -2.1804  1.2425
 2397TIP3    H2 7156   1.281   2.375   2.166 -1.1468  2.9611  0.2448
 2398TIP3   OH2 7157   5.515   2.055   5.843  0.5465 -0.6709 -0.1161
 2398TIP3    H1 7158   5.598   2.095   5.871  0.2797 -0.6313  0.6433
 2398TIP3    H2 7159   5.475   2.025   5.924 -0.9199  0.7158 -0.2941
 2399TIP3   OH2 7160   7.163   2.773   5.210 -0.0775  0.6765  0.6728
 2399TIP3    H1 7161   7.085   2.718   5.204  0.7502 -0.4265 -0.5405
 2399TIP3    H2 7162   7.236   2.712   5.218  0.7420  1.6528  0.9267
 2400TIP3   OH2 7163   2.397   3.745   1.932  0.7848  0.1454  0.3080
 2400TIP3    H1 7164   2.304   3.751   1.913  0.4711  0.5914  1.8524
 2400TIP3    H2 7165   2.435   3.821   1.888  0.3965  0.0827 -0.1446
 2401TIP3   OH2 7166   2.692   4.472   2.920 -0.5965  0.2769 -0.0470
 2401TIP3    H1 7167   2.599   4.494   2.926 -0.5728  0.7023 -0.9772
 2401TIP3    H2 7168   2.693   4.385   2.880 -0.6516 -0.9238  2.4271
 2402TIP3   OH2 7169   4.163   0.737   5.454  0.1342 -0.1076  0.2396
 2402TIP3    H1 7170   4.132   0.695   5.374  1.2430  0.5119 -0.5285
 2402TIP3    H2 7171   4.170   0.665   5.517  0.5528 -0.8326 -0.6091
 2403TIP3   OH2 7172   4.703   5.702   2.499  0.0933  0.1406  0.4625
 2403TIP3    H1 7173   4.663   5.619   2.473  1.5438 -0.4062 -0.1379
 2403TIP3    H2 7174   4.796   5.682   2.508  0.6071  1.8820 -0.4957
 2404TIP3   OH2 7175   2.107   0.143   2.894 -0.5502 -0.3105 -0.0720
 2404TIP3    H1 7176   2.192   0.184   2.883  0.2634 -2.1815 -1.2387
 2404TIP3    H2 7177   2.053   0.181   2.824 -0.6218  0.6981  0.5186
 2405TIP3   OH2 7178   1.540   6.106   4.023  0.1545 -0.2541 -0.4776
 2405TIP3    H1 7179   1.490   6.093   3.942  0.0440  0.5102 -0.5451
 2405TIP3    H2 7180   1.623   6.144   3.994  1.2432 -2.4735 -0.4567
 2406TIP3   OH2 7181   0.823   6.715   1.944  0.0408  0.3972 -0.3220
 2406TIP3    H1 7182   0.919   6.710   1.941 -0.0382 -1.8768 -1.2574
 2406TIP3    H2 7183   0.796   6.702   1.853 -1.1673 -0.4674  0.1425
 2407TIP3   OH2 7184   6.034   2.321   1.987 -0.1430  0.3465  0.1810
 2407TIP3    H1 7185   6.070   2.401   2.024  1.3273  0.0210 -0.4774
 2407TIP3    H2 7186   6.075   2.251   2.037 -0.4729 -0.0230 -0.0588
 2408TIP3   OH2 7187   2.288   3.068   2.898  0.4989  0.1542 -0.1746
 2408TIP3    H1 7188   2.287   3.163   2.906 -0.9495  0.2599 -1.2717
 2408TIP3    H2 7189   2.225   3.048   2.828  0.2762 -1.6422  0.4676
 2409TIP3   OH2 7190   0.896   4.289   1.054 -0.1048  0.6311  0.5333
 2409TIP3    H1 7191   0.916   4.214   1.110 -0.0398 -0.8465 -1.3828
 2409TIP3    H2 7192   0.803   4.282   1.036 -0.1097  1.0296  0.4028
 2410TIP3   OH2 7193   6.217   2.286   0.532  0.2877  1.0631 -0.0841
 2410TIP3    H1 7194   6.281   2.219   0.555  0.0675  0.8372 -0.1201
 2410TIP3    H2 7195   6.265   2.349   0.479  0.1706  0.2162 -1.2256
 2411TIP3   OH2 7196   0.007   4.172   1.039 -0.1952 -0.4583  0.0023
 2411TIP3    H1 7197   0.013   4.175   0.944 -1.0953  1.0197 -0.0355
 2411TIP3    H2 7198   0.085   4.219   1.070  0.7544 -1.9998  0.0551
 2412TIP3   OH2 7199   2.129   1.368   2.843  0.2590 -0.1094  0.7869
 2412TIP3    H1 7200   2.098   1.457   2.863 -0.4987 -0.2022  0.0479
 2412TIP3    H2 7201   2.142   1.368   2.749 -0.1188 -0.8975  0.7298
 2413TIP3   OH2 7202   3.910   3.083   1.362  0.4511 -0.1762 -0.1984
 2413TIP3    H1 7203   3.942   3.154   1.417 -0.8593  0.5345 -0.3184
 2413TIP3    H2 7204   3.897   3.124   1.276 -2.3302  0.0247  0.2464
 2414TIP3   OH2 7205   2.950   3.641   0.601  0.3306 -0.1591  0.1097
 2414TIP3    H1 7206   2.893   3.712   0.633  1.1895  0.3630  0.5232
 2414TIP3    H2 7207   2.976   3.594   0.681  0.8710 -0.0929 -0.0265
 2415TIP3   OH2 7208   4.872   6.133   3.982  0.2611  0.1427  0.4414
 2415TIP3    H1 7209   4.943   6.104   3.925 -0.2924 -0.3507 -0.0122
 2415TIP3    H2 7210   4.895   6.098   4.068  0.3629 -0.3920  0.2062
 2416TIP3   OH2 7211   5.650   0.558   3.217  0.2859 -0.3780 -0.1178
 2416TIP3    H1 7212   5.613   0.469   3.221  0.2906 -0.3587  3.0160
 2416TIP3    H2 7213   5.580   0.611   3.178  0.1166 -1.6178 -1.6191
 2417TIP3   OH2 7214   0.923   2.237   1.153 -0.8631  0.2911  0.1142
 2417TIP3    H1 7215   0.956   2.157   1.112 -0.6479  0.1179  0.6258
 2417TIP3    H2 7216   0.968   2.308   1.106  0.1840  0.0660  0.7416
 2418TIP3   OH2 7217   1.305   3.608   4.109 -0.3754 -0.3058  0.1082
 2418TIP3    H1 7218   1.374   3.571   4.055 -1.0552 -1.2002 -0.1631
 2418TIP3    H2 7219   1.256   3.533   4.141 -1.8099  0.3350 -0.4894
 2419TIP3   OH2 7220   1.044   5.153   1.870 -0.4829 -0.1096 -0.3433
 2419TIP3    H1 7221   1.090   5.187   1.793 -1.3324  0.2647 -0.6990
 2419TIP3    H2 7222   1.098   5.080   1.900 -0.2353 -0.3844 -1.4093
 2420TIP3   OH2 7223   5.222   2.889   1.094 -0.4790  0.0900  0.0278
 2420TIP3    H1 7224   5.138   2.885   1.140  0.2257 -1.7738  1.2822
 2420TIP3    H2 7225   5.274   2.820   1.134  1.7201  1.2766 -0.6110
 2421TIP3   OH2 7226   2.392   5.133   5.550  0.1289 -0.3098  0.1295
 2421TIP3    H1 7227   2.413   5.046   5.514  1.7405 -0.5411  1.5027
 2421TIP3    H2 7228   2.344   5.114   5.630 -0.6528  0.1266 -0.2237
 2422TIP3   OH2 7229   2.598   1.487   0.029  0.4092  0.8286  0.3731
 2422TIP3    H1 7230   2.668   1.464   0.089  0.2531  1.6527  0.8834
 2422TIP3    H2 7231   2.643   1.512  -0.052  0.5814 -1.2464 -0.2267
 2423TIP3   OH2 7232   3.955   1.355   1.297  0.0507  0.1739 -0.1047
 2423TIP3    H1 7233   3.916   1.424   1.244  1.3005  0.8902 -0.1336
 2423TIP3    H2 7234   3.886   1.290   1.306 -1.4970  1.8585  0.7543
 2424TIP3   OH2 7235   0.219   6.154   3.941  0.1049 -0.4288 -0.2624
 2424TIP3    H1 7236   0.272   6.141   3.863 -2.5575  0.1444 -2.3144
 2424TIP3    H2 7237   0.180   6.069   3.958 -0.4385 -0.2176 -0.4414
 2425TIP3   OH2 7238   2.420   5.829   4.658 -0.4238 -0.1116  0.5917
 2425TIP3    H1 7239   2.361   5.803   4.728  0.0991 -1.3428  0.5972
 2425TIP3    H2 7240   2.434   5.749   4.607 -0.8944  0.7761 -1.0059
 2426TIP3   OH2 7241   0.703   4.833   0.635 -0.3881 -0.1091 -0.5320
 2426TIP3    H1 7242   0.687   4.928   0.640  0.3037  0.2860 -3.6083
 2426TIP3    H2 7243   0.787   4.826   0.590 -0.3077 -2.2147 -0.1405
 2427TIP3   OH2 7244   5.356   3.324   3.722 -0.8935 -0.3168 -0.0945
 2427TIP3    H1 7245   5.437   3.297   3.764 -1.6309  1.0959  2.4940
 2427TIP3    H2 7246   5.381   3.398   3.666 -0.2010 -0.8719 -0.5327
 2428TIP3   OH2 7247   3.844   3.934   2.809  0.0301 -0.0752  0.0430
 2428TIP3    H1 7248   3.911   3.973   2.866 -0.4601  1.4419 -0.3573
 2428TIP3    H2 7249   3.881   3.850   2.782  1.6538  0.6032  0.0452
 2429TIP3   OH2 7250   3.661   1.941   1.418 -0.2026  0.7007 -0.3429
 2429TIP3    H1 7251   3.691   1.965   1.330 -3.5911 -0.3167 -1.9754
 2429TIP3    H2 7252   3.634   1.849   1.410 -0.7163  0.6232  1.7218
 2430TIP3   OH2 7253   5.281   4.917   5.386 -0.3199 -0.0007 -0.5623
 2430TIP3    H1 7254   5.280   4.837   5.438  0.4829  0.3879  0.0585
 2430TIP3    H2 7255   5.308   4.888   5.299 -1.2075 -0.5775 -0.6651
 2431TIP3   OH2 7256   5.062   4.023   4.536 -0.1593 -0.0069 -0.2837
 2431TIP3    H1 7257   5.032   3.947   4.486 -1.4530  0.5086 -0.3353
 2431TIP3    H2 7258   5.154   4.005   4.554 -0.0054 -0.8216 -1.7083
 2432TIP3   OH2 7259   7.148   4.684   2.354 -0.4450 -0.0987 -0.6206
 2432TIP3    H1 7260   7.122   4.594   2.372 -0.1362 -0.1916 -0.6421
 2432TIP3    H2 7261   7.137   4.729   2.438 -0.0247 -0.2923 -0.4609
 2433TIP3   OH2 7262   5.885   6.299   4.399  0.3292 -0.3374  0.1288
 2433TIP3    H1 7263   5.916   6.233   4.461  1.2091  0.0146  0.0755
 2433TIP3    H2 7264   5.931   6.279   4.317  0.9770  0.6249  0.2464
 2434TIP3   OH2 7265   4.810   4.831   2.709 -0.2071 -0.2454 -0.3155
 2434TIP3    H1 7266   4.816   4.739   2.684  1.4538  0.0595 -1.1686
 2434TIP3    H2 7267   4.774   4.875   2.632  0.1953 -0.0158 -0.3773
 2435TIP3   OH2 7268   1.205   6.437   3.441 -0.1614  0.1583  0.4546
 2435TIP3    H1 7269   1.263   6.483   3.502 -0.3063  0.8920  0.0421
 2435TIP3    H2 7270   1.129   6.494   3.432 -0.2042 -0.0125 -0.3091
 2436TIP3   OH2 7271   0.382   6.600   5.020 -0.1870 -0.3048 -0.5342
 2436TIP3    H1 7272   0.472   6.632   5.024  0.0152 -0.9468  0.9905
 2436TIP3    H2 7273   0.328   6.679   5.018  0.3814  0.1046 -0.0589
 2437TIP3   OH2 7274   5.161   5.927   5.792  0.9347 -0.4874 -0.0728
 2437TIP3    H1 7275   5.166   5.925   5.888  1.1427 -3.4476 -0.0518
 2437TIP3    H2 7276   5.251   5.913   5.763  0.7042 -0.7462 -0.6834
 2438TIP3   OH2 7277   2.102   5.930   0.438 -0.0318 -0.3724  0.2032
 2438TIP3    H1 7278   2.174   5.926   0.375  0.3149  1.5717  0.4161
 2438TIP3    H2 7279   2.023   5.916   0.386  0.2566  1.1436 -0.6841
 2439TIP3   OH2 7280   1.785   3.944   4.065  0.3108  0.0528 -0.6735
 2439TIP3    H1 7281   1.732   3.995   4.126  0.2133 -0.0659 -0.6577
 2439TIP3    H2 7282   1.850   3.900   4.120  0.6529  0.4742 -0.7309
 2440TIP3   OH2 7283   1.940   5.997   2.280  0.7073  0.0479 -0.4407
 2440TIP3    H1 7284   1.851   5.962   2.272  0.0106  1.7430 -0.5563
 2440TIP3    H2 7285   1.988   5.959   2.207  0.1974 -1.1786 -0.1622
 2441TIP3   OH2 7286   1.627   3.484   4.956 -0.1930 -0.4403 -0.5149
 2441TIP3    H1 7287   1.634   3.390   4.940 -2.4550 -0.8820  0.6579
 2441TIP3    H2 7288   1.694   3.503   5.022  0.4597 -1.1505 -0.9552
 2442TIP3   OH2 7289   0.895  -0.013   5.276 -0.7475  0.3071  0.6343
 2442TIP3    H1 7290   0.856  -0.030   5.190  1.4549 -1.4474 -0.1348
 2442TIP3    H2 7291   0.946   0.067   5.263  0.1833 -0.3578  0.0263
 2443TIP3   OH2 7292   2.135   5.346   4.907  0.2053 -0.2247  0.2357
 2443TIP3    H1 7293   2.203   5.279   4.915 -0.2646 -0.6613  0.6467
 2443TIP3    H2 7294   2.053   5.297   4.914 -0.1432  0.4447  0.8589
 2444TIP3   OH2 7295   4.686   4.980   2.493 -0.1820  0.2023  0.1404
 2444TIP3    H1 7296   4.640   5.046   2.544  0.4619 -0.5568  1.7825
 2444TIP3    H2 7297   4.776   5.014   2.485 -0.2472  0.2615 -0.4107
 2445TIP3   OH2 7298   4.214   3.795   5.915  0.5914 -0.5677  0.2194
 2445TIP3    H1 7299   4.150   3.812   5.845 -0.7401 -0.0810  1.5131
 2445TIP3    H2 7300   4.260   3.717   5.886  0.5845  0.0254 -1.5458
 2446TIP3   OH2 7301   6.748   1.345   3.307 -0.1108  0.4659 -0.0258
 2446TIP3    H1 7302   6.757   1.384   3.394  2.0150  0.5685 -0.2416
 2446TIP3    H2 7303   6.788   1.258   3.315 -2.1600 -0.5711 -0.3100
 2447TIP3   OH2 7304   0.558   5.774   2.981 -0.1200  0.5047 -0.2668
 2447TIP3    H1 7305   0.555   5.741   2.891 -0.4536  0.9649 -0.4303
 2447TIP3    H2 7306   0.605   5.857   2.974  0.8317  0.0151  0.1614
 2448TIP3   OH2 7307   6.528   2.927   3.645  0.2584  0.1194  0.3807
 2448TIP3    H1 7308   6.456   2.951   3.703  1.3817  1.1003  1.4190
 2448TIP3    H2 7309   6.574   2.858   3.692  0.7254  0.3798  0.3104
 2449TIP3   OH2 7310   4.754   1.309   3.460 -0.5289 -0.2760 -0.3433
 2449TIP3    H1 7311   4.793   1.367   3.395  0.4446 -0.3541  0.1574
 2449TIP3    H2 7312   4.675   1.354   3.489  0.3054  0.8775  0.1690
 2450TIP3   OH2 7313   6.134   0.149   1.602  0.5573  0.1892  0.2160
 2450TIP3    H1 7314   6.218   0.125   1.640  0.0042 -0.6457  0.9581
 2450TIP3    H2 7315   6.143   0.241   1.579  1.0410  0.6373  2.0596
 2451TIP3   OH2 7316   2.782   2.428   4.533  0.2810  0.4166  0.5704
 2451TIP3    H1 7317   2.853   2.486   4.505  0.3058  0.0612 -0.1198
 2451TIP3    H2 7318   2.825   2.366   4.592  0.3045  0.9260  1.1008
 2452TIP3   OH2 7319   2.990   6.760   0.696 -0.8677  0.1712  0.2974
 2452TIP3    H1 7320   2.942   6.790   0.773  0.2179  0.4823  0.8898
 2452TIP3    H2 7321   3.044   6.835   0.671  1.9601 -1.1708  1.8429
 2453TIP3   OH2 7322   4.832   4.952   1.208 -0.3132 -0.3465  0.7242
 2453TIP3    H1 7323   4.884   4.905   1.274  0.2410 -0.3645  0.2816
 2453TIP3    H2 7324   4.745   4.960   1.248  0.0954 -0.0582  1.5979
 2454TIP3   OH2 7325   5.746   6.157   1.185 -0.3985  0.1001  0.0213
 2454TIP3    H1 7326   5.708   6.093   1.125  1.6397  1.3431 -2.8656
 2454TIP3    H2 7327   5.823   6.113   1.221 -1.0696 -0.2992  1.0120
 2455TIP3   OH2 7328   5.341   6.378   3.632  0.4604  1.1276 -0.0586
 2455TIP3    H1 7329   5.389   6.410   3.708  0.6489  2.0113 -0.5358
 2455TIP3    H2 7330   5.291   6.454   3.601 -0.8156  0.3818  0.0882
 2456TIP3   OH2 7331   3.910   4.995   0.271  0.1691  0.0623 -0.1515
 2456TIP3    H1 7332   3.818   4.972   0.257  0.1638  0.4805 -0.8565
 2456TIP3    H2 7333   3.922   4.987   0.366 -1.0236  1.5604  0.1664
 2457TIP3   OH2 7334   7.023   5.943   3.638 -0.4106 -0.4186 -0.2588
 2457TIP3    H1 7335   7.012   6.038   3.647  2.0234 -0.2291  1.7286
 2457TIP3    H2 7336   6.938   5.907   3.662 -0.8837  1.2073  0.6504
 2458TIP3   OH2 7337   2.959   3.885   1.888 -0.3410 -0.0542 -0.0101
 2458TIP3    H1 7338   2.906   3.933   1.825 -1.6007  0.7155  1.5761
 2458TIP3    H2 7339   3.005   3.953   1.938  1.0371 -0.6636 -0.4038
 2459TIP3   OH2 7340   2.000   1.107   2.608 -0.1123  0.3108 -0.4650
 2459TIP3    H1 7341   2.038   1.029   2.649 -0.2659 -0.1839 -1.2342
 2459TIP3    H2 7342   2.075   1.162   2.586 -0.0202  0.5171  0.3289
 2460TIP3   OH2 7343   6.050   2.408   2.760 -0.0459 -0.6405  0.3475
 2460TIP3    H1 7344   6.106   2.358   2.820  0.5181  1.1938  1.4593
 2460TIP3    H2 7345   6.089   2.496   2.759 -0.1204 -0.5560 -2.6683
 2461TIP3   OH2 7346   6.134   5.210   1.855  0.1031  0.1031 -0.0645
 2461TIP3    H1 7347   6.214   5.223   1.905 -0.2468 -0.1620  0.5774
 2461TIP3    H2 7348   6.072   5.174   1.918 -1.1236  2.0547 -0.0787
 2462TIP3   OH2 7349   0.751   4.342   0.105 -0.4125 -0.4506  0.0263
 2462TIP3    H1 7350   0.771   4.382   0.020 -0.0886 -1.5652 -0.4435
 2462TIP3    H2 7351   0.736   4.250   0.085 -1.7228 -0.4806  0.9913
 2463TIP3   OH2 7352   6.020   4.394   5.807  0.3363  0.6569 -0.3810
 2463TIP3    H1 7353   6.021   4.309   5.763 -2.9988  1.0052 -1.3637
 2463TIP3    H2 7354   5.939   4.395   5.858  0.6112  2.9704  0.1548
 2464TIP3   OH2 7355   6.758   6.018   5.087  0.1229  0.0949  0.4658
 2464TIP3    H1 7356   6.710   6.101   5.085  1.6052  1.2180  3.8317
 2464TIP3    H2 7357   6.717   5.969   5.159  2.0267 -0.1720  1.4191
 2465TIP3   OH2 7358   0.806   1.109   1.768 -0.0382  0.6303 -0.3703
 2465TIP3    H1 7359   0.792   1.022   1.806 -0.6515  1.0964  0.4967
 2465TIP3    H2 7360   0.729   1.123   1.712  0.4476  0.3020 -1.1471
 2466TIP3   OH2 7361   1.598   2.520   2.356 -0.5345 -0.0269  0.3063
 2466TIP3    H1 7362   1.650   2.458   2.304  0.2846 -0.0339  1.1069
 2466TIP3    H2 7363   1.532   2.467   2.399 -1.3887  0.0130 -0.9145
 2467TIP3   OH2 7364   4.135   1.610   0.971 -0.4385 -0.2264 -0.1855
 2467TIP3    H1 7365   4.195   1.648   0.907 -0.2106 -0.3277 -0.0335
 2467TIP3    H2 7366   4.155   1.516   0.970 -1.3710 -0.4356 -0.9501
 2468TIP3   OH2 7367   0.136   0.916   2.904  0.3870 -0.3235 -0.1303
 2468TIP3    H1 7368   0.219   0.869   2.898  0.2939 -0.4109 -0.7960
 2468TIP3    H2 7369   0.082   0.878   2.834 -0.6579 -1.1606  1.0734
 2469TIP3   OH2 7370   5.565   3.948   1.258 -0.5742  0.4875 -0.2101
 2469TIP3    H1 7371   5.518   3.866   1.241  0.0497  0.1516 -0.3171
 2469TIP3    H2 7372   5.523   3.982   1.337 -1.4016  0.4942 -0.6361
 2470TIP3   OH2 7373   5.233   4.086   4.117 -0.1865  0.4576 -0.4009
 2470TIP3    H1 7374   5.300   4.154   4.114 -0.5617  0.8414 -3.3831
 2470TIP3    H2 7375   5.271   4.016   4.169  1.6349  1.5476 -0.1979
 2471TIP3   OH2 7376   6.119   0.214   5.034  0.3886  0.3884 -0.5213
 2471TIP3    H1 7377   6.149   0.192   5.122  1.4300  1.7033 -0.5177
 2471TIP3    H2 7378   6.149   0.304   5.021 -1.3515  0.8625 -1.5216
 2472TIP3   OH2 7379   4.322   6.539   5.214  0.6171  0.6779 -0.2754
 2472TIP3    H1 7380   4.318   6.537   5.118  0.3926  0.3155 -0.2634
 2472TIP3    H2 7381   4.415   6.544   5.234  0.6870  0.3844 -0.5127
 2473TIP3   OH2 7382   3.281   5.949   2.482 -0.0600 -0.1537 -0.1894
 2473TIP3    H1 7383   3.199   5.947   2.531  0.0752 -0.7608  0.0219
 2473TIP3    H2 7384   3.307   6.041   2.483 -0.2539 -0.1031  0.5599
 2474TIP3   OH2 7385   0.391   3.499   5.683 -0.0339 -0.2850 -0.5369
 2474TIP3    H1 7386   0.331   3.574   5.684  1.5404  1.0365 -0.2069
 2474TIP3    H2 7387   0.336   3.424   5.704 -1.4702  0.9479  0.3246
 2475TIP3   OH2 7388   2.373   4.204   3.308 -0.0945 -0.7287  0.2245
 2475TIP3    H1 7389   2.354   4.200   3.215  0.9728  1.5434 -0.1624
 2475TIP3    H2 7390   2.337   4.288   3.337  1.1943 -0.5422  1.4315
 2476TIP3   OH2 7391   6.775   0.485   0.088 -0.1569 -0.4154 -0.1091
 2476TIP3    H1 7392   6.761   0.432   0.166  0.2881  1.6765  1.4770
 2476TIP3    H2 7393   6.693   0.533   0.076  1.4404  3.5187  2.6052
 2477TIP3   OH2 7394   3.534   5.883   1.439  0.6014  0.0416 -0.3565
 2477TIP3    H1 7395   3.605   5.895   1.501  0.6398 -1.1888 -0.1287
 2477TIP3    H2 7396   3.455   5.907   1.487  0.8337  1.1992 -0.5415
 2478TIP3   OH2 7397   2.572   0.173   4.435  0.4783  0.1420  0.5795
 2478TIP3    H1 7398   2.579   0.266   4.411 -2.3601 -0.1936 -2.2625
 2478TIP3    H2 7399   2.620   0.127   4.367 -1.1418 -0.5420 -0.1689
 2479TIP3   OH2 7400   4.518   3.525   2.709 -0.0517  0.7640 -0.0088
 2479TIP3    H1 7401   4.436   3.515   2.757 -0.9201  2.1188 -1.1275
 2479TIP3    H2 7402   4.494   3.507   2.618  0.7529  1.7171 -0.4214
 2480TIP3   OH2 7403   3.138   1.602   1.513 -0.5243 -0.6483 -0.0682
 2480TIP3    H1 7404   3.108   1.681   1.557  0.9613 -0.0030 -0.1654
 2480TIP3    H2 7405   3.168   1.545   1.584 -0.3215 -0.5699 -0.0916
 2481TIP3   OH2 7406   3.685   0.132   5.516  0.7177  0.6448 -0.4442
 2481TIP3    H1 7407   3.592   0.113   5.501  0.7125  0.3697 -0.0754
 2481TIP3    H2 7408   3.730   0.049   5.502  0.7640  0.4819  0.5720
 2482TIP3   OH2 7409   2.125   5.411   1.943  0.2281  0.1549 -0.1282
 2482TIP3    H1 7410   2.204   5.442   1.986  0.4308 -0.8809  0.2867
 2482TIP3    H2 7411   2.127   5.452   1.856  1.5044 -0.2639 -0.3219
 2483TIP3   OH2 7412   5.933   6.683   4.483 -0.0497 -0.3177  0.1913
 2483TIP3    H1 7413   5.950   6.640   4.567  3.0319  1.5845  0.6834
 2483TIP3    H2 7414   6.018   6.690   4.441 -1.2261  0.5282 -2.2643
 2484TIP3   OH2 7415   3.548   0.389   3.626  1.1052 -0.2142 -0.0527
 2484TIP3    H1 7416   3.578   0.479   3.623  0.3297  0.0101 -1.8962
 2484TIP3    H2 7417   3.535   0.364   3.535  0.5254 -1.9302  0.4545
 2485TIP3   OH2 7418   4.701   4.317   4.534  0.2408  0.3816 -0.4542
 2485TIP3    H1 7419   4.780   4.286   4.577 -0.6894  0.9045  1.8068
 2485TIP3    H2 7420   4.631   4.298   4.596 -1.5916 -0.8722 -2.7436
 2486TIP3   OH2 7421   4.003   3.619   4.827 -0.3114 -0.0755  0.3120
 2486TIP3    H1 7422   3.988   3.536   4.872 -1.4832 -0.2239 -0.3195
 2486TIP3    H2 7423   3.972   3.686   4.888  0.4966 -0.0986  0.7603
 2487TIP3   OH2 7424   3.305   6.176   3.049  0.1259 -0.5561  0.2897
 2487TIP3    H1 7425   3.296   6.087   3.083 -1.9542 -0.1930  0.8281
 2487TIP3    H2 7426   3.390   6.205   3.081 -0.1533 -1.5529  2.0699
 2488TIP3   OH2 7427   2.962   5.305   1.695 -0.6726 -0.5014 -0.0769
 2488TIP3    H1 7428   3.030   5.362   1.657 -0.7877 -0.6092 -0.4456
 2488TIP3    H2 7429   2.985   5.217   1.665  0.4881 -0.9220  1.8671
 2489TIP3   OH2 7430   3.659   1.334   5.821  0.6896  0.0128  0.4806
 2489TIP3    H1 7431   3.709   1.407   5.787 -0.7161  1.8100  2.0359
 2489TIP3    H2 7432   3.636   1.282   5.744 -0.4420  2.6269 -1.0778
 2490TIP3   OH2 7433   4.874   1.976   0.592 -0.0470  0.1056 -0.2475
 2490TIP3    H1 7434   4.810   1.929   0.538  0.7766 -0.0288 -1.1230
 2490TIP3    H2 7435   4.821   2.026   0.654 -1.0756  1.2044 -1.9285
 2491TIP3   OH2 7436   1.473   3.504   0.518  0.1066 -0.5121 -0.3554
 2491TIP3    H1 7437   1.418   3.565   0.469  0.9297  0.0466 -0.6055
 2491TIP3    H2 7438   1.553   3.496   0.466  2.0940  2.0229  1.9973
 2492TIP3   OH2 7439   6.568   3.796   1.341  0.0412  0.2100  0.1365
 2492TIP3    H1 7440   6.635   3.864   1.336  0.5352 -0.3493 -1.7703
 2492TIP3    H2 7441   6.488   3.840   1.314 -0.3773  0.8286  2.2202
 2493TIP3   OH2 7442   0.371   5.231   5.801  0.0848 -0.4127  0.2736
 2493TIP3    H1 7443   0.457   5.270   5.816  0.3352 -2.0606  4.7099
 2493TIP3    H2 7444   0.312   5.305   5.792  1.4253  0.8921  1.6741
 2494TIP3   OH2 7445   1.483   4.604   3.294 -0.1515  0.4365  0.3857
 2494TIP3    H1 7446   1.430   4.664   3.347 -2.4849  2.2507 -3.5112
 2494TIP3    H2 7447   1.565   4.651   3.280 -0.0008  0.4720  1.3063
 2495TIP3   OH2 7448   2.425   1.084   4.872 -0.4682  0.5338 -0.3019
 2495TIP3    H1 7449   2.331   1.082   4.854 -0.3188  0.1187 -1.1198
 2495TIP3    H2 7450   2.439   1.167   4.918 -1.8006 -1.1421  3.4213
 2496TIP3   OH2 7451   0.343   0.162   4.731 -0.3943 -0.9028  0.1745
 2496TIP3    H1 7452   0.394   0.167   4.649  0.2192 -1.4327  0.5154
 2496TIP3    H2 7453   0.365   0.242   4.777 -1.1745 -0.3324 -0.4183
 2497TIP3   OH2 7454   0.906   0.714   3.282 -0.9315 -0.0773 -0.2019
 2497TIP3    H1 7455   0.965   0.677   3.215 -0.2517  0.7047 -0.0568
 2497TIP3    H2 7456   0.819   0.707   3.244 -0.6583 -0.5772 -0.7453
 2498TIP3   OH2 7457   0.968   5.985   3.387 -0.3729 -0.1050  0.6077
 2498TIP3    H1 7458   1.026   6.031   3.447 -1.8408 -0.4241  2.3654
 2498TIP3    H2 7459   1.019   5.908   3.359  0.8226  0.7560  0.3307
 2499TIP3   OH2 7460   2.690   5.886   3.104 -0.1313 -0.2388 -0.2306
 2499TIP3    H1 7461   2.721   5.818   3.164 -0.2695  0.4630  0.6582
 2499TIP3    H2 7462   2.763   5.947   3.096  0.5972 -1.2975 -2.3222
 2500TIP3   OH2 7463   0.418   2.565   3.228  0.4339  0.3460 -0.2257
 2500TIP3    H1 7464   0.336   2.518   3.209  1.2303  0.2799 -4.8253
 2500TIP3    H2 7465   0.477   2.498   3.261 -0.2748 -0.5016 -0.6282
 2501TIP3   OH2 7466   1.615   1.646   4.951 -0.5083  0.7152 -0.5938
 2501TIP3    H1 7467   1.607   1.719   5.013  0.0941  1.3357 -1.2311
 2501TIP3    H2 7468   1.614   1.688   4.865 -0.8855 -0.1014 -0.9888
 2502TIP3   OH2 7469   4.984   2.686   0.874 -0.5012 -0.1944 -0.0724
 2502TIP3    H1 7470   5.071   2.644   0.870 -1.8119 -3.0673 -1.1004
 2502TIP3    H2 7471   4.979   2.719   0.964  1.4491 -0.3872  0.1656
 2503TIP3   OH2 7472   0.192   5.588   0.700  0.1504 -0.2562  0.0374
 2503TIP3    H1 7473   0.118   5.623   0.750  0.5954  1.7045 -0.5942
 2503TIP3    H2 7474   0.151   5.535   0.632 -0.6094 -0.2385  0.4628
 2504TIP3   OH2 7475   0.018   5.530   3.607  0.0433 -0.5270  0.0526
 2504TIP3    H1 7476   0.052   5.515   3.519 -0.0869 -0.2338 -0.0478
 2504TIP3    H2 7477   0.079   5.484   3.665  0.1605 -0.6705 -0.1844
 2505TIP3   OH2 7478   3.951   1.536   5.301  0.0639  0.0399 -0.0466
 2505TIP3    H1 7479   3.930   1.627   5.323 -1.4656 -0.4469  0.6642
 2505TIP3    H2 7480   3.936   1.531   5.206 -2.0035  0.0359  0.2403
 2506TIP3   OH2 7481   1.531   1.488   3.690  0.1034 -0.3242 -0.0434
 2506TIP3    H1 7482   1.470   1.423   3.725  0.7501 -0.0949  1.6229
 2506TIP3    H2 7483   1.512   1.567   3.741 -0.8271  0.9221 -2.1714
 2507TIP3   OH2 7484   2.851   2.137   2.487  0.0562  0.1810  0.7687
 2507TIP3    H1 7485   2.862   2.218   2.536 -0.6122 -0.4645  2.0573
 2507TIP3    H2 7486   2.761   2.140   2.455 -0.2208 -0.3638  1.4613
 2508TIP3   OH2 7487   0.342   5.368   1.140  0.1741  0.0230  0.3558
 2508TIP3    H1 7488   0.377   5.427   1.074 -0.2946 -0.5035 -0.3694
 2508TIP3    H2 7489   0.342   5.282   1.099 -1.6929 -0.0449  0.4295
 2509TIP3   OH2 7490   0.256   1.480   1.888  0.1242 -0.1413  0.2560
 2509TIP3    H1 7491   0.289   1.431   1.963  0.5067  2.7808  2.1561
 2509TIP3    H2 7492   0.330   1.534   1.860 -0.6475  0.3845 -0.8504
 2510TIP3   OH2 7493   0.719   6.251   0.333  0.2622  0.0422 -0.2915
 2510TIP3    H1 7494   0.797   6.278   0.283 -1.0960 -0.7792 -3.0338
 2510TIP3    H2 7495   0.690   6.331   0.377  2.2892  0.4863  0.3809
 2511TIP3   OH2 7496   2.907   5.630   2.215 -0.6868  0.2014 -0.1932
 2511TIP3    H1 7497   2.964   5.704   2.240 -2.0047  1.2596 -0.2214
 2511TIP3    H2 7498   2.951   5.592   2.139 -0.2547  1.3215 -0.5362
 2512TIP3   OH2 7499   0.366   5.525   5.869 -0.1614  0.4028 -0.2924
 2512TIP3    H1 7500   0.277   5.559   5.860 -0.9461 -1.3622  0.2795
 2512TIP3    H2 7501   0.418   5.578   5.808 -1.3716  2.1597  0.1208
 2513TIP3   OH2 7502   6.784   6.519   2.454  0.1197 -0.4097 -0.3725
 2513TIP3    H1 7503   6.810   6.569   2.376  0.1648 -0.1782 -0.2095
 2513TIP3    H2 7504   6.827   6.434   2.443 -0.2454 -0.5415 -0.8265
 2514TIP3   OH2 7505   0.303   0.885   0.353 -0.3104 -0.0426 -0.0130
 2514TIP3    H1 7506   0.290   0.818   0.285  0.2699 -2.3649  2.0206
 2514TIP3    H2 7507   0.216   0.924   0.363 -1.5561 -2.7572  0.8872
 2515TIP3   OH2 7508   5.187   2.896   4.908  0.7635  0.1860 -0.9042
 2515TIP3    H1 7509   5.099   2.930   4.892  0.2565 -0.1247  0.9318
 2515TIP3    H2 7510   5.211   2.853   4.826 -1.5388 -1.2483 -0.9353
 2516TIP3   OH2 7511   2.558   5.766   1.060  0.4570  0.2183 -0.2795
 2516TIP3    H1 7512   2.507   5.703   1.009  1.8297 -0.1873 -1.2022
 2516TIP3    H2 7513   2.570   5.841   1.002  0.0391  0.7475  0.3060
 2517TIP3   OH2 7514   3.490   6.128   3.268  0.1396  0.2535  0.6772
 2517TIP3    H1 7515   3.540   6.179   3.332 -0.3604 -0.4906  1.7025
 2517TIP3    H2 7516   3.490   6.039   3.303  1.7554 -0.7072 -1.5261
 2518TIP3   OH2 7517   4.047   4.039   4.258 -0.4162 -0.4684 -0.4636
 2518TIP3    H1 7518   4.138   4.071   4.254  0.0260 -1.3050  1.5827
 2518TIP3    H2 7519   4.054   3.952   4.297 -2.1957  0.0240  1.0884
 2519TIP3   OH2 7520   1.080   3.269   3.368  0.2759  0.1298 -0.4137
 2519TIP3    H1 7521   1.141   3.290   3.298 -0.5687  1.0501 -0.8840
 2519TIP3    H2 7522   1.014   3.337   3.364 -1.5768 -1.5933 -0.8204
 2520TIP3   OH2 7523   6.069   3.771   4.113  0.4984 -0.1591 -0.1184
 2520TIP3    H1 7524   5.976   3.763   4.090  0.8776 -1.8626 -1.2868
 2520TIP3    H2 7525   6.111   3.698   4.068  2.8232  2.0372 -1.8414
 2521TIP3   OH2 7526   5.320   5.644   3.655 -0.3815  0.1958  0.3214
 2521TIP3    H1 7527   5.400   5.597   3.678 -0.6443 -0.7041 -0.5801
 2521TIP3    H2 7528   5.350   5.733   3.636  0.1999  0.2456  1.3818
 2522TIP3   OH2 7529   4.402   2.242   3.097  0.0541  0.0104  0.4849
 2522TIP3    H1 7530   4.326   2.191   3.070  0.5061 -0.7830  0.6733
 2522TIP3    H2 7531   4.381   2.332   3.071 -0.7543 -0.2665  0.1406
 2523TIP3   OH2 7532   5.985   0.003   2.802 -0.4437  0.4867  0.0241
 2523TIP3    H1 7533   6.073   0.011   2.765 -0.9487 -0.3980 -1.4355
 2523TIP3    H2 7534   5.953   0.093   2.806 -0.6034  0.6002 -2.3675
 2524TIP3   OH2 7535   7.140   5.366   0.717 -0.0116  0.3746  0.0342
 2524TIP3    H1 7536   7.177   5.374   0.805 -1.0223  0.5240  0.4611
 2524TIP3    H2 7537   7.048   5.394   0.727 -1.0021 -2.4293 -0.4256
 2525TIP3   OH2 7538   0.070   1.457   3.809 -0.0123  0.7381  0.1722
 2525TIP3    H1 7539  -0.007   1.410   3.776 -1.3794  3.2624 -0.5129
 2525TIP3    H2 7540   0.116   1.393   3.863 -1.3956 -1.5181 -1.1610
 2526TIP3   OH2 7541   3.908   2.933   1.616 -0.0205 -0.0163  0.5910
 2526TIP3    H1 7542   3.828   2.964   1.658 -0.3687  0.5680 -0.4633
 2526TIP3    H2 7543   3.889   2.937   1.522  0.6965 -1.3542  0.3539
 2527TIP3   OH2 7544   4.086   2.977   3.634  0.2148 -0.3860 -0.1803
 2527TIP3    H1 7545   4.040   2.911   3.686  0.9560 -0.1454  0.8110
 2527TIP3    H2 7546   4.088   3.055   3.690 -0.6874  0.5132 -1.3486
 2528TIP3   OH2 7547   6.511   2.076   3.521  0.4352  0.4705  0.0374
 2528TIP3    H1 7548   6.548   2.005   3.574 -1.9198  0.6376  2.1163
 2528TIP3    H2 7549   6.422   2.046   3.500  0.2983  1.7130 -1.3509
 2529TIP3   OH2 7550   3.837   3.601   4.301 -0.7738  0.3167  0.5639
 2529TIP3    H1 7551   3.818   3.524   4.355 -2.3928 -0.0989 -0.5231
 2529TIP3    H2 7552   3.753   3.646   4.293 -0.4023  0.7923 -0.9239
 2530TIP3   OH2 7553   6.526   6.723   3.979  0.2169 -0.1774  0.2859
 2530TIP3    H1 7554   6.470   6.787   4.023  1.7738  1.7775 -0.4292
 2530TIP3    H2 7555   6.587   6.775   3.927 -0.1701 -2.3097 -2.5881
 2531TIP3   OH2 7556   6.942   5.470   4.651 -0.0026 -0.2135 -0.5209
 2531TIP3    H1 7557   7.032   5.440   4.648  0.5516  1.4085 -1.3476
 2531TIP3    H2 7558   6.944   5.545   4.711 -0.9866 -0.6824  0.1310
 2532TIP3   OH2 7559   1.614   4.826   5.276 -0.5835  0.1186 -0.2312
 2532TIP3    H1 7560   1.532   4.778   5.263 -0.6070  0.1004 -0.0143
 2532TIP3    H2 7561   1.637   4.811   5.368 -0.5874  0.5171 -0.1638
 2533TIP3   OH2 7562   4.299   4.491   5.642  0.5649  0.0931  0.3932
 2533TIP3    H1 7563   4.229   4.554   5.628 -0.8530 -1.5579 -0.4040
 2533TIP3    H2 7564   4.344   4.485   5.558 -0.7178 -1.4836 -0.2542
 2534TIP3   OH2 7565   1.578   0.100   5.590 -0.2527 -0.2460 -0.5604
 2534TIP3    H1 7566   1.617   0.147   5.517  1.7659 -0.4187  0.3164
 2534TIP3    H2 7567   1.541   0.021   5.551 -0.1420  0.1600 -1.5169
 2535TIP3   OH2 7568   2.357   6.379   3.393 -0.0939  0.1019 -0.0670
 2535TIP3    H1 7569   2.279   6.428   3.367 -1.1031 -0.2718  2.0378
 2535TIP3    H2 7570   2.324   6.308   3.448  1.7003 -0.3061  0.5559
 2536TIP3   OH2 7571   4.615   2.389   4.840  0.0618  0.0557  0.5205
 2536TIP3    H1 7572   4.587   2.391   4.749  1.3703 -2.4108 -0.0200
 2536TIP3    H2 7573   4.701   2.432   4.839 -0.3123  0.8203  0.7711
 2537TIP3   OH2 7574   5.384   6.034   2.920  0.3943 -0.8016  0.4751
 2537TIP3    H1 7575   5.311   6.082   2.880 -0.1021 -2.7646 -1.1161
 2537TIP3    H2 7576   5.442   6.103   2.954 -0.1593  0.9585 -1.8968
 2538TIP3   OH2 7577   5.928   3.801   2.637  0.4289 -0.0039 -0.7330
 2538TIP3    H1 7578   5.948   3.805   2.731  2.2211 -2.4083 -0.9072
 2538TIP3    H2 7579   5.858   3.737   2.631  0.3232  0.1420 -1.0260
 2539TIP3   OH2 7580   2.233   2.976   2.504  0.6930  0.2336 -0.4248
 2539TIP3    H1 7581   2.191   2.912   2.446  0.6400 -1.5326  1.4310
 2539TIP3    H2 7582   2.164   2.999   2.567  1.6215 -0.4703  0.9007
 2540TIP3   OH2 7583   4.480   3.048   3.489 -0.1033  0.1254  0.1736
 2540TIP3    H1 7584   4.467   2.956   3.465 -1.5754 -0.6959  3.5677
 2540TIP3    H2 7585   4.575   3.058   3.496  0.0326 -1.5899  1.2327
 2541TIP3   OH2 7586   2.803   1.329   5.432  0.1650  0.8585  0.2547
 2541TIP3    H1 7587   2.723   1.284   5.460  1.0330 -0.8970  0.0900
 2541TIP3    H2 7588   2.772   1.404   5.382 -1.3787  0.6510  0.8371
 2542TIP3   OH2 7589   7.107   0.450   5.874  0.5115 -0.4713  0.3774
 2542TIP3    H1 7590   7.039   0.409   5.928  0.4687 -2.0721 -0.8207
 2542TIP3    H2 7591   7.059   0.489   5.801  0.7536 -0.2569  0.3315
 2543TIP3   OH2 7592   6.056   0.700   3.599 -0.2552 -0.0992 -0.5075
 2543TIP3    H1 7593   6.012   0.615   3.599  1.1019 -0.8378 -0.2203
 2543TIP3    H2 7594   5.987   0.763   3.619 -1.1802 -1.1978 -0.1345
 2544TIP3   OH2 7595   0.789   4.824   5.147 -0.1027 -0.3730  0.3234
 2544TIP3    H1 7596   0.772   4.906   5.194  0.3880 -0.2198  0.2294
 2544TIP3    H2 7597   0.781   4.846   5.055 -0.1173 -0.4660  0.3018
 2545TIP3   OH2 7598   0.197   6.632   1.167  0.2727 -0.3859  0.1725
 2545TIP3    H1 7599   0.223   6.706   1.112 -2.0787  1.2858  1.1373
 2545TIP3    H2 7600   0.117   6.599   1.126  0.8680 -1.9519  0.1984
 2546TIP3   OH2 7601   2.971   2.885   4.789 -0.1210 -0.1442  0.3184
 2546TIP3    H1 7602   2.892   2.908   4.740  0.4458  0.9382 -0.1274
 2546TIP3    H2 7603   2.976   2.789   4.783 -1.9474 -0.3413  1.2663
 2547TIP3   OH2 7604   1.300   5.663   4.571 -0.0888  0.5470  0.6089
 2547TIP3    H1 7605   1.230   5.723   4.544 -0.6768  0.1901  1.3209
 2547TIP3    H2 7606   1.256   5.579   4.582  0.6798  0.0277 -0.1245
 2548TIP3   OH2 7607   5.248   4.108   5.139 -0.1511 -0.3717  0.4011
 2548TIP3    H1 7608   5.158   4.077   5.133 -0.6134  0.7671  1.0603
 2548TIP3    H2 7609   5.297   4.036   5.177 -0.1918 -2.0509 -2.4086
 2549TIP3   OH2 7610   0.266   6.400   3.666 -0.5084  0.0468 -0.1631
 2549TIP3    H1 7611   0.252   6.477   3.610 -0.3303 -0.2168 -0.5725
 2549TIP3    H2 7612   0.311   6.337   3.610  0.0799 -0.0558  0.4138
 2550TIP3   OH2 7613   4.221   4.794   5.426 -0.0912  0.8846 -0.0963
 2550TIP3    H1 7614   4.316   4.802   5.435 -0.0686  2.4249 -1.3303
 2550TIP3    H2 7615   4.186   4.859   5.487 -0.4316 -0.5523  1.3054
 2551TIP3   OH2 7616   2.102   5.742   1.066  0.1268  0.4681  0.2925
 2551TIP3    H1 7617   2.108   5.801   1.141  1.8743  1.9653 -0.9225
 2551TIP3    H2 7618   2.128   5.796   0.991  0.0391 -1.3933 -1.1547
 2552TIP3   OH2 7619   6.826   5.758   3.122  0.0140  0.3358  0.3044
 2552TIP3    H1 7620   6.915   5.742   3.089 -0.4524 -1.0457 -0.3317
 2552TIP3    H2 7621   6.837   5.831   3.184  1.2012  1.9157 -1.6118
 2553TIP3   OH2 7622   4.312   1.276   0.608 -0.3358  0.0599 -0.3033
 2553TIP3    H1 7623   4.285   1.359   0.568 -2.3147 -0.1681  0.4409
 2553TIP3    H2 7624   4.408   1.278   0.605 -0.3625  1.8385 -1.3542
 2554TIP3   OH2 7625   7.160   2.334   1.330  0.1609 -0.2299 -0.2747
 2554TIP3    H1 7626   7.091   2.387   1.370  0.0197  0.1225 -0.9748
 2554TIP3    H2 7627   7.114   2.262   1.287  0.3856 -1.2883  1.1681
 2555TIP3   OH2 7628   5.297   2.432   2.141 -0.5066 -0.3313 -0.0583
 2555TIP3    H1 7629   5.325   2.522   2.159  0.9329 -0.8527  0.4558
 2555TIP3    H2 7630   5.317   2.384   2.221 -2.6694 -0.8472  0.2409
 2556TIP3   OH2 7631   4.462   2.635   0.298 -0.3719  0.0889  0.6269
 2556TIP3    H1 7632   4.455   2.632   0.394  0.2321  0.3147  0.6782
 2556TIP3    H2 7633   4.545   2.592   0.278 -0.6853 -0.3174  0.1722
 2557TIP3   OH2 7634   5.936   0.879   3.778 -0.5565 -0.5681 -0.1503
 2557TIP3    H1 7635   5.866   0.943   3.788 -0.1448 -0.4024  2.2191
 2557TIP3    H2 7636   6.016   0.926   3.801 -0.1294 -1.6735  0.7175
 2558TIP3   OH2 7637   2.884   5.436   0.413 -0.1411 -0.2114 -0.1680
 2558TIP3    H1 7638   2.796   5.402   0.401 -0.0073 -0.5239 -0.2852
 2558TIP3    H2 7639   2.924   5.432   0.326 -0.1374  0.2876 -0.1893
 2559TIP3   OH2 7640   6.119   0.003   3.895  0.1052  0.0337  0.0294
 2559TIP3    H1 7641   6.160   0.089   3.901  1.1834 -0.3375 -1.4189
 2559TIP3    H2 7642   6.025   0.021   3.894  0.3271  1.2924 -1.4392
 2560TIP3   OH2 7643   0.577   0.037   5.294 -0.2285  0.0751 -0.8288
 2560TIP3    H1 7644   0.672   0.030   5.279  0.4368 -0.3497  2.6541
 2560TIP3    H2 7645   0.563   0.130   5.311  0.6641 -0.3334  3.3990
 2561TIP3   OH2 7646   4.658   1.126   5.005  0.5147 -0.0239 -0.6132
 2561TIP3    H1 7647   4.583   1.096   5.057 -0.9280  2.7705 -0.8595
 2561TIP3    H2 7648   4.629   1.116   4.914  1.3827 -1.0234 -0.7971
 2562TIP3   OH2 7649   2.815   0.846   3.937 -0.1662  0.4721  0.1312
 2562TIP3    H1 7650   2.850   0.869   3.850  1.2882 -1.2933  0.1904
 2562TIP3    H2 7651   2.866   0.769   3.963 -1.2657  0.3772  2.1358
 2563TIP3   OH2 7652   0.100   4.136   2.747 -0.0029  0.1309 -0.2862
 2563TIP3    H1 7653   0.079   4.163   2.658 -0.1476  0.2793 -0.2059
 2563TIP3    H2 7654   0.128   4.045   2.738  0.2000  0.2155 -0.5142
 2564TIP3   OH2 7655   3.276   3.925   2.623  0.0293  0.2772 -0.2924
 2564TIP3    H1 7656   3.339   3.983   2.581 -0.3919  0.3032 -0.8955
 2564TIP3    H2 7657   3.191   3.959   2.598 -0.3619  2.1552  3.0138
 2565TIP3   OH2 7658   5.440   4.734   2.185  0.3789  0.3080  0.1855
 2565TIP3    H1 7659   5.422   4.653   2.233 -0.7589 -0.1732 -0.9701
 2565TIP3    H2 7660   5.354   4.770   2.167  0.8782  1.7650  0.6302
 2566TIP3   OH2 7661   1.454   1.100   1.908  0.7892 -0.6392 -0.6138
 2566TIP3    H1 7662   1.359   1.107   1.907  0.7158 -1.2552  0.3182
 2566TIP3    H2 7663   1.486   1.187   1.884 -0.0075  0.1228  0.9692
 2567TIP3   OH2 7664   1.942   2.318   0.061  0.4415 -0.3853  0.2498
 2567TIP3    H1 7665   1.898   2.386   0.010  0.6963 -0.0646  0.4553
 2567TIP3    H2 7666   1.932   2.346   0.152  2.7160  0.7489  0.2482
 2568TIP3   OH2 7667   5.916   3.392   1.482 -0.8574 -0.1543 -0.0038
 2568TIP3    H1 7668   5.889   3.300   1.483  0.1366 -0.4657 -0.3888
 2568TIP3    H2 7669   5.892   3.423   1.394  0.0031 -0.4325 -0.3477
 2569TIP3   OH2 7670   6.190   0.510   4.130 -0.3024  0.6369  0.4266
 2569TIP3    H1 7671   6.235   0.433   4.164 -0.2562 -0.5331 -2.0810
 2569TIP3    H2 7672   6.123   0.530   4.195  0.9093 -0.3318  2.0391
 2570TIP3   OH2 7673   2.878   0.820   5.287 -0.2900  0.1833 -0.2483
 2570TIP3    H1 7674   2.956   0.833   5.232 -1.1820  1.7417 -1.2353
 2570TIP3    H2 7675   2.911   0.829   5.377  0.7998  0.0262 -0.6118
 2571TIP3   OH2 7676   5.905   6.264   0.559 -0.2846  0.0253 -0.7955
 2571TIP3    H1 7677   5.817   6.237   0.531 -0.9115  2.1048 -0.9842
 2571TIP3    H2 7678   5.890   6.337   0.619  1.2274 -1.6437  1.8302
 2572TIP3   OH2 7679   2.855   2.118   3.870  0.2559 -0.4759  0.5743
 2572TIP3    H1 7680   2.938   2.082   3.903  0.6755  1.0456  1.2777
 2572TIP3    H2 7681   2.875   2.210   3.851 -1.4998  0.1659  1.6417
 2573TIP3   OH2 7682   5.095   5.767   3.155 -0.5999  0.2959  0.0864
 2573TIP3    H1 7683   5.082   5.814   3.237 -2.9218  0.1212 -0.1215
 2573TIP3    H2 7684   5.190   5.752   3.150 -0.2857  1.3520  2.1226
 2574TIP3   OH2 7685   5.159   3.627   1.017  0.0663 -0.1819 -0.3394
 2574TIP3    H1 7686   5.089   3.587   1.068  1.1820 -1.6107  0.1579
 2574TIP3    H2 7687   5.115   3.691   0.961 -1.6078 -0.9900 -0.0121
 2575TIP3   OH2 7688   2.614   0.357   1.120 -0.0467  0.5402 -0.1966
 2575TIP3    H1 7689   2.681   0.357   1.052 -0.4011  0.5668 -0.5549
 2575TIP3    H2 7690   2.623   0.273   1.164  0.6760  0.8247  0.2213
 2576TIP3   OH2 7691   3.547   1.086   3.218  0.4957 -0.2364 -0.5263
 2576TIP3    H1 7692   3.454   1.093   3.200 -0.0212 -2.4234  0.8575
 2576TIP3    H2 7693   3.583   1.042   3.140  0.1515 -0.4723 -0.5540
 2577TIP3   OH2 7694   4.696   3.855   0.805  0.4536 -0.0474 -0.4930
 2577TIP3    H1 7695   4.666   3.900   0.884  1.2993  1.2610 -0.8919
 2577TIP3    H2 7696   4.634   3.783   0.793 -0.6331  0.7058  0.4564
 2578TIP3   OH2 7697   4.707   2.134   4.123 -0.0885  0.3392  0.2529
 2578TIP3    H1 7698   4.660   2.051   4.133 -1.3599  0.7326 -1.8917
 2578TIP3    H2 7699   4.757   2.124   4.042  1.0936  1.0892  0.8593
 2579TIP3   OH2 7700   6.345   4.276   0.907  0.2825 -0.1277 -0.3887
 2579TIP3    H1 7701   6.333   4.184   0.884  2.1836 -0.0885 -1.6898
 2579TIP3    H2 7702   6.439   4.286   0.918  0.0492  1.5339  0.4234
 2580TIP3   OH2 7703   1.472   5.532   2.019  0.0961  0.0627  0.1401
 2580TIP3    H1 7704   1.401   5.468   2.026  0.2728 -0.0480  0.9902
 2580TIP3    H2 7705   1.495   5.532   1.926 -2.6565  1.8702 -0.6928
 2581TIP3   OH2 7706   0.137   1.824   3.573 -0.1328 -0.0762  0.2211
 2581TIP3    H1 7707   0.165   1.845   3.484 -2.1306  2.8030  0.1082
 2581TIP3    H2 7708   0.143   1.907   3.620 -1.9519 -0.8171  1.9290
 2582TIP3   OH2 7709   1.829   5.798   3.083 -0.0582 -0.3092  0.3840
 2582TIP3    H1 7710   1.762   5.739   3.049  0.9527 -1.0857 -0.3080
 2582TIP3    H2 7711   1.819   5.878   3.031 -1.5247  0.2400  1.4173
 2583TIP3   OH2 7712   3.565   3.206   1.056  0.0923  0.4601  0.2189
 2583TIP3    H1 7713   3.469   3.205   1.063  0.0495 -1.2181 -0.0634
 2583TIP3    H2 7714   3.582   3.196   0.963  0.4894 -1.9194  0.4898
 2584TIP3   OH2 7715   5.514   1.281   3.752 -0.3881 -0.2559 -0.3232
 2584TIP3    H1 7716   5.533   1.293   3.845 -1.5562  0.8495 -0.2071
 2584TIP3    H2 7717   5.420   1.265   3.749 -0.2862 -0.7102 -1.2857
 2585TIP3   OH2 7718   0.121   5.108   1.902 -0.5336 -0.2757  0.3065
 2585TIP3    H1 7719   0.186   5.175   1.884  0.1031 -0.6285  1.2382
 2585TIP3    H2 7720   0.044   5.135   1.851  0.0480  0.5948 -0.1352
 2586TIP3   OH2 7721   5.131   2.508   3.870  0.6351  0.3769  0.6828
 2586TIP3    H1 7722   5.048   2.513   3.919  0.0177 -1.1014 -0.1305
 2586TIP3    H2 7723   5.181   2.440   3.914  0.0648 -0.9884 -0.6712
 2587TIP3   OH2 7724   6.891   5.903   2.767  0.4197 -0.4877 -0.4365
 2587TIP3    H1 7725   6.835   5.977   2.792  1.0138  0.3073 -1.4004
 2587TIP3    H2 7726   6.962   5.943   2.716  1.3483 -1.5934 -0.0482
 2588TIP3   OH2 7727   0.389   0.773   2.852 -0.1120  0.0952  0.4876
 2588TIP3    H1 7728   0.421   0.861   2.872  2.0153 -0.5701  0.2613
 2588TIP3    H2 7729   0.449   0.715   2.899 -2.0959 -1.2627  1.5036
 2589TIP3   OH2 7730   2.697   3.646   1.159 -0.0354 -0.5252 -0.2156
 2589TIP3    H1 7731   2.786   3.682   1.159 -0.2098 -0.0668  0.4388
 2589TIP3    H2 7732   2.690   3.599   1.242 -0.8031  0.5046  0.3234
 2590TIP3   OH2 7733   6.697   4.304   3.160 -0.1693 -0.0299  0.2622
 2590TIP3    H1 7734   6.732   4.392   3.144  0.5120 -0.2555  0.4797
 2590TIP3    H2 7735   6.611   4.320   3.200  0.5712  0.5619  1.7018
 2591TIP3   OH2 7736   3.110   5.302   3.248  0.0343 -0.2219  0.5489
 2591TIP3    H1 7737   3.098   5.370   3.182  1.2435 -0.3885  0.1498
 2591TIP3    H2 7738   3.141   5.349   3.326 -1.0934 -0.0677  0.9287
 2592TIP3   OH2 7739   5.433   6.455   0.634 -0.6687  0.2528  0.3913
 2592TIP3    H1 7740   5.347   6.413   0.643 -0.8807  0.2164 -1.4394
 2592TIP3    H2 7741   5.419   6.545   0.666 -0.6529 -0.4880  2.6683
 2593TIP3   OH2 7742   7.036   4.869   2.548 -0.2846 -0.1082 -0.1081
 2593TIP3    H1 7743   6.988   4.928   2.489 -0.4483  1.3279  1.3703
 2593TIP3    H2 7744   6.968   4.817   2.591 -0.4516  0.9209  0.9319
 2594TIP3   OH2 7745   5.006   0.701   1.621  0.6617  0.0649  0.0279
 2594TIP3    H1 7746   4.979   0.727   1.709  0.9116  2.2944 -0.5157
 2594TIP3    H2 7747   4.942   0.742   1.563  1.7793  0.4592 -0.9455
 2595TIP3   OH2 7748   1.902   4.787   5.192  0.6575  0.3413 -0.1429
 2595TIP3    H1 7749   1.816   4.815   5.224  0.5011  1.7194 -1.6455
 2595TIP3    H2 7750   1.926   4.715   5.250 -1.0573  0.5690  0.9440
 2596TIP3   OH2 7751   1.234   3.923   2.585 -0.5758  0.1629 -0.2304
 2596TIP3    H1 7752   1.144   3.939   2.614  0.1645  0.2499  2.2180
 2596TIP3    H2 7753   1.246   3.982   2.511 -1.5359  2.5840  1.4185
 2597TIP3   OH2 7754   1.459   2.450   5.594 -0.4141 -0.3179 -0.0399
 2597TIP3    H1 7755   1.537   2.457   5.649 -1.1562  2.0484  0.8544
 2597TIP3    H2 7756   1.407   2.380   5.634  0.0137 -0.0393  1.0227
 2598TIP3   OH2 7757   6.755   2.163   2.049  0.1038 -0.3217  0.1090
 2598TIP3    H1 7758   6.674   2.179   2.001  0.5274 -1.3620 -1.0103
 2598TIP3    H2 7759   6.787   2.250   2.072 -3.0743  0.1534  3.7350
 2599TIP3   OH2 7760   4.512   4.736   4.160 -0.0234 -0.0233  0.1960
 2599TIP3    H1 7761   4.446   4.701   4.220  0.6413 -1.6728  0.0139
 2599TIP3    H2 7762   4.592   4.743   4.213 -0.0502  0.9389  0.1379
 2600TIP3   OH2 7763   3.290   4.855   1.945 -0.3861 -0.0230 -0.2395
 2600TIP3    H1 7764   3.313   4.821   2.031 -1.8455 -0.0122  0.1758
 2600TIP3    H2 7765   3.208   4.811   1.922 -0.6067  0.7975 -1.1308
 2601TIP3   OH2 7766   0.507   6.480   5.814 -0.0903  0.1364  0.9969
 2601TIP3    H1 7767   0.524   6.492   5.720  1.1768 -2.4618  0.8258
 2601TIP3    H2 7768   0.549   6.555   5.856  0.9520  0.3525 -0.3774
 2602TIP3   OH2 7769   3.899   1.350   2.250 -0.4274  0.2616  0.3255
 2602TIP3    H1 7770   3.858   1.308   2.326 -0.8514 -1.0617 -0.5845
 2602TIP3    H2 7771   3.936   1.431   2.284 -1.2165  0.0429  1.7937
 2603TIP3   OH2 7772   4.407   3.110   1.441 -0.0526  0.0417 -0.2398
 2603TIP3    H1 7773   4.461   3.035   1.465  0.4733  0.3579 -0.4101
 2603TIP3    H2 7774   4.420   3.173   1.512  1.8141  1.1347 -1.4610
 2604TIP3   OH2 7775   2.669   3.788   0.914 -0.3738 -0.2705 -0.0898
 2604TIP3    H1 7776   2.639   3.732   0.987  1.5422 -0.6874  0.4193
 2604TIP3    H2 7777   2.641   3.741   0.835  0.9580 -1.8712  0.3365
 2605TIP3   OH2 7778   0.094   5.592   2.659 -0.1716  0.2933 -0.1868
 2605TIP3    H1 7779   0.057   5.671   2.621 -0.9510 -0.4065 -0.9149
 2605TIP3    H2 7780   0.144   5.552   2.587  2.2028  1.2890  0.7935
 2606TIP3   OH2 7781   4.991   4.187   0.282 -0.1032 -0.4275 -0.1398
 2606TIP3    H1 7782   4.967   4.225   0.366  0.2415  0.8434 -0.5939
 2606TIP3    H2 7783   5.010   4.262   0.226  2.2488 -1.2675 -0.5946
 2607TIP3   OH2 7784   3.010   6.339   0.358 -0.9050 -0.1164 -0.3123
 2607TIP3    H1 7785   3.047   6.392   0.287 -1.8119 -0.3956 -1.0234
 2607TIP3    H2 7786   3.022   6.392   0.437  1.3731 -0.3909 -0.4112
 2608TIP3   OH2 7787   4.876   4.152   5.600  0.2414 -0.2149 -0.5581
 2608TIP3    H1 7788   4.900   4.097   5.675 -0.5675 -0.4534 -0.4659
 2608TIP3    H2 7789   4.957   4.161   5.550  0.9993  0.6316  0.7712
 2609TIP3   OH2 7790   3.327   3.096   4.158 -0.0605  0.0688  0.3478
 2609TIP3    H1 7791   3.360   3.186   4.158  1.5790 -0.5122  0.8088
 2609TIP3    H2 7792   3.233   3.106   4.139  0.5957  1.6605 -2.8055
 2610TIP3   OH2 7793   0.630   0.975   0.727 -0.0310  0.3241  0.0120
 2610TIP3    H1 7794   0.671   1.008   0.647  0.0787 -0.8495 -0.4337
 2610TIP3    H2 7795   0.700   0.927   0.771 -0.5243 -0.4620 -0.0382
 2611TIP3   OH2 7796   2.747   0.940   4.180 -0.0503  0.3254  0.0691
 2611TIP3    H1 7797   2.741   0.859   4.231  2.2714 -0.4984 -0.8189
 2611TIP3    H2 7798   2.778   0.912   4.094  2.8825  2.2624  0.3340
 2612TIP3   OH2 7799   2.905   4.579   1.057 -0.0045 -0.0211  0.5031
 2612TIP3    H1 7800   2.871   4.494   1.027  0.1884 -0.6652  2.0439
 2612TIP3    H2 7801   2.950   4.614   0.980 -0.8337 -0.9047 -0.4241
 2613TIP3   OH2 7802   5.336   3.815   1.119 -0.1424  0.3484  0.6856
 2613TIP3    H1 7803   5.301   3.900   1.092  0.6221  0.7154  0.8215
 2613TIP3    H2 7804   5.278   3.751   1.077  1.3195  0.8536 -2.3457
 2614TIP3   OH2 7805   2.605   4.550   4.934  0.5025  0.2857 -0.5055
 2614TIP3    H1 7806   2.626   4.563   4.841  1.0006  1.8905 -0.1873
 2614TIP3    H2 7807   2.684   4.510   4.971 -0.3837 -2.2008 -1.1190
 2615TIP3   OH2 7808   0.431   1.062   1.814  0.0651  0.7708  0.4017
 2615TIP3    H1 7809   0.441   1.133   1.751 -1.4927  0.0817 -0.6999
 2615TIP3    H2 7810   0.510   1.009   1.804  0.3939  1.3481 -0.0781
 2616TIP3   OH2 7811   6.943   4.997   2.047  0.1535 -0.6291  0.2541
 2616TIP3    H1 7812   6.912   5.020   2.134 -1.0109 -1.4130  0.0682
 2616TIP3    H2 7813   6.871   5.019   1.989  1.6325  1.7409 -0.8141
 2617TIP3   OH2 7814   2.418   3.653   3.931  0.3521  0.3578 -0.1825
 2617TIP3    H1 7815   2.453   3.741   3.939  0.8583  0.1136  0.4171
 2617TIP3    H2 7816   2.468   3.613   3.860 -1.3904  1.2376 -2.0170
 2618TIP3   OH2 7817   0.179   1.870   1.615  0.6054 -0.1336  0.1646
 2618TIP3    H1 7818   0.118   1.919   1.560 -1.3710 -1.6044  0.9459
 2618TIP3    H2 7819   0.128   1.847   1.693  2.7585  0.2551  1.7721
 2619TIP3   OH2 7820   3.893   6.232   2.413 -0.6517  0.5881 -1.2533
 2619TIP3    H1 7821   3.898   6.314   2.463  0.0111  0.7901 -1.6356
 2619TIP3    H2 7822   3.953   6.245   2.339  1.6849 -1.2508  0.1494
 2620TIP3   OH2 7823   3.610   5.147   2.854 -0.5118 -0.0474 -0.0428
 2620TIP3    H1 7824   3.641   5.150   2.944  1.5302 -0.1326 -0.6910
 2620TIP3    H2 7825   3.545   5.216   2.848 -1.0617 -0.3883  1.6121
 2621TIP3   OH2 7826   7.230   6.394   0.656 -0.4758 -0.7934 -0.1817
 2621TIP3    H1 7827   7.144   6.394   0.699 -1.7214 -0.5136 -2.5020
 2621TIP3    H2 7828   7.247   6.486   0.637 -0.3971 -0.9876 -1.0713
 2622TIP3   OH2 7829   3.311   4.684   1.137  0.0986 -0.4159  0.1362
 2622TIP3    H1 7830   3.271   4.679   1.224 -1.2219 -0.8128 -0.4591
 2622TIP3    H2 7831   3.376   4.754   1.144  0.4869 -0.8915  1.6079
 2623TIP3   OH2 7832   0.633   3.741   4.644 -0.4608  0.7478 -0.6519
 2623TIP3    H1 7833   0.708   3.683   4.661 -0.7847  0.2670 -0.8563
 2623TIP3    H2 7834   0.639   3.761   4.551 -0.7824  0.4366 -0.7393
 2624TIP3   OH2 7835   2.670   2.242   0.589 -0.0123 -0.2624  0.4725
 2624TIP3    H1 7836   2.735   2.284   0.646  0.2492 -0.2446  0.1678
 2624TIP3    H2 7837   2.589   2.244   0.639  0.5723 -1.7943  1.5714
 2625TIP3   OH2 7838   4.327   6.755   0.759  0.0468 -0.3302  0.2609
 2625TIP3    H1 7839   4.387   6.820   0.721 -2.0218  2.5495  1.4887
 2625TIP3    H2 7840   4.364   6.736   0.845  1.2513 -1.7633 -0.5221
 2626TIP3   OH2 7841   3.582   0.992   1.348 -0.1893 -0.2306 -0.2781
 2626TIP3    H1 7842   3.519   1.057   1.316 -0.4561 -0.2823  0.1334
 2626TIP3    H2 7843   3.534   0.944   1.416 -0.0191 -0.9109 -0.6309
 2627TIP3   OH2 7844   3.324   3.725   1.399  0.4465  0.3197 -0.0540
 2627TIP3    H1 7845   3.292   3.687   1.318 -0.1797  0.0107  0.3354
 2627TIP3    H2 7846   3.254   3.783   1.428  0.8405  0.7491  0.0520
 2628TIP3   OH2 7847   4.071   6.266   1.486  0.1965  0.6458  0.6526
 2628TIP3    H1 7848   4.110   6.243   1.570  1.1718  1.9109  0.5782
 2628TIP3    H2 7849   4.133   6.327   1.446 -0.8898  1.1267 -0.3859
 2629TIP3   OH2 7850   6.390   5.274   0.300 -0.3707  0.1805 -0.3829
 2629TIP3    H1 7851   6.323   5.216   0.265 -1.0296  0.1499  0.8724
 2629TIP3    H2 7852   6.471   5.246   0.257 -0.8358 -1.0428 -0.4998
 2630TIP3   OH2 7853   5.405   3.880   5.244  0.4861  0.3332 -0.2616
 2630TIP3    H1 7854   5.497   3.906   5.238  0.0280  1.7739 -1.5621
 2630TIP3    H2 7855   5.382   3.892   5.336  1.2046  1.3493 -0.2058
 2631TIP3   OH2 7856   2.991   0.870   3.728  0.2287 -0.2199  0.1150
 2631TIP3    H1 7857   3.021   0.786   3.693 -0.9288  0.2281 -2.1250
 2631TIP3    H2 7858   3.071   0.922   3.738  0.8874 -1.3396  0.9407
 2632TIP3   OH2 7859   3.169   0.334   5.413  0.7620  0.0207 -0.5926
 2632TIP3    H1 7860   3.160   0.339   5.508  1.5388 -1.3710 -0.4173
 2632TIP3    H2 7861   3.178   0.425   5.384 -0.5308  0.5401  0.5315
 2633TIP3   OH2 7862   6.252   2.850   2.853 -0.2414  0.2491 -0.1777
 2633TIP3    H1 7863   6.298   2.891   2.780  0.3617 -0.1106 -0.0040
 2633TIP3    H2 7864   6.296   2.882   2.931 -1.3506  1.2086  0.0781
 2634TIP3   OH2 7865   6.293   1.825   2.805 -0.0199  0.0209  0.3909
 2634TIP3    H1 7866   6.242   1.756   2.764 -0.8802  1.1191 -0.4807
 2634TIP3    H2 7867   6.383   1.793   2.804 -0.2717 -0.6916 -0.8499
 2635TIP3   OH2 7868   4.228   4.153   0.708 -0.3612 -0.3686 -0.1585
 2635TIP3    H1 7869   4.303   4.129   0.653 -0.4810  2.8201 -1.9540
 2635TIP3    H2 7870   4.264   4.167   0.795  0.6060 -1.4675 -0.3633
 2636TIP3   OH2 7871   3.324   2.343   4.203  0.1412 -0.3476 -0.2641
 2636TIP3    H1 7872   3.412   2.304   4.200 -0.2323 -1.1347 -1.5576
 2636TIP3    H2 7873   3.280   2.309   4.126 -1.0571  0.6726 -0.0572
 2637TIP3   OH2 7874   3.485   4.930   4.412  0.1832  0.1750  0.0801
 2637TIP3    H1 7875   3.417   4.984   4.451 -2.7771 -1.0610 -2.9547
 2637TIP3    H2 7876   3.484   4.849   4.464 -0.3869  0.3269  0.3124
 2638TIP3   OH2 7877   6.436   2.115   0.623 -0.0970  0.0139  0.1107
 2638TIP3    H1 7878   6.457   2.140   0.533 -1.7819  0.8195 -0.1030
 2638TIP3    H2 7879   6.499   2.046   0.645 -0.3029 -0.9215 -2.0371
 2639TIP3   OH2 7880   2.069   4.535   3.480  0.5316 -0.3727 -0.2171
 2639TIP3    H1 7881   2.053   4.446   3.511 -1.0251  0.6946  2.3636
 2639TIP3    H2 7882   1.989   4.560   3.433 -0.1151  0.4864  1.2783
 2640TIP3   OH2 7883   6.586   2.433   4.282  0.6800  0.6401 -0.1646
 2640TIP3    H1 7884   6.576   2.390   4.367 -0.0362  0.5088 -0.3114
 2640TIP3    H2 7885   6.528   2.510   4.287 -2.9830 -1.6939 -2.0776
 2641TIP3   OH2 7886   5.364   0.636   0.212  0.3278 -0.2495  0.4335
 2641TIP3    H1 7887   5.329   0.715   0.255  0.2268 -0.1919  0.2439
 2641TIP3    H2 7888   5.421   0.598   0.278 -1.5744 -1.4083  1.5113
 2642TIP3   OH2 7889   6.843   3.215   2.253 -0.0152 -0.0061  0.6129
 2642TIP3    H1 7890   6.768   3.209   2.312  0.0333 -1.4636  0.5665
 2642TIP3    H2 7891   6.919   3.224   2.311  0.2044 -3.0404  0.9402
 2643TIP3   OH2 7892   1.941   4.841   3.734  0.0985  0.2969  0.0590
 2643TIP3    H1 7893   1.848   4.858   3.749  0.3206  1.0830  0.5741
 2643TIP3    H2 7894   1.982   4.927   3.737  1.4498 -0.3188  3.9412
 2644TIP3   OH2 7895   2.659   4.095   2.631 -0.3239 -0.0046 -0.3583
 2644TIP3    H1 7896   2.690   4.141   2.709 -0.5045 -1.2606  0.4984
 2644TIP3    H2 7897   2.721   4.022   2.620 -2.4244 -2.1761  1.0082
 2645TIP3   OH2 7898   3.164   0.133   5.019 -0.4133 -0.0571 -0.0209
 2645TIP3    H1 7899   3.212   0.160   5.098 -0.6593 -1.7961  0.7729
 2645TIP3    H2 7900   3.233   0.117   4.954 -0.0781 -0.2025  0.3620
 2646TIP3   OH2 7901   1.475   4.814   2.697  0.0644  0.5329  0.5571
 2646TIP3    H1 7902   1.505   4.850   2.614  0.8591  1.2945  1.1528
 2646TIP3    H2 7903   1.550   4.765   2.731 -0.1115  0.5594  0.9995
 2647TIP3   OH2 7904   1.012   4.032   5.198 -0.3596 -0.6362  0.4636
 2647TIP3    H1 7905   0.938   3.975   5.217 -1.2200  0.3885  0.2812
 2647TIP3    H2 7906   1.081   3.973   5.167 -0.6899 -1.7406  1.7349
 2648TIP3   OH2 7907   1.730   5.629   5.210  0.0775  0.2136  0.2620
 2648TIP3    H1 7908   1.660   5.675   5.257  0.8352  0.4717  1.1625
 2648TIP3    H2 7909   1.778   5.697   5.165  0.4381  0.1749  0.5786
 2649TIP3   OH2 7910   5.327   2.428   2.648  0.1545  0.4112  0.6884
 2649TIP3    H1 7911   5.248   2.382   2.677 -0.3824  0.7809 -0.1407
 2649TIP3    H2 7912   5.382   2.432   2.726 -1.1029  1.0992  1.5857
 2650TIP3   OH2 7913   2.179   3.386   0.978 -0.7127  0.1816 -0.0352
 2650TIP3    H1 7914   2.180   3.462   1.036  0.9256  0.7233 -0.7162
 2650TIP3    H2 7915   2.230   3.320   1.025 -0.9505 -0.0228 -0.0607
 2651TIP3   OH2 7916   5.940   4.909   3.553 -0.5331  0.3962  0.4499
 2651TIP3    H1 7917   6.035   4.922   3.559 -0.5076  1.0026 -0.9105
 2651TIP3    H2 7918   5.917   4.862   3.633  1.0137 -0.3184  0.5065
 2652TIP3   OH2 7919   5.333   0.343   1.176 -0.9790  0.3452 -0.3561
 2652TIP3    H1 7920   5.293   0.391   1.104  0.8383 -0.0085 -1.6928
 2652TIP3    H2 7921   5.397   0.285   1.133 -0.5332 -0.5998  1.4741
 2653TIP3   OH2 7922   6.962   4.106   2.295  0.4765  0.3793 -0.3042
 2653TIP3    H1 7923   6.992   4.016   2.286  0.4275  0.3382 -0.0624
 2653TIP3    H2 7924   6.958   4.121   2.389 -1.4087  0.0006 -0.2902
 2654TIP3   OH2 7925   7.058   5.029   0.551  0.3085  0.3837  0.4753
 2654TIP3    H1 7926   7.041   4.937   0.535  0.2131  0.7705 -1.9931
 2654TIP3    H2 7927   6.975   5.073   0.532  0.7949  1.1279  0.0153
 2655TIP3   OH2 7928   5.545   2.432   4.204  0.4370  0.3531  0.2438
 2655TIP3    H1 7929   5.465   2.484   4.207  0.5833  0.6831 -0.9781
 2655TIP3    H2 7930   5.616   2.496   4.208  0.6655  0.0519  1.5079
 2656TIP3   OH2 7931   7.106   5.139   4.129 -0.3469 -0.2624 -0.2744
 2656TIP3    H1 7932   7.011   5.142   4.113 -0.3161 -0.7930 -0.6021
 2656TIP3    H2 7933   7.142   5.209   4.075 -0.5241 -0.2454 -0.3712
 2657TIP3   OH2 7934   6.667   1.646   5.290  0.0371 -0.0158  0.4030
 2657TIP3    H1 7935   6.581   1.626   5.253 -0.2567  0.9896  0.5056
 2657TIP3    H2 7936   6.654   1.728   5.337  1.5790  1.3836 -1.4664
 2658TIP3   OH2 7937   4.045   3.672   3.021 -0.3388  0.1410  0.0563
 2658TIP3    H1 7938   3.972   3.641   3.075 -0.4123 -2.0823 -1.2114
 2658TIP3    H2 7939   4.003   3.718   2.948 -0.2658  2.2825  1.2685
 2659TIP3   OH2 7940   0.667   5.583   1.348 -0.5417  0.3159 -0.2426
 2659TIP3    H1 7941   0.708   5.641   1.284 -2.6763  0.3460 -1.6940
 2659TIP3    H2 7942   0.671   5.496   1.309  0.7901 -0.2290  0.9950
 2660TIP3   OH2 7943   4.383   2.668   2.820  0.3431 -0.7564  0.0900
 2660TIP3    H1 7944   4.415   2.625   2.741 -1.3893  0.6026 -1.4488
 2660TIP3    H2 7945   4.315   2.609   2.853  0.5493 -0.9621  0.1532
 2661TIP3   OH2 7946   5.343   5.335   3.054  0.3179 -0.3911  0.4557
 2661TIP3    H1 7947   5.386   5.280   2.989 -0.3790 -1.0135  0.4976
 2661TIP3    H2 7948   5.283   5.390   3.004  0.0861 -0.5727  0.5334
 2662TIP3   OH2 7949   0.308   5.222   2.904 -0.2698 -0.1943 -0.1516
 2662TIP3    H1 7950   0.240   5.258   2.846 -2.0616  0.0779  1.9772
 2662TIP3    H2 7951   0.368   5.295   2.917 -0.0790 -0.1262 -1.2672
 2663TIP3   OH2 7952   6.847   3.435   0.665  0.4329  0.1319 -0.2935
 2663TIP3    H1 7953   6.815   3.452   0.753  0.4202  0.7321 -0.4117
 2663TIP3    H2 7954   6.781   3.377   0.626  0.3558  0.0018  0.0313
 2664TIP3   OH2 7955   3.892   4.562   1.616  0.3997  0.2427 -0.3620
 2664TIP3    H1 7956   3.948   4.550   1.693 -1.7613 -1.9872  0.9710
 2664TIP3    H2 7957   3.836   4.636   1.639  0.5258  0.3222 -0.3045
 2665TIP3   OH2 7958   3.884   3.408   0.424 -0.3172  0.1782 -0.3630
 2665TIP3    H1 7959   3.880   3.503   0.436 -0.4105  0.1075  0.1608
 2665TIP3    H2 7960   3.855   3.395   0.334  1.2734  0.7778 -1.0023
 2666TIP3   OH2 7961   6.994   6.452   3.398  0.3244  0.7303  0.2954
 2666TIP3    H1 7962   6.991   6.527   3.457  0.5489  0.8632  0.1403
 2666TIP3    H2 7963   7.086   6.444   3.375  0.0833  1.5134 -1.0824
 2667TIP3   OH2 7964   4.255   4.706   3.269  0.0966  0.4293  0.0728
 2667TIP3    H1 7965   4.295   4.787   3.301  2.4320 -1.0345  1.0833
 2667TIP3    H2 7966   4.291   4.637   3.325  0.0280 -1.5983 -2.2203
 2668TIP3   OH2 7967   6.283   4.929   3.930  0.4027 -0.4214 -0.1346
 2668TIP3    H1 7968   6.212   4.959   3.987  0.2158  2.0089 -1.5230
 2668TIP3    H2 7969   6.330   5.009   3.906  1.8881 -1.6407 -1.5331
 2669TIP3   OH2 7970   2.419   1.554   2.191  0.3185 -0.3885 -0.1814
 2669TIP3    H1 7971   2.403   1.530   2.282  2.0552 -1.5554 -0.1451
 2669TIP3    H2 7972   2.510   1.529   2.174  0.0983 -0.0563 -2.1984
 2670TIP3   OH2 7973   2.620   4.200   4.715 -0.3305 -0.4663 -0.5192
 2670TIP3    H1 7974   2.638   4.110   4.742 -0.8855 -0.1132  1.1634
 2670TIP3    H2 7975   2.704   4.233   4.683 -0.2166 -1.6927 -1.5697
 2671TIP3   OH2 7976   6.393   2.402   1.260 -0.2533 -0.0009 -0.7560
 2671TIP3    H1 7977   6.329   2.474   1.259  0.4600  0.6535 -0.5314
 2671TIP3    H2 7978   6.365   2.344   1.189 -0.4493  0.8641 -1.4165
 2672TIP3   OH2 7979   4.661   6.445   2.447  0.2729 -0.0737 -0.4756
 2672TIP3    H1 7980   4.608   6.409   2.518 -0.5549  0.9743 -0.5279
 2672TIP3    H2 7981   4.743   6.470   2.488  0.2855 -0.6454 -0.1501
 2673TIP3   OH2 7982   3.469   6.571   2.427  0.2178 -0.4149  0.1866
 2673TIP3    H1 7983   3.435   6.565   2.516  1.1248  0.8846  0.6438
 2673TIP3    H2 7984   3.560   6.600   2.437  0.4128 -0.4741 -1.1529
 2674TIP3   OH2 7985   3.704   6.329   4.216  0.1713  0.7284  0.2839
 2674TIP3    H1 7986   3.657   6.409   4.242 -0.8375  1.3234 -2.9021
 2674TIP3    H2 7987   3.646   6.258   4.242  0.1663  1.1212  1.4012
 2675TIP3   OH2 7988   1.764   0.617   4.810  0.0082  0.0406 -0.3772
 2675TIP3    H1 7989   1.842   0.668   4.831  1.5822 -2.4636  0.2021
 2675TIP3    H2 7990   1.786   0.572   4.729 -1.6581  0.8364 -1.3129
 2676TIP3   OH2 7991   6.749   6.446   5.189  0.3428  0.7320  0.1502
 2676TIP3    H1 7992   6.795   6.499   5.124 -1.1507  0.8175 -0.8918
 2676TIP3    H2 7993   6.704   6.379   5.138 -0.8526  0.7800  1.0935
 2677TIP3   OH2 7994   6.836   1.312   0.490  0.4494 -0.3349 -0.0697
 2677TIP3    H1 7995   6.753   1.348   0.520  0.7496  0.1076  0.2489
 2677TIP3    H2 7996   6.875   1.274   0.569  0.6325 -0.3781 -0.1799
 2678TIP3   OH2 7997   5.872   4.380   3.152  0.0705 -0.0677  0.5222
 2678TIP3    H1 7998   5.895   4.299   3.107  2.5157  0.8788 -0.1241
 2678TIP3    H2 7999   5.848   4.440   3.081  1.7488  0.7674  0.6109
 2679TIP3   OH2 8000   6.858   5.926   1.887 -0.0827 -0.1088  0.2400
 2679TIP3    H1 8001   6.826   5.845   1.848  0.2088 -0.6268  1.0546
 2679TIP3    H2 8002   6.953   5.917   1.887 -0.0046  0.6096 -0.4456
 2680TIP3   OH2 8003   4.079   1.317   2.031 -0.1625  0.0682  0.3033
 2680TIP3    H1 8004   4.009   1.311   2.096 -1.2227 -2.1547 -0.9008
 2680TIP3    H2 8005   4.144   1.252   2.059  0.0892  0.1590 -0.0599
 2681TIP3   OH2 8006   4.147   4.009   2.678  0.8751 -0.4288  0.0218
 2681TIP3    H1 8007   4.147   4.049   2.765 -0.3694 -0.7720  0.2056
 2681TIP3    H2 8008   4.140   4.083   2.617  0.4459 -0.2557  0.2791
 2682TIP3   OH2 8009   6.151   3.331   2.038 -0.2467  0.0356  0.4796
 2682TIP3    H1 8010   6.139   3.411   1.987  4.0265  0.2782 -0.4734
 2682TIP3    H2 8011   6.155   3.261   1.973 -1.1034 -0.6009  1.0835
 2683TIP3   OH2 8012   6.319   0.556   2.335  0.3568 -0.0177  0.0247
 2683TIP3    H1 8013   6.242   0.589   2.288 -1.7392 -1.8720  1.9022
 2683TIP3    H2 8014   6.336   0.624   2.401  0.4411  0.4684 -0.4855
 2684TIP3   OH2 8015   1.174   4.723   4.810  0.7146 -0.3856  0.2477
 2684TIP3    H1 8016   1.120   4.758   4.739  1.7301  5.2120  1.7004
 2684TIP3    H2 8017   1.114   4.718   4.885  0.9866  0.3964  0.5309
 2685TIP3   OH2 8018   6.919   0.042   5.045  0.4274 -0.0082  0.4408
 2685TIP3    H1 8019   6.971   0.004   5.115  1.1035  1.2644  0.6623
 2685TIP3    H2 8020   6.882   0.122   5.083 -0.3028 -0.0065 -0.2406
 2686TIP3   OH2 8021   2.061   4.154   0.706 -0.1452 -0.0165  0.1789
 2686TIP3    H1 8022   2.109   4.118   0.632  0.0874 -0.1922  0.4104
 2686TIP3    H2 8023   2.064   4.249   0.693 -0.8696 -0.0805 -0.5026
 2687TIP3   OH2 8024   0.526   0.127   3.820 -0.0278  0.6024 -0.1495
 2687TIP3    H1 8025   0.551   0.152   3.731  0.4700 -0.8968 -0.4547
 2687TIP3    H2 8026   0.590   0.061   3.846  1.3734  2.6926  2.2767
 2688TIP3   OH2 8027   4.352   1.811   5.873  0.3864  0.0619  0.1286
 2688TIP3    H1 8028   4.304   1.894   5.874  0.3857  0.0601  0.2673
 2688TIP3    H2 8029   4.409   1.817   5.796  1.3414  0.7331  0.8612
 2689TIP3   OH2 8030   2.202   0.698   2.925 -0.6383  0.4543  0.2171
 2689TIP3    H1 8031   2.227   0.637   2.994  0.3553  1.5444  0.8607
 2689TIP3    H2 8032   2.215   0.649   2.844  1.4341  0.2129  0.6424
 2690TIP3   OH2 8033   1.708   6.452   3.241 -0.0794 -0.7208 -0.9258
 2690TIP3    H1 8034   1.682   6.446   3.333  2.1356  3.5529  0.2656
 2690TIP3    H2 8035   1.638   6.503   3.200  0.1602 -0.3930 -0.9317
 2691TIP3   OH2 8036   3.330   2.914   5.589 -0.2229  0.5402  0.3124
 2691TIP3    H1 8037   3.293   2.839   5.543  0.4542  1.0916 -1.2047
 2691TIP3    H2 8038   3.403   2.877   5.639 -1.0641 -0.0953  1.0927
 2692TIP3   OH2 8039   1.615   2.283   3.328  0.2773  0.4217 -0.5837
 2692TIP3    H1 8040   1.618   2.373   3.361  1.6915  0.5064 -0.9063
 2692TIP3    H2 8041   1.703   2.266   3.297  0.5548 -1.7570  1.2076
 2693TIP3   OH2 8042   2.415   1.563   3.071 -0.5089  0.1658  0.0800
 2693TIP3    H1 8043   2.335   1.565   3.124 -1.6992  3.5308 -1.5150
 2693TIP3    H2 8044   2.485   1.581   3.133 -0.9412 -2.3805  1.4335
 2694TIP3   OH2 8045   1.980   5.809   5.476  0.0848 -0.1619  0.6638
 2694TIP3    H1 8046   1.997   5.738   5.537  0.0695 -1.2612 -0.5833
 2694TIP3    H2 8047   2.023   5.784   5.395  0.6325  1.5616  0.3671
 2695TIP3   OH2 8048   5.335   3.409   1.256  0.8354  0.1274 -0.4821
 2695TIP3    H1 8049   5.394   3.416   1.331  1.0915 -0.8605 -0.5803
 2695TIP3    H2 8050   5.248   3.401   1.295  0.9097  0.1856 -0.3015
 2696TIP3   OH2 8051   3.193   0.754   1.343  0.3610  0.1647  0.1523
 2696TIP3    H1 8052   3.218   0.846   1.330  1.1725  0.2222  1.7780
 2696TIP3    H2 8053   3.267   0.704   1.310  1.3567  0.2376  2.1237
 2697TIP3   OH2 8054   0.735   5.291   3.410  0.2237  0.3979  0.0430
 2697TIP3    H1 8055   0.729   5.359   3.476 -1.6716 -0.2569  0.6185
 2697TIP3    H2 8056   0.777   5.333   3.335  0.7569  1.6573  1.0211
 2698TIP3   OH2 8057   2.410   3.553   0.733  0.5278  0.9742 -0.0546
 2698TIP3    H1 8058   2.425   3.539   0.827  0.1038 -1.3596 -0.2930
 2698TIP3    H2 8059   2.393   3.647   0.726 -1.0285  0.9696  2.4499
 2699TIP3   OH2 8060   3.455   0.172   4.142  0.2943  0.2155 -0.3012
 2699TIP3    H1 8061   3.403   0.140   4.069 -0.7331  0.1493  0.4318
 2699TIP3    H2 8062   3.535   0.119   4.140 -0.0723 -0.3237 -0.9059
 2700TIP3   OH2 8063   2.358   6.623   1.925 -0.5849  0.5022  0.3180
 2700TIP3    H1 8064   2.403   6.688   1.871  0.3901  0.5014  1.0881
 2700TIP3    H2 8065   2.396   6.635   2.012  0.6990 -2.0511  0.2154
 2701TIP3   OH2 8066   3.808   4.878   4.614 -0.4182  0.0799  0.0488
 2701TIP3    H1 8067   3.837   4.891   4.524 -0.3079  1.6848  0.2950
 2701TIP3    H2 8068   3.839   4.791   4.637 -1.0037 -0.6249 -1.6678
 2702TIP3   OH2 8069   4.228   5.794   4.858 -0.3166 -0.1196  0.9098
 2702TIP3    H1 8070   4.256   5.880   4.890 -0.2373  0.6845 -1.1773
 2702TIP3    H2 8071   4.270   5.785   4.773 -2.3211 -1.1032 -0.0526
 2703TIP3   OH2 8072   3.922   4.997   5.373 -0.0986 -0.1386 -0.3191
 2703TIP3    H1 8073   3.831   4.976   5.397 -1.0429  1.7082 -1.9765
 2703TIP3    H2 8074   3.972   4.981   5.453 -2.0030 -0.4624  0.8848
 2704TIP3   OH2 8075   5.480   2.641   0.885  0.6702 -0.4495 -0.0090
 2704TIP3    H1 8076   5.546   2.681   0.941  1.4777  1.1694 -1.9696
 2704TIP3    H2 8077   5.478   2.549   0.911  0.5695  0.3020  2.9892
 2705TIP3   OH2 8078   1.790   3.926   5.340  0.2915  0.3987 -0.4695
 2705TIP3    H1 8079   1.864   3.898   5.286  0.6114  1.0101 -0.3636
 2705TIP3    H2 8080   1.786   4.021   5.327 -1.1151  0.2657 -1.2856
 2706TIP3   OH2 8081   2.481   1.671   3.775 -0.8385 -0.6616 -0.0025
 2706TIP3    H1 8082   2.513   1.648   3.862  1.8560  0.3082 -0.6382
 2706TIP3    H2 8083   2.543   1.631   3.714 -0.1068  2.1620 -1.3066
 2707TIP3   OH2 8084   1.121   1.194   2.320 -0.3834  0.1721  0.7897
 2707TIP3    H1 8085   1.182   1.262   2.349 -0.1161 -0.7396  2.4939
 2707TIP3    H2 8086   1.079   1.165   2.400 -1.7081 -0.5276 -0.1354
 2708TIP3   OH2 8087   3.103   4.435   0.591  0.3089  0.0270 -0.9191
 2708TIP3    H1 8088   3.156   4.387   0.655 -0.4294 -0.1809 -0.4418
 2708TIP3    H2 8089   3.037   4.479   0.644 -0.0592  0.1935 -1.5075
 2709TIP3   OH2 8090   5.532   1.524   2.213  0.5192  0.2520 -0.3021
 2709TIP3    H1 8091   5.588   1.464   2.164 -0.6650 -0.3491 -0.9850
 2709TIP3    H2 8092   5.524   1.484   2.299  0.4769 -0.0919 -0.4630
 2710TIP3   OH2 8093   3.208   1.164   5.605  0.2213 -0.4827  0.4040
 2710TIP3    H1 8094   3.263   1.094   5.639  0.0858 -0.3278  0.9429
 2710TIP3    H2 8095   3.248   1.187   5.521  0.0409 -1.4681  0.0312
 2711TIP3   OH2 8096   2.930   4.559   3.031 -0.1260  0.1536  0.2006
 2711TIP3    H1 8097   2.856   4.517   2.987  1.2549 -1.4320 -0.6831
 2711TIP3    H2 8098   2.939   4.644   2.987 -2.4272  1.1769  1.4649
 2712TIP3   OH2 8099   4.631   0.148   1.618  0.1420 -0.7269 -0.2327
 2712TIP3    H1 8100   4.558   0.199   1.654 -0.3985 -1.1283 -0.7417
 2712TIP3    H2 8101   4.668   0.205   1.551  1.0255 -0.0594  0.7952
 2713TIP3   OH2 8102   1.636   0.240   2.970 -0.2995 -0.9944 -0.2691
 2713TIP3    H1 8103   1.558   0.197   2.933  1.2222 -4.2241 -0.0562
 2713TIP3    H2 8104   1.607   0.272   3.056 -2.4120  1.6999 -1.8430
 2714TIP3   OH2 8105   5.855   3.769   0.004 -0.2743 -0.2088 -0.2262
 2714TIP3    H1 8106   5.768   3.753   0.039 -0.3127  1.1489  0.3521
 2714TIP3    H2 8107   5.873   3.861   0.024  1.7845 -0.7669  0.7863
 2715TIP3   OH2 8108   2.402   2.747   0.457  0.5437  0.1092  0.6376
 2715TIP3    H1 8109   2.445   2.661   0.447 -0.3748 -0.3010  0.1086
 2715TIP3    H2 8110   2.364   2.744   0.544 -3.4243 -1.9185 -0.9306
 2716TIP3   OH2 8111   4.773   0.522   3.288 -0.7407 -0.4241 -0.2854
 2716TIP3    H1 8112   4.845   0.531   3.226 -0.5804  1.1288  0.0826
 2716TIP3    H2 8113   4.754   0.428   3.290  0.5180 -0.7191 -1.2310
 2717TIP3   OH2 8114   6.970   3.712   0.851 -0.5231 -0.4489 -0.3006
 2717TIP3    H1 8115   7.022   3.639   0.884 -1.0031 -0.7078 -0.1016
 2717TIP3    H2 8116   6.880   3.690   0.875 -0.6273  0.4194  0.1529
 2718TIP3   OH2 8117   1.044   1.350   2.029 -0.3040  0.0387  0.4572
 2718TIP3    H1 8118   1.030   1.261   2.062  0.1154  0.5276  2.0491
 2718TIP3    H2 8119   1.139   1.360   2.024 -0.3548  0.2239 -0.2213
 2719TIP3   OH2 8120   4.597   4.051   1.527 -0.0029 -0.2091  0.5668
 2719TIP3    H1 8121   4.618   4.145   1.526  0.2652 -0.2618 -0.8389
 2719TIP3    H2 8122   4.652   4.015   1.596  1.8925  0.2609 -0.6168
 2720TIP3   OH2 8123   6.914   2.155   1.281  0.0383 -0.0867 -0.4035
 2720TIP3    H1 8124   6.948   2.133   1.195 -1.2296 -0.5894 -0.7983
 2720TIP3    H2 8125   6.825   2.120   1.282 -0.2053  0.4874  0.8727
 2721TIP3   OH2 8126   3.444   4.673   4.130  0.0559 -0.0669 -0.1588
 2721TIP3    H1 8127   3.349   4.687   4.135 -0.0703 -0.9837  0.0741
 2721TIP3    H2 8128   3.454   4.579   4.116  0.9517 -0.1302  0.7709
 2722TIP3   OH2 8129   3.862   0.436   1.020 -0.7530 -0.6298  0.8335
 2722TIP3    H1 8130   3.930   0.378   1.053  0.8195  0.8231  0.2691
 2722TIP3    H2 8131   3.871   0.517   1.070 -0.2445  0.5502 -1.0663
 2723TIP3   OH2 8132   1.205   6.788   2.277 -0.1671  0.5121 -0.0272
 2723TIP3    H1 8133   1.205   6.834   2.361  1.2280  0.5412 -0.0187
 2723TIP3    H2 8134   1.159   6.706   2.294 -2.3484  1.6703  0.0610
 2724TIP3   OH2 8135   7.015   2.121   4.757  0.2051 -0.1672 -0.0050
 2724TIP3    H1 8136   7.034   2.178   4.831 -0.3954 -0.7890  0.6520
 2724TIP3    H2 8137   7.030   2.032   4.790  2.4044 -0.3859 -1.3876
 2725TIP3   OH2 8138   5.318   2.231   1.091  0.1050 -0.1000 -0.1857
 2725TIP3    H1 8139   5.225   2.225   1.069  0.1880  0.3227 -0.6594
 2725TIP3    H2 8140   5.351   2.142   1.081 -0.0618 -0.0881 -0.8755
 2726TIP3   OH2 8141   2.264   4.246   3.741 -0.0829 -0.6942 -0.3012
 2726TIP3    H1 8142   2.307   4.177   3.791 -1.6887 -2.7156 -1.5657
 2726TIP3    H2 8143   2.299   4.327   3.778  0.3361 -2.0930  2.6613
 2727TIP3   OH2 8144   2.829   1.049   5.135  0.0667 -0.6768 -0.0511
 2727TIP3    H1 8145   2.869   1.085   5.214  0.1220 -1.9986  0.5553
 2727TIP3    H2 8146   2.897   0.992   5.098  0.7844  1.4397 -2.1859
 2728TIP3   OH2 8147   3.222   4.932   3.878 -0.0404  0.2277  0.6807
 2728TIP3    H1 8148   3.218   5.005   3.817 -1.3795 -1.9567 -2.0602
 2728TIP3    H2 8149   3.282   4.869   3.838 -1.8552 -1.7736  0.9124
 2729TIP3   OH2 8150   0.704   0.855   5.273  0.8240  0.0904 -0.2074
 2729TIP3    H1 8151   0.680   0.939   5.312  2.5856  0.3788  0.3398
 2729TIP3    H2 8152   0.771   0.820   5.331 -0.9040 -2.4491  0.4283
 2730TIP3   OH2 8153   3.876   0.162   5.286 -0.2170 -0.2055 -0.3373
 2730TIP3    H1 8154   3.833   0.077   5.274 -1.5464  0.3710  0.0660
 2730TIP3    H2 8155   3.877   0.175   5.381 -0.1290  0.2725 -0.3977
 2731TIP3   OH2 8156   0.516   5.036   4.133  0.1582 -0.8714 -0.1941
 2731TIP3    H1 8157   0.605   5.062   4.110  0.0258  3.2340  2.6778
 2731TIP3    H2 8158   0.522   5.009   4.225 -1.7099  1.9534  0.8971
 2732TIP3   OH2 8159   1.873   0.672   0.956 -0.2236  0.1928 -0.1145
 2732TIP3    H1 8160   1.856   0.688   1.048 -0.6319  0.1660 -0.1858
 2732TIP3    H2 8161   1.793   0.697   0.911  0.3873  1.3646 -0.5935
 2733TIP3   OH2 8162   6.979   4.415   1.002  0.1642 -0.0073 -0.4604
 2733TIP3    H1 8163   7.049   4.431   1.066  1.2666 -0.0286 -1.6166
 2733TIP3    H2 8164   6.939   4.501   0.989 -0.3612 -0.0817  0.5667
 2734TIP3   OH2 8165   2.607   3.454   2.970  0.0377  0.3108 -0.2109
 2734TIP3    H1 8166   2.656   3.482   2.893 -2.5872 -0.5547 -2.3134
 2734TIP3    H2 8167   2.630   3.518   3.037  0.4629  2.6332 -2.4232
 2735TIP3   OH2 8168   1.071   0.895   0.776 -0.2103  0.2278  0.0926
 2735TIP3    H1 8169   1.065   0.921   0.684  1.8947  0.3363 -0.0723
 2735TIP3    H2 8170   0.988   0.851   0.795  0.1343 -1.7528 -2.4780
 2736TIP3   OH2 8171   4.765   6.492   0.368  0.0579  0.0702 -0.2960
 2736TIP3    H1 8172   4.765   6.564   0.431 -0.4056 -1.3407  1.3917
 2736TIP3    H2 8173   4.805   6.529   0.289 -2.5789  2.9856 -0.4729
 2737TIP3   OH2 8174   0.240   2.963   5.489 -0.1159  0.3955 -0.0888
 2737TIP3    H1 8175   0.244   2.924   5.577  1.9118 -0.8184 -0.6478
 2737TIP3    H2 8176   0.230   2.888   5.430  1.5936  0.8716 -1.0487
 2738TIP3   OH2 8177   5.470   5.829   4.400  0.1778 -0.0868 -0.1678
 2738TIP3    H1 8178   5.535   5.896   4.423 -2.3333  2.7497 -0.6962
 2738TIP3    H2 8179   5.416   5.821   4.478  0.3043 -1.4043 -0.1985
 2739TIP3   OH2 8180   5.037   3.340   4.087  0.2327  0.2522 -0.2679
 2739TIP3    H1 8181   5.114   3.378   4.043 -0.2672  0.2963 -1.1287
 2739TIP3    H2 8182   4.987   3.299   4.016  0.6217 -1.8366  0.5768
 2740TIP3   OH2 8183   5.569   5.439   0.345 -0.0081  0.1591  0.6836
 2740TIP3    H1 8184   5.494   5.494   0.367  0.7139  1.3392  0.3184
 2740TIP3    H2 8185   5.605   5.479   0.265  0.2144 -1.1903  0.0716
 2741TIP3   OH2 8186   2.470   6.727   2.171  0.4393  0.3243 -0.0411
 2741TIP3    H1 8187   2.541   6.747   2.110  1.1300 -1.9549 -0.0866
 2741TIP3    H2 8188   2.514   6.688   2.247 -0.5145  1.9403  1.4143
 2742TIP3   OH2 8189   6.437   4.366   5.407 -0.2138  0.6068 -0.1588
 2742TIP3    H1 8190   6.482   4.437   5.453 -0.6642  0.6639  0.2115
 2742TIP3    H2 8191   6.435   4.294   5.471 -0.6174  0.5992 -0.1748
 2743TIP3   OH2 8192   2.453   1.724   4.950 -0.5108 -0.3768  0.0169
 2743TIP3    H1 8193   2.387   1.768   5.003 -0.1330  0.4141 -0.1413
 2743TIP3    H2 8194   2.532   1.726   5.004 -1.3215 -4.2865  1.6430
 2744TIP3   OH2 8195   3.137   1.725   3.950  0.1716 -0.1320  0.1317
 2744TIP3    H1 8196   3.201   1.795   3.961  2.6182 -1.4971 -3.5444
 2744TIP3    H2 8197   3.102   1.739   3.862 -1.4459 -1.9145  0.4378
 2745TIP3   OH2 8198   6.203   3.752   5.136 -0.3230 -0.3886 -0.6040
 2745TIP3    H1 8199   6.171   3.836   5.100 -2.6304 -1.3239 -0.9341
 2745TIP3    H2 8200   6.287   3.774   5.177 -1.3627  2.3259  0.3335
 2746TIP3   OH2 8201   3.068   3.044   0.060  0.6125 -0.0221 -0.4665
 2746TIP3    H1 8202   3.000   3.020   0.123  2.0022  0.8703  1.4922
 2746TIP3    H2 8203   3.034   3.123   0.018 -1.0483 -1.5313 -2.1172
 2747TIP3   OH2 8204   3.282   0.351   2.079  0.5253 -0.0705 -0.1731
 2747TIP3    H1 8205   3.219   0.330   2.148  0.6206  1.1817  0.3165
 2747TIP3    H2 8206   3.350   0.285   2.089  0.2378 -0.2728  0.5390
 2748TIP3   OH2 8207   1.773   0.335   3.342 -0.0677  0.2458  0.4686
 2748TIP3    H1 8208   1.695   0.367   3.295 -0.0496 -0.1801  0.1380
 2748TIP3    H2 8209   1.784   0.245   3.310 -0.2883 -0.1960  1.5926
 2749TIP3   OH2 8210   6.388   6.053   1.418  0.8117  0.2525 -0.2346
 2749TIP3    H1 8211   6.408   6.143   1.394 -2.5830  0.6827 -2.0933
 2749TIP3    H2 8212   6.352   6.058   1.506  0.1479  0.8030 -0.5334
 2750TIP3   OH2 8213   3.631   3.907   2.642  0.7350 -0.5094  0.0661
 2750TIP3    H1 8214   3.587   3.841   2.695 -0.4088 -0.8821 -1.2877
 2750TIP3    H2 8215   3.707   3.933   2.694 -0.0962 -1.1647  1.6652
 2751TIP3   OH2 8216   0.761   0.268   0.250 -0.0646 -0.5820 -0.1057
 2751TIP3    H1 8217   0.689   0.241   0.307 -0.2822 -2.0139 -1.0081
 2751TIP3    H2 8218   0.839   0.227   0.288  0.0216 -0.3578 -0.0379
 2752TIP3   OH2 8219   1.159   0.410   1.493 -0.0155 -0.4204  0.8526
 2752TIP3    H1 8220   1.205   0.494   1.506 -0.9122  0.2023  0.1245
 2752TIP3    H2 8221   1.100   0.404   1.568 -0.4146 -0.0753  0.5712
 2753TIP3   OH2 8222   2.750   1.320   1.814  0.1866  0.0226  0.4411
 2753TIP3    H1 8223   2.673   1.269   1.838  0.3521 -0.3142  0.2748
 2753TIP3    H2 8224   2.810   1.310   1.888  0.2095 -0.0144  0.4184
 2754TIP3   OH2 8225   5.332   3.772   1.454  0.0813 -0.1386  0.4150
 2754TIP3    H1 8226   5.373   3.695   1.492 -0.5535 -0.4229  0.5243
 2754TIP3    H2 8227   5.389   3.845   1.480 -0.6260 -0.2304  2.3910
 2755TIP3   OH2 8228   1.659   3.159   5.300  0.2102  0.4445  0.5680
 2755TIP3    H1 8229   1.647   3.250   5.273 -0.8928  0.1687  0.0827
 2755TIP3    H2 8230   1.751   3.140   5.281  0.1222  1.0682 -0.5483
 2756TIP3   OH2 8231   2.231   3.577   5.452  0.3863 -0.0215  0.6515
 2756TIP3    H1 8232   2.260   3.599   5.541  1.4466 -0.9189  0.5520
 2756TIP3    H2 8233   2.204   3.485   5.458  2.3124 -0.7052 -0.3397
 2757TIP3   OH2 8234   6.159   5.653   2.128 -0.7265 -0.1190  0.3235
 2757TIP3    H1 8235   6.082   5.605   2.100 -0.8563  0.4936 -0.3821
 2757TIP3    H2 8236   6.203   5.679   2.047 -0.8846  1.3200  0.6795
 2758TIP3   OH2 8237   2.149   6.195   4.007  0.1555  0.0060 -0.3111
 2758TIP3    H1 8238   2.092   6.163   4.077 -0.5096  1.9569  0.1098
 2758TIP3    H2 8239   2.121   6.147   3.929 -1.6016  0.3584  0.0455
 2759TIP3   OH2 8240   1.253   2.717   3.551  0.1489 -0.1734  0.3420
 2759TIP3    H1 8241   1.261   2.668   3.633 -0.1958  0.5919  0.8419
 2759TIP3    H2 8242   1.159   2.724   3.536  0.1811  0.6592  0.4815
 2760TIP3   OH2 8243   5.523   3.000   1.304 -0.2045  0.1059  0.0781
 2760TIP3    H1 8244   5.499   2.920   1.352 -0.9097  0.0565 -0.3502
 2760TIP3    H2 8245   5.494   3.071   1.361 -1.1374  0.0475 -0.3005
 2761TIP3   OH2 8246   6.086   3.379   0.809 -0.1915 -0.0106  0.0660
 2761TIP3    H1 8247   6.146   3.446   0.841 -0.9502  0.1854  1.1228
 2761TIP3    H2 8248   6.023   3.428   0.756  0.6500 -0.2425 -1.2124
 2762TIP3   OH2 8249   1.628   4.867   1.404  0.1252 -0.1681  0.5243
 2762TIP3    H1 8250   1.587   4.952   1.392  1.0383  0.2672  0.3970
 2762TIP3    H2 8251   1.581   4.808   1.345  2.1333  1.1210 -2.5632
 2763TIP3   OH2 8252   4.119   0.925   4.331 -0.1878  0.0813 -0.8185
 2763TIP3    H1 8253   4.211   0.930   4.305  0.2534 -0.6760  0.5005
 2763TIP3    H2 8254   4.097   0.833   4.324  0.8917 -0.8279  4.1841
 2764TIP3   OH2 8255   4.950   5.137   5.592 -0.2057  0.0995  0.4203
 2764TIP3    H1 8256   4.859   5.134   5.563  0.0218 -0.0485 -0.2996
 2764TIP3    H2 8257   5.001   5.114   5.514  0.5453  2.0492  0.2750
 2765TIP3   OH2 8258   1.654   0.954   4.642 -0.1828 -0.1452 -0.1002
 2765TIP3    H1 8259   1.687   0.958   4.732  0.6833 -0.4218 -0.4038
 2765TIP3    H2 8260   1.660   0.862   4.618  1.4541  0.1965 -1.1282
 2766TIP3   OH2 8261   0.189   5.939   1.528 -0.6622 -0.2960 -0.3260
 2766TIP3    H1 8262   0.228   5.920   1.443 -0.5001 -2.1640  0.1315
 2766TIP3    H2 8263   0.262   5.935   1.590 -0.6409  1.7984 -0.1436
 2767TIP3   OH2 8264   0.896   3.186   4.861 -0.6001 -0.3342  0.3241
 2767TIP3    H1 8265   0.885   3.098   4.826  1.3080 -0.4138 -0.2063
 2767TIP3    H2 8266   0.856   3.183   4.948  0.2874 -2.0301  0.7130
 2768TIP3   OH2 8267   5.920   0.071   4.645  0.0168  0.1017  0.1010
 2768TIP3    H1 8268   5.832   0.040   4.626  0.2182 -0.8642  0.6906
 2768TIP3    H2 8269   5.967  -0.006   4.676  0.7094  0.8583  1.0153
 2769TIP3   OH2 8270   5.914   0.154   5.391 -0.3269 -0.1316 -0.3215
 2769TIP3    H1 8271   5.895   0.084   5.329 -2.2236 -0.7437  0.8750
 2769TIP3    H2 8272   5.959   0.111   5.463 -0.3648  0.1209 -0.1452
 2770TIP3   OH2 8273   4.013   5.143   4.422 -0.1928 -0.5836 -0.1906
 2770TIP3    H1 8274   3.937   5.192   4.391  0.2326  0.0637 -0.2282
 2770TIP3    H2 8275   3.995   5.052   4.395 -0.2465 -0.1983 -1.5496
 2771TIP3   OH2 8276   5.766   2.217   0.860 -0.1757 -0.0807  0.5433
 2771TIP3    H1 8277   5.793   2.239   0.771 -2.7239 -0.8516 -0.5178
 2771TIP3    H2 8278   5.846   2.225   0.912  1.2799  0.9541 -1.6832
 2772TIP3   OH2 8279   4.527   5.595   1.371  0.4861 -0.0389 -0.4264
 2772TIP3    H1 8280   4.504   5.552   1.454  0.5152 -2.5974 -1.6395
 2772TIP3    H2 8281   4.623   5.589   1.368  0.5653  1.0082 -0.1822
 2773TIP3   OH2 8282   4.074   0.714   2.099  0.5492 -0.2825  0.1784
 2773TIP3    H1 8283   4.101   0.694   2.189  0.9264 -2.2801 -0.3164
 2773TIP3    H2 8284   3.993   0.664   2.087  0.9431 -0.7182 -0.8162
 2774TIP3   OH2 8285   1.722   4.103   5.036  0.2804 -0.0233  0.0482
 2774TIP3    H1 8286   1.644   4.117   4.983  0.4212  1.5791  0.2243
 2774TIP3    H2 8287   1.793   4.095   4.973  0.1117 -0.5884 -0.0767
 2775TIP3   OH2 8288   6.624   5.513   4.055 -0.1923  0.4673 -0.0925
 2775TIP3    H1 8289   6.691   5.515   4.124 -0.5301 -1.3559  0.3404
 2775TIP3    H2 8290   6.671   5.485   3.977 -0.6065 -2.0940  0.4996
 2776TIP3   OH2 8291   3.889   0.620   5.624  0.2649 -0.4657 -0.6960
 2776TIP3    H1 8292   3.905   0.597   5.532 -1.6212 -0.4869 -1.0651
 2776TIP3    H2 8293   3.855   0.709   5.620 -0.7491 -0.8085 -0.1419
 2777TIP3   OH2 8294   3.421   0.997   2.623 -0.4118  0.0233  0.2798
 2777TIP3    H1 8295   3.340   1.048   2.620  0.7034  1.8414 -0.9176
 2777TIP3    H2 8296   3.472   1.029   2.548  1.8014 -0.3774  1.5335
 2778TIP3   OH2 8297   6.222   0.139   1.280 -0.0348  0.1257 -0.8009
 2778TIP3    H1 8298   6.266   0.219   1.253  0.1437  0.8358  1.4199
 2778TIP3    H2 8299   6.292   0.076   1.293  0.3211  0.9532  1.7238
 2779TIP3   OH2 8300   1.909   1.505   3.018  0.4519 -0.2199 -0.2277
 2779TIP3    H1 8301   1.900   1.570   2.949 -0.2796 -0.3668 -0.2815
 2779TIP3    H2 8302   1.831   1.450   3.009 -0.9148  1.1462  2.1491
 2780TIP3   OH2 8303   6.487   3.876   2.550 -0.0491  0.2216 -0.2613
 2780TIP3    H1 8304   6.393   3.876   2.570 -0.4189  1.6551 -1.7913
 2780TIP3    H2 8305   6.523   3.806   2.604 -1.9602 -0.1942  0.5456
 2781TIP3   OH2 8306   6.570   2.514   0.481 -0.0553 -0.3620 -0.4051
 2781TIP3    H1 8307   6.515   2.552   0.549 -0.8266 -0.6363 -0.8686
 2781TIP3    H2 8308   6.510   2.495   0.409  0.7342 -0.1462 -1.1358
 2782TIP3   OH2 8309   0.759   2.437   3.871 -0.6893 -0.4326 -0.1575
 2782TIP3    H1 8310   0.819   2.497   3.826 -0.0164  0.1106  1.4067
 2782TIP3    H2 8311   0.814   2.366   3.902 -1.0055 -0.3927  0.5077
 2783TIP3   OH2 8312   5.237   3.632   0.473 -0.4919  0.5782  0.0061
 2783TIP3    H1 8313   5.161   3.633   0.532 -0.5112  1.1409 -0.0193
 2783TIP3    H2 8314   5.249   3.540   0.452 -0.6483  0.3927  0.6812
 2784TIP3   OH2 8315   0.934   5.167   2.332 -0.2397 -0.8197  0.1398
 2784TIP3    H1 8316   0.860   5.107   2.320  0.4385 -1.8436  0.9598
 2784TIP3    H2 8317   0.902   5.250   2.297 -2.7917 -0.4851  2.8641
 2785TIP3   OH2 8318   0.678   2.978   1.865 -0.4163 -0.1693 -0.4176
 2785TIP3    H1 8319   0.701   3.046   1.802  0.1404  0.0956  0.0615
 2785TIP3    H2 8320   0.754   2.971   1.922 -1.6567  1.0794  1.5296
 2786TIP3   OH2 8321   1.971   0.594   0.110 -0.8269  0.4929 -0.1793
 2786TIP3    H1 8322   1.915   0.524   0.078  0.5004 -1.0956  0.7883
 2786TIP3    H2 8323   1.912   0.656   0.151 -2.0263 -0.0970 -0.9673
 2787TIP3   OH2 8324   6.354   3.498   3.189  0.5194  0.3110  0.1064
 2787TIP3    H1 8325   6.388   3.571   3.137 -0.2975  1.0258  0.5516
 2787TIP3    H2 8326   6.327   3.538   3.272 -0.0302 -0.4816  0.3214
 2788TIP3   OH2 8327   5.606   0.893   2.005 -0.2263 -0.4468 -0.0646
 2788TIP3    H1 8328   5.517   0.906   1.974 -0.5716  0.1035  1.0872
 2788TIP3    H2 8329   5.596   0.855   2.092  0.5732  1.7472  1.0653
 2789TIP3   OH2 8330   0.007   4.771   5.571 -0.0565 -1.1013  0.2322
 2789TIP3    H1 8331   0.090   4.818   5.571 -0.8568  0.6412  3.8470
 2789TIP3    H2 8332   0.030   4.682   5.596  0.8523 -1.0905 -0.5047
 2790TIP3   OH2 8333   1.421   6.741   5.717  0.3191  0.2554  0.6057
 2790TIP3    H1 8334   1.397   6.830   5.741 -1.1292 -0.2800  1.2392
 2790TIP3    H2 8335   1.344   6.689   5.737  1.2303 -1.1953  0.4913
 2791TIP3   OH2 8336   4.838   0.250   4.024 -0.2829 -0.4782 -0.1622
 2791TIP3    H1 8337   4.815   0.195   4.099  1.8488  0.5529  1.3240
 2791TIP3    H2 8338   4.765   0.237   3.962 -1.0161 -3.0688  1.1038
 2792TIP3   OH2 8339   3.365   5.814   4.058 -0.5952  0.2706  0.2601
 2792TIP3    H1 8340   3.344   5.798   3.966  1.0538  0.4099 -0.1716
 2792TIP3    H2 8341   3.380   5.909   4.062  1.1709  0.0195  0.2365
 2793TIP3   OH2 8342   7.015   6.760   4.880 -0.0111  0.4636  0.8966
 2793TIP3    H1 8343   7.008   6.850   4.848  3.2643  0.8243  0.8487
 2793TIP3    H2 8344   7.082   6.720   4.824  0.9796 -0.9627  2.9653
 2794TIP3   OH2 8345   0.007   4.036   3.240  0.3337  0.2633 -0.4375
 2794TIP3    H1 8346   0.076   3.971   3.221  0.9365  0.2491  1.5644
 2794TIP3    H2 8347   0.035   4.115   3.193  1.2179 -0.0390 -0.4415
 2795TIP3   OH2 8348   1.735   6.185   2.077 -0.7730 -0.0471  0.4318
 2795TIP3    H1 8349   1.726   6.105   2.026  0.8162  1.4567 -2.4668
 2795TIP3    H2 8350   1.817   6.173   2.126 -0.9354 -0.4552  0.6119
 2796TIP3   OH2 8351   5.902   4.030   5.197  0.4846 -0.0709  0.1249
 2796TIP3    H1 8352   5.887   4.123   5.212  2.4138  0.0902  1.3624
 2796TIP3    H2 8353   5.863   4.013   5.111  0.1094  1.8586 -0.1349
 2797TIP3   OH2 8354   4.656   3.302   4.611  0.0977 -0.1347 -0.3364
 2797TIP3    H1 8355   4.568   3.337   4.625 -0.8269 -1.4805 -2.3698
 2797TIP3    H2 8356   4.713   3.379   4.617 -1.1038  0.6758  1.6409
 2798TIP3   OH2 8357   5.513   6.244   4.412  0.2090  0.3000 -0.0503
 2798TIP3    H1 8358   5.542   6.330   4.381 -0.0252  0.3462 -0.1456
 2798TIP3    H2 8359   5.492   6.196   4.333 -2.5968  1.1884  0.0538
 2799TIP3   OH2 8360   5.262   2.627   4.937 -0.2971 -0.3037 -0.4750
 2799TIP3    H1 8361   5.173   2.608   4.907  0.1343 -2.0319 -0.7570
 2799TIP3    H2 8362   5.251   2.696   5.003 -1.7202  0.2737 -1.2706
 2800TIP3   OH2 8363   6.783   0.343   0.322  0.1144 -0.1898 -0.1615
 2800TIP3    H1 8364   6.813   0.405   0.389  0.5246 -1.6372  1.0614
 2800TIP3    H2 8365   6.693   0.322   0.346  0.2068 -0.5892 -0.1474
 2801TIP3   OH2 8366   5.762   6.545   3.818 -0.7565 -0.1663  0.0086
 2801TIP3    H1 8367   5.856   6.538   3.802 -0.8310 -1.2268 -0.0370
 2801TIP3    H2 8368   5.754   6.605   3.891 -0.0494  0.0754 -0.1093
 2802TIP3   OH2 8369   3.637   4.362   5.893  0.1965  0.0486 -0.0623
 2802TIP3    H1 8370   3.625   4.355   5.798  0.5380  1.0885 -0.1947
 2802TIP3    H2 8371   3.697   4.291   5.915 -0.2621 -0.4985 -0.5463
 2803TIP3   OH2 8372   3.043   0.668   0.901  0.0280 -0.3920 -0.4903
 2803TIP3    H1 8373   3.121   0.713   0.869 -0.2332  1.7832  1.6271
 2803TIP3    H2 8374   3.060   0.575   0.884  2.0802  0.2116 -2.0634
 2804TIP3   OH2 8375   0.948   4.539   3.997 -0.0326 -0.5135  0.3806
 2804TIP3    H1 8376   0.988   4.608   4.049 -0.6648 -0.2512  0.5347
 2804TIP3    H2 8377   0.966   4.562   3.907 -1.4072  0.6230  0.3595
 2805TIP3   OH2 8378   4.137   0.208   5.872  0.6666 -0.5064 -0.6650
 2805TIP3    H1 8379   4.049   0.243   5.859 -0.0507 -1.9828  0.0043
 2805TIP3    H2 8380   4.187   0.241   5.796 -0.6980 -0.4296 -1.5664
 2806TIP3   OH2 8381   4.650   1.706   3.097  0.1075 -0.4889 -0.1472
 2806TIP3    H1 8382   4.712   1.729   3.167 -0.0673  0.0409 -0.1664
 2806TIP3    H2 8383   4.668   1.614   3.080  0.7530 -0.3958 -0.0105
 2807TIP3   OH2 8384   0.670   3.690   5.864 -0.1304  0.2310 -0.1095
 2807TIP3    H1 8385   0.642   3.599   5.853 -0.5622  0.3598 -0.1021
 2807TIP3    H2 8386   0.588   3.740   5.865  0.0174  0.4751  1.3238
 2808TIP3   OH2 8387   2.414   0.503   4.466  0.4872  0.3695 -0.1889
 2808TIP3    H1 8388   2.423   0.592   4.501  1.3905  0.4358 -0.5573
 2808TIP3    H2 8389   2.493   0.491   4.413  0.0699 -0.4307 -0.6360
 2809TIP3   OH2 8390   0.870   6.543   5.089  0.3525 -0.2039 -0.4921
 2809TIP3    H1 8391   0.827   6.619   5.128 -1.2055 -0.7281 -1.0816
 2809TIP3    H2 8392   0.963   6.566   5.087  0.3220  0.4525  2.0663
 2810TIP3   OH2 8393   0.025   4.767   4.947  0.2355  0.2688  0.3551
 2810TIP3    H1 8394   0.048   4.827   4.876  3.2081  0.4869  1.3460
 2810TIP3    H2 8395   0.090   4.785   5.015 -2.1504 -0.3113  2.9450
 2811TIP3   OH2 8396   0.760   6.032   5.200  0.3965  0.2104  0.1154
 2811TIP3    H1 8397   0.742   6.037   5.294 -1.6195 -0.1683 -0.2043
 2811TIP3    H2 8398   0.822   6.103   5.184 -1.1800  1.9778  1.3309
 2812TIP3   OH2 8399   1.722   1.714   0.833 -0.3513 -0.3951  0.3376
 2812TIP3    H1 8400   1.790   1.682   0.892 -0.9888 -1.6510  0.4176
 2812TIP3    H2 8401   1.656   1.752   0.891  0.1343  0.5670  0.2759
 2813TIP3   OH2 8402   2.476   0.393   0.006 -0.5711  0.7865  0.5561
 2813TIP3    H1 8403   2.389   0.367   0.038  0.2951 -0.3312  2.1153
 2813TIP3    H2 8404   2.518   0.311  -0.018  0.0129  1.3368 -0.3432
 2814TIP3   OH2 8405   4.183   4.478   4.997  0.5652 -0.0830  0.4603
 2814TIP3    H1 8406   4.134   4.464   4.916  0.7762 -0.9930  0.4776
 2814TIP3    H2 8407   4.220   4.566   4.988  0.1914  0.0120 -0.2176
 2815TIP3   OH2 8408   6.583   6.513   3.437  0.0112  0.2925 -0.4679
 2815TIP3    H1 8409   6.608   6.524   3.345  3.3175  1.4769  0.4433
 2815TIP3    H2 8410   6.620   6.429   3.463 -1.6040 -0.4264 -0.3432
 2816TIP3   OH2 8411   6.628   1.099   1.089 -0.4469 -0.4980  0.3884
 2816TIP3    H1 8412   6.686   1.023   1.088  0.9480  0.3762 -3.4869
 2816TIP3    H2 8413   6.578   1.091   1.170  2.6474 -3.1765  2.2322
 2817TIP3   OH2 8414   3.079   4.101   4.067 -0.0657 -0.0293  0.4865
 2817TIP3    H1 8415   3.094   4.037   4.137  1.5065  0.0072  0.2115
 2817TIP3    H2 8416   3.153   4.090   4.007 -1.0249  0.4053 -0.8385
 2818TIP3   OH2 8417   5.970   2.396   0.649  0.2502 -0.2681  0.2397
 2818TIP3    H1 8418   5.956   2.490   0.642  0.3350 -0.2942 -0.3792
 2818TIP3    H2 8419   6.025   2.375   0.573 -0.4690 -0.9490 -0.1083
 2819TIP3   OH2 8420   0.504   0.148   1.847  0.1193  0.4403 -0.1796
 2819TIP3    H1 8421   0.570   0.128   1.781  1.4574  2.6083  0.4044
 2819TIP3    H2 8422   0.531   0.098   1.924 -1.5927 -2.3077 -1.2035
 2820TIP3   OH2 8423   6.356   1.674   0.594  0.4680  0.3085 -0.6656
 2820TIP3    H1 8424   6.395   1.733   0.529 -0.6630 -2.1772 -3.8591
 2820TIP3    H2 8425   6.300   1.616   0.543  0.2740 -2.5520  2.4698
 2821TIP3   OH2 8426   2.888   1.142   2.450 -0.2163  0.1035  0.1403
 2821TIP3    H1 8427   2.925   1.222   2.412 -1.0766  1.8440  2.7065
 2821TIP3    H2 8428   2.945   1.121   2.524  0.1091 -1.8422 -0.6012
 2822TIP3   OH2 8429   6.694   2.846   3.417 -0.3365 -0.3655 -0.1512
 2822TIP3    H1 8430   6.687   2.771   3.358  0.4963 -1.3391  0.9385
 2822TIP3    H2 8431   6.615   2.842   3.471 -0.4789 -0.2246 -0.3477
 2823TIP3   OH2 8432   2.074   5.278   3.429 -0.3313 -0.2779 -0.3401
 2823TIP3    H1 8433   2.070   5.222   3.507 -1.7611 -0.7582 -0.7210
 2823TIP3    H2 8434   1.986   5.271   3.391  0.1868  0.3720 -1.6985
 2824TIP3   OH2 8435   6.543   6.464   1.657 -0.8000  0.1070 -0.1062
 2824TIP3    H1 8436   6.615   6.523   1.681 -0.2635 -0.9497  0.9751
 2824TIP3    H2 8437   6.586   6.387   1.621 -1.4340 -0.1782 -0.2681
 2825TIP3   OH2 8438   0.114   2.770   3.870  0.1839 -0.1027 -0.3747
 2825TIP3    H1 8439   0.075   2.857   3.872  0.5329  0.0812 -1.2585
 2825TIP3    H2 8440   0.074   2.728   3.793 -1.2117 -1.3124  0.9406
 2826TIP3   OH2 8441   3.529   4.659   0.580 -0.0447  0.3374  0.0353
 2826TIP3    H1 8442   3.512   4.648   0.673 -1.7429 -1.3102 -0.3993
 2826TIP3    H2 8443   3.611   4.613   0.565  0.1466  0.4599  0.6863
 2827TIP3   OH2 8444   1.053   4.682   1.364  0.3950 -0.1653  0.4793
 2827TIP3    H1 8445   1.001   4.762   1.357  1.5935  0.5697 -0.4864
 2827TIP3    H2 8446   1.006   4.619   1.310 -0.1339  0.1131  0.5992
 2828TIP3   OH2 8447   7.142   1.308   2.127  0.1336 -0.0545 -0.8115
 2828TIP3    H1 8448   7.175   1.377   2.071 -0.5466  0.1535 -0.9641
 2828TIP3    H2 8449   7.214   1.245   2.133  1.7045  1.7528  1.2782
 2829TIP3   OH2 8450   2.647   6.412   5.482 -0.1144 -0.0869  0.1890
 2829TIP3    H1 8451   2.644   6.344   5.415 -0.2925  0.2973 -0.1996
 2829TIP3    H2 8452   2.558   6.415   5.518  0.3610 -1.4018  1.5874
 2830TIP3   OH2 8453   2.189   4.202   2.745 -0.1725  0.2531 -0.0166
 2830TIP3    H1 8454   2.274   4.208   2.702 -0.2090 -1.7526 -0.4562
 2830TIP3    H2 8455   2.160   4.112   2.729 -2.2253  0.7791  0.4175
 2831TIP3   OH2 8456   4.347   1.893   2.417 -0.0702 -0.3588 -0.0820
 2831TIP3    H1 8457   4.388   1.940   2.489  1.6865 -0.5332 -0.9122
 2831TIP3    H2 8458   4.419   1.869   2.359 -1.4376  0.0591 -2.0832
 2832TIP3   OH2 8459   5.040   5.140   1.842 -0.1754  0.0724  0.1899
 2832TIP3    H1 8460   5.120   5.192   1.837 -0.4531  0.4438 -0.4025
 2832TIP3    H2 8461   4.991   5.162   1.763 -1.1898  0.3802  0.8897
 2833TIP3   OH2 8462   1.450   1.645   2.360  0.6392 -1.2663  0.0599
 2833TIP3    H1 8463   1.366   1.614   2.392  0.1115  0.2229  0.2053
 2833TIP3    H2 8464   1.478   1.579   2.297 -0.4409 -1.9941  0.3214
 2834TIP3   OH2 8465   0.596   4.812   3.309 -0.8181  0.0182 -0.0615
 2834TIP3    H1 8466   0.590   4.902   3.277 -2.0734 -0.8007 -2.4228
 2834TIP3    H2 8467   0.643   4.765   3.240  2.2091 -0.7226  2.3100
 2835TIP3   OH2 8468   6.878   6.486   2.799 -0.2257  0.2520 -0.4079
 2835TIP3    H1 8469   6.948   6.535   2.843 -0.2698 -0.1058  0.0782
 2835TIP3    H2 8470   6.809   6.550   2.785 -0.2301  0.3636  0.0945
 2836TIP3   OH2 8471   2.113   0.836   4.118 -0.4954 -0.3762  0.1612
 2836TIP3    H1 8472   2.176   0.764   4.109 -0.0014 -0.0452  0.8566
 2836TIP3    H2 8473   2.042   0.799   4.170 -0.0006 -0.2257  0.9620
 2837TIP3   OH2 8474   0.662   6.266   4.122  0.1296  0.5504  0.1028
 2837TIP3    H1 8475   0.592   6.331   4.125 -0.8449 -0.3234 -1.7380
 2837TIP3    H2 8476   0.618   6.185   4.096  1.4327 -0.6918  1.5392
 2838TIP3   OH2 8477   6.147   3.950   0.397  0.3441  0.3820 -0.4003
 2838TIP3    H1 8478   6.094   3.908   0.330  1.6220 -2.5194  0.2781
 2838TIP3    H2 8479   6.084   3.971   0.467 -0.4985  0.7373 -1.2366
 2839TIP3   OH2 8480   2.070   4.320   4.948 -0.4304  0.6033  0.1506
 2839TIP3    H1 8481   2.018   4.321   4.868  0.5118  2.8390 -0.5083
 2839TIP3    H2 8482   2.103   4.409   4.956 -0.0009  0.2959  2.7266
 2840TIP3   OH2 8483   1.373   5.078   2.434  0.2390 -0.3258 -0.5247
 2840TIP3    H1 8484   1.424   5.119   2.504  0.2305  0.3232 -0.8864
 2840TIP3    H2 8485   1.282   5.080   2.466  0.2488 -0.1246 -0.5071
 2841TIP3   OH2 8486   6.953   1.661   1.985 -0.1857  0.2105  0.0613
 2841TIP3    H1 8487   7.043   1.628   1.993 -0.2940 -0.1016  0.0173
 2841TIP3    H2 8488   6.908   1.594   1.933 -0.3130  0.6228 -0.3719
 2842TIP3   OH2 8489   4.223   2.381   1.122 -0.2390 -0.5611  0.0712
 2842TIP3    H1 8490   4.304   2.330   1.125 -0.0481 -0.3561 -1.1162
 2842TIP3    H2 8491   4.222   2.430   1.205  0.6824 -0.8170  0.2408
 2843TIP3   OH2 8492   2.320   4.541   2.462  0.4933 -0.0579  0.0934
 2843TIP3    H1 8493   2.245   4.569   2.514 -0.4029 -0.7487 -0.7941
 2843TIP3    H2 8494   2.367   4.622   2.442 -0.8479  0.5742 -0.6188
 2844TIP3   OH2 8495   0.579   5.533   0.607 -0.5170  0.0423  1.1159
 2844TIP3    H1 8496   0.591   5.449   0.652  0.9078 -0.8037 -0.7051
 2844TIP3    H2 8497   0.668   5.564   0.590 -0.9788  0.4589 -0.7711
 2845TIP3   OH2 8498   6.722   4.621   4.876 -0.8360  0.0758 -0.4791
 2845TIP3    H1 8499   6.761   4.602   4.790 -1.1048 -2.2714 -0.1528
 2845TIP3    H2 8500   6.705   4.715   4.874  2.5497  0.8170 -1.5775
 2846TIP3   OH2 8501   0.143   2.891   4.491 -0.3824  0.6368  0.1965
 2846TIP3    H1 8502   0.228   2.850   4.472 -0.4845  0.4326  0.1683
 2846TIP3    H2 8503   0.083   2.817   4.499 -0.7965  0.8186 -0.9522
 2847TIP3   OH2 8504   5.483   3.795   5.796 -0.8055  0.1862  0.1614
 2847TIP3    H1 8505   5.443   3.847   5.726  1.0014  2.3122  0.6346
 2847TIP3    H2 8506   5.424   3.806   5.871 -0.8586  0.8924  0.0194
 2848TIP3   OH2 8507   2.462   4.468   5.203 -0.5059 -0.1510  0.4047
 2848TIP3    H1 8508   2.504   4.484   5.118  0.8130  0.2029  1.0938
 2848TIP3    H2 8509   2.401   4.397   5.187 -0.7639  0.3572 -0.9922
 2849TIP3   OH2 8510   6.548   3.703   3.070  0.1582  0.9245  0.5240
 2849TIP3    H1 8511   6.568   3.786   3.028 -2.3827  1.4193  0.1527
 2849TIP3    H2 8512   6.581   3.636   3.010  0.1300  1.6518 -0.3052
 2850TIP3   OH2 8513   1.036   4.339   4.655  0.1261  0.1187 -0.3332
 2850TIP3    H1 8514   1.117   4.371   4.617 -0.5927 -1.3531 -3.3793
 2850TIP3    H2 8515   1.062   4.266   4.711  0.9204 -0.3745 -1.3328
 2851TIP3   OH2 8516   2.289   5.296   4.621  0.4342 -0.0754  0.4432
 2851TIP3    H1 8517   2.259   5.210   4.651  0.1698  0.0302  0.4832
 2851TIP3    H2 8518   2.234   5.316   4.545  0.6275 -0.0306  0.3151
 2852TIP3   OH2 8519   3.147   1.155   0.044 -0.4472  0.8770  0.0377
 2852TIP3    H1 8520   3.135   1.131  -0.049  0.0707  0.1660  0.1411
 2852TIP3    H2 8521   3.111   1.243   0.051  0.6339  1.4501 -1.1227
 2853TIP3   OH2 8522   0.238   3.364   2.375 -0.0363  0.0156  0.1230
 2853TIP3    H1 8523   0.314   3.372   2.317  1.4727 -0.9654  1.8447
 2853TIP3    H2 8524   0.234   3.448   2.420 -1.0550  0.6850 -1.1392
 2854TIP3   OH2 8525   4.709   3.469   1.419 -0.1504 -0.2485  0.1782
 2854TIP3    H1 8526   4.682   3.517   1.341 -1.0666 -1.1567 -0.0847
 2854TIP3    H2 8527   4.645   3.493   1.486 -0.0756 -0.3937  0.3029
 2855TIP3   OH2 8528   4.547   0.681   3.296  0.3980  0.2696  0.4079
 2855TIP3    H1 8529   4.616   0.619   3.271 -1.2462 -0.8750 -1.5657
 2855TIP3    H2 8530   4.493   0.632   3.359  0.1009  0.3443  0.2099
 2856TIP3   OH2 8531   0.887   0.540   4.091 -0.6856 -0.1439 -0.0125
 2856TIP3    H1 8532   0.814   0.593   4.122 -0.8587 -2.2600  3.8111
 2856TIP3    H2 8533   0.846   0.470   4.039 -1.2042 -0.3162  0.6175
 2857TIP3   OH2 8534   4.291   5.153   5.471 -0.2602  0.3390 -0.4039
 2857TIP3    H1 8535   4.202   5.170   5.500  0.2502  1.9345  0.2816
 2857TIP3    H2 8536   4.345   5.164   5.549  0.7950  1.7460 -1.2917
 2858TIP3   OH2 8537   5.953   1.414   1.047 -0.5277  0.1440 -0.4067
 2858TIP3    H1 8538   5.978   1.488   0.991  1.4864 -0.3494 -0.2396
 2858TIP3    H2 8539   6.034   1.388   1.090 -1.1743 -2.1818 -0.4563
 2859TIP3   OH2 8540   3.296   0.943   4.172  0.1314  0.1954  0.1510
 2859TIP3    H1 8541   3.284   0.861   4.123  1.3728  0.8371 -1.3137
 2859TIP3    H2 8542   3.222   0.997   4.146 -0.0067 -0.0075  0.1218
 2860TIP3   OH2 8543   3.681   4.259   0.762 -0.4842  0.4512 -0.1841
 2860TIP3    H1 8544   3.588   4.271   0.742 -0.4616  2.6645  0.7115
 2860TIP3    H2 8545   3.726   4.293   0.685 -0.3794 -1.4389 -0.9935
 2861TIP3   OH2 8546   0.623   2.568   4.462 -0.5105  0.0422 -0.1451
 2861TIP3    H1 8547   0.600   2.477   4.482 -0.9967  0.4324  1.1752
 2861TIP3    H2 8548   0.567   2.590   4.387 -0.0857 -0.8577 -0.7539
 2862TIP3   OH2 8549   6.273   2.725   3.490  0.0508 -0.6692 -0.1335
 2862TIP3    H1 8550   6.189   2.680   3.502 -1.3202  2.0376  1.3056
 2862TIP3    H2 8551   6.335   2.672   3.541 -0.4089 -3.3155 -2.0644
 2863TIP3   OH2 8552   1.028   4.441   3.458 -0.6762 -0.9317  0.3299
 2863TIP3    H1 8553   0.959   4.375   3.457 -2.1448  0.4889  1.5610
 2863TIP3    H2 8554   0.993   4.511   3.514  0.7015  0.9783 -1.0813
 2864TIP3   OH2 8555   4.612   0.713   0.253 -0.1507 -0.0899 -0.3249
 2864TIP3    H1 8556   4.608   0.778   0.182  1.2058 -0.2833 -0.5909
 2864TIP3    H2 8557   4.538   0.655   0.236  1.4236 -1.5096 -2.9640
 2865TIP3   OH2 8558   4.305   0.328   1.826 -0.1757  0.8300 -0.1444
 2865TIP3    H1 8559   4.370   0.264   1.856 -0.7400  0.7052  0.8453
 2865TIP3    H2 8560   4.310   0.324   1.730  1.3614  0.9250 -0.0965
 2866TIP3   OH2 8561   4.917   0.618   4.915 -0.8427 -0.1873  0.2487
 2866TIP3    H1 8562   4.857   0.672   4.968  0.7709 -0.2591  2.2919
 2866TIP3    H2 8563   4.927   0.537   4.965 -0.3912 -0.8907 -0.9393
 2867TIP3   OH2 8564   1.077   3.999   0.170  0.2747 -0.7816  0.4097
 2867TIP3    H1 8565   1.144   4.045   0.221  0.3307 -1.7991  1.2870
 2867TIP3    H2 8566   0.997   4.008   0.222  0.1183 -1.0404  0.2134
 2868TIP3   OH2 8567   3.447   6.264   2.182  0.0096 -0.1094 -0.0055
 2868TIP3    H1 8568   3.404   6.349   2.188 -0.8024 -0.6292  2.6444
 2868TIP3    H2 8569   3.405   6.222   2.107 -1.6981  0.6995  0.4490
 2869TIP3   OH2 8570   5.795   6.270   5.238 -0.2677  0.4663 -0.2863
 2869TIP3    H1 8571   5.813   6.346   5.183  1.1868  0.5502  0.2719
 2869TIP3    H2 8572   5.875   6.219   5.236  0.4494  1.2221  2.8996
 2870TIP3   OH2 8573   5.561   5.036   3.968 -0.2400 -0.0665  0.0605
 2870TIP3    H1 8574   5.490   5.072   4.021 -0.0928  0.8768 -0.3717
 2870TIP3    H2 8575   5.520   4.965   3.918 -0.7152  0.0202  0.3255
 2871TIP3   OH2 8576   5.064   1.704   0.313 -0.1258  0.7804  0.1295
 2871TIP3    H1 8577   5.116   1.631   0.347  0.4689  1.0336 -0.2069
 2871TIP3    H2 8578   5.006   1.664   0.248  1.0128  0.7480 -0.9115
 2872TIP3   OH2 8579   2.640   3.208   4.887 -0.3525 -0.1999 -0.2155
 2872TIP3    H1 8580   2.628   3.117   4.859  0.9884 -0.8395  1.1412
 2872TIP3    H2 8581   2.665   3.201   4.979 -0.4874  1.5766 -0.0115
 2873TIP3   OH2 8582   1.205   2.662   4.679 -0.1591 -0.0820 -0.1746
 2873TIP3    H1 8583   1.165   2.635   4.761  1.9172 -0.5250  0.7387
 2873TIP3    H2 8584   1.270   2.595   4.660  0.9063  1.1308 -1.0336
 2874TIP3   OH2 8585   7.101   4.137   5.199 -0.2227 -0.2611 -0.5650
 2874TIP3    H1 8586   7.186   4.163   5.234 -0.3050 -2.5846  1.6624
 2874TIP3    H2 8587   7.117   4.118   5.106  2.0898 -2.0794  0.1297
 2875TIP3   OH2 8588   2.024   0.469   3.290  0.1775  0.0555  0.4139
 2875TIP3    H1 8589   2.001   0.551   3.245  0.9946 -1.2149 -2.6032
 2875TIP3    H2 8590   1.940   0.426   3.306 -0.1168 -0.1848 -1.5368
 2876TIP3   OH2 8591   1.323   5.330   3.877 -0.1178 -0.4174 -0.5276
 2876TIP3    H1 8592   1.267   5.396   3.836  0.1339  0.6659  0.8046
 2876TIP3    H2 8593   1.310   5.252   3.824 -1.1556  0.4359 -1.5908
 2877TIP3   OH2 8594   3.691   4.953   3.344  0.3059 -0.3249 -0.2506
 2877TIP3    H1 8595   3.773   4.912   3.373  1.4282  2.3350  0.6843
 2877TIP3    H2 8596   3.659   5.001   3.420  0.3358  2.3118 -1.7457
 2878TIP3   OH2 8597   5.210   0.765   0.478  0.2276 -0.0278 -0.1980
 2878TIP3    H1 8598   5.185   0.813   0.557 -0.3928 -0.8329  0.1192
 2878TIP3    H2 8599   5.294   0.724   0.501  0.0103 -0.3234  0.0779
 2879TIP3   OH2 8600   0.270   2.043   1.868  0.1465 -0.4799 -0.0528
 2879TIP3    H1 8601   0.305   1.976   1.926  1.9660  1.6248  1.4802
 2879TIP3    H2 8602   0.212   1.996   1.807  0.4866 -3.2007  1.5906
 2880TIP3   OH2 8603   6.254   1.939   5.173  0.3339  0.4559 -0.2575
 2880TIP3    H1 8604   6.334   1.928   5.123 -0.7126 -1.0621 -1.7293
 2880TIP3    H2 8605   6.213   1.852   5.173 -1.4844  1.2470  0.1176
 2881TIP3   OH2 8606   1.304   5.918   5.247  0.0731 -0.0100  0.2707
 2881TIP3    H1 8607   1.307   6.007   5.211 -0.5457 -0.6512 -1.4596
 2881TIP3    H2 8608   1.211   5.897   5.252  0.2348 -1.1588 -0.9628
 2882TIP3   OH2 8609   6.472   3.265   3.083 -0.5248  0.2293  0.0412
 2882TIP3    H1 8610   6.435   3.346   3.119  2.6866  2.2656 -0.8323
 2882TIP3    H2 8611   6.461   3.273   2.989 -0.3827 -0.4857 -0.0411
 2883TIP3   OH2 8612   2.200   4.498   1.243 -0.4991 -0.3063 -0.3865
 2883TIP3    H1 8613   2.133   4.465   1.303  0.2752  0.7611  1.1525
 2883TIP3    H2 8614   2.274   4.438   1.255 -0.1592  0.2027  0.1623
 2884TIP3   OH2 8615   4.597   2.890   5.320  0.1880 -0.0494  0.4856
 2884TIP3    H1 8616   4.507   2.858   5.324  0.1800  0.0505  2.6658
 2884TIP3    H2 8617   4.632   2.870   5.407  2.0036  0.6883 -0.0472
 2885TIP3   OH2 8618   5.639   2.683   4.191 -0.4666 -0.2326  0.7605
 2885TIP3    H1 8619   5.698   2.732   4.248 -0.1108 -1.3947  1.4173
 2885TIP3    H2 8620   5.652   2.722   4.104 -0.2371  0.8556  1.2657
 2886TIP3   OH2 8621   1.600   2.538   3.493 -0.0961 -0.0043 -0.4813
 2886TIP3    H1 8622   1.547   2.534   3.573 -1.1616 -0.3387 -1.1925
 2886TIP3    H2 8623   1.690   2.545   3.525 -0.4763 -0.4750  0.7486
 2887TIP3   OH2 8624   0.583   0.912   5.832 -0.0457  0.1648 -0.2919
 2887TIP3    H1 8625   0.614   0.878   5.916  0.4183 -1.1529 -0.9776
 2887TIP3    H2 8626   0.661   0.913   5.776 -0.3512  1.0125 -0.7375
 2888TIP3   OH2 8627   2.139   1.758   3.558  0.1590  0.0871 -0.7833
 2888TIP3    H1 8628   2.211   1.807   3.599  0.1076 -0.4756  0.0147
 2888TIP3    H2 8629   2.181   1.709   3.486  0.3222  0.8031 -1.1800
 2889TIP3   OH2 8630   0.600   5.160   5.039 -0.0186  0.6528  0.1036
 2889TIP3    H1 8631   0.670   5.160   5.104  0.2424  0.1239 -0.1784
 2889TIP3    H2 8632   0.601   5.249   5.004 -0.2614  0.9899  0.9259
 2890TIP3   OH2 8633   5.196   2.545   5.815  0.6921 -0.2187  0.3357
 2890TIP3    H1 8634   5.105   2.537   5.786  0.6417  1.9410 -0.3056
 2890TIP3    H2 8635   5.210   2.639   5.824  3.0995 -0.4365 -0.3290
 2891TIP3   OH2 8636   1.365   5.694   3.539 -0.1318 -0.1776 -0.3342
 2891TIP3    H1 8637   1.273   5.668   3.541  0.2233 -1.5887 -1.0269
 2891TIP3    H2 8638   1.377   5.747   3.617 -1.2078 -1.1397  0.5124
 2892TIP3   OH2 8639   0.714   1.626   4.362 -0.2676  0.5692  0.1396
 2892TIP3    H1 8640   0.660   1.553   4.331 -0.9697  0.3841  1.7101
 2892TIP3    H2 8641   0.687   1.700   4.308 -1.4673  0.2723  0.3015
 2893TIP3   OH2 8642   2.499   0.374   4.047 -0.0351  0.1556  0.7045
 2893TIP3    H1 8643   2.536   0.286   4.048 -0.1275  0.1152  2.4667
 2893TIP3    H2 8644   2.542   0.417   3.973  0.2058 -1.2719 -0.0089
 2894TIP3   OH2 8645   4.590   1.413   1.306  0.0910 -0.2468 -0.5273
 2894TIP3    H1 8646   4.674   1.426   1.262  0.0480 -1.5675 -1.0143
 2894TIP3    H2 8647   4.603   1.334   1.359 -1.3431 -1.4373 -1.8855
 2895TIP3   OH2 8648   4.841   5.074   1.997  0.5330 -0.1583 -0.2761
 2895TIP3    H1 8649   4.834   5.164   2.028  0.2004 -0.5836  0.9595
 2895TIP3    H2 8650   4.930   5.067   1.961  1.2723  0.1689  1.3690
 2896TIP3   OH2 8651   4.783   6.241   2.945 -0.0916  0.1207  0.3377
 2896TIP3    H1 8652   4.847   6.170   2.950 -1.0801 -0.8533 -0.3201
 2896TIP3    H2 8653   4.778   6.276   3.034  1.3544  0.2504  0.3991
 2897TIP3   OH2 8654   3.904   6.038   5.668 -0.2281  0.5320 -0.3873
 2897TIP3    H1 8655   3.958   6.117   5.678 -0.1302  0.3313  0.8520
 2897TIP3    H2 8656   3.962   5.966   5.691 -0.6917  0.2111 -0.2101
 2898TIP3   OH2 8657   2.066   0.160   3.186  0.3368 -0.3048 -0.0293
 2898TIP3    H1 8658   2.084   0.215   3.109  1.2517  0.5642  0.7638
 2898TIP3    H2 8659   2.151   0.153   3.230  0.2484 -2.4237 -0.1210
 2899TIP3   OH2 8660   3.658   0.722   4.625 -0.0749 -0.1006  0.6330
 2899TIP3    H1 8661   3.633   0.708   4.533  0.6145 -1.0751  0.5835
 2899TIP3    H2 8662   3.594   0.673   4.675 -0.0826 -0.0747  0.6487
 2900TIP3   OH2 8663   4.351   3.553   0.330  0.2565 -0.0615 -0.0151
 2900TIP3    H1 8664   4.413   3.593   0.269  1.1440 -0.7740  0.4029
 2900TIP3    H2 8665   4.273   3.538   0.277  0.4271  0.8365 -0.5532
 2901TIP3   OH2 8666   4.256   6.568   1.809 -0.4868 -0.1713  0.1261
 2901TIP3    H1 8667   4.330   6.622   1.835 -1.6537  0.5453  2.1388
 2901TIP3    H2 8668   4.189   6.630   1.781 -0.9449 -0.7056 -0.0001
 2902TIP3   OH2 8669   4.067   1.153   5.239  0.7417  0.0130 -0.2000
 2902TIP3    H1 8670   4.029   1.088   5.298  0.7980  0.9112  0.8515
 2902TIP3    H2 8671   4.027   1.134   5.154 -0.5282 -0.3484  0.4474
 2903TIP3   OH2 8672   4.064   3.824   5.202  0.1212 -0.5725  0.1785
 2903TIP3    H1 8673   3.988   3.821   5.144  0.6933 -0.5201 -0.5993
 2903TIP3    H2 8674   4.134   3.781   5.152  0.6713 -0.3886  0.7671
 2904TIP3   OH2 8675   2.217   1.125   1.884  0.3239  0.0372 -0.4831
 2904TIP3    H1 8676   2.258   1.181   1.949  1.9603  0.8232 -2.0894
 2904TIP3    H2 8677   2.134   1.169   1.863 -0.1756 -0.1808  0.9439
 2905TIP3   OH2 8678   5.986   2.001   5.194  0.7991  0.0997 -0.3713
 2905TIP3    H1 8679   6.081   1.998   5.188  0.7126 -0.2353 -1.7055
 2905TIP3    H2 8680   5.960   2.068   5.131  0.0809 -0.6466 -0.8889
 2906TIP3   OH2 8681   6.550   2.206   5.309  0.0595 -0.9577  0.5523
 2906TIP3    H1 8682   6.555   2.294   5.348  0.7428 -0.2936 -0.9334
 2906TIP3    H2 8683   6.471   2.208   5.256  1.3570 -0.2941 -1.5040
 2907TIP3   OH2 8684   0.421   1.441   5.878 -0.5308 -0.5792 -0.5513
 2907TIP3    H1 8685   0.453   1.507   5.817  2.0202 -0.7855  0.4511
 2907TIP3    H2 8686   0.335   1.416   5.844 -0.0385  0.7015 -2.9079
 2908TIP3   OH2 8687   1.867   3.810   4.739 -0.5145 -0.2603  0.1046
 2908TIP3    H1 8688   1.856   3.789   4.647 -2.3235 -0.1237  0.2535
 2908TIP3    H2 8689   1.911   3.734   4.777  1.8640  0.3999 -1.1465
 2909TIP3   OH2 8690   2.595   0.333   3.220 -0.0866 -0.3332  0.6604
 2909TIP3    H1 8691   2.687   0.312   3.202 -0.0017 -2.6859  3.2260
 2909TIP3    H2 8692   2.595   0.371   3.308 -1.5115  0.5049  0.3378
 2910TIP3   OH2 8693   6.843   4.275   4.876 -0.4155  0.6027  0.2696
 2910TIP3    H1 8694   6.782   4.233   4.815 -1.8153  1.1365  1.2327
 2910TIP3    H2 8695   6.869   4.356   4.832  0.5525 -0.1934 -0.6542
 2911TIP3   OH2 8696   4.399   1.176   2.825  0.0499  0.1178 -0.0372
 2911TIP3    H1 8697   4.418   1.100   2.770  1.8575  0.1332  0.5149
 2911TIP3    H2 8698   4.306   1.166   2.848 -0.3442 -0.7015 -1.7825
 2912TIP3   OH2 8699   5.291   3.028   5.412 -0.4705  0.2144 -0.1230
 2912TIP3    H1 8700   5.267   2.937   5.396  1.1156 -0.1900 -0.3479
 2912TIP3    H2 8701   5.381   3.024   5.445 -0.6892  1.6379  0.7271
 2913TIP3   OH2 8702   2.186   4.382   0.428 -1.0243 -0.0001 -0.7250
 2913TIP3    H1 8703   2.111   4.372   0.370 -1.5526 -0.1833 -0.0273
 2913TIP3    H2 8704   2.242   4.307   0.408 -1.9108 -0.8937  0.0111
 2914TIP3   OH2 8705   2.702   1.607   5.731  0.1156 -0.6934  0.2956
 2914TIP3    H1 8706   2.643   1.664   5.682  0.8682  1.3209  1.5849
 2914TIP3    H2 8707   2.657   1.593   5.814  1.3199  0.8209  1.2731
 2915TIP3   OH2 8708   7.141   6.713   5.121  0.1432 -0.1555 -0.3026
 2915TIP3    H1 8709   7.075   6.717   5.052 -0.1179  0.3251 -0.0293
 2915TIP3    H2 8710   7.117   6.636   5.172  0.7716 -0.9567 -1.1704
 2916TIP3   OH2 8711   4.125   1.776   3.914 -0.2455  0.5095 -0.8178
 2916TIP3    H1 8712   4.178   1.771   3.834 -1.7940  1.3425 -1.9610
 2916TIP3    H2 8713   4.054   1.713   3.899  0.0959 -0.2006  0.4456
 2917TIP3   OH2 8714   1.484   6.090   1.448 -0.3138  0.3323 -0.1178
 2917TIP3    H1 8715   1.570   6.118   1.418 -0.0890  0.2120  0.4102
 2917TIP3    H2 8716   1.427   6.103   1.372 -0.4615  3.2758  0.3986
 2918TIP3   OH2 8717   1.323   2.043   2.848  0.5697 -0.1322  0.2760
 2918TIP3    H1 8718   1.313   2.037   2.943 -0.7517 -0.4906  0.1315
 2918TIP3    H2 8719   1.351   1.955   2.822  0.1712 -0.2519  0.2505
 2919TIP3   OH2 8720   2.562   4.088   5.496  0.0829 -0.4121  0.8277
 2919TIP3    H1 8721   2.652   4.055   5.488  0.5255  0.7011  1.0416
 2919TIP3    H2 8722   2.563   4.171   5.449 -0.8042 -0.3154  0.9652
 2920TIP3   OH2 8723   2.340   5.605   0.385 -0.2351 -0.4738 -0.8029
 2920TIP3    H1 8724   2.349   5.681   0.442 -0.8583  0.0321 -1.3703
 2920TIP3    H2 8725   2.418   5.553   0.402  0.3450  0.4337 -0.6309
 2921TIP3   OH2 8726   1.051   1.341   5.421 -0.9719  0.2663  0.0459
 2921TIP3    H1 8727   1.145   1.323   5.426 -1.0196  0.2434  1.6106
 2921TIP3    H2 8728   1.027   1.322   5.331  0.1887 -1.5427  0.0588
 2922TIP3   OH2 8729   2.425   3.412   1.837  0.3435  0.4114 -0.2987
 2922TIP3    H1 8730   2.498   3.385   1.894  1.0149  0.5724 -1.0538
 2922TIP3    H2 8731   2.398   3.497   1.872 -0.2277 -0.1453  0.6616
 2923TIP3   OH2 8732   4.648   1.517   4.996 -0.0676  0.7549  0.5191
 2923TIP3    H1 8733   4.575   1.495   5.053  1.3750 -1.4205  1.6978
 2923TIP3    H2 8734   4.618   1.492   4.908 -0.5018 -0.8511  1.0930
 2924TIP3   OH2 8735   0.140   0.123   1.526  0.0729 -0.0168  0.1980
 2924TIP3    H1 8736   0.150   0.107   1.432 -0.7184  0.7178 -0.0290
 2924TIP3    H2 8737   0.197   0.059   1.568 -0.4810 -1.1645 -0.7468
 2925TIP3   OH2 8738   4.852   5.835   1.236 -0.4493 -0.4589 -0.3716
 2925TIP3    H1 8739   4.927   5.881   1.198 -1.7671  0.9561 -1.4037
 2925TIP3    H2 8740   4.838   5.878   1.321 -2.2432  1.8824 -1.7163
 2926TIP3   OH2 8741   0.948   0.291   3.690  0.1774 -0.3738 -0.9401
 2926TIP3    H1 8742   1.030   0.334   3.718 -0.0310 -0.8949  0.5907
 2926TIP3    H2 8743   0.904   0.268   3.772 -0.6350 -1.7819 -1.7249
 2927TIP3   OH2 8744   4.611   3.092   4.004  0.6194  0.2404 -0.4668
 2927TIP3    H1 8745   4.614   3.070   3.911  2.9157  0.6358 -0.5364
 2927TIP3    H2 8746   4.636   3.184   4.008  0.6329  0.2020  0.5602
 2928TIP3   OH2 8747   4.298   6.615   1.191 -0.3696  0.0663 -0.6777
 2928TIP3    H1 8748   4.383   6.572   1.181 -0.0397  0.5134  0.0669
 2928TIP3    H2 8749   4.235   6.557   1.148  0.1372 -0.8755 -0.1580
 2929TIP3   OH2 8750   2.420   6.316   5.681 -0.0767 -0.1009  0.3344
 2929TIP3    H1 8751   2.335   6.284   5.712 -0.3551 -0.0319 -0.3470
 2929TIP3    H2 8752   2.455   6.243   5.629 -0.0156  0.1199  0.0673
 2930TIP3   OH2 8753   1.116   4.991   4.975 -0.1310  0.3564 -0.2442
 2930TIP3    H1 8754   1.050   5.052   4.941  0.3334  1.1382  0.2060
 2930TIP3    H2 8755   1.165   4.964   4.898 -0.7792  0.0031 -0.5419
 2931TIP3   OH2 8756   3.596   2.454   4.439  0.2079  0.3789  0.5114
 2931TIP3    H1 8757   3.528   2.488   4.497  0.2491  0.2309  0.6463
 2931TIP3    H2 8758   3.572   2.363   4.424 -1.2154  1.0385 -1.7368
 2932TIP3   OH2 8759   3.963   4.535   2.339 -0.0687  0.0911  0.1556
 2932TIP3    H1 8760   3.935   4.581   2.260  1.2187 -1.1030 -1.0331
 2932TIP3    H2 8761   3.944   4.596   2.410  0.2873  1.8833 -1.2238
 2933TIP3   OH2 8762   6.820   5.504   0.090  0.1588  0.2154 -0.0411
 2933TIP3    H1 8763   6.796   5.580   0.036  0.3272  0.5688  0.3762
 2933TIP3    H2 8764   6.893   5.463   0.044 -0.6905 -0.3938 -0.8972
 2934TIP3   OH2 8765   6.731   2.616   0.120  0.0546  0.2606 -0.1252
 2934TIP3    H1 8766   6.776   2.647   0.198  2.1566  0.8871 -1.4835
 2934TIP3    H2 8767   6.759   2.677   0.051 -1.3748 -0.5204 -1.4666
 2935TIP3   OH2 8768   7.037   5.264   5.180  0.0890 -0.5021  0.2062
 2935TIP3    H1 8769   7.068   5.215   5.104 -0.0504  1.5591 -1.2487
 2935TIP3    H2 8770   7.101   5.334   5.191 -2.4676  2.3163 -1.2770
 2936TIP3   OH2 8771   5.584   1.721   3.085 -0.2286 -0.0420  0.7171
 2936TIP3    H1 8772   5.608   1.636   3.048  4.1468  1.4941 -0.6462
 2936TIP3    H2 8773   5.647   1.736   3.155 -2.1156  1.3773  2.2339
 2937TIP3   OH2 8774   2.111   4.925   2.789 -0.2616  0.1534  0.1657
 2937TIP3    H1 8775   2.088   5.002   2.735 -0.4964  0.6143  0.9075
 2937TIP3    H2 8776   2.080   4.948   2.877  0.0302 -0.6327  0.4767
 2938TIP3   OH2 8777   6.906   6.735   5.642 -0.4343  0.2901 -0.0214
 2938TIP3    H1 8778   6.884   6.818   5.600  0.4826 -0.1937 -1.5310
 2938TIP3    H2 8779   6.943   6.760   5.727  1.8212  1.5947 -1.2956
 2939TIP3   OH2 8780   3.853   0.116   2.771  0.2746 -0.0254 -0.4831
 2939TIP3    H1 8781   3.778   0.067   2.804  0.9714 -1.1816 -0.5383
 2939TIP3    H2 8782   3.817   0.199   2.739 -0.9585 -0.5568 -0.4906
 2940TIP3   OH2 8783   2.975   0.052   4.152  0.1013 -0.1960  0.1480
 2940TIP3    H1 8784   3.043   0.118   4.162  0.2232 -0.2027 -0.5340
 2940TIP3    H2 8785   3.018  -0.018   4.102 -0.8295  0.4963 -1.7148
 2941TIP3   OH2 8786   6.822   2.323   5.046  0.5934 -0.0493  0.6734
 2941TIP3    H1 8787   6.763   2.350   4.976  0.5280 -0.5084  0.5492
 2941TIP3    H2 8788   6.816   2.228   5.047 -0.8549 -0.0009  2.5507
 2942TIP3   OH2 8789   6.203   5.949   1.257 -0.1455 -0.1846 -0.4798
 2942TIP3    H1 8790   6.247   5.947   1.172  1.3591  1.5078  0.1787
 2942TIP3    H2 8791   6.274   5.966   1.320 -1.6107  1.7704  0.7488
 2943TIP3   OH2 8792   5.502   5.882   3.508 -0.0275 -0.4667  0.1356
 2943TIP3    H1 8793   5.492   5.977   3.512 -1.7529 -0.5831 -0.5945
 2943TIP3    H2 8794   5.559   5.867   3.432 -2.4301 -0.0994 -1.8616
 2944TIP3   OH2 8795   6.026   6.666   3.622  0.4334  0.8394 -0.3970
 2944TIP3    H1 8796   5.945   6.717   3.623 -0.9090 -1.1592 -0.2500
 2944TIP3    H2 8797   6.050   6.661   3.529  0.3345  1.3376 -0.4519
 2945TIP3   OH2 8798   5.036   6.192   4.824 -0.1082  0.0627  0.3488
 2945TIP3    H1 8799   4.981   6.143   4.763  0.0612  1.7929 -1.2704
 2945TIP3    H2 8800   5.122   6.149   4.819 -0.2562 -0.1801 -0.1729
 2946TIP3   OH2 8801   3.137   0.592   1.770  0.1412 -0.5928  0.6205
 2946TIP3    H1 8802   3.223   0.594   1.812  0.6457  4.0384 -0.0953
 2946TIP3    H2 8803   3.077   0.623   1.838 -0.2640  0.0531 -0.0253
 2947TIP3   OH2 8804   3.772   1.507   4.031 -0.6439  0.3663 -0.0514
 2947TIP3    H1 8805   3.809   1.467   4.109  1.0385  2.8721  0.5232
 2947TIP3    H2 8806   3.847   1.539   3.981 -1.7365 -0.0563 -2.1214
 2948TIP3   OH2 8807   1.232   2.697   2.593 -0.0223 -0.5650 -0.0690
 2948TIP3    H1 8808   1.299   2.716   2.528  0.1930  1.1810  0.6105
 2948TIP3    H2 8809   1.256   2.611   2.627  1.4691 -0.2904 -0.3571
 2949TIP3   OH2 8810   4.180   4.763   1.789 -0.1210  0.0784  0.1618
 2949TIP3    H1 8811   4.256   4.821   1.785 -0.2742  0.4373  1.9389
 2949TIP3    H2 8812   4.107   4.820   1.809 -0.5571 -0.5077  0.2627
 2950TIP3   OH2 8813   2.849   2.769   1.455 -0.2246  0.1244 -0.0350
 2950TIP3    H1 8814   2.899   2.819   1.391 -0.1347  1.4080  0.9778
 2950TIP3    H2 8815   2.767   2.818   1.465  0.0562  0.3718  1.3183
 2951TIP3   OH2 8816   1.617   4.050   5.746 -0.1034 -0.2815 -0.5877
 2951TIP3    H1 8817   1.539   4.086   5.787  1.9499  1.9168  1.7813
 2951TIP3    H2 8818   1.632   4.106   5.669 -0.4823 -0.3008 -0.6770
 2952TIP3   OH2 8819   3.108   1.892   3.409  0.3158 -0.6094  0.1439
 2952TIP3    H1 8820   3.071   1.962   3.464  0.6336  0.2752 -0.7470
 2952TIP3    H2 8821   3.202   1.895   3.428  0.3943 -0.4623 -0.2760
 2953TIP3   OH2 8822   7.033   5.683   5.002 -0.4815  0.3267  0.0908
 2953TIP3    H1 8823   7.097   5.620   5.036 -3.0371 -1.8854  1.1945
 2953TIP3    H2 8824   7.028   5.751   5.070 -1.4912 -1.1376  1.5684
 2954TIP3   OH2 8825   6.204   6.078   0.176 -0.3149 -0.4280 -0.1030
 2954TIP3    H1 8826   6.185   5.996   0.131 -0.9640 -0.1151 -0.4174
 2954TIP3    H2 8827   6.132   6.089   0.239  0.6866 -0.9647  1.1828
 2955TIP3   OH2 8828   1.737   5.324   4.775  0.4252 -0.2233  0.1314
 2955TIP3    H1 8829   1.779   5.282   4.849 -0.1918 -1.3740 -0.1489
 2955TIP3    H2 8830   1.777   5.283   4.698  0.0907 -0.0345 -0.1503
 2956TIP3   OH2 8831   0.227   5.812   3.566  0.3050  0.2471 -0.7422
 2956TIP3    H1 8832   0.159   5.824   3.633  0.4340 -3.6416  0.3532
 2956TIP3    H2 8833   0.185   5.841   3.485 -1.7825  0.2799  0.2671
 2957TIP3   OH2 8834   6.596   0.522   4.878 -0.2732 -1.0857 -0.0937
 2957TIP3    H1 8835   6.650   0.572   4.817  0.2344  0.0072  1.2344
 2957TIP3    H2 8836   6.595   0.433   4.840  0.1863 -0.4986 -1.5737
 2958TIP3   OH2 8837   4.598   5.320   4.557 -0.4572  0.2288 -0.2137
 2958TIP3    H1 8838   4.530   5.279   4.611  0.1975  1.2964  1.4882
 2958TIP3    H2 8839   4.551   5.353   4.480 -2.3010  2.5770  1.7630
 2959TIP3   OH2 8840   0.949   0.411   4.895 -0.0258 -0.6466  0.6888
 2959TIP3    H1 8841   0.898   0.390   4.972  0.9395 -2.1630  0.9472
 2959TIP3    H2 8842   0.998   0.490   4.919  0.9922 -1.6290  2.0213
 2960TIP3   OH2 8843   1.515   3.851   2.085  0.4387  0.6478 -0.3253
 2960TIP3    H1 8844   1.502   3.820   1.995  1.0174 -0.6638  0.0111
 2960TIP3    H2 8845   1.535   3.771   2.134 -1.0774  1.1590  1.2205
 2961TIP3   OH2 8846   0.100   5.961   2.339  0.2662 -0.5352  0.1893
 2961TIP3    H1 8847   0.053   5.978   2.258 -0.2502 -1.2825  0.3198
 2961TIP3    H2 8848   0.175   5.909   2.313  0.7869  0.2753  0.0393
 2962TIP3   OH2 8849   1.392   4.209   4.197 -0.3127  0.1047  0.4537
 2962TIP3    H1 8850   1.297   4.214   4.203 -0.4512 -1.9316  0.7097
 2962TIP3    H2 8851   1.409   4.154   4.120  0.5092 -1.8657  1.9425
 2963TIP3   OH2 8852   3.375   6.247   3.653  0.2325  0.0383 -0.0328
 2963TIP3    H1 8853   3.460   6.237   3.697 -0.9882 -2.0095  2.0842
 2963TIP3    H2 8854   3.388   6.319   3.591  3.1029  0.6873  1.1823
 2964TIP3   OH2 8855   5.803   6.805   1.662  0.2900  0.3545  0.1542
 2964TIP3    H1 8856   5.810   6.762   1.576  0.4169 -1.0454  0.8313
 2964TIP3    H2 8857   5.734   6.757   1.707 -1.0739  2.2585  0.2021
 2965TIP3   OH2 8858   3.917   1.768   3.473 -0.4097  0.0207 -0.2604
 2965TIP3    H1 8859   3.830   1.792   3.507 -0.2844 -1.3877  1.1937
 2965TIP3    H2 8860   3.909   1.675   3.453  1.2278 -0.5825  1.5915
 2966TIP3   OH2 8861   5.357   6.025   0.905  0.0924  0.0806  0.3382
 2966TIP3    H1 8862   5.269   6.015   0.869  0.2904  0.6580 -0.3351
 2966TIP3    H2 8863   5.346   6.016   1.000 -0.8301  1.0481  0.3373
 2967TIP3   OH2 8864   3.660   1.835   3.617 -0.4969  0.5457  0.0231
 2967TIP3    H1 8865   3.632   1.820   3.707 -0.5370  1.1327  0.1146
 2967TIP3    H2 8866   3.601   1.782   3.564  2.1338 -3.2962  0.5147
 2968TIP3   OH2 8867   2.552   0.763   0.950 -0.0406  0.1597  0.4930
 2968TIP3    H1 8868   2.593   0.734   0.869  0.1140  0.4272  0.4721
 2968TIP3    H2 8869   2.620   0.816   0.993 -0.1273  0.0320  0.7882
 2969TIP3   OH2 8870   3.965   1.128   5.559  0.3294  0.3109 -0.7737
 2969TIP3    H1 8871   3.897   1.123   5.493  0.8225  1.2457 -1.3838
 2969TIP3    H2 8872   3.994   1.219   5.557  0.1051  0.4729  1.0010
 2970TIP3   OH2 8873   3.814   5.645   3.427 -0.4369  0.0153 -0.4758
 2970TIP3    H1 8874   3.721   5.622   3.432 -0.2762 -0.4174  1.3398
 2970TIP3    H2 8875   3.857   5.583   3.486  0.7594  1.3908  0.1680
 2971TIP3   OH2 8876   7.120   3.772   4.322 -0.1459 -0.4165  0.3667
 2971TIP3    H1 8877   7.054   3.824   4.276 -0.1357  0.5213  1.3712
 2971TIP3    H2 8878   7.118   3.805   4.412 -0.7229 -2.7272  1.2778
 2972TIP3   OH2 8879   4.542   3.066   5.106  0.6472  0.4397  0.2130
 2972TIP3    H1 8880   4.555   3.011   5.183 -1.3367  0.9118  0.9461
 2972TIP3    H2 8881   4.536   3.004   5.033  0.1514 -0.2091  0.7893
 2973TIP3   OH2 8882   3.020   2.621   3.940  0.1822 -0.2249  0.1007
 2973TIP3    H1 8883   3.068   2.701   3.922 -1.4053  0.5585 -0.8946
 2973TIP3    H2 8884   2.944   2.649   3.991  0.2404 -1.2818  0.8023
 2974TIP3   OH2 8885   2.538   4.682  -0.004  0.0235  0.0374 -0.0466
 2974TIP3    H1 8886   2.549   4.649   0.085  1.0819 -0.5405 -0.3820
 2974TIP3    H2 8887   2.562   4.608  -0.060 -0.3382  0.4924 -0.8147
 2975TIP3   OH2 8888   3.971   2.540   0.259  0.5732 -0.3753  0.2614
 2975TIP3    H1 8889   3.999   2.566   0.347  1.9539 -0.4866 -0.1156
 2975TIP3    H2 8890   4.000   2.612   0.202 -0.2803 -0.3189 -0.1132
 2976TIP3   OH2 8891   7.079   1.047   3.198  0.2236 -0.1583 -0.2673
 2976TIP3    H1 8892   7.136   1.018   3.269 -1.3213 -0.9024  0.7171
 2976TIP3    H2 8893   7.093   1.142   3.194  0.6665 -0.1679  0.7354
 2977TIP3   OH2 8894   6.193   6.301   4.139  0.9204 -0.2176 -0.4893
 2977TIP3    H1 8895   6.253   6.243   4.184 -0.3497 -1.1601  0.0648
 2977TIP3    H2 8896   6.106   6.272   4.167  0.2171  1.5019 -0.7462
 2978TIP3   OH2 8897   0.940   2.319   2.302  0.1316 -0.2812  0.5535
 2978TIP3    H1 8898   0.999   2.270   2.359  0.3829 -1.5160 -0.6998
 2978TIP3    H2 8899   0.857   2.322   2.350  0.6866 -0.1660  1.5231
 2979TIP3   OH2 8900   3.145   6.572   4.597 -0.2649  0.1175  0.0160
 2979TIP3    H1 8901   3.208   6.501   4.582  0.3267  0.8072 -0.8562
 2979TIP3    H2 8902   3.108   6.553   4.683 -0.4562 -1.4961 -0.3958
 2980TIP3   OH2 8903   1.483   6.424   5.251  0.1508  0.8406  0.6623
 2980TIP3    H1 8904   1.449   6.503   5.292 -0.7951  0.5711  0.4255
 2980TIP3    H2 8905   1.491   6.446   5.159 -1.0144  0.3833  0.4369
 2981TIP3   OH2 8906   6.371   4.633   0.651 -0.0738  0.4666 -0.0494
 2981TIP3    H1 8907   6.428   4.632   0.574 -0.8387 -1.4618 -0.6471
 2981TIP3    H2 8908   6.298   4.690   0.626  0.8887  1.8696  0.2269
 2982TIP3   OH2 8909   0.685   2.570   5.783  0.1458  0.6579 -0.2684
 2982TIP3    H1 8910   0.709   2.662   5.790  1.0658  0.5092 -1.1514
 2982TIP3    H2 8911   0.591   2.571   5.763  0.5896  1.5417 -2.7201
 2983TIP3   OH2 8912   4.503   5.247   2.346  0.3162  0.0213 -0.1042
 2983TIP3    H1 8913   4.446   5.266   2.421  0.4313  0.5077 -0.1348
 2983TIP3    H2 8914   4.446   5.204   2.283  0.5015 -1.5502  0.7633
 2984TIP3   OH2 8915   1.792   5.315   4.452  0.3295 -0.2728 -0.0256
 2984TIP3    H1 8916   1.864   5.354   4.501 -1.5547  0.0914  2.6651
 2984TIP3    H2 8917   1.716   5.369   4.474 -1.1347 -1.7060 -1.3094
 2985TIP3   OH2 8918   4.186   3.849   0.239  0.6450  0.4353  0.0059
 2985TIP3    H1 8919   4.219   3.877   0.154  1.6279 -1.2762 -0.2125
 2985TIP3    H2 8920   4.152   3.761   0.224 -0.2414  0.5509  1.1509
 2986TIP3   OH2 8921   2.913   3.213   3.991 -0.0331  0.2482 -0.1608
 2986TIP3    H1 8922   2.883   3.261   4.068  0.1235 -0.7214  0.5251
 2986TIP3    H2 8923   2.971   3.145   4.026  1.4550  0.8847 -1.2867
 2987TIP3   OH2 8924   0.546   2.736   3.876  0.2820  0.3894 -0.4197
 2987TIP3    H1 8925   0.502   2.821   3.870  0.6375  0.4969 -1.8658
 2987TIP3    H2 8926   0.508   2.684   3.805  0.6380 -0.4016 -0.0477
 2988TIP3   OH2 8927   6.517   5.839   1.951  0.0834 -0.0266 -0.5776
 2988TIP3    H1 8928   6.594   5.847   2.008  0.1033 -1.5536 -0.3478
 2988TIP3    H2 8929   6.462   5.773   1.995  0.5627 -2.0312 -2.7957
 2989TIP3   OH2 8930   5.010   5.996   0.101 -0.2858  0.2607  0.2815
 2989TIP3    H1 8931   4.998   6.043   0.183  0.4756  0.9141  0.0343
 2989TIP3    H2 8932   4.936   5.936   0.096 -1.7165  1.9328  0.2696
 2990TIP3   OH2 8933   3.648   5.665   2.802 -0.3692 -0.5823  0.4558
 2990TIP3    H1 8934   3.737   5.697   2.817 -0.3865 -0.9792  1.5023
 2990TIP3    H2 8935   3.602   5.683   2.885 -0.6569 -2.3333  0.7179
 2991TIP3   OH2 8936   1.974   4.185   5.500  0.0478  0.4905 -0.1265
 2991TIP3    H1 8937   1.983   4.174   5.405  0.3992 -1.0737  0.0587
 2991TIP3    H2 8938   1.959   4.279   5.512 -0.0565  0.7095 -1.7282
 2992TIP3   OH2 8939   2.563   3.137   2.174  0.5505  1.3205  0.0901
 2992TIP3    H1 8940   2.535   3.063   2.226 -1.4406  1.2268 -1.0127
 2992TIP3    H2 8941   2.510   3.210   2.205  0.8669  1.7453 -0.3504
 2993TIP3   OH2 8942   4.104   1.165   3.289  0.3361 -0.3353  0.0314
 2993TIP3    H1 8943   4.048   1.147   3.213 -0.4866  0.3554  0.4494
 2993TIP3    H2 8944   4.110   1.081   3.335 -1.3497 -0.1795  0.6101
 2994TIP3   OH2 8945   5.832   1.379   1.388  0.1141 -0.7219 -0.4904
 2994TIP3    H1 8946   5.815   1.312   1.323 -2.6142 -0.6018 -0.0343
 2994TIP3    H2 8947   5.747   1.420   1.403  1.4367  2.1036  0.0744
 2995TIP3   OH2 8948   5.194   4.643   1.931  0.0624  0.3540 -0.3260
 2995TIP3    H1 8949   5.166   4.698   1.857  0.3343  0.4101 -0.3906
 2995TIP3    H2 8950   5.284   4.619   1.909 -0.3351 -0.8567 -0.7292
 2996TIP3   OH2 8951   1.024   6.671   1.104 -0.0343  0.0859 -0.2508
 2996TIP3    H1 8952   1.102   6.635   1.147  0.2114 -0.0442 -0.7873
 2996TIP3    H2 8953   1.047   6.762   1.086  0.0041  0.0449 -0.4177
 2997TIP3   OH2 8954   2.872   3.934   2.953 -1.0183  0.4998  0.4809
 2997TIP3    H1 8955   2.959   3.900   2.932 -0.8459  0.1538  1.7248
 2997TIP3    H2 8956   2.889   4.008   3.011 -1.5822 -0.3999  1.8370
 2998TIP3   OH2 8957   1.093   4.247   3.165  0.4466  0.2050 -0.0735
 2998TIP3    H1 8958   1.137   4.305   3.226  0.6523 -2.2195  2.2836
 2998TIP3    H2 8959   1.164   4.196   3.125  0.2087  0.8519 -1.3604
 2999TIP3   OH2 8960   4.341   0.463   3.844  0.1284 -0.3036 -0.0273
 2999TIP3    H1 8961   4.431   0.467   3.875  0.7803 -0.9501 -1.6789
 2999TIP3    H2 8962   4.314   0.372   3.859  0.4483 -0.6199 -1.2727
 3000TIP3   OH2 8963   6.164   0.948   2.622  0.1545 -0.2438 -0.2501
 3000TIP3    H1 8964   6.171   0.996   2.705  1.4710 -0.5722 -0.1398
 3000TIP3    H2 8965   6.172   1.016   2.555  2.3182 -0.2817 -0.0967
 3001TIP3   OH2 8966   2.963   3.413   2.559  0.5208  0.0926  0.2240
 3001TIP3    H1 8967   2.930   3.349   2.496  2.2899  0.2073 -0.8880
 3001TIP3    H2 8968   3.040   3.371   2.597 -0.4943  0.0475  2.3356
 3002TIP3   OH2 8969   5.881   0.248   4.872 -0.3568  0.0317  0.3662
 3002TIP3    H1 8970   5.886   0.197   4.792 -1.7549 -1.2992  1.0593
 3002TIP3    H2 8971   5.953   0.217   4.926 -0.6198 -0.5243  0.3995
 3003TIP3   OH2 8972   4.507   2.921   0.717 -0.2847  0.4434  0.2663
 3003TIP3    H1 8973   4.511   3.012   0.690  0.3043  0.7262  1.2815
 3003TIP3    H2 8974   4.455   2.922   0.797 -0.1696 -0.1040  0.3508
 3004TIP3   OH2 8975   1.117   6.500   2.332  0.2642  0.5000  0.5608
 3004TIP3    H1 8976   1.067   6.423   2.359 -0.6268  0.9293  0.1846
 3004TIP3    H2 8977   1.180   6.467   2.268  0.6554 -0.0970  1.2447
 3005TIP3   OH2 8978   4.541   1.450   4.748  0.5119 -0.2444 -0.0238
 3005TIP3    H1 8979   4.618   1.410   4.707  1.0467 -0.8143  1.4641
 3005TIP3    H2 8980   4.467   1.397   4.717  0.8530 -0.4623 -0.4825
 3006TIP3   OH2 8981   5.588   6.745   1.921  0.8343  0.4712  0.2799
 3006TIP3    H1 8982   5.517   6.752   1.985 -0.1607  0.8092 -0.8006
 3006TIP3    H2 8983   5.562   6.671   1.865  0.1072  1.9838 -1.5069
 3007TIP3   OH2 8984   1.392   3.025   2.293  0.1444  0.3653  0.4664
 3007TIP3    H1 8985   1.305   2.997   2.323 -0.2900 -0.4629 -1.4105
 3007TIP3    H2 8986   1.416   2.960   2.227  1.7925  1.1215  0.2905
 3008TIP3   OH2 8987   0.149   3.749   0.410  0.0209 -0.3201  0.2695
 3008TIP3    H1 8988   0.190   3.729   0.494  2.3232  0.7229 -0.5163
 3008TIP3    H2 8989   0.081   3.813   0.430 -0.2037 -0.9001  1.4477
 3009TIP3   OH2 8990   4.804   0.735   4.633  0.1742 -0.0567  0.1454
 3009TIP3    H1 8991   4.876   0.739   4.571  0.1796 -1.3445  0.0349
 3009TIP3    H2 8992   4.838   0.686   4.707 -0.7575 -1.2965 -0.1993
 3010TIP3   OH2 8993   5.164   6.623   2.847 -0.0760 -0.2178  1.0150
 3010TIP3    H1 8994   5.115   6.564   2.790  0.1564 -1.0922  1.6816
 3010TIP3    H2 8995   5.123   6.613   2.933  1.3299 -1.1064  1.6282
 3011TIP3   OH2 8996   2.589   6.025   4.005 -0.3930 -0.4618  0.5458
 3011TIP3    H1 8997   2.556   5.948   4.052 -3.6845 -0.0135 -0.7621
 3011TIP3    H2 8998   2.534   6.097   4.035  0.8170  0.8536 -0.2645
 3012TIP3   OH2 8999   3.623   4.309   1.805 -0.4020 -0.5447 -0.0351
 3012TIP3    H1 9000   3.672   4.323   1.724  1.1406  1.0522  1.0918
 3012TIP3    H2 9001   3.578   4.391   1.820  0.5379 -0.2677  1.4689
 3013TIP3   OH2 9002   3.272   5.571   4.319 -0.4005 -0.4640 -0.5753
 3013TIP3    H1 9003   3.250   5.592   4.410 -0.7867 -2.2071 -0.2304
 3013TIP3    H2 9004   3.350   5.515   4.325  1.1655  1.5101 -1.5044
 3014TIP3   OH2 9005   6.384   6.037   4.983 -0.1255 -0.5253 -0.3299
 3014TIP3    H1 9006   6.473   6.012   5.008  0.1422 -0.0118 -0.7257
 3014TIP3    H2 9007   6.336   6.043   5.066  0.2369 -0.7096 -0.1061
 3015TIP3   OH2 9008   6.343   3.889   1.898  0.1102 -0.5205  0.1523
 3015TIP3    H1 9009   6.285   3.952   1.942 -2.0546 -2.5144  0.3168
 3015TIP3    H2 9010   6.358   3.927   1.811 -1.0553  0.2918  0.2826
 3016TIP3   OH2 9011   0.172   5.744   5.901 -0.3358 -0.7584  0.5179
 3016TIP3    H1 9012   0.087   5.710   5.930 -1.1808  0.4808 -0.4076
 3016TIP3    H2 9013   0.160   5.763   5.808  1.1472 -1.0799  0.2263
 3017TIP3   OH2 9014   6.292   1.003   3.411  0.7102 -0.1018 -0.8887
 3017TIP3    H1 9015   6.235   0.945   3.359  0.8613 -0.9464 -0.1385
 3017TIP3    H2 9016   6.379   0.990   3.374  1.1958 -2.2806  0.8168
 3018TIP3   OH2 9017   5.598   5.416   5.697  0.3668 -0.2056 -0.1896
 3018TIP3    H1 9018   5.548   5.496   5.689 -1.1217 -0.7353  2.6523
 3018TIP3    H2 9019   5.669   5.437   5.758 -0.1756 -1.0566  0.7755
 3019TIP3   OH2 9020   2.858   0.873   0.741  0.3241  0.0714 -0.2412
 3019TIP3    H1 9021   2.893   0.914   0.820  0.7545 -2.5107  1.0227
 3019TIP3    H2 9022   2.930   0.820   0.708 -0.1211  0.4766 -1.9364
 3020TIP3   OH2 9023   5.305   5.303   3.323 -0.0277 -0.5194  0.2382
 3020TIP3    H1 9024   5.353   5.221   3.321  0.5589 -0.1765 -0.9973
 3020TIP3    H2 9025   5.308   5.335   3.233 -0.9358  0.4635  0.5252
 3021TIP3   OH2 9026   4.617   5.210   1.054 -0.0397  0.3346  0.0492
 3021TIP3    H1 9027   4.538   5.168   1.019 -0.0083 -1.2042  1.6480
 3021TIP3    H2 9028   4.679   5.209   0.982 -1.1257  0.5759 -0.9165
 3022TIP3   OH2 9029   3.706   5.411   0.740 -0.3218 -0.3604 -0.5724
 3022TIP3    H1 9030   3.792   5.418   0.782  0.1611 -2.0587 -1.2274
 3022TIP3    H2 9031   3.651   5.473   0.789  0.7387 -0.7467  1.2037
 3023TIP3   OH2 9032   5.160   5.028   5.725  0.0409  0.1447 -0.1780
 3023TIP3    H1 9033   5.084   5.075   5.690 -0.5263 -0.7896 -0.2234
 3023TIP3    H2 9034   5.235   5.075   5.690 -0.5193  0.0884 -1.4994
 3024TIP3   OH2 9035   6.392   3.698   2.796  0.0973 -0.1935 -0.1573
 3024TIP3    H1 9036   6.341   3.767   2.838 -0.6967 -1.7150  1.4731
 3024TIP3    H2 9037   6.330   3.627   2.782  1.3217 -1.3178 -0.0012
 3025TIP3   OH2 9038   5.577   5.279   2.500  0.5471  0.4378 -0.4595
 3025TIP3    H1 9039   5.506   5.301   2.439  1.2637  1.0660 -1.0774
 3025TIP3    H2 9040   5.646   5.341   2.481  1.4357 -0.4168 -0.1288
 3026TIP3   OH2 9041   6.678   0.809   2.678  0.1496 -0.6981 -0.0687
 3026TIP3    H1 9042   6.614   0.878   2.694  0.4829 -0.7538  1.6728
 3026TIP3    H2 9043   6.731   0.842   2.606 -1.5893 -0.5134 -1.3520
 3027TIP3   OH2 9044   5.750   5.768   2.068 -0.3484 -0.4998 -0.4551
 3027TIP3    H1 9045   5.709   5.838   2.118  1.6393 -0.6081  1.4674
 3027TIP3    H2 9046   5.812   5.814   2.010 -0.5048 -0.5463 -0.6586
 3028TIP3   OH2 9047   1.665   3.284   0.757 -0.4387 -0.0036 -0.0633
 3028TIP3    H1 9048   1.715   3.324   0.686  0.0190 -0.0450  0.2306
 3028TIP3    H2 9049   1.686   3.191   0.752  0.0867  0.0770  0.5059
 3029TIP3   OH2 9050   3.263   5.441   5.106  0.3632 -0.0869 -0.4734
 3029TIP3    H1 9051   3.350   5.408   5.085  0.5456  0.3564 -0.4421
 3029TIP3    H2 9052   3.278   5.533   5.129 -0.2170  0.2106 -1.2505
 3030TIP3   OH2 9053   1.875   0.887   2.120  0.4139  0.0362  0.3044
 3030TIP3    H1 9054   1.945   0.948   2.143 -0.0002  0.5204  0.3054
 3030TIP3    H2 9055   1.839   0.859   2.204 -0.6495  1.2776  0.2924
 3031TIP3   OH2 9056   6.745   6.286   3.093  0.2525 -0.7506 -0.3258
 3031TIP3    H1 9057   6.762   6.238   3.012 -0.3077 -0.9274 -0.3441
 3031TIP3    H2 9058   6.831   6.301   3.130  0.4542 -1.6491 -0.3986
 3032TIP3   OH2 9059   1.912   0.908   3.897 -0.6367  0.2533 -0.0036
 3032TIP3    H1 9060   1.982   0.907   3.962  0.2231  1.1961 -0.8759
 3032TIP3    H2 9061   1.832   0.889   3.946  0.2802 -1.3971  0.9314
 3033TIP3   OH2 9062   6.215   4.502   0.844  1.0055  0.0878 -0.2464
 3033TIP3    H1 9063   6.260   4.537   0.768  0.1388  0.2527 -0.6984
 3033TIP3    H2 9064   6.251   4.414   0.855  0.7042 -0.1646 -1.2213
 3034TIP3   OH2 9065   0.744   2.999   0.639  0.2376  0.3038  0.4101
 3034TIP3    H1 9066   0.799   2.950   0.579  0.8000  1.6654 -0.2412
 3034TIP3    H2 9067   0.772   2.971   0.726  1.1147  0.0937  0.0666
 3035TIP3   OH2 9068   5.624   2.074   2.569 -0.5668  0.0521 -0.0694
 3035TIP3    H1 9069   5.635   2.130   2.492  0.1202 -0.1893 -0.1514
 3035TIP3    H2 9070   5.712   2.063   2.604 -0.7356 -0.7000  0.1364
 3036TIP3   OH2 9071   6.419   5.486   3.559 -0.2499 -0.8453 -0.9855
 3036TIP3    H1 9072   6.512   5.503   3.572 -0.1161 -2.6168  1.0890
 3036TIP3    H2 9073   6.412   5.454   3.470  1.1788 -0.9663 -1.0728
 3037TIP3   OH2 9074   0.099   0.326   2.740  0.4973 -0.7034  0.5256
 3037TIP3    H1 9075   0.118   0.350   2.650 -3.1388  1.3269  0.0787
 3037TIP3    H2 9076   0.141   0.394   2.793  0.0932 -0.1251  0.1107
 3038TIP3   OH2 9077   6.088   0.117   4.453 -0.6648 -0.0366 -0.2412
 3038TIP3    H1 9078   6.027   0.113   4.527  0.3863  1.9226  0.8261
 3038TIP3    H2 9079   6.056   0.052   4.392 -2.7471 -0.3528  1.0809
 3039TIP3   OH2 9080   2.376   4.232   4.808  0.6314  0.3802  0.2911
 3039TIP3    H1 9081   2.385   4.263   4.898  0.6967  1.5814 -0.1024
 3039TIP3    H2 9082   2.466   4.220   4.778  0.6060 -0.2154  0.4423
 3040TIP3   OH2 9083   0.979   0.167   0.379 -0.5563  0.0232 -0.8226
 3040TIP3    H1 9084   1.007   0.100   0.317  0.9313  2.0753 -2.4909
 3040TIP3    H2 9085   1.030   0.149   0.458 -0.3937 -0.9666 -1.1347
 3041TIP3   OH2 9086   2.722   0.203   3.683 -0.1580  0.0432 -0.2196
 3041TIP3    H1 9087   2.683   0.171   3.765  0.3425 -1.9380 -0.7001
 3041TIP3    H2 9088   2.781   0.274   3.710  0.3884 -0.9118  1.2061
 3042TIP3   OH2 9089   3.577   3.828   3.950 -0.3880 -0.0106 -0.4142
 3042TIP3    H1 9090   3.595   3.795   4.037 -0.3206  2.3532  0.5337
 3042TIP3    H2 9091   3.606   3.759   3.891 -2.8970 -2.8541  1.4052
 3043TIP3   OH2 9092   6.824   5.888   0.783  0.5217 -0.1734  0.5040
 3043TIP3    H1 9093   6.824   5.984   0.792 -0.6083 -0.2190  1.1726
 3043TIP3    H2 9094   6.806   5.856   0.871 -1.7110 -0.9101 -0.1503
 3044TIP3   OH2 9095   6.910   5.427   3.613 -0.0991  0.4274  0.2893
 3044TIP3    H1 9096   6.841   5.492   3.624  0.0865  0.5290  0.8816
 3044TIP3    H2 9097   6.990   5.473   3.638  0.4214  0.7896 -1.8605
 3045TIP3   OH2 9098   5.206   2.624   3.322 -0.4426  0.6500 -0.5120
 3045TIP3    H1 9099   5.274   2.638   3.388  1.0658 -0.9244 -1.5979
 3045TIP3    H2 9100   5.241   2.552   3.268 -2.7400  0.1760 -1.4811
 3046TIP3   OH2 9101   0.412   4.655   1.888  0.2649 -0.1417  0.3715
 3046TIP3    H1 9102   0.342   4.714   1.915 -0.0814  0.5864 -1.8869
 3046TIP3    H2 9103   0.492   4.707   1.898  0.2085 -0.0973  0.5895
 3047TIP3   OH2 9104   0.617   4.444   1.693  0.1733 -0.4005 -0.4406
 3047TIP3    H1 9105   0.559   4.414   1.763 -0.5480  0.7272 -0.5260
 3047TIP3    H2 9106   0.701   4.402   1.711  0.1029  0.1294  1.2929
 3048TIP3   OH2 9107   0.796   0.704   2.351 -0.0524  0.3330 -0.1213
 3048TIP3    H1 9108   0.793   0.609   2.358  2.2898  0.1779 -0.3522
 3048TIP3    H2 9109   0.739   0.736   2.421 -1.5229 -1.2152 -0.5651
 3049TIP3   OH2 9110   0.589   5.883   1.027  0.0488  0.3605 -0.3974
 3049TIP3    H1 9111   0.651   5.863   0.957  2.4119  2.5455  0.9188
 3049TIP3    H2 9112   0.617   5.968   1.061 -2.4900  0.5123  1.6250
 3050TIP3   OH2 9113   5.828   6.671   0.860 -0.1051  0.0188 -0.0739
 3050TIP3    H1 9114   5.894   6.734   0.829  2.0897 -1.5765  1.0564
 3050TIP3    H2 9115   5.813   6.694   0.951  0.6318 -0.9722  0.3167
 3051TIP3   OH2 9116   6.910   2.248   3.675  0.2875 -0.5319 -0.3898
 3051TIP3    H1 9117   6.896   2.317   3.740  0.7267 -0.1084 -0.7339
 3051TIP3    H2 9118   6.904   2.293   3.591  0.3728 -0.9543 -0.6238
 3052TIP3   OH2 9119   1.913   5.823   5.120 -0.0880 -0.3339  0.0506
 3052TIP3    H1 9120   1.970   5.868   5.183  0.0329 -1.5601  0.8491
 3052TIP3    H2 9121   1.965   5.749   5.090 -0.3987 -0.1341 -1.0214
 3053TIP3   OH2 9122   6.753   0.587   1.416  0.3470  0.1667  0.2275
 3053TIP3    H1 9123   6.829   0.590   1.359  0.5407 -0.1775  0.4615
 3053TIP3    H2 9124   6.776   0.643   1.490  0.0474  0.7118 -0.0842
 3054TIP3   OH2 9125   2.703   5.308   5.147 -0.2718  0.1998  0.6496
 3054TIP3    H1 9126   2.791   5.344   5.163 -1.1860  3.4117 -0.6696
 3054TIP3    H2 9127   2.716   5.245   5.076  0.8302  1.9184 -0.7694
 3055TIP3   OH2 9128   1.257   0.287   4.608  0.0917  0.2279  0.2202
 3055TIP3    H1 9129   1.303   0.330   4.680  0.2821 -0.3478  0.4490
 3055TIP3    H2 9130   1.170   0.267   4.643 -1.3439  3.5793 -0.9833
 3056TIP3   OH2 9131   4.384   0.762   2.455 -0.1698 -0.3909  0.3733
 3056TIP3    H1 9132   4.313   0.720   2.407 -1.6196  1.3476  0.8869
 3056TIP3    H2 9133   4.431   0.690   2.497 -0.6862 -1.7046 -1.1700
 3057TIP3   OH2 9134   5.072   1.160   2.980  0.0155 -0.9638 -0.1873
 3057TIP3    H1 9135   5.063   1.118   2.895  0.6548  1.6079 -1.6389
 3057TIP3    H2 9136   5.135   1.231   2.965 -2.5939  1.9446  1.3793
 3058TIP3   OH2 9137   5.214   5.173   1.577  0.3612 -0.3119 -0.0941
 3058TIP3    H1 9138   5.226   5.234   1.504 -0.3872 -1.5715 -1.3279
 3058TIP3    H2 9139   5.289   5.188   1.635  0.9371  0.7627 -1.0921
 3059TIP3   OH2 9140   6.598   1.855   2.798  0.2935 -0.4799 -0.3915
 3059TIP3    H1 9141   6.619   1.794   2.869 -1.2095 -0.5401  0.0196
 3059TIP3    H2 9142   6.636   1.938   2.826  2.9041 -1.2940 -1.2344
 3060TIP3   OH2 9143   3.786   5.582   1.643  0.0898  0.0850  0.1357
 3060TIP3    H1 9144   3.854   5.514   1.642  2.3298  2.1240 -2.4913
 3060TIP3    H2 9145   3.719   5.549   1.583 -0.2949 -1.0419  1.1517
 3061TIP3   OH2 9146   5.701   2.827   0.070  0.1704  0.3890  0.4259
 3061TIP3    H1 9147   5.618   2.859   0.036  0.2958 -1.0750 -1.4144
 3061TIP3    H2 9148   5.720   2.883   0.145 -0.9925  2.7103 -0.9215
 3062TIP3   OH2 9149   5.513   6.558   1.732 -0.5180 -0.0101 -0.0504
 3062TIP3    H1 9150   5.545   6.475   1.697  0.3429 -0.3320  1.4169
 3062TIP3    H2 9151   5.418   6.554   1.721 -0.4121 -0.8022 -0.7786
 3063TIP3   OH2 9152   1.754   4.442   1.136  0.1843 -0.3682  0.6793
 3063TIP3    H1 9153   1.780   4.350   1.142 -0.4522 -0.5096  1.4560
 3063TIP3    H2 9154   1.835   4.489   1.118  0.2706 -1.2437 -1.4842
 3064TIP3   OH2 9155   5.906   3.656   0.838  0.0532  0.1523 -0.1512
 3064TIP3    H1 9156   5.836   3.640   0.901  1.4955 -1.1955  1.1752
 3064TIP3    H2 9157   5.975   3.699   0.889  0.9886 -0.3450 -0.9701
 3065TIP3   OH2 9158   7.178   3.963   0.417 -0.0646 -0.3821 -0.3000
 3065TIP3    H1 9159   7.122   3.897   0.458  1.4975 -1.7386 -0.2595
 3065TIP3    H2 9160   7.117   4.024   0.376 -1.6575 -0.1306  2.2007
 3066TIP3   OH2 9161   0.016   4.190   2.486 -0.0702  0.4408  0.4964
 3066TIP3    H1 9162  -0.024   4.277   2.490 -2.0219 -0.3609 -0.2403
 3066TIP3    H2 9163   0.039   4.178   2.394  0.7465  0.4046  0.7037
 3067TIP3   OH2 9164   0.866   6.578   2.782  0.2948 -0.2390  0.3834
 3067TIP3    H1 9165   0.944   6.619   2.746 -0.0416  1.1862  1.2315
 3067TIP3    H2 9166   0.900   6.500   2.828  1.2341  0.4004  0.8130
 3068TIP3   OH2 9167   1.391   1.990   0.605  0.4569 -0.2794 -0.0202
 3068TIP3    H1 9168   1.481   1.959   0.619  0.5786 -0.4464 -1.1041
 3068TIP3    H2 9169   1.399   2.053   0.534 -0.4728 -1.2949 -1.0536
 3069TIP3   OH2 9170   4.911   0.652   4.360 -0.2608 -0.0067  0.6196
 3069TIP3    H1 9171   5.004   0.661   4.381 -0.0316  0.2114 -0.4213
 3069TIP3    H2 9172   4.905   0.571   4.311 -0.3289  0.8369 -0.8079
 3070TIP3   OH2 9173   4.026   4.771   4.951 -0.4097  0.1152  0.3651
 3070TIP3    H1 9174   3.988   4.849   4.992  1.6906  1.1704  0.4393
 3070TIP3    H2 9175   4.092   4.741   5.013 -0.4681 -1.1166 -0.1469
 3071TIP3   OH2 9176   3.807   5.741   0.132 -0.0794  0.5004  0.7441
 3071TIP3    H1 9177   3.756   5.763   0.054 -0.5052  0.5712  1.0398
 3071TIP3    H2 9178   3.749   5.685   0.184 -0.9685  2.7977  2.3993
 3072TIP3   OH2 9179   5.991   4.559   2.762 -0.2813  0.4278 -0.9290
 3072TIP3    H1 9180   5.973   4.494   2.694  1.0725 -1.7376  0.6744
 3072TIP3    H2 9181   5.912   4.559   2.817  1.0770 -2.9542  1.3384
 3073TIP3   OH2 9182   6.887   2.972   2.491 -0.1778  0.2184 -0.0030
 3073TIP3    H1 9183   6.871   2.919   2.413 -1.3871  0.2487  0.2080
 3073TIP3    H2 9184   6.909   2.909   2.559 -1.2566 -0.0180  0.1555
 3074TIP3   OH2 9185   4.198   3.382   1.901 -0.3404  0.5012  0.1984
 3074TIP3    H1 9186   4.243   3.460   1.868 -0.2490  0.6029  0.5608
 3074TIP3    H2 9187   4.139   3.357   1.830  0.2217  0.4193 -0.2564
 3075TIP3   OH2 9188   4.243   4.296   0.309  0.0514 -0.6023  0.7488
 3075TIP3    H1 9189   4.195   4.228   0.357 -1.6301  0.1824  0.2672
 3075TIP3    H2 9190   4.218   4.284   0.218  1.8248 -0.9614  0.2731
 3076TIP3   OH2 9191   5.973   0.590   4.600  0.0718  0.3757 -0.3332
 3076TIP3    H1 9192   5.940   0.646   4.670 -0.2283 -1.3731  0.9901
 3076TIP3    H2 9193   6.058   0.560   4.630 -0.0063 -0.3100 -0.7581
 3077TIP3   OH2 9194   6.223   4.507   3.093 -0.4772  0.2214 -0.2769
 3077TIP3    H1 9195   6.208   4.469   3.179 -0.5026  0.2392 -0.2736
 3077TIP3    H2 9196   6.183   4.446   3.032  1.4911 -0.9858 -0.4556
 3078TIP3   OH2 9197   1.771   3.476   3.616 -0.3958  0.4386 -0.0365
 3078TIP3    H1 9198   1.762   3.570   3.629  3.2102  0.6290  2.3789
 3078TIP3    H2 9199   1.838   3.467   3.548  0.0667 -0.3362  0.5044
 3079TIP3   OH2 9200   5.565   1.432   1.385 -0.2793  0.6631  0.8109
 3079TIP3    H1 9201   5.503   1.494   1.425 -1.0886 -0.1983  0.9321
 3079TIP3    H2 9202   5.547   1.436   1.292 -1.3792 -0.4431  0.9407
 3080TIP3   OH2 9203   5.316   4.536   4.401 -0.4200  0.5187 -0.6141
 3080TIP3    H1 9204   5.351   4.448   4.417 -0.1420  0.7004 -0.1992
 3080TIP3    H2 9205   5.354   4.562   4.317 -0.0134  0.4809 -0.4469
 3081TIP3   OH2 9206   7.006   4.621   1.556  0.0197  0.2981  0.3897
 3081TIP3    H1 9207   7.099   4.612   1.533 -0.4371  1.4767 -2.1891
 3081TIP3    H2 9208   7.008   4.663   1.643  1.8486 -1.2466  1.1820
 3082TIP3   OH2 9209   2.622   5.167   1.262 -0.0772  0.2503 -0.2043
 3082TIP3    H1 9210   2.573   5.152   1.181  0.9751  0.8747 -0.9876
 3082TIP3    H2 9211   2.580   5.111   1.327  0.3872 -1.9149 -1.6926
 3083TIP3   OH2 9212   0.493   2.796   2.085  0.0221  0.0484 -0.1611
 3083TIP3    H1 9213   0.405   2.831   2.099  0.6074  1.2587  0.6023
 3083TIP3    H2 9214   0.551   2.859   2.127  1.2658 -0.7201 -0.6792
 3084TIP3   OH2 9215   3.215   2.029   2.809  0.6305 -0.4819  0.4422
 3084TIP3    H1 9216   3.204   2.122   2.832 -1.8884 -1.1443  2.4867
 3084TIP3    H2 9217   3.240   2.030   2.717 -0.2834  2.2224  0.1254
 3085TIP3   OH2 9218   3.585   1.508   2.525 -0.4414 -0.4552 -0.5045
 3085TIP3    H1 9219   3.532   1.538   2.451  1.3364 -0.5234 -1.8751
 3085TIP3    H2 9220   3.661   1.566   2.525  1.5764 -2.9288 -1.3228
 3086TIP3   OH2 9221   2.375   6.660   3.899 -0.3690 -0.0602 -0.2185
 3086TIP3    H1 9222   2.367   6.654   3.995 -0.3217  1.1364 -0.1248
 3086TIP3    H2 9223   2.411   6.575   3.873  1.4172  0.2574  1.0257
 3087TIP3   OH2 9224   5.231   6.163   2.149  0.4181  0.5672 -0.8546
 3087TIP3    H1 9225   5.290   6.174   2.224  1.4869  0.7350 -1.6839
 3087TIP3    H2 9226   5.160   6.225   2.165  0.3060  0.1625  0.3172
 3088TIP3   OH2 9227   5.122   3.227   5.466 -0.4011 -0.2504  0.3027
 3088TIP3    H1 9228   5.153   3.246   5.555 -0.8496  0.2458  0.3564
 3088TIP3    H2 9229   5.178   3.155   5.436 -0.1836 -0.3547  0.9494
 3089TIP3   OH2 9230   6.795   3.896   0.545  0.3838  0.3460  0.5336
 3089TIP3    H1 9231   6.785   3.946   0.464  1.2582  1.1764  0.9249
 3089TIP3    H2 9232   6.801   3.805   0.516  2.1841  0.7328 -0.5073
 3090TIP3   OH2 9233   1.159   0.568   2.772 -0.2587  0.1981 -0.1599
 3090TIP3    H1 9234   1.249   0.589   2.748  0.7258 -2.7021  0.5301
 3090TIP3    H2 9235   1.109   0.579   2.691  0.9624  0.6084 -0.8768
 3091TIP3   OH2 9236   3.168   6.297   4.231 -0.0660  0.7142  0.1385
 3091TIP3    H1 9237   3.081   6.324   4.202 -0.6285 -0.8446  0.2989
 3091TIP3    H2 9238   3.201   6.243   4.159  1.5659  2.7647 -0.7548
 3092TIP3   OH2 9239   3.432   4.613   0.323  0.5881 -0.2984 -0.3737
 3092TIP3    H1 9240   3.433   4.662   0.405 -1.1439 -0.2078 -0.3695
 3092TIP3    H2 9241   3.477   4.669   0.261 -0.3733  0.8364 -0.0926
 3093TIP3   OH2 9242   2.786   1.823   3.757  0.3019  0.0394  0.2644
 3093TIP3    H1 9243   2.785   1.831   3.852  0.2016  0.3935  0.2375
 3093TIP3    H2 9244   2.878   1.832   3.732  0.2386  0.7929  0.2686
 3094TIP3   OH2 9245   4.472   5.521   1.080 -0.3083 -0.2755  0.3143
 3094TIP3    H1 9246   4.446   5.607   1.048 -2.0943 -1.1977 -0.8017
 3094TIP3    H2 9247   4.494   5.536   1.172  2.2063  1.8786 -0.5204
 3095TIP3   OH2 9248   4.252   3.032   4.538 -0.3305  0.3500  0.0407
 3095TIP3    H1 9249   4.296   3.115   4.556 -2.2117  1.2614  0.7504
 3095TIP3    H2 9250   4.164   3.058   4.509 -0.1310 -1.3522 -2.3587
 3096TIP3   OH2 9251   0.606   3.870   4.354 -0.1688  0.0792  0.2079
 3096TIP3    H1 9252   0.623   3.802   4.289  0.6555 -1.2411  1.7213
 3096TIP3    H2 9253   0.692   3.910   4.370 -0.1403 -0.3720  1.2645
 3097TIP3   OH2 9254   0.949   4.312   5.154 -0.3204 -0.4954  0.3318
 3097TIP3    H1 9255   0.934   4.312   5.060  0.6503  0.3397  0.1549
 3097TIP3    H2 9256   0.973   4.222   5.175 -0.8150 -0.7458 -0.1634
 3098TIP3   OH2 9257   1.498   4.178   4.902  0.3244  0.3023 -0.5864
 3098TIP3    H1 9258   1.435   4.250   4.898  0.0358  0.1099  0.3912
 3098TIP3    H2 9259   1.485   4.131   4.820 -1.2951 -0.1341 -0.1117
 3099TIP3   OH2 9260   0.455   3.730   0.227  0.4336  0.7452 -0.4951
 3099TIP3    H1 9261   0.536   3.733   0.177  0.1209  1.5308 -0.9609
 3099TIP3    H2 9262   0.411   3.651   0.197  0.7689  0.6062 -0.6270
 3100TIP3   OH2 9263   3.275   2.661   5.152 -0.4478 -0.0290 -0.2512
 3100TIP3    H1 9264   3.354   2.658   5.206 -1.3613 -1.0611  1.0815
 3100TIP3    H2 9265   3.226   2.583   5.176 -1.3007 -0.0791 -1.9869
 3101TIP3   OH2 9266   5.347   5.635   5.226  1.4157 -0.1725  0.2551
 3101TIP3    H1 9267   5.368   5.722   5.259  1.0996 -0.7779  2.1526
 3101TIP3    H2 9268   5.270   5.608   5.275  0.0633 -0.6199 -1.9762
 3102TIP3   OH2 9269   1.098   5.483   1.855 -0.3772  0.9300  0.0991
 3102TIP3    H1 9270   1.185   5.508   1.824  1.4439 -2.1701  2.1557
 3102TIP3    H2 9271   1.056   5.444   1.778  1.1496  0.0624 -0.3447
 3103TIP3   OH2 9272   1.536   6.051   5.153 -0.0894  0.2649  0.5693
 3103TIP3    H1 9273   1.525   5.976   5.213  1.0757 -1.1587 -0.8978
 3103TIP3    H2 9274   1.458   6.105   5.168 -0.4313 -0.6499  2.4756
 3104TIP3   OH2 9275   5.932   6.263   4.836  0.2754 -0.1962 -0.0626
 3104TIP3    H1 9276   5.940   6.177   4.877 -0.5672 -0.5072 -0.5299
 3104TIP3    H2 9277   5.900   6.320   4.907  0.7783 -0.2711  0.2315
 3105TIP3   OH2 9278   3.341   2.300   1.454 -0.0423  0.0773  0.2566
 3105TIP3    H1 9279   3.369   2.209   1.448  1.0665  0.4344 -0.2869
 3105TIP3    H2 9280   3.275   2.310   1.386 -0.4558 -0.4141  0.5794
 3106TIP3   OH2 9281   6.596   3.155   2.651 -0.3282  0.1461  0.3180
 3106TIP3    H1 9282   6.648   3.145   2.572 -0.1816  1.2292  0.2645
 3106TIP3    H2 9283   6.649   3.113   2.719 -0.0949 -0.1017 -0.0117
 3107TIP3   OH2 9284   2.975   0.335   2.148 -0.0306 -0.7544  0.6035
 3107TIP3    H1 9285   2.960   0.345   2.054  0.1663 -0.6127  0.5869
 3107TIP3    H2 9286   2.889   0.316   2.184  0.0555 -1.8872  0.2558
 3108TIP3   OH2 9287   1.248   1.736   3.078 -0.8350  0.3317 -0.5021
 3108TIP3    H1 9288   1.203   1.714   3.159  0.1651 -1.3385 -0.3493
 3108TIP3    H2 9289   1.264   1.830   3.085 -2.6573  0.6316  0.2260
 3109TIP3   OH2 9290   0.290   5.665   3.842  0.1055 -0.5511  0.5331
 3109TIP3    H1 9291   0.250   5.726   3.780  0.8852 -0.3988  0.1754
 3109TIP3    H2 9292   0.282   5.579   3.800  0.0949 -0.5312  0.4943
 3110TIP3   OH2 9293   4.294   4.694   4.345  0.1559 -0.4012  0.0430
 3110TIP3    H1 9294   4.225   4.641   4.385  0.7015  0.6718  2.5991
 3110TIP3    H2 9295   4.248   4.769   4.306 -0.2378 -0.3455  0.6070
 3111TIP3   OH2 9296   3.507   0.164   2.740  0.6400 -0.0050 -0.1156
 3111TIP3    H1 9297   3.472   0.101   2.803 -0.5440  0.7100 -0.0226
 3111TIP3    H2 9298   3.501   0.249   2.784  0.8099  0.3652 -0.7806
 3112TIP3   OH2 9299   5.647   5.911   3.882 -0.2440 -0.8460 -0.0511
 3112TIP3    H1 9300   5.646   5.892   3.975 -1.7095 -1.7086 -0.2014
 3112TIP3    H2 9301   5.736   5.893   3.854  1.0079  2.0165  1.6435
 3113TIP3   OH2 9302   0.858   5.584   5.745  0.1790  0.3070 -0.2585
 3113TIP3    H1 9303   0.863   5.661   5.803  2.6173  0.8519 -1.0787
 3113TIP3    H2 9304   0.772   5.547   5.762 -0.3111  2.1127  1.5939
 3114TIP3   OH2 9305   1.867  -0.023   2.958  0.0133  0.1340 -0.1773
 3114TIP3    H1 9306   1.938   0.040   2.943  1.1057 -0.3540  2.3184
 3114TIP3    H2 9307   1.790   0.017   2.917  1.6960  0.6197 -3.1347
 3115TIP3   OH2 9308   2.472   2.818   1.207 -0.8126  0.4989 -0.4458
 3115TIP3    H1 9309   2.502   2.865   1.285 -2.7634  1.0100  0.0569
 3115TIP3    H2 9310   2.380   2.798   1.225 -0.6180 -1.6885 -1.5465
 3116TIP3   OH2 9311   4.708   4.712   0.084 -0.2252  0.3610  0.0432
 3116TIP3    H1 9312   4.650   4.760   0.143 -2.0472 -0.4677 -0.9886
 3116TIP3    H2 9313   4.726   4.629   0.128  0.7026  0.8527  0.6238
 3117TIP3   OH2 9314   0.053   1.075   4.300  0.0020 -0.0380 -0.5347
 3117TIP3    H1 9315   0.092   1.148   4.348 -0.9791  0.1242  0.0481
 3117TIP3    H2 9316   0.061   1.100   4.208  0.4055  0.4226 -0.3805
 3118TIP3   OH2 9317   3.384   0.601   1.874 -0.1044 -0.8948  0.3609
 3118TIP3    H1 9318   3.455   0.624   1.815  1.3928  0.3007  2.5226
 3118TIP3    H2 9319   3.420   0.532   1.930 -0.8998 -0.7951  1.0139
 3119TIP3   OH2 9320   3.320   5.655   0.296  0.1217  0.7350  0.2616
 3119TIP3    H1 9321   3.266   5.615   0.364  1.0445  0.9698  1.1609
 3119TIP3    H2 9322   3.266   5.651   0.217 -1.2784  1.1151  1.1585
 3120TIP3   OH2 9323   0.093   0.074   5.872  0.0618  0.6022 -0.2263
 3120TIP3    H1 9324   0.060   0.111   5.954 -1.5436  0.5959 -0.8446
 3120TIP3    H2 9325   0.142   0.145   5.831 -0.3772  1.0595  0.0420
 3121TIP3   OH2 9326   4.067   4.465   5.233 -0.4150  0.2381  0.8436
 3121TIP3    H1 9327   4.140   4.467   5.296 -0.7517  1.2433  1.2184
 3121TIP3    H2 9328   4.109   4.481   5.148 -0.2302  1.2868  1.1111
 3122TIP3   OH2 9329   1.162   3.212   0.706  0.0390  0.2035 -0.3762
 3122TIP3    H1 9330   1.168   3.307   0.698  0.8604  0.3955  1.9506
 3122TIP3    H2 9331   1.220   3.179   0.638  2.0293  1.4682  0.6280
 3123TIP3   OH2 9332   1.875   6.009   3.268  0.3667 -0.6201 -0.5408
 3123TIP3    H1 9333   1.869   5.926   3.220 -0.9820 -1.2670  0.6989
 3123TIP3    H2 9334   1.885   6.075   3.199  0.0891 -1.6752 -1.6300
 3124TIP3   OH2 9335   7.143   0.165   5.302 -0.1415  0.6117 -0.3717
 3124TIP3    H1 9336   7.175   0.207   5.382 -2.0343 -0.0461  0.8025
 3124TIP3    H2 9337   7.071   0.108   5.332 -0.8974  0.3377 -2.5441
 3125TIP3   OH2 9338   0.540   5.004   1.733  0.0784  0.7087 -0.2047
 3125TIP3    H1 9339   0.610   4.973   1.790  0.2410  0.4404 -0.5471
 3125TIP3    H2 9340   0.505   4.924   1.693 -0.4944  0.8277  0.0492
 3126TIP3   OH2 9341   4.403   0.451   2.836  0.5892 -0.0377 -0.7060
 3126TIP3    H1 9342   4.406   0.361   2.804 -0.8680 -0.4706  0.2629
 3126TIP3    H2 9343   4.493   0.473   2.858  0.9939 -1.1575 -1.2069
 3127TIP3   OH2 9344   0.553   0.011   2.069 -0.2889  0.2182 -0.0660
 3127TIP3    H1 9345   0.527   0.079   2.131  1.5195  0.8714  0.0650
 3127TIP3    H2 9346   0.532  -0.072   2.113 -0.6239  0.6845  0.6645
 3128TIP3   OH2 9347   6.567   4.006   4.612  0.1903  0.5135 -0.4240
 3128TIP3    H1 9348   6.496   3.942   4.620  0.3966  0.2844 -0.4023
 3128TIP3    H2 9349   6.610   3.982   4.530  0.9202 -0.0442  0.1043
 3129TIP3   OH2 9350   2.430   5.400   1.660  0.4194  0.4522  0.0318
 3129TIP3    H1 9351   2.521   5.371   1.648  0.1233 -0.2296 -0.6688
 3129TIP3    H2 9352   2.437   5.493   1.679  1.1954  0.8734 -2.0020
 3130TIP3   OH2 9353   6.523   1.969   4.670 -0.2543 -0.4029 -0.0134
 3130TIP3    H1 9354   6.561   2.032   4.609 -0.5308 -1.4142 -1.2628
 3130TIP3    H2 9355   6.598   1.920   4.704 -0.0073  0.7520  1.1826
 3131TIP3   OH2 9356   3.844   1.516   1.048  0.0197 -0.3583  0.0218
 3131TIP3    H1 9357   3.842   1.608   1.022 -0.1003 -0.4538 -0.3203
 3131TIP3    H2 9358   3.910   1.477   0.990  1.9047 -0.0051  1.8229
 3132TIP3   OH2 9359   4.292   3.914   3.985 -0.9036 -0.6154 -0.1839
 3132TIP3    H1 9360   4.294   3.819   3.980  1.4365 -0.6435  0.1484
 3132TIP3    H2 9361   4.244   3.941   3.907 -1.6029 -2.0563 -0.2802
 3133TIP3   OH2 9362   3.890   0.972   0.649 -0.1723 -0.3863  0.7560
 3133TIP3    H1 9363   3.876   1.065   0.667 -0.6255 -0.4128  0.5434
 3133TIP3    H2 9364   3.808   0.930   0.674 -0.0328 -0.7065  0.6793
 3134TIP3   OH2 9365   6.128   2.190   2.594 -0.2007  0.2059 -0.7383
 3134TIP3    H1 9366   6.141   2.257   2.661  0.9842  0.8132 -1.5428
 3134TIP3    H2 9367   6.200   2.129   2.607  1.5602  1.6550 -2.9572
 3135TIP3   OH2 9368   5.850   4.911   2.523  0.2773  0.0229 -0.1166
 3135TIP3    H1 9369   5.859   4.815   2.521  0.6804  0.0661 -1.1873
 3135TIP3    H2 9370   5.802   4.932   2.443  1.1936  0.7916 -0.4855
 3136TIP3   OH2 9371   5.543   1.436   0.698  0.6852 -0.1803 -0.0031
 3136TIP3    H1 9372   5.610   1.414   0.633  1.2805 -0.2313  0.6165
 3136TIP3    H2 9373   5.592   1.450   0.779 -0.0086  0.2862  0.3439
 3137TIP3   OH2 9374   5.433   1.642   1.490 -0.3269  0.1766  1.1709
 3137TIP3    H1 9375   5.488   1.707   1.535 -0.0275 -0.0414  1.1281
 3137TIP3    H2 9376   5.345   1.678   1.494 -0.0349  1.0471  0.3188
 3138TIP3   OH2 9377   6.235   2.519   4.185  0.0473  0.3233  0.7096
 3138TIP3    H1 9378   6.152   2.565   4.201  0.6721  1.4184  0.8938
 3138TIP3    H2 9379   6.218   2.429   4.211 -0.8535  0.7027  1.4925
 3139TIP3   OH2 9380   3.902   1.803   5.593 -0.9940  0.0818 -0.6206
 3139TIP3    H1 9381   3.956   1.805   5.672 -0.9855  0.6194 -0.6365
 3139TIP3    H2 9382   3.813   1.820   5.624 -0.7721  1.9852 -0.8906
 3140TIP3   OH2 9383   6.018   0.973   4.059 -0.2421  0.3748 -0.1563
 3140TIP3    H1 9384   6.017   1.054   4.110 -2.3217 -1.2783  2.7345
 3140TIP3    H2 9385   6.060   0.997   3.977  2.0555  3.6317  1.7185
 3141TIP3   OH2 9386   4.815   2.814   1.620 -0.3160  0.0244  0.2551
 3141TIP3    H1 9387   4.790   2.816   1.712 -1.0306  0.2121  0.0654
 3141TIP3    H2 9388   4.752   2.872   1.577 -1.0337 -1.3062 -0.5857
 3142TIP3   OH2 9389   5.580   2.739   0.614 -0.3695 -0.7089 -0.1467
 3142TIP3    H1 9390   5.507   2.682   0.588 -0.0062 -1.1100 -0.3006
 3142TIP3    H2 9391   5.577   2.739   0.710 -1.6220  0.6559 -0.1648
 3143TIP3   OH2 9392   1.822   1.951   3.857  0.2508  0.2317 -0.0411
 3143TIP3    H1 9393   1.799   1.859   3.846  0.3475  0.2848 -0.6932
 3143TIP3    H2 9394   1.911   1.958   3.821  1.1197  0.1402  1.9231
 3144TIP3   OH2 9395   2.027   1.847   2.268  0.1729 -0.2395 -0.3689
 3144TIP3    H1 9396   2.000   1.755   2.269  0.0821 -0.2086  0.5975
 3144TIP3    H2 9397   1.973   1.887   2.199 -0.2811 -0.7670 -0.3235
 3145TIP3   OH2 9398   3.157   5.184   4.802 -0.2929 -0.2747 -0.0892
 3145TIP3    H1 9399   3.065   5.162   4.792 -0.5649  0.4397  0.6952
 3145TIP3    H2 9400   3.187   5.127   4.873  0.5636 -2.3709 -2.0312
 3146TIP3   OH2 9401   4.049   2.648   3.041 -0.0274 -0.0065 -0.2759
 3146TIP3    H1 9402   4.088   2.735   3.052 -0.5310  0.5488 -2.3617
 3146TIP3    H2 9403   4.083   2.617   2.957 -0.7968 -1.3070 -0.1350
 3147TIP3   OH2 9404   4.147   0.581   1.732 -0.7534  0.0586 -0.2296
 3147TIP3    H1 9405   4.224   0.547   1.778 -1.3403  0.8805  1.4818
 3147TIP3    H2 9406   4.073   0.537   1.775 -1.2440 -1.9561 -2.9278
 3148TIP3   OH2 9407   4.894   3.985   3.244 -0.0392 -0.0899 -0.1363
 3148TIP3    H1 9408   4.848   3.964   3.325 -0.7491  1.7655 -0.0206
 3148TIP3    H2 9409   4.831   3.966   3.175 -0.1476  0.2119 -0.1223
 3149TIP3   OH2 9410   2.051   0.303   0.597  0.2174  0.0239  0.2494
 3149TIP3    H1 9411   2.067   0.356   0.675 -0.8592  2.1842 -0.8888
 3149TIP3    H2 9412   2.081   0.357   0.524  3.0020 -2.6906 -0.8522
 3150TIP3   OH2 9413   2.691   1.373   1.379 -0.1433 -0.3262 -0.1943
 3150TIP3    H1 9414   2.756   1.442   1.389  0.1758 -0.5839 -0.4369
 3150TIP3    H2 9415   2.607   1.418   1.375 -0.0042 -0.0118  0.4254
 3151TIP3   OH2 9416   2.145   1.134   4.843  0.1955 -0.1555 -0.3567
 3151TIP3    H1 9417   2.138   1.068   4.773  0.4974 -0.6023  0.0295
 3151TIP3    H2 9418   2.059   1.175   4.847  0.2716  0.1231 -1.2343
 3152TIP3   OH2 9419   1.378   1.560   1.153 -0.1631  0.0506  0.0767
 3152TIP3    H1 9420   1.456   1.511   1.127 -0.7152 -1.2839  0.8573
 3152TIP3    H2 9421   1.320   1.495   1.191 -0.9039  1.3389  1.2377
 3153TIP3   OH2 9422   0.849   4.529   3.176  0.1312  0.0454  0.1423
 3153TIP3    H1 9423   0.831   4.437   3.158 -0.7017  0.1657  0.3122
 3153TIP3    H2 9424   0.866   4.568   3.090 -0.7850 -0.0105 -0.0744
 3154TIP3   OH2 9425   3.311   4.678   4.599 -0.6054  0.3342 -0.2662
 3154TIP3    H1 9426   3.327   4.590   4.633 -0.9760  0.3065 -0.1627
 3154TIP3    H2 9427   3.357   4.735   4.661  0.0057  0.1902 -0.5803
 3155TIP3   OH2 9428   1.283   3.000   1.884  0.1226 -0.1896 -0.0947
 3155TIP3    H1 9429   1.352   3.064   1.903  0.8001 -1.4717  2.0766
 3155TIP3    H2 9430   1.330   2.921   1.857 -0.5550 -0.6994  0.1991
 3156TIP3   OH2 9431   3.326   2.304   2.330  0.0553  0.4124  0.2552
 3156TIP3    H1 9432   3.333   2.365   2.404  0.4873  0.2372  0.3625
 3156TIP3    H2 9433   3.272   2.233   2.363 -0.8620  0.9644 -0.0280
 3157TIP3   OH2 9434   3.047   5.756   2.488  0.0243 -0.0439 -0.5349
 3157TIP3    H1 9435   3.048   5.816   2.413  0.2113 -0.7552 -1.1112
 3157TIP3    H2 9436   2.955   5.728   2.494 -0.0226  0.1376 -0.3941
 3158TIP3   OH2 9437   0.582   2.437   1.991  0.6254 -0.0799 -0.1586
 3158TIP3    H1 9438   0.501   2.387   2.000  0.5762  0.2849  1.9371
 3158TIP3    H2 9439   0.621   2.435   2.079  2.0826  1.0989 -0.7449
 3159TIP3   OH2 9440   4.666   1.287   0.904  0.0870 -0.0454  0.5730
 3159TIP3    H1 9441   4.636   1.295   0.813 -0.3812  0.0490  0.7299
 3159TIP3    H2 9442   4.585   1.285   0.956  0.3609  0.9466  1.0695
 3160TIP3   OH2 9443   4.239   5.676   4.088  0.0005  0.1768  0.3577
 3160TIP3    H1 9444   4.216   5.731   4.014  0.4394 -1.0523 -0.7323
 3160TIP3    H2 9445   4.157   5.632   4.111 -0.3766  1.3135  1.3003
 3161TIP3   OH2 9446   5.995   4.147   5.728  0.8857  0.0353 -0.3806
 3161TIP3    H1 9447   5.972   4.118   5.817 -0.1421  2.1951  0.1314
 3161TIP3    H2 9448   5.985   4.069   5.674 -0.6274 -0.8535  1.0654
 3162TIP3   OH2 9449   1.011   5.149   1.099 -0.0763  0.2409  0.1476
 3162TIP3    H1 9450   0.952   5.113   1.032  1.6261  1.0365 -1.8589
 3162TIP3    H2 9451   0.998   5.244   1.094  0.6814  0.3606  0.3407
 3163TIP3   OH2 9452   6.324   5.654   1.245 -0.3627 -0.2379 -0.2830
 3163TIP3    H1 9453   6.266   5.583   1.216  1.4656 -1.2530 -1.7093
 3163TIP3    H2 9454   6.314   5.722   1.179 -1.1906  0.3586  0.4245
 3164TIP3   OH2 9455   6.533   6.480   4.121 -0.4080 -0.1464  0.4836
 3164TIP3    H1 9456   6.489   6.515   4.199 -0.7106 -0.5377  0.4940
 3164TIP3    H2 9457   6.518   6.546   4.053 -0.6078 -0.0566  0.6137
 3165TIP3   OH2 9458   0.683   0.419   2.117 -0.2417 -0.1671  0.7816
 3165TIP3    H1 9459   0.618   0.489   2.114 -0.7816 -0.6965 -0.5277
 3165TIP3    H2 9460   0.640   0.349   2.167 -0.9200 -0.7137 -0.5138
 3166TIP3   OH2 9461   4.978   0.186   4.496 -0.2485  0.3872  0.3937
 3166TIP3    H1 9462   4.923   0.183   4.575  0.0590  3.3668  0.8210
 3166TIP3    H2 9463   5.068   0.186   4.530 -0.0770  0.2260 -0.0554
 3167TIP3   OH2 9464   0.263   0.059   2.570 -0.3599  0.4491 -0.3731
 3167TIP3    H1 9465   0.231   0.148   2.584  0.2645  0.7873 -1.0079
 3167TIP3    H2 9466   0.292   0.031   2.656 -0.8363  0.7424 -0.1067
 3168TIP3   OH2 9467   2.655   4.211   0.177  0.4507  0.1781 -0.4129
 3168TIP3    H1 9468   2.664   4.154   0.253  0.3727  1.3699  0.5206
 3168TIP3    H2 9469   2.589   4.169   0.123 -0.4549 -0.0278  0.8172
 3169TIP3   OH2 9470   5.017   3.603   1.793  0.2331  0.0645  0.2841
 3169TIP3    H1 9471   4.963   3.676   1.823 -0.1042 -0.6064  1.3614
 3169TIP3    H2 9472   5.099   3.644   1.764 -0.1362  0.9052  0.3955
 3170TIP3   OH2 9473   6.913   3.192   4.761  0.3431 -0.0595  0.7567
 3170TIP3    H1 9474   6.895   3.195   4.667 -2.0348  1.0228  1.1909
 3170TIP3    H2 9475   6.858   3.122   4.794 -1.1768  1.5265  1.7388
 3171TIP3   OH2 9476   6.879   3.249   1.614  0.3433  0.1322 -0.2308
 3171TIP3    H1 9477   6.927   3.297   1.547 -1.2685 -1.4331 -2.6725
 3171TIP3    H2 9478   6.792   3.236   1.576 -0.3451 -1.6948  1.7835
 3172TIP3   OH2 9479   4.051   4.046   1.974 -0.1462  0.5640  0.4523
 3172TIP3    H1 9480   3.983   4.113   1.972  0.4488  1.2748  2.1818
 3172TIP3    H2 9481   4.118   4.082   2.032  0.9563 -0.8330  0.0979
 3173TIP3   OH2 9482   6.075   1.697   5.141  0.1136  0.3243  0.0763
 3173TIP3    H1 9483   5.981   1.688   5.155  0.2192  1.0942  1.5022
 3173TIP3    H2 9484   6.109   1.608   5.141 -0.6635  0.0106 -0.9714
 3174TIP3   OH2 9485   6.724   1.520   4.297  0.5186  0.4582  0.2265
 3174TIP3    H1 9486   6.732   1.520   4.202 -0.7503  0.9309  0.0979
 3174TIP3    H2 9487   6.814   1.514   4.329  0.9544  0.1653 -0.9953
 3175TIP3   OH2 9488   1.542   0.711   5.596  0.7487  0.2198  0.2248
 3175TIP3    H1 9489   1.620   0.762   5.617 -0.3202  1.9118  0.3374
 3175TIP3    H2 9490   1.471   0.776   5.595 -0.7322 -1.3147  0.6100
 3176TIP3   OH2 9491   2.761   4.847   0.343  0.4968  0.1584  0.2825
 3176TIP3    H1 9492   2.755   4.820   0.434  3.3652 -1.0453  0.2136
 3176TIP3    H2 9493   2.793   4.770   0.296 -0.9111  0.7376 -1.7862
 3177TIP3   OH2 9494   3.030   0.269   3.545 -0.4780 -0.2339 -0.2818
 3177TIP3    H1 9495   3.119   0.277   3.510 -0.1238  0.7416  0.7902
 3177TIP3    H2 9496   2.980   0.336   3.499 -1.1156 -1.8642 -2.1164
 3178TIP3   OH2 9497   5.557   0.644   4.844 -0.1194  0.2036  0.1802
 3178TIP3    H1 9498   5.547   0.558   4.885 -1.2813  0.2493  0.0285
 3178TIP3    H2 9499   5.645   0.643   4.807 -0.0008 -0.8011  0.4630
 3179TIP3   OH2 9500   3.744   0.089   1.264 -0.5490  0.4453 -0.2240
 3179TIP3    H1 9501   3.813   0.156   1.268 -0.1756  0.1693 -1.5192
 3179TIP3    H2 9502   3.681   0.115   1.331  1.6697 -0.2825  2.2822
 3180TIP3   OH2 9503   1.872   4.588   4.849 -0.0200  0.3105 -0.1519
 3180TIP3    H1 9504   1.961   4.574   4.882 -0.1926  2.1073  1.1792
 3180TIP3    H2 9505   1.883   4.597   4.755  1.2717  0.9501  0.0412
 3181TIP3   OH2 9506   1.733   3.034   0.700 -0.2362  0.4515  0.3453
 3181TIP3    H1 9507   1.822   3.004   0.681 -0.5254  0.8513 -1.9743
 3181TIP3    H2 9508   1.700   2.972   0.764  1.2263 -0.5704  0.1612
 3182TIP3   OH2 9509   5.328   4.348   5.710  0.2194 -0.8197  0.3933
 3182TIP3    H1 9510   5.267   4.368   5.639  1.7256 -1.7167 -1.2004
 3182TIP3    H2 9511   5.407   4.398   5.690 -0.0840  0.8050  2.7550
 3183TIP3   OH2 9512   0.570   4.355   4.051  0.3104 -0.3804  0.0353
 3183TIP3    H1 9513   0.494   4.308   4.085 -0.2309  1.5892  1.7187
 3183TIP3    H2 9514   0.639   4.288   4.045 -0.7676 -1.6457  1.0874
 3184TIP3   OH2 9515   2.889   0.284   3.176 -0.1674 -0.1778 -0.5532
 3184TIP3    H1 9516   2.943   0.207   3.158  0.5635  0.2205 -0.0918
 3184TIP3    H2 9517   2.916   0.349   3.111 -0.5535 -0.1948 -0.7349
 3185TIP3   OH2 9518   1.397   4.499   5.116 -0.1711 -0.1275  0.0778
 3185TIP3    H1 9519   1.415   4.588   5.146 -0.9890  0.2915 -0.6583
 3185TIP3    H2 9520   1.463   4.446   5.160  1.1709  1.0036 -0.4984
 3186TIP3   OH2 9521   0.891   3.331   1.015  0.2491 -0.0887 -0.6595
 3186TIP3    H1 9522   0.912   3.249   0.970  3.1613  0.2888 -0.2230
 3186TIP3    H2 9523   0.957   3.337   1.085 -1.4946  1.4091  0.9432
 3187TIP3   OH2 9524   3.486   2.266   0.576 -0.6604 -0.0578  0.3880
 3187TIP3    H1 9525   3.421   2.336   0.570 -1.2660 -0.7149 -1.7631
 3187TIP3    H2 9526   3.487   2.227   0.488  1.6746 -0.9588  0.7473
 3188TIP3   OH2 9527   6.003   1.136   1.575 -0.2104 -0.1446 -0.2053
 3188TIP3    H1 9528   5.968   1.060   1.622 -2.1747 -0.8908 -2.6741
 3188TIP3    H2 9529   5.929   1.195   1.565  0.4355  0.5243 -1.2712
 3189TIP3   OH2 9530   1.340   3.167   0.965  0.3014  0.0343 -0.2861
 3189TIP3    H1 9531   1.387   3.247   0.986  0.8188 -0.2709 -0.2789
 3189TIP3    H2 9532   1.273   3.194   0.902  0.6952  0.4025 -0.5450
 3190TIP3   OH2 9533   1.312   5.751   2.353  0.4775  0.0456 -0.2719
 3190TIP3    H1 9534   1.288   5.666   2.389  0.0840  0.5818  0.7577
 3190TIP3    H2 9535   1.228   5.794   2.334  0.6406  0.7832  0.6131
 3191TIP3   OH2 9536   6.972   2.844   3.348  0.1347 -0.3901 -0.5803
 3191TIP3    H1 9537   6.970   2.812   3.257  1.2249 -1.9637 -0.0947
 3191TIP3    H2 9538   6.882   2.838   3.378 -0.4219  1.0331 -1.8095
 3192TIP3   OH2 9539   3.310   0.215   5.220  0.1370  0.0804 -0.3998
 3192TIP3    H1 9540   3.369   0.284   5.190  0.8261 -1.1125 -1.9661
 3192TIP3    H2 9541   3.250   0.258   5.280  1.8534  1.5962  0.3219
 3193TIP3   OH2 9542   1.040   4.652   2.118 -0.3755 -0.3650 -0.5235
 3193TIP3    H1 9543   1.058   4.582   2.055 -0.2611  0.0509 -0.9560
 3193TIP3    H2 9544   1.106   4.640   2.186  1.0544  0.6520 -1.6908
 3194TIP3   OH2 9545   1.876   5.058   2.181  0.9444 -0.0491  0.1491
 3194TIP3    H1 9546   1.937   5.123   2.213  1.1813 -0.6725  0.9844
 3194TIP3    H2 9547   1.913   4.974   2.208  0.6287 -0.5368 -0.8709
 3195TIP3   OH2 9548   7.024   1.194   0.186 -0.5791 -0.2120 -0.8171
 3195TIP3    H1 9549   7.074   1.236   0.257 -2.9753 -0.5500  1.2126
 3195TIP3    H2 9550   7.018   1.102   0.211  0.0139 -0.7327 -2.4332
 3196TIP3   OH2 9551   4.229   1.644   1.253 -0.0938 -0.3383  0.0633
 3196TIP3    H1 9552   4.169   1.644   1.178  0.2101 -1.4163 -0.1983
 3196TIP3    H2 9553   4.182   1.595   1.321  1.1106 -2.7209 -0.7065
 3197TIP3   OH2 9554   2.347   0.994   3.477 -0.3060 -0.4602  0.0346
 3197TIP3    H1 9555   2.280   1.034   3.421 -0.8323  1.2679  1.8037
 3197TIP3    H2 9556   2.299   0.969   3.557  0.9489 -0.2492  0.8744
 3198TIP3   OH2 9557   5.662   2.938   3.303 -0.4413 -0.0470 -0.1691
 3198TIP3    H1 9558   5.691   3.017   3.256  0.7652 -0.2139  0.2754
 3198TIP3    H2 9559   5.648   2.873   3.234  2.1959 -0.5748 -0.3175
 3199TIP3   OH2 9560   4.082   5.017   0.071  0.2695 -0.1290  0.0719
 3199TIP3    H1 9561   4.078   4.938   0.017 -2.2307  0.9723 -1.5684
 3199TIP3    H2 9562   4.019   5.001   0.142 -1.6609  0.9709 -1.2929
 3200TIP3   OH2 9563   1.788   5.211   0.899  0.1194 -0.3953 -0.2235
 3200TIP3    H1 9564   1.745   5.140   0.946  0.1136 -0.3831 -0.2106
 3200TIP3    H2 9565   1.880   5.206   0.927 -0.0264  0.0850  0.3757
 3201TIP3   OH2 9566   3.221   2.766   4.902 -0.7922 -0.3113  0.1849
 3201TIP3    H1 9567   3.256   2.716   4.976  2.0455 -0.2742 -0.9846
 3201TIP3    H2 9568   3.229   2.705   4.828 -1.2051  0.4909 -0.5268
 3202TIP3   OH2 9569   0.966   1.540   2.809  0.5010  0.2091  0.0793
 3202TIP3    H1 9570   1.061   1.548   2.809  0.4866  0.6698  1.5761
 3202TIP3    H2 9571   0.946   1.497   2.893 -0.6674  0.9902  0.2192
 3203TIP3   OH2 9572   1.460   0.270   1.590 -0.1995  0.1053  0.1073
 3203TIP3    H1 9573   1.436   0.284   1.499 -0.3294  0.3481  0.1772
 3203TIP3    H2 9574   1.477   0.358   1.624 -1.4861  0.1577  0.6868
 3204TIP3   OH2 9575   1.916   6.013   0.264 -0.1321  0.3430  0.0233
 3204TIP3    H1 9576   1.844   6.070   0.291  0.6942  1.5425 -0.2016
 3204TIP3    H2 9577   1.973   6.070   0.212  0.0813 -1.0289 -1.3086
 3205TIP3   OH2 9578   5.719   5.695   0.336  0.2566 -0.1958  0.6733
 3205TIP3    H1 9579   5.748   5.676   0.247  1.0685 -0.2810  0.9548
 3205TIP3    H2 9580   5.635   5.740   0.325  0.0624 -0.7347 -0.1129
 3206TIP3   OH2 9581   3.054   6.411   3.580 -0.0476  0.3214 -0.0740
 3206TIP3    H1 9582   3.108   6.462   3.641 -0.6510 -1.1153  1.7497
 3206TIP3    H2 9583   3.090   6.431   3.494  1.1196  2.1076  0.7779
 3207TIP3   OH2 9584   3.287   5.293   1.771  0.7642 -0.3965  0.3847
 3207TIP3    H1 9585   3.370   5.267   1.733  0.9372  0.4838  0.1416
 3207TIP3    H2 9586   3.234   5.213   1.771  0.9483 -0.5398 -1.1848
 3208TIP3   OH2 9587   5.492   4.376   1.685 -0.0192 -0.1899  0.5805
 3208TIP3    H1 9588   5.579   4.345   1.710 -0.3575 -0.0680  1.9309
 3208TIP3    H2 9589   5.458   4.306   1.628  0.8389 -0.3571  0.2494
 3209TIP3   OH2 9590   0.489   0.458   2.364 -0.1492  0.4250 -0.6561
 3209TIP3    H1 9591   0.513   0.511   2.440  1.3695 -1.0470 -0.0674
 3209TIP3    H2 9592   0.401   0.488   2.341 -0.8735  0.5340  2.0032
 3210TIP3   OH2 9593   7.085   4.775   2.067 -0.2032  0.0315  0.3500
 3210TIP3    H1 9594   7.028   4.851   2.071 -1.4478 -0.8643  0.1883
 3210TIP3    H2 9595   7.099   4.751   2.159 -0.1858  0.1894  0.3880
 3211TIP3   OH2 9596   4.439   5.166   5.697 -0.0335 -0.1417  0.0034
 3211TIP3    H1 9597   4.461   5.249   5.656  1.6247 -0.7828 -0.4604
 3211TIP3    H2 9598   4.413   5.190   5.787 -0.4729  0.9331 -0.3934
 3212TIP3   OH2 9599   3.670   0.423   1.348 -0.2964  0.7324 -0.2734
 3212TIP3    H1 9600   3.669   0.487   1.277  2.0249  2.0693  0.7775
 3212TIP3    H2 9601   3.758   0.386   1.346 -0.7255 -0.4420  0.8904
 3213TIP3   OH2 9602   0.621   2.104   0.197 -0.2363 -0.2598  0.1148
 3213TIP3    H1 9603   0.638   2.194   0.170  0.6651 -0.0588  1.2496
 3213TIP3    H2 9604   0.609   2.109   0.292 -1.0429 -1.2234  0.0763
 3214TIP3   OH2 9605   6.481   1.789   3.852 -0.0542  0.8334  0.4273
 3214TIP3    H1 9606   6.524   1.826   3.930 -0.1134 -0.4345  1.0898
 3214TIP3    H2 9607   6.402   1.747   3.886 -1.2272  2.1192 -0.6238
 3215TIP3   OH2 9608   6.348   6.314   0.100 -0.0039 -0.1696 -0.1089
 3215TIP3    H1 9609   6.313   6.227   0.122  0.6141 -1.0844 -2.4179
 3215TIP3    H2 9610   6.292   6.375   0.148 -1.6581 -1.7757  0.1260
 3216TIP3   OH2 9611   3.741   4.636   3.835 -0.2315  0.2858  0.3261
 3216TIP3    H1 9612   3.796   4.560   3.816  0.2283  0.9052 -0.9499
 3216TIP3    H2 9613   3.670   4.601   3.889  0.1369 -0.9900  0.0354
 3217TIP3   OH2 9614   3.982   6.234   3.337  0.7735  0.2847 -0.0866
 3217TIP3    H1 9615   3.996   6.269   3.425 -1.4632 -2.2990  1.4444
 3217TIP3    H2 9616   4.047   6.164   3.329 -0.0193 -0.4974  0.1778
 3218TIP3   OH2 9617   0.593   1.249   1.590  0.1882 -0.3931  0.4667
 3218TIP3    H1 9618   0.517   1.299   1.621  0.6107 -0.1125  1.0832
 3218TIP3    H2 9619   0.660   1.315   1.573  0.6066 -0.7112  0.8577
 3219TIP3   OH2 9620   0.727   4.593   1.045 -0.4579  0.5484 -0.5921
 3219TIP3    H1 9621   0.645   4.636   1.023 -0.9190 -0.8622 -1.7987
 3219TIP3    H2 9622   0.794   4.642   0.999 -0.9375  0.1981 -1.7000
 3220TIP3   OH2 9623   0.804   6.712   5.322  0.0130  0.1057  0.2337
 3220TIP3    H1 9624   0.725   6.754   5.354 -0.2739  0.4712 -0.8918
 3220TIP3    H2 9625   0.848   6.680   5.400 -0.0582  1.9680  1.1021
 3221TIP3   OH2 9626   0.882   5.146   3.007 -0.0853  0.1672  0.1681
 3221TIP3    H1 9627   0.961   5.200   3.019 -0.6718  0.9668  0.5083
 3221TIP3    H2 9628   0.811   5.209   3.000 -0.7767 -0.5666  0.4455
 3222TIP3   OH2 9629   4.645   5.969   3.890  0.0412 -0.3112 -0.1999
 3222TIP3    H1 9630   4.689   6.025   3.955  0.4182  0.1656 -0.8484
 3222TIP3    H2 9631   4.715   5.944   3.829 -0.5178  0.2134 -1.0816
 3223TIP3   OH2 9632   1.427   0.249   1.288 -0.1459  0.2441  0.9147
 3223TIP3    H1 9633   1.391   0.322   1.238  0.5943 -0.0608 -0.0813
 3223TIP3    H2 9634   1.400   0.171   1.239 -0.2596 -0.1187  1.5405
 3224TIP3   OH2 9635   1.901   0.898   5.171  0.3714 -0.3233 -0.0293
 3224TIP3    H1 9636   1.993   0.909   5.147  0.3504 -1.1233 -0.5017
 3224TIP3    H2 9637   1.903   0.849   5.254  0.4057  1.3226  0.9962
 3225TIP3   OH2 9638   1.566   0.420   1.007  0.2154  0.2723 -0.1486
 3225TIP3    H1 9639   1.531   0.373   0.931  1.6827 -0.3527 -0.4660
 3225TIP3    H2 9640   1.654   0.447   0.981  0.3424  0.9986  0.9536
 3226TIP3   OH2 9641   2.485   4.167   2.231 -0.7327  0.1072  0.1131
 3226TIP3    H1 9642   2.495   4.240   2.292 -0.9667  0.4869 -0.2987
 3226TIP3    H2 9643   2.395   4.136   2.244 -0.8621  0.3447 -0.2090
 3227TIP3   OH2 9644   6.352   2.044   2.604 -0.0495 -0.3672 -0.1535
 3227TIP3    H1 9645   6.367   1.993   2.684 -2.4945 -1.4702 -0.2836
 3227TIP3    H2 9646   6.350   1.979   2.534  2.3207  0.6118 -1.2431
 3228TIP3   OH2 9647   0.583   1.437   4.211  0.0147  0.1962  0.0391
 3228TIP3    H1 9648   0.610   1.396   4.128 -0.8219 -1.4792  0.5432
 3228TIP3    H2 9649   0.527   1.372   4.252 -1.3677  1.8922  0.9433
 3229TIP3   OH2 9650   0.753   5.968   2.936  0.1901 -0.1910  0.0673
 3229TIP3    H1 9651   0.780   6.025   2.864 -0.4114 -1.9184 -1.5669
 3229TIP3    H2 9652   0.780   6.016   3.015  2.6053  0.8928 -1.3111
 3230TIP3   OH2 9653   4.631   6.711   4.746 -0.1694  0.2298 -0.3160
 3230TIP3    H1 9654   4.572   6.784   4.766 -0.6772 -0.2515 -0.0231
 3230TIP3    H2 9655   4.717   6.741   4.775 -0.1366  1.2017 -1.3576
 3231TIP3   OH2 9656   1.601   6.478  -0.020 -0.4465 -0.5670  0.2730
 3231TIP3    H1 9657   1.549   6.401   0.002  0.7136 -1.3200  0.5030
 3231TIP3    H2 9658   1.670   6.480   0.047  0.6556 -0.4385 -0.8255
 3232TIP3   OH2 9659   4.160   2.365   0.859  0.0083 -0.7574  0.2832
 3232TIP3    H1 9660   4.238   2.392   0.810 -0.6785  1.8453  0.4928
 3232TIP3    H2 9661   4.184   2.379   0.951  0.0236 -2.1317  0.5168
 3233TIP3   OH2 9662   5.411   1.115   1.496 -0.3499  0.5705 -0.2409
 3233TIP3    H1 9663   5.346   1.172   1.538  0.6345  1.9280 -0.4724
 3233TIP3    H2 9664   5.408   1.140   1.404  0.2855  0.4295 -0.3017
 3234TIP3   OH2 9665   2.209   1.728   3.846  0.4946  0.4810  0.2409
 3234TIP3    H1 9666   2.152   1.709   3.771 -0.6619 -1.5584  1.5312
 3234TIP3    H2 9667   2.297   1.707   3.815 -0.0391 -0.9931 -0.3729
 3235TIP3   OH2 9668   3.352   0.511   0.868 -0.3583 -0.2489  0.0436
 3235TIP3    H1 9669   3.306   0.487   0.948 -0.9319  0.9809  0.1104
 3235TIP3    H2 9670   3.346   0.607   0.865  1.9139 -0.0413 -0.1193
 3236TIP3   OH2 9671   4.077   3.420   1.651  0.0808  0.1531 -0.1361
 3236TIP3    H1 9672   4.068   3.468   1.568  2.5043 -0.4295 -0.8155
 3236TIP3    H2 9673   4.035   3.335   1.634 -1.2199  0.7487 -0.0509
 3237TIP3   OH2 9674   0.585   4.042   0.621  0.9951 -0.2988 -0.5440
 3237TIP3    H1 9675   0.550   3.967   0.573 -1.8484 -0.0716  0.9313
 3237TIP3    H2 9676   0.656   4.075   0.567 -0.1128 -1.7902 -3.0757
 3238TIP3   OH2 9677   3.994   4.314   4.268  0.2564 -0.2318 -0.3589
 3238TIP3    H1 9678   4.016   4.224   4.295 -0.2761  0.0373  1.0089
 3238TIP3    H2 9679   3.903   4.309   4.241  0.4273 -0.2318 -0.9576
 3239TIP3   OH2 9680   1.265   4.979   2.749 -0.0101  0.5517  0.2785
 3239TIP3    H1 9681   1.211   5.003   2.674 -0.6911 -0.1385  0.5339
 3239TIP3    H2 9682   1.319   4.906   2.718  0.1172  0.6401  0.2913
 3240TIP3   OH2 9683   5.256   4.168   3.556  0.2173 -0.3671  0.3625
 3240TIP3    H1 9684   5.169   4.208   3.552 -0.9462 -2.6836  0.5932
 3240TIP3    H2 9685   5.302   4.215   3.625 -0.9226  0.7489  0.3965
 3241TIP3   OH2 9686   6.388   4.452   1.107 -0.5111  0.4673  0.5837
 3241TIP3    H1 9687   6.459   4.478   1.048 -0.3020 -0.0165  0.6146
 3241TIP3    H2 9688   6.329   4.400   1.053 -0.7641  0.7430  0.5950
 3242TIP3   OH2 9689   0.478   2.849   1.107  0.1999  0.0393  0.2483
 3242TIP3    H1 9690   0.444   2.915   1.168 -2.6338 -1.5227  0.5981
 3242TIP3    H2 9691   0.437   2.870   1.023 -2.3727 -2.1628  0.7820
 3243TIP3   OH2 9692   3.150   1.384   4.193 -0.0611 -0.2164  0.4325
 3243TIP3    H1 9693   3.184   1.298   4.170 -0.1338  0.6048 -3.4892
 3243TIP3    H2 9694   3.059   1.382   4.165 -0.2947  0.9000  1.0432
 3244TIP3   OH2 9695   1.139   3.733   5.528  0.1250  0.2594  0.1285
 3244TIP3    H1 9696   1.056   3.758   5.568  0.4199  0.7447  0.4465
 3244TIP3    H2 9697   1.204   3.786   5.573  0.8532 -1.4761  1.2459
 3245TIP3   OH2 9698   1.082   2.175   5.390  0.1568  0.0472  0.4917
 3245TIP3    H1 9699   1.049   2.106   5.448  1.5413 -0.5157  0.6407
 3245TIP3    H2 9700   1.071   2.255   5.441 -0.5958 -0.1697  0.6899
 3246TIP3   OH2 9701   1.739   1.081   0.690 -0.0563  0.3844 -0.3334
 3246TIP3    H1 9702   1.805   1.028   0.735 -0.3010 -1.8825 -2.4186
 3246TIP3    H2 9703   1.661   1.026   0.689 -0.0671  0.3004 -3.3459
 3247TIP3   OH2 9704   0.671   4.505   3.833 -0.0938  0.2079 -0.5826
 3247TIP3    H1 9705   0.655   4.459   3.916  1.1429  0.6585 -0.0774
 3247TIP3    H2 9706   0.678   4.435   3.768  2.2851 -0.4265  0.2578
 3248TIP3   OH2 9707   6.703   5.778   2.145 -0.0662  0.5480 -0.3075
 3248TIP3    H1 9708   6.649   5.767   2.223 -0.0689  1.0482 -0.2341
 3248TIP3    H2 9709   6.744   5.863   2.157 -0.1324  0.6636 -0.8951
 3249TIP3   OH2 9710   4.294   4.096   4.464 -0.3243 -0.1049  0.1648
 3249TIP3    H1 9711   4.328   4.175   4.422  1.6525  0.8997  3.2953
 3249TIP3    H2 9712   4.203   4.118   4.486  0.4032  1.7210  1.6543
 3250TIP3   OH2 9713   1.474   4.971   1.935 -0.7698  0.0044  0.0475
 3250TIP3    H1 9714   1.406   5.020   1.981  0.0116  1.0360  0.1332
 3250TIP3    H2 9715   1.555   4.994   1.981 -0.2774 -0.7183 -0.4407
 3251TIP3   OH2 9716   6.544   4.434   3.791  0.0796  0.9249  0.0578
 3251TIP3    H1 9717   6.538   4.380   3.870  2.6114 -0.2941 -0.4749
 3251TIP3    H2 9718   6.617   4.397   3.742 -1.9610  1.0165 -3.4053
 3252TIP3   OH2 9719   6.109   2.238   4.044  0.0347  0.1557  0.0387
 3252TIP3    H1 9720   6.118   2.157   3.993 -0.3873  0.5459 -0.6630
 3252TIP3    H2 9721   6.177   2.231   4.111  0.1511 -0.6791 -0.1492
 3253TIP3   OH2 9722   0.809   4.315   1.459  0.6138  0.0270  0.5921
 3253TIP3    H1 9723   0.795   4.396   1.410  3.4298 -0.2444 -0.8898
 3253TIP3    H2 9724   0.904   4.306   1.462  0.4327 -2.0033  2.8615
 3254TIP3   OH2 9725   1.079   3.396   4.693  0.3033  0.2549 -0.5814
 3254TIP3    H1 9726   1.164   3.353   4.697  0.0540 -0.2723 -0.8364
 3254TIP3    H2 9727   1.024   3.337   4.642 -0.3681  0.3235  0.0365
 3255TIP3   OH2 9728   0.267   1.559   2.690  0.6537 -0.8757 -0.0974
 3255TIP3    H1 9729   0.346   1.612   2.679  1.5167 -1.3681  2.8477
 3255TIP3    H2 9730   0.296   1.482   2.738 -1.8337 -0.2414  2.7356
 3256TIP3   OH2 9731   1.878   0.244   3.607 -0.4419  0.3156 -0.1387
 3256TIP3    H1 9732   1.850   0.253   3.515 -0.4398  1.2245 -0.0662
 3256TIP3    H2 9733   1.969   0.272   3.607 -0.2829 -0.1893  0.0606
 3257TIP3   OH2 9734   0.190   6.311   4.370 -0.6766 -0.0401 -0.3893
 3257TIP3    H1 9735   0.220   6.228   4.407  0.6336  0.7980  0.5327
 3257TIP3    H2 9736   0.118   6.338   4.428  0.2837  0.4651  0.6002
 3258TIP3   OH2 9737   3.795   0.184   1.976  0.0165  0.8635  0.6868
 3258TIP3    H1 9738   3.742   0.147   1.905 -1.9469  0.5821  2.2245
 3258TIP3    H2 9739   3.885   0.162   1.952 -0.4958  1.3036 -1.9983
 3259TIP3   OH2 9740   0.836   1.411   2.318  0.7388  0.3386 -0.5600
 3259TIP3    H1 9741   0.822   1.325   2.278 -0.6501  1.2168 -2.0860
 3259TIP3    H2 9742   0.748   1.446   2.331  1.2904  1.9874 -1.0226
 3260TIP3   OH2 9743   0.065   0.621   3.088 -0.1732 -0.2213 -0.2539
 3260TIP3    H1 9744   0.053   0.559   3.159 -1.3849  2.2434  1.8675
 3260TIP3    H2 9745  -0.023   0.633   3.051 -0.0171  0.4564 -0.4180
 3261TIP3   OH2 9746   1.573   1.226   1.580 -0.4617 -0.2064  0.1807
 3261TIP3    H1 9747   1.484   1.226   1.545 -0.9666 -2.9524  1.1646
 3261TIP3    H2 9748   1.585   1.136   1.612  2.8500 -0.0835 -0.3877
 3262TIP3   OH2 9749   1.689   1.078   2.598 -0.4813 -0.0936  0.1972
 3262TIP3    H1 9750   1.704   1.162   2.641  0.2613  0.0051 -0.2384
 3262TIP3    H2 9751   1.594   1.068   2.597 -0.5417  0.2866  1.1044
 3263TIP3   OH2 9752   3.808   1.958   0.537 -0.2091 -0.3585 -0.3853
 3263TIP3    H1 9753   3.788   2.023   0.604  0.6288 -2.3172  1.9028
 3263TIP3    H2 9754   3.843   2.009   0.464  0.6026  1.7492  1.3642
 3264TIP3   OH2 9755   2.889   1.035   1.042  0.2058 -0.7569  0.1351
 3264TIP3    H1 9756   2.829   1.110   1.035  0.8176 -0.1236  1.3573
 3264TIP3    H2 9757   2.836   0.966   1.082 -0.1363 -0.7276 -0.2549
 3265TIP3   OH2 9758   4.026   6.653   3.887 -0.1653 -0.2710  0.2368
 3265TIP3    H1 9759   4.037   6.720   3.954 -0.6218  0.0759 -0.0310
 3265TIP3    H2 9760   3.948   6.604   3.914 -0.2058 -0.2871  0.0952
 3266TIP3   OH2 9761   5.410   6.572   5.178  0.1183  0.3968 -0.1759
 3266TIP3    H1 9762   5.380   6.648   5.228  0.0533  0.4131 -0.2413
 3266TIP3    H2 9763   5.453   6.517   5.244 -0.6133  0.0702  0.0346
 3267TIP3   OH2 9764   6.667   2.726   4.813 -0.1388 -0.1781  0.4761
 3267TIP3    H1 9765   6.604   2.796   4.798 -2.0526 -1.4409  2.1546
 3267TIP3    H2 9766   6.703   2.745   4.900  2.6918  1.0764 -0.8175
 3268TIP3   OH2 9767   0.326   4.696   3.358 -0.0551 -0.5055  0.2794
 3268TIP3    H1 9768   0.306   4.688   3.451  1.1499 -2.2059  0.4261
 3268TIP3    H2 9769   0.405   4.750   3.354 -0.5824  0.2761  0.1646
 3269TIP3   OH2 9770   1.608   2.169   1.785  0.2261  0.1391 -0.0289
 3269TIP3    H1 9771   1.598   2.232   1.713  1.5112 -0.5454 -0.8576
 3269TIP3    H2 9772   1.566   2.089   1.753  0.5014 -0.0679  0.1225
 3270TIP3   OH2 9773   0.929   4.427   5.402 -0.2190 -0.0895  0.3184
 3270TIP3    H1 9774   0.876   4.347   5.406 -0.2436 -0.1313 -0.7440
 3270TIP3    H2 9775   0.942   4.442   5.309 -1.7024  2.1314  0.4034
 3271TIP3   OH2 9776   7.086   1.467   5.533  0.2851 -0.5581 -0.3687
 3271TIP3    H1 9777   7.132   1.551   5.530  0.9905 -0.9353 -0.7139
 3271TIP3    H2 9778   7.028   1.468   5.457 -0.0423 -0.2064 -0.1158
 3272TIP3   OH2 9779   5.383   5.844   1.795  0.4936 -0.3668 -0.3454
 3272TIP3    H1 9780   5.459   5.785   1.793  0.9148  0.0321  1.6517
 3272TIP3    H2 9781   5.375   5.875   1.705  2.5911 -0.5833 -0.6705
 3273TIP3   OH2 9782   2.122   6.393   1.158  0.0185 -0.4637 -0.0207
 3273TIP3    H1 9783   2.156   6.381   1.247 -0.4291 -1.1061  0.0650
 3273TIP3    H2 9784   2.038   6.436   1.170  0.2336  0.0074 -0.1715
 3274TIP3   OH2 9785   0.677   0.418   1.247  0.6491 -0.2571 -0.7626
 3274TIP3    H1 9786   0.667   0.499   1.197 -0.9028 -0.1744 -0.3888
 3274TIP3    H2 9787   0.771   0.409   1.262  0.8204  1.7428 -0.3807
 3275TIP3   OH2 9788   6.644   1.294   4.846 -0.4316 -0.4695 -0.5571
 3275TIP3    H1 9789   6.587   1.217   4.849 -2.8996  1.2648  0.8376
 3275TIP3    H2 9790   6.645   1.320   4.754  0.0389 -1.8634 -0.9606
 3276TIP3   OH2 9791   0.896   4.577   4.769  0.4488 -0.4682 -0.2402
 3276TIP3    H1 9792   0.849   4.538   4.843 -2.7466 -0.1808 -1.9357
 3276TIP3    H2 9793   0.958   4.510   4.742 -1.3358 -2.3749  0.0784
 3277TIP3   OH2 9794   2.307   0.161   3.338 -0.1129 -0.3804 -0.3526
 3277TIP3    H1 9795   2.358   0.180   3.416  0.4078 -1.7571 -0.3394
 3277TIP3    H2 9796   2.371   0.149   3.268 -0.6117  2.3037 -1.3941
 3278TIP3   OH2 9797   2.343   5.787   5.498 -0.0584 -0.1447 -1.0403
 3278TIP3    H1 9798   2.364   5.712   5.554  0.3979 -0.2599 -1.3670
 3278TIP3    H2 9799   2.335   5.860   5.559  1.3696 -0.0809 -0.9105
 3279TIP3   OH2 9800   5.788   5.131   0.903 -0.1396  0.3939 -0.3163
 3279TIP3    H1 9801   5.705   5.104   0.864 -0.2064 -0.9104  0.6843
 3279TIP3    H2 9802   5.774   5.125   0.997  0.9769  0.5180 -0.1273
 3280TIP3   OH2 9803   2.863   2.151   3.117  0.3222  0.2517 -0.1563
 3280TIP3    H1 9804   2.943   2.202   3.108  0.2667  0.1769 -1.2181
 3280TIP3    H2 9805   2.891   2.060   3.108 -0.0415  0.2795 -2.2042
 3281TIP3   OH2 9806   4.937   1.452   1.842 -0.1048 -0.0057 -0.5462
 3281TIP3    H1 9807   4.888   1.498   1.774  0.1217 -0.6273 -1.1404
 3281TIP3    H2 9808   4.972   1.374   1.798  0.6557 -0.0373  0.0954
 3282TIP3   OH2 9809   6.700   4.533   0.975 -0.0938  0.3222  0.7843
 3282TIP3    H1 9810   6.765   4.577   1.030 -0.9509  1.6875  0.7256
 3282TIP3    H2 9811   6.637   4.600   0.953 -1.7196 -1.0432  1.0833
 3283TIP3   OH2 9812   5.985   3.301   5.197 -0.5820 -0.8919 -0.0159
 3283TIP3    H1 9813   6.067   3.338   5.164  1.1335 -3.1478  1.4125
 3283TIP3    H2 9814   5.931   3.290   5.119  0.5706  0.3493 -1.0473
 3284TIP3   OH2 9815   1.554   2.898   1.473 -0.7801 -0.2446 -0.1001
 3284TIP3    H1 9816   1.528   2.979   1.430  1.6717 -0.3366 -2.0098
 3284TIP3    H2 9817   1.602   2.926   1.551 -3.4852 -0.0368  1.6096
 3285TIP3   OH2 9818   7.027   4.770   3.542 -0.9024  0.1923  0.1205
 3285TIP3    H1 9819   7.055   4.695   3.594 -0.0330  0.4461  0.0290
 3285TIP3    H2 9820   7.079   4.843   3.574  1.0617 -0.0118 -2.3307
 3286TIP3   OH2 9821   4.716   4.073   1.772  0.0848  0.4189 -0.4676
 3286TIP3    H1 9822   4.799   4.118   1.758  0.7061 -0.5757 -0.0788
 3286TIP3    H2 9823   4.713   4.056   1.866  0.8174 -2.0720 -0.8256
 3287TIP3   OH2 9824   3.698   3.080   3.067 -0.2698 -0.4657  0.3411
 3287TIP3    H1 9825   3.658   3.006   3.112  1.3479 -1.5417  0.1111
 3287TIP3    H2 9826   3.772   3.042   3.019 -0.4056  1.0336 -1.1831
 3288TIP3   OH2 9827   4.165   6.273   4.965  0.3415  0.8111  0.0546
 3288TIP3    H1 9828   4.080   6.278   5.008  1.0896  0.2105  1.6731
 3288TIP3    H2 9829   4.145   6.240   4.877 -0.7693 -4.0064  1.7932
 3289TIP3   OH2 9830   2.795   4.127   0.423  0.4249 -0.1211  0.2347
 3289TIP3    H1 9831   2.833   4.040   0.406  1.4130 -0.0484  1.8859
 3289TIP3    H2 9832   2.708   4.108   0.459  0.3570 -0.3951 -0.0637
 3290TIP3   OH2 9833   0.556   6.253   1.933  0.3128 -0.1264  0.3529
 3290TIP3    H1 9834   0.505   6.255   1.852  2.3862 -1.4641 -1.1059
 3290TIP3    H2 9835   0.513   6.186   1.986 -0.8306  0.4748  0.2256
 3291TIP3   OH2 9836   0.494   3.648   2.555 -0.2352  0.2237 -0.9150
 3291TIP3    H1 9837   0.401   3.631   2.570  0.0164 -0.6132 -0.2114
 3291TIP3    H2 9838   0.527   3.673   2.641  0.9726 -3.3478 -0.1750
 3292TIP3   OH2 9839   1.577   2.110   4.425 -0.0425  0.0308 -0.3563
 3292TIP3    H1 9840   1.563   2.041   4.360  0.3005 -0.2383 -0.1475
 3292TIP3    H2 9841   1.495   2.158   4.427 -0.3587 -0.5062 -0.3418
 3293TIP3   OH2 9842   1.126   1.152   0.868  0.6142  0.2321 -0.0012
 3293TIP3    H1 9843   1.206   1.171   0.818  0.3375  1.2396 -0.0879
 3293TIP3    H2 9844   1.111   1.059   0.856  0.8383  0.3626 -1.3884
 3294TIP3   OH2 9845   5.707   1.501   4.218  0.0905 -0.5451  0.0994
 3294TIP3    H1 9846   5.643   1.565   4.185  0.8325 -0.1639 -0.6446
 3294TIP3    H2 9847   5.689   1.495   4.312 -0.5374  0.1350  0.0342
 3295TIP3   OH2 9848   4.860   4.388   2.182 -0.0046 -0.2653  0.3541
 3295TIP3    H1 9849   4.918   4.393   2.106  0.8315 -1.2627  0.8934
 3295TIP3    H2 9850   4.772   4.381   2.145  0.0464  2.4115 -0.4756
 3296TIP3   OH2 9851   4.372   2.117   1.130  0.2692  0.1927 -0.1460
 3296TIP3    H1 9852   4.395   2.056   1.059  0.6921  0.2900 -0.0954
 3296TIP3    H2 9853   4.378   2.064   1.209  2.0942  0.6505  0.0523
 3297TIP3   OH2 9854   6.304   2.326   3.543 -0.0701  0.9045 -0.0019
 3297TIP3    H1 9855   6.398   2.325   3.526 -0.4226  1.8200 -2.4589
 3297TIP3    H2 9856   6.270   2.395   3.485 -2.2265  0.7358  0.9642
 3298TIP3   OH2 9857   1.661   1.356   5.881 -0.2056 -0.6100 -0.2119
 3298TIP3    H1 9858   1.591   1.316   5.933  0.1933 -3.3841 -1.5910
 3298TIP3    H2 9859   1.666   1.302   5.802  1.1459  1.6661 -1.8157
 3299TIP3   OH2 9860   5.740   4.256   3.378 -0.6429 -0.6665 -0.1734
 3299TIP3    H1 9861   5.663   4.225   3.331 -0.2809 -1.3743 -0.3044
 3299TIP3    H2 9862   5.794   4.300   3.312 -0.8127 -0.3942 -0.1315
 3300TIP3   OH2 9863   2.113   6.555   3.333 -0.2024  0.0027  0.1300
 3300TIP3    H1 9864   2.044   6.562   3.399  1.2088  1.3929  1.5602
 3300TIP3    H2 9865   2.119   6.643   3.295  1.0066  0.0335  0.3277
 3301TIP3   OH2 9866   3.933   2.351   0.672  0.4271 -0.3138  0.3048
 3301TIP3    H1 9867   4.020   2.367   0.709  1.2818  0.1375 -1.7576
 3301TIP3    H2 9868   3.938   2.388   0.584 -1.5123 -1.2871 -0.2524
 3302TIP3   OH2 9869   1.772   1.356   1.427  0.0511 -0.5436 -0.0494
 3302TIP3    H1 9870   1.713   1.324   1.496  0.6559  2.0712  1.8544
 3302TIP3    H2 9871   1.819   1.278   1.398 -2.3753 -2.2506  0.2900
 3303TIP3   OH2 9872   0.290   4.462   3.225  0.3960  0.1532 -0.4763
 3303TIP3    H1 9873   0.369   4.468   3.171  0.1485 -1.1039 -1.0086
 3303TIP3    H2 9874   0.286   4.546   3.271  1.9538  0.2958 -0.5539
 3304TIP3   OH2 9875   6.420   2.634   4.380  0.0415  0.7143 -0.8148
 3304TIP3    H1 9876   6.387   2.566   4.439  0.7851 -1.2922 -2.6003
 3304TIP3    H2 9877   6.344   2.662   4.330  0.2710 -1.2942 -2.3999
 3305TIP3   OH2 9878   4.114   3.600   1.439 -0.1090  0.0564  0.3378
 3305TIP3    H1 9879   4.106   3.595   1.344  0.4276  1.7695  0.1684
 3305TIP3    H2 9880   4.036   3.649   1.467 -0.3372 -0.5551  0.8115
 3306TIP3   OH2 9881   2.147   5.585   3.739  0.3000  0.6751  0.1272
 3306TIP3    H1 9882   2.128   5.664   3.789  0.2626  0.7454  0.0017
 3306TIP3    H2 9883   2.173   5.521   3.805  0.0736  0.7137  0.2571
 3307TIP3   OH2 9884   3.806   3.160   3.625  0.3473  0.4829  0.1081
 3307TIP3    H1 9885   3.750   3.237   3.637  0.5126  0.8535 -1.2798
 3307TIP3    H2 9886   3.752   3.099   3.575  0.4010 -0.0990  0.7476
 3308TIP3   OH2 9887   0.034   0.656   1.788 -0.3381  0.0005  0.3178
 3308TIP3    H1 9888   0.099   0.678   1.721 -2.5355 -1.6163 -2.5934
 3308TIP3    H2 9889   0.078   0.592   1.843  1.2556  0.6644 -0.1130
 3309TIP3   OH2 9890   3.588   0.972   0.768 -0.6327 -0.8095  0.1288
 3309TIP3    H1 9891   3.571   1.039   0.834  0.9957 -0.2562  0.0337
 3309TIP3    H2 9892   3.519   0.983   0.703 -1.9481 -1.0198  1.4565
 3310TIP3   OH2 9893   5.199   1.348   3.299 -0.2942 -0.0483 -0.4289
 3310TIP3    H1 9894   5.134   1.294   3.254  0.0229 -0.6742 -0.1603
 3310TIP3    H2 9895   5.153   1.383   3.375 -0.6892  0.6056 -0.9588
 3311TIP3   OH2 9896   2.809   5.634   3.450  0.1860  0.6872  0.4721
 3311TIP3    H1 9897   2.822   5.638   3.355 -2.1300 -0.5776  0.0334
 3311TIP3    H2 9898   2.765   5.717   3.471 -1.4988 -0.0412 -0.0160
 3312TIP3   OH2 9899   2.395   1.460   5.241 -0.1688  0.0614 -0.2382
 3312TIP3    H1 9900   2.379   1.378   5.289 -1.2148  1.2910  1.6098
 3312TIP3    H2 9901   2.474   1.496   5.283 -0.8413  0.9324  0.3070
 3313TIP3   OH2 9902   5.255   4.427   5.410 -0.3334 -0.0005  0.1222
 3313TIP3    H1 9903   5.344   4.411   5.381 -0.3601 -3.2570  1.4163
 3313TIP3    H2 9904   5.200   4.397   5.338 -0.3891  0.3433  0.0206
 3314TIP3   OH2 9905   2.031   2.461   0.661  0.5074 -0.3248  0.0016
 3314TIP3    H1 9906   1.975   2.526   0.702  0.8122  0.3187 -0.5906
 3314TIP3    H2 9907   1.980   2.380   0.664  0.9049 -0.5651  2.5626
 3315TIP3   OH2 9908   5.479   1.761   5.216 -0.2310 -0.3052 -0.5473
 3315TIP3    H1 9909   5.482   1.855   5.235  0.7387 -0.3632 -0.3111
 3315TIP3    H2 9910   5.563   1.744   5.173 -0.8007 -0.8958 -1.4439
 3316TIP3   OH2 9911   4.951   0.323   1.352  0.1626 -0.0527 -0.1589
 3316TIP3    H1 9912   5.005   0.398   1.376  0.7714 -0.8679  1.1676
 3316TIP3    H2 9913   4.871   0.334   1.403  0.6999 -0.8219  0.9207
 3317TIP3   OH2 9914   6.693   1.426   5.752 -0.1929 -0.6018  0.0867
 3317TIP3    H1 9915   6.739   1.485   5.812 -2.2729  0.7204  0.5227
 3317TIP3    H2 9916   6.753   1.353   5.738  1.2744  0.1622  1.9708
 3318TIP3   OH2 9917   1.321   2.378   2.971 -0.0642  0.2501  0.2797
 3318TIP3    H1 9918   1.373   2.457   2.988  1.7240 -0.3919 -1.7970
 3318TIP3    H2 9919   1.305   2.341   3.058  0.3978  2.0646  1.1754
 3319TIP3   OH2 9920   3.673   0.432   4.479 -0.0109  0.2976  0.0244
 3319TIP3    H1 9921   3.703   0.464   4.564 -2.1558  0.5956  0.7142
 3319TIP3    H2 9922   3.737   0.363   4.456  1.1233  0.8378  1.4110
 3320TIP3   OH2 9923   4.256   2.817   3.190 -0.0334  0.1613 -0.2412
 3320TIP3    H1 9924   4.202   2.780   3.259  0.3519  0.5968  0.3130
 3320TIP3    H2 9925   4.290   2.742   3.142 -2.2402 -0.1100 -1.5215
 3321TIP3   OH2 9926   1.414   2.485   0.051 -0.3494 -0.6603  0.1751
 3321TIP3    H1 9927   1.446   2.561   0.001  0.0098 -1.1028 -0.2738
 3321TIP3    H2 9928   1.320   2.502   0.062 -0.2457 -0.0864  0.1918
 3322TIP3   OH2 9929   3.667   1.547   0.362  0.1931  0.5435  0.3754
 3322TIP3    H1 9930   3.629   1.551   0.274  2.2485  2.8401 -0.5337
 3322TIP3    H2 9931   3.761   1.543   0.347  0.6056  1.2261  2.4696
 3323TIP3   OH2 9932   4.205   6.412   4.278  0.1033 -0.1303 -0.3617
 3323TIP3    H1 9933   4.182   6.500   4.305  2.8858  0.5182  0.1457
 3323TIP3    H2 9934   4.217   6.418   4.183  1.4073  0.3671 -0.1868
 3324TIP3   OH2 9935   0.926   5.441   2.819  0.6312 -0.4863 -0.0638
 3324TIP3    H1 9936   0.945   5.512   2.879  1.7334 -1.0211  0.2546
 3324TIP3    H2 9937   0.911   5.483   2.735  2.6719  0.0603 -0.1946
 3325TIP3   OH2 9938   2.411   5.499   4.806  0.5643 -0.0771  0.2050
 3325TIP3    H1 9939   2.402   5.474   4.898  0.6316  1.3970  0.6368
 3325TIP3    H2 9940   2.351   5.441   4.759 -0.2528 -0.1460  1.3089
 3326TIP3   OH2 9941   3.400   3.507   2.170 -0.4156  0.3461 -0.3752
 3326TIP3    H1 9942   3.327   3.469   2.218 -1.3064 -0.5849 -2.3330
 3326TIP3    H2 9943   3.453   3.551   2.236 -2.3711  0.4571  1.1989
 3327TIP3   OH2 9944   1.974   4.084   4.469 -0.0844 -0.2483  0.3133
 3327TIP3    H1 9945   1.924   4.130   4.401  0.0136 -1.1476 -0.3805
 3327TIP3    H2 9946   2.000   4.153   4.530  1.3370  0.8920 -1.4796
 3328TIP3   OH2 9947   0.379   4.594   1.553 -0.5670 -0.1686  0.6595
 3328TIP3    H1 9948   0.410   4.518   1.603 -2.0445 -0.3171  1.4123
 3328TIP3    H2 9949   0.424   4.668   1.593  1.5192 -0.6642 -0.6070
 3329TIP3   OH2 9950   2.070   1.017   5.629 -0.1694 -0.3426  0.0215
 3329TIP3    H1 9951   2.050   1.015   5.723 -1.3324  0.8925 -0.1725
 3329TIP3    H2 9952   1.996   1.064   5.590  0.0024 -1.3657 -1.5980
 3330TIP3   OH2 9953   4.510   3.897   1.315 -0.0551 -0.4756 -0.6442
 3330TIP3    H1 9954   4.542   3.967   1.373  1.1261  0.2319 -2.0635
 3330TIP3    H2 9955   4.416   3.911   1.309  0.1546  1.0454 -0.8924
 3331TIP3   OH2 9956   5.345   0.442   4.206  0.6914 -0.0424  0.0849
 3331TIP3    H1 9957   5.285   0.470   4.137 -0.4009  0.8175  1.3277
 3331TIP3    H2 9958   5.431   0.443   4.165  0.0687  0.3983 -1.2677
 3332TIP3   OH2 9959   0.431   5.507   3.343 -0.0103 -0.7468 -0.0275
 3332TIP3    H1 9960   0.404   5.599   3.348  0.7766 -0.5128  0.0386
 3332TIP3    H2 9961   0.464   5.496   3.254 -0.3548 -1.0388 -0.1209
 3333TIP3   OH2 9962   2.152   2.395   1.026  0.1807 -0.4247 -0.5614
 3333TIP3    H1 9963   2.130   2.441   1.107  3.1474  1.8243 -0.8415
 3333TIP3    H2 9964   2.146   2.302   1.048 -0.6641  0.1099  1.7394
 3334TIP3   OH2 9965   1.617   0.118   0.197 -0.0506  0.3509 -0.2515
 3334TIP3    H1 9966   1.574   0.126   0.282 -1.0707  0.9059 -0.7961
 3334TIP3    H2 9967   1.555   0.156   0.135  0.4651 -0.4814 -1.3150
 3335TIP3   OH2 9968   7.009   4.372   2.249 -0.1727  0.0767  0.2032
 3335TIP3    H1 9969   6.995   4.278   2.261 -0.9065 -0.2646 -2.6768
 3335TIP3    H2 9970   7.077   4.394   2.313  0.3577 -2.5120  0.6461
 3336TIP3   OH2 9971   6.898   3.627   4.800  0.0473  0.2531 -0.4256
 3336TIP3    H1 9972   6.806   3.643   4.781 -0.2038 -0.1480  0.4306
 3336TIP3    H2 9973   6.901   3.540   4.840  0.5573  0.9620  1.1785
 3337TIP3   OH2 9974   0.430   4.889   3.574 -0.0793  0.6873 -0.0186
 3337TIP3    H1 9975   0.427   4.860   3.665 -0.5158  1.9784  0.4073
 3337TIP3    H2 9976   0.493   4.831   3.532 -1.7018 -1.5797  0.4854
 3338TIP3   OH2 9977   2.921   6.206   2.817  0.4589  0.1966  0.2914
 3338TIP3    H1 9978   2.968   6.163   2.746 -0.6831  0.0882 -0.4129
 3338TIP3    H2 9979   2.874   6.136   2.861  0.0031  0.4708  0.2472
 3339TIP3   OH2 9980   1.493   3.926   2.686  0.3409  0.4590  0.0562
 3339TIP3    H1 9981   1.510   3.996   2.749 -1.5459 -0.3834  1.6254
 3339TIP3    H2 9982   1.403   3.941   2.658  0.8107  0.1973 -1.6775
 3340TIP3   OH2 9983   5.766   4.275   1.773  0.5088  0.3151  0.0150
 3340TIP3    H1 9984   5.782   4.368   1.785  0.3506  0.1112  2.1166
 3340TIP3    H2 9985   5.851   4.240   1.745  0.4717  1.1135 -1.1732
 3341TIP3   OH2 9986   1.653   1.942   4.087 -0.0081 -0.5899 -0.4797
 3341TIP3    H1 9987   1.569   1.928   4.043 -0.3327 -0.6397  0.1463
 3341TIP3    H2 9988   1.716   1.953   4.015 -0.9359  2.0438 -1.0258
 3342TIP3   OH2 9989   2.342   4.686   5.306  0.3359  0.4171  0.3694
 3342TIP3    H1 9990   2.404   4.614   5.310  1.1004  1.1161  1.5973
 3342TIP3    H2 9991   2.257   4.645   5.324  0.7212 -0.2355  0.7501
 3343TIP3   OH2 9992   3.351   0.526   0.195  0.1311 -0.2372 -0.5330
 3343TIP3    H1 9993   3.436   0.513   0.154  0.1520 -1.1133 -0.2333
 3343TIP3    H2 9994   3.353   0.471   0.274 -0.8726 -0.6519 -0.7755
 3344TIP3   OH2 9995   6.337   3.945   1.434  0.1216 -0.1342 -0.1388
 3344TIP3    H1 9996   6.421   3.990   1.441 -0.1262  0.7536 -2.2585
 3344TIP3    H2 9997   6.307   3.964   1.345 -2.3987 -0.2864  0.6123
 3345TIP3   OH2 9998   4.331   4.574   3.969  0.6521 -0.2269  0.1765
 3345TIP3    H1 9999   4.370   4.636   4.030 -0.0360  0.8645 -0.4572
 3345TIP3    H210000   4.288   4.509   4.024  1.5023 -0.2181  0.8538
 3346TIP3   OH210001   0.914   0.588   3.646  0.3803  0.5658 -0.3841
 3346TIP3    H110002   0.999   0.547   3.665  0.4801  1.2257  0.6683
 3346TIP3    H210003   0.918   0.673   3.691 -0.7328  0.7172 -0.5563
 3347TIP3   OH210004   4.346   4.083   4.196 -0.4566 -0.0699  0.3232
 3347TIP3    H110005   4.345   4.011   4.133 -1.1539 -1.2560  1.6390
 3347TIP3    H210006   4.438   4.089   4.225 -0.1560  0.4108 -0.6822
 3348TIP3   OH210007   1.075   1.679   3.800 -0.0115 -0.4549  0.6909
 3348TIP3    H110008   1.033   1.716   3.878  0.2621  0.6827  0.3139
 3348TIP3    H210009   1.151   1.632   3.834  0.9420  1.2712  1.0051
 3349TIP3   OH210010   4.520   2.014   3.671 -0.1759  0.2231  0.1379
 3349TIP3    H110011   4.473   1.964   3.739 -0.8950  1.6337  0.7126
 3349TIP3    H210012   4.451   2.052   3.618  0.3322  1.4095  0.3057
 3350TIP3   OH210013   5.385   6.395   2.897  0.0691  0.4000  0.2727
 3350TIP3    H110014   5.364   6.438   2.814  1.0756  0.8971  0.2569
 3350TIP3    H210015   5.315   6.330   2.909  0.3675 -0.2756 -1.3745
 3351TIP3   OH210016   2.883   5.118   4.457  0.2241  0.1646  0.3924
 3351TIP3    H110017   2.976   5.134   4.439  0.3678  1.2835  1.8911
 3351TIP3    H210018   2.847   5.205   4.475 -1.4364 -0.0808 -1.4046
 3352TIP3   OH210019   4.747   4.470   0.234 -0.5112  0.1077 -0.4232
 3352TIP3    H110020   4.754   4.463   0.329 -1.5269  0.6168 -0.2948
 3352TIP3    H210021   4.826   4.429   0.201 -1.5208 -2.8782  0.5528
 3353TIP3   OH210022   5.653   2.584   4.816  0.2342  0.3037  0.4194
 3353TIP3    H110023   5.597   2.538   4.879  0.4430  1.5753  1.5534
 3353TIP3    H210024   5.650   2.675   4.843  1.2355  0.7023 -0.7515
 3354TIP3   OH210025   5.569   6.617   2.514  0.3255  0.2317 -0.0227
 3354TIP3    H110026   5.590   6.531   2.551 -0.5849  0.0777  0.1409
 3354TIP3    H210027   5.615   6.679   2.570 -1.1055  0.0148  1.4652
 3355TIP3   OH210028   6.907   5.270   2.883 -0.0970  0.0037  0.9303
 3355TIP3    H110029   6.914   5.345   2.943  0.6253  1.3743 -0.7853
 3355TIP3    H210030   6.977   5.211   2.911  1.4130  1.4600  0.3772
 3356TIP3   OH210031   4.816   4.687   2.037  0.0273  0.3454 -0.0497
 3356TIP3    H110032   4.739   4.680   1.982  1.2180 -1.7787 -1.5792
 3356TIP3    H210033   4.803   4.768   2.087 -3.2061 -0.0113 -0.1195
 3357TIP3   OH210034   6.925   1.884   1.606  0.0871  0.5967  0.8070
 3357TIP3    H110035   6.974   1.899   1.525 -0.0391  0.2540  0.6672
 3357TIP3    H210036   6.912   1.790   1.609 -1.6299  0.7703  0.2151
 3358TIP3   OH210037   0.891   4.830   4.149 -0.2226 -0.2928 -0.3312
 3358TIP3    H110038   0.942   4.910   4.162 -2.0416  0.8621  0.0676
 3358TIP3    H210039   0.828   4.852   4.081  0.9214 -2.2861 -2.1707
 3359TIP3   OH210040   3.595   5.891   0.716  0.1061  0.0004  0.5491
 3359TIP3    H110041   3.580   5.797   0.721 -0.6091  0.1108  0.6117
 3359TIP3    H210042   3.514   5.930   0.750 -0.3700  0.6453 -1.2046
 3360TIP3   OH210043   0.682   4.097   1.588 -0.1401 -0.1913 -0.8527
 3360TIP3    H110044   0.720   4.181   1.564 -0.1534  0.6069  1.6035
 3360TIP3    H210045   0.753   4.049   1.631 -0.9271 -0.1096  0.6098
 3361TIP3   OH210046   0.843   5.567   1.953  0.5138  0.3110  0.3835
 3361TIP3    H110047   0.926   5.588   1.910 -0.0784  0.2979 -0.8064
 3361TIP3    H210048   0.814   5.649   1.993  0.9271  0.3937  0.5158
 3362TIP3   OH210049   1.392   3.393   4.360  1.0646  0.7342  0.0984
 3362TIP3    H110050   1.300   3.411   4.339  0.2460 -1.8152  1.1313
 3362TIP3    H210051   1.402   3.424   4.450  0.8662 -0.0282  0.3892
 3363TIP3   OH210052   1.893   3.891   1.299 -0.0743  0.4603 -0.0746
 3363TIP3    H110053   1.970   3.908   1.245 -1.2724  0.0714 -1.9744
 3363TIP3    H210054   1.909   3.941   1.379  2.1940  0.2973 -0.3492
 3364TIP3   OH210055   0.815   1.234   5.800  0.4812  0.6711 -0.3354
 3364TIP3    H110056   0.748   1.228   5.868  0.4329  0.6974 -0.3805
 3364TIP3    H210057   0.851   1.146   5.793  0.6404  0.7176 -0.1191
 3365TIP3   OH210058   6.782   0.161   5.445 -0.5372  0.0465 -0.1799
 3365TIP3    H110059   6.716   0.155   5.514 -1.5901  1.5563 -0.9936
 3365TIP3    H210060   6.859   0.199   5.489 -0.9630  0.3699  0.2978
 3366TIP3   OH210061   6.799   2.057   1.010  0.2455 -0.4171  0.0857
 3366TIP3    H110062   6.841   1.976   1.040 -0.1173 -0.7577 -0.3112
 3366TIP3    H210063   6.868   2.103   0.961  0.5576 -0.3106  0.6220
 3367TIP3   OH210064   5.139   1.756   3.915  0.6979  0.2743  0.0045
 3367TIP3    H110065   5.219   1.787   3.957  0.4261  2.0374 -0.6925
 3367TIP3    H210066   5.161   1.667   3.886  2.3015  0.5970  0.0961
 3368TIP3   OH210067   0.536   4.896   5.444 -0.2924 -0.1495  0.2764
 3368TIP3    H110068   0.631   4.883   5.445 -0.3032 -0.2286  1.0450
 3368TIP3    H210069   0.504   4.838   5.375  0.2645  0.2390 -0.3233
 3369TIP3   OH210070   3.262   1.682   2.553 -0.2335 -0.2753 -0.3099
 3369TIP3    H110071   3.197   1.718   2.492 -0.5080 -2.1612 -1.1962
 3369TIP3    H210072   3.301   1.609   2.505  1.5005 -0.1026  0.7815
 3370TIP3   OH210073   5.047   1.056   5.192  0.4810 -0.7363  0.4290
 3370TIP3    H110074   5.047   1.145   5.157 -3.1982 -0.5025  0.6228
 3370TIP3    H210075   5.037   0.999   5.116  2.2347 -1.0090  0.3607
 3371TIP3   OH210076   4.382   2.805   3.704  0.0769  0.1004 -0.3869
 3371TIP3    H110077   4.439   2.794   3.628  1.2352 -1.6230  0.6724
 3371TIP3    H210078   4.314   2.739   3.693 -0.2360  0.4094 -0.3324
 3372TIP3   OH210079   5.669   2.796   3.940  0.7777  0.0419  0.5658
 3372TIP3    H110080   5.704   2.718   3.898  1.7795  1.0351 -0.4945
 3372TIP3    H210081   5.712   2.870   3.896 -1.2679  1.2629  0.4823
 3373TIP3   OH210082   2.760   6.501   4.706  0.5738  0.7326  0.2014
 3373TIP3    H110083   2.717   6.423   4.741  0.4982  1.0854  0.9036
 3373TIP3    H210084   2.716   6.517   4.622  0.0406  0.4974  0.4337
 3374TIP3   OH210085   0.323   1.925   5.257  0.2181  0.6215 -0.1104
 3374TIP3    H110086   0.356   1.995   5.200 -0.2072 -0.5023 -1.8399
 3374TIP3    H210087   0.272   1.971   5.323  1.6542  2.0801  0.0711
 3375TIP3   OH210088   2.828   3.424   4.438 -0.5101 -0.0557 -0.7021
 3375TIP3    H110089   2.811   3.456   4.526  1.3528 -0.2648 -0.2252
 3375TIP3    H210090   2.748   3.445   4.388 -1.4641  0.3330  0.9322
 3376TIP3   OH210091   4.435   5.383   2.620 -0.0461 -0.2076  0.1354
 3376TIP3    H110092   4.458   5.473   2.640 -0.0343 -0.5057  1.5970
 3376TIP3    H210093   4.359   5.365   2.676 -0.2421 -1.0127 -0.3669
 3377TIP3   OH210094   3.247   5.554   2.589 -0.0281  0.8977 -0.4740
 3377TIP3    H110095   3.222   5.594   2.506  2.6963  0.1951 -1.7134
 3377TIP3    H210096   3.297   5.622   2.634  0.1183  0.6449 -0.2508
 3378TIP3   OH210097   5.921   3.703   5.109  0.8722  0.6336 -0.1547
 3378TIP3    H110098   5.923   3.621   5.059 -1.3808  1.0253 -0.9873
 3378TIP3    H210099   6.013   3.724   5.124  1.5275 -1.6820 -0.5014
 3379TIP3   OH210100   3.639   2.686   1.309  0.4761 -0.9341 -0.0466
 3379TIP3    H110101   3.711   2.734   1.268  0.0061  1.0195  1.2646
 3379TIP3    H210102   3.634   2.604   1.260  1.9163 -0.0395 -1.8290
 3380TIP3   OH210103   3.003   1.088   1.332 -0.0613  0.5972  0.4969
 3380TIP3    H110104   2.925   1.105   1.385  0.8685  3.3539  1.1645
 3380TIP3    H210105   2.969   1.056   1.248 -1.7720 -0.0559  1.3934
 3381TIP3   OH210106   4.590   2.429   3.805  0.1529 -0.2015 -0.2499
 3381TIP3    H110107   4.559   2.355   3.857  3.1186 -2.2619 -1.1684
 3381TIP3    H210108   4.574   2.404   3.714  1.8881 -0.1321 -0.6124
 3382TIP3   OH210109   5.061   5.806   5.309  0.2444 -0.0644 -0.2142
 3382TIP3    H110110   5.034   5.868   5.377 -1.1207 -0.1940 -0.6064
 3382TIP3    H210111   5.047   5.720   5.349  0.9688 -0.1386 -0.1061
 3383TIP3   OH210112   4.326   4.143   1.472 -0.1535  0.2629 -0.4605
 3383TIP3    H110113   4.403   4.088   1.481 -0.6042 -0.4941 -1.0803
 3383TIP3    H210114   4.354   4.229   1.503  0.9546  0.0215 -0.7379
 3384TIP3   OH210115   5.286   5.517   1.235  0.1525  0.2159 -0.2694
 3384TIP3    H110116   5.341   5.595   1.243  1.0939 -0.5011  0.4523
 3384TIP3    H210117   5.251   5.504   1.324  0.8571 -0.7877 -0.1308
 3385TIP3   OH210118   6.739   5.793   1.662  0.1765 -0.4354  0.5383
 3385TIP3    H110119   6.686   5.852   1.609  2.0040  0.4222 -0.4322
 3385TIP3    H210120   6.683   5.717   1.678 -2.2684  1.4747  1.8020
 3386TIP3   OH210121   4.078   1.163   1.504  0.3721  0.2277 -0.3973
 3386TIP3    H110122   4.061   1.216   1.582 -0.3558 -1.1040  0.3833
 3386TIP3    H210123   4.169   1.181   1.482  0.6629  0.4520  0.9046
 3387TIP3   OH210124   1.183   5.546   2.511  0.2449  0.4807 -0.0046
 3387TIP3    H110125   1.102   5.526   2.558  0.1841  0.9273  0.0859
 3387TIP3    H210126   1.248   5.558   2.581 -0.0380  2.0151  0.0224
 3388TIP3   OH210127   5.329   5.271   0.547 -0.0539  0.0733  0.0710
 3388TIP3    H110128   5.298   5.225   0.625  0.3172 -0.6483 -0.1989
 3388TIP3    H210129   5.262   5.254   0.480  0.2481 -0.3670 -0.1255
 3389TIP3   OH210130   2.700   6.251   0.172 -0.2074 -0.6492 -0.5224
 3389TIP3    H110131   2.622   6.203   0.144 -1.3545  0.1844  1.0645
 3389TIP3    H210132   2.671   6.342   0.179  1.1950 -0.1421 -0.8562
 3390TIP3   OH210133   1.028   0.220   4.722  1.0740  0.4353  0.2546
 3390TIP3    H110134   1.001   0.284   4.788  0.2867  1.0629 -0.6347
 3390TIP3    H210135   1.006   0.135   4.760  0.5749  0.7912  0.7753
 3391TIP3   OH210136   2.110   4.526   5.379  0.0614  0.1487 -0.2687
 3391TIP3    H110137   2.052   4.518   5.455 -1.1215 -1.0785 -1.2558
 3391TIP3    H210138   2.140   4.437   5.362 -0.4183  0.2476 -1.7783
 3392TIP3   OH210139   3.887   5.066   4.782  0.1895 -0.0821 -0.4237
 3392TIP3    H110140   3.804   5.102   4.811 -0.2024 -1.7986  0.7141
 3392TIP3    H210141   3.863   5.001   4.715  0.7167  0.2104 -0.9101
 3393TIP3   OH210142   5.954   6.104   4.587  0.1080 -0.4654 -0.4615
 3393TIP3    H110143   5.944   6.151   4.669 -0.8386  0.5999 -1.1560
 3393TIP3    H210144   6.036   6.056   4.596  1.2603  1.5491  0.1740
 3394TIP3   OH210145   2.611   5.084   3.194 -0.2324  0.0742  0.2585
 3394TIP3    H110146   2.674   5.013   3.205  0.5245  0.9713  2.0486
 3394TIP3    H210147   2.526   5.041   3.200  0.1327 -1.1886 -2.4555
 3395TIP3   OH210148   2.523   2.506   1.240  0.6780  0.3109 -0.6225
 3395TIP3    H110149   2.612   2.509   1.275  0.4690 -1.2837  0.1659
 3395TIP3    H210150   2.472   2.564   1.297  0.9519  0.1426 -0.2023
 3396TIP3   OH210151   6.818   5.170   1.622  0.0152  0.5432  0.0896
 3396TIP3    H110152   6.779   5.157   1.709 -0.9585  1.9504 -0.0926
 3396TIP3    H210153   6.746   5.156   1.561  0.1173  1.7347 -0.3445
 3397TIP3   OH210154   4.962   3.448   1.553 -0.0863 -0.5114 -0.1966
 3397TIP3    H110155   4.873   3.481   1.544 -1.0457 -2.9007 -0.1389
 3397TIP3    H210156   4.998   3.495   1.629 -1.4371  0.1574  0.0575
 3398TIP3   OH210157   5.258   3.124   2.406  0.5226  0.4794 -0.0415
 3398TIP3    H110158   5.256   3.205   2.356  2.2243  0.8521  0.4154
 3398TIP3    H210159   5.186   3.133   2.469  1.3306  2.1452  0.7117
 3399TIP3   OH210160   4.276   0.189   3.888  0.5371 -0.3953  0.0158
 3399TIP3    H110161   4.201   0.224   3.839 -1.1230  1.4665  3.5099
 3399TIP3    H210162   4.318   0.129   3.827 -1.8596  0.9407 -3.2726
 3400TIP3   OH210163   3.673   5.467   2.049 -0.8122  0.3339 -0.2827
 3400TIP3    H110164   3.592   5.429   2.082  0.2005 -2.7498 -1.0063
 3400TIP3    H210165   3.702   5.527   2.118 -2.3989 -0.4592  1.1308
 3401TIP3   OH210166   6.441   6.270   3.138 -0.0357 -0.4371  0.5241
 3401TIP3    H110167   6.528   6.308   3.150 -0.7212  0.5568  2.9168
 3401TIP3    H210168   6.454   6.176   3.143  0.7876 -0.2641  2.0908
 3402TIP3   OH210169   0.356   1.632   3.828 -0.3829 -0.0729 -0.1292
 3402TIP3    H110170   0.419   1.564   3.804 -0.4390 -0.4825  0.8254
 3402TIP3    H210171   0.395   1.713   3.795  1.3390 -0.1323  1.5985
 3403TIP3   OH210172   4.174   5.761   3.827  0.7207 -0.0233 -0.0643
 3403TIP3    H110173   4.175   5.710   3.746  2.2772 -0.9098  0.4622
 3403TIP3    H210174   4.236   5.833   3.810  1.3345 -0.4235  0.4462
 3404TIP3   OH210175   2.529   4.372   3.569  0.0549  0.1837  0.1140
 3404TIP3    H110176   2.468   4.426   3.519  1.1032  0.8008 -0.5490
 3404TIP3    H210177   2.484   4.289   3.581 -1.2336  0.8942  0.3694
 3405TIP3   OH210178   5.449   1.744   0.061 -0.4693 -0.2031 -0.5319
 3405TIP3    H110179   5.419   1.692  -0.013 -2.8223  0.0469  0.1526
 3405TIP3    H210180   5.416   1.697   0.138 -1.3460  1.4582  0.1588
 3406TIP3   OH210181   3.619   0.685   1.740 -0.3574  0.0855  0.4431
 3406TIP3    H110182   3.685   0.616   1.737 -0.3331  0.1258 -0.3379
 3406TIP3    H210183   3.669   0.766   1.750 -0.4814 -0.1190  3.5245
 3407TIP3   OH210184   0.942   2.483   5.813 -0.1836  0.0416 -0.5688
 3407TIP3    H110185   0.961   2.538   5.889 -1.1255 -0.3827  0.0013
 3407TIP3    H210186   0.847   2.492   5.801 -0.6632 -2.5948  0.5113
 3408TIP3   OH210187   6.586   3.791   5.642  0.2895  0.6251  0.2124
 3408TIP3    H110188   6.666   3.805   5.591 -0.0093 -0.2630 -0.5352
 3408TIP3    H210189   6.603   3.710   5.691  0.1383  0.8534  0.6474
 3409TIP3   OH210190   5.787   6.515   2.852 -0.2522  0.2234  0.2384
 3409TIP3    H110191   5.844   6.446   2.887 -0.5872  0.9769  2.4281
 3409TIP3    H210192   5.756   6.481   2.768 -0.3977 -2.3066  1.2356
 3410TIP3   OH210193   5.635   4.848   5.219  0.3379 -0.1787  0.0964
 3410TIP3    H110194   5.578   4.835   5.295 -2.6633  0.5559 -1.8279
 3410TIP3    H210195   5.658   4.941   5.223  2.3216 -0.6679  1.3746
 3411TIP3   OH210196   3.472   0.131   2.053 -0.2173  0.1707  0.3087
 3411TIP3    H110197   3.532   0.108   1.982  0.3010  0.9894  0.4720
 3411TIP3    H210198   3.525   0.123   2.132  0.3321  2.9155  0.3066
 3412TIP3   OH210199   4.031   2.545   2.029 -0.1703  0.0784  0.3117
 3412TIP3    H110200   4.015   2.617   2.089  2.9018  0.3402  0.9795
 3412TIP3    H210201   4.096   2.578   1.967  1.0068 -1.9377  0.3712
 3413TIP3   OH210202   3.485   3.431   2.451  0.0863  0.0044  0.3680
 3413TIP3    H110203   3.478   3.514   2.498 -0.8198  0.2178 -0.1237
 3413TIP3    H210204   3.397   3.415   2.416  1.0161  0.6481 -2.5831
 3414TIP3   OH210205   6.200   3.968   0.092  0.0356 -0.2657  0.2596
 3414TIP3    H110206   6.142   4.043   0.108 -1.7250 -1.5446  0.2211
 3414TIP3    H210207   6.150   3.892   0.123  1.1583 -1.5974 -1.0337
 3415TIP3   OH210208   2.523   2.819   5.218 -0.0322 -0.1156 -0.3972
 3415TIP3    H110209   2.478   2.902   5.205  0.9395  0.1787 -2.2533
 3415TIP3    H210210   2.466   2.769   5.276 -1.0604  1.5089  0.0407
 3416TIP3   OH210211   4.669   5.110   5.537  0.2230 -0.4455  0.1894
 3416TIP3    H110212   4.622   5.090   5.618 -0.2272  3.6478  1.1583
 3416TIP3    H210213   4.603   5.100   5.468 -0.1158 -1.3712  0.6265
 3417TIP3   OH210214   3.825   0.084   3.181 -0.4824 -0.2850 -0.3551
 3417TIP3    H110215   3.763   0.094   3.253  1.6035 -0.4051  1.5617
 3417TIP3    H210216   3.806   0.157   3.122 -0.3756  1.6109  1.8295
 3418TIP3   OH210217   3.185   5.596   5.661 -0.2662 -0.0961  0.5128
 3418TIP3    H110218   3.102   5.572   5.703 -0.8519  1.7532  0.5043
 3418TIP3    H210219   3.193   5.536   5.587 -0.9399 -1.1499  1.2632
 3419TIP3   OH210220   4.986   2.389   0.992  0.1048  0.0348  0.0598
 3419TIP3    H110221   5.067   2.426   0.957  1.5758 -1.9784  1.0936
 3419TIP3    H210222   4.947   2.459   1.044  1.4741  0.8875 -0.0272
 3420TIP3   OH210223   3.507   3.307   2.028  0.3872  0.0684 -0.2573
 3420TIP3    H110224   3.454   3.230   2.051  1.2993 -0.8384 -1.0583
 3420TIP3    H210225   3.468   3.379   2.078 -1.3015 -0.6431 -0.4639
 3421TIP3   OH210226   4.432   0.387   3.162 -0.3982 -0.1605 -0.2810
 3421TIP3    H110227   4.385   0.324   3.107 -0.7748  1.7402 -2.2965
 3421TIP3    H210228   4.524   0.363   3.153 -0.5590 -0.6082 -0.7753
 3422TIP3   OH210229   6.068   3.206   2.498  0.2815 -0.4961  0.0332
 3422TIP3    H110230   6.163   3.218   2.493  0.7610 -3.2402  0.7540
 3422TIP3    H210231   6.046   3.224   2.589 -0.0187  0.6932 -0.2595
 3423TIP3   OH210232   2.361   5.216   2.227 -0.6293  0.9252  0.5441
 3423TIP3    H110233   2.372   5.289   2.288  1.4808  1.0534  0.0719
 3423TIP3    H210234   2.439   5.219   2.171 -0.6810 -1.4378  0.2436
 3424TIP3   OH210235   5.924   0.598   2.012  0.1170 -0.5570 -0.2255
 3424TIP3    H110236   5.964   0.511   2.024 -0.2623 -0.9279 -1.5017
 3424TIP3    H210237   5.929   0.613   1.918  0.2956  0.8848 -0.0008
 3425TIP3   OH210238   6.231   3.910   2.933  0.5599 -0.6953  0.0225
 3425TIP3    H110239   6.152   3.919   2.879  1.1687 -2.5954 -1.2884
 3425TIP3    H210240   6.198   3.906   3.023 -0.6689  0.2171 -0.3590
 3426TIP3   OH210241   2.364   4.187   4.328  0.2622  0.3495  0.0190
 3426TIP3    H110242   2.315   4.239   4.393  2.9936  3.6406 -0.2848
 3426TIP3    H210243   2.415   4.125   4.380 -1.0227 -0.2683  0.5954
 3427TIP3   OH210244   0.382   5.041   5.073  0.4548 -0.4605 -0.2269
 3427TIP3    H110245   0.336   5.116   5.113 -0.1622 -1.1341  0.3531
 3427TIP3    H210246   0.474   5.069   5.070  0.1251  0.6479 -0.7833
 3428TIP3   OH210247   1.771   1.788   0.566 -0.2176 -0.5252  0.4337
 3428TIP3    H110248   1.767   1.780   0.661 -0.8779 -0.5938  0.4029
 3428TIP3    H210249   1.768   1.698   0.534 -1.3822 -0.4481  0.3035
 3429TIP3   OH210250   4.210   5.277   0.118  0.1117  0.6448 -0.6917
 3429TIP3    H110251   4.155   5.334   0.064 -1.2775  0.9095  0.9239
 3429TIP3    H210252   4.161   5.195   0.125  0.7794  0.2380 -0.7062
 3430TIP3   OH210253   5.438   2.634   1.863 -0.5221 -0.1992  0.3302
 3430TIP3    H110254   5.448   2.540   1.845 -0.9965  0.2477 -2.6851
 3430TIP3    H210255   5.493   2.677   1.799 -1.2161  1.6354  0.9087
 3431TIP3   OH210256   5.651   4.526   0.303  0.4068 -0.2423 -0.7860
 3431TIP3    H110257   5.557   4.519   0.316  0.2284  0.2683 -1.7048
 3431TIP3    H210258   5.684   4.566   0.384 -0.1474 -0.4982 -0.4275
 3432TIP3   OH210259   6.495  -0.008   3.157  0.1683  0.1013 -0.1877
 3432TIP3    H110260   6.543   0.072   3.176 -0.3850  0.3590  0.1503
 3432TIP3    H210261   6.457   0.007   3.070  1.0209 -0.2698 -0.6440
 3433TIP3   OH210262   0.902   5.530   3.571 -0.7550 -0.6693  0.6898
 3433TIP3    H110263   0.808   5.541   3.556 -0.7142 -0.3624  0.6580
 3433TIP3    H210264   0.910   5.511   3.664 -0.8828 -1.0963  0.6161
 3434TIP3   OH210265   3.295   6.527   5.584 -0.0148  0.5971  0.1526
 3434TIP3    H110266   3.301   6.492   5.673  0.0412 -1.6593 -0.6764
 3434TIP3    H210267   3.269   6.618   5.596 -1.7662 -0.1086  2.4212
 3435TIP3   OH210268   0.666   6.049   5.714 -0.0921  0.0390 -0.0648
 3435TIP3    H110269   0.760   6.033   5.724  0.2008  1.5777 -0.0793
 3435TIP3    H210270   0.645   6.111   5.784 -1.2542 -0.7936  0.3598
 3436TIP3   OH210271   1.631   3.863   2.443 -0.1992  0.0757  0.1098
 3436TIP3    H110272   1.659   3.774   2.422 -0.5618  0.1083 -0.5647
 3436TIP3    H210273   1.584   3.855   2.526  0.8001 -0.1594  0.6624
 3437TIP3   OH210274   4.122   2.766   5.861 -0.3812  0.1723 -0.1317
 3437TIP3    H110275   4.039   2.810   5.878  0.4357  1.7031  0.1778
 3437TIP3    H210276   4.142   2.788   5.770  0.0501  0.4787  0.0335
 3438TIP3   OH210277   5.102   2.226   2.657 -0.2174  0.1692  0.0425
 3438TIP3    H110278   5.009   2.233   2.681  0.2144  1.8717  1.3624
 3438TIP3    H210279   5.124   2.134   2.673 -1.1292  0.2238  1.9006
 3439TIP3   OH210280   2.468   3.462   2.599 -0.1616  0.2415  0.2555
 3439TIP3    H110281   2.496   3.478   2.689 -1.0396 -0.2472  0.6358
 3439TIP3    H210282   2.549   3.460   2.548  0.2618  1.7012  0.8362
 3440TIP3   OH210283   0.657   3.260   4.683  0.1817  0.1311 -0.2496
 3440TIP3    H110284   0.668   3.167   4.704  1.3652  0.4399  0.5842
 3440TIP3    H210285   0.655   3.304   4.768 -0.6795  0.8501 -0.6249
 3441TIP3   OH210286   6.240   6.475   3.938  0.1332  0.0453 -0.5424
 3441TIP3    H110287   6.221   6.404   4.000  0.1641  1.8735  1.7014
 3441TIP3    H210288   6.173   6.541   3.956  1.0858  1.2780 -1.3644
 3442TIP3   OH210289   7.007   1.572   3.929 -0.1954  0.1500 -0.0156
 3442TIP3    H110290   7.032   1.565   3.837  0.1440  0.2550  0.0663
 3442TIP3    H210291   6.988   1.665   3.941  1.1249  0.3918  0.3577
 3443TIP3   OH210292   3.968   1.058   1.748  0.0924 -0.3520  0.4587
 3443TIP3    H110293   4.038   1.106   1.705 -0.4880  0.0863 -0.0160
 3443TIP3    H210294   4.010   0.979   1.783  1.0199  0.4164  1.1069
 3444TIP3   OH210295   2.136   2.792   1.520 -0.4116 -0.2213 -0.0419
 3444TIP3    H110296   2.159   2.852   1.591 -0.9080 -0.4521  0.3235
 3444TIP3    H210297   2.040   2.791   1.520 -0.4299 -1.7847  0.6364
 3445TIP3   OH210298   2.043   1.172   4.316 -0.3663 -0.0834  0.0076
 3445TIP3    H110299   1.961   1.122   4.323 -1.3405  1.4846  0.3989
 3445TIP3    H210300   2.021   1.258   4.353  1.5581  0.2750  0.4107
 3446TIP3   OH210301   2.693   3.191   2.950  0.1954 -0.1289 -0.5764
 3446TIP3    H110302   2.663   3.282   2.941 -0.1885 -0.1745  0.1779
 3446TIP3    H210303   2.787   3.200   2.968 -0.3109  0.3119  2.4075
 3447TIP3   OH210304   4.292   6.405   2.537 -0.4104  0.3134 -0.6191
 3447TIP3    H110305   4.320   6.314   2.524  0.0086  0.4152 -0.4472
 3447TIP3    H210306   4.343   6.454   2.472 -0.0931  0.5153 -0.2215
 3448TIP3   OH210307   2.554   2.157   5.684 -0.2137 -0.0130  0.3333
 3448TIP3    H110308   2.637   2.162   5.636 -0.0766  2.1832  0.6945
 3448TIP3    H210309   2.502   2.230   5.651 -2.0118 -1.3043  0.1703
 3449TIP3   OH210310   4.580   6.730   0.917  0.4263 -0.4671 -0.0334
 3449TIP3    H110311   4.635   6.780   0.977 -0.2713  0.2683  0.0093
 3449TIP3    H210312   4.641   6.698   0.850  0.9501  0.1240  0.1496
 3450TIP3   OH210313   1.929   4.219   0.075  0.4188  0.2745 -0.2041
 3450TIP3    H110314   1.932   4.161   0.151 -0.3458 -2.7245 -2.2565
 3450TIP3    H210315   2.020   4.226   0.046  0.5625  0.4388  0.2844
 3451TIP3   OH210316   4.472   2.853   4.464  0.8773 -0.4061  0.1000
 3451TIP3    H110317   4.410   2.915   4.502  0.8140  0.3577 -1.2268
 3451TIP3    H210318   4.424   2.812   4.392  0.9839 -1.8777  0.8323
 3452TIP3   OH210319   2.780   1.723   3.372  0.2061 -0.1417  0.8192
 3452TIP3    H110320   2.686   1.707   3.360  0.0194  0.8551  0.8754
 3452TIP3    H210321   2.791   1.817   3.356  1.1675 -0.2099  1.0072
 3453TIP3   OH210322   0.269   4.583   5.770 -0.0375  0.4033  0.0083
 3453TIP3    H110323   0.271   4.678   5.775  1.1360  0.4652 -1.0920
 3453TIP3    H210324   0.301   4.562   5.682 -0.2703 -1.0086  0.2224
 3454TIP3   OH210325   2.074   1.231   2.281  0.3640  0.2740  0.1783
 3454TIP3    H110326   2.094   1.152   2.333 -1.2100  0.2186  0.7577
 3454TIP3    H210327   1.991   1.211   2.238  0.4845  1.2261 -0.5220
 3455TIP3   OH210328   2.426   2.646   4.683 -0.6531  0.0571  0.6841
 3455TIP3    H110329   2.453   2.601   4.762 -0.5421  0.9033  1.1420
 3455TIP3    H210330   2.506   2.685   4.648 -0.7647  0.0109  0.3728
 3456TIP3   OH210331   1.700   5.847   3.816 -0.2078  0.1955 -0.7405
 3456TIP3    H110332   1.738   5.789   3.750 -0.3119  1.1835 -1.6989
 3456TIP3    H210333   1.734   5.934   3.794 -2.4678  1.0107 -1.2122
 3457TIP3   OH210334   0.796   0.290   4.336  0.2481 -0.0679 -0.3279
 3457TIP3    H110335   0.807   0.241   4.255  0.0855 -1.1793  0.3039
 3457TIP3    H210336   0.869   0.262   4.391 -0.8547 -1.0341  0.7219
 3458TIP3   OH210337  -0.013   4.118   5.752 -0.1166 -0.0332  0.0416
 3458TIP3    H110338   0.020   4.092   5.838 -1.8718  1.1093  1.1300
 3458TIP3    H210339   0.048   4.185   5.722  0.4064 -0.2981  0.5037
 3459TIP3   OH210340   3.304   4.392   0.831 -0.3929 -0.4261  0.6517
 3459TIP3    H110341   3.353   4.322   0.787  0.3583  0.6296 -0.2562
 3459TIP3    H210342   3.371   4.457   0.854 -1.0540 -0.0616  1.5844
 3460TIP3   OH210343   3.352   4.892   5.581  0.4511  1.1330 -0.0462
 3460TIP3    H110344   3.331   4.805   5.616  0.5983  0.9425 -0.4272
 3460TIP3    H210345   3.274   4.945   5.601  0.5671  1.0580  0.6504
 3461TIP3   OH210346   4.838   4.599   3.519  0.1777  0.2427  0.6075
 3461TIP3    H110347   4.820   4.513   3.480 -0.7839  0.7591 -0.1358
 3461TIP3    H210348   4.780   4.604   3.595 -0.4621  0.5871  0.1124
 3462TIP3   OH210349   6.776   1.268   0.135 -0.6500  0.4056  0.0280
 3462TIP3    H110350   6.723   1.233   0.206  0.7858 -0.6806  0.6172
 3462TIP3    H210351   6.865   1.242   0.157 -0.0509  0.8929 -1.6836
 3463TIP3   OH210352   1.349   2.918   2.751  0.0892 -0.1388  0.5661
 3463TIP3    H110353   1.327   2.846   2.691 -0.1175  0.6349 -0.3044
 3463TIP3    H210354   1.355   2.995   2.694 -1.4396  0.8843  1.7211
 3464TIP3   OH210355   2.673   3.450   2.413  0.0211  0.1311 -0.2970
 3464TIP3    H110356   2.703   3.538   2.434 -0.7154  0.7849 -1.7916
 3464TIP3    H210357   2.752   3.402   2.391  0.4853  0.2432  1.0581
 3465TIP3   OH210358   1.382   6.019   0.328 -0.0613 -0.3566 -0.2731
 3465TIP3    H110359   1.411   5.929   0.313  2.1193  0.2111  0.2192
 3465TIP3    H210360   1.291   6.020   0.299  0.2893 -2.3585 -1.6434
 3466TIP3   OH210361   1.177   0.145   1.405 -0.0253 -0.3622  0.5278
 3466TIP3    H110362   1.212   0.227   1.438  1.2816 -0.3485 -0.7619
 3466TIP3    H210363   1.246   0.081   1.422  0.0881 -0.6331 -0.7732
 3467TIP3   OH210364   6.805   6.509   1.765  0.0115 -0.0918  0.3641
 3467TIP3    H110365   6.798   6.420   1.731  0.7405  0.1759 -0.5377
 3467TIP3    H210366   6.856   6.501   1.845  0.8116 -0.3844 -0.1684
 3468TIP3   OH210367   3.540   5.877   5.418  0.6347 -0.6822  0.1725
 3468TIP3    H110368   3.546   5.861   5.324 -0.2457 -0.9837  0.1579
 3468TIP3    H210369   3.546   5.790   5.457 -0.1977 -0.6818  0.3188
 3469TIP3   OH210370   6.728   0.546   1.955 -0.1332 -0.3731 -0.3773
 3469TIP3    H110371   6.767   0.461   1.976 -0.2312  0.1202  2.1939
 3469TIP3    H210372   6.647   0.548   2.006 -0.4117  1.0374 -0.8402
 3470TIP3   OH210373   2.901   5.004   1.051 -0.8373  0.4242 -0.4962
 3470TIP3    H110374   2.977   4.964   1.009 -2.4820 -0.7769 -2.5318
 3470TIP3    H210375   2.881   5.080   0.998 -1.3499  0.4456 -0.2788
 3471TIP3   OH210376   1.629   5.927   1.693  0.3953 -0.0472  0.6457
 3471TIP3    H110377   1.646   5.893   1.605  2.8033 -1.3623  1.5438
 3471TIP3    H210378   1.543   5.893   1.716 -0.5628  0.8261 -1.3945
 3472TIP3   OH210379   6.491   1.275   0.431  0.1766 -0.2166 -0.1284
 3472TIP3    H110380   6.536   1.195   0.404  0.5239 -0.3718  0.8965
 3472TIP3    H210381   6.405   1.245   0.460  1.4089 -0.7203  3.4114
 3473TIP3   OH210382   1.141   1.252   4.024 -0.1518  0.2810  0.5247
 3473TIP3    H110383   1.237   1.246   4.022 -0.2578 -1.8631  0.1083
 3473TIP3    H210384   1.111   1.164   4.004 -2.2388  0.9860  0.3385
 3474TIP3   OH210385   5.762   3.032   3.778 -0.6093 -0.0821  0.0853
 3474TIP3    H110386   5.780   3.000   3.690 -2.7286 -1.6639  0.1426
 3474TIP3    H210387   5.687   3.091   3.767 -0.4030  0.3115  0.7387
 3475TIP3   OH210388   2.397   5.981   1.597  0.4141  0.5672  0.2997
 3475TIP3    H110389   2.343   6.059   1.584 -0.0596 -0.0958 -2.2687
 3475TIP3    H210390   2.463   5.985   1.528 -0.9170 -2.2816 -1.3321
 3476TIP3   OH210391   1.096   4.571   5.024 -0.0094  0.1326 -0.2664
 3476TIP3    H110392   1.025   4.588   5.086 -0.6445 -2.2141 -0.2616
 3476TIP3    H210393   1.175   4.591   5.073 -0.5543 -0.4640  0.9214
 3477TIP3   OH210394   0.882   1.352   1.242 -0.2572  0.3505 -0.0551
 3477TIP3    H110395   0.795   1.389   1.231 -0.2503  0.8667  1.4288
 3477TIP3    H210396   0.927   1.371   1.160 -2.1018 -1.5882 -1.6219
 3478TIP3   OH210397   3.031   2.037   4.466  0.0639 -0.1477  0.0591
 3478TIP3    H110398   3.045   1.992   4.383  1.0766 -0.7185  0.5304
 3478TIP3    H210399   3.068   1.979   4.533  2.2947  1.7551  0.6048
 3479TIP3   OH210400   5.955   0.366   0.258 -0.0986  0.8870  0.1098
 3479TIP3    H110401   5.970   0.346   0.350  2.9603 -0.6517 -0.6065
 3479TIP3    H210402   5.990   0.455   0.246 -0.6441  1.1500  0.4297
 3480TIP3   OH210403   4.382   6.601   4.926  0.0172 -0.7740  0.5012
 3480TIP3    H110404   4.439   6.670   4.961 -0.2209 -0.6897  0.7256
 3480TIP3    H210405   4.403   6.598   4.832 -0.7220  0.3324  0.2837
 3481TIP3   OH210406   6.248   1.820   3.529  0.0819 -0.4137  0.7401
 3481TIP3    H110407   6.158   1.788   3.532  0.1621 -0.6528  0.5918
 3481TIP3    H210408   6.285   1.780   3.451  0.8020 -1.6012  1.6586
 3482TIP3   OH210409   2.461   5.464   1.199  0.1308 -0.2044  0.4152
 3482TIP3    H110410   2.507   5.539   1.236  1.1318 -0.5611 -0.0715
 3482TIP3    H210411   2.458   5.400   1.271  2.5522 -1.1100 -0.1802
 3483TIP3   OH210412   6.657   1.815   4.083 -0.0142  0.0470 -0.0723
 3483TIP3    H110413   6.597   1.872   4.131  0.7696  0.2378  0.6962
 3483TIP3    H210414   6.743   1.852   4.099  0.6277 -1.8400  1.1444
 3484TIP3   OH210415   0.906   5.776   5.029 -0.3283  0.0996 -0.7010
 3484TIP3    H110416   0.883   5.688   4.997 -0.2924 -0.1420 -0.0809
 3484TIP3    H210417   0.823   5.824   5.030 -0.3077  0.1535 -1.2788
 3485TIP3   OH210418   0.327   1.471   2.322  0.4207 -0.0982 -0.4807
 3485TIP3    H110419   0.393   1.418   2.368  1.5786  1.6331 -0.0649
 3485TIP3    H210420   0.258   1.484   2.388 -1.3302 -3.3308 -1.4060
 3486TIP3   OH210421   0.458   3.751   3.860  0.1039 -0.0591  0.0488
 3486TIP3    H110422   0.448   3.658   3.840 -2.2268  0.1834 -0.2526
 3486TIP3    H210423   0.395   3.794   3.803  1.0438  1.7074  0.2849
 3487TIP3   OH210424   6.104   0.140   0.588  0.1856 -1.1385 -0.2520
 3487TIP3    H110425   6.085   0.233   0.588  1.0793 -0.9261  0.9842
 3487TIP3    H210426   6.022   0.098   0.614  0.3312 -0.5397  1.2201
 3488TIP3   OH210427   4.835   6.614   2.607  0.2829 -0.3096 -0.2071
 3488TIP3    H110428   4.879   6.582   2.685 -0.2296 -2.1249 -0.6181
 3488TIP3    H210429   4.749   6.645   2.637 -0.1572 -1.5809 -0.1169
 3489TIP3   OH210430   4.443   3.908   3.729 -0.1655 -0.5483  0.1253
 3489TIP3    H110431   4.445   3.992   3.683 -0.9806 -0.4733  0.2113
 3489TIP3    H210432   4.378   3.856   3.683  1.4007 -1.7257 -0.8829
 3490TIP3   OH210433   4.537   2.911   2.776 -0.0046  0.2962 -0.0004
 3490TIP3    H110434   4.503   2.832   2.816 -0.9806  0.4577 -0.4775
 3490TIP3    H210435   4.459   2.961   2.751  0.5861  0.9984 -0.4956
 3491TIP3   OH210436   6.005   5.781   0.900  0.0737  0.5700  0.1699
 3491TIP3    H110437   6.002   5.716   0.829 -0.4535  0.0678  0.6440
 3491TIP3    H210438   5.961   5.858   0.863 -0.1644  0.3231 -0.0700
 3492TIP3   OH210439   1.065   6.752   5.164 -0.8456  0.1382 -0.0026
 3492TIP3    H110440   1.000   6.817   5.189  0.1513  1.6419 -1.1246
 3492TIP3    H210441   1.122   6.745   5.240 -0.4627  1.2537 -0.1698
 3493TIP3   OH210442   6.753   1.402   2.865  0.1053 -0.2877  0.3974
 3493TIP3    H110443   6.693   1.430   2.795 -0.9884  0.0754  1.4564
 3493TIP3    H210444   6.773   1.483   2.912  1.0815 -0.4839  0.3364
 3494TIP3   OH210445   5.340   4.801   1.649  0.1463  0.0982  0.3930
 3494TIP3    H110446   5.263   4.830   1.698  0.4057  0.9453  0.3178
 3494TIP3    H210447   5.392   4.752   1.713 -0.3333 -0.2820  0.5049
 3495TIP3   OH210448   1.150   6.385   4.389 -0.2599  0.8454  0.0130
 3495TIP3    H110449   1.070   6.367   4.340 -0.7668 -0.7854  1.3431
 3495TIP3    H210450   1.221   6.362   4.329 -0.8051  0.9182 -0.6692
 3496TIP3   OH210451   4.493   5.295   1.916 -0.0026  0.8615  0.2612
 3496TIP3    H110452   4.585   5.297   1.945  1.1659 -0.5306 -2.9449
 3496TIP3    H210453   4.478   5.383   1.881  0.8778  0.4535 -1.2057
 3497TIP3   OH210454   5.453   4.973   4.476  0.0854  0.0203 -0.0685
 3497TIP3    H110455   5.519   4.948   4.411 -0.9099 -0.1799 -1.0278
 3497TIP3    H210456   5.472   5.064   4.496  1.2504 -0.3055  0.4182
 3498TIP3   OH210457   3.704   4.788   3.621  0.1309  0.0433  0.6990
 3498TIP3    H110458   3.771   4.769   3.555  0.5153  1.6056  0.5891
 3498TIP3    H210459   3.718   4.722   3.689  0.6080 -0.7640 -0.1598
 3499TIP3   OH210460   3.120   2.736   5.427 -0.5866 -0.3856  0.4081
 3499TIP3    H110461   3.051   2.670   5.435 -1.5352  0.1272 -2.4253
 3499TIP3    H210462   3.074   2.816   5.401  0.7310  0.9703  2.0331
 3500TIP3   OH210463   2.174   2.219   1.835 -0.2259  0.3244 -0.3052
 3500TIP3    H110464   2.152   2.126   1.841  0.0445  0.2597 -0.2960
 3500TIP3    H210465   2.099   2.264   1.873  0.6905  0.0004  2.0312
 3501TIP3   OH210466   2.089   3.529   0.758 -0.7628 -0.3350  0.3552
 3501TIP3    H110467   2.142   3.517   0.679 -1.8349 -1.2005 -0.2541
 3501TIP3    H210468   2.132   3.474   0.824 -0.3395 -0.2619  0.1443
 3502TIP3   OH210469   5.279   2.915   0.338 -0.4906 -0.4114 -0.2598
 3502TIP3    H110470   5.244   2.892   0.424 -1.6324 -0.2822 -0.6751
 3502TIP3    H210471   5.374   2.922   0.352 -0.6935 -0.0297  1.0568
 3503TIP3   OH210472   5.609   2.184   4.361 -0.1684  0.2815 -0.1004
 3503TIP3    H110473   5.642   2.117   4.301  1.4352 -0.1623  1.2073
 3503TIP3    H210474   5.609   2.264   4.309  0.0095 -0.3123 -1.0506
 3504TIP3   OH210475   0.269   2.549   3.952  0.0180 -0.7664 -0.5030
 3504TIP3    H110476   0.224   2.624   3.914 -0.6102 -1.0180 -0.2844
 3504TIP3    H210477   0.272   2.568   4.046 -0.3931 -1.1288 -0.4094
 3505TIP3   OH210478   1.528   3.660   0.766 -0.1125  0.1542 -0.3884
 3505TIP3    H110479   1.493   3.589   0.711  1.4819 -1.0877  0.1087
 3505TIP3    H210480   1.564   3.723   0.704  2.7125 -1.7757 -0.9094
 3506TIP3   OH210481   4.365   4.205   5.668  0.0158 -0.0221  0.1758
 3506TIP3    H110482   4.346   4.299   5.673 -2.3850 -0.2102 -2.7908
 3506TIP3    H210483   4.460   4.200   5.670  0.1890  2.2951  1.9665
 3507TIP3   OH210484   2.047   6.620   4.339 -0.7622  0.4722 -0.0137
 3507TIP3    H110485   2.035   6.555   4.270 -0.7345  0.6599 -0.1994
 3507TIP3    H210486   2.072   6.570   4.416  1.8412  0.4354 -0.7942
 3508TIP3   OH210487   6.080   2.545   2.338  0.6122 -0.2806 -0.0112
 3508TIP3    H110488   6.044   2.457   2.331 -0.3139  0.1626 -1.3925
 3508TIP3    H210489   6.109   2.566   2.249 -0.2616  1.2249  0.0205
 3509TIP3   OH210490   3.640   0.348   0.873  0.6039  0.4560  0.6199
 3509TIP3    H110491   3.733   0.342   0.894  1.1731  0.8443 -1.5398
 3509TIP3    H210492   3.622   0.442   0.871  0.0781  0.3805  1.2529
 3510TIP3   OH210493   5.030   4.231   4.362 -0.1601 -0.0549 -0.4772
 3510TIP3    H110494   5.072   4.213   4.278 -0.8679 -0.4238 -0.7655
 3510TIP3    H210495   5.024   4.145   4.405  1.8959  0.3637  0.7986
 3511TIP3   OH210496   3.641   2.335   2.713 -0.5999 -0.0043 -0.1562
 3511TIP3    H110497   3.727   2.360   2.678 -1.1332 -0.3285 -1.7672
 3511TIP3    H210498   3.655   2.249   2.751 -0.4875 -0.6992 -1.6933
 3512TIP3   OH210499   2.400   6.224   4.077 -0.6265  0.1015  0.2487
 3512TIP3    H110500   2.429   6.275   4.002 -2.1268  1.8115  0.7623
 3512TIP3    H210501   2.314   6.191   4.052  0.2469 -2.1210 -0.0082
 3513TIP3   OH210502   3.522   5.799   5.124 -0.5506 -0.2966  0.5871
 3513TIP3    H110503   3.615   5.779   5.129 -0.9239 -2.0718  0.9085
 3513TIP3    H210504   3.496   5.772   5.036 -0.7376  0.3863  0.4234
 3514TIP3   OH210505   5.062   4.596   3.213 -0.1267  0.5133 -0.0147
 3514TIP3    H110506   5.105   4.648   3.281 -2.0170  1.2746  0.6586
 3514TIP3    H210507   5.086   4.638   3.131  1.3931  0.1702  0.2305
 3515TIP3   OH210508   4.935   4.343   4.107 -0.1551  0.2645 -0.0177
 3515TIP3    H110509   4.853   4.393   4.102 -0.2785  0.0069 -0.6840
 3515TIP3    H210510   4.926   4.289   4.185 -1.1542 -0.6723 -0.7465
 3516TIP3   OH210511   3.564   6.627   1.931  0.0523  0.6233 -0.2602
 3516TIP3    H110512   3.595   6.539   1.909 -0.1340  0.1997  1.0450
 3516TIP3    H210513   3.511   6.614   2.010 -2.3504  1.5137 -1.6270
 3517TIP3   OH210514   5.918   6.707   4.156 -1.0028  0.3770  0.0756
 3517TIP3    H110515   5.982   6.727   4.224 -0.2654 -1.6716  0.0543
 3517TIP3    H210516   5.965   6.722   4.074 -1.0138  0.2815  0.0510
 3518TIP3   OH210517   6.566   4.832   4.565  0.0186 -0.3335  0.0505
 3518TIP3    H110518   6.633   4.897   4.546  0.1215 -0.0783  1.1970
 3518TIP3    H210519   6.487   4.882   4.584  0.5766 -0.3622  2.8968
 3519TIP3   OH210520   1.920   5.942   0.857  0.2988  0.0411 -0.3458
 3519TIP3    H110521   1.960   6.016   0.811  1.9191 -0.5527  0.0534
 3519TIP3    H210522   1.939   5.866   0.802 -0.8480 -0.1850 -0.4573
 3520TIP3   OH210523   4.880   5.613   0.525 -0.3518  0.3090  0.2043
 3520TIP3    H110524   4.976   5.606   0.528 -0.1976  0.3444 -2.3402
 3520TIP3    H210525   4.859   5.677   0.593  1.4775  0.6853  0.4798
 3521TIP3   OH210526   6.466   4.961   1.624 -0.2125 -0.2498  0.0078
 3521TIP3    H110527   6.488   4.868   1.625 -2.8887 -1.0089  2.1934
 3521TIP3    H210528   6.502   4.994   1.707 -3.0680 -0.5153  1.4757
 3522TIP3   OH210529   4.853   5.261   0.894 -0.5244 -0.4527 -0.9314
 3522TIP3    H110530   4.848   5.179   0.846  0.1346 -0.3145 -1.2562
 3522TIP3    H210531   4.818   5.327   0.834 -1.0711 -0.4942 -0.6638
 3523TIP3   OH210532   1.281   6.290   2.869 -0.0017  0.5661  0.1497
 3523TIP3    H110533   1.211   6.226   2.856  2.1710 -1.9959  0.1551
 3523TIP3    H210534   1.272   6.350   2.795 -0.8294 -1.0602 -1.1413
 3524TIP3   OH210535   2.374   6.423   1.583  0.2188  0.3457 -0.3097
 3524TIP3    H110536   2.443   6.360   1.564  0.6432  0.9149 -0.6908
 3524TIP3    H210537   2.419   6.507   1.592 -0.3959  0.6913 -0.3680
 3525TIP3   OH210538   1.304   6.216   4.635  0.7384  0.0129 -0.3245
 3525TIP3    H110539   1.383   6.271   4.642  0.3427  0.5818 -0.2656
 3525TIP3    H210540   1.333   6.129   4.662  1.5633  0.0187 -1.1451
 3526TIP3   OH210541   0.211   0.487   3.285  0.2755  0.1442 -0.3601
 3526TIP3    H110542   0.274   0.448   3.225  1.0756 -0.4248  0.8091
 3526TIP3    H210543   0.257   0.491   3.369 -0.9519  0.5122  0.3234
 3527TIP3   OH210544   3.394   0.212   0.442  0.2283 -0.8361  0.2536
 3527TIP3    H110545   3.306   0.215   0.481  0.0069 -1.0067 -0.2250
 3527TIP3    H210546   3.454   0.213   0.517 -0.0795  2.2489  0.6094
 3528TIP3   OH210547   3.201   4.272   3.246 -0.3206 -0.0321 -0.0675
 3528TIP3    H110548   3.273   4.335   3.240 -0.3297 -0.0956 -1.0430
 3528TIP3    H210549   3.214   4.229   3.330  0.7133  0.0543 -0.1624
 3529TIP3   OH210550   3.995   0.681   4.311  0.0249  0.1842  0.4559
 3529TIP3    H110551   3.936   0.637   4.250  0.7413 -0.6616  0.3493
 3529TIP3    H210552   4.026   0.611   4.369  0.7154  0.6619  0.6787
 3530TIP3   OH210553   5.219   1.353   1.149 -0.2499 -0.0506  0.1820
 3530TIP3    H110554   5.192   1.321   1.063 -0.0148  0.9302 -0.2677
 3530TIP3    H210555   5.291   1.413   1.131  1.9431 -2.1417  1.2946
 3531TIP3   OH210556   0.949   6.690   1.433  0.0503  0.5753  0.1583
 3531TIP3    H110557   1.034   6.685   1.389  0.1281 -0.3939  0.4064
 3531TIP3    H210558   0.893   6.629   1.384 -0.3066  0.6816  0.4284
 3532TIP3   OH210559   6.466   2.617   0.046 -0.0818 -0.0997  0.5018
 3532TIP3    H110560   6.407   2.621   0.121 -0.6446  0.1427  0.0491
 3532TIP3    H210561   6.554   2.622   0.085 -0.3601 -0.1850  1.1554
 3533TIP3   OH210562   4.012   2.502   3.517 -0.4383  0.2496  0.3085
 3533TIP3    H110563   3.918   2.518   3.522 -0.2475  1.0684  1.8226
 3533TIP3    H210564   4.028   2.431   3.579 -0.1378 -0.3829 -0.4708
 3534TIP3   OH210565   5.699   4.575   0.959 -0.0671  0.5091 -0.1360
 3534TIP3    H110566   5.710   4.527   0.877 -1.2878  1.1999 -0.7179
 3534TIP3    H210567   5.641   4.648   0.938 -1.9000 -0.3062  1.7029
 3535TIP3   OH210568   4.385   4.024   3.048  0.0666  0.2740  0.4985
 3535TIP3    H110569   4.480   4.031   3.054 -0.0131  1.7396  0.3562
 3535TIP3    H210570   4.367   3.930   3.058  1.6707 -0.3186 -1.4899
 3536TIP3   OH210571   3.762   1.794   4.565  0.5454  0.3713  0.6494
 3536TIP3    H110572   3.848   1.833   4.579  2.2665 -2.6954 -0.4489
 3536TIP3    H210573   3.778   1.700   4.568 -2.5388 -0.3361 -1.0300
 3537TIP3   OH210574   0.390   3.002   4.702  0.4384 -0.0086 -0.4700
 3537TIP3    H110575   0.468   2.974   4.750 -1.2997 -0.9169  2.0194
 3537TIP3    H210576   0.377   3.093   4.729 -1.6373 -1.0611  2.6340
 3538TIP3   OH210577   5.752   1.334   3.617 -0.2522  0.7044  0.5536
 3538TIP3    H110578   5.674   1.323   3.672  0.9823  2.1714  2.7227
 3538TIP3    H210579   5.823   1.351   3.679  1.7083  0.0352 -1.3936
 3539TIP3   OH210580   2.713   0.883   1.180 -0.0370 -0.3013 -0.2998
 3539TIP3    H110581   2.743   0.807   1.131  0.1682  0.6589 -1.7533
 3539TIP3    H210582   2.684   0.849   1.264 -0.2069 -2.0020 -1.0190
 3540TIP3   OH210583   3.170   6.065   3.527 -0.3513 -0.0012 -0.0287
 3540TIP3    H110584   3.207   6.148   3.559 -0.4965  0.4125 -0.8998
 3540TIP3    H210585   3.192   6.001   3.594 -1.1677  0.9514  1.2043
 3541TIP3   OH210586   0.681   1.645   2.275 -0.4750 -0.5467  0.5176
 3541TIP3    H110587   0.626   1.700   2.220 -0.2154  1.6624  2.3158
 3541TIP3    H210588   0.768   1.648   2.236 -0.6287 -0.2730  0.2029
 3542TIP3   OH210589   4.828   1.697   5.113  0.4098  0.2154  0.1790
 3542TIP3    H110590   4.776   1.638   5.058  0.2242 -0.6786  1.2588
 3542TIP3    H210591   4.828   1.780   5.067 -0.8664 -0.1352 -0.5032
 3543TIP3   OH210592   5.667   0.984   5.738 -0.1379 -0.0466  0.4494
 3543TIP3    H110593   5.647   1.072   5.770 -1.0960  0.4628 -1.3959
 3543TIP3    H210594   5.762   0.978   5.741 -0.0787  0.9603  0.8351
 3544TIP3   OH210595   4.998   2.941   3.908 -0.4394 -0.2017 -0.1700
 3544TIP3    H110596   5.073   2.891   3.938  0.7136  0.1209 -2.3305
 3544TIP3    H210597   4.952   2.966   3.988  1.6553 -0.5498  1.2104
 3545TIP3   OH210598   6.984   0.788   4.576 -0.3215  0.6185 -0.3015
 3545TIP3    H110599   7.054   0.777   4.640  0.5441  0.4213 -1.2604
 3545TIP3    H210600   7.001   0.873   4.536  0.9244 -0.5017 -2.3344
 3546TIP3   OH210601   4.267   4.180   2.087 -0.1270 -0.1934  0.3517
 3546TIP3    H110602   4.281   4.162   2.180 -1.5267  1.8393  1.0439
 3546TIP3    H210603   4.335   4.243   2.065 -1.5126  1.5819  0.8679
 3547TIP3   OH210604   5.699   5.174   3.796 -0.6787 -0.2278  0.3294
 3547TIP3    H110605   5.742   5.245   3.844 -0.5324  0.5854 -0.9690
 3547TIP3    H210606   5.647   5.129   3.863 -1.5532  1.6942  1.0209
 3548TIP3   OH210607   0.661   3.363   3.427 -0.0085 -0.2943 -0.0619
 3548TIP3    H110608   0.596   3.372   3.357 -0.4601 -0.0240  0.3906
 3548TIP3    H210609   0.681   3.269   3.428  0.3170 -0.2389 -0.8361
 3549TIP3   OH210610   0.190   0.799   2.391 -0.9379  0.7573 -0.2860
 3549TIP3    H110611   0.241   0.865   2.345 -0.7338  0.1190 -0.9923
 3549TIP3    H210612   0.134   0.760   2.323 -1.8279  0.9224  0.3267
 3550TIP3   OH210613   2.722   4.461   0.074  0.0865 -0.0994 -0.2717
 3550TIP3    H110614   2.639   4.470   0.122  0.0988  0.0610 -0.2798
 3550TIP3    H210615   2.750   4.371   0.091  0.5834  0.2526  0.8204
 3551TIP3   OH210616   3.852   6.732   1.950  0.2065  0.3657  0.0791
 3551TIP3    H110617   3.894   6.694   1.873  0.4083 -1.4312  1.0083
 3551TIP3    H210618   3.763   6.751   1.922  0.4041  0.1587 -0.7290
 3552TIP3   OH210619   0.656   6.381   5.080  0.1927  0.4648 -0.0233
 3552TIP3    H110620   0.719   6.453   5.080 -0.2175  0.9056 -2.4200
 3552TIP3    H210621   0.707   6.304   5.108  1.4319  1.0868 -0.4994
 3553TIP3   OH210622   4.479   5.894   2.131 -0.4894 -0.2967 -0.6647
 3553TIP3    H110623   4.487   5.865   2.222 -0.0229 -0.8924 -0.8856
 3553TIP3    H210624   4.562   5.939   2.113 -1.1578  1.0932 -0.3658
 3554TIP3   OH210625   1.236   2.723   0.570  0.0222 -0.3549  0.0191
 3554TIP3    H110626   1.189   2.648   0.607 -2.4587  1.6176  1.1338
 3554TIP3    H210627   1.291   2.755   0.642 -3.5692  2.4802  1.7894
 3555TIP3   OH210628   2.770   5.181   5.818  0.0652  0.3210  0.1448
 3555TIP3    H110629   2.823   5.209   5.743  0.5214 -0.4493  0.1695
 3555TIP3    H210630   2.830   5.183   5.892 -0.4448  1.3155  0.5523
 3556TIP3   OH210631   1.054   3.406   0.318  0.4829 -0.4344 -0.0022
 3556TIP3    H110632   1.004   3.324   0.315 -1.6226  0.7608 -0.1183
 3556TIP3    H210633   1.025   3.449   0.398  1.2548  0.3708 -0.1333
 3557TIP3   OH210634   6.768   1.191   4.235 -0.5266 -0.5989  0.1446
 3557TIP3    H110635   6.815   1.269   4.267  0.8397 -1.3566  0.0630
 3557TIP3    H210636   6.796   1.182   4.144 -0.5133 -1.2968  0.2120
 3558TIP3   OH210637   3.805   0.348   2.638 -0.0233  0.5481 -0.1206
 3558TIP3    H110638   3.768   0.406   2.705 -1.6981  0.2706 -0.7819
 3558TIP3    H210639   3.899   0.367   2.641 -0.2761  1.8225  1.0787
 3559TIP3   OH210640   0.797   6.127   1.807  0.1121  0.1692 -0.2638
 3559TIP3    H110641   0.805   6.177   1.888 -1.5859  0.0143  0.0289
 3559TIP3    H210642   0.721   6.071   1.820 -0.8526  0.8776 -2.3406
 3560TIP3   OH210643   3.318   1.538   4.353  0.5188  0.4876 -0.1484
 3560TIP3    H110644   3.378   1.463   4.352  0.0994  0.1420 -1.3694
 3560TIP3    H210645   3.234   1.502   4.324  0.3780  1.4794 -1.0086
 3561TIP3   OH210646   1.431   0.749   0.060  0.2183  0.2092  0.3339
 3561TIP3    H110647   1.460   0.804   0.133  2.9492 -0.9700  0.2682
 3561TIP3    H210648   1.504   0.689   0.046 -1.5548 -1.6817 -1.3262
 3562TIP3   OH210649   5.008   5.857   2.196 -0.2251  0.2545  0.2366
 3562TIP3    H110650   4.992   5.817   2.282 -1.8150  0.6240  0.1441
 3562TIP3    H210651   4.941   5.925   2.189  0.5654  0.9394 -0.8568
 3563TIP3   OH210652   2.782   5.086   4.990  0.2228  0.4246 -0.1650
 3563TIP3    H110653   2.851   5.106   4.928 -0.1008  2.4139  0.0458
 3563TIP3    H210654   2.725   5.024   4.944  0.1716  1.5837 -1.7663
 3564TIP3   OH210655   2.135   3.306   5.449  0.1753  0.5294 -0.4765
 3564TIP3    H110656   2.049   3.282   5.484 -0.1522  0.6788 -1.1562
 3564TIP3    H210657   2.181   3.222   5.439  0.1365  0.4573 -0.0330
 3565TIP3   OH210658   6.723   4.711   3.871 -0.3456 -0.0217  0.4742
 3565TIP3    H110659   6.649   4.666   3.830  0.2725  0.2380 -0.9945
 3565TIP3    H210660   6.797   4.651   3.859  0.0608  0.5110  0.2826
 3566TIP3   OH210661   6.757   3.231   1.052 -0.0568  0.0810  0.6964
 3566TIP3    H110662   6.761   3.165   0.983  1.2927  1.6931 -0.8832
 3566TIP3    H210663   6.815   3.199   1.120  0.2492 -0.5674  0.1387
 3567TIP3   OH210664   6.269   2.652   5.736  0.0848  0.4618  0.3112
 3567TIP3    H110665   6.188   2.600   5.731  1.9574 -2.8500  1.3911
 3567TIP3    H210666   6.289   2.673   5.644 -1.3081  0.2546 -0.0676
 3568TIP3   OH210667   2.837   5.178   1.448  0.2349  0.0029 -0.6469
 3568TIP3    H110668   2.769   5.189   1.382 -1.7316 -0.2737  1.2228
 3568TIP3    H210669   2.791   5.190   1.532  2.8984  2.0083  0.6779
 3569TIP3   OH210670   3.683   2.424   3.258  0.2687  0.2017  0.3288
 3569TIP3    H110671   3.652   2.514   3.261 -1.0431 -0.0116 -2.7515
 3569TIP3    H210672   3.778   2.431   3.272  0.2629  2.1483 -0.2821
 3570TIP3   OH210673   1.066   4.154   0.816  0.6189  0.0466  0.2636
 3570TIP3    H110674   1.042   4.129   0.905  2.2491 -1.5944  0.3013
 3570TIP3    H210675   0.984   4.148   0.766 -0.0815 -0.1659  1.4103
 3571TIP3   OH210676   2.014   0.475   5.150 -0.1104  0.5739 -0.2355
 3571TIP3    H110677   1.999   0.549   5.208  1.2722 -0.2768  1.2649
 3571TIP3    H210678   1.926   0.449   5.122 -0.7757  1.3431  1.0390
 3572TIP3   OH210679   4.543   5.206   0.754 -0.6980 -0.0986  0.3572
 3572TIP3    H110680   4.616   5.261   0.725  0.3044 -0.7374  1.5622
 3572TIP3    H210681   4.486   5.266   0.802  0.5167 -0.0963  1.8808
 3573TIP3   OH210682   3.742   6.686   2.408 -0.0657  0.3743  0.0790
 3573TIP3    H110683   3.715   6.756   2.348  1.4388 -0.4163 -1.6381
 3573TIP3    H210684   3.791   6.625   2.352  0.2520 -1.1073  1.8861
 3574TIP3   OH210685   2.027   3.689   2.726  0.4968 -0.4577 -0.1160
 3574TIP3    H110686   1.963   3.624   2.756  1.9583 -2.1590 -0.4562
 3574TIP3    H210687   1.997   3.772   2.762 -0.7341 -1.5468  1.4830
 3575TIP3   OH210688   6.431   5.202   5.437 -0.1153  0.5455  0.0997
 3575TIP3    H110689   6.508   5.252   5.410  0.3781  0.5627  1.4725
 3575TIP3    H210690   6.467   5.124   5.478 -0.7755  1.2289  2.0533
 3576TIP3   OH210691   2.000   2.100   0.960 -0.2246  0.0204 -0.0485
 3576TIP3    H110692   1.923   2.132   1.006  0.4803  1.1897  0.3751
 3576TIP3    H210693   2.018   2.015   0.999 -0.9699 -0.0116  0.2357
 3577TIP3   OH210694   0.715   0.244   2.622  0.1065 -0.5307 -0.3059
 3577TIP3    H110695   0.648   0.181   2.592 -0.9519  0.3172  0.1995
 3577TIP3    H210696   0.798   0.197   2.613 -0.7840 -2.7405  1.9056
 3578TIP3   OH210697   4.680   2.718   3.656 -0.0786  0.0491  0.2340
 3578TIP3    H110698   4.663   2.657   3.584  1.8653 -0.4962  0.1617
 3578TIP3    H210699   4.776   2.720   3.663 -0.1957  0.2610  2.6485
 3579TIP3   OH210700   1.802   5.222   0.168  0.5838 -0.4385  0.2712
 3579TIP3    H110701   1.728   5.183   0.216 -0.6941 -0.1328 -1.3664
 3579TIP3    H210702   1.826   5.156   0.104  0.2938  0.3074 -0.6253
 3580TIP3   OH210703   5.031   3.309   3.061  0.4046 -0.5243 -0.1324
 3580TIP3    H110704   4.999   3.221   3.080 -0.2686 -0.3921 -0.6231
 3580TIP3    H210705   5.005   3.326   2.970  0.7216  0.0941 -0.1179
 3581TIP3   OH210706   2.399   0.507   2.263 -0.9480 -0.3625  0.2527
 3581TIP3    H110707   2.473   0.446   2.264 -0.1831  0.5277 -0.7381
 3581TIP3    H210708   2.324   0.452   2.241 -0.7015 -1.3668  1.7671
 3582TIP3   OH210709   3.578   1.244   5.143  0.1141  0.8686  0.3778
 3582TIP3    H110710   3.485   1.229   5.124  0.1879 -2.4836  1.9622
 3582TIP3    H210711   3.621   1.239   5.058 -1.0935  2.5786 -0.4010
 3583TIP3   OH210712   0.034   0.262   4.050 -0.0586  0.0631 -0.2099
 3583TIP3    H110713   0.105   0.259   3.986 -1.0657  2.5165 -1.6086
 3583TIP3    H210714   0.036   0.352   4.083 -2.0660 -0.0049  0.2177
 3584TIP3   OH210715   0.741   2.600   1.872 -0.1777 -0.5875  0.3080
 3584TIP3    H110716   0.660   2.566   1.910 -0.6418  0.8278  0.6553
 3584TIP3    H210717   0.761   2.677   1.925  0.1330  0.4065 -1.1930
 3585TIP3   OH210718   1.938   0.301   2.675  0.3514 -0.5316 -0.0954
 3585TIP3    H110719   1.900   0.319   2.590  0.0766  0.8549  0.3018
 3585TIP3    H210720   1.894   0.361   2.735  2.1982  0.1937  0.6078
 3586TIP3   OH210721   1.999   2.102   2.817 -0.3057  0.6042  0.5157
 3586TIP3    H110722   2.081   2.113   2.769 -1.0570  0.5639 -0.8288
 3586TIP3    H210723   1.937   2.159   2.772 -1.3049 -0.2395  0.7873
 3587TIP3   OH210724   6.964   4.308   0.754  0.0125 -0.3497  0.0853
 3587TIP3    H110725   6.980   4.337   0.844  0.1498  0.6591 -0.2488
 3587TIP3    H210726   6.938   4.216   0.762 -0.6744 -0.0779  1.2158
 3588TIP3   OH210727   3.008   6.349   2.523  0.3643  0.0657 -0.0199
 3588TIP3    H110728   2.975   6.418   2.466 -0.2918  0.2035  0.5212
 3588TIP3    H210729   3.001   6.385   2.612 -0.2131 -0.7763  0.2953
 3589TIP3   OH210730   2.092   3.461   5.207  0.1643  0.4764 -0.3012
 3589TIP3    H110731   2.076   3.449   5.301  0.9084 -0.3883 -0.2715
 3589TIP3    H210732   2.187   3.456   5.198  0.0157 -1.3662 -1.3288
 3590TIP3   OH210733   3.215   0.158   4.256  0.1764  0.2193  0.1368
 3590TIP3    H110734   3.307   0.183   4.251  0.2907  0.4000  2.4289
 3590TIP3    H210735   3.175   0.220   4.316 -1.2368 -0.4845 -0.0143
 3591TIP3   OH210736   5.439   6.007   0.595  0.3629 -0.8721 -0.3505
 3591TIP3    H110737   5.530   6.037   0.598 -0.0367  0.3736  0.1086
 3591TIP3    H210738   5.407   6.017   0.685 -0.2200 -1.3108 -0.5005
 3592TIP3   OH210739   0.933   1.948   4.304  0.2118 -0.4285 -0.6654
 3592TIP3    H110740   0.982   2.023   4.340 -0.7742  1.4925 -3.0718
 3592TIP3    H210741   0.984   1.872   4.331  2.2773  1.2086  0.3866
 3593TIP3   OH210742   6.935   0.572   4.429  0.1208  0.1255  0.7448
 3593TIP3    H110743   7.012   0.518   4.411 -0.4770 -0.5415  0.1044
 3593TIP3    H210744   6.970   0.652   4.468  1.1901  0.0833 -0.0792
 3594TIP3   OH210745   7.132   0.039   4.151  0.7248  0.2001 -0.1500
 3594TIP3    H110746   7.075  -0.001   4.086  0.4918 -1.7662  1.1932
 3594TIP3    H210747   7.161   0.121   4.110  2.2970 -1.8755 -3.5918
 3595TIP3   OH210748   4.427   0.559   4.319 -0.2301 -0.4223 -0.1623
 3595TIP3    H110749   4.523   0.555   4.316 -0.2360 -0.1293 -0.7566
 3595TIP3    H210750   4.400   0.568   4.228 -0.7786  0.5290  0.0780
 3596TIP3   OH210751   1.659   6.028   0.617  0.3712 -0.0945  0.6305
 3596TIP3    H110752   1.722   6.043   0.547 -0.6688  2.3171  0.0754
 3596TIP3    H210753   1.632   5.937   0.607  1.9593 -0.4757 -0.6086
 3597TIP3   OH210754   5.420   4.862   3.838  0.4399  0.2346 -0.0262
 3597TIP3    H110755   5.368   4.820   3.906  0.5010  0.8631  0.4197
 3597TIP3    H210756   5.488   4.799   3.816  0.0122 -0.2456  0.0043
 3598TIP3   OH210757   5.683   2.464   1.583 -0.3151 -0.2726  0.0540
 3598TIP3    H110758   5.673   2.539   1.642 -1.7622 -0.7565  0.4658
 3598TIP3    H210759   5.771   2.474   1.547  0.5628  0.1651  2.1207
 3599TIP3   OH210760   6.684   1.816   2.532  0.1642  0.2723  0.4697
 3599TIP3    H110761   6.740   1.879   2.486 -1.5825  1.1117 -0.6572
 3599TIP3    H210762   6.675   1.852   2.620  0.1852  0.9438  0.2065
 3600TIP3   OH210763   4.620   6.412   5.272  0.2627  0.2615  0.6610
 3600TIP3    H110764   4.650   6.388   5.184 -1.1094 -0.1349  0.2743
 3600TIP3    H210765   4.694   6.392   5.329 -0.0041 -2.8746  0.0621
 3601TIP3   OH210766   1.084   6.614   2.013 -0.3309  0.5681 -0.4409
 3601TIP3    H110767   1.098   6.593   2.105  0.6957 -0.7603 -0.8751
 3601TIP3    H210768   1.170   6.602   1.972 -0.5937  1.9020 -1.4462
 3602TIP3   OH210769   1.336   4.746   4.416  1.1838 -0.3530 -0.3155
 3602TIP3    H110770   1.335   4.651   4.412  0.1768 -0.3636 -0.0687
 3602TIP3    H210771   1.380   4.766   4.499 -0.6460 -0.6883  0.8115
 3603TIP3   OH210772   0.256   6.042   5.746  0.3730  0.0743 -0.1260
 3603TIP3    H110773   0.304   5.991   5.811  1.1038  1.1583  0.2092
 3603TIP3    H210774   0.323   6.086   5.695 -0.2313  1.3217  0.1053
 3604TIP3   OH210775   1.326   3.692   3.663 -0.2384 -0.4207  0.4445
 3604TIP3    H110776   1.411   3.682   3.706  0.1077 -0.7647 -0.3099
 3604TIP3    H210777   1.329   3.778   3.623 -0.6254 -0.0305  1.2291
 3605TIP3   OH210778   6.205   0.014   2.629  0.0089 -0.1872  0.0379
 3605TIP3    H110779   6.293   0.037   2.601  1.4914 -2.8614  2.0564
 3605TIP3    H210780   6.170  -0.040   2.557  0.5036 -0.1431 -0.2369
 3606TIP3   OH210781   4.843   3.995   3.840  0.3730  0.0124  0.2041
 3606TIP3    H110782   4.761   4.044   3.851  0.3803  0.2584 -0.7318
 3606TIP3    H210783   4.891   4.010   3.921 -0.0161  0.8229  0.2953
 3607TIP3   OH210784   3.845   5.357   4.934  0.4365 -0.3689  0.1513
 3607TIP3    H110785   3.916   5.379   4.994  0.1612 -1.6079  0.9482
 3607TIP3    H210786   3.873   5.394   4.850  0.2622  2.4765  1.2414
 3608TIP3   OH210787   6.113   2.778   2.507 -0.3882 -0.2525  0.4609
 3608TIP3    H110788   6.129   2.723   2.431  0.4135 -0.3512  0.6927
 3608TIP3    H210789   6.136   2.866   2.478  2.1092 -0.5854  1.2140
 3609TIP3   OH210790   3.676   2.772   0.361 -0.5630 -0.3270 -0.8560
 3609TIP3    H110791   3.760   2.798   0.399 -0.3044 -0.4137 -1.3578
 3609TIP3    H210792   3.623   2.851   0.366  0.2051  0.3273 -2.3297
 3610TIP3   OH210793   0.275   1.194   1.438 -0.4753 -0.6021 -0.4443
 3610TIP3    H110794   0.331   1.177   1.363 -0.2097 -0.8172 -0.2011
 3610TIP3    H210795   0.266   1.109   1.481  0.0752 -0.3199  0.2447
 3611TIP3   OH210796   0.870   5.419   3.209  0.0931  0.5539 -0.5234
 3611TIP3    H110797   0.962   5.425   3.181  0.3081 -0.9190 -0.2145
 3611TIP3    H210798   0.838   5.509   3.204  0.7757  0.7512 -3.2497
 3612TIP3   OH210799   4.872   6.222   0.665 -0.1001 -0.2643 -0.5266
 3612TIP3    H110800   4.967   6.225   0.677 -0.3248 -1.7459  2.5866
 3612TIP3    H210801   4.838   6.286   0.728 -1.1834 -0.5269 -0.8256
 3613TIP3   OH210802   3.110   5.682   3.322  0.5288  0.1194  0.2816
 3613TIP3    H110803   3.030   5.659   3.275  1.4042 -1.2959 -0.6205
 3613TIP3    H210804   3.091   5.766   3.363 -0.8519  0.6177 -1.2579
 3614TIP3   OH210805   1.229   0.915   2.359 -0.3358 -0.5607  0.9026
 3614TIP3    H110806   1.321   0.898   2.339 -0.4906 -0.6600  0.2592
 3614TIP3    H210807   1.212   1.002   2.323 -0.4761 -0.5085  1.0901
 3615TIP3   OH210808   0.295   1.350   3.937  0.1833  0.2759 -0.2135
 3615TIP3    H110809   0.352   1.372   3.864  1.0633 -0.9318  0.0806
 3615TIP3    H210810   0.337   1.275   3.980  0.4196  1.7461  2.3414
 3616TIP3   OH210811   2.893   5.935   1.594  0.0874  0.1862 -0.4567
 3616TIP3    H110812   2.909   5.891   1.510  3.7078 -0.4850  0.4166
 3616TIP3    H210813   2.972   5.987   1.609 -1.4316  2.1267  1.5410
 3617TIP3   OH210814   6.660   4.001   1.850  0.4158  0.5169  0.1855
 3617TIP3    H110815   6.574   4.024   1.816  0.2266  1.6437  1.3544
 3617TIP3    H210816   6.668   3.907   1.833 -3.0407 -0.7921  4.1505
 3618TIP3   OH210817   1.997   2.552   3.295 -0.3427 -0.4870 -0.0454
 3618TIP3    H110818   1.939   2.575   3.366  0.6931  0.8765  0.3966
 3618TIP3    H210819   2.082   2.537   3.337  0.4822  1.1287 -1.0259
 3619TIP3   OH210820   6.672   5.283   0.266 -0.3709 -0.0351  0.1601
 3619TIP3    H110821   6.716   5.246   0.342 -1.9775 -0.3024  0.9964
 3619TIP3    H210822   6.737   5.280   0.196  0.6667 -1.1218  1.1458
 3620TIP3   OH210823   6.335   6.647   5.474 -0.5399  0.2727 -0.0318
 3620TIP3    H110824   6.420   6.620   5.441  0.8892  3.3953  0.7411
 3620TIP3    H210825   6.274   6.626   5.404  1.0260 -0.8775 -1.1158
 3621TIP3   OH210826   4.473   1.618   1.146 -0.5702 -0.5941  0.2009
 3621TIP3    H110827   4.377   1.618   1.149 -0.5797 -0.8369 -0.0549
 3621TIP3    H210828   4.498   1.531   1.178 -0.4224 -0.4306  0.5431
 3622TIP3   OH210829   5.010   4.236   0.944 -0.0051  0.1478 -0.3366
 3622TIP3    H110830   4.918   4.216   0.964  0.4230 -0.2389  1.4312
 3622TIP3    H210831   5.012   4.331   0.934 -0.7489  0.0765 -1.3557
 3623TIP3   OH210832   3.457   6.237   0.665  0.8827 -0.0604 -0.0317
 3623TIP3    H110833   3.483   6.264   0.576 -0.3785  0.1253 -0.3627
 3623TIP3    H210834   3.533   6.190   0.698  1.6105  0.3972 -0.9820
 3624TIP3   OH210835   3.494   5.141   4.835  0.8660 -0.2064  0.6917
 3624TIP3    H110836   3.507   5.085   4.911  1.9246  0.4982  1.0502
 3624TIP3    H210837   3.458   5.222   4.870  0.2239 -0.3093  0.2875
 3625TIP3   OH210838   1.717   4.616   4.332 -0.1670 -0.3127 -0.4033
 3625TIP3    H110839   1.687   4.531   4.298 -2.7167  0.2241  0.2709
 3625TIP3    H210840   1.656   4.680   4.294  1.2012  1.1454 -0.2590
 3626TIP3   OH210841   6.342   0.749   2.549  0.5291 -0.1735  0.1756
 3626TIP3    H110842   6.309   0.707   2.628  0.6181 -0.3508  0.1193
 3626TIP3    H210843   6.274   0.813   2.525 -0.1959 -1.1518 -0.4415
 3627TIP3   OH210844   2.384   3.101   5.165  0.3514 -0.1487 -0.1817
 3627TIP3    H110845   2.380   3.066   5.076 -1.8170  0.9132 -0.5563
 3627TIP3    H210846   2.456   3.164   5.162  1.5265 -1.4377 -0.6169
 3628TIP3   OH210847   5.751   1.105   4.547  0.3931  0.2905 -0.1191
 3628TIP3    H110848   5.757   1.013   4.520 -0.2766  0.6643 -1.6522
 3628TIP3    H210849   5.797   1.108   4.631  0.9060 -1.3299 -0.2980
 3629TIP3   OH210850   0.752   5.839   0.790 -0.4263 -0.1742  0.0978
 3629TIP3    H110851   0.812   5.902   0.750  1.4400 -1.0868  1.2812
 3629TIP3    H210852   0.676   5.837   0.732 -0.2670  2.6034 -0.3580
 3630TIP3   OH210853   2.123   4.755   3.227  0.7924  0.0850  0.0018
 3630TIP3    H110854   2.191   4.809   3.188  0.4017  0.8959  0.4251
 3630TIP3    H210855   2.051   4.758   3.164  0.4690  0.7281  0.3905
 3631TIP3   OH210856   3.568   0.431   4.208 -0.0635 -0.1463 -0.3743
 3631TIP3    H110857   3.622   0.428   4.287 -1.0839 -0.6442  0.3206
 3631TIP3    H210858   3.526   0.345   4.204  1.9822 -1.1700 -2.9307
 3632TIP3   OH210859   3.801   6.253   0.612 -0.0391  0.1487  0.3973
 3632TIP3    H110860   3.766   6.323   0.668 -0.5964  0.2152 -0.0291
 3632TIP3    H210861   3.769   6.274   0.525 -1.1102 -1.2091  0.4324
 3633TIP3   OH210862   0.429   5.747   5.687 -0.3892  0.4268  0.1333
 3633TIP3    H110863   0.507   5.732   5.634  1.2303  1.3278  2.1133
 3633TIP3    H210864   0.370   5.797   5.630  1.1249  1.0983 -0.9060
 3634TIP3   OH210865   4.727   5.261   0.436  0.3831 -0.1604  0.0835
 3634TIP3    H110866   4.816   5.236   0.459  0.5948 -0.1815 -0.7232
 3634TIP3    H210867   4.673   5.188   0.465  0.7190 -0.4737 -0.0746
 3635TIP3   OH210868   4.841   0.180   5.623  0.5923 -0.0416 -0.2306
 3635TIP3    H110869   4.855   0.087   5.642 -0.9752 -0.3832 -0.5275
 3635TIP3    H210870   4.811   0.180   5.531 -3.0170  0.2732  0.7795
 3636TIP3   OH210871   2.951   1.401   4.412 -0.1549 -0.1525 -0.3412
 3636TIP3    H110872   2.929   1.396   4.505  0.6795  0.8585 -0.0703
 3636TIP3    H210873   2.894   1.471   4.378 -1.7206 -1.6782 -1.0047
 3637TIP3   OH210874   1.748   2.159   2.489  0.3933  0.4045 -0.4112
 3637TIP3    H110875   1.729   2.209   2.410  0.5271 -1.8531 -1.9648
 3637TIP3    H210876   1.832   2.117   2.471  0.2041 -0.5240  0.7491
 3638TIP3   OH210877   6.577   5.540   5.505  0.1533 -0.0517 -0.3897
 3638TIP3    H110878   6.645   5.577   5.561  0.1171  1.5771 -1.3600
 3638TIP3    H210879   6.624   5.502   5.431  0.0453  0.2557 -0.6139
 3639TIP3   OH210880   0.212   0.290   5.725 -0.2955  0.3033  0.1400
 3639TIP3    H110881   0.301   0.306   5.693 -0.7179 -0.2556 -1.4501
 3639TIP3    H210882   0.188   0.371   5.770  0.6509  0.8485 -0.2964
 3640TIP3   OH210883   2.206   4.093   2.251 -0.0832 -0.4858 -0.2763
 3640TIP3    H110884   2.182   4.016   2.303 -0.0194 -0.8346 -0.7485
 3640TIP3    H210885   2.164   4.077   2.166  0.0203 -0.0468 -0.4111
 3641TIP3   OH210886   7.099   3.756   0.599 -0.1535 -0.1792  0.1451
 3641TIP3    H110887   7.021   3.731   0.649 -0.2371 -0.1433  0.0319
 3641TIP3    H210888   7.146   3.674   0.585 -0.0683 -0.1734  0.3864
 3642TIP3   OH210889   5.968   5.775   3.893  0.2990 -0.2680 -0.5694
 3642TIP3    H110890   6.026   5.850   3.880 -1.1079  1.4030  1.9614
 3642TIP3    H210891   6.027   5.702   3.915  1.5277  1.2768  1.5875
 3643TIP3   OH210892   6.212   2.151   2.894 -0.3224 -0.5865  0.2267
 3643TIP3    H110893   6.182   2.079   2.950 -1.0323  0.0337  0.6600
 3643TIP3    H210894   6.308   2.145   2.897 -0.3507 -2.3857 -0.9100
 3644TIP3   OH210895   6.890   0.939   0.042 -0.1364  0.0141 -0.1953
 3644TIP3    H110896   6.962   0.877   0.040 -0.4013 -0.2812 -0.7534
 3644TIP3    H210897   6.908   0.999  -0.030  1.3678  2.0396  1.7395
 3645TIP3   OH210898   0.368   1.454   3.534 -0.3993 -0.0359  0.0364
 3645TIP3    H110899   0.285   1.488   3.566  0.0943  0.1495  1.1825
 3645TIP3    H210900   0.422   1.532   3.520 -0.7059 -0.0936 -1.5856
 3646TIP3   OH210901   5.784   5.703   5.713  0.4362  0.9158  0.5455
 3646TIP3    H110902   5.844   5.677   5.643 -1.8172  0.1298 -1.2305
 3646TIP3    H210903   5.838   5.751   5.775  2.4253  2.4186 -2.1553
 3647TIP3   OH210904   0.881   3.647   2.203  0.0629 -0.7063 -0.0568
 3647TIP3    H110905   0.873   3.711   2.275 -3.0883  0.6929 -1.4824
 3647TIP3    H210906   0.949   3.684   2.147  0.1962 -0.0400  0.5158
 3648TIP3   OH210907   3.244   3.560   2.808 -0.8152 -0.6348 -0.1365
 3648TIP3    H110908   3.182   3.558   2.881 -1.1050 -2.2011 -0.4023
 3648TIP3    H210909   3.263   3.468   2.790  0.6612 -0.2113 -0.8546
 3649TIP3   OH210910   1.444   6.303   3.120 -0.0163 -0.2908  0.4947
 3649TIP3    H110911   1.372   6.313   3.058  0.2704  0.9516  0.3227
 3649TIP3    H210912   1.434   6.377   3.180  1.6160  0.4430 -0.0794
 3650TIP3   OH210913   3.689   2.523   0.496  0.1289  0.1713  0.9924
 3650TIP3    H110914   3.641   2.564   0.568  3.7220  2.3180  2.4327
 3650TIP3    H210915   3.710   2.596   0.437  1.6017 -0.6440  0.4675
 3651TIP3   OH210916   1.996   2.124   4.537  0.0239 -0.2770 -0.3011
 3651TIP3    H110917   2.053   2.110   4.613 -0.6342  2.7715  0.8948
 3651TIP3    H210918   2.044   2.085   4.464  1.8555 -1.1123  1.2521
 3652TIP3   OH210919   2.393   3.975   2.565  0.1254  0.5174  0.5302
 3652TIP3    H110920   2.416   4.066   2.544  2.5158 -0.2110 -0.4430
 3652TIP3    H210921   2.475   3.938   2.599 -0.4653 -1.5415 -0.1662
 3653TIP3   OH210922   6.776   6.587   3.599  0.5050 -0.3165  0.2137
 3653TIP3    H110923   6.816   6.668   3.568 -1.1651  0.5455  0.2186
 3653TIP3    H210924   6.689   6.586   3.559 -1.2977  0.2003  3.7443
 3654TIP3   OH210925   1.501   0.646   4.861 -0.2616  0.0476  0.1113
 3654TIP3    H110926   1.586   0.644   4.818 -0.6593  0.4652 -0.7135
 3654TIP3    H210927   1.509   0.715   4.927 -0.0392  0.2416 -0.1192
 3655TIP3   OH210928   5.580   2.351   1.189 -0.0312  0.2489 -0.3199
 3655TIP3    H110929   5.586   2.256   1.198  0.7779  0.4157  1.1189
 3655TIP3    H210930   5.487   2.367   1.171 -0.3288 -0.7543  0.2302
 3656TIP3   OH210931   5.306   5.030   2.440  0.2636 -0.0782  0.3592
 3656TIP3    H110932   5.272   5.120   2.441 -0.6467 -0.3976  1.6472
 3656TIP3    H210933   5.393   5.038   2.401 -0.3628  1.1373 -0.8838
 3657TIP3   OH210934   4.665   4.251   5.777  0.2221 -0.4889 -0.0264
 3657TIP3    H110935   4.751   4.238   5.737  0.0549 -0.6334 -0.3389
 3657TIP3    H210936   4.634   4.335   5.742  0.8553  0.2884  1.1991
 3658TIP3   OH210937   3.166   1.257   1.473 -0.0394 -0.3059 -0.4178
 3658TIP3    H110938   3.113   1.210   1.537 -2.0212  0.7092 -1.2339
 3658TIP3    H210939   3.107   1.274   1.400  0.5523  3.3280 -0.2392
 3659TIP3   OH210940   2.692   0.630   5.229 -0.0570 -0.2017 -0.5200
 3659TIP3    H110941   2.749   0.699   5.263  0.1241 -0.9403  0.7261
 3659TIP3    H210942   2.747   0.552   5.228 -1.1036 -1.0025  1.0108
 3660TIP3   OH210943   5.967   0.262   1.408  0.1014 -0.3529 -0.3127
 3660TIP3    H110944   6.032   0.191   1.416 -0.2987 -0.8366 -1.1926
 3660TIP3    H210945   6.004   0.321   1.342 -0.1465 -0.3940 -0.4885
 3661TIP3   OH210946   5.480   1.530   1.115 -0.0755 -0.7971  0.4205
 3661TIP3    H110947   5.544   1.598   1.138 -0.5293 -0.8252  1.8275
 3661TIP3    H210948   5.457   1.550   1.024 -0.9400  1.5729  1.0822
 3662TIP3   OH210949   6.127   0.636   1.053 -0.0280 -0.2962  0.0887
 3662TIP3    H110950   6.095   0.726   1.044  2.3296  0.7048  0.6856
 3662TIP3    H210951   6.149   0.610   0.964  0.6095  0.3122  0.0503
 3663TIP3   OH210952   3.769   3.794   5.293  0.2374  0.1941 -0.4831
 3663TIP3    H110953   3.863   3.783   5.307  0.0657 -1.0098 -0.1101
 3663TIP3    H210954   3.729   3.723   5.343 -0.9241  1.1519 -0.0080
 3664TIP3   OH210955   5.753   4.965   5.832  0.2438 -0.4472 -0.2571
 3664TIP3    H110956   5.660   4.943   5.843  0.4801 -1.1408  0.5215
 3664TIP3    H210957   5.754   5.032   5.764 -0.7829 -0.8153 -0.6658
 3665TIP3   OH210958   6.197   1.316   1.189 -0.1694  0.2071 -0.0441
 3665TIP3    H110959   6.219   1.409   1.194 -0.8274  0.3960 -0.5920
 3665TIP3    H210960   6.202   1.286   1.280 -0.4516  0.8969  0.2071
 3666TIP3   OH210961   2.511   3.066   3.102  0.6184  0.8144  0.5083
 3666TIP3    H110962   2.581   3.103   3.049  0.2776  0.6328 -0.0804
 3666TIP3    H210963   2.447   3.034   3.039  0.2191  0.5569  1.0290
 3667TIP3   OH210964   3.441   4.233   1.067  0.2405  0.5879 -0.2492
 3667TIP3    H110965   3.536   4.247   1.063  0.0274  1.9494 -1.5400
 3667TIP3    H210966   3.406   4.287   0.996 -1.6726  1.6893  1.4300
 3668TIP3   OH210967   2.374   2.990   4.918  0.3142 -0.3710  0.3764
 3668TIP3    H110968   2.431   2.994   4.842 -0.9198  1.2062 -0.5319
 3668TIP3    H210969   2.323   2.910   4.906  1.2224 -0.9599  0.3845
 3669TIP3   OH210970   1.095   2.411   5.579  0.4516 -0.1446  0.1365
 3669TIP3    H110971   1.023   2.441   5.635  0.4330  0.2030 -0.0686
 3669TIP3    H210972   1.129   2.491   5.539 -0.8654 -0.5514 -1.9701
 3670TIP3   OH210973   7.139   6.543   2.570 -0.1667 -0.1081  0.4897
 3670TIP3    H110974   7.125   6.520   2.478 -1.4304 -0.5594  0.7757
 3670TIP3    H210975   7.142   6.638   2.571 -0.9803 -0.0675  0.0671
 3671TIP3   OH210976   1.514   4.156   1.424 -0.2684 -0.1480 -0.3344
 3671TIP3    H110977   1.484   4.232   1.473  0.3712  1.0845 -1.7889
 3671TIP3    H210978   1.444   4.139   1.361  0.0179 -0.1654 -0.6494
 3672TIP3   OH210979   1.832   4.460   2.972  0.5059 -0.0845 -0.1254
 3672TIP3    H110980   1.888   4.475   2.896 -1.9229 -2.1772 -2.5571
 3672TIP3    H210981   1.824   4.365   2.977 -0.6708  0.0662  1.8056
 3673TIP3   OH210982   1.840   4.480   5.200 -0.1857 -0.5489  0.3551
 3673TIP3    H110983   1.919   4.438   5.166 -1.0177 -1.3612 -0.6450
 3673TIP3    H210984   1.835   4.563   5.151 -0.3765 -0.8659 -0.1701
 3674TIP3   OH210985   3.211   3.279   2.683 -0.2427  0.3381  0.5345
 3674TIP3    H110986   3.293   3.238   2.654  0.0541  0.8612  0.6068
 3674TIP3    H210987   3.195   3.241   2.769 -0.1684  0.1030  0.4454
 3675TIP3   OH210988   4.694   0.471   0.531 -0.3906  0.1307 -0.6151
 3675TIP3    H110989   4.630   0.542   0.523  0.1295  0.5217 -1.3654
 3675TIP3    H210990   4.779   0.515   0.534 -0.0112 -0.4907 -1.8441
 3676TIP3   OH210991   4.798   6.079   4.685 -0.3608 -0.1383  0.1572
 3676TIP3    H110992   4.791   5.993   4.643  0.5218 -0.6958  1.0979
 3676TIP3    H210993   4.721   6.127   4.655 -0.6282 -1.1034 -0.7396
 3677TIP3   OH210994   6.622   3.556   2.849  0.2808 -0.1563  0.1212
 3677TIP3    H110995   6.596   3.470   2.816  0.7965 -0.6352  0.9579
 3677TIP3    H210996   6.544   3.610   2.836 -0.7305 -1.2410  1.3845
 3678TIP3   OH210997   4.121   4.457   2.993 -0.2735  0.0573 -0.2812
 3678TIP3    H110998   4.116   4.377   3.044  0.0547  0.4027  0.2957
 3678TIP3    H210999   4.207   4.454   2.950 -0.7931 -0.5313 -1.3333
 3679TIP3   OH211000   5.971   4.162   4.679 -0.3331  0.2126  0.3575
 3679TIP3    H111001   6.045   4.111   4.647  1.1699  3.2588 -1.4970
 3679TIP3    H211002   5.904   4.152   4.611  0.2303  1.2205 -0.3604
 3680TIP3   OH211003   3.832   2.405   5.172  0.0993 -0.5699 -0.5516
 3680TIP3    H111004   3.764   2.341   5.151  0.5107 -0.7529 -1.3549
 3680TIP3    H211005   3.835   2.406   5.267 -0.1814 -1.4623 -0.5232
 3681TIP3   OH211006   5.706   2.627   3.569 -0.8486 -0.0465 -0.2139
 3681TIP3    H111007   5.753   2.710   3.559 -0.0927 -0.4696 -0.2257
 3681TIP3    H211008   5.661   2.615   3.485 -0.9254  0.3352 -0.2278
 3682TIP3   OH211009   6.559   2.827   2.918  0.2581  0.0314 -0.0249
 3682TIP3    H111010   6.650   2.798   2.924  0.4112  0.1311 -1.4471
 3682TIP3    H211011   6.521   2.772   2.849 -0.5222  0.5829 -0.0518
 3683TIP3   OH211012   7.002   6.551   0.364 -0.1967 -0.0016  0.0859
 3683TIP3    H111013   6.923   6.598   0.337 -0.0212 -0.1916 -0.7984
 3683TIP3    H211014   6.970   6.471   0.404 -0.4630  0.1353  0.1483
 3684TIP3   OH211015   4.745   2.315   5.722 -0.1927 -0.3303  0.2758
 3684TIP3    H111016   4.778   2.240   5.671  0.7365  0.7016 -0.7018
 3684TIP3    H211017   4.734   2.384   5.657 -1.8729  0.1458  1.0169
 3685TIP3   OH211018   5.586   6.191   4.975  0.5540  0.3128  0.0454
 3685TIP3    H111019   5.516   6.245   5.010  0.9795 -0.2741  1.9454
 3685TIP3    H211020   5.579   6.199   4.880 -1.2966  1.2278  0.2327
 3686TIP3   OH211021   6.143   3.964   4.546  0.4092  0.6079  0.1578
 3686TIP3    H111022   6.183   3.918   4.619 -0.0043  0.8353  0.5349
 3686TIP3    H211023   6.214   3.978   4.484  0.8710  0.8225  0.7256
 3687TIP3   OH211024   1.496   3.524   3.915  0.3759  0.3882 -0.2752
 3687TIP3    H111025   1.575   3.574   3.895  0.6896 -0.0300 -0.1078
 3687TIP3    H211026   1.521   3.433   3.899  0.1957  0.1704  0.6000
 3688TIP3   OH211027   7.115   6.781   1.856  0.3354  0.1710 -0.0640
 3688TIP3    H111028   7.168   6.704   1.877  0.4663 -0.3756 -2.0896
 3688TIP3    H211029   7.146   6.849   1.916  0.4505 -1.2482  1.5473
 3689TIP3   OH211030   5.613   0.452   1.997 -0.3443  0.0251  0.3088
 3689TIP3    H111031   5.657   0.535   1.978  0.2744 -0.7729 -2.0072
 3689TIP3    H211032   5.668   0.386   1.956 -1.0670 -1.5300  1.7390
 3690TIP3   OH211033   6.232   1.740   3.240 -0.3994  0.3893 -0.2247
 3690TIP3    H111034   6.324   1.765   3.230  0.3176 -2.4161 -1.7006
 3690TIP3    H211035   6.235   1.647   3.265 -2.8388  0.0455 -0.9694
 3691TIP3   OH211036   4.015   2.294   5.012  0.1162 -0.9656  1.0718
 3691TIP3    H111037   4.029   2.365   4.949  0.6481 -0.5281  1.6739
 3691TIP3    H211038   3.949   2.328   5.072  0.5458 -0.8885  1.5015
 3692TIP3   OH211039   4.142   2.817   5.329 -0.3238 -0.2717  0.2678
 3692TIP3    H111040   4.085   2.853   5.261  0.7927 -2.2398 -1.8355
 3692TIP3    H211041   4.231   2.835   5.298  0.2217 -2.4033  0.4689
 3693TIP3   OH211042   1.969   1.858   1.272  0.0762  0.6572  0.5892
 3693TIP3    H111043   1.996   1.943   1.307 -1.7159  0.5657  2.3665
 3693TIP3    H211044   1.911   1.880   1.199  1.3093  0.8956 -0.3493
 3694TIP3   OH211045   6.665   3.267   0.568  0.5168 -0.1183  0.3052
 3694TIP3    H111046   6.706   3.262   0.481  0.7184 -0.4795  0.4205
 3694TIP3    H211047   6.573   3.286   0.549  1.0456  2.6780  0.0969
 3695TIP3   OH211048   6.613   2.827   4.482  0.4630 -0.0957 -0.2478
 3695TIP3    H111049   6.557   2.780   4.420  0.2841  0.2236 -0.3312
 3695TIP3    H211050   6.553   2.861   4.547  0.5640  0.2108 -0.3130
 3696TIP3   OH211051   1.784   6.426   5.129  0.0601 -0.3200 -0.7792
 3696TIP3    H111052   1.759   6.345   5.172  1.7139 -0.7828 -0.6456
 3696TIP3    H211053   1.771   6.494   5.196  2.1657 -0.9738  0.3503
 3697TIP3   OH211054   3.109   2.385   5.288  0.2830 -0.0637 -0.4111
 3697TIP3    H111055   3.095   2.365   5.195  1.0555  1.7648 -0.9676
 3697TIP3    H211056   3.021   2.407   5.320 -0.1986 -1.8771 -0.3423
 3698TIP3   OH211057   7.098   4.982   2.879 -0.2742  0.2071  0.1584
 3698TIP3    H111058   7.156   4.976   2.955  0.2643  1.2244 -0.1532
 3698TIP3    H211059   7.150   4.948   2.806  0.4211  2.2837 -0.3628
 3699TIP3   OH211060   3.854   5.465   3.617  0.2331 -0.3937 -0.7698
 3699TIP3    H111061   3.933   5.429   3.658  0.2225  0.6578  0.2270
 3699TIP3    H211062   3.785   5.405   3.643  0.1223  0.5255  1.3216
 3700TIP3   OH211063   3.474   4.098   0.274  0.5002 -0.1674  0.5100
 3700TIP3    H111064   3.467   4.178   0.328 -0.5951 -0.8602  1.4606
 3700TIP3    H211065   3.400   4.104   0.214  1.1393  0.1149 -0.2628
 3701TIP3   OH211066   7.042   2.803   4.730  0.2382  0.3845  0.3830
 3701TIP3    H111067   7.006   2.727   4.775  1.0534 -0.2283  0.0171
 3701TIP3    H211068   7.049   2.870   4.798  1.5897 -0.5644  1.2400
 3702TIP3   OH211069   1.860   5.881   1.422 -0.2201 -0.0323 -0.1649
 3702TIP3    H111070   1.822   5.794   1.411  0.2001 -0.1548 -0.6787
 3702TIP3    H211071   1.890   5.906   1.335  2.3839 -0.6645  0.4620
 3703TIP3   OH211072   5.299   1.937   1.581  0.1305 -0.2298 -0.6157
 3703TIP3    H111073   5.276   1.966   1.669  0.2688 -0.2306 -0.5797
 3703TIP3    H211074   5.391   1.910   1.587  0.0680 -0.4620 -0.7015
 3704TIP3   OH211075   2.440   0.074   3.816 -0.1803 -0.1366  0.2815
 3704TIP3    H111076   2.478   0.010   3.877  0.7638 -0.1711 -0.3119
 3704TIP3    H211077   2.350   0.085   3.845  0.1112 -0.5251  1.3776
 3705TIP3   OH211078   6.530   0.780   0.546 -0.3260  0.4804  0.4924
 3705TIP3    H111079   6.519   0.833   0.625  0.7224  0.1872  0.8527
 3705TIP3    H211080   6.443   0.746   0.528 -0.9961  2.1846  0.3359
 3706TIP3   OH211081   4.733   2.193   0.059 -0.1456 -0.1703  0.1732
 3706TIP3    H111082   4.659   2.253   0.057  0.1451  0.2308  1.0583
 3706TIP3    H211083   4.755   2.185   0.152  0.0712 -1.3395  0.0408
 3707TIP3   OH211084   4.136   1.671   0.599  0.0264  0.3121  0.3589
 3707TIP3    H111085   4.223   1.647   0.630 -0.2853  0.5064  1.4043
 3707TIP3    H211086   4.114   1.750   0.648 -0.3674  0.7957 -0.5682
 3708TIP3   OH211087   1.192   6.132   4.887  0.2945 -0.2407  0.8026
 3708TIP3    H111088   1.227   6.220   4.873 -1.2595  0.2286 -0.3362
 3708TIP3    H211089   1.253   6.075   4.840  0.6204  0.3590  0.4870
 3709TIP3   OH211090   2.752   5.136   2.430  0.7572 -0.2293 -0.6511
 3709TIP3    H111091   2.791   5.061   2.476 -0.4362 -0.6554 -0.3067
 3709TIP3    H211092   2.658   5.128   2.446  0.6405  1.5958 -0.2516
 3710TIP3   OH211093   6.377   0.883   2.984 -0.5557  0.2541  0.4352
 3710TIP3    H111094   6.340   0.844   2.905  0.0978  0.6952 -0.1059
 3710TIP3    H211095   6.472   0.872   2.974 -0.4700  0.2516  1.1891
 3711TIP3   OH211096   4.806   3.170   5.024 -0.0745  0.4614  0.1685
 3711TIP3    H111097   4.713   3.167   5.046  0.3788 -0.3405  2.2184
 3711TIP3    H211098   4.850   3.177   5.109  1.7251  1.2379 -0.7901
 3712TIP3   OH211099   4.518   3.283   5.536  0.2308 -0.3473 -0.3428
 3712TIP3    H111100   4.547   3.227   5.608  1.5101  1.9647  1.0542
 3712TIP3    H211101   4.426   3.301   5.557  0.4612 -0.0611  0.4706
 3713TIP3   OH211102   3.396   4.182   1.674 -0.1844 -0.2951  0.3698
 3713TIP3    H111103   3.425   4.185   1.583 -1.7002 -3.2168 -0.3422
 3713TIP3    H211104   3.475   4.201   1.725  1.0607 -0.0981 -1.5276
 3714TIP3   OH211105   4.246   6.498   1.504  0.3132  0.4648  0.3432
 3714TIP3    H111106   4.250   6.483   1.598 -0.6408 -1.0935  0.1888
 3714TIP3    H211107   4.276   6.588   1.492 -0.1909  0.9269  2.1922
 3715TIP3   OH211108   5.766   1.855   5.193 -0.3889  0.1029 -0.1016
 3715TIP3    H111109   5.833   1.921   5.176  0.3755  0.0554  2.3124
 3715TIP3    H211110   5.755   1.810   5.110  1.0599  1.4751 -1.1004
 3716TIP3   OH211111   3.540   1.185   2.912  0.3009 -0.5729  0.2103
 3716TIP3    H111112   3.556   1.091   2.900  1.8515 -0.2342 -0.5391
 3716TIP3    H211113   3.548   1.222   2.824  1.9959  0.5613  0.7942
 3717TIP3   OH211114   4.891   4.115   5.180  0.4053  0.1345  0.0512
 3717TIP3    H111115   4.945   4.078   5.250  1.1567 -1.0385 -1.1068
 3717TIP3    H211116   4.918   4.068   5.101  0.0192  1.8365 -1.1554
 3718TIP3   OH211117   0.090   6.369   4.790  0.2558  0.4837 -0.2973
 3718TIP3    H111118   0.025   6.320   4.739 -0.1867  0.7744 -0.0191
 3718TIP3    H211119   0.074   6.460   4.769 -0.8118  0.7185  1.3472
 3719TIP3   OH211120   4.273   0.022   4.116 -0.6086  0.1105 -0.6643
 3719TIP3    H111121   4.282   0.095   4.055  0.7979  2.0198  1.6627
 3719TIP3    H211122   4.190   0.039   4.161 -1.2552 -0.8656 -1.4384
 3720TIP3   OH211123   4.920   0.294   1.662  0.0648  0.0249 -0.2132
 3720TIP3    H111124   4.858   0.352   1.619  0.8353 -0.2559 -1.7538
 3720TIP3    H211125   4.945   0.341   1.742 -1.2739  0.6256 -0.1275
 3721TIP3   OH211126   6.987   6.235   3.705  0.0130 -0.0243 -0.9054
 3721TIP3    H111127   6.899   6.254   3.671 -0.0972 -0.9182 -1.1587
 3721TIP3    H211128   7.044   6.300   3.664 -0.3775 -0.0802 -1.5410
 3722TIP3   OH211129   5.749   4.396   4.273 -0.0733 -0.3890 -0.3155
 3722TIP3    H111130   5.704   4.338   4.212 -0.3364  1.2200 -1.7455
 3722TIP3    H211131   5.824   4.346   4.304 -0.3861 -1.5438 -1.3547
 3723TIP3   OH211132   5.811   4.545   1.786 -0.1212  0.0276  0.2336
 3723TIP3    H111133   5.850   4.624   1.747  0.5043  0.2779  1.3190
 3723TIP3    H211134   5.763   4.578   1.862 -2.8431 -0.2200 -1.2460
 3724TIP3   OH211135   6.156   6.754   4.344  0.6578 -0.3542 -0.8708
 3724TIP3    H111136   6.173   6.799   4.426 -2.1414  1.4010 -1.1180
 3724TIP3    H211137   6.195   6.668   4.355  2.6337  0.7097  1.2415
 3725TIP3   OH211138   5.060   0.929   4.331 -0.4068  0.1950 -0.0738
 3725TIP3    H111139   5.072   0.834   4.325 -0.0172  0.2907 -1.1274
 3725TIP3    H211140   5.149   0.964   4.326 -0.5914  0.6345 -0.3223
 3726TIP3   OH211141   2.088   6.678   1.397  0.6771 -0.2503  0.2092
 3726TIP3    H111142   2.075   6.714   1.309  0.7955 -0.7543 -0.0165
 3726TIP3    H211143   2.137   6.746   1.443 -0.1420  0.3947  0.1610
 3727TIP3   OH211144   1.058   4.888   5.501 -0.0999 -0.0736 -0.0125
 3727TIP3    H111145   1.104   4.878   5.584  0.3519 -0.7000 -0.3229
 3727TIP3    H211146   1.127   4.914   5.439 -0.4170  0.3211 -0.2047
 3728TIP3   OH211147   3.016   4.165   4.373 -0.1033  0.3652 -0.8485
 3728TIP3    H111148   3.079   4.095   4.363  1.8668  2.0278 -0.8222
 3728TIP3    H211149   3.008   4.176   4.468  0.2640  0.7181 -0.8541
 3729TIP3   OH211150   4.971   3.511   2.556  0.4410  0.2249  0.6049
 3729TIP3    H111151   5.061   3.533   2.531  0.1900  0.8903  0.2505
 3729TIP3    H211152   4.933   3.594   2.584 -0.3536  0.1468 -0.1890
 3730TIP3   OH211153   5.006   0.463   5.321  0.2144  0.1406  0.3019
 3730TIP3    H111154   4.937   0.407   5.357  1.0866 -0.9347  0.3555
 3730TIP3    H211155   4.963   0.547   5.304 -1.2475 -0.6965 -0.2698
 3731TIP3   OH211156   5.431   3.320   3.032  0.6288 -0.3508 -0.8986
 3731TIP3    H111157   5.521   3.304   3.005  0.5761 -2.1433 -0.0989
 3731TIP3    H211158   5.379   3.298   2.956  0.7563 -1.0907 -0.7737
 3732TIP3   OH211159   3.708   6.059   4.611  0.2819  0.9444 -0.0893
 3732TIP3    H111160   3.721   5.973   4.652 -2.3303  0.8016  0.5937
 3732TIP3    H211161   3.791   6.077   4.567  0.9977 -1.7998 -0.0376
 3733TIP3   OH211162   5.728   2.369   2.066  0.1830 -0.5876 -0.2658
 3733TIP3    H111163   5.749   2.442   2.124  1.2085 -0.0639 -1.2352
 3733TIP3    H211164   5.758   2.291   2.113  0.6890 -0.2056  0.0582
 3734TIP3   OH211165   0.091   6.675   5.490 -0.0145 -0.3885 -0.5127
 3734TIP3    H111166   0.105   6.723   5.572 -0.4742  0.8024 -1.0984
 3734TIP3    H211167   0.016   6.618   5.508 -0.0252 -0.2357 -0.0554
 3735TIP3   OH211168   6.106   1.343   4.735  0.0334  0.5328  0.0966
 3735TIP3    H111169   6.180   1.403   4.735  0.0150  0.5590 -0.7702
 3735TIP3    H211170   6.123   1.283   4.663  0.2937 -0.8283  1.2268
 3736TIP3   OH211171   4.079   5.114   3.859  0.0302  0.4814  0.4182
 3736TIP3    H111172   4.035   5.047   3.912 -4.0497  3.8174  1.8723
 3736TIP3    H211173   4.147   5.148   3.916  1.0470 -1.2204  0.2862
 3737TIP3   OH211174   1.258   1.740   0.747 -0.3713  0.8245 -0.0038
 3737TIP3    H111175   1.189   1.761   0.811 -0.2076 -1.4989  1.0434
 3737TIP3    H211176   1.262   1.817   0.691 -2.1982  1.9977  1.3260
 3738TIP3   OH211177   0.807   2.886   0.910  0.5846  0.7862 -0.1848
 3738TIP3    H111178   0.882   2.944   0.929  0.2086  0.7520  1.6227
 3738TIP3    H211179   0.795   2.835   0.990 -1.9572  1.4552 -0.0419
 3739TIP3   OH211180   1.072   3.582   1.698  0.2701  0.2030  0.0084
 3739TIP3    H111181   1.111   3.607   1.614 -0.4967  1.5564  0.0329
 3739TIP3    H211182   1.136   3.522   1.737  2.3317  2.2563 -0.0082
 3740TIP3   OH211183   4.285   4.362   3.795 -0.4080 -0.3620 -0.5820
 3740TIP3    H111184   4.307   4.365   3.888 -0.7765 -0.9766 -0.4681
 3740TIP3    H211185   4.333   4.287   3.760 -0.8945 -0.6259 -0.7073
 3741TIP3   OH211186   1.798   2.759   5.726  0.2270 -0.1925  0.4357
 3741TIP3    H111187   1.820   2.699   5.797 -0.5484 -0.5697  0.3662
 3741TIP3    H211188   1.709   2.734   5.700  0.3911  0.1285 -0.4720
 3742TIP3   OH211189   2.530   0.633   0.421  0.3551 -0.1022 -0.2005
 3742TIP3    H111190   2.506   0.663   0.333  1.5778  0.8193 -0.2458
 3742TIP3    H211191   2.500   0.542   0.424 -2.9853  0.8795 -0.2706
 3743TIP3   OH211192   0.751   2.850   2.398 -0.3773  0.3822  0.1884
 3743TIP3    H111193   0.668   2.815   2.432 -0.2932  0.2774  0.2849
 3743TIP3    H211194   0.724   2.912   2.330 -0.5698  1.1081  0.9127
 3744TIP3   OH211195   4.074   0.876   2.371 -0.6495  0.1803  0.3513
 3744TIP3    H111196   4.088   0.834   2.456 -0.5657 -0.3485  0.0755
 3744TIP3    H211197   3.983   0.905   2.374 -0.3115  1.2360  1.0896
 3745TIP3   OH211198   5.503   3.907   2.977  0.1473  0.8799 -0.2597
 3745TIP3    H111199   5.551   3.861   2.908  2.8641  2.9803  0.0368
 3745TIP3    H211200   5.543   3.876   3.058 -0.5697  1.0519  0.1643
 3746TIP3   OH211201   2.675   3.879   1.639  0.6185  0.2229  0.3107
 3746TIP3    H111202   2.579   3.889   1.636  0.8203  2.9126  0.6948
 3746TIP3    H211203   2.701   3.876   1.547  0.3872  3.3275  0.0343
 3747TIP3   OH211204   0.135   0.566   5.836  0.1182 -0.0820  0.1816
 3747TIP3    H111205   0.054   0.517   5.821 -0.2836  0.6648 -0.1710
 3747TIP3    H211206   0.178   0.521   5.909 -1.3244  0.3686  1.3551
 3748TIP3   OH211207   6.801   2.640   4.237  0.6033 -0.4649 -0.0598
 3748TIP3    H111208   6.774   2.599   4.320  2.9808 -2.0920  0.0272
 3748TIP3    H211209   6.878   2.691   4.260  0.2078  0.5722 -0.9795
 3749TIP3   OH211210   5.645   5.043   2.096 -0.1059 -0.4835  0.8411
 3749TIP3    H111211   5.619   4.973   2.036  0.3790 -0.2067  0.3011
 3749TIP3    H211212   5.604   5.122   2.060 -0.6047 -0.4686  1.4168
 3750TIP3   OH211213   4.298   2.514   3.101  0.2117 -0.2905 -0.2287
 3750TIP3    H111214   4.247   2.448   3.148  0.1512  0.2644  0.5029
 3750TIP3    H211215   4.260   2.515   3.013  0.6599 -1.7082 -0.4645
 3751TIP3   OH211216   1.886   2.182   5.001  0.0907  0.2310 -0.0507
 3751TIP3    H111217   1.892   2.232   5.083  0.3944 -2.4169  1.6764
 3751TIP3    H211218   1.795   2.190   4.974 -0.2420  0.3922  1.0793
 3752TIP3   OH211219   3.692   3.929   4.865  0.3043  0.1139 -0.4261
 3752TIP3    H111220   3.682   4.013   4.909  0.3406 -0.1325  0.0567
 3752TIP3    H211221   3.700   3.952   4.772  0.5150  0.6549 -0.2796
 3753TIP3   OH211222   1.235   2.302   2.335 -0.1044 -0.6646  0.1886
 3753TIP3    H111223   1.198   2.291   2.423 -1.0454 -1.2834 -0.2746
 3753TIP3    H211224   1.317   2.254   2.338 -1.5673 -3.3428 -0.1502
 3754TIP3   OH211225   2.396   0.990   4.601  0.2779 -0.1104 -0.4631
 3754TIP3    H111226   2.383   1.080   4.633 -0.2218 -1.0987  2.4282
 3754TIP3    H211227   2.310   0.949   4.613  0.8583 -1.3429 -0.4558
 3755TIP3   OH211228   6.466   6.581   4.389 -0.8392  0.0660 -0.0801
 3755TIP3    H111229   6.452   6.642   4.462 -3.0840 -0.9602  0.4598
 3755TIP3    H211230   6.381   6.537   4.379 -0.1441 -0.9015 -2.3479
 3756TIP3   OH211231   3.933   2.772   3.759 -0.1154 -1.0858  0.2962
 3756TIP3    H111232   3.937   2.793   3.852  0.4742  0.4965 -0.0546
 3756TIP3    H211233   3.927   2.677   3.756 -1.9213 -1.0949  1.9999
 3757TIP3   OH211234   0.310   1.074   3.905 -0.0574 -0.3137 -0.0431
 3757TIP3    H111235   0.315   0.979   3.898  1.3455 -0.2968  0.4666
 3757TIP3    H211236   0.324   1.106   3.816 -0.9418 -0.5705 -0.2905
 3758TIP3   OH211237   3.423   0.840   3.765  0.1987  0.2679  0.0313
 3758TIP3    H111238   3.372   0.863   3.688 -2.1207  2.5931  2.0487
 3758TIP3    H211239   3.510   0.876   3.748  0.7414 -1.9883 -2.6496
 3759TIP3   OH211240   1.024   0.163   4.436 -0.0346  0.1470  0.0509
 3759TIP3    H111241   1.085   0.090   4.435  0.2305  0.3655 -1.2323
 3759TIP3    H211242   1.013   0.184   4.529  2.4454  0.6052  0.3005
 3760TIP3   OH211243   6.632   4.282   0.901 -0.0025  0.4462 -0.0847
 3760TIP3    H111244   6.657   4.370   0.928  0.7614  0.8304 -1.9390
 3760TIP3    H211245   6.675   4.225   0.966  0.5770  1.3690  0.3702
 3761TIP3   OH211246   4.490   4.415   2.530  0.1237  0.1581 -0.0358
 3761TIP3    H111247   4.500   4.488   2.469  1.5209  0.3268  0.3684
 3761TIP3    H211248   4.485   4.337   2.475 -1.0229  0.5081 -0.4547
 3762TIP3   OH211249   5.219   6.050   1.877 -0.3874 -0.0067  0.0379
 3762TIP3    H111250   5.282   5.979   1.866 -0.1637 -0.0387  1.3903
 3762TIP3    H211251   5.243   6.091   1.961 -1.1425  1.0219 -0.2267
 3763TIP3   OH211252   1.688   4.731   5.508 -0.3704 -0.1230  0.0117
 3763TIP3    H111253   1.767   4.708   5.556 -0.2956  0.3231  0.1043
 3763TIP3    H211254   1.636   4.783   5.569  0.1921  1.3374 -0.7062
 3764TIP3   OH211255   2.182   3.925   3.790 -0.3786  0.5653  0.1387
 3764TIP3    H111256   2.192   3.956   3.700 -1.0449 -0.2999 -0.2469
 3764TIP3    H211257   2.166   3.831   3.782 -2.3792  0.7685  1.0276
 3765TIP3   OH211258   1.671   5.486   5.490  0.4277  0.1407 -0.2129
 3765TIP3    H111259   1.728   5.410   5.499  0.6431  0.2032 -0.9242
 3765TIP3    H211260   1.695   5.523   5.404  0.1928  0.8933  0.0381
 3766TIP3   OH211261   5.811   6.165   2.123 -0.0914 -0.3170  0.1156
 3766TIP3    H111262   5.888   6.109   2.128  0.1732  0.0862  0.7672
 3766TIP3    H211263   5.741   6.107   2.093 -0.2067 -1.4446  2.3488
 3767TIP3   OH211264   0.300   0.350   3.075 -0.3129  0.6128 -0.2176
 3767TIP3    H111265   0.274   0.263   3.043  0.8380  0.4996 -0.8990
 3767TIP3    H211266   0.348   0.389   3.002 -2.6257  2.7326 -0.7565
 3768TIP3   OH211267   0.084   1.001   3.419  0.3992  0.8834 -0.3633
 3768TIP3    H111268   0.061   0.948   3.495  2.1965  2.2402  1.2090
 3768TIP3    H211269   0.113   0.938   3.354 -3.1086 -0.4978 -0.8084
 3769TIP3   OH211270   5.657   0.995   4.907  0.0075  0.4575  0.1884
 3769TIP3    H111271   5.717   0.923   4.927 -1.0086 -0.4430  0.0921
 3769TIP3    H211272   5.710   1.058   4.859  1.3584  0.5815  1.7605
 3770TIP3   OH211273   0.924   6.369   4.213  0.1871  0.2002 -0.7420
 3770TIP3    H111274   0.869   6.293   4.193  1.8337 -1.9646  2.0265
 3770TIP3    H211275   0.864   6.432   4.254 -1.2176  0.4876 -3.0958
 3771TIP3   OH211276   6.898   6.732   0.005 -0.4843  0.1836 -0.2731
 3771TIP3    H111277   6.894   6.679   0.085  0.7458  0.8732  0.2695
 3771TIP3    H211278   6.970   6.695  -0.045 -0.7955  0.2051 -0.7510
 3772TIP3   OH211279   6.291   3.469   2.280  0.5568  0.2120 -0.3485
 3772TIP3    H111280   6.295   3.423   2.196 -0.8486  0.6954 -0.7091
 3772TIP3    H211281   6.336   3.410   2.341 -0.9348 -1.5622 -0.8525
 3773TIP3   OH211282   5.077   1.566   1.566 -0.0287 -0.1698  0.0952
 3773TIP3    H111283   5.127   1.499   1.612  0.4216  0.2138  0.1703
 3773TIP3    H211284   5.128   1.587   1.488 -0.1368  0.1246  0.0996
 3774TIP3   OH211285   0.091   6.563   0.048 -0.0089 -0.7575  0.3073
 3774TIP3    H111286   0.049   6.642   0.083 -0.5912 -1.3284  0.9227
 3774TIP3    H211287   0.022   6.498   0.046  0.8433 -1.7305  1.3592
 3775TIP3   OH211288   2.347   4.736   0.797 -0.4833  0.4673  0.2022
 3775TIP3    H111289   2.319   4.692   0.716  1.3191  1.3043 -0.9384
 3775TIP3    H211290   2.333   4.829   0.779  3.7016  1.1034 -0.9104
 3776TIP3   OH211291   0.770   5.069   1.957  0.0817 -0.3294 -0.1853
 3776TIP3    H111292   0.860   5.092   1.936 -0.4232  1.9055 -0.1869
 3776TIP3    H211293   0.755   5.107   2.043 -1.2696  0.5868 -0.7962
 3777TIP3   OH211294   2.105   2.065   4.834  0.3668 -0.2044 -0.2693
 3777TIP3    H111295   2.173   2.132   4.838  0.7780 -0.6512  0.2005
 3777TIP3    H211296   2.034   2.101   4.888  0.1812  0.3028 -0.8357
 3778TIP3   OH211297   6.056   4.399   1.596 -0.2444  0.1093 -0.8281
 3778TIP3    H111298   6.078   4.420   1.505 -0.7088 -0.2224 -1.0213
 3778TIP3    H211299   6.105   4.318   1.614 -0.5344 -0.0956 -0.9459
 3779TIP3   OH211300   3.399   0.701   5.170  0.2655  0.4360 -0.0259
 3779TIP3    H111301   3.387   0.788   5.210 -0.6369 -0.9543  3.0341
 3779TIP3    H211302   3.367   0.712   5.081  0.8823  3.4206 -0.0009
 3780TIP3   OH211303   6.008   3.620   5.709  0.1559 -0.4881 -0.3331
 3780TIP3    H111304   5.944   3.554   5.681 -0.3092 -0.4185  0.5427
 3780TIP3    H211305   6.076   3.571   5.755  0.4330 -0.4888 -0.7338
 3781TIP3   OH211306   4.764   1.996   2.564 -0.3673  0.3395 -0.2479
 3781TIP3    H111307   4.706   2.063   2.600 -1.9186 -0.2618 -1.5060
 3781TIP3    H211308   4.789   2.030   2.478 -0.4498 -0.2951 -0.5233
 3782TIP3   OH211309   6.362   0.132   5.803 -0.1903 -0.0762  0.1805
 3782TIP3    H111310   6.428   0.201   5.807 -0.8379  0.5117  0.9906
 3782TIP3    H211311   6.310   0.143   5.883 -1.3161 -0.4740 -0.4744
 3783TIP3   OH211312   1.521   4.439   0.002  0.4920 -0.3442  0.1676
 3783TIP3    H111313   1.573   4.362   0.027  1.4075  0.9695  2.6290
 3783TIP3    H211314   1.442   4.432   0.056  0.4181  0.2499  0.1355
 3784TIP3   OH211315   4.376   0.299   5.283 -0.0002 -0.0736 -0.6023
 3784TIP3    H111316   4.432   0.369   5.250  0.0772 -0.0965 -0.5219
 3784TIP3    H211317   4.339   0.259   5.205  0.8621 -0.6910 -0.7093
 3785TIP3   OH211318   6.024   4.125   1.393 -0.7521  0.2706 -0.2492
 3785TIP3    H111319   6.017   4.162   1.305  0.8581 -0.5209 -0.7463
 3785TIP3    H211320   5.965   4.049   1.391 -0.1493 -0.1959 -0.9134
 3786TIP3   OH211321   0.575   0.981   0.233 -0.4847 -0.4359 -0.1820
 3786TIP3    H111322   0.565   0.888   0.254  0.3951 -0.3727  0.5514
 3786TIP3    H211323   0.648   0.985   0.171 -0.1992 -0.1916  0.1645
 3787TIP3   OH211324   3.718   4.326   3.175 -0.3327 -0.5301  0.1941
 3787TIP3    H111325   3.630   4.355   3.201  0.5083  0.7029  1.8659
 3787TIP3    H211326   3.713   4.230   3.179 -1.6514 -0.4864  0.0820
 3788TIP3   OH211327   5.787   0.199   1.599  0.4553  0.0674  0.6267
 3788TIP3    H111328   5.821   0.111   1.583 -0.5568 -0.0825 -1.0085
 3788TIP3    H211329   5.854   0.257   1.563  0.0698 -0.1567 -0.5317
 3789TIP3   OH211330   4.983   2.342   0.624 -0.0247  0.0369 -0.5939
 3789TIP3    H111331   4.896   2.354   0.661 -0.0945 -0.8831 -0.4539
 3789TIP3    H211332   4.968   2.326   0.531  0.0790  1.0628 -0.8066
 3790TIP3   OH211333   1.087   0.701   4.915 -0.0203  0.2357 -0.1793
 3790TIP3    H111334   1.030   0.734   4.984 -0.4750  0.6140 -0.7300
 3790TIP3    H211335   1.103   0.776   4.858 -1.5011 -0.5831 -1.7426
 3791TIP3   OH211336   6.571   6.220   1.895 -0.5178  0.2851  0.4275
 3791TIP3    H111337   6.518   6.274   1.954  0.6822  2.1028 -0.0508
 3791TIP3    H211338   6.523   6.220   1.812 -0.6849  0.3514  0.5250
 3792TIP3   OH211339   0.684   6.308   0.714 -0.1393 -0.0216  0.1972
 3792TIP3    H111340   0.642   6.362   0.781 -0.7527 -1.0793  0.6944
 3792TIP3    H211341   0.652   6.220   0.731  1.1737 -0.6314 -0.3195
 3793TIP3   OH211342   2.343   4.470   3.393  0.3425 -0.0132  0.3309
 3793TIP3    H111343   2.354   4.488   3.299  1.5635 -0.0067  0.4617
 3793TIP3    H211344   2.259   4.511   3.415  0.2014  0.2798 -0.6860
 3794TIP3   OH211345   0.091   4.633   5.282 -0.4405 -0.6584 -0.2426
 3794TIP3    H111346   0.121   4.580   5.207 -1.0374 -0.1521 -0.8475
 3794TIP3    H211347   0.063   4.716   5.243 -1.6722 -0.7434  0.4161
 3795TIP3   OH211348   0.809   2.678   0.680 -1.3255 -0.1822  0.1077
 3795TIP3    H111349   0.797   2.720   0.765 -1.7914 -0.5984  0.2546
 3795TIP3    H211350   0.862   2.740   0.630  1.2439 -1.0789  1.5589
 3796TIP3   OH211351   4.305   4.165   0.985 -0.5731 -0.2288  0.1015
 3796TIP3    H111352   4.323   4.243   1.038 -1.9079  0.1154  0.0848
 3796TIP3    H211353   4.218   4.136   1.015 -1.6939  0.3644 -2.3209
 3797TIP3   OH211354   0.020   3.128   2.299 -0.3528 -0.0054 -0.4247
 3797TIP3    H111355   0.073   3.093   2.228  0.0972  0.4321 -0.3104
 3797TIP3    H211356   0.075   3.196   2.339 -0.2367 -0.8221  0.8832
 3798TIP3   OH211357   4.183   1.397   5.187 -0.0862 -0.0708  0.3819
 3798TIP3    H111358   4.176   1.302   5.188 -0.9420 -0.0504 -1.1284
 3798TIP3    H211359   4.115   1.426   5.249 -0.7950 -0.4175 -0.2160
 3799TIP3   OH211360   1.483   5.334   4.872  0.2132 -0.1309  0.1233
 3799TIP3    H111361   1.572   5.347   4.841  0.1340 -0.9137 -0.4720
 3799TIP3    H211362   1.471   5.239   4.870 -0.1782 -0.1325  1.4866
 3800TIP3   OH211363   2.878   5.156   5.330  0.1021 -0.1515 -0.2630
 3800TIP3    H111364   2.947   5.119   5.274 -0.2190 -0.7557 -0.2642
 3800TIP3    H211365   2.802   5.100   5.315 -0.0207 -0.2574  0.6973
 3801TIP3   OH211366   1.708   2.117   2.915 -0.1559  0.7297 -0.6645
 3801TIP3    H111367   1.731   2.046   2.976 -0.3129  0.3382 -1.0550
 3801TIP3    H211368   1.784   2.123   2.857 -0.7128 -0.0757 -1.5064
 3802TIP3   OH211369   0.751   0.343   3.940  0.0872  0.1144 -0.0353
 3802TIP3    H111370   0.805   0.273   3.977  2.4513  2.1145  0.5561
 3802TIP3    H211371   0.661   0.319   3.963  0.6109 -3.2849 -0.9025
 3803TIP3   OH211372   3.461   1.476   0.516 -0.0803 -0.3118 -0.7474
 3803TIP3    H111373   3.496   1.387   0.526  1.1819  0.3325  0.9727
 3803TIP3    H211374   3.532   1.525   0.474 -0.0337  0.3113  0.0322
 3804TIP3   OH211375   1.679   3.162   2.650  0.2378 -0.0178  0.4523
 3804TIP3    H111376   1.587   3.167   2.626 -0.0295  1.6609  1.6264
 3804TIP3    H211377   1.681   3.104   2.726 -0.0451  0.7928  1.1010
 3805TIP3   OH211378   6.330   2.312   0.866 -0.4592  0.3151  0.2137
 3805TIP3    H111379   6.369   2.338   0.782  0.3163 -0.2445  0.3856
 3805TIP3    H211380   6.401   2.266   0.911 -1.0272  0.1731  0.9674
 3806TIP3   OH211381   2.260   0.586   0.103 -0.6339  0.2849 -0.1640
 3806TIP3    H111382   2.181   0.619   0.058 -0.3633  2.2631  0.7097
 3806TIP3    H211383   2.238   0.496   0.126 -2.8388  0.8954  0.4100
 3807TIP3   OH211384   6.555   1.149   1.783 -0.0086  0.3580 -0.0290
 3807TIP3    H111385   6.632   1.193   1.819  2.5490 -1.5562 -2.7442
 3807TIP3    H211386   6.505   1.219   1.742  1.0884  1.4582  0.4301
 3808TIP3   OH211387   5.681   3.259   2.926 -0.1523  0.6050  0.0212
 3808TIP3    H111388   5.626   3.190   2.888 -1.3114  2.4728 -1.9264
 3808TIP3    H211389   5.764   3.252   2.879 -0.4622  0.8534 -0.5820
 3809TIP3   OH211390   0.085   1.633   4.479  0.1724 -0.3334  0.2988
 3809TIP3    H111391   0.177   1.643   4.505 -0.0536 -0.5929  1.2280
 3809TIP3    H211392   0.035   1.676   4.548 -0.4533 -1.1377  0.3585
 3810TIP3   OH211393   6.263   2.824   4.254 -0.4948 -0.2399 -0.0950
 3810TIP3    H111394   6.192   2.863   4.204  0.1550  1.2503  0.0806
 3810TIP3    H211395   6.337   2.884   4.242  1.4169 -2.7557 -1.9244
 3811TIP3   OH211396   6.209   2.473   5.350 -0.3688 -0.1789  0.8007
 3811TIP3    H111397   6.264   2.549   5.369 -0.8706  0.1646  0.8971
 3811TIP3    H211398   6.267   2.412   5.304 -0.9777  1.9535 -3.1759
 3812TIP3   OH211399   6.274   4.690   1.202 -0.1119 -0.2902 -0.0136
 3812TIP3    H111400   6.317   4.624   1.147 -0.4596 -1.4700  1.0729
 3812TIP3    H211401   6.333   4.765   1.200  0.5482 -0.8093 -0.8843
 3813TIP3   OH211402   3.443   6.538   4.979 -0.0786 -0.4825 -0.0413
 3813TIP3    H111403   3.412   6.448   4.987 -1.2925 -0.0960 -0.1069
 3813TIP3    H211404   3.537   6.531   4.965 -0.2695 -1.7725 -0.7849
 3814TIP3   OH211405   3.704   1.396   5.357 -0.2915 -0.1362 -0.0425
 3814TIP3    H111406   3.768   1.446   5.306 -1.1036  1.1042  0.1191
 3814TIP3    H211407   3.629   1.384   5.298 -0.5714 -0.1456  0.3117
 3815TIP3   OH211408   5.971   4.376   0.785 -0.0501 -0.8187 -0.6935
 3815TIP3    H111409   6.057   4.416   0.780 -0.0682 -0.8389 -1.3100
 3815TIP3    H211410   5.913   4.438   0.739 -0.6767 -0.0026  1.1017
 3816TIP3   OH211411   4.711   4.288   5.052  0.5480  0.1300  0.2655
 3816TIP3    H111412   4.771   4.316   4.984  0.5426 -0.4094  0.0339
 3816TIP3    H211413   4.765   4.237   5.112  0.4686  0.2522  0.4409
 3817TIP3   OH211414   4.747   1.912   4.552 -0.6581  0.2614 -0.1853
 3817TIP3    H111415   4.656   1.897   4.528 -1.1374  0.5930  1.3047
 3817TIP3    H211416   4.797   1.855   4.494 -1.8264 -0.0467 -0.9151
 3818TIP3   OH211417   4.685   0.349   1.456 -0.0085 -0.2875 -0.0646
 3818TIP3    H111418   4.710   0.442   1.449  0.0544 -0.3308 -0.4511
 3818TIP3    H211419   4.644   0.329   1.371 -0.0576 -0.6028  0.0332
 3819TIP3   OH211420   6.180   5.045   4.931 -0.1826  0.6807  0.1281
 3819TIP3    H111421   6.090   5.052   4.900 -0.5453 -1.3569  0.6234
 3819TIP3    H211422   6.223   4.987   4.868  1.5330  3.4916 -1.5263
 3820TIP3   OH211423   4.650   0.270   3.834 -0.3488 -0.2903 -0.1895
 3820TIP3    H111424   4.643   0.197   3.773 -1.3201  0.6679 -1.2990
 3820TIP3    H211425   4.709   0.332   3.791  1.4026 -0.8586  1.2600
 3821TIP3   OH211426   2.977   1.210   5.760 -0.1839 -0.0827  0.1199
 3821TIP3    H111427   3.059   1.188   5.714  0.7175 -0.7974  1.9505
 3821TIP3    H211428   2.967   1.304   5.748  2.3019  0.5156  1.8711
 3822TIP3   OH211429   5.622   3.546   1.694  0.3971  0.3274  0.5368
 3822TIP3    H111430   5.668   3.489   1.756  1.6776 -0.4578 -1.0649
 3822TIP3    H211431   5.672   3.628   1.696  1.0319 -0.0352 -0.1567
 3823TIP3   OH211432   3.647   4.081   1.519  0.2033  0.1526 -0.1532
 3823TIP3    H111433   3.574   4.101   1.460  1.0058 -1.1564 -1.6583
 3823TIP3    H211434   3.702   4.160   1.516 -0.3368  0.5347 -0.2408
 3824TIP3   OH211435   4.464   4.209   2.336 -0.1699  0.3518 -0.2068
 3824TIP3    H111436   4.525   4.139   2.314  0.9770  1.3399 -0.3116
 3824TIP3    H211437   4.394   4.166   2.385  1.1043 -0.6924  0.7859
 3825TIP3   OH211438   3.620   1.290   4.555  0.4775  0.0886  0.2745
 3825TIP3    H111439   3.583   1.331   4.477 -0.3650 -0.0879  0.5642
 3825TIP3    H211440   3.643   1.201   4.527  1.3565  0.4164 -0.0877
 3826TIP3   OH211441   4.250   0.699   5.055  0.4041  0.2464 -0.4982
 3826TIP3    H111442   4.302   0.758   5.001  0.1523  0.6539 -0.3038
 3826TIP3    H211443   4.284   0.611   5.035  0.7550  0.4516 -0.8172
 3827TIP3   OH211444   1.787   4.254   1.400  0.2807 -0.1769  0.2304
 3827TIP3    H111445   1.834   4.244   1.318 -0.8475  0.9268 -0.5873
 3827TIP3    H211446   1.705   4.206   1.387  0.3737 -0.5369  0.9456
 3828TIP3   OH211447   3.894   2.818   1.333 -0.1816 -0.1799 -0.0074
 3828TIP3    H111448   3.986   2.794   1.343 -0.8363 -2.4189  1.3096
 3828TIP3    H211449   3.889   2.909   1.361  1.4246 -0.4247  1.1883
 3829TIP3   OH211450   3.280   1.930   3.081  0.6479 -0.0977  0.2403
 3829TIP3    H111451   3.285   1.954   2.988  0.5292 -0.2127  0.2033
 3829TIP3    H211452   3.348   1.982   3.123 -0.6366  1.5273  0.4255
 3830TIP3   OH211453   3.113   2.690   0.339 -0.3318 -0.8166 -0.8411
 3830TIP3    H111454   3.199   2.648   0.341  0.1323  0.0329 -1.8394
 3830TIP3    H211455   3.107   2.728   0.251 -0.0059  2.6485  0.4719
 3831TIP3   OH211456   4.279   3.462   2.539 -0.5890 -0.0441 -0.3050
 3831TIP3    H111457   4.212   3.449   2.607  1.4125 -1.1374  1.5951
 3831TIP3    H211458   4.280   3.379   2.491  0.1307 -0.4570  0.3995
 3832TIP3   OH211459   6.997   4.005   1.022  0.1182 -0.6680 -0.0558
 3832TIP3    H111460   7.021   4.013   1.115 -1.4865  1.6198  0.2304
 3832TIP3    H211461   7.061   4.058   0.976 -0.2177 -0.2440 -0.0393
 3833TIP3   OH211462   6.828   3.227   0.330  0.2321  0.2525  1.1775
 3833TIP3    H111463   6.778   3.258   0.255 -1.7726 -1.3343  1.7626
 3833TIP3    H211464   6.888   3.162   0.294 -1.0373 -0.8434  0.9135
 3834TIP3   OH211465   5.621   4.154   1.056  0.1552 -0.1529 -0.2494
 3834TIP3    H111466   5.597   4.105   1.134 -2.0830 -0.2857 -0.9719
 3834TIP3    H211467   5.583   4.241   1.069  2.7301  0.9852  0.3057
 3835TIP3   OH211468   6.140   6.640   0.452  0.3546  0.1014 -0.3315
 3835TIP3    H111469   6.046   6.651   0.465 -0.0207 -0.9247 -1.8364
 3835TIP3    H211470   6.169   6.721   0.410  0.6978  1.4968  2.4017
 3836TIP3   OH211471   1.162   3.349   4.095  0.2010 -0.3526 -0.1565
 3836TIP3    H111472   1.225   3.278   4.080 -0.3402 -1.4765  2.4299
 3836TIP3    H211473   1.142   3.344   4.188  1.3312  4.2869  0.5743
 3837TIP3   OH211474   4.420   3.413   4.704  0.2078  0.1869 -0.2318
 3837TIP3    H111475   4.343   3.456   4.668 -0.0769  0.6756  0.9030
 3837TIP3    H211476   4.462   3.480   4.759  1.4811 -0.0498 -0.8782
 3838TIP3   OH211477   6.417   3.310   1.876  0.0368  0.1533  0.7077
 3838TIP3    H111478   6.354   3.381   1.870 -0.7778 -0.6065  0.0420
 3838TIP3    H211479   6.443   3.292   1.786 -1.6627 -2.0146  0.5484
 3839TIP3   OH211480   6.847   1.743   5.058  0.0673  0.0294  0.2427
 3839TIP3    H111481   6.857   1.691   4.978  0.5404 -1.1630  1.0516
 3839TIP3    H211482   6.783   1.696   5.111  0.5274  0.2451  1.0106
 3840TIP3   OH211483   6.018   6.443   5.511 -0.3618 -0.2044 -0.0151
 3840TIP3    H111484   5.931   6.476   5.492  0.3703  0.9982 -1.4731
 3840TIP3    H211485   6.020   6.434   5.607 -1.6682  0.9515  0.1453
 3841TIP3   OH211486   0.320   6.739   2.574  0.6232  0.6583 -0.2970
 3841TIP3    H111487   0.330   6.691   2.492 -1.3951 -1.1232  0.4160
 3841TIP3    H211488   0.293   6.673   2.637  1.5968  2.0832  1.7114
 3842TIP3   OH211489   0.452   3.114   5.410 -0.0167 -0.1400 -0.3528
 3842TIP3    H111490   0.366   3.074   5.424  0.3489 -0.4222  1.2830
 3842TIP3    H211491   0.432   3.198   5.367 -0.9673 -0.9114 -1.4687
 3843TIP3   OH211492   6.979   0.939   2.966 -0.2903 -0.4782  0.1632
 3843TIP3    H111493   7.041   0.981   3.025 -0.2340  0.3859 -0.4920
 3843TIP3    H211494   6.949   1.009   2.909  1.1231 -1.6310 -2.1286
 3844TIP3   OH211495   4.635   5.109   4.832 -0.2471 -0.4311 -0.7110
 3844TIP3    H111496   4.547   5.133   4.801 -0.7075 -1.7180 -0.4812
 3844TIP3    H211497   4.636   5.013   4.828  1.2264 -0.4303 -0.8868
 3845TIP3   OH211498   3.595   0.410   1.928 -0.4595  0.2959 -0.5674
 3845TIP3    H111499   3.585   0.433   2.021 -2.6961 -0.0816 -0.6604
 3845TIP3    H211500   3.669   0.348   1.927 -1.5925 -1.2122  1.2776
 3846TIP3   OH211501   0.174   4.181   5.255  0.4294  0.0094 -0.4040
 3846TIP3    H111502   0.255   4.129   5.254  0.4497  0.0440 -0.5525
 3846TIP3    H211503   0.204   4.272   5.264  0.3773 -0.0393  0.3038
 3847TIP3   OH211504   1.457   0.365   5.251  0.1101 -0.0320  0.5136
 3847TIP3    H111505   1.513   0.290   5.232 -0.9858 -0.4602 -1.3126
 3847TIP3    H211506   1.476   0.387   5.342  3.8836  0.4402 -0.2220
 3848TIP3   OH211507   3.361   4.251   4.097  0.6572  0.1375  0.5528
 3848TIP3    H111508   3.272   4.220   4.080  0.8914 -0.1546 -0.2114
 3848TIP3    H211509   3.353   4.311   4.171 -0.0023 -0.7785  1.2478
 3849TIP3   OH211510   1.983   1.422   4.384  0.0688  0.3902 -0.1536
 3849TIP3    H111511   2.016   1.462   4.304 -0.1221 -0.0396 -0.4483
 3849TIP3    H211512   1.895   1.458   4.395 -0.1245  0.0148 -0.4491
 3850TIP3   OH211513   4.228   6.180   3.643 -0.8461 -0.5099 -0.1714
 3850TIP3    H111514   4.170   6.106   3.622 -1.1218 -0.3249 -0.0621
 3850TIP3    H211515   4.175   6.258   3.628 -0.7493 -0.3473  0.3051
 3851TIP3   OH211516   2.554   2.326   1.639 -0.0369  0.2045 -0.0944
 3851TIP3    H111517   2.583   2.289   1.555  1.0885 -1.1803  0.8694
 3851TIP3    H211518   2.510   2.254   1.683  0.1264  0.6850  0.8669
 3852TIP3   OH211519   4.129   6.824   2.073  0.2161  0.3832 -0.5058
 3852TIP3    H111520   4.148   6.730   2.079  0.4415  0.4434 -0.2496
 3852TIP3    H211521   4.039   6.828   2.041 -0.4280  0.0467  1.1363
 3853TIP3   OH211522   4.349   1.225   1.403 -0.2178  0.6063 -0.2970
 3853TIP3    H111523   4.401   1.303   1.384 -0.9319  0.5674 -2.7389
 3853TIP3    H211524   4.411   1.164   1.443  1.0022  1.4650 -0.8384
 3854TIP3   OH211525   5.328   3.815   4.223  0.4605  0.2144  0.2110
 3854TIP3    H111526   5.393   3.851   4.283  0.9360  0.5954 -0.5104
 3854TIP3    H211527   5.378   3.757   4.165  0.3074  1.0420 -0.7919
 3855TIP3   OH211528   4.792   6.663   5.515  0.2408 -0.0719 -0.1921
 3855TIP3    H111529   4.724   6.644   5.450  0.1243  0.8301 -0.3409
 3855TIP3    H211530   4.856   6.716   5.468  0.1283  0.6356  0.4367
 3856TIP3   OH211531   7.178   2.332   2.952 -0.4752  0.2261 -0.3840
 3856TIP3    H111532   7.136   2.349   3.036  1.3205 -0.5772  0.7219
 3856TIP3    H211533   7.266   2.369   2.961  0.2152 -1.1044 -1.3799
 3857TIP3   OH211534   4.668   1.997   1.184  0.2204 -0.0840  0.0725
 3857TIP3    H111535   4.740   1.960   1.235 -0.3567 -0.5125  0.5945
 3857TIP3    H211536   4.596   2.007   1.247 -0.1306  0.4699 -0.4058
 3858TIP3   OH211537   1.492   0.078   0.449  0.1216  0.7271 -0.3406
 3858TIP3    H111538   1.433   0.153   0.439 -0.2020  0.8309  1.9253
 3858TIP3    H211539   1.509   0.073   0.543  3.0332  0.1474 -0.8054
 3859TIP3   OH211540   0.469   0.442   1.772  0.2728 -0.4991 -0.4495
 3859TIP3    H111541   0.376   0.431   1.754  0.0514 -0.3683  0.5886
 3859TIP3    H211542   0.495   0.363   1.818  0.3464  0.0504  0.4864
 3860TIP3   OH211543   3.628   4.731   2.453  0.4497  0.1980 -0.0672
 3860TIP3    H111544   3.620   4.658   2.392 -0.5046  0.6460 -0.4959
 3860TIP3    H211545   3.720   4.730   2.480  1.0195  0.3056 -1.9132
 3861TIP3   OH211546   5.220   3.285   0.649 -0.2003  0.6575 -0.0320
 3861TIP3    H111547   5.227   3.354   0.716  1.5518  0.5433 -0.0464
 3861TIP3    H211548   5.144   3.310   0.597 -0.0467  2.1975  0.4190
 3862TIP3   OH211549   1.273   0.187   3.433  0.1580 -0.1874 -0.1827
 3862TIP3    H111550   1.348   0.159   3.380  0.3443 -0.4249  0.1993
 3862TIP3    H211551   1.286   0.281   3.445 -0.1383 -0.0403 -0.9490
 3863TIP3   OH211552   1.614   4.399   4.188 -0.0252  0.2199 -0.1691
 3863TIP3    H111553   1.685   4.376   4.128  0.5505  0.7050  0.3208
 3863TIP3    H211554   1.571   4.316   4.208  2.4545 -0.6524  2.1584
 3864TIP3   OH211555   3.735   4.333   4.188 -0.0367 -0.1134 -0.3995
 3864TIP3    H111556   3.693   4.394   4.249 -0.3216  0.0680 -0.7700
 3864TIP3    H211557   3.668   4.317   4.121  0.0840 -0.7258 -0.3790
 3865TIP3   OH211558   1.003   1.469   4.692 -0.0762 -0.1069  0.8091
 3865TIP3    H111559   1.033   1.533   4.757  1.5105  0.0335 -0.0180
 3865TIP3    H211560   0.918   1.503   4.663 -0.2071  0.5162  1.8462
 3866TIP3   OH211561   1.853   0.293   2.415  0.4056  0.1421  0.5996
 3866TIP3    H111562   1.902   0.264   2.337 -0.2327  2.8114 -0.9297
 3866TIP3    H211563   1.769   0.322   2.380  0.5622  2.5723  2.0917
 3867TIP3   OH211564   3.727   1.682   0.005 -0.2411  0.4884 -0.3942
 3867TIP3    H111565   3.768   1.747   0.062  0.8151  1.1732 -1.8722
 3867TIP3    H211566   3.690   1.617   0.066  1.1202  0.9971  1.0619
 3868TIP3   OH211567   3.024   0.664   4.011  0.0688  0.3807  0.4936
 3868TIP3    H111568   3.018   0.669   4.107  1.1348  0.9457  0.5462
 3868TIP3    H211569   3.116   0.680   3.992 -0.1450  0.3432 -0.6442
 3869TIP3   OH211570   3.459   0.651   5.828  0.4034  0.0839  0.4018
 3869TIP3    H111571   3.530   0.708   5.856 -0.6542  1.7965 -0.1986
 3869TIP3    H211572   3.481   0.628   5.738 -0.2947  1.5492 -0.1835
 3870TIP3   OH211573   6.018   2.588   1.029  0.3026 -0.3666  0.3738
 3870TIP3    H111574   6.028   2.673   0.987 -0.4911 -0.0441  0.8135
 3870TIP3    H211575   5.929   2.589   1.064  0.8107 -0.7578  1.7468
 3871TIP3   OH211576   4.191   2.999   2.308  0.2072 -0.4241  0.4824
 3871TIP3    H111577   4.257   3.032   2.247  0.5613  0.9065  1.5197
 3871TIP3    H211578   4.210   2.906   2.316 -1.0960 -1.1502 -2.9299
 3872TIP3   OH211579   1.574   6.547   1.660 -0.0206  0.3639  0.0879
 3872TIP3    H111580   1.604   6.463   1.696 -1.2355  0.0913  0.4815
 3872TIP3    H211581   1.574   6.533   1.565 -1.4118 -0.5189  0.1943
 3873TIP3   OH211582   5.952   5.182   2.061 -0.5187  0.1824  0.1205
 3873TIP3    H111583   5.918   5.266   2.091 -2.7684 -0.8918  0.8370
 3873TIP3    H211584   5.996   5.145   2.139 -2.1200 -0.5281  0.7237
 3874TIP3   OH211585   7.026   2.109   3.366  0.2889 -0.1722  0.3192
 3874TIP3    H111586   6.963   2.176   3.389  1.5767  0.7892  1.2190
 3874TIP3    H211587   7.076   2.146   3.294  0.5490 -0.4598  0.3468
 3875TIP3   OH211588   4.049   5.730   5.060  0.1022  0.2792 -0.3761
 3875TIP3    H111589   3.972   5.707   5.008  0.2447  1.9966 -1.4287
 3875TIP3    H211590   4.118   5.747   4.996  0.9161  0.2896  0.4766
 3876TIP3   OH211591   2.995   2.955   1.293  0.1915  0.3443 -0.6994
 3876TIP3    H111592   3.047   2.907   1.229  0.9596 -1.9366  1.4800
 3876TIP3    H211593   3.059   3.000   1.347 -0.4321  1.8887 -1.1907
 3877TIP3   OH211594   5.800   5.278   4.026  0.1177  0.4562 -0.0945
 3877TIP3    H111595   5.789   5.188   4.057 -1.8434  0.7853  0.2826
 3877TIP3    H211596   5.726   5.325   4.063  0.6004  2.0362 -1.0607
 3878TIP3   OH211597   4.357   2.310   5.817 -0.1961 -0.0672  0.6957
 3878TIP3    H111598   4.427   2.328   5.880 -1.5460  1.2741  1.9072
 3878TIP3    H211599   4.320   2.397   5.797 -2.2466 -0.7959  1.0230
 3879TIP3   OH211600   7.069   1.697   0.151 -0.5226 -0.5735  0.3500
 3879TIP3    H111601   7.040   1.737   0.233  0.8788  1.1359  0.0570
 3879TIP3    H211602   7.164   1.700   0.155 -0.3995 -2.3349 -0.4881
 3880TIP3   OH211603   2.654   6.683   1.073  0.2219 -0.1348 -0.0424
 3880TIP3    H111604   2.677   6.602   1.028  1.6228  0.7413 -1.0008
 3880TIP3    H211605   2.724   6.744   1.049 -2.7695  2.6191 -2.6555
 3881TIP3   OH211606   0.747   1.954   1.408  0.1915 -0.2812  0.1198
 3881TIP3    H111607   0.663   1.972   1.367  0.1369 -1.2373 -0.2003
 3881TIP3    H211608   0.802   2.028   1.383 -1.2346  1.7219  2.4093
 3882TIP3   OH211609   6.015   6.666   1.797 -0.0481 -0.1138 -0.0465
 3882TIP3    H111610   6.097   6.702   1.763  0.0227  0.0906  0.3348
 3882TIP3    H211611   5.947   6.719   1.756  0.1023  2.2784  2.4685
 3883TIP3   OH211612   2.687   1.621   3.626 -0.0186  0.4289  0.1286
 3883TIP3    H111613   2.674   1.662   3.541  1.7263  0.8640  0.0269
 3883TIP3    H211614   2.740   1.683   3.675 -1.3546  0.3648  1.7072
 3884TIP3   OH211615   2.356   0.850   1.293 -0.6158  0.0057 -0.0040
 3884TIP3    H111616   2.403   0.777   1.253 -0.8777 -0.1502 -0.0290
 3884TIP3    H211617   2.291   0.875   1.228  1.6979  2.5948 -1.5636
 3885TIP3   OH211618   3.857   4.748   2.186  0.2114  0.0278  1.1529
 3885TIP3    H111619   3.824   4.760   2.097  0.0337 -0.4229  1.1591
 3885TIP3    H211620   3.847   4.834   2.227  0.3882  0.2628  0.7057
 3886TIP3   OH211621   4.545   1.702   5.385  0.0395 -0.0676 -0.2449
 3886TIP3    H111622   4.552   1.695   5.480 -1.6708  0.6902 -0.0261
 3886TIP3    H211623   4.633   1.727   5.357  0.5809 -0.3128  1.1293
 3887TIP3   OH211624   4.229   1.898   3.339 -0.4864 -0.0654 -0.1789
 3887TIP3    H111625   4.322   1.884   3.320 -0.6695 -1.1202 -0.3178
 3887TIP3    H211626   4.214   1.853   3.422 -0.9251 -0.0479 -0.2492
 3888TIP3   OH211627   1.210   4.201   1.653  0.6146 -0.0503 -0.2393
 3888TIP3    H111628   1.296   4.240   1.641  0.8996 -0.9953 -1.6152
 3888TIP3    H211629   1.161   4.225   1.574  0.0490 -0.5515 -0.0545
 3889TIP3   OH211630   0.992   6.327   0.663  0.0117  1.0506 -0.5287
 3889TIP3    H111631   0.905   6.307   0.697  0.9492 -0.5878  1.1534
 3889TIP3    H211632   1.025   6.395   0.722  1.0985 -0.7863  1.1357
 3890TIP3   OH211633   1.211   2.582   1.526  0.1933  0.1903  0.1303
 3890TIP3    H111634   1.200   2.592   1.620 -2.7931  2.1568 -0.2785
 3890TIP3    H211635   1.243   2.667   1.496  0.5382 -0.2134 -0.6965
 3891TIP3   OH211636   3.399   1.123   3.948  0.1221  0.3057  0.1955
 3891TIP3    H111637   3.461   1.172   4.002  1.2460 -0.6260 -0.2060
 3891TIP3    H211638   3.334   1.091   4.009  0.5381  0.5435  0.7728
 3892TIP3   OH211639   0.846   1.001   3.892  0.1523  0.4466  0.0019
 3892TIP3    H111640   0.916   0.994   3.958 -0.3625  0.5968  0.5793
 3892TIP3    H211641   0.792   0.924   3.906 -0.3435  0.8257  0.2157
 3893TIP3   OH211642   5.728   0.669   2.855  0.1219  0.1113  0.0974
 3893TIP3    H111643   5.678   0.617   2.917 -1.1215  0.4992 -0.5329
 3893TIP3    H211644   5.791   0.718   2.908 -0.5985  0.0855  0.9896
 3894TIP3   OH211645   5.267   4.908   2.678 -0.2128 -0.0656 -0.7307
 3894TIP3    H111646   5.189   4.858   2.702 -0.3738  0.4367 -0.1914
 3894TIP3    H211647   5.250   4.938   2.589 -1.3800  1.4455 -0.0293
 3895TIP3   OH211648   1.532   2.050   3.509 -0.3712 -0.6761 -0.7284
 3895TIP3    H111649   1.549   2.127   3.454 -1.5713  0.1090 -0.0464
 3895TIP3    H211650   1.439   2.030   3.494 -1.1500  0.4559  2.0443
 3896TIP3   OH211651   2.576   4.200   0.865  0.0218  0.4649 -0.3594
 3896TIP3    H111652   2.592   4.122   0.919  0.6658  1.0430  0.2994
 3896TIP3    H211653   2.494   4.236   0.899 -0.4468 -0.0857 -0.8743
 3897TIP3   OH211654   3.141   6.685   4.198  0.4540 -0.5188 -0.1311
 3897TIP3    H111655   3.086   6.674   4.275 -1.5663 -1.2897 -1.5956
 3897TIP3    H211656   3.117   6.771   4.164  0.5529 -0.6308 -0.4895
 3898TIP3   OH211657   5.437   0.682  -0.034  0.2396  0.4085  0.2717
 3898TIP3    H111658   5.397   0.633   0.039 -0.3600 -0.7347 -0.7810
 3898TIP3    H211659   5.484   0.754   0.008  1.9591 -1.5847  2.0144
 3899TIP3   OH211660   5.913   0.964   1.762  0.0280 -0.4385 -0.0509
 3899TIP3    H111661   5.860   1.043   1.769  0.9308  0.0714  1.8821
 3899TIP3    H211662   5.920   0.933   1.853  3.8087  0.1079 -0.0049
 3900TIP3   OH211663   4.118   6.173   0.296  0.3367 -0.0828  0.3284
 3900TIP3    H111664   4.088   6.091   0.256  0.4109  0.3960 -0.7371
 3900TIP3    H211665   4.130   6.151   0.388  1.4641 -1.5676 -0.1387
 3901TIP3   OH211666   6.879   2.021   2.636  0.1706  0.1666 -0.6430
 3901TIP3    H111667   6.971   2.010   2.659  0.0853  1.7871  0.6398
 3901TIP3    H211668   6.880   2.074   2.556  0.3448  0.0993 -0.6848
 3902TIP3   OH211669   3.371   5.648   1.834 -0.4578 -0.6918  0.3396
 3902TIP3    H111670   3.282   5.671   1.806 -0.6389  0.5255  1.8104
 3902TIP3    H211671   3.359   5.582   1.902 -0.2516 -0.4941  0.5704
 3903TIP3   OH211672   6.223   2.029   0.764  0.6187 -0.0229  0.2124
 3903TIP3    H111673   6.206   2.094   0.833 -0.1081 -0.4419  0.4419
 3903TIP3    H211674   6.299   2.063   0.717  3.2299 -1.2764  3.1526
 3904TIP3   OH211675   2.636   2.578   2.064  0.0094  0.1220 -0.2477
 3904TIP3    H111676   2.676   2.655   2.024 -0.1399  0.1052 -0.4297
 3904TIP3    H211677   2.580   2.614   2.133  0.5411  0.1307  0.1871
 3905TIP3   OH211678   7.164   0.080   1.965 -0.1517  0.0114 -0.2335
 3905TIP3    H111679   7.092   0.065   1.904 -0.7391  1.4336  0.0905
 3905TIP3    H211680   7.234   0.115   1.910 -1.0205  2.2694 -0.0074
 3906TIP3   OH211681   5.681   1.728   1.138 -0.0841  0.4577 -0.1082
 3906TIP3    H111682   5.769   1.733   1.100 -0.0296 -0.5926 -0.1438
 3906TIP3    H211683   5.680   1.797   1.204  0.4551  1.0774 -0.7291
 3907TIP3   OH211684   4.706   6.410   4.771  0.6656 -0.0308  0.5210
 3907TIP3    H111685   4.670   6.360   4.698  0.8011 -1.5458  1.4573
 3907TIP3    H211686   4.693   6.502   4.746 -1.0087 -0.5205 -0.5340
 3908TIP3   OH211687   6.897   2.558   4.604 -0.0429 -0.0004  0.7264
 3908TIP3    H111688   6.803   2.554   4.585  0.3212 -0.9418 -1.1014
 3908TIP3    H211689   6.924   2.466   4.609  0.6637  0.2553  2.0363
 3909TIP3   OH211690   3.783   2.936   4.305  0.2489  0.5313 -0.4767
 3909TIP3    H111691   3.757   2.948   4.214 -0.0386  1.7777 -0.2461
 3909TIP3    H211692   3.776   2.842   4.320 -1.5517  0.5233 -1.1958
 3910TIP3   OH211693   1.104   6.480   5.480 -0.8110 -0.1774  0.3615
 3910TIP3    H111694   1.161   6.533   5.424 -1.7648  1.9197  1.2516
 3910TIP3    H211695   1.109   6.392   5.443  0.0334  0.7244 -1.8736
 3911TIP3   OH211696   2.653   4.712   4.380 -0.6669  0.2587  0.0009
 3911TIP3    H111697   2.690   4.629   4.350  0.3969  0.7790 -0.1731
 3911TIP3    H211698   2.672   4.773   4.309  0.7338  1.2117  1.1595
 3912TIP3   OH211699   0.368   5.222   1.793  0.1286  0.3014 -0.0747
 3912TIP3    H111700   0.435   5.157   1.770  1.1344  0.8679  1.1303
 3912TIP3    H211701   0.387   5.297   1.736  2.0384  1.3442  1.7482
 3913TIP3   OH211702   4.639   3.752   2.639 -0.2306  0.2922  0.1199
 3913TIP3    H111703   4.581   3.676   2.644  0.3764 -0.2177 -0.3037
 3913TIP3    H211704   4.599   3.809   2.574 -1.5894  1.1595  1.6291
 3914TIP3   OH211705   0.079   1.812   1.854 -0.1393  0.0748  0.1588
 3914TIP3    H111706   0.104   1.748   1.920  0.0815 -1.9065 -1.7352
 3914TIP3    H211707  -0.013   1.832   1.873 -0.7836 -2.2633 -0.2881
 3915TIP3   OH211708   6.272   2.367   0.154 -0.0029  0.1709 -0.1864
 3915TIP3    H111709   6.193   2.320   0.182 -0.8085  0.6590 -1.5463
 3915TIP3    H211710   6.285   2.341   0.063  1.0423  0.5804 -0.1627
 3916TIP3   OH211711   1.969   4.512   1.440 -0.3403  0.2355  0.1145
 3916TIP3    H111712   1.902   4.445   1.451  1.2284 -1.3589  0.5520
 3916TIP3    H211713   1.926   4.582   1.391 -2.4258 -0.4949  0.7823
 3917TIP3   OH211714   3.641   6.701   0.760  0.2648 -0.5053 -0.2829
 3917TIP3    H111715   3.583   6.742   0.823  0.2461 -0.2525 -0.4630
 3917TIP3    H211716   3.718   6.758   0.758 -0.4993  0.5580 -1.8713
 3918TIP3   OH211717   6.513   1.237   2.913  0.3637 -0.5590 -0.3954
 3918TIP3    H111718   6.592   1.288   2.896  0.1294 -0.1049 -0.1590
 3918TIP3    H211719   6.513   1.222   3.007  0.6742 -1.4127 -0.5261
 3919TIP3   OH211720   6.388   5.160   3.496 -0.1404  0.7092 -0.1538
 3919TIP3    H111721   6.394   5.239   3.443 -0.5643  0.3218 -0.7823
 3919TIP3    H211722   6.473   5.154   3.539 -0.5644  2.2778  1.0181
 3920TIP3   OH211723   4.658   0.967   5.287  0.0875 -0.3602 -0.5832
 3920TIP3    H111724   4.584   1.012   5.244 -0.4898 -2.9031 -2.5221
 3920TIP3    H211725   4.617   0.914   5.355  0.8476  2.4200  2.2633
 3921TIP3   OH211726   5.688   2.549   5.543  0.7605  0.2462  0.0517
 3921TIP3    H111727   5.753   2.493   5.500 -0.2615  0.0607 -1.3171
 3921TIP3    H211728   5.604   2.504   5.528  0.0597  1.5373 -0.0510
 3922TIP3   OH211729   6.605   4.962   3.091 -0.1728 -0.0954 -0.0064
 3922TIP3    H111730   6.575   4.874   3.116  0.3549 -0.3743 -0.3260
 3922TIP3    H211731   6.670   4.946   3.023 -0.8294  0.6080 -0.8104
 3923TIP3   OH211732   6.269   5.952   2.889 -0.4619 -0.0264 -0.0847
 3923TIP3    H111733   6.352   5.908   2.908 -0.9972 -1.9174 -1.7866
 3923TIP3    H211734   6.250   6.004   2.967  1.4033 -0.9858  1.0578
 3924TIP3   OH211735   5.981   5.421   5.313 -0.3505 -0.3470 -0.1657
 3924TIP3    H111736   5.957   5.378   5.230 -1.4562  1.3696 -0.7869
 3924TIP3    H211737   6.072   5.395   5.327 -0.0689 -0.5563 -2.0158
 3925TIP3   OH211738   5.350   4.265   4.463 -0.1398  0.0609  0.0332
 3925TIP3    H111739   5.406   4.198   4.424 -1.7189 -1.9402  1.0916
 3925TIP3    H211740   5.271   4.219   4.489 -0.9760  2.2007  1.5240
 3926TIP3   OH211741   3.552   5.558   3.466  0.4411  0.3884 -0.3112
 3926TIP3    H111742   3.508   5.598   3.391  1.1371  1.2941 -0.2481
 3926TIP3    H211743   3.482   5.542   3.529  0.0077  0.6222 -0.7248
 3927TIP3   OH211744   6.386   3.492   3.496  0.3989  0.2927  0.4379
 3927TIP3    H111745   6.438   3.412   3.489  0.2738  0.2106  0.4460
 3927TIP3    H211746   6.337   3.482   3.577 -0.1631  0.0540  0.0677
 3928TIP3   OH211747   4.092   3.176   0.430  0.4285  0.3147 -0.4643
 3928TIP3    H111748   4.132   3.161   0.516 -0.2560  0.8783 -0.0334
 3928TIP3    H211749   4.011   3.224   0.449  0.2503  0.4229 -1.4251
 3929TIP3   OH211750   2.167   2.372   5.514  0.0138  0.2546  0.0877
 3929TIP3    H111751   2.148   2.443   5.452  0.7040  2.0402  1.7901
 3929TIP3    H211752   2.110   2.300   5.487 -1.2885  1.7132 -1.2804
 3930TIP3   OH211753   5.802   2.217   1.840  0.1628  0.1186 -0.0383
 3930TIP3    H111754   5.771   2.138   1.884  0.0243  0.5101  0.5780
 3930TIP3    H211755   5.849   2.266   1.908  3.0886 -0.9411 -1.1766
 3931TIP3   OH211756   1.058   2.650   4.427  0.0866  0.0843  0.3874
 3931TIP3    H111757   1.133   2.593   4.408 -0.5992 -1.2448  1.5287
 3931TIP3    H211758   1.096   2.724   4.475  0.7922 -0.1557  0.2078
 3932TIP3   OH211759   6.704   5.636   3.455 -0.8039 -0.0460  0.3136
 3932TIP3    H111760   6.716   5.566   3.391  3.6587  0.5244  0.2113
 3932TIP3    H211761   6.654   5.703   3.409 -0.5240 -0.9996 -1.4491
 3933TIP3   OH211762   5.570   0.441   1.438 -0.3092  0.4652  0.3904
 3933TIP3    H111763   5.569   0.351   1.470 -0.9983  0.0900 -0.6394
 3933TIP3    H211764   5.663   0.466   1.440 -0.0356 -0.4867  0.0752
 3934TIP3   OH211765   6.808   3.949   1.318  0.2758 -0.8258  0.1497
 3934TIP3    H111766   6.893   3.978   1.352 -0.0247  0.0222  0.2005
 3934TIP3    H211767   6.805   3.984   1.229  0.2360 -1.3805 -0.0703
 3935TIP3   OH211768   3.867   0.891   5.626 -0.2051 -0.3297 -0.0532
 3935TIP3    H111769   3.803   0.942   5.578  0.6444 -0.3285 -1.2285
 3935TIP3    H211770   3.940   0.952   5.641 -0.1685 -0.5325  0.6307
 3936TIP3   OH211771   4.226   6.173   3.954  0.7770  0.0454  0.5872
 3936TIP3    H111772   4.207   6.264   3.930 -3.1004 -0.3994  1.2299
 3936TIP3    H211773   4.235   6.127   3.871 -0.4857  0.5186  0.1653
 3937TIP3   OH211774   3.740   5.676   0.911 -0.0575  0.8788  0.4763
 3937TIP3    H111775   3.814   5.617   0.895 -0.1652  1.3536 -2.2035
 3937TIP3    H211776   3.679   5.625   0.963  1.6419  0.0907  1.7902
 3938TIP3   OH211777   3.720   6.184   2.205 -0.2773 -0.2156  0.0426
 3938TIP3    H111778   3.758   6.214   2.287 -1.6469  1.6424  0.0583
 3938TIP3    H211779   3.626   6.195   2.216 -0.6702 -2.0405 -1.0016
 3939TIP3   OH211780   0.250   4.423   4.423  0.0354 -0.3965 -0.2733
 3939TIP3    H111781   0.329   4.417   4.476  2.0086  0.3201 -2.8961
 3939TIP3    H211782   0.180   4.391   4.480  2.1398 -0.8379  2.2582
 3940TIP3   OH211783   0.894   0.215   2.906 -0.0123  0.3035  0.1011
 3940TIP3    H111784   0.832   0.263   2.961 -0.2258 -0.2374  0.3342
 3940TIP3    H211785   0.879   0.123   2.927  1.3536  0.1933  0.6705
 3941TIP3   OH211786   2.899   6.125   1.822  0.8548 -0.2832  0.1094
 3941TIP3    H111787   2.868   6.121   1.913  0.3086 -0.2358 -0.0747
 3941TIP3    H211788   2.854   6.053   1.778  3.4832 -2.3541  0.5728
 3942TIP3   OH211789   6.172   1.986   3.890  0.4738  0.5681 -0.2608
 3942TIP3    H111790   6.105   1.931   3.849 -0.7858 -0.5565  2.9813
 3942TIP3    H211791   6.229   1.925   3.936  1.6564  1.7435 -0.0971
 3943TIP3   OH211792   3.230   1.162   0.420 -0.0976  0.0508  0.6991
 3943TIP3    H111793   3.285   1.180   0.344  1.2445 -1.8330  1.1490
 3943TIP3    H211794   3.235   1.241   0.473 -1.0375  1.3939 -1.1050
 3944TIP3   OH211795   5.234   4.065   2.030 -0.0609  0.2802 -1.2237
 3944TIP3    H111796   5.324   4.069   2.062 -0.8844  0.6431  1.2444
 3944TIP3    H211797   5.198   3.984   2.067 -0.9738  0.4997 -1.5862
 3945TIP3   OH211798   6.921   1.663   4.542 -0.3188  0.1635 -0.0057
 3945TIP3    H111799   6.925   1.721   4.467 -0.7869 -2.4930 -2.2618
 3945TIP3    H211800   7.004   1.675   4.587 -0.0593  1.8802 -0.8888
 3946TIP3   OH211801   2.424   6.367   5.210 -0.1388 -0.6428 -0.5352
 3946TIP3    H111802   2.333   6.341   5.195 -0.2800  0.7334 -2.4127
 3946TIP3    H211803   2.475   6.307   5.156  0.0279 -0.9828 -0.0053
 3947TIP3   OH211804   2.240   3.762   5.220 -0.2552 -0.1851 -0.2872
 3947TIP3    H111805   2.185   3.732   5.148  1.5084 -2.4518 -0.8260
 3947TIP3    H211806   2.229   3.695   5.288  1.0181 -0.1519 -0.0167
 3948TIP3   OH211807   6.981   5.182   3.175 -0.1920 -0.3138 -0.6578
 3948TIP3    H111808   6.987   5.227   3.259  0.7603 -0.1204 -0.8177
 3948TIP3    H211809   6.896   5.137   3.178 -0.9325  1.0515 -0.2851
 3949TIP3   OH211810   1.302   2.364   5.200 -0.4215  0.4827  0.0231
 3949TIP3    H111811   1.251   2.308   5.142 -0.8571  0.2881  0.5898
 3949TIP3    H211812   1.240   2.430   5.231 -0.4022  0.1044  0.8977
 3950TIP3   OH211813   2.287   0.968   0.437 -0.3479  0.2405 -0.4045
 3950TIP3    H111814   2.294   0.907   0.364  0.9555 -0.9758  0.6878
 3950TIP3    H211815   2.371   1.015   0.437 -0.1038 -0.1694  0.6213
 3951TIP3   OH211816   5.411   0.895   3.380 -0.2000 -0.2491 -0.1563
 3951TIP3    H111817   5.390   0.816   3.430  2.0760  0.2929  1.8385
 3951TIP3    H211818   5.410   0.965   3.444 -1.3513  1.2860 -1.7409
 3952TIP3   OH211819   5.536   5.373   1.844  0.4402 -0.4969  0.1065
 3952TIP3    H111820   5.442   5.366   1.829  0.3096 -1.3210  1.2098
 3952TIP3    H211821   5.575   5.350   1.759 -0.3383  0.3567 -0.5076
 3953TIP3   OH211822   1.448   6.581   3.308 -0.2967 -0.3680  0.2503
 3953TIP3    H111823   1.414   6.664   3.275 -1.3921 -1.6748 -2.2564
 3953TIP3    H211824   1.388   6.556   3.378 -1.5599 -0.2620 -0.7649
 3954TIP3   OH211825   6.884   6.462   4.316 -0.1353 -0.3343 -0.3157
 3954TIP3    H111826   6.964   6.420   4.286 -0.2861 -0.8890  0.0422
 3954TIP3    H211827   6.853   6.407   4.388 -1.0090 -0.3126 -0.6630
 3955TIP3   OH211828   1.228   6.542   5.748  0.2681 -0.1363 -0.5081
 3955TIP3    H111829   1.297   6.476   5.739  1.1065  0.7209 -0.5199
 3955TIP3    H211830   1.171   6.528   5.672 -0.3375 -1.6893  0.1776
 3956TIP3   OH211831   5.812   2.881   3.550 -0.0144  0.2798 -0.2110
 3956TIP3    H111832   5.905   2.874   3.529  0.2371  1.5625  0.3742
 3956TIP3    H211833   5.774   2.925   3.474  0.6252  3.5067  1.1772
 3957TIP3   OH211834   3.552   1.783   1.028  0.0585  0.3678  0.4359
 3957TIP3    H111835   3.507   1.698   1.032 -0.0818  0.4292  0.2220
 3957TIP3    H211836   3.625   1.768   0.968 -0.0633  0.4386  0.2663
 3958TIP3   OH211837   5.358   2.585   4.356  0.0631  0.1139 -0.0627
 3958TIP3    H111838   5.371   2.563   4.448  0.0573 -0.7847 -0.2665
 3958TIP3    H211839   5.331   2.677   4.357  0.2156  0.1590  0.8174
 3959TIP3   OH211840   2.311   2.611   1.405  0.2610 -0.2626 -0.3246
 3959TIP3    H111841   2.324   2.571   1.491 -0.8912 -1.3482 -0.6249
 3959TIP3    H211842   2.278   2.698   1.424  0.5462 -0.2889  0.3290
 3960TIP3   OH211843   3.202   1.027   2.052  0.2166 -0.0490  0.9905
 3960TIP3    H111844   3.114   1.004   2.021  0.4440 -1.3175  1.2349
 3960TIP3    H211845   3.239   1.078   1.980 -0.1459 -0.8774  0.1929
 3961TIP3   OH211846   1.457   0.994   0.685  0.0074 -0.2690  0.1026
 3961TIP3    H111847   1.440   0.984   0.592  0.8906  0.8033 -0.2052
 3961TIP3    H211848   1.436   0.909   0.723  1.4713 -1.3675 -1.3682
 3962TIP3   OH211849   2.168   3.146   0.358  0.2567  0.0172 -0.0877
 3962TIP3    H111850   2.191   3.123   0.448  1.3573  0.9140 -0.1168
 3962TIP3    H211851   2.195   3.070   0.306 -1.4461 -0.9945  0.4381
 3963TIP3   OH211852   6.904   0.453   3.572  0.7579 -0.3948  0.0994
 3963TIP3    H111853   6.953   0.505   3.636  0.9732  0.9621 -1.1137
 3963TIP3    H211854   6.969   0.393   3.536  1.2716  0.5776 -0.6423
 3964TIP3   OH211855   5.527   5.090   0.759 -0.4343  0.1378  0.0858
 3964TIP3    H111856   5.456   5.150   0.778  0.3441  0.4557  2.2228
 3964TIP3    H211857   5.497   5.005   0.792 -0.5394 -0.1367 -0.6885
 3965TIP3   OH211858   5.806   3.464   1.863  0.2808  0.1649  0.1082
 3965TIP3    H111859   5.884   3.430   1.818  0.2835 -0.1120  0.3224
 3965TIP3    H211860   5.771   3.388   1.910  1.9261  1.0697  2.9978
 3966TIP3   OH211861   6.303   1.394   4.303  0.6951  0.7903  0.1922
 3966TIP3    H111862   6.341   1.480   4.289  1.4040  0.4066 -0.3096
 3966TIP3    H211863   6.374   1.333   4.283  0.0310  0.0766 -0.0278
 3967TIP3   OH211864   3.989   2.201   1.106 -0.1034 -0.2166  0.3544
 3967TIP3    H111865   4.057   2.160   1.158 -0.8554 -0.7036  0.9804
 3967TIP3    H211866   3.990   2.293   1.132 -0.1584 -0.3648  0.8916
 3968TIP3   OH211867   3.875   0.589   2.767  0.4897  0.0234  0.6687
 3968TIP3    H111868   3.964   0.612   2.795  0.5892 -0.6358  0.8987
 3968TIP3    H211869   3.852   0.657   2.704  1.7176 -0.6226 -0.5298
 3969TIP3   OH211870   4.248   3.114   5.844  0.1860  0.1715 -0.1195
 3969TIP3    H111871   4.290   3.031   5.869 -0.6840  0.1409  1.3531
 3969TIP3    H211872   4.220   3.153   5.927 -1.8608  0.6194 -0.9582
 3970TIP3   OH211873   0.234   5.399   3.716 -0.5023 -0.2422  0.4020
 3970TIP3    H111874   0.316   5.370   3.676 -1.0966  1.5819 -2.4164
 3970TIP3    H211875   0.187   5.318   3.737  1.5526 -1.3028  1.1642
 3971TIP3   OH211876   4.476   5.390   5.536 -0.2308  0.3422  0.2458
 3971TIP3    H111877   4.468   5.483   5.558  0.3037  0.4502 -0.0117
 3971TIP3    H211878   4.448   5.385   5.445 -1.5191  0.0430  0.6371
 3972TIP3   OH211879   0.491   1.879   3.775 -0.5466  0.3682 -0.5275
 3972TIP3    H111880   0.528   1.921   3.697  0.7782  0.9116  0.3583
 3972TIP3    H211881   0.450   1.950   3.824 -2.8007 -0.2119 -1.4464
 3973TIP3   OH211882   1.964   0.255   5.395  0.1733 -0.3188 -0.1968
 3973TIP3    H111883   1.994   0.200   5.323  1.2958  0.8121 -0.6163
 3973TIP3    H211884   2.042   0.270   5.448 -0.7640 -1.6957  1.6850
 3974TIP3   OH211885   3.526   1.990   2.352  0.2138 -0.0984  0.1211
 3974TIP3    H111886   3.586   1.920   2.374 -2.2280 -2.0563  1.0000
 3974TIP3    H211887   3.507   1.978   2.259  0.7056  0.1833 -0.0217
 3975TIP3   OH211888   6.375   6.401   1.899  0.0627  0.0706 -0.2090
 3975TIP3    H111889   6.295   6.403   1.848  0.7674 -1.7476 -1.5193
 3975TIP3    H211890   6.413   6.488   1.889 -0.1107 -0.0412 -2.3883
 3976TIP3   OH211891   3.473   4.565   1.781  0.0187  0.4057  0.0632
 3976TIP3    H111892   3.470   4.542   1.688  0.2335 -0.8176  0.3445
 3976TIP3    H211893   3.556   4.611   1.791 -0.2962  1.1166 -0.4642
 3977TIP3   OH211894   3.732   0.659   1.204  0.4181  0.0783 -0.4156
 3977TIP3    H111895   3.783   0.723   1.255  2.1354 -1.1460 -0.5225
 3977TIP3    H211896   3.702   0.708   1.128 -1.0767  1.5983  1.0503
 3978TIP3   OH211897   1.477   3.456   4.635 -0.6479  0.3082 -0.7895
 3978TIP3    H111898   1.572   3.468   4.634 -0.5450 -0.4811 -1.6144
 3978TIP3    H211899   1.448   3.501   4.715  0.3055  1.2893 -0.9720
 3979TIP3   OH211900   1.056   3.026   5.163 -0.5268  0.7114  0.3548
 3979TIP3    H111901   1.069   2.933   5.144  0.7026  1.2066 -1.4384
 3979TIP3    H211902   0.979   3.050   5.111 -0.3878  0.8471  0.2080
 3980TIP3   OH211903   4.683   3.595   4.473 -0.2803  0.0301 -0.2110
 3980TIP3    H111904   4.728   3.611   4.390  0.1474 -0.2335 -0.0353
 3980TIP3    H211905   4.591   3.614   4.455 -0.7765 -3.0129 -1.6627
 3981TIP3   OH211906   5.207   2.104   2.327  0.2301 -0.1939 -0.0460
 3981TIP3    H111907   5.170   2.192   2.321  2.2237  0.7897  1.1082
 3981TIP3    H211908   5.291   2.116   2.372  1.2492 -2.4907 -1.1493
 3982TIP3   OH211909   3.835   5.934   3.376 -0.1135 -0.1353 -0.0544
 3982TIP3    H111910   3.821   5.842   3.400 -0.9591 -0.1534 -0.5702
 3982TIP3    H211911   3.803   5.940   3.286 -0.0491  0.6565 -0.0261
 3983TIP3   OH211912   3.887   5.285   0.963 -0.2207  0.3149 -0.3572
 3983TIP3    H111913   3.912   5.377   0.958 -0.6715  0.3673 -3.2270
 3983TIP3    H211914   3.792   5.285   0.954 -0.0900 -0.4569 -2.1690
 3984TIP3   OH211915   6.406   0.911   3.991  0.4105  0.4339  0.4797
 3984TIP3    H111916   6.449   0.856   4.057 -2.7534 -2.8627  0.1122
 3984TIP3    H211917   6.424   0.867   3.908 -2.4338 -0.3971  0.1976
 3985TIP3   OH211918   0.532   4.062   2.807  0.6921  0.1480  0.2182
 3985TIP3    H111919   0.456   4.088   2.858  0.6869 -0.2553  0.4164
 3985TIP3    H211920   0.517   4.101   2.721  0.1274 -0.1572  0.1741
 3986TIP3   OH211921   5.322   5.099   4.852  0.0033  0.0441 -0.4185
 3986TIP3    H111922   5.247   5.128   4.801 -0.9809 -0.1954  0.8389
 3986TIP3    H211923   5.353   5.020   4.807 -1.2606 -0.5554 -0.2787
 3987TIP3   OH211924   3.001   6.463   4.837  0.4045 -0.1183 -0.1554
 3987TIP3    H111925   2.992   6.370   4.860  0.2491 -0.7025 -2.3238
 3987TIP3    H211926   2.922   6.483   4.787  1.5024  0.4758 -1.7523
 3988TIP3   OH211927   1.267   0.147   5.233 -0.0219  0.4245 -0.0193
 3988TIP3    H111928   1.177   0.163   5.258  0.5554  0.1686  2.4444
 3988TIP3    H211929   1.294   0.227   5.188 -2.1209 -0.4218 -3.1516
 3989TIP3   OH211930   0.900   1.901   0.731  0.2220 -0.3715  0.1746
 3989TIP3    H111931   0.945   1.912   0.647 -0.4864 -1.5056 -0.3738
 3989TIP3    H211932   0.810   1.928   0.713 -0.0488 -1.0897  0.4299
 3990TIP3   OH211933   6.797   2.390   2.947  0.1318  0.3225 -0.0760
 3990TIP3    H111934   6.866   2.331   2.916 -0.5565 -0.4855 -0.0819
 3990TIP3    H211935   6.776   2.357   3.034 -0.7880  0.0939 -0.3807
 3991TIP3   OH211936   5.564   5.487   3.571 -0.0340  0.7028  0.5444
 3991TIP3    H111937   5.581   5.432   3.495  0.3006  0.7636  0.5738
 3991TIP3    H211938   5.638   5.547   3.575 -0.2566  0.9745  0.6767
 3992TIP3   OH211939   6.656   3.089   3.212  0.0292  0.4921 -0.5901
 3992TIP3    H111940   6.609   3.159   3.167 -1.2460 -1.2469 -2.1062
 3992TIP3    H211941   6.680   3.028   3.143  0.7779 -0.7693  0.7339
 3993TIP3   OH211942   3.311   2.393   2.062 -0.4452 -0.4240 -0.2404
 3993TIP3    H111943   3.311   2.485   2.086 -1.6085 -0.5179  0.1875
 3993TIP3    H211944   3.336   2.347   2.143  2.3611 -0.4179 -0.9872
 3994TIP3   OH211945   2.246   6.504   4.518  0.2382 -0.3663 -0.6063
 3994TIP3    H111946   2.256   6.537   4.607 -1.0497  0.6643 -0.8169
 3994TIP3    H211947   2.333   6.471   4.495  0.8092  0.1580  0.7076
 3995TIP3   OH211948   6.626   0.640   5.181 -0.0108  0.3778 -0.3025
 3995TIP3    H111949   6.584   0.618   5.098  1.0969 -0.0293 -0.7719
 3995TIP3    H211950   6.720   0.636   5.162  0.2664 -0.3973  1.1381
 3996TIP3   OH211951   4.213   5.761   0.417 -0.0053 -0.4227  0.2999
 3996TIP3    H111952   4.214   5.711   0.336 -2.4441  1.2923 -0.9301
 3996TIP3    H211953   4.282   5.827   0.406  1.3737 -1.7414  0.7711
 3997TIP3   OH211954   6.768   0.653   1.686  0.4320  0.9361 -1.1914
 3997TIP3    H111955   6.827   0.582   1.712 -0.2074  0.7143 -0.3037
 3997TIP3    H211956   6.765   0.710   1.763 -0.3050  1.0748 -1.3178
 3998TIP3   OH211957   1.405   6.147   0.560  0.5017 -0.0825  0.0290
 3998TIP3    H111958   1.408   6.093   0.481 -0.2598  0.7109 -0.5599
 3998TIP3    H211959   1.489   6.132   0.603  1.4247  0.3741 -1.5554
 3999TIP3   OH211960   0.510   5.521   0.205  0.3808  0.8613  0.0139
 3999TIP3    H111961   0.522   5.429   0.230 -1.9138  0.6274  0.4929
 3999TIP3    H211962   0.450   5.556   0.271 -3.9231  0.9424 -3.4742
 4000TIP3   OH211963   4.904   6.588   2.076  0.3541  0.4322  0.3777
 4000TIP3    H111964   4.808   6.585   2.076  0.2131 -0.2662 -3.7180
 4000TIP3    H211965   4.925   6.678   2.053  0.4653 -0.1652 -2.1236
 4001TIP3   OH211966   6.252   6.654   4.809 -0.2043 -0.0390 -0.3831
 4001TIP3    H111967   6.182   6.676   4.870  1.3654  0.2239  1.4567
 4001TIP3    H211968   6.330   6.645   4.865  1.1118 -0.8971 -2.2409
 4002TIP3   OH211969   0.477   4.138   2.545 -0.2877  0.3646  0.3272
 4002TIP3    H111970   0.436   4.067   2.496  0.6142  0.5058 -0.6653
 4002TIP3    H211971   0.428   4.216   2.519  0.0854  0.4151 -0.2496
 4003TIP3   OH211972   5.314   1.855   4.719 -0.1424  0.5253 -0.0690
 4003TIP3    H111973   5.294   1.857   4.813  1.9581 -0.8640  0.4903
 4003TIP3    H211974   5.330   1.946   4.696 -0.8172  0.9081  0.8896
 4004TIP3   OH211975   0.251   2.231   4.598 -0.0828  0.4030 -0.1905
 4004TIP3    H111976   0.160   2.239   4.572 -0.1576 -1.9408 -0.9119
 4004TIP3    H211977   0.253   2.260   4.689 -1.4563  0.8883 -0.2941
 4005TIP3   OH211978   6.869   3.676   1.641  0.9365 -0.1247 -0.0092
 4005TIP3    H111979   6.904   3.607   1.697 -1.9029 -1.8216 -0.1066
 4005TIP3    H211980   6.792   3.636   1.600 -0.8835  3.1138 -0.0421
 4006TIP3   OH211981   2.854   4.156   3.481 -1.0015  0.0342 -0.0515
 4006TIP3    H111982   2.789   4.161   3.410 -0.8993  1.7914 -0.0801
 4006TIP3    H211983   2.890   4.245   3.486  2.8531 -1.2739 -1.3631
 4007TIP3   OH211984   5.287   2.440   1.266  0.4137 -0.0661  0.3623
 4007TIP3    H111985   5.201   2.425   1.304 -0.7886  0.7867 -1.8261
 4007TIP3    H211986   5.304   2.363   1.212  0.6569  0.1196  0.1674
 4008TIP3   OH211987   5.623   3.490   4.777  0.8640 -0.3186  0.1633
 4008TIP3    H111988   5.614   3.563   4.717  0.0002 -0.4405  0.1356
 4008TIP3    H211989   5.534   3.456   4.788  0.9260 -0.0573  1.8057
 4009TIP3   OH211990   3.546   2.985   1.297 -0.4585  0.4700  0.0319
 4009TIP3    H111991   3.631   2.941   1.289 -1.3473 -1.1078 -1.4010
 4009TIP3    H211992   3.505   2.943   1.372  0.3001  1.7926  1.2273
 4010TIP3   OH211993   4.429   5.480   3.128  0.3379 -0.2640  0.3216
 4010TIP3    H111994   4.436   5.478   3.224  1.6250 -1.5234  0.2387
 4010TIP3    H211995   4.512   5.441   3.098 -1.3885 -3.0578 -1.2131
 4011TIP3   OH211996   1.521   1.012   5.722  0.3728 -0.4865  0.2188
 4011TIP3    H111997   1.594   1.073   5.715  0.8370 -1.1274 -0.7335
 4011TIP3    H211998   1.471   1.024   5.641  0.5228 -1.4079 -0.0258
 4012TIP3   OH211999   0.416   6.237   5.623  0.0359 -0.6837 -0.6210
 4012TIP3    H112000   0.424   6.308   5.560 -0.1258 -0.6171 -0.5671
 4012TIP3    H212001   0.498   6.238   5.671 -0.2556 -0.0487 -0.1142
 4013TIP3   OH212002   7.026   0.498   0.298  0.3245  0.5140 -0.2286
 4013TIP3    H112003   7.000   0.569   0.239 -0.9493  0.3547  0.1003
 4013TIP3    H212004   6.996   0.418   0.253  2.2046  0.1155 -0.8401
 4014TIP3   OH212005  -0.004   1.587   1.707 -0.1238  0.1519  0.0281
 4014TIP3    H112006   0.056   1.650   1.747  0.6218  0.3294 -1.2849
 4014TIP3    H212007   0.052   1.514   1.680 -0.9388 -0.9912  1.2835
 4015TIP3   OH212008   5.843   1.298   5.456 -0.0289  0.1652 -0.4213
 4015TIP3    H112009   5.871   1.330   5.541  1.2424  2.4204 -1.5792
 4015TIP3    H212010   5.922   1.259   5.418 -0.0438  0.9998 -1.3368
 4016TIP3   OH212011   5.663   3.918   4.406 -0.0117 -0.3607  0.3549
 4016TIP3    H112012   5.752   3.885   4.418 -0.2766 -0.9761  0.7239
 4016TIP3    H212013   5.608   3.839   4.412 -0.3983 -0.3563 -2.2642
 4017TIP3   OH212014   4.360   4.683   2.751  0.2635  0.6432  0.4355
 4017TIP3    H112015   4.341   4.712   2.841  1.7701  3.0348  0.0890
 4017TIP3    H212016   4.445   4.639   2.757  0.1681  0.4350  0.2578
 4018TIP3   OH212017   4.155   5.386   4.335  0.4567 -0.3356 -0.1906
 4018TIP3    H112018   4.086   5.321   4.342 -0.7329  0.8336 -0.6896
 4018TIP3    H212019   4.113   5.469   4.358  1.7666  0.3669 -0.2109
 4019TIP3   OH212020   3.700   3.585   2.588 -0.2148  0.7269 -0.0385
 4019TIP3    H112021   3.685   3.539   2.671 -1.7269 -0.5625 -0.9731
 4019TIP3    H212022   3.653   3.668   2.598 -0.7754  0.3829  0.2594
 4020TIP3   OH212023   6.738   2.102   3.364  0.4595  0.0073  0.1118
 4020TIP3    H112024   6.665   2.058   3.408 -0.5284  1.0372 -0.4461
 4020TIP3    H212025   6.738   2.066   3.275 -0.5543  1.3049 -0.4450
 4021TIP3   OH212026   4.993   1.085   2.543  0.2109 -0.2011  0.5190
 4021TIP3    H112027   4.902   1.094   2.514  0.3349  1.1806  0.4575
 4021TIP3    H212028   5.027   1.175   2.541  1.5925 -0.7028  0.4879
 4022TIP3   OH212029   0.198   0.687   1.214 -0.1179 -0.3653 -0.6644
 4022TIP3    H112030   0.168   0.640   1.291 -0.3872 -1.8204 -1.6308
 4022TIP3    H212031   0.243   0.764   1.249 -0.8164 -0.6471  0.9119
 4023TIP3   OH212032   4.400   3.050   0.961 -0.6664  0.3569  0.3416
 4023TIP3    H112033   4.416   3.121   1.023 -0.5131  0.8279 -0.2248
 4023TIP3    H212034   4.307   3.057   0.940 -0.6601  0.3595  0.3155
 4024TIP3   OH212035   3.648   3.535   5.376  0.2581  0.3112  0.0423
 4024TIP3    H112036   3.725   3.483   5.353 -0.3171 -1.1764  1.2524
 4024TIP3    H212037   3.597   3.477   5.433 -1.2694  1.6199  0.0715
 4025TIP3   OH212038   2.272   5.026   5.760 -0.0638  0.4117  0.4456
 4025TIP3    H112039   2.262   5.029   5.856  2.0983  0.2837  0.7197
 4025TIP3    H212040   2.350   4.973   5.746 -1.7401 -1.7393 -1.5413
 4026TIP3   OH212041   6.570   2.873   2.398 -0.3403  0.2568 -0.1085
 4026TIP3    H112042   6.574   2.797   2.457 -0.6704  0.5648  0.3118
 4026TIP3    H212043   6.521   2.841   2.322 -1.9364  0.4947  0.7708
 4027TIP3   OH212044   1.743   1.641   2.454 -0.4253 -0.6015  0.1014
 4027TIP3    H112045   1.670   1.595   2.496 -1.0940  1.1243  0.9150
 4027TIP3    H212046   1.761   1.715   2.510 -0.0596  0.7183 -1.6653
 4028TIP3   OH212047   3.618   2.653   4.004  0.0620 -0.5670  0.1859
 4028TIP3    H112048   3.536   2.691   4.035 -0.5328 -0.4243 -1.4878
 4028TIP3    H212049   3.686   2.708   4.044 -0.5638 -1.2318  2.3181
 4029TIP3   OH212050   2.556   0.076   4.072 -0.4474  0.4881  0.0146
 4029TIP3    H112051   2.497   0.032   4.133  0.3774  0.9625  1.1906
 4029TIP3    H212052   2.639   0.083   4.119  1.5483 -2.7487 -2.5863
 4030TIP3   OH212053   6.668   6.383   0.324  0.4753 -0.1170  0.0028
 4030TIP3    H112054   6.575   6.391   0.344 -0.0118 -1.0372 -1.7535
 4030TIP3    H212055   6.671   6.355   0.233  2.4821 -0.0350  0.0064
 4031TIP3   OH212056   0.153   4.662   4.574  0.6179 -0.6320 -0.6766
 4031TIP3    H112057   0.215   4.628   4.511  0.7790 -1.0593 -0.2879
 4031TIP3    H212058   0.178   4.623   4.657  1.3223  1.0476 -0.0408
 4032TIP3   OH212059   3.519   3.080   5.453  0.0222  0.0374  0.0192
 4032TIP3    H112060   3.542   3.111   5.541 -0.4554 -1.8701  0.8903
 4032TIP3    H212061   3.445   3.020   5.468 -1.5691  1.3818 -1.9629
 4033TIP3   OH212062   2.696   4.277   2.378 -0.3814  0.4759 -0.5627
 4033TIP3    H112063   2.715   4.184   2.388  0.5153  0.8352  1.4853
 4033TIP3    H212064   2.744   4.320   2.449 -2.4321  2.2969 -0.1773
 4034TIP3   OH212065   4.789   2.826   0.703  0.3224  0.5777  0.2099
 4034TIP3    H112066   4.699   2.835   0.734  0.5304  2.2576  0.4357
 4034TIP3    H212067   4.831   2.770   0.768 -0.3555  0.4622  0.5554
 4035TIP3   OH212068   6.012   0.230   3.751 -0.0508 -0.5811  0.2330
 4035TIP3    H112069   6.101   0.253   3.777 -0.6572  1.3517  0.7641
 4035TIP3    H212070   6.024   0.158   3.688  1.8328 -0.7325  0.6899
 4036TIP3   OH212071   2.084   6.433   5.667 -0.5294 -0.0145  0.2595
 4036TIP3    H112072   2.012   6.472   5.616  0.6425 -0.2527 -1.6966
 4036TIP3    H212073   2.133   6.508   5.700 -1.5272  0.1467  1.4080
 4037TIP3   OH212074   4.048   1.623   4.798  0.0843  0.3898  0.2763
 4037TIP3    H112075   4.133   1.644   4.837 -0.5042  2.7905  0.3687
 4037TIP3    H212076   4.064   1.624   4.703  0.6021 -1.3784  0.3094
 4038TIP3   OH212077   4.222   4.047   5.225  0.2818  0.4528 -0.7011
 4038TIP3    H112078   4.145   3.992   5.215 -0.6361  1.5636 -0.0602
 4038TIP3    H212079   4.281   4.021   5.154 -0.1647 -1.2363 -0.4862
 4039TIP3   OH212080   3.854   4.021   5.108 -0.1064  0.2909  0.3264
 4039TIP3    H112081   3.847   3.932   5.072  0.6009  0.5364 -0.4392
 4039TIP3    H212082   3.858   4.008   5.203 -0.4363 -0.4670  0.2474
 4040TIP3   OH212083   2.653   1.496   1.045 -0.0298 -0.5009  0.0066
 4040TIP3    H112084   2.749   1.494   1.047  0.1000  1.0049 -1.7505
 4040TIP3    H212085   2.629   1.576   1.091 -0.1737  0.9862 -2.4447
 4041TIP3   OH212086   5.815   2.291   3.664  0.2695  0.3652  0.0994
 4041TIP3    H112087   5.748   2.253   3.607 -1.1175  1.4744  0.9497
 4041TIP3    H212088   5.898   2.265   3.622 -0.6670  0.9574 -2.3213
 4042TIP3   OH212089   4.405   6.174   0.180 -1.0335  0.3497  1.3771
 4042TIP3    H112090   4.333   6.198   0.238 -0.6940 -1.7460  2.7944
 4042TIP3    H212091   4.483   6.211   0.221 -1.0653  1.0537  0.8286
 4043TIP3   OH212092   1.463   6.637   4.309  0.3164  0.0882  0.4310
 4043TIP3    H112093   1.473   6.557   4.256  0.9997  0.7305 -0.4493
 4043TIP3    H212094   1.496   6.613   4.395  1.7830 -0.2249 -0.1873
 4044TIP3   OH212095   1.620   1.195   3.859 -0.5186  0.0633  0.4605
 4044TIP3    H112096   1.712   1.208   3.881 -0.3213 -0.8460  0.2176
 4044TIP3    H212097   1.611   1.230   3.771 -0.4828  0.4463  0.6078
 4045TIP3   OH212098   6.294   0.112   3.372  0.1888  0.3372  0.5163
 4045TIP3    H112099   6.352   0.188   3.384  0.4118  0.1390  0.7301
 4045TIP3    H212100   6.338   0.059   3.305 -1.7002  2.0638 -2.2477
 4046TIP3   OH212101   3.016   6.626   5.815 -0.1687 -0.2160 -0.1220
 4046TIP3    H112102   3.064   6.674   5.748  2.3988 -1.2436  0.8258
 4046TIP3    H212103   2.941   6.588   5.770 -0.1648  1.5260 -1.6952
 4047TIP3   OH212104   5.269   5.983   2.454  0.7095  0.3379  0.1538
 4047TIP3    H112105   5.240   5.900   2.415  2.2112 -0.8073  1.3161
 4047TIP3    H212106   5.334   5.956   2.519 -0.6073  2.2510  2.3770
 4048TIP3   OH212107   4.588   6.339   1.614  0.3179  0.0611  0.2223
 4048TIP3    H112108   4.662   6.279   1.602  0.0807 -0.2475  0.2903
 4048TIP3    H212109   4.531   6.323   1.540  0.2069  0.1359  0.2907
 4049TIP3   OH212110   0.156   4.996   4.874  0.0159  0.4747 -0.2218
 4049TIP3    H112111   0.192   5.017   4.787  0.0869 -0.3940 -0.4077
 4049TIP3    H212112   0.232   4.999   4.932  0.0560  0.5609 -0.2781
 4050TIP3   OH212113   2.071   2.335   3.824 -0.4361  0.4612 -0.0115
 4050TIP3    H112114   2.103   2.423   3.803  0.4633 -0.1475 -1.3478
 4050TIP3    H212115   2.144   2.294   3.870 -0.4950  0.0960 -0.2479
 4051TIP3   OH212116   2.316   5.643   1.547 -0.2560  0.7474 -0.3445
 4051TIP3    H112117   2.252   5.715   1.548 -0.1383  0.8613 -0.7907
 4051TIP3    H212118   2.361   5.653   1.463 -0.8258 -0.3568 -0.7971
 4052TIP3   OH212119   4.519   4.337   0.595  0.2836  0.1412  0.0222
 4052TIP3    H112120   4.492   4.249   0.569 -3.0694  0.3834  2.1052
 4052TIP3    H212121   4.483   4.395   0.528 -0.0686  0.1323  0.2053
 4053TIP3   OH212122   3.410   6.690   1.621 -0.2287  0.0621  0.6870
 4053TIP3    H112123   3.351   6.650   1.686 -0.3608 -0.0725  0.4835
 4053TIP3    H212124   3.433   6.618   1.562  0.9360 -0.1300  1.3366
 4054TIP3   OH212125   5.295   6.325   1.327 -0.3531  0.2092 -0.6705
 4054TIP3    H112126   5.317   6.374   1.247  1.2042 -0.6880 -0.8493
 4054TIP3    H212127   5.379   6.311   1.370 -1.2590  1.5323  1.6987
 4055TIP3   OH212128   4.747   0.494   5.889  0.3995 -0.1182 -0.2241
 4055TIP3    H112129   4.829   0.459   5.924  0.0989 -0.5442  0.0686
 4055TIP3    H212130   4.772   0.540   5.809  1.0021  0.2662  0.1825
 4056TIP3   OH212131   5.476   0.194   5.264  0.1717  0.4565 -0.1277
 4056TIP3    H112132   5.429   0.278   5.265  1.5853  1.2786 -0.6106
 4056TIP3    H212133   5.524   0.194   5.181  1.2991 -0.1837  0.5019
 4057TIP3   OH212134   5.398   6.741   2.746  0.5013  0.3129  0.2080
 4057TIP3    H112135   5.394   6.758   2.652  1.1872  0.9927  0.2889
 4057TIP3    H212136   5.314   6.699   2.767  0.2526  0.3632 -0.6589
 4058TIP3   OH212137   0.959   2.029   5.590 -0.8004 -0.1933 -0.1959
 4058TIP3    H112138   0.904   2.105   5.571 -0.7250 -0.3002 -0.8719
 4058TIP3    H212139   0.930   2.000   5.677  0.6984  1.9273  1.1165
 4059TIP3   OH212140   0.362   3.384   5.326  0.1974  0.4645 -0.6023
 4059TIP3    H112141   0.403   3.428   5.252 -0.2822  1.9889  0.0084
 4059TIP3    H212142   0.272   3.369   5.298  0.4063 -0.3329 -0.8784
 4060TIP3   OH212143   1.249   1.419   4.909 -0.2070 -0.2061  0.3872
 4060TIP3    H112144   1.332   1.371   4.902  0.8809  1.6607 -0.0387
 4060TIP3    H212145   1.183   1.354   4.885  1.1667 -1.5964  0.1734
 4061TIP3   OH212146   4.071   2.012   4.163  0.7257  0.5407  0.1236
 4061TIP3    H112147   4.007   1.946   4.134 -0.1250  1.0163  0.8655
 4061TIP3    H212148   4.124   2.029   4.085  0.9938 -1.0401 -0.0836
 4062TIP3   OH212149   0.320   2.656   4.246  0.7467 -0.5433 -0.1111
 4062TIP3    H112150   0.304   2.566   4.274 -1.4990 -0.8793 -2.2131
 4062TIP3    H212151   0.415   2.661   4.237  1.1482 -1.8880  2.4308
 4063TIP3   OH212152   0.361   0.980   5.515 -0.6338  0.6325  0.1351
 4063TIP3    H112153   0.392   1.050   5.572  2.0216 -0.1642 -0.1890
 4063TIP3    H212154   0.363   0.902   5.570  1.5749 -0.0752 -0.8400
 4064TIP3   OH212155   6.525   3.269   3.560  0.0361 -0.3244  0.2157
 4064TIP3    H112156   6.593   3.202   3.552  1.5143  1.2127 -0.8249
 4064TIP3    H212157   6.523   3.289   3.654  2.1266  0.6084  0.1299
 4065TIP3   OH212158   3.827   4.999   3.741  0.2504  0.3004  0.2637
 4065TIP3    H112159   3.812   5.068   3.675  0.6159  1.2072  1.1004
 4065TIP3    H212160   3.801   4.918   3.697  1.0205  0.8022 -1.2021
 4066TIP3   OH212161   3.714   4.676   4.152 -0.0388  0.7240 -0.2065
 4066TIP3    H112162   3.761   4.752   4.120 -0.7858  1.9324  1.4637
 4066TIP3    H212163   3.621   4.700   4.145 -0.2600  1.0361  2.6269
 4067TIP3   OH212164   4.765   0.419   0.802  0.0838  0.1591 -0.4220
 4067TIP3    H112165   4.764   0.419   0.706  1.1658  0.3908 -0.4444
 4067TIP3    H212166   4.858   0.421   0.825 -0.1691  1.8262  0.6359
 4068TIP3   OH212167   5.198   0.862   1.985  0.5098  0.7273  0.1643
 4068TIP3    H112168   5.144   0.797   2.030 -0.9073  1.2541 -0.7149
 4068TIP3    H212169   5.202   0.831   1.894  1.0005  1.1341  0.0416
 4069TIP3   OH212170   6.581   2.142   2.415  0.0512 -0.4555  0.1778
 4069TIP3    H112171   6.530   2.095   2.481 -1.1911 -0.8150 -0.9669
 4069TIP3    H212172   6.652   2.081   2.392 -0.3603 -0.9335  0.1510
 4070TIP3   OH212173   6.662   6.766   2.492 -0.6332 -0.2654 -0.5309
 4070TIP3    H112174   6.680   6.673   2.483  0.4607 -0.0998 -0.2449
 4070TIP3    H212175   6.719   6.808   2.428 -3.1405  0.0840 -2.6794
 4071TIP3   OH212176   5.797   1.161   3.864 -0.2083 -0.1563 -0.1178
 4071TIP3    H112177   5.792   1.187   3.956  0.0368 -2.1987  0.5361
 4071TIP3    H212178   5.867   1.215   3.827  0.1531  0.2145  1.0733
 4072TIP3   OH212179   5.517   2.779   4.955 -0.6017 -0.3543  0.3925
 4072TIP3    H112180   5.549   2.865   4.980 -0.4345 -0.3192  0.0585
 4072TIP3    H212181   5.428   2.775   4.990 -0.9828  0.3460 -0.4454
 4073TIP3   OH212182   1.069   4.833   5.204  0.3227 -0.1830 -0.1082
 4073TIP3    H112183   1.085   4.890   5.128  1.6049  0.2254  0.4509
 4073TIP3    H212184   0.974   4.833   5.214  0.1068 -0.3398 -1.7797
 4074TIP3   OH212185   3.577   2.709   1.563  0.3330 -0.2068 -0.0693
 4074TIP3    H112186   3.513   2.775   1.534  0.5881 -0.4394 -1.2359
 4074TIP3    H212187   3.619   2.681   1.482 -0.0979 -2.1412  0.3445
 4075TIP3   OH212188   0.107   1.748   0.089 -0.0140 -0.1996 -0.2960
 4075TIP3    H112189   0.157   1.740   0.008 -0.8579 -1.3815 -0.7332
 4075TIP3    H212190   0.118   1.840   0.115 -0.9237  0.6281 -2.5556
 4076TIP3   OH212191   6.227   3.490   2.736 -0.0501 -1.2023  0.5375
 4076TIP3    H112192   6.176   3.511   2.657  1.7231  1.6924  0.0007
 4076TIP3    H212193   6.169   3.512   2.808  0.1753  1.7444 -0.0551
 4077TIP3   OH212194   5.937   5.326   5.057 -0.9874 -0.1961 -0.1001
 4077TIP3    H112195   5.858   5.349   5.009 -0.5795  0.4224 -0.4826
 4077TIP3    H212196   6.007   5.330   4.992 -0.4693  0.3759  0.4815
 4078TIP3   OH212197   4.258   5.452   5.873  0.1855 -0.4055 -0.9478
 4078TIP3    H112198   4.336   5.402   5.894 -0.0510 -0.7652 -0.9153
 4078TIP3    H212199   4.282   5.543   5.891  0.4509 -0.5599 -0.5157
 4079TIP3   OH212200   0.863   3.751   5.662 -0.4092 -0.6211 -0.5042
 4079TIP3    H112201   0.777   3.750   5.704 -0.1326 -0.5487  0.0828
 4079TIP3    H212202   0.878   3.660   5.636 -1.1190 -0.4466 -1.5876
 4080TIP3   OH212203   0.691   1.166   4.699 -0.1180  0.2335 -0.6243
 4080TIP3    H112204   0.644   1.243   4.668 -1.0976  0.0842  0.4250
 4080TIP3    H212205   0.773   1.200   4.735 -1.3378  1.0594  1.5398
 4081TIP3   OH212206   2.369   0.730   1.529 -0.1208 -0.5432  0.1401
 4081TIP3    H112207   2.462   0.739   1.548  0.1581 -1.3351 -0.7568
 4081TIP3    H212208   2.355   0.782   1.450 -1.0380  1.8163  1.7459
 4082TIP3   OH212209   4.107   0.247   1.018  0.3646 -0.3215  0.6938
 4082TIP3    H112210   4.130   0.258   1.110  0.9616  1.7943  0.3556
 4082TIP3    H212211   4.171   0.185   0.984  1.7858  0.8177  1.1731
 4083TIP3   OH212212   0.633   3.022   2.186  0.2461  0.7872  0.0972
 4083TIP3    H112213   0.542   3.046   2.200  0.2092  1.2290 -0.8099
 4083TIP3    H212214   0.671   3.096   2.139  1.1362  0.7091  0.6689
 4084TIP3   OH212215   0.568   2.882   1.387 -0.1983 -0.0027  0.2562
 4084TIP3    H112216   0.548   2.814   1.323 -1.1516  1.0744 -0.6423
 4084TIP3    H212217   0.643   2.848   1.436 -0.7005 -1.7289 -0.0938
 4085TIP3   OH212218   1.863   5.650   2.685 -0.4932  0.1897 -0.1675
 4085TIP3    H112219   1.952   5.673   2.658 -0.7136  0.4173 -0.7070
 4085TIP3    H212220   1.810   5.662   2.606 -1.1240  0.7186  0.3295
 4086TIP3   OH212221   0.522   1.958   1.229 -0.1365 -0.4756  0.1614
 4086TIP3    H112222   0.465   2.030   1.256  0.8063  0.2613  0.2576
 4086TIP3    H212223   0.532   1.967   1.135  2.0899  1.1849  0.4695
 4087TIP3   OH212224   2.700   5.427   0.810  0.3895 -0.1396  0.0306
 4087TIP3    H112225   2.637   5.447   0.879  0.0181  0.0278 -0.3543
 4087TIP3    H212226   2.763   5.367   0.851  1.1739  1.3185  1.0394
 4088TIP3   OH212227   4.516   0.716   0.504 -0.1430  0.1380  0.0702
 4088TIP3    H112228   4.481   0.803   0.525 -3.2051 -1.0738  0.5455
 4088TIP3    H212229   4.563   0.728   0.422 -1.7762  1.9930 -0.6696
 4089TIP3   OH212230   0.955   4.344   2.669  0.3525 -0.0984  0.1969
 4089TIP3    H112231   1.033   4.289   2.683 -0.5009 -1.7756 -1.2969
 4089TIP3    H212232   0.968   4.382   2.582 -1.2887 -1.8887 -0.9032
 4090TIP3   OH212233   6.213   3.819   1.627 -0.7148 -0.3092  0.7539
 4090TIP3    H112234   6.263   3.740   1.605 -2.3280 -1.4107  0.9137
 4090TIP3    H212235   6.229   3.879   1.553 -0.7519 -1.4036 -0.1598
 4091TIP3   OH212236   4.667   2.744   2.328 -0.5181  0.1272  0.4316
 4091TIP3    H112237   4.724   2.803   2.279 -0.5169 -0.0045  0.2736
 4091TIP3    H212238   4.715   2.726   2.409 -1.3907  1.9533  1.4260
 4092TIP3   OH212239   2.018   6.481   5.356  0.4283 -0.1686  0.3478
 4092TIP3    H112240   2.034   6.453   5.266  2.2256  1.8949 -0.0669
 4092TIP3    H212241   1.932   6.523   5.352  0.2024 -0.6703 -0.2669
 4093TIP3   OH212242   2.906   1.236   1.996 -0.1382  0.5207  0.4777
 4093TIP3    H112243   2.920   1.141   1.999  0.3506  0.5541 -0.3494
 4093TIP3    H212244   2.994   1.272   1.986 -0.1257  1.1733  2.4911
 4094TIP3   OH212245   4.753   6.036   2.699 -0.1165  0.3989 -0.3803
 4094TIP3    H112246   4.842   6.063   2.720 -0.5698  2.0901 -0.4780
 4094TIP3    H212247   4.732   5.970   2.765  1.1616  0.0328 -0.3082
 4095TIP3   OH212248   3.968   4.025   3.045  0.3543 -0.2317  0.3496
 4095TIP3    H112249   3.978   3.986   3.132  0.1392  0.1100  0.5316
 4095TIP3    H212250   3.985   4.118   3.059  1.6820 -0.3714 -0.2395
 4096TIP3   OH212251   2.563   5.630   2.882  0.2796 -0.0201 -0.5316
 4096TIP3    H112252   2.506   5.707   2.881  0.6016  0.2182 -1.0133
 4096TIP3    H212253   2.649   5.663   2.853  0.0622 -0.8264 -2.2266
 4097TIP3   OH212254   4.421   2.715   4.701  0.3148  0.9704  0.3029
 4097TIP3    H112255   4.330   2.686   4.691  0.3868  0.6838  0.4579
 4097TIP3    H212256   4.442   2.757   4.618  0.5474 -0.3743 -0.3448
 4098TIP3   OH212257   2.398   3.629   0.981  0.0143 -0.1001  0.3962
 4098TIP3    H112258   2.328   3.619   1.045 -0.2440  0.2425  0.1680
 4098TIP3    H212259   2.365   3.693   0.918  0.3888 -0.2027  0.0892
 4099TIP3   OH212260   3.120   3.319   0.624 -0.1588 -0.0341 -0.4473
 4099TIP3    H112261   3.113   3.363   0.540  2.3046  2.2965  0.4040
 4099TIP3    H212262   3.199   3.265   0.617 -1.1639 -1.5950 -0.2831
 4100TIP3   OH212263   4.573   3.088   0.298 -0.2818 -0.0421 -1.0403
 4100TIP3    H112264   4.625   3.095   0.378  2.4554  2.2610 -2.8286
 4100TIP3    H212265   4.495   3.141   0.316  0.3719  0.5964  0.0633
 4101TIP3   OH212266   1.319   1.250   4.539  0.0312  0.2018  0.1528
 4101TIP3    H112267   1.374   1.319   4.503  0.6004 -0.1394  0.3626
 4101TIP3    H212268   1.263   1.223   4.467 -0.4760  1.1545  0.1705
 4102TIP3   OH212269   2.452   0.140   3.101  0.2064  0.1242 -0.1201
 4102TIP3    H112270   2.488   0.215   3.148  0.1326 -1.4155  2.5612
 4102TIP3    H212271   2.428   0.175   3.015  3.2824  2.3847 -0.2189
 4103TIP3   OH212272   1.123   0.848   4.492 -0.3335 -0.2187 -0.1191
 4103TIP3    H112273   1.034   0.840   4.458 -0.2879 -2.2310  0.1195
 4103TIP3    H212274   1.152   0.758   4.506  1.1099  0.4257  1.4658
 4104TIP3   OH212275   2.415   6.059   0.538 -0.9600  0.5271  0.4267
 4104TIP3    H112276   2.369   6.104   0.468  2.2547  1.7447 -1.0361
 4104TIP3    H212277   2.423   6.124   0.608 -1.6802  0.1846  0.8543
 4105TIP3   OH212278   0.203   6.486   5.340 -0.0053 -0.1061 -0.3595
 4105TIP3    H112279   0.145   6.463   5.268 -1.7778 -0.2565  1.0678
 4105TIP3    H212280   0.150   6.541   5.398  2.3290  2.8511 -0.7411
 4106TIP3   OH212281   0.609   5.692   4.204 -0.3279 -0.3202  0.3913
 4106TIP3    H112282   0.580   5.601   4.210 -0.9079 -0.0714  1.6031
 4106TIP3    H212283   0.698   5.686   4.169 -0.8954 -1.2481 -0.9986
 4107TIP3   OH212284   1.115   6.204   4.003  0.3671  0.9174 -0.2739
 4107TIP3    H112285   1.075   6.253   3.932 -1.0233  1.6525  0.9725
 4107TIP3    H212286   1.155   6.128   3.960 -3.0150 -0.3149 -1.5731
 4108TIP3   OH212287   0.353   4.948   2.646  0.1753 -0.1089  0.5443
 4108TIP3    H112288   0.367   4.968   2.739  0.1121  2.0191  0.1512
 4108TIP3    H212289   0.259   4.962   2.633  0.0397 -1.1621  0.3001
 4109TIP3   OH212290   3.974   4.640   1.082  0.1219  0.1493  0.0880
 4109TIP3    H112291   4.031   4.571   1.047 -1.3500 -0.9407 -0.2411
 4109TIP3    H212292   3.974   4.624   1.177 -0.6701 -0.6878 -0.0422
 4110TIP3   OH212293   2.553   1.498   0.737 -0.4407  0.2795 -0.3656
 4110TIP3    H112294   2.584   1.535   0.819 -0.0708  0.7120 -0.6911
 4110TIP3    H212295   2.605   1.542   0.670  1.7517 -2.4485 -0.6697
 4111TIP3   OH212296   2.819   1.325   2.790  0.1368  0.4859 -0.3534
 4111TIP3    H112297   2.785   1.249   2.742 -0.4252  0.9524 -0.7073
 4111TIP3    H212298   2.771   1.324   2.873 -1.8863  1.9724 -1.4226
 4112TIP3   OH212299   2.610   6.460   1.868  0.5011  0.6072  0.3997
 4112TIP3    H112300   2.586   6.528   1.805  3.5570  2.1459  0.6837
 4112TIP3    H212301   2.626   6.507   1.950  1.1190 -0.6742  1.0522
 4113TIP3   OH212302   4.927   5.196   1.589 -0.3456 -0.2699 -0.0470
 4113TIP3    H112303   4.891   5.285   1.582  0.9931  0.3351  0.5375
 4113TIP3    H212304   5.018   5.205   1.561 -0.6099 -1.7855 -1.5438
 4114TIP3   OH212305   6.206   0.096   5.275 -0.1087  0.0052 -0.1165
 4114TIP3    H112306   6.187   0.145   5.355  0.7365  1.0139 -0.5098
 4114TIP3    H212307   6.290   0.053   5.292 -0.3567 -0.4959 -0.1427
 4115TIP3   OH212308   5.195   2.825   4.390 -0.0913 -0.2108 -0.2162
 4115TIP3    H112309   5.248   2.831   4.310 -0.4969  0.7897 -0.4308
 4115TIP3    H212310   5.112   2.789   4.360 -0.7676  1.5161 -0.5480
 4116TIP3   OH212311   4.661   0.020   2.867 -0.2784 -0.2557 -0.6479
 4116TIP3    H112312   4.693   0.014   2.777  1.1218 -1.4061 -0.1164
 4116TIP3    H212313   4.578   0.067   2.860  0.1515  0.3249 -2.4437
 4117TIP3   OH212314   2.192   5.235   4.210  0.3674 -0.1733  0.3324
 4117TIP3    H112315   2.279   5.238   4.171  0.9867 -2.5839  1.3772
 4117TIP3    H212316   2.192   5.306   4.275  1.1849  0.4286 -0.3003
 4118TIP3   OH212317   0.813   2.619   0.253  0.0130 -0.2062  0.2232
 4118TIP3    H112318   0.788   2.538   0.210 -0.8344  0.7525 -1.1626
 4118TIP3    H212319   0.791   2.605   0.345 -0.2591 -1.4953 -0.0249
 4119TIP3   OH212320   5.167   5.885   1.421 -0.0867 -0.4442 -0.1324
 4119TIP3    H112321   5.180   5.794   1.446 -0.8525 -0.2592  1.0311
 4119TIP3    H212322   5.248   5.910   1.378  0.9490 -1.0868  1.3604
 4120TIP3   OH212323   6.703   4.968   3.423  0.3311 -0.1163  0.1197
 4120TIP3    H112324   6.681   4.963   3.516  0.5879  0.2942  0.2047
 4120TIP3    H212325   6.671   5.054   3.396  0.2130 -0.2559 -0.1855
 4121TIP3   OH212326   6.045   1.682   0.979 -0.6057  0.0283 -0.2189
 4121TIP3    H112327   6.099   1.666   0.902 -0.3999  0.2022 -0.1111
 4121TIP3    H212328   6.098   1.741   1.034 -0.9121  0.2123 -0.1217
 4122TIP3   OH212329   4.335   5.405   3.393  0.0000 -0.1971 -0.0770
 4122TIP3    H112330   4.276   5.459   3.341  0.4445 -1.4676 -2.0036
 4122TIP3    H212331   4.317   5.315   3.364  1.2345 -0.8269  1.0019
 4123TIP3   OH212332   5.879   1.887   3.406 -0.6483 -0.0156 -0.2596
 4123TIP3    H112333   5.786   1.869   3.393 -1.2757  1.4563  1.6868
 4123TIP3    H212334   5.894   1.969   3.359 -0.3817 -0.1357 -0.3853
 4124TIP3   OH212335   2.336   2.275   5.125 -0.2538 -0.7347  0.3377
 4124TIP3    H112336   2.351   2.249   5.216 -2.2500 -0.8703  0.6562
 4124TIP3    H212337   2.417   2.249   5.080  0.3441 -1.6487  1.8487
 4125TIP3   OH212338   4.794   3.673   0.520 -0.3217 -0.0346  0.3173
 4125TIP3    H112339   4.804   3.749   0.464 -0.8816 -0.8919 -1.0050
 4125TIP3    H212340   4.703   3.677   0.550 -0.2075  0.0812  0.6488
 4126TIP3   OH212341   1.200   2.968   1.062  0.0032  0.3641  0.3124
 4126TIP3    H112342   1.281   3.018   1.051 -0.2552  0.3755 -1.9239
 4126TIP3    H212343   1.228   2.887   1.104  1.3975 -0.1098 -1.4238
 4127TIP3   OH212344   3.283   4.017   3.138  0.1388  0.0371 -0.0519
 4127TIP3    H112345   3.228   4.094   3.145  0.3394  0.0815  1.1612
 4127TIP3    H212346   3.236   3.960   3.077 -1.9305 -0.4650  1.8619
 4128TIP3   OH212347   1.262   4.511   2.295 -0.2780  0.5971 -0.3890
 4128TIP3    H112348   1.315   4.431   2.291  1.3003  1.5226  0.9086
 4128TIP3    H212349   1.281   4.549   2.381 -2.4213  1.4353 -0.2196
 4129TIP3   OH212350   3.853   0.859   1.361  0.0860 -0.4981 -0.1417
 4129TIP3    H112351   3.775   0.911   1.382  0.3895 -0.5230  1.1583
 4129TIP3    H212352   3.922   0.924   1.346  0.6276 -0.4686  2.1382
 4130TIP3   OH212353   6.530   2.683   1.214 -0.8021 -0.0325 -0.5119
 4130TIP3    H112354   6.579   2.612   1.173 -0.4923 -1.1220  1.5788
 4130TIP3    H212355   6.438   2.657   1.207 -0.8130  0.1637 -1.1457
 4131TIP3   OH212356   3.477   4.640   0.863 -0.1116 -0.4667  0.3772
 4131TIP3    H112357   3.417   4.700   0.907  0.3125  0.8551 -0.7723
 4131TIP3    H212358   3.563   4.662   0.898  0.0087 -0.6252  0.1844
 4132TIP3   OH212359   1.817   4.969   4.166  0.0186 -0.0622 -0.2204
 4132TIP3    H112360   1.830   5.002   4.255 -1.5788  0.7000 -0.2396
 4132TIP3    H212361   1.730   4.930   4.168  1.0132 -2.5557 -0.7423
 4133TIP3   OH212362   6.881   2.355   5.455  0.1278  0.4233  0.0805
 4133TIP3    H112363   6.874   2.260   5.446  1.6936  0.2770  0.1278
 4133TIP3    H212364   6.829   2.376   5.533 -0.5138 -0.3377 -0.1323
 4134TIP3   OH212365   2.136   4.105   1.702  0.4005  0.0620 -0.1853
 4134TIP3    H112366   2.217   4.117   1.654 -0.6104 -0.3487 -2.0713
 4134TIP3    H212367   2.112   4.013   1.686 -0.4725  0.1988  0.2737
 4135TIP3   OH212368   6.012   0.871   0.758  0.4880 -0.5169  0.0738
 4135TIP3    H112369   6.022   0.888   0.851 -2.4488  0.4858  0.3046
 4135TIP3    H212370   6.015   0.957   0.717 -1.8697 -0.5118 -0.2497
 4136TIP3   OH212371   6.500   5.750   0.868 -0.1711 -0.1790  0.0318
 4136TIP3    H112372   6.486   5.705   0.784 -0.6348  0.4401 -0.2346
 4136TIP3    H212373   6.577   5.707   0.906 -0.2390 -0.7808 -0.4940
 4137TIP3   OH212374   3.631   5.857   2.397  0.0529 -0.3128 -0.1185
 4137TIP3    H112375   3.653   5.932   2.450 -0.0918 -0.4916  0.1975
 4137TIP3    H212376   3.621   5.785   2.459 -0.9496 -0.3375 -0.2889
 4138TIP3   OH212377   3.010   4.639   5.795  0.6496 -0.0028  0.6096
 4138TIP3    H112378   2.923   4.655   5.757  0.2776  0.9704  1.8055
 4138TIP3    H212379   3.001   4.664   5.887  2.1989  0.0907  0.7603
 4139TIP3   OH212380   0.661   4.086   5.134 -0.1839 -0.5516  0.6299
 4139TIP3    H112381   0.685   4.152   5.199 -0.9464 -1.1423  1.5410
 4139TIP3    H212382   0.630   4.136   5.059 -0.3622  0.1322  1.1510
 4140TIP3   OH212383   0.465   4.262   3.430 -0.3604  0.5781  0.0426
 4140TIP3    H112384   0.379   4.232   3.400 -0.5501  0.4211  0.7151
 4140TIP3    H212385   0.525   4.239   3.360 -0.5668 -1.0166  0.3550
 4141TIP3   OH212386   6.437   5.477   1.913  0.6585 -0.1371  0.4027
 4141TIP3    H112387   6.524   5.507   1.939  0.0584 -0.1278  2.6099
 4141TIP3    H212388   6.422   5.399   1.967 -0.8534  0.0839  0.3332
 4142TIP3   OH212389   2.105   0.049   4.535  0.4756  0.3796  0.3176
 4142TIP3    H112390   2.033   0.002   4.494  2.0051 -0.6549 -1.3411
 4142TIP3    H212391   2.109   0.132   4.487  0.8660  0.0972 -0.1523
 4143TIP3   OH212392   1.969   4.998   0.069 -0.1427  0.1488 -0.0079
 4143TIP3    H112393   1.970   4.982   0.164  3.4405  3.2635  0.7652
 4143TIP3    H212394   2.062   4.992   0.044 -0.8684  0.5135 -3.1058
 4144TIP3   OH212395   2.641   1.868   1.568 -0.0299 -0.5448  0.2616
 4144TIP3    H112396   2.619   1.872   1.661 -3.1478  1.5335 -0.4082
 4144TIP3    H212397   2.714   1.930   1.558  0.7888 -1.2959  1.3761
 4145TIP3   OH212398   1.811   6.016   2.932 -0.0025 -0.4373  0.8711
 4145TIP3    H112399   1.760   6.094   2.955  0.8330  0.2777  0.3848
 4145TIP3    H212400   1.773   5.986   2.850  0.3112  0.0635  0.5371
 4146TIP3   OH212401   3.694   3.262   3.288  0.2491 -0.2231  0.0533
 4146TIP3    H112402   3.626   3.231   3.349  0.8179 -0.6007  0.5120
 4146TIP3    H212403   3.685   3.205   3.212 -0.4974  0.2800 -0.2426
 4147TIP3   OH212404   2.632   6.530   0.056  0.6346 -0.6607  0.0101
 4147TIP3    H112405   2.660   6.621   0.057 -1.0028 -0.0362 -2.1130
 4147TIP3    H212406   2.656   6.499  -0.032 -0.6746 -1.5978 -0.0425
 4148TIP3   OH212407   4.022   1.862   0.737 -0.0693  0.4063  0.5108
 4148TIP3    H112408   4.060   1.942   0.772  0.2025  0.5037  0.0081
 4148TIP3    H212409   3.962   1.892   0.669 -1.3892  0.2766  1.5779
 4149TIP3   OH212410   6.137   3.148   1.843  0.2073  0.2102 -0.3388
 4149TIP3    H112411   6.226   3.115   1.836  0.2840  0.4066 -0.2715
 4149TIP3    H212412   6.082   3.069   1.839  0.4211  0.0100  0.4941
 4150TIP3   OH212413   4.291   0.351   1.316  0.4237  0.2993  0.2520
 4150TIP3    H112414   4.196   0.362   1.317  0.5595  2.3127 -2.0308
 4150TIP3    H212415   4.326   0.439   1.320  2.2028 -0.3677  0.2444
 4151TIP3   OH212416   2.879   3.274   2.324  0.9259  0.1419 -0.1613
 4151TIP3    H112417   2.794   3.233   2.342  0.6953  0.2497 -0.9596
 4151TIP3    H212418   2.911   3.230   2.245  0.4683  1.7641 -1.2950
 4152TIP3   OH212419   2.878   2.955   5.537 -0.2266 -0.3981 -0.0019
 4152TIP3    H112420   2.826   2.887   5.494  0.9577 -0.4226 -1.4793
 4152TIP3    H212421   2.905   3.013   5.466  1.0040  0.1135  0.8471
 4153TIP3   OH212422   6.581   0.707   2.386  0.0967 -0.3226  0.6950
 4153TIP3    H112423   6.524   0.732   2.459 -1.3714  0.4457 -0.6509
 4153TIP3    H212424   6.550   0.621   2.359  1.0933 -0.9203  1.3741
 4154TIP3   OH212425   6.548   1.091   2.681  0.3051  0.4057  0.6500
 4154TIP3    H112426   6.503   1.155   2.625 -2.0410 -1.2144  0.5031
 4154TIP3    H212427   6.550   1.132   2.767 -3.8791 -0.2588  1.2997
 4155TIP3   OH212428   6.922   4.200   5.695  0.1280  0.2958 -0.3656
 4155TIP3    H112429   6.874   4.124   5.726 -0.4593  0.9632  0.4185
 4155TIP3    H212430   7.014   4.177   5.707 -0.0623  0.0945  0.8691
 4156TIP3   OH212431   1.772   1.951   1.071  0.4507  0.8109 -0.3583
 4156TIP3    H112432   1.691   1.942   1.021  1.2750  0.3611 -1.6662
 4156TIP3    H212433   1.767   2.039   1.109 -1.5886  0.0471  1.3883
 4157TIP3   OH212434   1.600   6.038   3.505  0.5790  0.3353  0.2336
 4157TIP3    H112435   1.579   6.064   3.415 -1.2961 -2.0079 -0.0987
 4157TIP3    H212436   1.605   5.942   3.501  3.8770  0.2848  1.9860
 4158TIP3   OH212437   1.665   1.259   4.651 -0.0042  0.2995  0.3916
 4158TIP3    H112438   1.661   1.188   4.587 -1.1756 -1.5268  2.3364
 4158TIP3    H212439   1.740   1.238   4.706  3.4392  3.8923 -2.3699
 4159TIP3   OH212440   7.100   4.525   5.029  0.6472 -0.3512 -0.2696
 4159TIP3    H112441   7.083   4.455   4.966  0.7189  0.2147 -0.9261
 4159TIP3    H212442   7.162   4.582   4.984  0.3676  0.2896  0.1525
 4160TIP3   OH212443   1.367   6.128   5.579  0.0800 -0.5154  0.2142
 4160TIP3    H112444   1.425   6.052   5.573  1.1153  0.2473  0.3318
 4160TIP3    H212445   1.329   6.122   5.667  1.4670 -0.0003  0.8854
 4161TIP3   OH212446   6.813   2.223   0.562  0.4993 -0.1017 -0.4200
 4161TIP3    H112447   6.880   2.290   0.575 -0.7947  1.1266  0.2233
 4161TIP3    H212448   6.787   2.232   0.470 -0.9405  1.5960  0.0909
 4162TIP3   OH212449   1.737   6.167   4.598 -0.0451  0.0043 -0.2583
 4162TIP3    H112450   1.721   6.077   4.627 -1.5765  1.1755  2.9661
 4162TIP3    H212451   1.820   6.190   4.639 -0.1901  0.4086 -0.1924
 4163TIP3   OH212452   2.658   0.663   3.053  0.5484  0.6395  0.4883
 4163TIP3    H112453   2.752   0.674   3.069  0.4992  0.6180  0.7969
 4163TIP3    H212454   2.651   0.648   2.959  1.1165 -2.1746  0.8141
 4164TIP3   OH212455   1.210   0.514   5.551  0.0877  0.1830 -0.3433
 4164TIP3    H112456   1.259   0.436   5.523 -0.9434 -0.1355 -1.3356
 4164TIP3    H212457   1.184   0.556   5.470 -1.3661  0.2807  0.1511
 4165TIP3   OH212458   5.127   1.463   2.806  0.2650  0.0794 -0.1399
 4165TIP3    H112459   5.180   1.450   2.885 -0.0235 -2.1006 -0.2574
 4165TIP3    H212460   5.052   1.514   2.836  0.5090 -0.1219  0.8460
 4166TIP3   OH212461   1.667   5.306   0.458  0.2361 -0.1273  0.5410
 4166TIP3    H112462   1.598   5.242   0.441 -0.5060 -0.0484  2.8267
 4166TIP3    H212463   1.687   5.295   0.551  0.5956  2.4705  0.8568
 4167TIP3   OH212464   0.262   2.551   4.597  0.0121 -0.4652 -0.1256
 4167TIP3    H112465   0.283   2.473   4.547 -4.1491 -0.7720 -1.7912
 4167TIP3    H212466   0.284   2.624   4.539  0.2501 -0.5654 -0.1621
 4168TIP3   OH212467   4.861   4.862   5.418  0.1347 -0.0534 -0.0548
 4168TIP3    H112468   4.909   4.940   5.389  0.4717  0.2194  1.2079
 4168TIP3    H212469   4.783   4.860   5.361  0.0850  1.2446 -0.0636
 4169TIP3   OH212470   6.561   3.135   2.368 -0.4945  0.0519 -0.2082
 4169TIP3    H112471   6.544   3.042   2.380  0.3531 -0.6265 -3.3392
 4169TIP3    H212472   6.524   3.156   2.282 -0.8283  2.6833  0.4859
 4170TIP3   OH212473   1.187   5.440   4.693  0.2041 -0.0948  0.0960
 4170TIP3    H112474   1.219   5.400   4.773  1.1353  0.4036 -0.0210
 4170TIP3    H212475   1.114   5.496   4.721  0.1125 -0.4163  0.4996
 4171TIP3   OH212476   3.766   1.893   1.156  0.5534  0.2466  0.3813
 4171TIP3    H112477   3.801   1.912   1.069  0.5172  1.3889  0.5958
 4171TIP3    H212478   3.679   1.856   1.140  1.3739 -1.5822 -0.1210
 4172TIP3   OH212479   1.505   5.147   0.288  0.6180  0.5128  0.4858
 4172TIP3    H112480   1.484   5.061   0.325  1.8463  0.0499  0.1466
 4172TIP3    H212481   1.443   5.158   0.216  1.8098 -1.0719 -0.8633
 4173TIP3   OH212482   0.742   2.487   0.493  0.0042 -0.1483 -0.4235
 4173TIP3    H112483   0.775   2.554   0.553  1.3666 -1.6034  0.5536
 4173TIP3    H212484   0.653   2.469   0.524  0.5729 -0.6520  1.0307
 4174TIP3   OH212485   5.408   2.815   4.187 -0.0146  0.4571  0.3331
 4174TIP3    H112486   5.485   2.758   4.178 -0.6127 -0.8974  2.8305
 4174TIP3    H212487   5.435   2.881   4.252 -1.5418 -1.3665  3.0016
 4175TIP3   OH212488   5.663   1.509   5.688  0.3942  0.3836 -0.3898
 4175TIP3    H112489   5.603   1.581   5.669 -0.6836 -0.1004  0.9603
 4175TIP3    H212490   5.691   1.478   5.603 -0.2058  1.5052 -1.0280
 4176TIP3   OH212491   1.476   0.487   5.819 -0.3183 -0.0478  0.1815
 4176TIP3    H112492   1.483   0.529   5.734  2.3045 -1.3896 -0.3534
 4176TIP3    H212493   1.383   0.497   5.843 -0.8045  1.6823 -2.0811
 4177TIP3   OH212494   2.000   5.546   3.097 -0.2696 -0.6178  0.7665
 4177TIP3    H112495   1.920   5.593   3.075  0.0528 -1.2371 -2.0366
 4177TIP3    H212496   2.027   5.583   3.181 -0.3839  3.8271 -0.8814
 4178TIP3   OH212497   7.176   6.369   4.529  0.1563  0.2523  0.1682
 4178TIP3    H112498   7.098   6.320   4.554  0.8515 -0.8142  0.3134
 4178TIP3    H212499   7.145   6.459   4.516 -1.8921 -0.7778 -3.5786
 4179TIP3   OH212500   2.260   0.779   0.923 -0.3639 -0.0954 -0.2710
 4179TIP3    H112501   2.355   0.778   0.933 -0.1272  0.7338 -2.0838
 4179TIP3    H212502   2.230   0.849   0.980  0.1533 -0.0481 -0.0525
 4180TIP3   OH212503   6.837   5.940   3.355  0.1556 -0.1988  0.3594
 4180TIP3    H112504   6.892   6.014   3.330  0.3070 -0.1939  0.7109
 4180TIP3    H212505   6.899   5.873   3.385  0.1681 -1.0816 -1.4482
 4181TIP3   OH212506   6.790   4.770   0.307 -0.3043 -0.6633 -0.2160
 4181TIP3    H112507   6.832   4.698   0.354  1.1298 -1.3927 -2.4753
 4181TIP3    H212508   6.856   4.839   0.305 -1.5105  0.6552  1.5472
 4182TIP3   OH212509   2.294   4.924   3.130 -0.0304 -0.9066  0.1866
 4182TIP3    H112510   2.327   4.944   3.042  1.1449  0.7540  0.9677
 4182TIP3    H212511   2.217   4.979   3.139  0.4817 -0.2391  0.5814
 4183TIP3   OH212512   4.630   1.587   4.180 -0.0790  0.3283  0.0315
 4183TIP3    H112513   4.647   1.515   4.241 -0.6320  0.7577  0.7139
 4183TIP3    H212514   4.631   1.546   4.094 -2.2504 -0.8770  0.5106
 4184TIP3   OH212515   6.865   4.500   3.761 -0.0742 -0.1691  0.2932
 4184TIP3    H112516   6.851   4.418   3.808  1.8366 -0.7197  0.0004
 4184TIP3    H212517   6.961   4.508   3.754 -0.2259  1.6981 -0.3672
 4185TIP3   OH212518   4.941   4.038   5.825 -0.5674  0.0457 -0.2197
 4185TIP3    H112519   4.993   4.081   5.893  0.7866  1.0953 -1.8229
 4185TIP3    H212520   4.911   3.957   5.865  0.5653  0.4169  1.4753
 4186TIP3   OH212521   4.130   0.220   3.374  0.2637 -0.0691  0.0534
 4186TIP3    H112522   4.108   0.136   3.334 -2.1509  1.0739 -1.2815
 4186TIP3    H212523   4.050   0.248   3.417  1.2793  1.1627  1.2269
 4187TIP3   OH212524   4.906   1.118   4.446 -0.4849  0.0107  0.1376
 4187TIP3    H112525   4.955   1.062   4.385  0.4876  0.7896  0.1778
 4187TIP3    H212526   4.955   1.115   4.528 -1.4815 -0.5852  0.7343
 4188TIP3   OH212527   5.894   0.797   4.750  0.2916  0.2889 -0.4024
 4188TIP3    H112528   5.911   0.752   4.833  4.2484  0.1393 -1.1087
 4188TIP3    H212529   5.906   0.889   4.770 -0.7641  0.4478 -0.4400
 4189TIP3   OH212530   0.173   4.912   4.481 -0.0281  0.2472  0.8401
 4189TIP3    H112531   0.171   4.825   4.521 -0.2521  0.5695  1.5512
 4189TIP3    H212532   0.086   4.925   4.446  0.0412  0.1347  0.6280
 4190TIP3   OH212533   3.487   2.031   3.776 -0.1837  0.1545 -0.5689
 4190TIP3    H112534   3.467   1.981   3.855 -0.2002  0.6644 -0.2481
 4190TIP3    H212535   3.581   2.045   3.779 -0.2676  0.6869 -0.3298
 4191TIP3   OH212536   2.928   0.528   4.459 -0.2621  0.3701  0.0241
 4191TIP3    H112537   3.009   0.480   4.439  0.6286  0.5966  2.7110
 4191TIP3    H212538   2.863   0.490   4.400  1.1006 -2.0613 -0.0530
 4192TIP3   OH212539   3.854   0.594   5.354  0.1395  0.0277  0.1524
 4192TIP3    H112540   3.878   0.674   5.307  0.8215 -0.4120 -0.2675
 4192TIP3    H212541   3.858   0.525   5.288 -1.3579 -0.2227  0.3005
 4193TIP3   OH212542   1.546   0.693   2.679  0.5540 -0.3684  0.0445
 4193TIP3    H112543   1.537   0.674   2.585 -2.2608  0.7011  0.0018
 4193TIP3    H212544   1.490   0.629   2.722  1.7317 -0.7690  1.0417
 4194TIP3   OH212545   5.499   3.928   1.675 -1.0655 -0.4446  0.4421
 4194TIP3    H112546   5.408   3.906   1.694 -0.7856 -0.7174  1.5467
 4194TIP3    H212547   5.495   4.008   1.623 -1.9086  0.0445  1.2429
 4195TIP3   OH212548   2.991   0.314   4.884 -0.1090  0.2900  0.2478
 4195TIP3    H112549   3.009   0.288   4.975  0.3120 -1.3488 -0.2667
 4195TIP3    H212550   2.973   0.231   4.839  0.7820  0.9647 -1.4042
 4196TIP3   OH212551   3.368   1.151   1.314 -0.7096 -0.8543 -0.2103
 4196TIP3    H112552   3.305   1.179   1.380  0.2113  0.2030  0.2476
 4196TIP3    H212553   3.338   1.194   1.233 -0.9453 -0.8882 -0.1418
 4197TIP3   OH212554   4.759   2.833   5.532 -0.9363 -0.5951 -0.2226
 4197TIP3    H112555   4.730   2.823   5.622 -0.7897  0.8363  0.0154
 4197TIP3    H212556   4.820   2.907   5.534  0.6754 -1.8381 -1.1646
 4198TIP3   OH212557   6.333   4.021   0.834 -0.3869 -0.4150 -0.0548
 4198TIP3    H112558   6.370   4.038   0.747 -0.0940 -0.0038  0.1425
 4198TIP3    H212559   6.239   4.015   0.820 -0.2824 -1.0569 -0.5083
 4199TIP3   OH212560   1.832   2.638   2.494  0.2353 -0.0422  0.0843
 4199TIP3    H112561   1.896   2.608   2.429 -0.8561 -1.5504 -0.3342
 4199TIP3    H212562   1.748   2.605   2.462 -0.5701  0.6880  1.3698
 4200TIP3   OH212563   1.121   0.866   1.647  0.6317  0.4472 -0.1096
 4200TIP3    H112564   1.085   0.782   1.678  1.2303  0.1114 -0.3104
 4200TIP3    H212565   1.060   0.894   1.580 -0.4928  1.0037  1.0898
 4201TIP3   OH212566   6.359   3.111   5.322 -0.0804 -0.6501  0.4723
 4201TIP3    H112567   6.278   3.063   5.303  0.0774 -0.5470 -0.5383
 4201TIP3    H212568   6.377   3.093   5.414 -0.8181 -1.3284  0.4942
 4202TIP3   OH212569   3.211   2.408   3.857 -0.0272  0.1571 -0.2512
 4202TIP3    H112570   3.288   2.438   3.808 -0.0963  0.0472 -0.4288
 4202TIP3    H212571   3.172   2.487   3.893 -0.9107  0.4310 -1.7301
 4203TIP3   OH212572   5.995   5.546   2.917  0.2432 -0.0425  0.5875
 4203TIP3    H112573   5.947   5.603   2.976  0.1410 -0.6348  1.0840
 4203TIP3    H212574   6.033   5.605   2.851 -1.3936  0.4062  0.0151
 4204TIP3   OH212575   2.980   0.253   1.533  1.1615 -0.4366 -0.4245
 4204TIP3    H112576   3.029   0.172   1.548  0.1408 -0.7895  1.3464
 4204TIP3    H212577   3.041   0.323   1.558  2.1138 -0.6109 -2.1401
 4205TIP3   OH212578   1.964   6.768   3.664  0.2395 -0.1154 -0.0461
 4205TIP3    H112579   1.876   6.753   3.697 -0.7944  1.3789 -1.9141
 4205TIP3    H212580   1.988   6.685   3.622 -0.5486 -0.3273 -0.0996
 4206TIP3   OH212581   5.016   4.276   3.637 -0.3543  0.5450 -0.5275
 4206TIP3    H112582   5.033   4.289   3.730 -2.7698  1.2832 -0.0973
 4206TIP3    H212583   4.970   4.192   3.633  1.5742 -0.5173 -1.3615
 4207TIP3   OH212584   2.045   5.255   2.483  0.2301 -0.5942  0.4507
 4207TIP3    H112585   2.084   5.258   2.395  0.3655  1.6511  0.5387
 4207TIP3    H212586   1.957   5.290   2.472 -0.4586 -2.0798  0.9260
 4208TIP3   OH212587   2.067   0.288   0.976  0.4997  0.0381 -0.2840
 4208TIP3    H112588   2.157   0.288   1.006  0.7046 -0.0211 -0.8797
 4208TIP3    H212589   2.055   0.373   0.934  0.2625  0.0702 -0.1527
 4209TIP3   OH212590   3.465   3.849   0.571  0.3524  0.1000  0.0053
 4209TIP3    H112591   3.437   3.869   0.482 -0.2484  0.4583  0.2687
 4209TIP3    H212592   3.399   3.891   0.627  1.0126  0.3274  0.6260
 4210TIP3   OH212593   0.725   4.932   4.901  0.4595  0.0625 -0.1258
 4210TIP3    H112594   0.786   4.997   4.866 -0.4286  1.6233  1.1411
 4210TIP3    H212595   0.657   4.983   4.945 -1.1833 -1.6629 -0.5121
 4211TIP3   OH212596   6.256   3.680   4.415 -0.2386 -0.1032  0.7037
 4211TIP3    H112597   6.305   3.744   4.364  1.2627 -0.2526  1.8755
 4211TIP3    H212598   6.258   3.714   4.505 -2.1371 -0.2352  0.8444
 4212TIP3   OH212599   0.190   6.390   5.848  0.3724 -0.1474  0.3778
 4212TIP3    H112600   0.247   6.345   5.786 -0.6896 -0.9697 -0.0220
 4212TIP3    H212601   0.143   6.320   5.893 -0.0450  0.5049  0.9838
 4213TIP3   OH212602   3.910   0.141   0.862  0.3996 -0.0517  0.7527
 4213TIP3    H112603   3.835   0.093   0.897 -0.2101 -0.0494 -0.5078
 4213TIP3    H212604   3.958   0.171   0.940  0.2015 -1.7588  1.5644
 4214TIP3   OH212605   0.645   2.210   1.178  0.2045  0.0978  0.2151
 4214TIP3    H112606   0.729   2.256   1.174  0.8451 -0.9519  0.8869
 4214TIP3    H212607   0.650   2.146   1.106 -0.7382  1.1424 -0.8091
 4215TIP3   OH212608   1.263   6.003   4.316  0.7431  0.3354  0.2384
 4215TIP3    H112609   1.289   5.913   4.297 -1.4997 -0.2638 -0.3842
 4215TIP3    H212610   1.345   6.050   4.327  1.9975 -1.6411 -0.0595
 4216TIP3   OH212611   4.426   5.114   4.672  0.2363 -0.4862 -0.1697
 4216TIP3    H112612   4.453   5.042   4.615 -0.3191  0.9054 -2.3404
 4216TIP3    H212613   4.331   5.107   4.677  0.2491 -0.3717  0.2594
 4217TIP3   OH212614   4.815   3.444   4.944 -0.1715 -0.1284 -0.0427
 4217TIP3    H112615   4.787   3.357   4.974 -1.8948  0.6452  0.7290
 4217TIP3    H212616   4.739   3.478   4.896  0.6963  0.7359 -0.8404
 4218TIP3   OH212617   3.316   3.138   1.305  0.1364 -0.3178 -0.0316
 4218TIP3    H112618   3.394   3.086   1.319 -1.1174 -2.1971  0.3731
 4218TIP3    H212619   3.307   3.143   1.210 -0.3529 -1.9158 -0.0967
 4219TIP3   OH212620   6.292   6.122   1.709  0.3369 -0.2219 -0.0274
 4219TIP3    H112621   6.269   6.168   1.790  0.4480 -0.0464 -0.0955
 4219TIP3    H212622   6.343   6.046   1.738  0.1317 -0.3190  0.0868
 4220TIP3   OH212623   2.729   2.379   3.163 -0.2078  0.0005 -0.0646
 4220TIP3    H112624   2.774   2.429   3.095 -2.3686 -1.8205 -3.0274
 4220TIP3    H212625   2.761   2.289   3.153 -2.5619 -0.8404 -0.5886
 4221TIP3   OH212626   0.695   5.253   3.731  0.3889  0.0258 -0.4084
 4221TIP3    H112627   0.671   5.172   3.775 -0.9624  0.4762 -0.2658
 4221TIP3    H212628   0.623   5.269   3.670 -0.1791  1.9269  0.6797
 4222TIP3   OH212629   1.094   4.425   1.173  0.3878 -0.2572 -0.3289
 4222TIP3    H112630   1.052   4.508   1.151  0.8098  0.2298  0.6737
 4222TIP3    H212631   1.043   4.359   1.124  1.1188  0.7203 -2.5361
 4223TIP3   OH212632   6.026   3.521   4.454  0.0258  0.2040 -0.5824
 4223TIP3    H112633   6.082   3.594   4.425 -1.1985  0.7532 -1.6822
 4223TIP3    H212634   5.971   3.559   4.522  0.3543 -0.0868 -0.1523
 4224TIP3   OH212635   2.894   3.728   5.009 -0.0664  0.0183 -0.0908
 4224TIP3    H112636   2.805   3.752   4.983  0.3113  1.3050 -0.2392
 4224TIP3    H212637   2.903   3.761   5.099  0.5506  0.6801 -0.3877
 4225TIP3   OH212638   1.691   3.249   0.188 -0.2229  0.6431  0.4647
 4225TIP3    H112639   1.777   3.209   0.202 -0.3802  0.1941  0.1531
 4225TIP3    H212640   1.635   3.212   0.257 -0.2090  0.8179  0.5719
 4226TIP3   OH212641   3.708   0.019   1.002  0.1642  0.5009 -0.5860
 4226TIP3    H112642   3.637   0.074   0.969 -0.4639 -0.1135 -0.2792
 4226TIP3    H212643   3.734   0.061   1.084  0.0538  0.6473 -0.6262
 4227TIP3   OH212644   0.370   0.070   5.091  0.9574  0.1606  0.1787
 4227TIP3    H112645   0.408   0.145   5.047  1.2387  0.4576  0.9217
 4227TIP3    H212646   0.437   0.041   5.153  0.8275 -0.6587 -0.0502
 4228TIP3   OH212647   0.076   1.262   5.300  0.2966  0.0788 -0.2795
 4228TIP3    H112648   0.111   1.212   5.226 -1.0946 -2.5519  0.7336
 4228TIP3    H212649  -0.013   1.286   5.274  0.0477 -0.2418  0.2717
 4229TIP3   OH212650   3.393   5.415   1.319 -0.3562  0.0567  0.1523
 4229TIP3    H112651   3.399   5.320   1.321  0.8512  0.1111 -0.0733
 4229TIP3    H212652   3.477   5.445   1.355 -0.3940  1.0244 -0.5416
 4230TIP3   OH212653   2.360   1.662   1.813 -0.0398 -0.1123  0.0600
 4230TIP3    H112654   2.411   1.620   1.744 -1.1995 -2.7799  0.6927
 4230TIP3    H212655   2.269   1.653   1.784 -0.4786 -0.4290  1.4806
 4231TIP3   OH212656   1.800   2.631   1.030  0.6189  0.2447 -0.7705
 4231TIP3    H112657   1.740   2.556   1.031  0.5891  0.2773 -0.3037
 4231TIP3    H212658   1.801   2.663   1.120  0.6097  0.8281 -0.9731
 4232TIP3   OH212659   3.852   4.265   1.943 -0.3975  0.0484 -0.1590
 4232TIP3    H112660   3.901   4.346   1.928 -0.7139  0.4098  0.7466
 4232TIP3    H212661   3.769   4.278   1.897 -0.3376  0.1254 -0.2460
 4233TIP3   OH212662   3.932   4.943   0.527 -0.4571  0.3283  0.1275
 4233TIP3    H112663   3.974   4.964   0.611  0.1441 -1.7597  0.4221
 4233TIP3    H212664   3.987   4.873   0.491 -0.7208  1.1818 -2.0181
 4234TIP3   OH212665   0.372   4.641   4.872 -0.2971  0.6877  0.6844
 4234TIP3    H112666   0.391   4.732   4.849  0.0735  0.4426  0.0199
 4234TIP3    H212667   0.383   4.592   4.791 -0.0998 -0.0121  1.1223
 4235TIP3   OH212668   2.142   6.475   3.965  0.1458 -0.2294 -0.5917
 4235TIP3    H112669   2.210   6.488   4.031  0.4343 -2.1981 -0.4186
 4235TIP3    H212670   2.119   6.382   3.973 -2.4144  0.3160 -0.8064
 4236TIP3   OH212671   0.665   4.887   0.291  0.0059  0.4265 -0.0754
 4236TIP3    H112672   0.607   4.853   0.223 -0.7436 -0.0266  0.7715
 4236TIP3    H212673   0.718   4.954   0.246 -1.7663  1.4891 -0.6845
 4237TIP3   OH212674   4.334   6.355   2.174  0.2812 -0.7410  0.2080
 4237TIP3    H112675   4.410   6.337   2.231  0.5405  1.4331  0.6380
 4237TIP3    H212676   4.327   6.450   2.174 -0.9011 -0.7876 -1.9184
 4238TIP3   OH212677   0.469   5.951   1.651  0.0296  0.7578 -0.0118
 4238TIP3    H112678   0.518   5.907   1.581  0.3222  0.5648  0.3114
 4238TIP3    H212679   0.516   5.928   1.731 -2.3257 -2.0456  0.7431
 4239TIP3   OH212680   6.812   2.868   2.239 -0.5702 -0.1822 -0.2466
 4239TIP3    H112681   6.801   2.782   2.198  0.6498 -0.3023 -0.3703
 4239TIP3    H212682   6.728   2.886   2.282 -1.2407 -0.8975 -1.2139
 4240TIP3   OH212683   2.384   2.456   0.920  0.2042 -0.6473 -0.3326
 4240TIP3    H112684   2.429   2.395   0.978  1.7501  1.5355  0.9355
 4240TIP3    H212685   2.291   2.440   0.936  0.5796 -1.4930  1.2454
 4241TIP3   OH212686   3.520   3.574   3.755  0.1014 -0.2168 -0.4973
 4241TIP3    H112687   3.507   3.523   3.834 -0.7608  3.2450  1.8333
 4241TIP3    H212688   3.433   3.583   3.717 -0.2127  1.5285  0.5516
 4242TIP3   OH212689   1.723   5.341   4.188  0.0323 -0.2738  0.3102
 4242TIP3    H112690   1.674   5.423   4.183 -2.4309 -1.6461  0.4346
 4242TIP3    H212691   1.738   5.326   4.281 -0.8629 -0.6754  0.4003
 4243TIP3   OH212692   6.042   3.393   1.732  0.4661  0.2174  0.0497
 4243TIP3    H112693   5.991   3.404   1.652 -1.9362  2.9976  1.7493
 4243TIP3    H212694   6.090   3.312   1.719 -2.2307 -1.1286 -2.9309
 4244TIP3   OH212695   5.887   4.585   0.646 -0.5975  0.1203  0.1103
 4244TIP3    H112696   5.817   4.650   0.646 -0.5402  0.1890 -0.5879
 4244TIP3    H212697   5.951   4.619   0.583 -0.0679 -0.0792  0.5341
 4245TIP3   OH212698   4.139   6.687   0.575 -0.1908  0.2024 -0.1110
 4245TIP3    H112699   4.153   6.593   0.560  0.5961  0.5032 -1.3856
 4245TIP3    H212700   4.208   6.711   0.636 -0.2508  0.0080  0.0372
 4246TIP3   OH212701   2.960   2.555   5.042  0.1981 -0.2985  0.3880
 4246TIP3    H112702   2.869   2.571   5.069  0.3628  0.7036  0.3980
 4246TIP3    H212703   2.966   2.460   5.034 -0.7981 -0.3943  0.5802
 4247TIP3   OH212704   0.126   5.898   4.776  0.4481  0.0245  0.4816
 4247TIP3    H112705   0.099   5.913   4.686  2.6660 -1.8039 -0.5809
 4247TIP3    H212706   0.121   5.803   4.787  2.4838 -0.0255  1.4514
 4248TIP3   OH212707   5.571   6.236   1.403  0.0240  0.2359  0.3261
 4248TIP3    H112708   5.620   6.204   1.327 -2.7596  0.4114 -1.7086
 4248TIP3    H212709   5.621   6.311   1.434  1.4893 -0.1311 -1.0520
 4249TIP3   OH212710   5.407   2.559   3.817  0.7350 -0.5469  0.1659
 4249TIP3    H112711   5.313   2.568   3.800  0.9803 -1.4513 -2.0131
 4249TIP3    H212712   5.430   2.638   3.866 -0.7793  0.7701 -1.1244
 4250TIP3   OH212713   1.357   3.339   1.338 -0.0631 -0.1354 -0.1985
 4250TIP3    H112714   1.336   3.425   1.301  0.1057 -0.8474 -2.0532
 4250TIP3    H212715   1.273   3.295   1.347  0.0326 -0.5955 -1.4263
 4251TIP3   OH212716   5.831   4.505   1.468 -0.2779  0.1166 -0.0887
 4251TIP3    H112717   5.894   4.482   1.537 -1.1646 -1.0677  0.3580
 4251TIP3    H212718   5.863   4.459   1.391 -0.3573 -0.1284  0.0252
 4252TIP3   OH212719   2.827   0.667   1.095  0.4067  0.7011  0.4514
 4252TIP3    H112720   2.780   0.584   1.091  0.7959  0.5375 -2.3228
 4252TIP3    H212721   2.910   0.650   1.052  1.0811  2.2018  1.0765
 4253TIP3   OH212722   2.774   2.767   1.882 -0.0653  0.6906 -0.2736
 4253TIP3    H112723   2.834   2.809   1.820  0.2071 -0.2351 -0.6651
 4253TIP3    H212724   2.800   2.674   1.880 -0.6193  0.5119  0.5846
 4254TIP3   OH212725   0.560   4.072   2.161  0.1477 -0.1689 -0.2824
 4254TIP3    H112726   0.541   4.003   2.097 -0.7910 -0.6497  0.4821
 4254TIP3    H212727   0.475   4.109   2.182  0.4421  0.0322  0.6238
 4255TIP3   OH212728   4.049   6.069   4.420  0.5325  0.0277  0.3700
 4255TIP3    H112729   4.013   6.157   4.418 -0.7802 -0.3818  2.7879
 4255TIP3    H212730   4.142   6.081   4.400  0.2405  1.8361 -0.0989
 4256TIP3   OH212731   2.461   6.523   3.655  0.0410  0.3119  0.3653
 4256TIP3    H112732   2.515   6.588   3.611  0.4769  0.7081  1.4551
 4256TIP3    H212733   2.522   6.455   3.682  0.5521  1.9644  3.8993
 4257TIP3   OH212734   3.452   4.857   3.218  0.6672 -0.7466  0.7597
 4257TIP3    H112735   3.537   4.887   3.251 -0.0257  0.9315  1.1252
 4257TIP3    H212736   3.394   4.862   3.294 -0.6946  2.1052 -0.3148
 4258TIP3   OH212737   4.408   1.688   4.743 -0.2411 -0.3413  0.4103
 4258TIP3    H112738   4.363   1.688   4.828  0.4076 -0.3227  0.7608
 4258TIP3    H212739   4.455   1.605   4.741  0.1163 -0.1381  0.2756
 4259TIP3   OH212740   0.067   3.642   4.914  0.3730  0.2677  0.4495
 4259TIP3    H112741   0.125   3.698   4.966  1.4827 -0.9939  0.6160
 4259TIP3    H212742  -0.019   3.652   4.954  0.6532  1.4467  0.7902
 4260TIP3   OH212743   6.492   0.998   3.694  0.5261  0.3037 -0.1921
 4260TIP3    H112744   6.561   0.935   3.672 -0.0054 -0.2884 -0.2132
 4260TIP3    H212745   6.539   1.078   3.717  1.1854  0.1548 -0.9811
 4261TIP3   OH212746   0.693   5.655   4.824  0.1603 -0.3273  0.1370
 4261TIP3    H112747   0.673   5.738   4.866 -1.5009 -0.7889  0.3429
 4261TIP3    H212748   0.710   5.677   4.732  1.1576  0.3792  0.4811
 4262TIP3   OH212749   5.340   5.867   4.105  0.0065 -0.1830 -0.0544
 4262TIP3    H112750   5.295   5.787   4.133  1.1519 -1.0201 -0.5373
 4262TIP3    H212751   5.362   5.911   4.186  1.2631 -1.4432  0.3276
 4263TIP3   OH212752   6.969   0.607   2.669 -0.0970 -0.2779 -0.3340
 4263TIP3    H112753   6.952   0.663   2.594  1.4744  1.1146  0.2842
 4263TIP3    H212754   6.889   0.556   2.680 -1.7932  2.1362 -0.6932
 4264TIP3   OH212755   1.639   5.730   4.057 -0.2760  0.3707 -0.4512
 4264TIP3    H112756   1.655   5.774   3.974  0.4533 -1.9954 -1.6515
 4264TIP3    H212757   1.725   5.699   4.085 -1.0266 -2.3960 -0.9714
 4265TIP3   OH212758   3.214   2.827   3.925 -0.4290 -0.1849 -0.2577
 4265TIP3    H112759   3.284   2.813   3.989 -1.0708 -1.8738  0.1169
 4265TIP3    H212760   3.258   2.818   3.840 -0.3258 -2.3445 -0.0358
 4266TIP3   OH212761   1.592   2.510   4.860 -0.6962 -0.3731  0.2092
 4266TIP3    H112762   1.597   2.508   4.956  0.4212  1.4309  0.2298
 4266TIP3    H212763   1.571   2.600   4.838  0.5118 -0.4100 -1.2837
 4267TIP3   OH212764   3.122   4.357   3.771  0.4244 -0.1709  0.0273
 4267TIP3    H112765   3.107   4.263   3.784  1.8052 -0.3173  0.7580
 4267TIP3    H212766   3.061   4.382   3.702 -1.5917 -1.1112  1.3728
 4268TIP3   OH212767   3.594   6.300   5.614  0.1476  0.2992  0.0564
 4268TIP3    H112768   3.664   6.363   5.593  0.7166 -0.2084  0.3759
 4268TIP3    H212769   3.628   6.216   5.584  0.4449 -0.2391  1.8007
 4269TIP3   OH212770   1.714   2.427   5.451  0.2186 -0.1807 -0.1744
 4269TIP3    H112771   1.630   2.390   5.423  0.0169  1.1640 -1.4953
 4269TIP3    H212772   1.717   2.410   5.545 -2.4083  1.2433  0.2726
 4270TIP3   OH212773   1.717   1.786   5.299  0.0751 -0.0084 -0.1789
 4270TIP3    H112774   1.663   1.797   5.221 -1.2171 -2.8225  0.1792
 4270TIP3    H212775   1.688   1.855   5.358 -0.0854  1.1496 -1.5490
 4271TIP3   OH212776   4.568   6.109   2.496 -0.0244 -0.6900  0.3830
 4271TIP3    H112777   4.617   6.095   2.577  2.5201 -0.2520 -0.9572
 4271TIP3    H212778   4.556   6.021   2.459  0.2218 -0.7688  0.4890
 4272TIP3   OH212779   2.291   0.633   4.139  0.1061 -0.0339 -0.0500
 4272TIP3    H112780   2.265   0.548   4.105 -1.0811  0.8087 -1.3745
 4272TIP3    H212781   2.293   0.622   4.234 -1.7142 -1.1018 -0.0983
 4273TIP3   OH212782   0.889   1.276   3.766  0.1494  0.5712 -0.1171
 4273TIP3    H112783   0.896   1.197   3.820 -0.3736  0.9012  0.4508
 4273TIP3    H212784   0.911   1.247   3.678 -1.4611 -0.5393 -0.2067
 4274TIP3   OH212785   2.234   2.838   4.693  0.3311 -0.7292 -0.0708
 4274TIP3    H112786   2.186   2.833   4.776  1.3229 -3.0804  0.4483
 4274TIP3    H212787   2.304   2.773   4.702  0.2560 -1.3282 -2.8975
 4275TIP3   OH212788   5.811   5.498   2.436 -0.0824 -0.5178  0.4781
 4275TIP3    H112789   5.861   5.557   2.492  0.0626  0.6442 -0.8197
 4275TIP3    H212790   5.877   5.445   2.393  0.3138  2.0587 -2.4193
 4276TIP3   OH212791   6.462   5.607   0.625 -0.2430  0.5764  0.4413
 4276TIP3    H112792   6.429   5.684   0.577 -1.1154  0.4245  0.7813
 4276TIP3    H212793   6.557   5.615   0.620 -0.2658  0.1482 -1.9899
 4277TIP3   OH212794   4.347   2.278   4.814  0.1466 -0.1641  0.4005
 4277TIP3    H112795   4.404   2.201   4.807 -1.1410 -0.9827 -2.6775
 4277TIP3    H212796   4.402   2.345   4.854  2.5238 -1.5930 -0.2984
 4278TIP3   OH212797   7.083   4.565   2.699 -0.1350  0.0003  0.6388
 4278TIP3    H112798   7.010   4.509   2.726 -1.2418  1.0042 -0.1683
 4278TIP3    H212799   7.088   4.632   2.767 -0.7831  0.6335  0.0800
 4279TIP3   OH212800   1.098   3.450   5.560  0.3533 -0.1140 -0.2400
 4279TIP3    H112801   1.002   3.445   5.561  0.3437 -0.2383 -1.0179
 4279TIP3    H212802   1.116   3.540   5.533  0.4720  0.2558  1.0021
 4280TIP3   OH212803   5.726   0.805   0.244  0.4522  0.5308  0.2231
 4280TIP3    H112804   5.718   0.710   0.241  0.5225  0.3021  3.4713
 4280TIP3    H212805   5.659   0.838   0.184  0.3527 -1.5300 -0.8631
 4281TIP3   OH212806   6.414   0.703   4.536  0.0013  0.6946 -0.0833
 4281TIP3    H112807   6.422   0.798   4.534  0.6346  0.6368 -0.5589
 4281TIP3    H212808   6.502   0.671   4.516 -0.7371  0.0128 -2.6023
 4282TIP3   OH212809   4.967   1.163   5.540 -0.3513 -0.1382 -0.0896
 4282TIP3    H112810   4.921   1.241   5.509 -1.3531 -0.5174  0.3916
 4282TIP3    H212811   4.925   1.090   5.495  1.3197 -0.3606 -1.4017
 4283TIP3   OH212812   5.702   4.810   2.938 -0.4572 -0.1798  0.1421
 4283TIP3    H112813   5.677   4.770   3.022  0.2410 -0.7226  0.1076
 4283TIP3    H212814   5.628   4.793   2.880 -0.5777 -0.5739  0.4062
 4284TIP3   OH212815   5.107   4.215   3.914 -0.0687 -0.2487  0.1783
 4284TIP3    H112816   5.015   4.219   3.939  0.2965 -1.5045  1.9155
 4284TIP3    H212817   5.149   4.163   3.983  1.5566 -1.5436 -1.6715
 4285TIP3   OH212818   4.056   2.736   4.249 -0.5118 -0.1056  0.4906
 4285TIP3    H112819   4.003   2.808   4.283  2.1079  2.1297  0.1584
 4285TIP3    H212820   4.051   2.746   4.154  0.7299  0.3778  0.4579
 4286TIP3   OH212821   1.169   0.299   2.866  0.7891  0.0710  0.0140
 4286TIP3    H112822   1.167   0.393   2.847  0.8163  0.2268  0.7430
 4286TIP3    H212823   1.076   0.275   2.872  0.6776 -0.5282 -2.7813
 4287TIP3   OH212824   3.942   4.200   5.341 -0.5757 -0.3934 -0.1929
 4287TIP3    H112825   3.939   4.233   5.430 -1.0986 -1.5931  0.2549
 4287TIP3    H212826   3.998   4.262   5.294 -3.2620  2.4340  0.0178
 4288TIP3   OH212827   4.400   0.498   4.966  0.2863 -0.3960 -0.8192
 4288TIP3    H112828   4.482   0.507   5.015  0.3343 -0.7315 -0.8301
 4288TIP3    H212829   4.427   0.501   4.874 -0.0049  2.0312 -0.8727
 4289TIP3   OH212830   6.515   1.139   5.694 -0.1103 -0.0781  0.2797
 4289TIP3    H112831   6.457   1.169   5.625  0.2112 -1.3232 -0.5747
 4289TIP3    H212832   6.457   1.106   5.763 -0.4667 -1.6243 -0.7055
 4290TIP3   OH212833   4.151   1.174   2.565 -0.4561  0.4218 -0.7959
 4290TIP3    H112834   4.160   1.256   2.517 -0.2479  0.3970 -0.8009
 4290TIP3    H212835   4.072   1.186   2.619  0.8055  1.4973  0.9208
 4291TIP3   OH212836   5.240   0.059   3.199  0.2751 -0.3232 -0.3862
 4291TIP3    H112837   5.195   0.105   3.270  1.3761 -1.6922  1.2616
 4291TIP3    H212838   5.172   0.009   3.155 -0.1094 -1.0779  1.0331
 4292TIP3   OH212839   1.431   4.702   4.870  0.0376 -0.6191 -0.3154
 4292TIP3    H112840   1.337   4.714   4.854 -0.8963  0.8890  4.6114
 4292TIP3    H212841   1.442   4.607   4.876 -1.2938 -0.7925 -0.3712
 4293TIP3   OH212842   3.529   4.093   3.183  0.0626 -0.0195 -0.2735
 4293TIP3    H112843   3.433   4.098   3.186  0.0091  1.4559 -2.3025
 4293TIP3    H212844   3.548   4.039   3.105  0.8267  1.9387 -1.5108
 4294TIP3   OH212845   5.533   1.043   3.631 -0.8249  0.1162  0.0115
 4294TIP3    H112846   5.559   0.964   3.680 -0.2220  0.1728 -0.2029
 4294TIP3    H212847   5.556   1.116   3.690 -0.5177  0.1670 -0.1713
 4295TIP3   OH212848   3.438   5.241   0.325 -0.8473 -0.2237  0.0953
 4295TIP3    H112849   3.349   5.271   0.345 -1.0387  0.7006 -1.8552
 4295TIP3    H212850   3.495   5.305   0.369 -1.2240  1.0482 -1.1955
 4296TIP3   OH212851   3.555   1.937   2.066  0.1058 -0.8756 -0.4672
 4296TIP3    H112852   3.493   1.999   2.027  1.7788  1.8841  0.9559
 4296TIP3    H212853   3.613   1.913   1.994 -1.4864 -2.1507 -1.4066
 4297TIP3   OH212854   6.720   6.409   3.823 -0.0568  0.4349  0.2823
 4297TIP3    H112855   6.750   6.463   3.896  1.5924  0.7005 -0.5375
 4297TIP3    H212856   6.741   6.461   3.745  2.9358 -1.8684 -0.6351
 4298TIP3   OH212857   2.365   4.827   1.320 -0.6655 -0.4133  0.6721
 4298TIP3    H112858   2.367   4.914   1.281 -0.0739 -0.9282 -0.4866
 4298TIP3    H212859   2.285   4.826   1.372 -1.1929  0.4838 -0.0967
 4299TIP3   OH212860   3.644   4.925   5.454  0.1079  0.0193 -0.3159
 4299TIP3    H112861   3.624   4.831   5.450 -1.8144  0.3501  0.6703
 4299TIP3    H212862   3.573   4.967   5.406 -1.0416  1.1570  2.2079
 4300TIP3   OH212863   5.556   6.793   1.012  0.5725  0.1377 -0.2792
 4300TIP3    H112864   5.486   6.805   1.076 -0.3228 -0.1575 -1.1749
 4300TIP3    H212865   5.593   6.707   1.033  0.0135 -0.1380 -0.4020
 4301TIP3   OH212866   5.768   3.796   1.612  0.1918  0.0666 -0.5387
 4301TIP3    H112867   5.711   3.867   1.642  0.1356  0.2890 -1.1544
 4301TIP3    H212868   5.717   3.752   1.543  1.3755  1.2672 -2.2566
 4302TIP3   OH212869   6.210   3.133   4.455  0.3444  0.8839  0.0530
 4302TIP3    H112870   6.201   3.120   4.361  3.9148 -2.7209 -0.0747
 4302TIP3    H212871   6.259   3.215   4.463  1.4490  0.4093 -1.3921
 4303TIP3   OH212872   6.428   5.047   0.950 -0.3319 -0.1927  0.2961
 4303TIP3    H112873   6.353   5.010   0.996  0.1650 -1.0180  0.4586
 4303TIP3    H212874   6.426   5.140   0.972 -0.3147 -0.5020  1.6815
 4304TIP3   OH212875   5.438   6.612   3.087 -0.2080 -0.3822  0.7960
 4304TIP3    H112876   5.399   6.551   3.024 -1.1183  0.9084  0.0578
 4304TIP3    H212877   5.490   6.671   3.034  0.2056 -0.1607  1.4359
 4305TIP3   OH212878   3.318   1.183   0.781  0.4424 -0.2913  0.3350
 4305TIP3    H112879   3.258   1.242   0.736  0.8533 -0.8284 -0.9626
 4305TIP3    H212880   3.394   1.177   0.723 -0.1484 -3.1421 -0.2768
 4306TIP3   OH212881   6.820   0.566   5.354 -0.1209  0.4325 -0.2053
 4306TIP3    H112882   6.740   0.569   5.406 -0.4157  0.7710 -0.6697
 4306TIP3    H212883   6.802   0.500   5.287 -0.4068  1.2467 -0.9397
 4307TIP3   OH212884   6.916   6.285   0.452  0.8138  0.2496  0.4817
 4307TIP3    H112885   6.840   6.302   0.397  2.1805 -0.0519 -1.6299
 4307TIP3    H212886   6.899   6.199   0.491 -0.1679  0.4578  0.5409
 4308TIP3   OH212887   5.421   0.208   1.868 -0.4509  0.1090 -0.4892
 4308TIP3    H112888   5.399   0.291   1.910  0.3663  0.2437 -0.3079
 4308TIP3    H212889   5.350   0.193   1.806 -0.4666  1.0870 -0.7260
 4309TIP3   OH212890   0.863   5.891   2.650 -0.1502  0.7983  0.5656
 4309TIP3    H112891   0.891   5.811   2.695  2.3092  1.3497  0.1556
 4309TIP3    H212892   0.768   5.883   2.644  0.0536 -2.4627 -0.1625
 4310TIP3   OH212893   3.180   4.427   3.006 -0.1554 -0.0165  0.2048
 4310TIP3    H112894   3.189   4.398   3.097 -2.1697  0.0559  0.4608
 4310TIP3    H212895   3.113   4.494   3.009 -0.0822  0.1522 -1.3250
 4311TIP3   OH212896   2.953   5.454   5.128  0.4029  0.4512  0.1943
 4311TIP3    H112897   2.929   5.502   5.207  1.6732  1.8591 -0.2201
 4311TIP3    H212898   3.047   5.442   5.134  0.4253 -0.0038 -0.7958
 4312TIP3   OH212899   1.652   2.233   5.214  0.0478 -0.2778 -0.6020
 4312TIP3    H112900   1.730   2.184   5.237 -0.2592 -1.0864 -1.2452
 4312TIP3    H212901   1.587   2.206   5.279  0.6355  1.3844  0.7574
 4313TIP3   OH212902   3.792   1.183   4.272 -0.4947 -0.2881 -0.1899
 4313TIP3    H112903   3.794   1.187   4.368  1.0865 -1.9943 -0.0839
 4313TIP3    H212904   3.842   1.260   4.243 -1.1148  0.3214  0.3219
 4314TIP3   OH212905   2.226   3.139   3.899  0.7128  0.2819 -0.4446
 4314TIP3    H112906   2.316   3.169   3.893  0.1618  2.3190  0.4542
 4314TIP3    H212907   2.226   3.077   3.972  1.2259  0.9987  0.1777
 4315TIP3   OH212908   5.106   1.818   0.558  0.6698  0.1166  0.2636
 4315TIP3    H112909   5.090   1.786   0.470  2.2721  2.3024 -0.9287
 4315TIP3    H212910   5.028   1.869   0.580  0.5902  0.2121 -0.2298
 4316TIP3   OH212911   2.167   2.836   1.236 -0.4293  0.1713 -0.0911
 4316TIP3    H112912   2.081   2.864   1.204 -0.1370 -0.4464 -1.4670
 4316TIP3    H212913   2.164   2.852   1.331 -1.8292  0.7329 -0.2166
 4317TIP3   OH212914   4.587   6.120   1.271 -0.1572  0.1518 -0.4954
 4317TIP3    H112915   4.501   6.083   1.253  0.3750 -0.8173 -1.1239
 4317TIP3    H212916   4.571   6.213   1.287 -1.2123  0.1406 -1.4252
 4318TIP3   OH212917   5.140   5.279   5.185 -0.9056 -0.3300  0.8023
 4318TIP3    H112918   5.148   5.342   5.257  0.0097 -0.9433  1.2602
 4318TIP3    H212919   5.219   5.225   5.192 -0.2980  0.2014 -1.2682
 4319TIP3   OH212920   6.770   6.332   4.526 -0.3053  0.1677 -0.5153
 4319TIP3    H112921   6.838   6.276   4.564 -0.0971  0.7085 -0.0738
 4319TIP3    H212922   6.737   6.282   4.452  1.5208  0.4432 -1.5879
 4320TIP3   OH212923   3.737   0.351   3.095  0.4973  0.8430  0.0736
 4320TIP3    H112924   3.680   0.369   3.019  0.0554 -0.9941 -0.0838
 4320TIP3    H212925   3.824   0.379   3.067  0.7973 -1.7943 -2.0522
 4321TIP3   OH212926   5.790   4.309   5.177  0.0957 -0.1940 -0.4561
 4321TIP3    H112927   5.739   4.362   5.238  0.1970 -0.3594 -0.2264
 4321TIP3    H212928   5.816   4.370   5.108 -1.3069 -0.3164 -1.1385
 4322TIP3   OH212929   4.505   2.640   5.885 -0.3818  0.6757  0.2807
 4322TIP3    H112930   4.428   2.620   5.831 -0.0407  2.8763 -1.1560
 4322TIP3    H212931   4.548   2.556   5.896 -2.2534 -0.3927 -0.0398
 4323TIP3   OH212932   3.600   5.102   3.922  0.2001 -0.1646 -0.3720
 4323TIP3    H112933   3.689   5.065   3.920  0.1501 -0.2810 -2.0096
 4323TIP3    H212934   3.577   5.104   4.015  2.8586  2.1797  0.3855
 4324TIP3   OH212935   4.975   4.631   4.124 -0.0195  0.0172 -0.0001
 4324TIP3    H112936   4.985   4.538   4.102 -0.5040 -0.2678  0.9036
 4324TIP3    H212937   5.047   4.649   4.185 -1.1278 -0.3535  1.4910
 4325TIP3   OH212938   1.256   1.751   4.158 -0.1757  0.2234  0.1692
 4325TIP3    H112939   1.277   1.825   4.101  0.4969 -0.3811 -0.3970
 4325TIP3    H212940   1.260   1.675   4.100  0.4505 -0.4038  0.9992
 4326TIP3   OH212941   4.865   6.130   5.184  0.7108 -0.1810 -0.3789
 4326TIP3    H112942   4.867   6.054   5.242  1.0355  0.6423  0.7217
 4326TIP3    H212943   4.863   6.092   5.096  0.5576 -1.4611  0.1445
 4327TIP3   OH212944   3.859   6.477   4.017  0.2385 -0.1865  0.0038
 4327TIP3    H112945   3.777   6.448   4.057 -0.0042  0.0874 -0.2938
 4327TIP3    H212946   3.880   6.409   3.953  1.2222 -1.2172  1.3597
 4328TIP3   OH212947   3.898   6.328   5.110 -0.2944 -0.7312 -0.2034
 4328TIP3    H112948   3.974   6.293   5.156  1.6187  1.2086 -1.6285
 4328TIP3    H212949   3.823   6.281   5.147  1.5834 -2.9118  1.1283
 4329TIP3   OH212950   6.892   3.064   2.018  0.3256  0.1021 -0.3866
 4329TIP3    H112951   6.884   3.151   1.980  0.5661  0.1771 -0.2727
 4329TIP3    H212952   6.878   3.077   2.112 -1.5354 -0.2716 -0.5745
 4330TIP3   OH212953   1.299   5.059   1.727  0.2362 -0.2404  0.3291
 4330TIP3    H112954   1.308   4.987   1.790  2.2166 -1.7784 -1.5705
 4330TIP3    H212955   1.315   5.019   1.642  1.3473  2.4344 -0.8363
 4331TIP3   OH212956   0.587   1.651   2.700  0.0902 -0.5603  0.4962
 4331TIP3    H112957   0.641   1.678   2.774  0.4652  0.4018 -0.1025
 4331TIP3    H212958   0.649   1.609   2.640  0.2869  0.8677 -0.3542
 4332TIP3   OH212959   0.051   3.519   4.553  0.8327  0.1927 -0.2373
 4332TIP3    H112960   0.027   3.608   4.580  0.2509  0.0607 -0.3065
 4332TIP3    H212961   0.036   3.465   4.631 -0.3294 -0.0983 -0.6392
 4333TIP3   OH212962   4.984   3.434   0.880  0.7169 -0.4527 -0.7837
 4333TIP3    H112963   5.013   3.346   0.902  0.0335 -1.4336 -3.3607
 4333TIP3    H212964   5.000   3.441   0.785 -0.6257  1.6464 -0.9179
 4334TIP3   OH212965   7.031   6.515   5.257  0.4787 -0.2496  0.1337
 4334TIP3    H112966   7.076   6.542   5.337  2.4917 -1.4743 -0.4932
 4334TIP3    H212967   6.975   6.442   5.285  0.4193 -0.0449  0.5700
 4335TIP3   OH212968   5.381   6.705   0.734 -0.3857 -0.2009  0.5584
 4335TIP3    H112969   5.300   6.745   0.702  0.7821  1.7717 -0.0613
 4335TIP3    H212970   5.421   6.772   0.790  0.5298 -1.3821  1.3688
 4336TIP3   OH212971   4.492   0.609   2.163 -0.6497 -0.8933  0.4990
 4336TIP3    H112972   4.412   0.595   2.212 -0.5930  0.0840  0.8852
 4336TIP3    H212973   4.464   0.624   2.073 -0.9673  0.1432  0.7557
 4337TIP3   OH212974   3.365   3.971   5.520  0.4533  0.1810 -0.0016
 4337TIP3    H112975   3.323   4.053   5.547 -0.1997 -0.3759  0.7244
 4337TIP3    H212976   3.412   3.941   5.597  0.7184 -0.1099 -0.2725
 4338TIP3   OH212977   3.852   2.108   3.807  0.3393 -0.1822 -0.0282
 4338TIP3    H112978   3.809   2.096   3.722 -0.4197  1.1567  0.1453
 4338TIP3    H212979   3.932   2.156   3.788  1.1862 -1.5989 -0.1978
 4339TIP3   OH212980   2.919   4.437   2.287 -0.6659  0.6455  0.2289
 4339TIP3    H112981   2.983   4.365   2.293 -1.6217 -0.3366 -0.8756
 4339TIP3    H212982   2.834   4.393   2.280 -1.4671  1.9230  1.3914
 4340TIP3   OH212983   0.117   4.342   1.363 -0.6284  0.0580 -0.5444
 4340TIP3    H112984   0.198   4.293   1.348 -1.2003 -1.1921  0.2904
 4340TIP3    H212985   0.103   4.338   1.457 -1.8750 -0.1046 -0.7154
 4341TIP3   OH212986   0.423   1.737   5.461  0.0365 -0.1004 -0.3227
 4341TIP3    H112987   0.396   1.781   5.381 -0.1188 -0.8424 -0.6802
 4341TIP3    H212988   0.388   1.649   5.454  0.5209 -0.3534  0.2944
 4342TIP3   OH212989   1.874   0.399   4.310 -0.1211  0.1040 -0.9161
 4342TIP3    H112990   1.790   0.438   4.286 -2.0495 -1.5352  2.3944
 4342TIP3    H212991   1.874   0.314   4.267  1.0425  0.9807 -2.7934
 4343TIP3   OH212992   3.972   6.706   2.878  0.4600  0.3592  0.1039
 4343TIP3    H112993   4.029   6.697   2.801 -1.2866 -0.2388 -1.1772
 4343TIP3    H212994   3.911   6.777   2.855  0.6710  1.0258  1.4686
 4344TIP3   OH212995   0.367   1.887   0.443 -0.3583 -0.6958  0.7113
 4344TIP3    H112996   0.412   1.825   0.501  0.7979 -0.4982  0.0453
 4344TIP3    H212997   0.302   1.929   0.500  1.3279  0.1309  2.1190
 4345TIP3   OH212998   0.797   5.615   0.971 -0.0209  0.4753 -0.3301
 4345TIP3    H112999   0.802   5.668   1.050  0.4084 -0.9684  0.6569
 4345TIP3    H213000   0.780   5.678   0.901 -0.8889  1.7374  0.9557
 4346TIP3   OH213001   6.414   0.799   1.621 -0.0880 -0.0517  0.0292
 4346TIP3    H113002   6.322   0.822   1.637 -0.9985 -1.3397 -2.6579
 4346TIP3    H213003   6.421   0.708   1.652 -0.2749 -0.5711 -1.3742
 4347TIP3   OH213004   2.436   2.631   0.033 -0.1374 -0.3686  0.4852
 4347TIP3    H113005   2.499   2.696   0.063  0.2669  1.8196 -4.2756
 4347TIP3    H213006   2.352   2.663   0.064  0.3945  0.6345  0.9266
 4348TIP3   OH213007   4.210   1.287   3.954 -0.3697  0.2411 -0.3044
 4348TIP3    H113008   4.240   1.335   3.876 -0.3642  1.8034  0.6154
 4348TIP3    H213009   4.250   1.201   3.946 -3.1219 -0.9749 -3.8396
 4349TIP3   OH213010   1.557   3.095   0.363  0.7326  0.1909  0.1597
 4349TIP3    H113011   1.493   3.125   0.428 -0.5233 -0.1009 -0.8813
 4349TIP3    H213012   1.628   3.057   0.415  0.1736  0.7200  1.3688
 4350TIP3   OH213013   7.232   1.126   4.688  0.2214  0.5997  0.1105
 4350TIP3    H113014   7.228   1.035   4.720 -1.5335  1.1037  1.5118
 4350TIP3    H213015   7.140   1.151   4.677  0.6847  2.2236 -0.2313
 4351TIP3   OH213016   2.055   2.727   2.950  0.0531 -0.5655  0.4340
 4351TIP3    H113017   1.984   2.717   3.014 -0.5804 -1.2029 -0.3387
 4351TIP3    H213018   2.043   2.652   2.890  0.9193 -0.2532 -0.1421
 4352TIP3   OH213019   5.182   3.515   5.304 -0.4636 -0.3424  0.1279
 4352TIP3    H113020   5.131   3.456   5.249 -1.5535 -0.1687  0.9209
 4352TIP3    H213021   5.165   3.602   5.267 -3.0842  0.0791  2.0254
 4353TIP3   OH213022   6.974   5.849   1.301  0.4793  0.0651  0.2341
 4353TIP3    H113023   6.962   5.921   1.363 -1.6225  0.8565 -1.0024
 4353TIP3    H213024   6.916   5.779   1.333  0.2553  0.0472 -0.2065
 4354TIP3   OH213025   2.802   6.077   0.731  0.6752  0.3555 -0.2359
 4354TIP3    H113026   2.848   6.122   0.660  0.3384 -1.2169 -1.5081
 4354TIP3    H213027   2.740   6.019   0.686 -0.9604  0.7599  1.3863
 4355TIP3   OH213028   5.603   2.002   4.557  0.5473 -0.5699 -0.0228
 4355TIP3    H113029   5.593   2.072   4.493  0.6661 -0.8855 -0.3899
 4355TIP3    H213030   5.544   2.026   4.629  0.1872 -0.3693 -0.3842
 4356TIP3   OH213031   1.744   2.993   5.882 -0.0324  0.0455 -0.3026
 4356TIP3    H113032   1.823   3.040   5.857 -0.0881 -0.5837 -1.8068
 4356TIP3    H213033   1.768   2.900   5.877 -0.9551 -0.1699 -1.1738
 4357TIP3   OH213034   6.332   2.261   5.590  0.0860 -0.0937  0.2546
 4357TIP3    H113035   6.252   2.242   5.541 -0.5876  0.1157  1.2686
 4357TIP3    H213036   6.379   2.178   5.592 -0.9165 -0.6630  1.1242
 4358TIP3   OH213037   4.384   5.989   4.696 -0.0560  0.0878 -0.4041
 4358TIP3    H113038   4.440   6.037   4.757 -2.8393  0.2687  2.2826
 4358TIP3    H213039   4.392   6.036   4.614  0.1798  2.9869  1.1487
 4359TIP3   OH213040   0.449   3.451   1.575  0.0077  0.3439  0.3292
 4359TIP3    H113041   0.361   3.414   1.567 -0.5333  1.8673 -1.2613
 4359TIP3    H213042   0.463   3.458   1.670 -1.2366 -0.6839  0.6156
 4360TIP3   OH213043   5.618   6.765   4.580  0.1241 -0.2041 -0.0322
 4360TIP3    H113044   5.660   6.808   4.506  0.4584 -1.5179 -0.6321
 4360TIP3    H213045   5.524   6.772   4.562  0.1434  0.7039  0.1505
 4361TIP3   OH213046   4.811   5.846   4.520 -0.2835 -0.3894  0.0057
 4361TIP3    H113047   4.764   5.763   4.519 -1.4586  0.2110  1.5637
 4361TIP3    H213048   4.765   5.901   4.456  0.1955 -0.7638 -0.6715
 4362TIP3   OH213049   6.897   4.420   2.824  0.1129  0.0152 -0.7981
 4362TIP3    H113050   6.950   4.392   2.899 -0.6431 -0.4582 -0.4281
 4362TIP3    H213051   6.849   4.496   2.856 -0.4240 -0.3571 -0.6953
 4363TIP3   OH213052   6.757   2.375   1.688 -0.3836 -0.3048  0.0129
 4363TIP3    H113053   6.838   2.343   1.729 -0.6458 -0.5082  0.3737
 4363TIP3    H213054   6.737   2.456   1.734 -1.6965 -1.4778  1.5885
 4364TIP3   OH213055   6.850   3.006   4.984 -0.2804 -0.7015  0.0052
 4364TIP3    H113056   6.943   2.989   4.999  0.0400  0.2942 -0.7588
 4364TIP3    H213057   6.806   2.926   5.012  0.6907 -0.7298  1.5830
 4365TIP3   OH213058   1.479   3.220   5.892  0.2796 -0.0498 -0.2913
 4365TIP3    H113059   1.568   3.227   5.857  0.1952  0.5961 -0.3885
 4365TIP3    H213060   1.455   3.129   5.877  1.0381 -0.3150  0.0147
 4366TIP3   OH213061   6.471   5.665   1.500 -0.6017 -0.1430  0.1958
 4366TIP3    H113062   6.539   5.598   1.496 -1.4214 -0.9832  0.0291
 4366TIP3    H213063   6.422   5.654   1.419  0.0024  1.4924 -0.4336
 4367TIP3   OH213064   3.855   6.642   1.451  0.0623  0.5739 -0.0827
 4367TIP3    H113065   3.929   6.690   1.415  0.9728 -1.3969 -1.0269
 4367TIP3    H213066   3.778   6.690   1.420  0.8955  2.5071  0.6923
 4368TIP3   OH213067   2.592   5.893   0.107  0.0267  0.4422 -0.6599
 4368TIP3    H113068   2.530   5.858   0.172  0.8759 -2.6252 -1.3524
 4368TIP3    H213069   2.676   5.857   0.132  0.3059 -1.3990 -3.7017
 4369TIP3   OH213070   0.054   4.219   2.128  0.3350  1.0079 -0.3217
 4369TIP3    H113071   0.038   4.156   2.057  1.1312  0.4289 -0.0097
 4369TIP3    H213072   0.006   4.297   2.102 -2.2577 -0.3198  0.1974
 4370TIP3   OH213073   2.598   2.882   1.483  0.7322  0.4756 -0.3626
 4370TIP3    H113074   2.562   2.831   1.555  0.0349  0.8644 -0.4288
 4370TIP3    H213075   2.602   2.972   1.517 -1.0241  0.9383 -1.2971
 4371TIP3   OH213076   0.259   0.423   0.169  0.1641 -0.2932  0.0021
 4371TIP3    H113077   0.185   0.394   0.116  0.3206  0.4517 -0.6385
 4371TIP3    H213078   0.332   0.369   0.140 -0.2407 -1.4614  1.0657
 4372TIP3   OH213079   1.624   3.734   1.522 -0.4886  0.2114  0.5753
 4372TIP3    H113080   1.544   3.696   1.488 -0.7305 -0.1860  1.5386
 4372TIP3    H213081   1.599   3.823   1.549 -0.3300  0.4769 -0.1483
 4373TIP3   OH213082   6.853   5.781   1.036 -0.9534  0.3259 -0.3238
 4373TIP3    H113083   6.890   5.814   1.118 -2.8964  0.7735  0.4192
 4373TIP3    H213084   6.874   5.687   1.037 -0.6099  0.4015  0.4770
 4374TIP3   OH213085   5.093   4.582   1.456  0.0216 -0.6566  0.5269
 4374TIP3    H113086   5.161   4.523   1.423 -0.1545 -0.6719  0.1953
 4374TIP3    H213087   5.133   4.623   1.533  0.8527  0.2335 -0.3418
 4375TIP3   OH213088   3.009   6.548   2.713  0.8071 -0.2015 -0.4859
 4375TIP3    H113089   3.048   6.513   2.793  0.1360 -0.1947 -0.1433
 4375TIP3    H213090   3.074   6.609   2.679  1.7853 -1.3816 -0.8194
 4376TIP3   OH213091   0.468   0.896   5.162 -0.5085 -0.1998 -0.4653
 4376TIP3    H113092   0.560   0.882   5.181 -0.8127 -2.1426 -0.2031
 4376TIP3    H213093   0.461   0.989   5.142  1.3142  0.1796  0.5014
 4377TIP3   OH213094   4.650   2.198   5.065 -0.6607 -0.2421 -0.0866
 4377TIP3    H113095   4.701   2.264   5.112 -0.1162 -0.6744 -0.0512
 4377TIP3    H213096   4.635   2.236   4.979 -0.5079  0.0058 -0.0063
 4378TIP3   OH213097   1.979   5.129   0.362 -0.0305 -0.4099  0.3373
 4378TIP3    H113098   1.951   5.215   0.330  1.1532  0.7352  2.2061
 4378TIP3    H213099   2.068   5.120   0.329 -0.3924 -1.2750 -0.4440
 4379TIP3   OH213100   3.594   5.170   1.389 -0.1276 -0.1692  0.2442
 4379TIP3    H113101   3.673   5.117   1.384 -0.1236 -0.1306 -0.2079
 4379TIP3    H213102   3.549   5.152   1.306 -0.2804  0.2867  0.2262
 4380TIP3   OH213103   0.478   5.901   4.035 -0.0449  0.0003 -0.0722
 4380TIP3    H113104   0.511   5.830   3.980 -0.5186  0.5033 -1.0303
 4380TIP3    H213105   0.420   5.858   4.098  1.4876 -0.7420  0.8934
 4381TIP3   OH213106   5.646   2.964   0.871 -0.2625 -0.3931 -0.0016
 4381TIP3    H113107   5.726   3.014   0.856  0.1991 -1.1315 -0.0486
 4381TIP3    H213108   5.575   3.023   0.846  0.3465 -0.3645 -1.8114
 4382TIP3   OH213109   2.725   4.689   5.197 -0.2646  0.5138  0.5565
 4382TIP3    H113110   2.685   4.647   5.121 -0.1835  1.2827  0.0869
 4382TIP3    H213111   2.818   4.694   5.176 -0.3849  1.6846  0.2340
 4383TIP3   OH213112   3.975   1.798   1.436 -0.0642 -0.4636 -0.2897
 4383TIP3    H113113   3.897   1.771   1.388 -0.8985  0.3187  0.5685
 4383TIP3    H213114   4.005   1.878   1.392  0.8334 -1.2886 -1.2043
 4384TIP3   OH213115   0.427   2.586   5.498  0.0413 -0.3597 -0.0127
 4384TIP3    H113116   0.506   2.615   5.451  0.8073 -1.8590  0.2884
 4384TIP3    H213117   0.357   2.641   5.463  1.3894  1.8944  0.5794
 4385TIP3   OH213118   4.744   5.292   3.382 -0.5219  0.1147  0.1082
 4385TIP3    H113119   4.839   5.283   3.390 -0.5102 -0.2318 -0.3730
 4385TIP3    H213120   4.731   5.379   3.344 -0.3703 -0.0769 -0.3805
 4386TIP3   OH213121   5.553   4.864   4.242  0.0593  0.5238 -0.2870
 4386TIP3    H113122   5.529   4.788   4.189  2.3930 -0.5178  0.0073
 4386TIP3    H213123   5.503   4.936   4.204  0.4216 -0.4721 -2.9286
 4387TIP3   OH213124   4.671   0.885   1.271  0.5374 -0.1587 -0.2124
 4387TIP3    H113125   4.589   0.869   1.225 -0.3617 -0.1600  1.3013
 4387TIP3    H213126   4.691   0.977   1.251 -0.6724  0.3192  0.5855
 4388TIP3   OH213127   2.154   4.583   1.651 -0.3386 -0.0096 -0.2353
 4388TIP3    H113128   2.211   4.511   1.677 -0.8020 -0.2151  0.2380
 4388TIP3    H213129   2.095   4.546   1.586 -0.6376 -0.0904  0.0757
 4389TIP3   OH213130   5.823   4.546   3.609 -0.0396  0.2162 -0.7383
 4389TIP3    H113131   5.753   4.480   3.610  1.0148 -0.9369 -0.4146
 4389TIP3    H213132   5.874   4.528   3.688  0.4692  1.2266 -0.8204
 4390TIP3   OH213133   6.619   0.630   4.029 -1.0877  0.4241  0.5511
 4390TIP3    H113134   6.556   0.675   4.084  0.2442  1.8756  0.9630
 4390TIP3    H213135   6.702   0.639   4.076 -0.6225 -1.9051  0.3104
 4391TIP3   OH213136   4.936   3.056   5.594  0.4840  0.4648 -0.7669
 4391TIP3    H113137   4.985   3.114   5.536  1.0242  1.0021  0.1976
 4391TIP3    H213138   5.003   3.011   5.645  0.0292 -0.2623 -0.7947
 4392TIP3   OH213139   3.419   0.251   1.669  0.2971  0.0856 -0.2553
 4392TIP3    H113140   3.470   0.190   1.722 -0.9627 -0.7899 -0.0093
 4392TIP3    H213141   3.467   0.334   1.674  1.6337 -0.6783  0.0293
 4393TIP3   OH213142   5.838   5.585   3.715  0.2594  0.7030 -0.2431
 4393TIP3    H113143   5.857   5.641   3.640  1.9281 -0.1295 -0.4877
 4393TIP3    H213144   5.829   5.646   3.789 -1.9965  1.5834 -1.1377
 4394TIP3   OH213145   4.787   1.755   4.327 -0.1317  0.2134 -0.1163
 4394TIP3    H113146   4.867   1.725   4.284  0.2125  0.2101  0.5178
 4394TIP3    H213147   4.721   1.690   4.303 -0.1815  0.7038 -1.4022
 4395TIP3   OH213148   2.824   6.566   3.978  0.1554 -0.5199  0.6523
 4395TIP3    H113149   2.838   6.562   3.883 -2.1043 -0.4904  0.2680
 4395TIP3    H213150   2.784   6.652   3.993  0.2566 -0.6287  1.5965
 4396TIP3   OH213151   6.361   6.546   0.590 -0.3070  0.2549  0.0714
 4396TIP3    H113152   6.290   6.596   0.549 -0.6188  1.5917  2.1123
 4396TIP3    H213153   6.429   6.610   0.608  0.8515 -0.7618 -0.5489
 4397TIP3   OH213154   3.912   3.875   3.682  0.2125 -0.2369  0.1071
 4397TIP3    H113155   3.900   3.788   3.644  1.6540  0.1508 -1.3134
 4397TIP3    H213156   3.949   3.927   3.611 -1.6711  1.8685  0.5638
 4398TIP3   OH213157   6.432   2.277   2.707  0.1297  0.0573 -0.0934
 4398TIP3    H113158   6.422   2.196   2.657  0.5912  0.2401 -0.4899
 4398TIP3    H213159   6.490   2.254   2.779  0.7921  0.1895 -0.5788
 4399TIP3   OH213160   0.252   4.879   2.250  0.1796  0.2299  0.1441
 4399TIP3    H113161   0.268   4.868   2.156 -0.9786 -0.9338  0.0535
 4399TIP3    H213162   0.194   4.954   2.256  0.7754  0.7060 -0.0171
 4400TIP3   OH213163   2.079   0.520   0.802 -0.3159 -0.0962  0.2344
 4400TIP3    H113164   2.159   0.573   0.801 -0.6271  0.3665 -0.5739
 4400TIP3    H213165   2.019   0.570   0.858 -0.9673  0.9658 -1.3596
 4401TIP3   OH213166   3.863   2.340   5.612  0.5262 -0.2014  0.0165
 4401TIP3    H113167   3.939   2.310   5.562  0.4390  0.3133 -0.4388
 4401TIP3    H213168   3.860   2.282   5.688  0.9116 -0.7309 -0.3585
 4402TIP3   OH213169   2.378   2.907   0.839 -0.0050 -0.1430 -0.3359
 4402TIP3    H113170   2.408   2.822   0.870 -1.0543 -0.1030  0.8926
 4402TIP3    H213171   2.456   2.949   0.803  0.3779 -1.9323 -1.7518
 4403TIP3   OH213172   1.395   5.974   4.736  0.3329 -0.3278 -0.3923
 4403TIP3    H113173   1.367   5.883   4.731  0.0974 -0.3041  0.3970
 4403TIP3    H213174   1.491   5.969   4.734  0.3293 -0.4505 -2.3512
 4404TIP3   OH213175   3.904   4.435   3.346  0.0968 -0.8966 -0.0015
 4404TIP3    H113176   3.854   4.367   3.301  1.2276 -2.2768  0.7651
 4404TIP3    H213177   3.924   4.499   3.277 -2.6949 -0.2420 -0.3241
 4405TIP3   OH213178   0.588   0.196   2.910 -0.0124 -0.3548 -0.0498
 4405TIP3    H113179   0.612   0.133   2.842 -0.0146 -0.0873 -0.3014
 4405TIP3    H213180   0.504   0.232   2.880 -0.4718 -0.9009  0.5555
 4406TIP3   OH213181   4.196   2.712   2.255 -0.6746  0.3373 -0.2694
 4406TIP3    H113182   4.212   2.706   2.161 -0.7978 -1.6625 -0.1950
 4406TIP3    H213183   4.108   2.750   2.262  0.0459  2.2239 -0.8810
 4407TIP3   OH213184   7.173   6.771   1.565 -0.1709 -0.3141 -0.0380
 4407TIP3    H113185   7.139   6.692   1.607  0.9432 -1.4647 -1.2198
 4407TIP3    H213186   7.221   6.816   1.634 -0.6856 -0.7468  0.6117
 4408TIP3   OH213187   1.936   2.202   5.864 -0.0172  0.5115  0.3558
 4408TIP3    H113188   1.903   2.141   5.799 -0.0604  1.7699 -0.8465
 4408TIP3    H213189   1.857   2.232   5.910 -0.2152  1.0686 -0.3278
 4409TIP3   OH213190   0.986   6.266   0.113  0.6575  0.0377  0.1105
 4409TIP3    H113191   0.980   6.360   0.132  1.1204 -0.0424  0.6699
 4409TIP3    H213192   1.034   6.262   0.030 -0.1918  0.3303 -0.4049
 4410TIP3   OH213193   0.309   2.619   1.113 -0.3458  0.1142 -0.3823
 4410TIP3    H113194   0.381   2.677   1.135 -0.1443 -0.1005 -0.4698
 4410TIP3    H213195   0.287   2.574   1.195  0.6453 -0.9538 -0.6755
 4411TIP3   OH213196   1.615   4.233   5.534 -0.3271  0.2302  0.1015
 4411TIP3    H113197   1.655   4.223   5.447  0.3124  2.3082  0.1153
 4411TIP3    H213198   1.522   4.249   5.515 -0.8254 -2.3214 -0.0160
 4412TIP3   OH213199   0.072   5.443   0.994  0.1335 -0.2532  0.6863
 4412TIP3    H113200   0.096   5.528   1.030  0.4634 -0.2056  0.3552
 4412TIP3    H213201   0.155   5.398   0.980  0.1027  0.1738 -1.1192
 4413TIP3   OH213202   6.943   4.018   3.325  0.5254 -0.0532  0.4639
 4413TIP3    H113203   7.032   4.032   3.293  0.5721 -1.3343 -0.0133
 4413TIP3    H213204   6.912   3.942   3.277 -0.3265 -0.4719  1.6369
 4414TIP3   OH213205   1.699   5.492   2.879  0.4369 -0.5283  0.4027
 4414TIP3    H113206   1.638   5.565   2.869  0.4999 -0.3367  1.3809
 4414TIP3    H213207   1.770   5.512   2.818 -0.8341 -1.1568 -1.3506
 4415TIP3   OH213208   4.465   1.967   2.093 -0.0514 -0.0812  0.0167
 4415TIP3    H113209   4.478   1.983   2.000  0.2606  0.6163  0.1685
 4415TIP3    H213210   4.381   2.008   2.114 -0.2191 -0.4192 -0.0050
 4416TIP3   OH213211   5.269   0.178   4.186 -0.0782  0.0371  0.1205
 4416TIP3    H113212   5.265   0.272   4.206  0.7371  0.2648 -0.7230
 4416TIP3    H213213   5.348   0.169   4.132 -1.1023 -0.8624 -1.2721
 4417TIP3   OH213214   1.896   3.311   5.599 -0.1535 -0.1441 -0.2377
 4417TIP3    H113215   1.823   3.355   5.555  0.6521  2.7153  1.0421
 4417TIP3    H213216   1.869   3.219   5.603 -3.0063  0.5345 -1.1332
 4418TIP3   OH213217   4.814   1.810   3.290  0.1423 -0.3560  0.3200
 4418TIP3    H113218   4.862   1.863   3.226  1.3633  0.4543  1.8682
 4418TIP3    H213219   4.847   1.838   3.375 -2.9384  0.1381  1.4992
 4419TIP3   OH213220   1.808   4.055   2.115  0.0363 -0.0945  0.3020
 4419TIP3    H113221   1.778   3.964   2.112  1.7605 -0.7510  1.5400
 4419TIP3    H213222   1.901   4.051   2.092  0.2610  1.2893  0.8639
 4420TIP3   OH213223   0.102   1.501   3.527  0.5642 -0.2100 -0.6272
 4420TIP3    H113224   0.056   1.417   3.522 -0.3241  0.1178  1.1394
 4420TIP3    H213225   0.061   1.555   3.460 -1.4916 -0.0384  0.6834
 4421TIP3   OH213226   4.582   6.760   2.772 -0.7767  0.4811  0.3843
 4421TIP3    H113227   4.620   6.845   2.749  0.4944  0.1481  1.1636
 4421TIP3    H213228   4.489   6.769   2.750 -0.2511  1.2483 -1.8273
 4422TIP3   OH213229   1.660   1.284   1.869  0.3925 -0.4150 -0.7613
 4422TIP3    H113230   1.610   1.360   1.837  0.2086 -0.0251  0.4126
 4422TIP3    H213231   1.727   1.322   1.926 -0.1301 -1.1537  0.3847
 4423TIP3   OH213232   2.750   0.029   3.474  0.5237 -0.0353  0.0026
 4423TIP3    H113233   2.750   0.082   3.395 -1.4171 -0.2684 -0.1908
 4423TIP3    H213234   2.747   0.093   3.546  0.8046  0.1402 -0.1375
 4424TIP3   OH213235   4.008   0.891   4.045 -0.2017  0.6370 -0.2756
 4424TIP3    H113236   3.980   0.914   4.134 -2.0677  0.5951 -0.8055
 4424TIP3    H213237   4.096   0.929   4.037  0.8994 -1.1220  2.2650
 4425TIP3   OH213238   4.080   1.064   0.227 -0.4166 -0.5053 -0.6421
 4425TIP3    H113239   3.985   1.070   0.238 -0.1505 -0.2790  2.1974
 4425TIP3    H213240   4.106   0.988   0.280  1.0636 -0.1178 -0.7563
 4426TIP3   OH213241   6.466   4.879   5.341  0.2603  0.4566 -0.3205
 4426TIP3    H113242   6.495   4.807   5.285 -0.3317  0.1164 -0.1906
 4426TIP3    H213243   6.395   4.921   5.291 -0.4974 -0.0494  0.3070
 4427TIP3   OH213244   6.483   6.188   1.092  0.0589  0.5155 -0.5195
 4427TIP3    H113245   6.414   6.163   1.030 -1.5853  2.5037  0.3753
 4427TIP3    H213246   6.561   6.199   1.038 -1.0492  1.0886 -2.0861
 4428TIP3   OH213247   0.812   0.408   3.453 -0.4938 -0.3337 -0.0121
 4428TIP3    H113248   0.856   0.491   3.470 -2.0635  0.3669  0.8178
 4428TIP3    H213249   0.838   0.352   3.527 -0.3280 -0.2100  0.0241
 4429TIP3   OH213250   5.482   5.105   1.382 -0.0718 -0.1381  0.4690
 4429TIP3    H113251   5.484   5.173   1.450  1.7620  1.4804 -1.0732
 4429TIP3    H213252   5.568   5.063   1.388  0.7209  0.9941 -1.6562
 4430TIP3   OH213253   4.429   5.707   4.574  0.0248  0.5669  0.2460
 4430TIP3    H113254   4.436   5.792   4.618  1.1850  0.5926  0.0408
 4430TIP3    H213255   4.402   5.729   4.485  1.4681  0.8555 -0.1600
 4431TIP3   OH213256   3.821   1.201   0.355  0.1552 -0.3685  0.1462
 4431TIP3    H113257   3.883   1.272   0.344 -0.6451  0.2033 -0.8938
 4431TIP3    H213258   3.820   1.184   0.450  1.7524 -0.2972  0.1937
 4432TIP3   OH213259   6.151   3.688   1.007  0.1142  0.3622 -0.1128
 4432TIP3    H113260   6.164   3.679   1.101 -1.0751 -0.0708  0.0255
 4432TIP3    H213261   6.189   3.608   0.970 -0.6069 -0.1045  0.1311
 4433TIP3   OH213262   2.474   4.936   1.929 -0.4178 -0.0688 -0.5084
 4433TIP3    H113263   2.498   4.861   1.984  2.0607 -1.2608 -2.9740
 4433TIP3    H213264   2.390   4.912   1.890 -0.9117 -0.3645  0.7108
 4434TIP3   OH213265   1.242   2.356   3.864  0.2253 -0.3787 -0.2529
 4434TIP3    H113266   1.202   2.375   3.948 -0.5008 -0.5132 -0.5651
 4434TIP3    H213267   1.243   2.441   3.818  1.0138 -0.2157  0.0475
 4435TIP3   OH213268   5.738   1.413   2.058  0.6738  0.4056 -0.1045
 4435TIP3    H113269   5.727   1.331   2.105 -1.0166  1.0228  0.6621
 4435TIP3    H213270   5.830   1.415   2.033  1.2463 -0.6775  1.8041
 4436TIP3   OH213271   7.084   6.134   5.559 -0.1161  0.1875 -0.3914
 4436TIP3    H113272   7.019   6.197   5.526 -1.8219  0.7326  3.5283
 4436TIP3    H213273   7.168   6.179   5.546 -0.9338  1.5672 -1.2232
 4437TIP3   OH213274   6.512   1.789   0.385 -0.1687 -0.2214  0.2860
 4437TIP3    H113275   6.527   1.700   0.352  1.3990 -0.1858  0.8590
 4437TIP3    H213276   6.527   1.845   0.309 -2.0928 -0.4626 -0.3279
 4438TIP3   OH213277   3.818   0.506   0.465 -0.3592 -0.1924  0.1424
 4438TIP3    H113278   3.875   0.541   0.397  0.9100 -2.4798 -0.0392
 4438TIP3    H213279   3.867   0.517   0.546 -0.2021 -0.9776  0.1594
 4439TIP3   OH213280   3.170   6.748   0.118 -0.5939  0.1337 -0.3696
 4439TIP3    H113281   3.182   6.656   0.092  0.1965  0.6160 -1.8086
 4439TIP3    H213282   3.111   6.784   0.052  0.6212  1.1271 -0.9511
 4440TIP3   OH213283   1.055   4.973   4.578  0.1606  0.3344 -0.5945
 4440TIP3    H113284   0.971   4.927   4.575 -0.5144  1.5619 -1.2881
 4440TIP3    H213285   1.078   4.988   4.486  0.2722  1.5196 -0.3917
 4441TIP3   OH213286   3.044   0.721   4.647  0.4929  0.9384 -0.1154
 4441TIP3    H113287   3.035   0.640   4.596 -2.1497  0.3968  1.0282
 4441TIP3    H213288   3.047   0.790   4.581 -2.8254  0.2680 -1.1573
 4442TIP3   OH213289   0.625   1.114   3.780  0.1850  0.2701 -0.0457
 4442TIP3    H113290   0.690   1.055   3.817  0.6979  1.5574  1.1937
 4442TIP3    H213291   0.542   1.082   3.814  0.5572  0.8521  1.4977
 4443TIP3   OH213292   1.750   5.157   1.583 -0.7893  0.1785 -0.2419
 4443TIP3    H113293   1.727   5.224   1.518 -0.9257 -0.2161 -0.6064
 4443TIP3    H213294   1.707   5.186   1.663 -2.1372 -0.2549 -0.7733
 4444TIP3   OH213295   2.835   4.127   1.261  0.1654 -0.3703 -0.1273
 4444TIP3    H113296   2.875   4.180   1.192 -1.5349  0.6853 -0.3495
 4444TIP3    H213297   2.811   4.190   1.329 -0.4003 -1.0643  0.3309
 4445TIP3   OH213298   3.403   4.101   4.416 -0.0730  0.1302  0.0962
 4445TIP3    H113299   3.493   4.080   4.389 -0.6086 -2.0676 -0.1941
 4445TIP3    H213300   3.414   4.165   4.486  1.7754 -0.5130  0.4783
 4446TIP3   OH213301   5.327   5.088   5.137 -0.2939 -0.4992  0.1532
 4446TIP3    H113302   5.329   4.992   5.144  0.6969 -0.4775  0.3387
 4446TIP3    H213303   5.331   5.105   5.043 -1.9470 -0.6486  0.0356
 4447TIP3   OH213304   4.871   4.661   4.539 -0.5677 -0.1442  0.6595
 4447TIP3    H113305   4.938   4.594   4.524 -0.1372  0.6811 -1.5040
 4447TIP3    H213306   4.834   4.640   4.625 -0.1721 -2.8897  0.2418
 4448TIP3   OH213307   1.630   1.567   2.886 -0.5580  0.2897 -0.7980
 4448TIP3    H113308   1.616   1.476   2.909  0.0711  0.6115  0.9605
 4448TIP3    H213309   1.605   1.616   2.964 -1.1953  1.6577 -1.8204
 4449TIP3   OH213310   6.629   2.453   2.573 -0.0392  0.4447  0.5209
 4449TIP3    H113311   6.606   2.542   2.544 -0.1458 -0.3559 -2.1049
 4449TIP3    H213312   6.556   2.426   2.628 -0.4618  1.6397  0.5766
 4450TIP3   OH213313   6.915   4.191   3.810  0.3799  0.5835  1.0644
 4450TIP3    H113314   6.972   4.173   3.884 -0.9151 -0.0422  1.9530
 4450TIP3    H213315   6.828   4.199   3.848  0.0343  2.9247 -0.0707
 4451TIP3   OH213316   6.158   4.835   0.170 -0.3812 -0.0490  0.3248
 4451TIP3    H113317   6.069   4.853   0.198 -0.8825  1.3183 -1.8449
 4451TIP3    H213318   6.149   4.794   0.084  1.0541  0.5730 -0.1658
 4452TIP3   OH213319   4.295   5.487   4.730 -0.0180 -0.2168  0.0709
 4452TIP3    H113320   4.311   5.553   4.797 -0.0204  0.8497 -0.9522
 4452TIP3    H213321   4.342   5.519   4.653  0.8024 -1.8919 -0.1908
 4453TIP3   OH213322   3.891   3.866   1.204 -0.6400  0.2957 -0.4888
 4453TIP3    H113323   3.934   3.877   1.119  0.5817 -0.1694  0.0487
 4453TIP3    H213324   3.803   3.902   1.191  0.0485  1.6970 -1.4821
 4454TIP3   OH213325   3.240   6.757   0.875  0.6221 -0.2545 -0.1625
 4454TIP3    H113326   3.240   6.695   0.802 -0.5047 -0.2445 -0.1992
 4454TIP3    H213327   3.266   6.840   0.836 -2.4158  0.3710 -1.1940
 4455TIP3   OH213328   2.301   6.694   4.761 -0.1540 -0.0106  0.0521
 4455TIP3    H113329   2.250   6.772   4.739  0.3014  1.0926  2.5586
 4455TIP3    H213330   2.257   6.658   4.838  0.8656 -1.0038  0.1883
 4456TIP3   OH213331   3.034   2.499   2.001 -0.1055 -0.0661 -0.2965
 4456TIP3    H113332   3.090   2.422   1.999  0.3060  0.2151  0.0968
 4456TIP3    H213333   3.095   2.573   1.992 -0.1343  0.3606  2.1404
 4457TIP3   OH213334   3.877   2.928   2.900  0.2171  0.3802 -0.5379
 4457TIP3    H113335   3.808   2.863   2.882  0.4987  0.2766 -1.2595
 4457TIP3    H213336   3.955   2.875   2.918  0.3772  0.5170 -0.8382
 4458TIP3   OH213337   6.469   5.007   0.374  0.2778  0.0825  0.3422
 4458TIP3    H113338   6.440   4.956   0.450 -0.7973 -0.9738 -0.7259
 4458TIP3    H213339   6.390   5.053   0.345  0.0569 -1.2706 -1.4204
 4459TIP3   OH213340   4.324   3.857   4.686  0.4003 -0.1672  0.2592
 4459TIP3    H113341   4.281   3.943   4.691 -0.5627 -0.5760 -0.6638
 4459TIP3    H213342   4.399   3.872   4.629 -0.1980 -0.0889 -0.5257
 4460TIP3   OH213343   6.928   2.377   1.078  0.4792  0.5750 -0.1429
 4460TIP3    H113344   7.004   2.381   1.137  0.5989 -0.3205 -0.2240
 4460TIP3    H213345   6.965   2.386   0.990  0.5559 -0.3989 -0.2151
 4461TIP3   OH213346   5.096   4.809   2.385  0.1350  0.6764 -0.0608
 4461TIP3    H113347   5.176   4.843   2.345  0.3599  0.0738 -0.1479
 4461TIP3    H213348   5.087   4.721   2.348 -1.9870  1.6140 -2.0549
 4462TIP3   OH213349   1.729   1.894   3.120  0.5760 -0.3174  0.5302
 4462TIP3    H113350   1.662   1.825   3.126 -2.6844  2.4610 -0.8812
 4462TIP3    H213351   1.749   1.915   3.211 -0.3136 -1.3457  0.9973
 4463TIP3   OH213352   5.059   2.818   2.821  0.1984  0.6031 -0.0643
 4463TIP3    H113353   4.989   2.882   2.808  0.3061  0.4292 -1.7075
 4463TIP3    H213354   5.068   2.775   2.736 -0.1242 -1.8738  1.0763
 4464TIP3   OH213355   1.377   1.523   0.640 -0.2815 -0.1562  0.3728
 4464TIP3    H113356   1.331   1.441   0.660 -1.2031  0.2988  0.1713
 4464TIP3    H213357   1.330   1.590   0.689  1.4524  0.0567  1.8356
 4465TIP3   OH213358   0.432   5.069   3.354  0.2585 -0.7736 -0.4146
 4465TIP3    H113359   0.517   5.067   3.310  0.2782 -1.3672 -0.3711
 4465TIP3    H213360   0.441   5.005   3.425  0.9683  1.6856  1.8679
 4466TIP3   OH213361   5.751   4.832   4.567 -0.1944 -0.2708  0.0379
 4466TIP3    H113362   5.698   4.756   4.588 -0.6377  0.0699  0.1736
 4466TIP3    H213363   5.838   4.797   4.547  0.0240 -0.6678  1.6135
 4467TIP3   OH213364   1.396   0.773   4.303  0.5427  0.0909  0.0370
 4467TIP3    H113365   1.352   0.746   4.384 -0.9483  0.3692 -0.6565
 4467TIP3    H213366   1.406   0.868   4.312  3.6482 -0.2134  1.4205
 4468TIP3   OH213367   2.659   3.394   5.859 -0.0730  0.8349  0.0908
 4468TIP3    H113368   2.686   3.481   5.890 -0.0666  0.9359 -0.1950
 4468TIP3    H213369   2.565   3.401   5.848  0.1813  1.5207 -2.1099
 4469TIP3   OH213370   5.246   3.710   4.791 -0.8704  0.5607 -0.2628
 4469TIP3    H113371   5.213   3.624   4.765  0.0280  0.5463 -1.4362
 4469TIP3    H213372   5.317   3.728   4.730 -0.3306  1.6695  0.6507
 4470TIP3   OH213373   3.453   6.021   2.734  0.3939 -0.0832 -0.1541
 4470TIP3    H113374   3.410   6.102   2.762 -0.0727 -0.2616 -0.3501
 4470TIP3    H213375   3.460   6.030   2.639  1.4302  0.2564 -0.0547
 4471TIP3   OH213376   5.935   5.852   1.900  0.4983 -0.8153 -0.0937
 4471TIP3    H113377   6.002   5.884   1.961  1.3074 -1.2774 -0.7264
 4471TIP3    H213378   5.973   5.863   1.813 -0.9692  0.6156 -0.6082
 4472TIP3   OH213379   3.902   4.705   2.542 -0.1413  0.2175 -0.4138
 4472TIP3    H113380   3.928   4.786   2.586  1.2528 -0.5297  0.2096
 4472TIP3    H213381   3.869   4.650   2.612  0.9460 -0.5263 -0.4534
 4473TIP3   OH213382   5.281   5.656   4.960 -0.2938  0.3389  0.2009
 4473TIP3    H113383   5.205   5.710   4.980 -0.8578 -0.7988  1.2402
 4473TIP3    H213384   5.306   5.617   5.043 -0.0208 -1.1441 -0.5421
 4474TIP3   OH213385   6.594   2.481   4.915  0.1517 -0.1185  0.2251
 4474TIP3    H113386   6.636   2.547   4.860  0.2007  0.3793  0.8591
 4474TIP3    H213387   6.611   2.398   4.869  1.5792  0.1032  0.3196
 4475TIP3   OH213388   4.912   6.599   5.854  0.5170 -0.1479 -0.2606
 4475TIP3    H113389   4.822   6.566   5.850  0.6943 -0.6279 -0.2335
 4475TIP3    H213390   4.901   6.694   5.859  0.0351 -0.1156 -1.5856
 4476TIP3   OH213391   6.010   4.985   4.030  0.2992  0.8196  0.3068
 4476TIP3    H113392   6.014   4.890   4.044 -0.2478  0.5242 -1.2512
 4476TIP3    H213393   5.933   5.013   4.080 -1.0202 -0.0127 -1.1173
 4477TIP3   OH213394   3.397   3.658   2.618 -0.8539 -0.0619  0.1312
 4477TIP3    H113395   3.366   3.747   2.598  1.3690  1.3018  2.2090
 4477TIP3    H213396   3.334   3.625   2.682 -0.4669  0.9810  1.0888
 4478TIP3   OH213397   6.865   0.908   1.097  0.0034 -0.5874 -0.2485
 4478TIP3    H113398   6.863   0.966   1.173 -0.7490  0.9947 -1.4018
 4478TIP3    H213399   6.877   0.820   1.133 -0.3577  0.1111  1.6769
 4479TIP3   OH213400   4.850   6.153   1.283  0.5455  0.2968  0.0127
 4479TIP3    H113401   4.774   6.137   1.227  1.3355 -1.7787 -0.5615
 4479TIP3    H213402   4.857   6.074   1.337  1.7730  0.8358  0.6803
 4480TIP3   OH213403   5.445   3.895   0.337  0.5774 -0.5147 -0.3265
 4480TIP3    H113404   5.504   3.959   0.378  0.7881 -0.4815 -0.6761
 4480TIP3    H213405   5.365   3.944   0.320  0.6715 -0.3919 -0.4205
 4481TIP3   OH213406   3.971   1.518   2.460  0.1628 -0.2018 -0.0509
 4481TIP3    H113407   4.062   1.495   2.479 -0.0496 -0.4579  0.6963
 4481TIP3    H213408   3.929   1.526   2.546 -0.1796  1.3820 -0.3412
 4482TIP3   OH213409   3.147   6.143   5.377 -0.1841 -0.1685  0.2910
 4482TIP3    H113410   3.226   6.196   5.375 -1.3988  1.7597 -1.6596
 4482TIP3    H213411   3.166   6.070   5.317 -0.9592  2.2265 -3.1654
 4483TIP3   OH213412   5.590   5.348   1.164 -0.1673 -0.2170  0.5294
 4483TIP3    H113413   5.543   5.405   1.225 -1.9284 -0.2565 -0.7016
 4483TIP3    H213414   5.583   5.392   1.080  1.1217 -0.7804  0.1011
 4484TIP3   OH213415   3.014   3.972   5.235 -0.3790  0.8705  0.2980
 4484TIP3    H113416   3.104   3.946   5.253 -0.3413  1.0132  0.3155
 4484TIP3    H213417   2.975   3.986   5.321 -0.3747  0.9510  0.2877
 4485TIP3   OH213418   2.126   0.351   3.542 -0.1102 -0.1780 -0.0185
 4485TIP3    H113419   2.119   0.375   3.449 -0.2956 -0.1382  0.0053
 4485TIP3    H213420   2.210   0.307   3.549  1.7631  3.1256  0.5078
 4486TIP3   OH213421   3.006   5.835   0.634 -0.4691  0.1439 -0.2650
 4486TIP3    H113422   3.061   5.843   0.712 -2.8971  1.4193  1.4360
 4486TIP3    H213423   2.963   5.750   0.644 -1.1294  0.5091  0.0592
 4487TIP3   OH213424   4.425   5.693   5.603  0.8728 -0.2219  0.3052
 4487TIP3    H113425   4.507   5.739   5.583  0.2160  1.2939  1.0130
 4487TIP3    H213426   4.356   5.751   5.571  0.0052 -0.5468  1.5266
 4488TIP3   OH213427   2.221   4.815   3.496  0.0924  0.4036  0.0283
 4488TIP3    H113428   2.163   4.766   3.555 -0.0274  3.2811  2.5053
 4488TIP3    H213429   2.199   4.782   3.409 -2.7757 -1.0924  1.1774
 4489TIP3   OH213430   2.310   5.300   0.620  0.5761 -0.4405 -0.4335
 4489TIP3    H113431   2.325   5.392   0.640  2.3562 -0.6817 -0.4575
 4489TIP3    H213432   2.215   5.292   0.613  0.4181  1.5337 -1.1964
 4490TIP3   OH213433   5.377   2.137   4.668 -0.0303 -0.0647 -0.1134
 4490TIP3    H113434   5.343   2.215   4.624 -0.7085 -0.1780  0.1938
 4490TIP3    H213435   5.438   2.171   4.733 -2.0249  0.4301  1.6343
 4491TIP3   OH213436   3.244   0.721   4.944 -0.0793  0.4216 -0.0957
 4491TIP3    H113437   3.170   0.672   4.911  1.1676 -0.0317 -2.4000
 4491TIP3    H213438   3.293   0.748   4.866  1.7134  1.4427  1.2874
 4492TIP3   OH213439   0.069   3.126   0.509  0.3247 -0.2121  0.2248
 4492TIP3    H113440   0.104   3.098   0.424  2.0614  0.0689  0.8020
 4492TIP3    H213441   0.145   3.161   0.556 -0.8182  0.7646  1.4476
 4493TIP3   OH213442   3.433   2.278   3.534 -0.1417  0.7502  0.0297
 4493TIP3    H113443   3.366   2.213   3.555 -0.7700  0.9911 -1.1298
 4493TIP3    H213444   3.495   2.231   3.479 -0.5521  1.0934 -0.7406
 4494TIP3   OH213445   1.880   2.475   4.893  0.2580 -0.2598  0.0077
 4494TIP3    H113446   1.914   2.445   4.808 -1.6568  1.2005 -1.3530
 4494TIP3    H213447   1.797   2.516   4.872 -0.0493  0.5633  2.5752
 4495TIP3   OH213448   1.150   6.714   4.902  0.0691 -0.5630 -0.4934
 4495TIP3    H113449   1.245   6.716   4.918  0.0302 -1.2576 -0.1377
 4495TIP3    H213450   1.111   6.723   4.989 -0.1970 -0.2179 -0.6468
 4496TIP3   OH213451   6.088   0.753   5.663  0.0650 -0.1913 -0.0290
 4496TIP3    H113452   6.041   0.706   5.732  0.1066 -1.1400 -0.6333
 4496TIP3    H213453   6.055   0.843   5.669 -1.2658 -0.6615  0.0727
 4497TIP3   OH213454   2.162   3.362   4.161  0.0464  0.3109  0.0615
 4497TIP3    H113455   2.109   3.371   4.081  0.1168 -0.7629 -0.1138
 4497TIP3    H213456   2.252   3.371   4.131  0.0154  2.9503  0.4666
 4498TIP3   OH213457   3.576   4.193   4.605  0.5569 -0.3749  0.3716
 4498TIP3    H113458   3.660   4.238   4.592 -0.2284  0.9946 -0.0953
 4498TIP3    H213459   3.573   4.175   4.700  1.6148 -0.9748  0.3144
 4499TIP3   OH213460   1.658   2.035   0.637 -0.2489 -0.0118 -0.4986
 4499TIP3    H113461   1.719   2.089   0.688 -0.0050 -1.8370  1.2821
 4499TIP3    H213462   1.715   1.987   0.577 -0.4557  1.5388 -2.0088
 4500TIP3   OH213463   6.214   3.352   5.428  0.5585 -0.0142  0.7214
 4500TIP3    H113464   6.271   3.292   5.380  0.6635 -0.5143  1.4550
 4500TIP3    H213465   6.126   3.318   5.415  0.6487 -0.5276  1.4046
 4501TIP3   OH213466   0.385   5.447   0.859 -0.0267  0.5124  0.8268
 4501TIP3    H113467   0.326   5.500   0.804 -0.7041 -0.8198  0.2384
 4501TIP3    H213468   0.473   5.479   0.836 -0.3228  0.3651 -0.6510
 4502TIP3   OH213469   2.726   6.331   0.461 -0.2209 -0.0792 -0.2582
 4502TIP3    H113470   2.676   6.403   0.421  0.9840  1.0523  0.1746
 4502TIP3    H213471   2.702   6.334   0.554 -0.2428 -0.2829 -0.2587
 4503TIP3   OH213472   6.378   1.649   5.870 -0.5784  0.4997  0.5113
 4503TIP3    H113473   6.398   1.740   5.847 -0.0175 -0.0248 -1.2448
 4503TIP3    H213474   6.317   1.620   5.802 -0.2876 -0.6232  0.7045
 4504TIP3   OH213475   0.887   6.832   2.933  0.5995 -0.7263 -0.5304
 4504TIP3    H113476   0.818   6.771   2.908 -0.8953  0.8068 -0.3173
 4504TIP3    H213477   0.945   6.782   2.991 -1.1448 -1.6585  0.4585
 4505TIP3   OH213478   1.003   2.871   4.593  0.2939  0.5960 -0.1896
 4505TIP3    H113479   0.922   2.830   4.562  0.3245  0.5519 -0.2114
 4505TIP3    H213480   0.991   2.880   4.687  0.2226  0.6806 -0.2063
 4506TIP3   OH213481   1.464   0.270   3.862 -0.3022  0.2785  0.4519
 4506TIP3    H113482   1.429   0.226   3.785  1.4322  1.6480 -1.2040
 4506TIP3    H213483   1.417   0.231   3.936 -1.5905 -1.4979 -1.2307
 4507TIP3   OH213484   0.329   4.858   0.942  0.2480 -0.3479  0.0169
 4507TIP3    H113485   0.328   4.929   0.878  2.7351  0.5381  0.8329
 4507TIP3    H213486   0.248   4.810   0.926 -0.9648  1.9734 -1.3404
 4508TIP3   OH213487   6.851   3.778   2.071  0.2644  0.2019 -0.4323
 4508TIP3    H113488   6.826   3.686   2.071 -0.7243  0.4596 -0.9507
 4508TIP3    H213489   6.775   3.824   2.034  1.8433  0.9447 -2.9822
 4509TIP3   OH213490   1.757   4.310   2.152 -0.4690 -0.4623  0.1972
 4509TIP3    H113491   1.821   4.344   2.089 -0.9996  1.3442  0.5770
 4509TIP3    H213492   1.755   4.216   2.136 -0.8681 -0.0331 -2.7355
 4510TIP3   OH213493   4.262   2.388   0.454 -0.1388 -0.3328 -0.1832
 4510TIP3    H113494   4.217   2.311   0.489  0.9822 -0.8730  0.1023
 4510TIP3    H213495   4.268   2.370   0.360 -1.0532  0.0314 -0.3223
 4511TIP3   OH213496   6.816   0.243   4.214 -0.3812  0.7157  0.4380
 4511TIP3    H113497   6.753   0.315   4.217 -0.2439  0.9327 -1.1653
 4511TIP3    H213498   6.797   0.198   4.131  0.3539 -0.3460  0.8217
 4512TIP3   OH213499   7.000   1.761   0.422 -0.0938 -0.1052 -0.1666
 4512TIP3    H113500   6.978   1.828   0.487  1.4768  0.8206 -0.5295
 4512TIP3    H213501   7.039   1.690   0.472 -0.9401 -0.3893  0.1185
 4513TIP3   OH213502   5.711   0.243   0.835 -0.1004 -0.0187 -0.1188
 4513TIP3    H113503   5.792   0.229   0.785  0.0226 -0.2904  0.1495
 4513TIP3    H213504   5.740   0.279   0.919 -0.2549 -0.1423 -0.0118
 4514TIP3   OH213505   3.522   4.090   2.010  0.4100  0.2119  0.2624
 4514TIP3    H113506   3.559   4.138   1.936 -0.0289  0.3835  0.1483
 4514TIP3    H213507   3.453   4.036   1.972  1.3204 -0.9991  0.3037
 4515TIP3   OH213508   6.204   1.267   5.765 -0.4244  0.1453 -1.0813
 4515TIP3    H113509   6.255   1.209   5.821  0.5508 -0.0906 -2.1894
 4515TIP3    H213510   6.201   1.350   5.813  0.6521  0.0402 -0.8078
 4516TIP3   OH213511   2.389   5.954   3.194 -0.8953  0.4094  0.8939
 4516TIP3    H113512   2.459   6.014   3.218  0.1282  0.3113 -1.5624
 4516TIP3    H213513   2.309   6.003   3.213 -0.1125  1.9792  0.3559
 4517TIP3   OH213514   6.247   2.899   3.705  0.0871 -0.2936  0.3574
 4517TIP3    H113515   6.239   2.819   3.653 -0.9340  0.1588 -0.2104
 4517TIP3    H213516   6.239   2.870   3.795 -0.1176 -0.8498  0.1657
 4518TIP3   OH213517   6.227   0.272   3.948  0.0088  0.0055  0.3641
 4518TIP3    H113518   6.156   0.280   4.012  1.0789  0.1585  1.5574
 4518TIP3    H213519   6.250   0.362   3.927 -2.5887  0.0873 -2.8969
 4519TIP3   OH213520   3.935   2.359   2.994 -0.2328  0.4139  0.0398
 4519TIP3    H113521   4.019   2.313   2.992 -0.2661  0.3523  0.0852
 4519TIP3    H213522   3.934   2.404   3.078  0.4619  1.7206 -0.6218
 4520TIP3   OH213523   5.832   6.170   3.924 -0.1555 -0.3501 -0.0603
 4520TIP3    H113524   5.894   6.223   3.873  1.1358 -0.4424  1.3412
 4520TIP3    H213525   5.815   6.094   3.869  1.5333 -0.6601 -0.2079
 4521TIP3   OH213526   6.350   5.039   5.733  0.5455  0.7878 -0.4836
 4521TIP3    H113527   6.345   4.945   5.714  0.4572  0.6553  0.1912
 4521TIP3    H213528   6.266   5.060   5.773  0.8158  1.0209 -0.0345
 4522TIP3   OH213529   2.060   3.270   2.022 -0.6163  0.2801  0.1041
 4522TIP3    H113530   2.007   3.205   1.976  0.6478 -1.5066  1.0548
 4522TIP3    H213531   2.069   3.235   2.111 -0.5771  2.1949  0.9043
 4523TIP3   OH213532   5.641   3.666   1.415 -0.1888 -0.1585 -0.2686
 4523TIP3    H113533   5.600   3.667   1.328  1.7037  0.8387 -1.2122
 4523TIP3    H213534   5.649   3.573   1.437 -3.5942 -0.4326  0.3753
 4524TIP3   OH213535   0.871   2.343   1.591  0.3804  0.0273 -0.7690
 4524TIP3    H113536   0.827   2.314   1.671  1.3820  0.4526 -0.0501
 4524TIP3    H213537   0.910   2.263   1.555  0.4903 -0.0583 -0.4635
 4525TIP3   OH213538   6.119   2.694  -0.020 -0.0244 -0.1729  0.1614
 4525TIP3    H113539   6.086   2.626   0.039  0.4171 -0.3897  0.1650
 4525TIP3    H213540   6.103   2.776   0.026 -1.7066 -0.1536 -0.3715
 4526TIP3   OH213541   2.018   4.910   1.779 -0.2739 -0.6532  0.3582
 4526TIP3    H113542   1.931   4.920   1.741  0.0478 -1.4470 -0.6119
 4526TIP3    H213543   2.049   4.999   1.793  0.0846 -0.2909 -2.3839
 4527TIP3   OH213544   3.695   4.412   0.187  0.4498 -0.3300 -0.2980
 4527TIP3    H113545   3.625   4.430   0.124  0.7469  2.3862  0.0025
 4527TIP3    H213546   3.737   4.333   0.154 -2.2956 -1.6855 -0.8521
 4528TIP3   OH213547   5.407   6.492   4.690 -0.1712 -0.6422 -0.1415
 4528TIP3    H113548   5.453   6.482   4.606  0.5413  2.7936 -0.3001
 4528TIP3    H213549   5.476   6.507   4.754 -0.8257  2.7383 -0.0633
 4529TIP3   OH213550   6.569   6.747   1.686 -0.4181  0.1073  0.9196
 4529TIP3    H113551   6.652   6.784   1.657  0.5467 -1.0272  2.0874
 4529TIP3    H213552   6.503   6.796   1.639  0.9401  0.4251 -0.7487
 4530TIP3   OH213553   1.722   6.718   3.394 -0.1541 -0.7543  0.1495
 4530TIP3    H113554   1.725   6.719   3.489  0.6807 -1.5848  0.1434
 4530TIP3    H213555   1.651   6.658   3.373 -1.5180  0.7523  0.2245
 4531TIP3   OH213556   1.044   4.016   1.910  0.3937 -0.1058 -0.9195
 4531TIP3    H113557   1.083   4.098   1.940 -1.2731  0.2167  0.5734
 4531TIP3    H213558   0.965   4.006   1.964  0.8772 -3.0365 -0.5761
 4532TIP3   OH213559   2.396   2.460   3.435  0.3168  0.5293  0.0659
 4532TIP3    H113560   2.488   2.487   3.433 -0.0421  1.8511  0.5403
 4532TIP3    H213561   2.358   2.496   3.356  0.1322  0.2122  0.0067
 4533TIP3   OH213562   2.302   1.302   4.605 -0.3314 -0.4482  0.2468
 4533TIP3    H113563   2.363   1.351   4.661 -1.5421  0.8245  0.5176
 4533TIP3    H213564   2.215   1.334   4.631 -1.0403 -1.2961 -0.9909
 4534TIP3   OH213565   4.546   1.244   3.057  0.0125 -0.0860  0.1269
 4534TIP3    H113566   4.606   1.314   3.030 -0.6813 -0.0370 -1.3648
 4534TIP3    H213567   4.505   1.215   2.976 -2.1894  0.0528  1.1295
 4535TIP3   OH213568   2.058   4.336   2.202  0.1194  0.0514 -0.2164
 4535TIP3    H113569   2.035   4.347   2.294  0.5948  0.4353 -0.1379
 4535TIP3    H213570   2.121   4.265   2.201  0.5636  0.4365 -0.1679
 4536TIP3   OH213571   1.344   3.849   0.016  0.1256  0.2272  0.0779
 4536TIP3    H113572   1.260   3.860   0.061  0.1453  0.0749  0.1488
 4536TIP3    H213573   1.390   3.932   0.031  0.0190  0.2821  0.1020
 4537TIP3   OH213574   0.305   3.814   4.973  0.3216 -0.5905  0.1455
 4537TIP3    H113575   0.356   3.833   5.052  1.8604 -0.8358 -0.7562
 4537TIP3    H213576   0.359   3.752   4.923 -0.9368 -0.9901 -0.7808
 4538TIP3   OH213577   3.290   4.934   2.976 -0.3400 -0.5746 -0.1834
 4538TIP3    H113578   3.331   4.882   3.045  1.2161  0.0485 -0.5861
 4538TIP3    H213579   3.271   5.019   3.017 -1.2346 -0.8442 -0.0106
 4539TIP3   OH213580   4.607   3.655   0.169 -0.2364  0.1538 -0.3521
 4539TIP3    H113581   4.691   3.626   0.204 -0.5456 -0.0330  0.2467
 4539TIP3    H213582   4.604   3.749   0.189 -0.7569 -0.0977  0.8777
 4540TIP3   OH213583   0.823   3.777   0.539  0.3946  0.1955  0.6513
 4540TIP3    H113584   0.870   3.734   0.467 -0.6316 -1.1552  0.7587
 4540TIP3    H213585   0.884   3.845   0.569  1.5651 -0.3630 -0.3333
 4541TIP3   OH213586   0.256   6.126   1.058  0.5200  0.3498  0.1261
 4541TIP3    H113587   0.285   6.209   1.097  0.0598  0.4682  0.2189
 4541TIP3    H213588   0.294   6.059   1.116  1.6646  0.4530 -0.4670
 4542TIP3   OH213589   2.709   3.930   3.180 -0.1638  0.3793 -0.2958
 4542TIP3    H113590   2.760   4.009   3.200  1.6434 -0.8030  0.0460
 4542TIP3    H213591   2.747   3.897   3.099  1.9440 -2.2616  1.5896
 4543TIP3   OH213592   1.478   5.573   1.452 -0.1700  0.0338 -0.3194
 4543TIP3    H113593   1.513   5.606   1.369  0.8454 -0.3079 -0.0496
 4543TIP3    H213594   1.437   5.489   1.430 -0.2426  0.1290 -0.5415
 4544TIP3   OH213595   2.247   0.307   0.132 -0.0006 -0.3313 -0.3981
 4544TIP3    H113596   2.267   0.287   0.223 -0.0171  1.4337  0.0312
 4544TIP3    H213597   2.168   0.256   0.112 -0.1231 -0.5582  0.6435
 4545TIP3   OH213598   3.847   1.385   3.646  0.3164 -0.4017  0.0747
 4545TIP3    H113599   3.881   1.330   3.716  0.3971  0.4202  0.6940
 4545TIP3    H213600   3.873   1.340   3.565  0.1308 -1.4084  0.5681
 4546TIP3   OH213601   7.170   0.439   1.093  0.0061 -0.3688  0.0964
 4546TIP3    H113602   7.091   0.490   1.076 -0.6341 -0.7071  1.8698
 4546TIP3    H213603   7.220   0.444   1.011 -1.2784  0.8497 -0.6512
 4547TIP3   OH213604   0.939   5.670   2.322  0.2037  0.1392  0.2142
 4547TIP3    H113605   0.877   5.733   2.284  0.5066  0.9465  1.0146
 4547TIP3    H213606   0.918   5.587   2.280 -2.1963  0.1273  1.2486
 4548TIP3   OH213607   0.131   6.098   1.997 -0.0251  0.5197  0.0932
 4548TIP3    H113608   0.162   6.175   1.951 -0.8585  0.0331 -1.3553
 4548TIP3    H213609   0.050   6.127   2.040 -0.8024  0.2820 -1.1494
 4549TIP3   OH213610   2.905   5.148   3.375 -0.2049 -0.2995  0.0784
 4549TIP3    H113611   2.991   5.112   3.353  0.4156  0.4411  1.2108
 4549TIP3    H213612   2.911   5.241   3.351 -0.1463  0.0997  1.5252
 4550TIP3   OH213613   4.643   6.251   2.266 -0.0554 -0.0761 -0.2241
 4550TIP3    H113614   4.605   6.200   2.338  1.8023 -0.5827  0.4625
 4550TIP3    H213615   4.660   6.337   2.304  1.8834 -0.6496  0.3252
 4551TIP3   OH213616   5.968   3.411   3.198 -0.1663 -0.2080 -0.1819
 4551TIP3    H113617   5.927   3.497   3.208  0.9245  0.3681 -0.5086
 4551TIP3    H213618   6.013   3.397   3.281 -0.3134 -0.4531 -0.1440
 4552TIP3   OH213619   4.538   4.815   0.263  0.0055 -0.3001  0.0328
 4552TIP3    H113620   4.456   4.812   0.214 -0.8365 -0.5444  1.3860
 4552TIP3    H213621   4.561   4.908   0.264 -1.4107  0.0861  1.3914
 4553TIP3   OH213622   0.861   6.444   5.775  0.0268 -0.0577 -0.6905
 4553TIP3    H113623   0.928   6.409   5.833  1.0285  1.5316 -0.8346
 4553TIP3    H213624   0.778   6.416   5.814  0.6875  0.4887  1.1810
 4554TIP3   OH213625   1.849   2.649   3.505  0.3472  0.4190  0.3345
 4554TIP3    H113626   1.868   2.648   3.599  0.8398 -2.5924  0.3172
 4554TIP3    H213627   1.772   2.705   3.497  0.3571  0.8431  2.5234
 4555TIP3   OH213628   1.507   5.324   5.312 -0.5974  0.3236 -0.6327
 4555TIP3    H113629   1.509   5.395   5.376 -1.3761 -0.3156  0.1150
 4555TIP3    H213630   1.468   5.363   5.234 -2.9639  0.2409  0.4214
 4556TIP3   OH213631   0.361   2.796   1.535 -0.1975  0.1248 -0.2492
 4556TIP3    H113632   0.389   2.813   1.625 -1.2294  0.6410 -0.0079
 4556TIP3    H213633   0.431   2.831   1.481  1.2796 -1.7635  0.3445
 4557TIP3   OH213634   5.601   4.670   3.178 -0.5446 -0.1910 -0.0307
 4557TIP3    H113635   5.581   4.597   3.119 -0.4146 -0.7059  0.5535
 4557TIP3    H213636   5.557   4.647   3.260  0.7437 -0.3524  0.6308
 4558TIP3   OH213637   0.207   2.929   2.538 -0.1227  0.2698 -0.4957
 4558TIP3    H113638   0.258   2.848   2.529  0.3721  0.1653  2.4152
 4558TIP3    H213639   0.272   2.999   2.535 -0.0397  0.2755  1.0199
 4559TIP3   OH213640   2.291   3.735   3.121 -0.8267  0.1969  0.0898
 4559TIP3    H113641   2.373   3.764   3.160 -1.3398  2.2794 -0.2778
 4559TIP3    H213642   2.242   3.697   3.193 -0.4361  1.0004  0.7905
 4560TIP3   OH213643   6.725   6.550   4.696  0.8605  0.3359  0.0316
 4560TIP3    H113644   6.736   6.469   4.646  0.7703  0.4971 -0.2496
 4560TIP3    H213645   6.770   6.617   4.645  0.1451  0.6442 -0.2097
 4561TIP3   OH213646   0.787   1.322   5.344  0.2211  0.2278 -0.2476
 4561TIP3    H113647   0.735   1.379   5.401  1.5044  1.0133  0.1895
 4561TIP3    H213648   0.875   1.322   5.384  0.8689 -0.0724 -1.6145
 4562TIP3   OH213649   4.654   4.088   5.483  0.0594 -0.4462 -0.1323
 4562TIP3    H113650   4.739   4.101   5.527 -0.1334 -2.1163  0.8123
 4562TIP3    H213651   4.636   4.172   5.441  1.2682  0.5719  1.2715
 4563TIP3   OH213652   5.896   2.106   5.695  0.4280 -0.4832  0.0465
 4563TIP3    H113653   5.865   2.123   5.606  1.3588  0.0980 -0.1807
 4563TIP3    H213654   5.991   2.110   5.688  0.4957  0.2356  1.2080
 4564TIP3   OH213655   5.642   4.662   2.029  0.5929  0.5200 -0.2495
 4564TIP3    H113656   5.577   4.705   2.085  1.1205  0.6036  0.3169
 4564TIP3    H213657   5.715   4.644   2.088  1.8879  2.1643 -1.2651
 4565TIP3   OH213658   5.545   2.799   2.689 -0.4127  0.0986 -0.1829
 4565TIP3    H113659   5.515   2.740   2.758  0.0164  0.6710  0.4935
 4565TIP3    H213660   5.576   2.740   2.620  2.6549 -0.5726  1.5828
 4566TIP3   OH213661   2.934   5.026   4.740 -0.3628  0.0475 -0.0833
 4566TIP3    H113662   2.881   5.044   4.662 -0.1993 -0.1453 -0.2390
 4566TIP3    H213663   2.999   4.962   4.711  0.5975  1.0255 -0.1546
 4567TIP3   OH213664   5.438   6.587   1.407 -0.1279 -0.8273  0.4561
 4567TIP3    H113665   5.384   6.637   1.345  1.0146  0.1812  0.2499
 4567TIP3    H213666   5.374   6.536   1.457 -1.5935  2.1328  1.8932
 4568TIP3   OH213667   4.748   3.932   0.555 -0.0530  0.0076 -0.2589
 4568TIP3    H113668   4.834   3.975   0.553  0.0162 -0.1575 -1.4266
 4568TIP3    H213669   4.747   3.884   0.638  1.2241 -0.4493 -0.4875
 4569TIP3   OH213670   4.465   2.438   3.543  0.2387  0.4850  0.1744
 4569TIP3    H113671   4.501   2.471   3.461 -2.1404  1.7835 -0.4475
 4569TIP3    H213672   4.423   2.355   3.520  0.2056  0.4794  0.2529
 4570TIP3   OH213673   4.225   1.024   4.995 -0.0109  0.3772 -0.1878
 4570TIP3    H113674   4.296   0.965   4.971 -0.3762  0.3948 -1.3757
 4570TIP3    H213675   4.161   1.015   4.925  0.0650  2.4310 -0.5777
 4571TIP3   OH213676   3.209   6.636   4.881 -0.1426 -0.4958  0.0083
 4571TIP3    H113677   3.144   6.567   4.882  0.4289 -1.0385  0.4409
 4571TIP3    H213678   3.292   6.592   4.898  0.3205  0.2046 -0.3582
 4572TIP3   OH213679   1.661   6.078   0.889 -0.0234  0.4448  0.3304
 4572TIP3    H113680   1.751   6.043   0.893  0.2149  1.1130  1.1819
 4572TIP3    H213681   1.644   6.092   0.796  0.2426 -0.9786  0.0429
 4573TIP3   OH213682   1.431   6.275   1.694  0.4994  0.3831  0.3162
 4573TIP3    H113683   1.497   6.300   1.759  2.5012 -1.0559 -1.0731
 4573TIP3    H213684   1.451   6.184   1.673 -0.6700  0.5216 -1.6398
 4574TIP3   OH213685   4.082   4.640   5.603  0.4547 -0.0675 -0.3285
 4574TIP3    H113686   4.015   4.686   5.653 -0.3705 -0.7479 -0.7791
 4574TIP3    H213687   4.088   4.688   5.521  3.4513  2.4701  1.1616
 4575TIP3   OH213688   0.794   0.836   2.773  0.0716  0.4016  0.6228
 4575TIP3    H113689   0.804   0.764   2.835  0.7574  0.4161  0.5306
 4575TIP3    H213690   0.750   0.798   2.698  2.1954 -0.4064 -0.2652
 4576TIP3   OH213691   6.205   5.510   4.585 -0.0543 -0.6007 -0.0528
 4576TIP3    H113692   6.170   5.424   4.559 -0.5778 -0.0190 -1.3704
 4576TIP3    H213693   6.127   5.563   4.602 -0.0092  0.8587 -3.4918
 4577TIP3   OH213694   1.738   5.506   2.415 -0.1391 -0.1264 -0.2287
 4577TIP3    H113695   1.800   5.544   2.352 -0.4639 -2.3796 -2.0361
 4577TIP3    H213696   1.652   5.538   2.387 -0.2760 -1.0695 -0.9224
 4578TIP3   OH213697   2.658   5.424   2.172  0.2729 -0.8741 -0.7981
 4578TIP3    H113698   2.744   5.414   2.212 -0.1447 -0.5097  0.2475
 4578TIP3    H213699   2.647   5.346   2.117  0.6366 -1.7333  0.2968
 4579TIP3   OH213700   3.193   4.363   2.541  0.2691 -0.1252 -0.0758
 4579TIP3    H113701   3.199   4.373   2.446  0.4419  1.0179  0.0312
 4579TIP3    H213702   3.284   4.368   2.571  0.2324 -0.6725  0.1376
 4580TIP3   OH213703   3.589   2.940   0.648 -0.3216  0.1326 -0.3202
 4580TIP3    H113704   3.679   2.954   0.676 -0.2139  1.2647 -1.1889
 4580TIP3    H213705   3.536   2.995   0.706 -0.1903  1.6518 -1.5967
 4581TIP3   OH213706   2.465   5.865   2.941 -0.2070 -0.3904  0.0977
 4581TIP3    H113707   2.407   5.894   3.013 -0.7241  0.9074 -0.7937
 4581TIP3    H213708   2.553   5.874   2.977 -0.4442  0.5157  0.5046
 4582TIP3   OH213709   1.989   5.227   3.702 -0.0855  0.1185 -0.1880
 4582TIP3    H113710   1.930   5.171   3.751  0.2765 -0.6443 -0.6045
 4582TIP3    H213711   1.936   5.304   3.679 -1.6053 -1.4631 -2.3918
 4583TIP3   OH213712   4.709   1.234   2.790 -0.8693  0.6394  0.1555
 4583TIP3    H113713   4.617   1.208   2.792 -0.6087 -0.2796  0.8764
 4583TIP3    H213714   4.707   1.326   2.763 -1.8962  0.2550 -1.1659
 4584TIP3   OH213715   5.809   5.969   0.217 -0.3385 -0.3834 -0.0287
 4584TIP3    H113716   5.725   5.934   0.247 -0.2123 -2.0531 -1.4576
 4584TIP3    H213717   5.853   5.894   0.177  1.9287  0.3984  0.8324
 4585TIP3   OH213718   6.013   1.696   4.341  0.1775 -0.0982  0.2011
 4585TIP3    H113719   5.928   1.655   4.356  0.3144 -0.9660 -1.1766
 4585TIP3    H213720   6.072   1.653   4.402  0.3662 -2.2361 -1.3797
 4586TIP3   OH213721   4.810   4.588   4.784  0.3004  0.4532 -0.1876
 4586TIP3    H113722   4.732   4.533   4.791 -0.0695  0.3577 -3.5991
 4586TIP3    H213723   4.880   4.537   4.825 -1.0904 -0.0011  1.8040
 4587TIP3   OH213724   0.546   4.328   0.279 -0.3260 -0.5295 -0.2461
 4587TIP3    H113725   0.596   4.337   0.198  1.7466 -0.1028  1.0042
 4587TIP3    H213726   0.552   4.235   0.301  1.1474 -0.2694  0.5887
 4588TIP3   OH213727   5.832   4.631   2.460  0.2516 -0.0878  0.3504
 4588TIP3    H113728   5.895   4.572   2.501 -1.5979 -1.4332  1.4372
 4588TIP3    H213729   5.799   4.583   2.384  0.9395  0.8676 -0.5925
 4589TIP3   OH213730   3.443   1.689   5.143  0.2571 -0.5551 -0.1504
 4589TIP3    H113731   3.538   1.677   5.149  0.0877 -1.3695  1.2792
 4589TIP3    H213732   3.433   1.765   5.086  1.7452 -0.7555 -0.7374
 4590TIP3   OH213733   3.032   4.183   1.960 -0.1247  0.1648 -0.4186
 4590TIP3    H113734   3.031   4.276   1.937  0.3275 -0.1477 -1.7963
 4590TIP3    H213735   2.950   4.169   2.008 -1.1932  0.8585 -1.9644
 4591TIP3   OH213736   3.975   3.388   2.894 -0.1938 -0.5824  0.3250
 4591TIP3    H113737   4.036   3.461   2.905  0.2163 -1.0016  0.8974
 4591TIP3    H213738   3.983   3.363   2.802 -1.5536  1.1465 -0.3410
 4592TIP3   OH213739   2.290   6.193   0.290 -0.8080  0.0505 -0.7303
 4592TIP3    H113740   2.318   6.104   0.267  0.2357 -0.1186  0.9688
 4592TIP3    H213741   2.332   6.249   0.225 -1.6388 -0.6952 -1.9416
 4593TIP3   OH213742   2.480   6.584   1.334 -0.6074  0.3263  0.6250
 4593TIP3    H113743   2.548   6.595   1.400 -0.1376 -0.0165  0.2052
 4593TIP3    H213744   2.451   6.674   1.315  1.7599  0.7917 -1.2718
 4594TIP3   OH213745   1.359   5.832   1.538  0.2286  0.4199 -0.6802
 4594TIP3    H113746   1.380   5.765   1.473  0.0302  0.8225 -1.1631
 4594TIP3    H213747   1.338   5.909   1.487 -0.7233  0.5157 -0.1580
 4595TIP3   OH213748   6.663   3.100   1.422  0.4708 -0.2729 -0.4173
 4595TIP3    H113749   6.736   3.110   1.360 -0.5478  1.3108 -1.4368
 4595TIP3    H213750   6.600   3.045   1.376 -0.2387  0.8097 -0.7752
 4596TIP3   OH213751   4.614   1.593   1.963 -0.8547  0.3517  0.5515
 4596TIP3    H113752   4.614   1.498   1.977 -0.9942  0.3243  0.3610
 4596TIP3    H213753   4.667   1.627   2.035  0.7477 -0.0269 -0.3858
 4597TIP3   OH213754   3.944   2.893   0.388 -0.2262 -0.5537 -0.3223
 4597TIP3    H113755   3.987   2.959   0.442 -0.4365  0.6669 -1.5972
 4597TIP3    H213756   4.015   2.837   0.357 -0.0313 -0.8704  0.6634
 4598TIP3   OH213757   3.145   5.238   2.984 -0.2156  0.3329 -0.3285
 4598TIP3    H113758   3.110   5.295   2.916 -1.4522 -2.2799 -2.0131
 4598TIP3    H213759   3.072   5.225   3.044  0.3217  1.1257  0.5320
 4599TIP3   OH213760   4.854   3.820   1.168 -0.3282  0.0742  0.0236
 4599TIP3    H113761   4.897   3.786   1.247  1.0406 -0.5454 -0.9528
 4599TIP3    H213762   4.783   3.758   1.151 -0.4824  0.0769  0.6299
 4600TIP3   OH213763   4.415   6.224   5.240  0.0246  0.1102 -0.2517
 4600TIP3    H113764   4.490   6.278   5.265  0.0363  0.2133 -0.5050
 4600TIP3    H213765   4.454   6.147   5.198  0.0484 -0.5691  0.9873
 4601TIP3   OH213766   3.061   3.007   4.049 -0.2238 -0.2239  0.3731
 4601TIP3    H113767   3.008   2.945   4.100 -0.5621 -0.3296 -0.0966
 4601TIP3    H213768   3.122   2.952   4.001 -1.8511 -0.4216 -1.6325
 4602TIP3   OH213769   2.002   5.318   2.952 -0.8645  0.1644  0.0281
 4602TIP3    H113770   2.045   5.356   2.876 -1.4722  0.3883 -0.2098
 4602TIP3    H213771   1.996   5.390   3.015  0.6395 -0.2932  0.7447
 4603TIP3   OH213772   0.904   0.486   1.015  0.1997  0.1017 -0.2519
 4603TIP3    H113773   0.863   0.411   0.972 -0.4525  0.1644  0.2308
 4603TIP3    H213774   0.834   0.552   1.020  0.9931  1.0635 -1.4142
 4604TIP3   OH213775   0.584   5.915   2.671 -0.0347 -0.0582  0.1540
 4604TIP3    H113776   0.570   6.000   2.712  0.2982  0.3291 -0.5130
 4604TIP3    H213777   0.496   5.879   2.661 -0.3465  0.9726 -1.1276
 4605TIP3   OH213778   4.981   5.624   2.504  0.5318 -0.1616  0.4811
 4605TIP3    H113779   4.987   5.565   2.428  1.4048 -1.2006  1.3266
 4605TIP3    H213780   5.071   5.655   2.517 -0.0079  1.9957 -0.3794
 4606TIP3   OH213781   4.949   1.775   1.689  0.1372 -0.0136  0.2745
 4606TIP3    H113782   5.001   1.707   1.647  0.1305  0.7233 -0.9813
 4606TIP3    H213783   4.858   1.747   1.677 -0.0587  1.5316 -2.8332
 4607TIP3   OH213784   3.696   6.089   5.483  0.4361 -0.1253  0.6086
 4607TIP3    H113785   3.785   6.070   5.511  0.9492  2.0418  0.5811
 4607TIP3    H213786   3.654   6.003   5.479  2.2129 -1.1011  1.5895
 4608TIP3   OH213787   5.329   6.114   3.643  0.5214 -0.4010  0.1003
 4608TIP3    H113788   5.384   6.073   3.711  0.3323  0.1917  0.6121
 4608TIP3    H213789   5.350   6.207   3.648 -1.1121 -0.0539  0.8388
 4609TIP3   OH213790   0.215   2.742   3.490  1.0022 -0.4495 -0.6102
 4609TIP3    H113791   0.171   2.661   3.514  1.3822 -0.4488  0.0918
 4609TIP3    H213792   0.144   2.807   3.489  0.5459 -0.9206 -1.9819
 4610TIP3   OH213793   0.201   0.893   4.767  0.1256 -0.6791  0.2477
 4610TIP3    H113794   0.245   0.838   4.832  0.6194  0.0462  0.5492
 4610TIP3    H213795   0.265   0.963   4.748 -0.1313 -0.7069 -0.7857
 4611TIP3   OH213796   6.178   1.523   2.974 -0.9844 -0.0736 -0.1198
 4611TIP3    H113797   6.121   1.446   2.969 -0.5382 -0.4426  0.4706
 4611TIP3    H213798   6.185   1.543   3.067 -0.8109  0.4739 -0.2441
 4612TIP3   OH213799   1.782   4.963   0.493  0.2225  0.1705  0.3734
 4612TIP3    H113800   1.847   5.023   0.456 -0.6787  0.1027 -1.4803
 4612TIP3    H213801   1.829   4.882   0.509  1.3919  1.2099  2.6251
 4613TIP3   OH213802   6.082   5.307   2.673 -0.2083 -0.4120  0.1257
 4613TIP3    H113803   6.061   5.390   2.631  0.6693 -0.3396 -0.1784
 4613TIP3    H213804   6.002   5.255   2.664 -0.9295  0.5458  0.7209
 4614TIP3   OH213805   4.703   2.139   3.369 -0.0226  0.3707  0.1135
 4614TIP3    H113806   4.746   2.081   3.431  1.4897  0.0398 -1.1773
 4614TIP3    H213807   4.753   2.221   3.373 -0.4803  0.6612 -0.0033
 4615TIP3   OH213808   3.735   0.182   5.795  0.4578 -0.6228  0.5847
 4615TIP3    H113809   3.801   0.249   5.811  0.3974 -0.5464  0.5133
 4615TIP3    H213810   3.687   0.213   5.718  1.2667 -1.3695 -0.2562
 4616TIP3   OH213811   0.616   6.481   0.927  0.9391  0.2897 -0.4141
 4616TIP3    H113812   0.627   6.554   0.866  1.5783  0.1493 -0.4704
 4616TIP3    H213813   0.666   6.506   1.004 -0.7076  0.9383  0.4994
 4617TIP3   OH213814   1.800   1.936   3.429 -0.1558 -0.2400 -0.0383
 4617TIP3    H113815   1.727   1.964   3.484 -0.7746  0.7349 -1.3117
 4617TIP3    H213816   1.838   1.862   3.476 -0.8296  0.3701  1.5483
 4618TIP3   OH213817   5.163   1.713   5.128 -0.5419 -0.2384  0.1634
 4618TIP3    H113818   5.237   1.773   5.120  1.1732 -2.3932 -2.1040
 4618TIP3    H213819   5.089   1.760   5.089  0.4535  0.8553 -0.4634
 4619TIP3   OH213820   0.270   2.930   2.821 -0.3570  0.1268  0.6095
 4619TIP3    H113821   0.358   2.967   2.823  0.0062 -0.7254  2.1209
 4619TIP3    H213822   0.277   2.848   2.870 -1.3090 -1.5864 -1.9400
 4620TIP3   OH213823   3.365   1.885   4.892  0.2312 -0.5906 -0.5193
 4620TIP3    H113824   3.372   1.803   4.843 -1.4299 -0.3350 -1.2749
 4620TIP3    H213825   3.425   1.945   4.848  0.4542 -1.0243 -0.8053
 4621TIP3   OH213826   7.230   2.125   3.622 -0.0798 -0.6805  0.3318
 4621TIP3    H113827   7.194   2.149   3.537 -0.7728 -2.8244 -0.0385
 4621TIP3    H213828   7.162   2.071   3.663 -0.0032  0.7779  2.5285
 4622TIP3   OH213829   1.315   5.603   2.770  0.1293 -0.5820 -0.2897
 4622TIP3    H113830   1.331   5.509   2.773 -0.4727 -0.7133 -1.0081
 4622TIP3    H213831   1.402   5.643   2.776  0.3229 -1.1446  1.0009
 4623TIP3   OH213832   5.956   2.110   4.763 -1.0307 -0.1020 -0.1980
 4623TIP3    H113833   5.994   2.037   4.713 -1.2148 -0.2931 -0.0640
 4623TIP3    H213834   5.921   2.169   4.696 -0.5441  0.0509 -0.3197
 4624TIP3   OH213835   5.220   4.032   0.950  0.6913 -0.2748 -0.1274
 4624TIP3    H113836   5.160   4.106   0.941  0.7970  0.3929  3.4186
 4624TIP3    H213837   5.307   4.070   0.948  0.9106 -0.7824 -1.5461
 4625TIP3   OH213838   2.161   6.091   3.255  0.6336 -0.2551 -0.2840
 4625TIP3    H113839   2.113   6.166   3.218  1.8426 -0.5265 -2.5637
 4625TIP3    H213840   2.099   6.052   3.317 -0.6927  1.5460 -0.3773
 4626TIP3   OH213841   5.653   3.624   5.201  0.1505  0.0400  0.7069
 4626TIP3    H113842   5.730   3.667   5.165  0.0159  0.5984  1.0722
 4626TIP3    H213843   5.689   3.562   5.265  0.4586 -1.7326 -1.0970
 4627TIP3   OH213844   3.502   2.711   5.292  0.2771 -0.1883 -0.8098
 4627TIP3    H113845   3.485   2.787   5.348  0.1991 -0.3366 -0.6329
 4627TIP3    H213846   3.578   2.737   5.239  0.6474 -0.2268 -0.3017
 4628TIP3   OH213847   1.729   6.366   0.532  0.4032  0.4052 -0.2055
 4628TIP3    H113848   1.818   6.401   0.525  0.0980  1.1507 -0.5267
 4628TIP3    H213849   1.709   6.370   0.625 -0.0075  2.1328 -0.3285
 4629TIP3   OH213850   0.847   3.983   4.442 -0.7311  0.0158 -0.7758
 4629TIP3    H113851   0.855   4.077   4.455 -1.3203 -0.0368  0.0591
 4629TIP3    H213852   0.873   3.969   4.351  2.5341  0.5741 -0.0590
 4630TIP3   OH213853   5.504   0.131   3.736  0.2162 -0.2812  0.1772
 4630TIP3    H113854   5.591   0.151   3.771  0.6066 -1.1786 -0.2403
 4630TIP3    H213855   5.451   0.208   3.757  1.2196  0.4590  0.0650
 4631TIP3   OH213856   6.556   0.202   4.902 -0.0529  0.0358 -0.1944
 4631TIP3    H113857   6.476   0.150   4.898 -0.1981  0.3300 -1.6188
 4631TIP3    H213858   6.564   0.227   4.994 -0.9845 -0.9350  0.1718
 4632TIP3   OH213859   2.051   1.989   0.598 -0.2717 -0.0073  0.3538
 4632TIP3    H113860   2.034   1.902   0.561 -2.4626  0.4249  0.2617
 4632TIP3    H213861   2.112   1.972   0.670 -1.7018 -1.8432  1.2283
 4633TIP3   OH213862   0.538   5.310   1.376 -0.1562  0.2487 -0.0659
 4633TIP3    H113863   0.516   5.382   1.317  1.0973  1.0927  0.4542
 4633TIP3    H213864   0.459   5.297   1.428 -1.1820 -0.3247 -1.7069
 4634TIP3   OH213865   6.645   3.098   5.413  0.0489  0.0478 -0.0673
 4634TIP3    H113866   6.633   3.075   5.505 -0.7579 -0.2493 -0.2340
 4634TIP3    H213867   6.631   3.192   5.409 -1.0393 -0.1020 -0.0487
 4635TIP3   OH213868   1.392   5.540   4.068 -0.1657 -0.1846 -0.0076
 4635TIP3    H113869   1.478   5.548   4.027 -0.2519  0.1519 -0.1274
 4635TIP3    H213870   1.345   5.477   4.013 -0.5764  0.8973 -0.9415
 4636TIP3   OH213871   3.390   4.484   3.224  0.1517 -0.3121  0.8150
 4636TIP3    H113872   3.404   4.535   3.144  0.0611 -0.7863  0.4912
 4636TIP3    H213873   3.464   4.507   3.280  0.7325 -0.6734  0.2224
 4637TIP3   OH213874   6.109   3.003   0.426 -0.0110  0.2502 -0.2322
 4637TIP3    H113875   6.153   3.071   0.477  0.1650 -0.5568  0.7352
 4637TIP3    H213876   6.016   3.012   0.451  0.1880 -0.6969  0.9344
 4638TIP3   OH213877   0.702   1.680   0.035  0.2332 -0.0869 -0.5558
 4638TIP3    H113878   0.784   1.692   0.083  0.9011 -0.5201 -1.5538
 4638TIP3    H213879   0.633   1.705   0.097  0.9396 -2.4655  1.3386
 4639TIP3   OH213880   2.691   2.737   4.678 -0.0632 -0.3036  0.3885
 4639TIP3    H113881   2.745   2.700   4.608  0.0251  1.0669 -0.3052
 4639TIP3    H213882   2.734   2.709   4.759  0.6258 -0.7715 -0.1280
 4640TIP3   OH213883   3.181   1.979   0.236 -0.1497 -0.6446 -0.4865
 4640TIP3    H113884   3.255   1.987   0.175  2.4697 -0.6264  2.4357
 4640TIP3    H213885   3.181   2.062   0.283 -3.9903  0.5472 -2.2241
 4641TIP3   OH213886   6.464   5.138   0.025 -0.4740 -0.2998 -0.5410
 4641TIP3    H113887   6.545   5.087   0.037 -0.0729  0.2305 -0.9717
 4641TIP3    H213888   6.488   5.209  -0.034 -1.0362  0.3749  0.0122
 4642TIP3   OH213889   4.883   2.569   1.175  0.3310 -0.5458  0.7937
 4642TIP3    H113890   4.853   2.543   1.262  0.3990  1.0291  1.3079
 4642TIP3    H213891   4.807   2.613   1.135  1.0219  0.8936  1.0065
 4643TIP3   OH213892   1.643   0.149   4.148 -0.2780 -0.2528 -0.4462
 4643TIP3    H113893   1.614   0.238   4.168 -0.5395 -0.4913  0.2774
 4643TIP3    H213894   1.723   0.138   4.200 -0.8963 -0.8396  0.4197
 4644TIP3   OH213895   0.754   4.387   2.933  0.2648  0.4930  0.2944
 4644TIP3    H113896   0.695   4.385   2.857 -1.8061  0.6496  1.8099
 4644TIP3    H213897   0.822   4.449   2.909 -0.5354  0.8096 -1.3100
 4645TIP3   OH213898   2.636   4.336   5.367 -0.1616 -0.2302 -0.0865
 4645TIP3    H113899   2.670   4.396   5.433 -1.9623  0.4808  0.2537
 4645TIP3    H213900   2.566   4.385   5.324  0.7631 -0.7835 -2.3507
 4646TIP3   OH213901   3.925   5.524   1.174 -0.7910 -0.2317 -0.5106
 4646TIP3    H113902   3.943   5.464   1.247 -0.2572  0.7441  0.1798
 4646TIP3    H213903   3.837   5.558   1.191  0.5156  2.5153  1.5747
 4647TIP3   OH213904   4.606   0.300   1.199  0.1178  0.4865 -0.3608
 4647TIP3    H113905   4.617   0.281   1.105 -2.4447  1.8564 -1.0141
 4647TIP3    H213906   4.605   0.396   1.204 -0.8652  0.4262  0.9158
 4648TIP3   OH213907   1.575   3.097   1.964  0.4396 -0.2565 -0.6028
 4648TIP3    H113908   1.668   3.082   1.951  0.3560 -0.3848 -1.0626
 4648TIP3    H213909   1.565   3.106   2.059  1.1729  1.4908 -0.6595
 4649TIP3   OH213910   6.082   6.318   3.774  0.0103  0.2975  0.9763
 4649TIP3    H113911   6.141   6.367   3.831  0.2627  2.3776 -0.9149
 4649TIP3    H213912   6.120   6.230   3.769  0.4230  0.2987  3.2841
 4650TIP3   OH213913   6.831   4.562   0.726 -0.3536 -0.6859 -0.0886
 4650TIP3    H113914   6.861   4.476   0.697  0.5708 -0.2473 -0.4527
 4650TIP3    H213915   6.832   4.557   0.821 -0.0102 -0.9810 -0.1072
 4651TIP3   OH213916   4.299   1.651   4.086 -0.3374  0.7559  0.2845
 4651TIP3    H113917   4.241   1.715   4.046 -2.6832 -1.3467  0.0450
 4651TIP3    H213918   4.340   1.606   4.012 -3.2479 -1.8657  0.0541
 4652TIP3   OH213919   1.669   4.835   0.121  0.2575 -0.1591  0.3773
 4652TIP3    H113920   1.575   4.820   0.132  0.1522 -1.7828 -1.9193
 4652TIP3    H213921   1.675   4.894   0.046  1.0508 -0.4572  0.1941
 4653TIP3   OH213922   1.947   3.671   3.428  0.2938 -0.3375  0.1806
 4653TIP3    H113923   1.866   3.710   3.460  0.5415  0.1578  0.2121
 4653TIP3    H213924   2.010   3.743   3.428  1.1788 -1.0523  1.7175
 4654TIP3   OH213925   4.035   0.497   0.269 -0.2403 -0.5624  0.8576
 4654TIP3    H113926   4.120   0.527   0.301 -0.9274  1.1871  1.1897
 4654TIP3    H213927   4.009   0.565   0.206 -0.0144 -2.6592 -1.6624
 4655TIP3   OH213928   5.256   2.078   1.823 -0.1512  0.3245  0.1332
 4655TIP3    H113929   5.312   2.154   1.838 -0.2487  0.2087  1.1693
 4655TIP3    H213930   5.168   2.108   1.843 -0.0235 -0.4299  2.1168
 4656TIP3   OH213931   2.682   1.403   2.107  0.2210 -0.0657 -0.2886
 4656TIP3    H113932   2.664   1.344   2.180  1.1560 -0.6364 -0.4897
 4656TIP3    H213933   2.760   1.365   2.066 -0.3376  0.1925 -1.6276
 4657TIP3   OH213934   5.644   6.582   1.154  0.2401  0.0553  0.1454
 4657TIP3    H113935   5.578   6.533   1.202 -0.5083 -0.2536 -1.1536
 4657TIP3    H213936   5.705   6.612   1.221 -1.5513  0.9214  1.4626
 4658TIP3   OH213937   2.689   2.193   1.985  0.3288 -0.2006 -0.0476
 4658TIP3    H113938   2.692   2.098   1.997  2.0724 -0.3138 -1.0593
 4658TIP3    H213939   2.599   2.212   1.960  0.2022 -1.7205 -0.8208
 4659TIP3   OH213940   0.381   3.339   1.175 -0.2161  0.0127  0.5669
 4659TIP3    H113941   0.426   3.410   1.221 -0.3685  0.0763  0.6189
 4659TIP3    H213942   0.397   3.357   1.082  0.4760 -0.3713  0.6068
 4660TIP3   OH213943   3.774   2.550   5.774 -0.0610  0.0519 -0.3455
 4660TIP3    H113944   3.810   2.496   5.704 -0.1208  1.1288 -1.2334
 4660TIP3    H213945   3.783   2.640   5.742  1.4961  0.7295  1.7343
 4661TIP3   OH213946   4.509   2.657   3.928 -0.4927  0.3190  0.3341
 4661TIP3    H113947   4.555   2.587   3.883 -1.7871 -1.0659  1.0720
 4661TIP3    H213948   4.479   2.715   3.858  1.8868  1.0060 -0.1792
 4662TIP3   OH213949   1.135   5.707   0.013  0.2022 -0.0940  0.2433
 4662TIP3    H113950   1.126   5.622  -0.030  0.2371 -0.5674  1.1338
 4662TIP3    H213951   1.102   5.692   0.102  0.1483  0.8419  0.3873
 4663TIP3   OH213952   1.331   1.323   5.765 -0.4608 -0.0571  0.7547
 4663TIP3    H113953   1.248   1.288   5.733 -0.7260  1.0549  0.1966
 4663TIP3    H213954   1.329   1.416   5.742  0.7102  0.0978  1.2055
 4664TIP3   OH213955   4.431   4.574   1.350 -0.3572 -0.0143 -0.4834
 4664TIP3    H113956   4.363   4.639   1.334  0.2336  0.5490 -0.7490
 4664TIP3    H213957   4.502   4.624   1.391 -0.6709 -0.8582  1.1808
 4665TIP3   OH213958   0.144   5.436   5.356  0.2413 -0.3312  0.2563
 4665TIP3    H113959   0.076   5.397   5.411  0.3728 -0.7357  0.1365
 4665TIP3    H213960   0.226   5.415   5.401  0.6116 -3.1481 -1.4773
 4666TIP3   OH213961   1.198   6.337   0.997  0.1438 -0.1047  0.1704
 4666TIP3    H113962   1.220   6.276   0.926  0.3236 -1.5225  1.3829
 4666TIP3    H213963   1.256   6.311   1.069  0.0099  1.3376  0.8240
 4667TIP3   OH213964   4.316   1.343   3.285 -0.1054 -0.0681 -0.1280
 4667TIP3    H113965   4.249   1.291   3.242 -1.7611  0.0403  2.1691
 4667TIP3    H213966   4.315   1.427   3.239 -0.1476 -0.7129 -1.3406
 4668TIP3   OH213967   5.089   3.752   3.872  0.3548 -0.2537 -0.5247
 4668TIP3    H113968   5.125   3.824   3.822  2.2113 -1.3755 -0.8890
 4668TIP3    H213969   5.107   3.674   3.819 -0.9465 -1.0835  0.1869
 4669TIP3   OH213970   0.479   6.136   2.827  0.1107  0.2956  0.2925
 4669TIP3    H113971   0.389   6.165   2.811  0.2503 -0.3612 -1.9956
 4669TIP3    H213972   0.528   6.218   2.842 -0.4577  0.8836 -0.8868
 4670TIP3   OH213973   3.686   6.347   1.954 -0.5461  0.1333  0.0832
 4670TIP3    H113974   3.675   6.286   2.027 -0.2875 -0.4942 -0.3932
 4670TIP3    H213975   3.757   6.309   1.901  0.9575  1.8413  0.7935
 4671TIP3   OH213976   6.747   6.277   0.077 -0.6194  0.5355 -0.0349
 4671TIP3    H113977   6.679   6.210   0.075 -1.9961  1.8741 -1.7681
 4671TIP3    H213978   6.828   6.230   0.058 -1.3546 -0.8260  0.1067
 4672TIP3   OH213979   3.690   6.230   3.695 -1.1527 -0.4048 -0.7036
 4672TIP3    H113980   3.714   6.233   3.602 -0.8766 -1.6257 -0.6840
 4672TIP3    H213981   3.715   6.143   3.724 -1.1299  0.0026  0.5616
 4673TIP3   OH213982   0.556   1.386   2.437 -0.5260  0.4070 -0.0590
 4673TIP3    H113983   0.530   1.335   2.514 -1.3159 -0.2197 -0.7265
 4673TIP3    H213984   0.598   1.464   2.473 -0.5334 -0.0647  1.0003
 4674TIP3   OH213985   0.558   2.377   4.200 -0.0092 -0.0692 -0.6076
 4674TIP3    H113986   0.582   2.469   4.213 -0.6472  0.1857 -1.1633
 4674TIP3    H213987   0.524   2.374   4.111  0.1081 -0.8736 -0.6297
 4675TIP3   OH213988   2.945   5.457   1.946 -0.2522 -0.3900  0.7891
 4675TIP3    H113989   2.852   5.455   1.968 -1.1103  1.1614 -2.2253
 4675TIP3    H213990   2.955   5.392   1.877  0.7696 -0.0235  0.5731
 4676TIP3   OH213991   5.210   0.886   4.789  0.1582  0.1517 -0.0387
 4676TIP3    H113992   5.175   0.886   4.878 -0.5458  1.6836 -0.2709
 4676TIP3    H213993   5.200   0.796   4.759 -1.6046  0.0547  0.6938
 4677TIP3   OH213994   5.471   6.070   1.637 -0.1896 -0.1807  0.0853
 4677TIP3    H113995   5.512   6.110   1.560  0.3418 -0.5680  0.1639
 4677TIP3    H213996   5.544   6.043   1.692 -0.5333  1.8678  1.6833
 4678TIP3   OH213997   1.002   6.704   3.723  0.4268 -0.3227  0.0544
 4678TIP3    H113998   1.026   6.775   3.782  0.4066 -1.8009  1.9693
 4678TIP3    H213999   0.913   6.680   3.749  0.3811 -0.9447 -0.6455
 4679TIP3   OH214000   5.642   6.177   2.666 -0.0004 -0.3721 -0.3130
 4679TIP3    H114001   5.683   6.091   2.652  1.5465  0.0519  1.2391
 4679TIP3    H214002   5.548   6.160   2.659  0.1348 -2.6565  2.0287
 4680TIP3   OH214003   3.881   0.571   3.650  0.4688 -0.6285  0.1856
 4680TIP3    H114004   3.915   0.535   3.568  0.5685  0.3371 -0.2113
 4680TIP3    H214005   3.958   0.609   3.693  0.4056 -1.0731  0.7013
 4681TIP3   OH214006   1.449   5.014   4.088  0.5210 -0.0366 -0.2246
 4681TIP3    H114007   1.402   4.981   4.011  0.5282 -0.6516  0.0291
 4681TIP3    H214008   1.521   5.065   4.052 -0.0854  0.5726 -0.6228
 4682TIP3   OH214009   2.420   5.559   0.937  0.1021  0.1165  0.1300
 4682TIP3    H114010   2.350   5.525   0.881  0.0383 -0.2015  0.4030
 4682TIP3    H214011   2.427   5.496   1.008  0.6421  0.1602  0.1230
 4683TIP3   OH214012   5.653   1.142   3.409 -0.3303 -0.2246  0.6960
 4683TIP3    H114013   5.597   1.100   3.474 -0.3984 -0.5853  0.4044
 4683TIP3    H214014   5.690   1.217   3.455 -0.2340 -0.5798  1.2077
 4684TIP3   OH214015   5.319   0.376   3.385 -0.6850 -0.3151  0.3080
 4684TIP3    H114016   5.225   0.377   3.403 -0.5167 -0.1988  1.2436
 4684TIP3    H214017   5.329   0.426   3.304 -1.3972 -0.0465  0.3824
 4685TIP3   OH214018   3.133   1.740   0.074  0.0539  0.1602  0.6310
 4685TIP3    H114019   3.095   1.813   0.123  0.3297  0.7311  0.0147
 4685TIP3    H214020   3.219   1.773   0.046 -0.0670 -0.1716 -0.1630
 4686TIP3   OH214021   6.122   3.259   4.025  0.3289  0.2425  0.3487
 4686TIP3    H114022   6.121   3.288   4.116  1.8099 -0.6897  0.7156
 4686TIP3    H214023   6.139   3.338   3.974 -1.7142  0.9818  0.7322
 4687TIP3   OH214024   3.765   3.151   1.802 -0.4383  0.0404 -0.4731
 4687TIP3    H114025   3.785   3.106   1.885 -1.3501 -1.1720 -0.8867
 4687TIP3    H214026   3.673   3.174   1.809 -0.0020  1.8637 -0.2971
 4688TIP3   OH214027   0.660   5.111   2.802 -0.2086  0.1666  0.1042
 4688TIP3    H114028   0.603   5.059   2.859  0.0636 -0.0983  0.1329
 4688TIP3    H214029   0.645   5.076   2.715  2.2349 -2.0659  0.4688
 4689TIP3   OH214030   7.104   4.508   3.394  0.1878  0.0871 -0.1703
 4689TIP3    H114031   7.014   4.476   3.386  0.8162 -1.7160 -0.6071
 4689TIP3    H214032   7.150   4.437   3.439  1.7379  0.2269 -1.4341
 4690TIP3   OH214033   5.984   5.477   3.995 -0.2600 -0.1028 -0.3698
 4690TIP3    H114034   5.897   5.436   3.997  0.0912 -0.9581 -1.4855
 4690TIP3    H214035   5.980   5.545   4.063 -2.3581  1.0091 -1.4751
 4691TIP3   OH214036   2.738   4.502   3.716  0.0975  0.5374 -0.0921
 4691TIP3    H114037   2.733   4.485   3.811 -1.2864  2.6799  0.2818
 4691TIP3    H214038   2.653   4.474   3.683  1.5991 -3.1634 -1.3780
 4692TIP3   OH214039   6.551   1.652   4.767 -0.7406  0.0394 -1.0720
 4692TIP3    H114040   6.567   1.695   4.852 -0.4908 -0.7442 -0.7178
 4692TIP3    H214041   6.533   1.725   4.707 -1.3635  0.5764 -0.2560
 4693TIP3   OH214042   5.506   4.935   0.513 -0.1458 -0.5717  0.1584
 4693TIP3    H114043   5.523   5.017   0.559  0.6166 -0.2881 -0.5980
 4693TIP3    H214044   5.419   4.946   0.476  0.7369  0.8012 -1.7108
 4694TIP3   OH214045   2.577   4.005   4.391  0.2624 -0.0677  0.3209
 4694TIP3    H114046   2.631   3.950   4.448  0.5597 -0.4033 -0.2705
 4694TIP3    H214047   2.639   4.063   4.347  0.0339  0.2045  0.3529
 4695TIP3   OH214048   3.455   0.309   4.935  0.1716  0.3593  0.2695
 4695TIP3    H114049   3.489   0.360   5.009  0.3143 -1.3419  1.4314
 4695TIP3    H214050   3.370   0.348   4.916 -0.0127  0.6382  1.5533
 4696TIP3   OH214051   3.221   0.419   4.784  0.4820  0.0801 -0.1770
 4696TIP3    H114052   3.132   0.416   4.818 -0.3969  2.6673 -2.0237
 4696TIP3    H214053   3.226   0.346   4.722  0.2031 -1.0112  1.0393
 4697TIP3   OH214054   6.865   2.698   5.396 -0.6728  0.8932 -0.0978
 4697TIP3    H114055   6.835   2.712   5.486 -0.4361 -0.1441  0.1513
 4697TIP3    H214056   6.844   2.780   5.351 -1.8900  0.9924  0.6077
 4698TIP3   OH214057   4.945   3.035   0.677  0.5607  0.0453  0.0878
 4698TIP3    H114058   4.902   2.949   0.684 -1.7923  1.2005  0.8915
 4698TIP3    H214059   4.999   3.028   0.598 -0.2106 -1.8939 -0.3444
 4699TIP3   OH214060   7.122   1.394   0.831 -0.3966  0.2499 -0.1151
 4699TIP3    H114061   7.079   1.476   0.808  0.0450  0.2155 -1.1152
 4699TIP3    H214062   7.150   1.407   0.922  0.2675  1.4789 -0.4646
 4700TIP3   OH214063   5.371   1.199   2.605  0.5207 -0.0817 -0.2213
 4700TIP3    H114064   5.379   1.125   2.545 -0.9379 -0.0003 -0.5460
 4700TIP3    H214065   5.388   1.161   2.692 -0.6952 -0.9282 -0.3259
 4701TIP3   OH214066   6.297   5.172   2.774  0.0314 -0.4475 -0.1755
 4701TIP3    H114067   6.219   5.224   2.758 -0.0126 -0.2445  0.6536
 4701TIP3    H214068   6.272   5.113   2.846  1.0300  0.5446  1.0369
 4702TIP3   OH214069   6.581   3.988   3.221 -0.0412 -0.4996  0.2025
 4702TIP3    H114070   6.675   4.009   3.225  0.3743 -2.2368  0.0528
 4702TIP3    H214071   6.543   4.039   3.293  0.8713  0.8099 -0.1917
 4703TIP3   OH214072   5.982   1.720   3.583 -0.4389 -0.0398  0.1813
 4703TIP3    H114073   5.991   1.628   3.556  0.8710  0.1395 -0.0696
 4703TIP3    H214074   5.957   1.766   3.503 -1.1409 -0.1748  0.3168
 4704TIP3   OH214075   4.721   5.456   4.008 -0.1466  0.3214  0.1320
 4704TIP3    H114076   4.728   5.511   3.930 -1.6106 -0.3337 -0.4876
 4704TIP3    H214077   4.799   5.400   4.005  0.2707  0.9117 -0.3612
 4705TIP3   OH214078   7.140   3.111   2.570  0.0544  0.7242  0.4056
 4705TIP3    H114079   7.103   3.056   2.502  1.7988  0.2608 -0.2272
 4705TIP3    H214080   7.132   3.201   2.537 -0.3241  0.6131  0.1990
 4706TIP3   OH214081   0.913   6.020   5.497 -0.2021  0.8576  0.2875
 4706TIP3    H114082   0.819   6.033   5.513 -0.0218  1.2237  1.0840
 4706TIP3    H214083   0.951   6.009   5.584  0.3214 -0.5721 -0.0998
 4707TIP3   OH214084   2.856   5.657   3.873  0.5678 -0.4138 -0.0820
 4707TIP3    H114085   2.824   5.651   3.963 -0.2221  2.7172 -0.0496
 4707TIP3    H214086   2.808   5.730   3.834  1.0461 -1.5011 -3.0213
 4708TIP3   OH214087   0.138   4.266   4.949 -0.1822  0.4554 -0.1542
 4708TIP3    H114088   0.060   4.212   4.960  0.2302 -0.0401  0.4253
 4708TIP3    H214089   0.195   4.214   4.892 -0.1322  0.6556 -0.2858
 4709TIP3   OH214090   6.628   3.994   3.696 -0.4831 -0.3646 -0.0453
 4709TIP3    H114091   6.565   4.031   3.633  0.5311  3.0672  0.7368
 4709TIP3    H214092   6.701   3.965   3.641 -1.1389 -0.8251 -0.6955
 4710TIP3   OH214093   4.375   1.941   0.840 -0.0691 -0.5776 -0.5241
 4710TIP3    H114094   4.396   1.948   0.747  0.2587  1.7944 -0.3372
 4710TIP3    H214095   4.284   1.970   0.847  0.2300  0.2778 -0.0115
 4711TIP3   OH214096   0.680   6.495   0.496  0.1000  0.2725 -0.4491
 4711TIP3    H114097   0.748   6.563   0.503  1.5561 -0.9868 -1.6226
 4711TIP3    H214098   0.678   6.454   0.582  0.9306  0.2541 -0.4296
 4712TIP3   OH214099   3.165   5.044   4.298 -0.2673  0.1469 -0.2809
 4712TIP3    H114100   3.186   5.035   4.205  2.3656 -2.6088  0.3967
 4712TIP3    H214101   3.124   4.960   4.320  0.5886  0.1200  1.3094
 4713TIP3   OH214102   5.652   6.184   0.061  0.0283 -0.1307  0.3564
 4713TIP3    H114103   5.613   6.139  -0.013 -0.1111 -0.7784  0.8126
 4713TIP3    H214104   5.740   6.148   0.068  0.2131  0.2914  0.1997
 4714TIP3   OH214105   0.101   2.976   4.764 -0.3639  0.2072 -0.4560
 4714TIP3    H114106   0.113   3.067   4.737  0.8270  0.8809  2.0407
 4714TIP3    H214107   0.143   2.925   4.696 -0.1588  1.5805 -1.4083
 4715TIP3   OH214108   5.697   5.797   4.874  0.3436 -0.1327 -0.4229
 4715TIP3    H114109   5.657   5.710   4.866  1.9892 -0.8516 -1.4118
 4715TIP3    H214110   5.650   5.851   4.811  0.0546 -0.5957 -0.6083
 4716TIP3   OH214111   0.488   3.491   4.327  0.2348 -0.3419 -0.3587
 4716TIP3    H114112   0.460   3.482   4.235 -1.2196 -0.0941  0.0236
 4716TIP3    H214113   0.417   3.450   4.376 -0.5152  2.1995  0.8144
 4717TIP3   OH214114   6.898   4.049   0.757  0.2473  0.2061  0.8996
 4717TIP3    H114115   6.901   3.990   0.832 -0.7588 -0.6275  0.3151
 4717TIP3    H214116   6.875   3.992   0.683  1.4360  0.9709 -0.0887
 4718TIP3   OH214117   1.414   2.658   5.416  0.5844  0.2140 -0.3443
 4718TIP3    H114118   1.495   2.707   5.405  0.2406  1.0264  0.5977
 4718TIP3    H214119   1.437   2.586   5.474  0.2416  1.5910  1.6165
 4719TIP3   OH214120   3.196   6.509   4.014 -0.1689  0.3892  0.0163
 4719TIP3    H114121   3.107   6.482   4.036 -0.3915  1.9379  1.2176
 4719TIP3    H214122   3.218   6.575   4.080  1.1519  1.4396 -1.4068
 4720TIP3   OH214123   3.730   1.844   2.464 -0.1241 -0.2710 -0.6872
 4720TIP3    H114124   3.658   1.824   2.524  0.0565  0.4746 -0.2103
 4720TIP3    H214125   3.804   1.864   2.521 -0.3762  2.0606 -1.0980
 4721TIP3   OH214126   0.472   1.150   0.406  0.0250  0.1124 -0.1216
 4721TIP3    H114127   0.542   1.136   0.469 -1.8029 -1.2096  1.7477
 4721TIP3    H214128   0.494   1.093   0.332  0.0894 -1.6290  1.1900
 4722TIP3   OH214129   0.177   3.327   3.264 -0.2783  0.0147  0.3255
 4722TIP3    H114130   0.115   3.277   3.211  0.6412  0.6059 -1.3669
 4722TIP3    H214131   0.159   3.418   3.243 -0.5831  0.3455  1.8664
 4723TIP3   OH214132   2.499   2.685   0.972  0.1334  0.6993 -0.1364
 4723TIP3    H114133   2.492   2.690   1.068  0.9700  0.8678 -0.0798
 4723TIP3    H214134   2.451   2.606   0.949  0.9888 -0.0485  0.5543
 4724TIP3   OH214135   1.437   5.829   3.153 -0.3184  0.1807  0.0871
 4724TIP3    H114136   1.436   5.905   3.210  1.9599 -0.8585  1.6814
 4724TIP3    H214137   1.412   5.863   3.067 -0.8781  2.3792  1.0453
 4725TIP3   OH214138   0.789   6.658   4.252 -0.0815 -0.3253  0.1887
 4725TIP3    H114139   0.736   6.584   4.281 -1.7365  0.5748 -0.4451
 4725TIP3    H214140   0.774   6.726   4.318  1.2950 -0.4522  0.6759
 4726TIP3   OH214141   5.819   4.532   0.082  0.4460 -0.6441 -0.3864
 4726TIP3    H114142   5.769   4.467   0.033  1.1285 -1.2541 -0.2815
 4726TIP3    H214143   5.777   4.534   0.168 -0.0378 -0.4002 -0.6239
 4727TIP3   OH214144   6.311   5.661   3.009  0.0801 -0.0513 -0.4622
 4727TIP3    H114145   6.272   5.588   3.056  2.2094 -1.2140 -0.3758
 4727TIP3    H214146   6.279   5.739   3.054  2.8216 -1.0865  3.7828
 4728TIP3   OH214147   5.057   5.785   4.079 -0.1677  0.8205  0.4586
 4728TIP3    H114148   5.058   5.785   3.983 -1.3513 -2.2068  0.3277
 4728TIP3    H214149   4.966   5.768   4.102  0.5891 -1.9737  1.9262
 4729TIP3   OH214150   5.230   3.122   3.583 -0.0159 -0.5481 -0.4174
 4729TIP3    H114151   5.256   3.182   3.653  0.0262 -1.0933  0.0477
 4729TIP3    H214152   5.308   3.114   3.527  1.1040 -2.5965  1.2631
 4730TIP3   OH214153   6.141   2.964   5.291  0.2177 -0.1538  0.0790
 4730TIP3    H114154   6.134   2.983   5.197  1.0555  2.6599  0.4738
 4730TIP3    H214155   6.132   2.869   5.297 -2.7091 -0.2086 -2.5396
 4731TIP3   OH214156   3.842   5.997   2.053  0.2246 -0.3534 -0.0785
 4731TIP3    H114157   3.797   6.069   2.098  0.9866 -0.4010  0.7897
 4731TIP3    H214158   3.772   5.936   2.030 -0.1451 -0.5679  1.4920
 4732TIP3   OH214159   7.132   3.092   0.774 -0.1137  0.2865 -0.3122
 4732TIP3    H114160   7.131   3.181   0.740 -1.4076  0.1179 -0.7736
 4732TIP3    H214161   7.042   3.061   0.764  0.2609 -1.0003  0.0346
 4733TIP3   OH214162   6.968   4.512   5.775  0.3343 -0.4775  0.6699
 4733TIP3    H114163   6.989   4.495   5.683  2.8019 -0.7368  1.2049
 4733TIP3    H214164   6.998   4.601   5.791 -0.2525 -0.3653  1.1934
 4734TIP3   OH214165   0.718   1.355   0.867 -0.2943  0.2410 -0.8898
 4734TIP3    H114166   0.628   1.351   0.834 -0.2949 -1.2432 -0.7789
 4734TIP3    H214167   0.769   1.303   0.804  0.5729  1.4344 -1.1967
 4735TIP3   OH214168   6.976   0.269   5.664 -0.5021  0.1849 -0.2726
 4735TIP3    H114169   7.058   0.257   5.616 -1.0309  2.2099 -1.8529
 4735TIP3    H214170   6.956   0.363   5.654 -1.3074  0.4695  2.9348
 4736TIP3   OH214171   5.657   3.933   5.313  0.3456  0.2749 -0.5128
 4736TIP3    H114172   5.738   3.970   5.277 -0.5903  0.1029 -2.9786
 4736TIP3    H214173   5.677   3.840   5.325  0.7305  0.3680 -0.4015
 4737TIP3   OH214174   3.138   2.660   1.482  0.0925  0.0409  0.0640
 4737TIP3    H114175   3.046   2.668   1.509  0.1360 -2.3083  1.2162
 4737TIP3    H214176   3.186   2.646   1.564  1.5939  1.7564 -0.4714
 4738TIP3   OH214177   3.067   4.611   5.141 -0.1932  0.1642  0.1980
 4738TIP3    H114178   3.122   4.663   5.081 -0.9057  1.2517  0.4506
 4738TIP3    H214179   3.130   4.562   5.194  0.5246  0.7780 -0.0532
 4739TIP3   OH214180   0.297   5.001   0.699  0.5500  0.1647  0.0090
 4739TIP3    H114181   0.234   5.066   0.667 -0.3062 -0.0465  1.1949
 4739TIP3    H214182   0.336   4.965   0.620  0.2559  1.3571 -0.7040
 4740TIP3   OH214183   1.559   5.438   4.546 -0.4001  0.2367  0.1483
 4740TIP3    H114184   1.566   5.509   4.610 -1.3045  1.2248 -0.8153
 4740TIP3    H214185   1.488   5.464   4.488 -0.1620 -1.0402 -0.7732
 4741TIP3   OH214186   0.436   4.035   1.716 -0.6429  0.2214  0.5717
 4741TIP3    H114187   0.400   3.976   1.650  0.2134  0.4357 -0.1096
 4741TIP3    H214188   0.514   4.073   1.674  0.3604 -0.2069  1.9747
 4742TIP3   OH214189   4.036   1.036   1.240  0.3041 -0.1935  0.0899
 4742TIP3    H114190   4.035   1.102   1.309  0.5899 -1.1626  1.0365
 4742TIP3    H214191   4.119   1.052   1.193 -0.0679  0.7019 -0.2836
 4743TIP3   OH214192   2.021   6.200   1.783  0.0464  0.5182  0.9994
 4743TIP3    H114193   2.068   6.117   1.781  0.3624  0.7071  0.0671
 4743TIP3    H214194   1.960   6.196   1.709 -1.1539  0.4343  1.9564
 4744TIP3   OH214195   6.118   6.389   0.691  0.1073 -0.3997  0.2720
 4744TIP3    H114196   6.196   6.427   0.731 -0.6729  1.3210  0.2302
 4744TIP3    H214197   6.087   6.455   0.629 -1.9621 -0.5455  1.0466
 4745TIP3   OH214198   5.913   3.497   1.218 -0.1363 -0.3761  0.2677
 4745TIP3    H114199   5.947   3.573   1.266  0.3164  1.0399 -2.0965
 4745TIP3    H214200   5.838   3.531   1.170  0.5374 -1.1892 -1.4395
 4746TIP3   OH214201   4.096   6.529   4.725  0.0322  0.2739 -0.4118
 4746TIP3    H114202   4.027   6.548   4.662  0.9218 -2.2704 -2.3684
 4746TIP3    H214203   4.053   6.477   4.793 -0.2965 -0.0329 -0.8459
 4747TIP3   OH214204   6.906   3.212   4.475 -0.1361 -0.8894 -0.0997
 4747TIP3    H114205   6.999   3.216   4.497 -0.2527 -0.0118  0.2870
 4747TIP3    H214206   6.895   3.127   4.433  1.0485 -0.5450 -1.1626
 4748TIP3   OH214207   2.247   0.523   3.128  0.0912 -0.3821  0.2503
 4748TIP3    H114208   2.325   0.525   3.184  0.7093 -0.1905 -0.6035
 4748TIP3    H214209   2.186   0.467   3.175  0.8486 -0.7673  0.8064
 4749TIP3   OH214210   0.549   5.436   4.304  0.2549  0.5472 -0.3936
 4749TIP3    H114211   0.623   5.382   4.330  0.8208  0.8970 -1.2542
 4749TIP3    H214212   0.479   5.373   4.286  0.2086  0.2341  0.7601
 4750TIP3   OH214213   3.026   4.837   0.737 -0.5847  0.0120 -0.3036
 4750TIP3    H114214   3.055   4.774   0.803 -0.7003 -0.2323 -0.4868
 4750TIP3    H214215   3.107   4.868   0.697 -0.3959  1.2373  0.9189
 4751TIP3   OH214216   2.625   0.856   2.659 -0.2686  0.3239 -0.2210
 4751TIP3    H114217   2.588   0.805   2.588  0.5537  1.4534 -1.5078
 4751TIP3    H214218   2.557   0.855   2.727 -0.2401 -2.4809 -0.1284
 4752TIP3   OH214219   5.612   5.392   4.650  0.4249  0.5115 -0.2512
 4752TIP3    H114220   5.562   5.473   4.651  0.2929  0.4390  1.3098
 4752TIP3    H214221   5.548   5.323   4.670  0.5379  0.0107 -1.5368
 4753TIP3   OH214222   1.326   1.314   3.760 -0.2148  0.4260  0.1824
 4753TIP3    H114223   1.242   1.359   3.751 -0.6851 -0.6967 -1.4133
 4753TIP3    H214224   1.304   1.223   3.778  0.6684  0.1716  0.0383
 4754TIP3   OH214225   6.535   0.922   3.307  0.4968  0.3467  0.3237
 4754TIP3    H114226   6.541   0.831   3.336  1.4352  0.0822 -0.6245
 4754TIP3    H214227   6.616   0.937   3.258  0.3868  1.7142  0.5143
 4755TIP3   OH214228   2.011   6.665   2.948 -0.7228  0.2269 -0.0447
 4755TIP3    H114229   2.064   6.586   2.960 -1.5882 -0.9493 -3.0293
 4755TIP3    H214230   1.959   6.671   3.028 -0.5850 -2.2262  0.3123
 4756TIP3   OH214231   4.168   5.597   0.998 -0.0188  0.4547 -0.2232
 4756TIP3    H114232   4.121   5.592   1.081 -0.2588 -0.2954 -0.3992
 4756TIP3    H214233   4.239   5.660   1.015  0.0991  0.1016  0.6300
 4757TIP3   OH214234   3.858   2.345   4.196  0.2293  0.5980  0.6670
 4757TIP3    H114235   3.934   2.397   4.223  0.9499 -0.3821  0.5785
 4757TIP3    H214236   3.844   2.283   4.268 -0.2770  0.5525  0.5332
 4758TIP3   OH214237   5.508   3.191   2.536 -0.0285  0.7523  0.3568
 4758TIP3    H114238   5.510   3.151   2.622  0.2868  1.1707  0.5482
 4758TIP3    H214239   5.420   3.173   2.503  1.3521 -4.0492 -1.4815
 4759TIP3   OH214240   4.068   6.258   2.167 -0.2081 -0.1387 -0.0486
 4759TIP3    H114241   4.044   6.168   2.148 -1.9119  0.5008 -1.1457
 4759TIP3    H214242   4.163   6.255   2.179 -0.1636 -1.9854 -0.5243
 4760TIP3   OH214243   5.727   3.242   2.035  0.0498  0.3139 -0.0573
 4760TIP3    H114244   5.807   3.203   2.069 -0.6080 -0.5782  0.4934
 4760TIP3    H214245   5.656   3.196   2.080 -0.8128  0.2439 -1.4127
 4761TIP3   OH214246   6.602   5.154   5.664 -0.3375  0.4883 -0.5443
 4761TIP3    H114247   6.629   5.079   5.610 -1.2738 -0.3422  0.1173
 4761TIP3    H214248   6.518   5.128   5.701  1.2402  0.0252  3.1728
 4762TIP3   OH214249   6.903   3.389   5.592 -0.5751 -0.1838 -0.0119
 4762TIP3    H114250   6.944   3.314   5.550  0.0505  0.0897  0.0929
 4762TIP3    H214251   6.815   3.393   5.555 -0.4450 -0.6712 -0.3786
 4763TIP3   OH214252   1.434   2.937   3.516  0.1068  0.1185  0.3923
 4763TIP3    H114253   1.395   2.973   3.436  0.5076  1.0776  0.6063
 4763TIP3    H214254   1.384   2.858   3.534  0.7363 -0.7337 -1.4215
 4764TIP3   OH214255   0.301   2.603   0.810  0.1726 -0.4754  0.2376
 4764TIP3    H114256   0.296   2.599   0.906  2.5812  0.6861  0.4788
 4764TIP3    H214257   0.247   2.678   0.786  1.7984  1.0109  1.0081
 4765TIP3   OH214258   6.564   5.901   1.280  0.2962 -0.0256  0.3338
 4765TIP3    H114259   6.498   5.955   1.323  0.0533 -0.3873  0.4244
 4765TIP3    H214260   6.545   5.812   1.310  1.3974 -0.0236  1.0779
 4766TIP3   OH214261   5.134   3.802   2.058  0.1258 -0.0843  0.3214
 4766TIP3    H114262   5.140   3.708   2.040  1.4491 -0.2183  1.3005
 4766TIP3    H214263   5.090   3.807   2.143 -1.4308  0.2912 -0.4688
 4767TIP3   OH214264   0.314   3.879   1.488  0.4750  0.3660  0.0070
 4767TIP3    H114265   0.332   3.843   1.402 -0.7187 -0.0282 -0.1083
 4767TIP3    H214266   0.230   3.924   1.478  1.7716  3.0449  0.2103
 4768TIP3   OH214267   2.224   2.129   2.480  0.1879  0.0943  0.1462
 4768TIP3    H114268   2.263   2.096   2.561 -0.1647  1.0326  0.7046
 4768TIP3    H214269   2.237   2.224   2.483  0.2226  0.1405 -0.9286
 4769TIP3   OH214270   6.310   2.225   2.335  0.1223  0.0191  0.2424
 4769TIP3    H114271   6.368   2.150   2.352 -0.1423 -0.4937 -1.0050
 4769TIP3    H214272   6.329   2.286   2.406  1.0805 -0.7966  0.7213
 4770TIP3   OH214273   5.997   5.814   3.565  0.1956 -0.7900  0.2246
 4770TIP3    H114274   5.989   5.757   3.489 -2.3106  0.2527 -0.3736
 4770TIP3    H214275   6.049   5.888   3.534  0.4562 -1.0665 -0.0101
 4771TIP3   OH214276   4.577   5.091   0.228 -0.0156 -0.4636 -0.1506
 4771TIP3    H114277   4.667   5.115   0.204 -0.3948  0.8319 -0.3303
 4771TIP3    H214278   4.528   5.095   0.146 -0.4419 -0.2264  0.1137
 4772TIP3   OH214279   3.950   6.741   0.817  0.0100  0.4372  0.4324
 4772TIP3    H114280   3.997   6.732   0.734 -0.5219 -0.5290  0.2137
 4772TIP3    H214281   4.019   6.756   0.881  0.3767  1.8951 -0.2616
 4773TIP3   OH214282   4.674   5.835   5.617 -0.1830  0.3501  0.7895
 4773TIP3    H114283   4.767   5.820   5.633  0.4330  2.7981 -0.1416
 4773TIP3    H214284   4.643   5.881   5.696 -0.0089  1.6649  0.1110
 4774TIP3   OH214285   0.184   2.074   2.253  0.0762 -1.1864  0.1114
 4774TIP3    H114286   0.102   2.049   2.210  0.3295 -0.8094 -0.6103
 4774TIP3    H214287   0.174   2.168   2.269 -0.2681 -1.4331  1.4597
 4775TIP3   OH214288   0.967   1.757   1.633 -0.2908 -0.4341  0.2500
 4775TIP3    H114289   0.982   1.672   1.675 -3.6916 -0.7499  1.1888
 4775TIP3    H214290   0.885   1.788   1.672  0.6606  3.1959 -0.2755
 4776TIP3   OH214291   0.796   1.085   3.150  0.6492  0.2503  0.2682
 4776TIP3    H114292   0.859   1.125   3.210  0.3608  1.9559 -0.4932
 4776TIP3    H214293   0.835   1.097   3.063 -0.7982  1.6172 -0.2464
 4777TIP3   OH214294   3.765   6.171   1.646  0.2958 -0.2790 -0.4190
 4777TIP3    H114295   3.782   6.084   1.610  0.8567 -0.6923  0.8041
 4777TIP3    H214296   3.675   6.168   1.676  0.8712 -1.0794  1.3205
 4778TIP3   OH214297   0.431   0.568   4.237  0.0134  0.1487  0.4395
 4778TIP3    H114298   0.484   0.503   4.282 -0.8653 -0.5813  0.4554
 4778TIP3    H214299   0.494   0.628   4.197  0.8250 -0.4672  0.7754
 4779TIP3   OH214300   2.158   5.067   4.687  0.0745 -0.0059  0.4172
 4779TIP3    H114301   2.070   5.042   4.659  0.3652  0.4350 -0.9550
 4779TIP3    H214302   2.165   5.033   4.776 -1.1243 -0.8938  0.1986
 4780TIP3   OH214303   2.648   0.703   0.704  0.6902 -0.2045 -0.4168
 4780TIP3    H114304   2.721   0.763   0.719 -0.3737  1.1587 -0.4269
 4780TIP3    H214305   2.629   0.710   0.611 -0.1394  0.3072 -0.2215
 4781TIP3   OH214306   4.130   4.909   2.168 -0.3360 -0.3304  0.7525
 4781TIP3    H114307   4.035   4.921   2.171 -0.2288  1.2375 -0.6023
 4781TIP3    H214308   4.157   4.953   2.087  1.5730 -0.4963  1.2552
 4782TIP3   OH214309   1.054   2.500   2.896 -0.2564  0.1064  0.3813
 4782TIP3    H114310   1.109   2.521   2.820  1.0465  0.2485  1.3305
 4782TIP3    H214311   1.116   2.482   2.966 -1.4266  1.1954  1.7619
 4783TIP3   OH214312   2.491   0.826   3.217  0.3711 -0.3857 -0.1269
 4783TIP3    H114313   2.488   0.779   3.300  3.0346  1.3903  1.1037
 4783TIP3    H214314   2.546   0.773   3.160  0.6844 -0.3352  0.1309
 4784TIP3   OH214315   1.532   4.051   2.280 -0.0526  0.0607  0.0070
 4784TIP3    H114316   1.549   3.982   2.345 -0.4724 -0.1972 -0.1551
 4784TIP3    H214317   1.514   4.004   2.199  0.4941  0.3847 -0.3102
 4785TIP3   OH214318   6.261   0.545   3.864  0.1994 -0.2270  0.1041
 4785TIP3    H114319   6.244   0.544   3.958  1.9704  0.1829  0.4683
 4785TIP3    H214320   6.257   0.638   3.840  0.9383 -0.2087  0.0298
 4786TIP3   OH214321   5.445   4.257   5.028 -0.2056 -0.0795 -0.5363
 4786TIP3    H114322   5.378   4.201   5.069  1.6045 -1.2909  0.9372
 4786TIP3    H214323   5.521   4.248   5.085 -0.0839  4.8615  0.4797
 4787TIP3   OH214324   0.746   1.212   2.030  0.7229  0.4371 -0.0655
 4787TIP3    H114325   0.779   1.171   1.949  1.1191  0.4312  0.1000
 4787TIP3    H214326   0.716   1.298   2.002 -0.4366 -0.0793 -0.4867
 4788TIP3   OH214327   5.674   1.000   2.922 -0.4251  0.1484 -0.1682
 4788TIP3    H114328   5.627   1.003   3.005 -0.8225 -1.0394 -0.3308
 4788TIP3    H214329   5.750   0.944   2.940  1.6929  2.9865  0.4301
 4789TIP3   OH214330   0.508   2.826   3.175  0.1909  0.1405  0.7391
 4789TIP3    H114331   0.602   2.818   3.188  0.3906  0.4946 -0.3326
 4789TIP3    H214332   0.473   2.739   3.191  0.3370  0.5114  3.5830
 4790TIP3   OH214333   0.396   1.726   4.308 -0.2589  0.2694  0.4243
 4790TIP3    H114334   0.350   1.724   4.225 -1.5674  2.2003  1.0264
 4790TIP3    H214335   0.479   1.769   4.289 -0.0224 -0.4162 -0.1005
 4791TIP3   OH214336   7.015   4.397   3.989 -0.2635 -0.2906 -0.0260
 4791TIP3    H114337   7.034   4.361   4.076  2.0235  1.0662  0.0985
 4791TIP3    H214338   6.945   4.461   4.005 -2.3426 -2.4588  0.1821
 4792TIP3   OH214339   2.945   5.742   0.230  0.6503 -0.1104  0.0594
 4792TIP3    H114340   2.985   5.659   0.258  0.2069 -0.4384 -0.2608
 4792TIP3    H214341   2.860   5.743   0.274  1.3182  0.9685  1.3862
 4793TIP3   OH214342   1.277   2.847   1.475 -0.2147 -0.0962 -0.1005
 4793TIP3    H114343   1.365   2.809   1.485 -0.6123 -0.7096  1.3726
 4793TIP3    H214344   1.290   2.940   1.489 -0.0185 -0.3837  2.0064
 4794TIP3   OH214345   0.479   3.767   2.290  0.3194  0.4315  0.2923
 4794TIP3    H114346   0.411   3.727   2.237  0.7344  1.0202 -0.7145
 4794TIP3    H214347   0.485   3.712   2.368 -0.6311 -0.1730 -0.0488
 4795TIP3   OH214348   3.378   2.345   4.663 -0.3276 -0.4420 -0.1560
 4795TIP3    H114349   3.393   2.351   4.757 -1.1668 -0.1568 -0.0316
 4795TIP3    H214350   3.298   2.395   4.648  0.3114  0.3396 -1.1674
 4796TIP3   OH214351   3.366   1.964   3.532 -0.0568 -0.2238 -0.5045
 4796TIP3    H114352   3.382   1.990   3.623 -0.1673  1.2080 -0.8592
 4796TIP3    H214353   3.408   1.879   3.523 -1.2982 -1.0810  1.2765
 4797TIP3   OH214354   5.834   3.028   5.429 -0.3861  0.1868 -0.3944
 4797TIP3    H114355   5.758   2.976   5.405 -1.3887  1.7474 -0.7334
 4797TIP3    H214356   5.886   3.033   5.348  0.0526 -0.7988 -0.1873
 4798TIP3   OH214357   4.161   4.288   3.397 -0.0639  0.1833  0.6229
 4798TIP3    H114358   4.170   4.277   3.302  0.4621 -0.7679  0.7755
 4798TIP3    H214359   4.073   4.325   3.408 -0.9480 -1.5576 -0.1225
 4799TIP3   OH214360   3.623   3.664   4.609  0.1725  0.2785  0.1029
 4799TIP3    H114361   3.676   3.736   4.643  0.1592  0.7212 -0.7715
 4799TIP3    H214362   3.542   3.706   4.580  0.5118  0.0568 -1.2140
 4800TIP3   OH214363   2.111   1.753   5.045  0.7706 -0.3851  0.0430
 4800TIP3    H114364   2.052   1.828   5.037  1.7738  0.5337  0.8841
 4800TIP3    H214365   2.099   1.704   4.963 -0.5669  0.1860 -0.1292
 4801TIP3   OH214366   5.688   1.359   5.244 -0.5779 -0.0818 -0.6087
 4801TIP3    H114367   5.667   1.266   5.236  0.0823 -0.2513 -0.3991
 4801TIP3    H214368   5.754   1.363   5.313 -2.2972  0.7796  1.0893
 4802TIP3   OH214369   5.598   3.894   0.599 -0.0504 -0.4602 -0.0381
 4802TIP3    H114370   5.645   3.948   0.535 -1.4011  0.4089 -0.3375
 4802TIP3    H214371   5.604   3.944   0.681 -0.3318 -0.4229 -0.0419
 4803TIP3   OH214372   6.342   1.147   5.377 -0.7430 -0.3113  0.0097
 4803TIP3    H114373   6.412   1.173   5.318  0.9314  0.8434  2.3750
 4803TIP3    H214374   6.365   1.057   5.403  0.9928  0.6905  2.2019
 4804TIP3   OH214375   4.090   4.389   2.060 -0.2198  0.2860 -0.2748
 4804TIP3    H114376   4.152   4.318   2.079  0.4951  0.3986 -1.9494
 4804TIP3    H214377   4.038   4.397   2.139  0.4965 -1.2800  0.4145
 4805TIP3   OH214378   5.487   4.514   4.846 -0.1214 -0.2330  0.4677
 4805TIP3    H114379   5.553   4.545   4.909  0.9186 -0.6036 -0.4067
 4805TIP3    H214380   5.416   4.480   4.900  0.5224 -0.0645  1.4376
 4806TIP3   OH214381   4.203   5.342   2.752 -0.0102 -0.0829  0.2288
 4806TIP3    H114382   4.159   5.421   2.785  0.7634  0.8686 -0.9393
 4806TIP3    H214383   4.220   5.290   2.830 -2.9062 -0.3819  0.7852
 4807TIP3   OH214384   1.939   4.462   5.581 -0.4573  0.1531 -0.1506
 4807TIP3    H114385   2.028   4.448   5.613 -0.1896  0.2936 -0.8217
 4807TIP3    H214386   1.891   4.496   5.657  0.2365  0.7678  0.0128
 4808TIP3   OH214387   2.359   5.478   5.074 -0.0772  0.1404 -0.2585
 4808TIP3    H114388   2.284   5.418   5.077  0.3851 -0.4210  0.4409
 4808TIP3    H214389   2.343   5.540   5.145  0.9739 -1.0474  1.0627
 4809TIP3   OH214390   5.479   3.703   4.028 -0.3432 -0.2163  0.2523
 4809TIP3    H114391   5.463   3.765   3.957  0.2653 -0.8789 -0.4857
 4809TIP3    H214392   5.509   3.624   3.984 -0.2523 -0.7435  1.2367
 4810TIP3   OH214393   2.930   1.077   3.379 -0.2072  0.1985 -0.0055
 4810TIP3    H114394   3.015   1.120   3.380 -0.2180  0.2150  0.4405
 4810TIP3    H214395   2.875   1.129   3.438 -0.7225  0.5739 -0.7931
 4811TIP3   OH214396   2.626   4.792   3.952  0.0455 -0.3621  0.1648
 4811TIP3    H114397   2.680   4.719   3.984  0.1425  0.0732  1.0453
 4811TIP3    H214398   2.690   4.859   3.927 -0.0698  0.1016  1.0769
 4812TIP3   OH214399   5.266   3.606   5.676 -0.1166  0.3068  0.4127
 4812TIP3    H114400   5.205   3.585   5.605 -1.1996 -0.6321  1.5609
 4812TIP3    H214401   5.277   3.701   5.671 -0.5970  0.3205 -0.6705
 4813TIP3   OH214402   1.095   5.821   5.764  0.1698  0.0430  0.1087
 4813TIP3    H114403   1.153   5.862   5.829 -1.2131  0.7590  0.9420
 4813TIP3    H214404   1.101   5.727   5.783 -0.4771  0.2638  1.5310
 4814TIP3   OH214405   0.459   5.179   2.509 -0.6332 -0.3887  0.6050
 4814TIP3    H114406   0.372   5.218   2.497 -1.1200 -0.7336  2.5911
 4814TIP3    H214407   0.443   5.098   2.557  0.6875 -1.1505 -0.1876
 4815TIP3   OH214408   4.625   1.986   0.392  0.0397 -0.4810  0.4627
 4815TIP3    H114409   4.564   1.959   0.323 -1.4585 -0.0635  1.5729
 4815TIP3    H214410   4.671   2.062   0.355  0.4505 -1.2504 -0.6625
 4816TIP3   OH214411   4.695   3.822   2.903 -0.4839  0.3921 -0.1533
 4816TIP3    H114412   4.662   3.807   2.814 -0.0989 -0.0363 -0.2315
 4816TIP3    H214413   4.785   3.789   2.900 -0.3849  0.6219  0.3247
 4817TIP3   OH214414   5.079   0.239   3.883 -0.0703 -0.7600  0.4575
 4817TIP3    H114415   5.102   0.146   3.885  0.7102 -0.5690  1.9636
 4817TIP3    H214416   5.010   0.249   3.948 -1.3534 -0.5456 -0.8942
 4818TIP3   OH214417   5.871   6.348   2.322  0.3707  0.3719  0.1000
 4818TIP3    H114418   5.870   6.269   2.268 -1.7927  0.9626 -0.8174
 4818TIP3    H214419   5.964   6.361   2.343  0.7452 -2.8976  1.0605
 4819TIP3   OH214420   2.962   4.401   3.547 -0.4460  0.1191  0.3881
 4819TIP3    H114421   2.919   4.477   3.586 -0.9436 -0.1511  0.3732
 4819TIP3    H214422   2.975   4.425   3.455 -0.6964  0.1477  0.3586
 4820TIP3   OH214423   1.803   1.603   1.871 -0.5128 -0.2682 -0.0681
 4820TIP3    H114424   1.735   1.549   1.829 -1.1252 -0.5930  1.2667
 4820TIP3    H214425   1.762   1.632   1.953  0.3894  0.9172 -0.0152
 4821TIP3   OH214426   3.192   5.309   5.555 -0.2593  0.1596  0.4240
 4821TIP3    H114427   3.258   5.253   5.595 -0.1564  1.0339  1.5130
 4821TIP3    H214428   3.214   5.309   5.462  0.4201 -0.6850  0.5738
 4822TIP3   OH214429   3.638   6.614   3.653 -0.4592 -0.4518  0.1840
 4822TIP3    H114430   3.635   6.703   3.617  0.2328 -0.2063  0.7293
 4822TIP3    H214431   3.728   6.586   3.640 -0.5997 -0.9605  0.3077
 4823TIP3   OH214432   4.597   1.668   3.482 -0.1131  0.8410  0.0206
 4823TIP3    H114433   4.638   1.687   3.566  1.6075 -1.2180 -0.2434
 4823TIP3    H214434   4.595   1.752   3.436  0.2718  1.7203  1.5414
 4824TIP3   OH214435   4.970   0.582   4.040 -0.3184  0.1633 -0.1972
 4824TIP3    H114436   5.063   0.585   4.019 -0.5378  0.8852 -1.1399
 4824TIP3    H214437   4.961   0.510   4.103  1.0028  0.6758  0.5976
 4825TIP3   OH214438   5.054   5.896   5.068 -0.1413  0.4406 -0.5002
 4825TIP3    H114439   5.066   5.855   5.153 -0.0867  1.4014 -0.0285
 4825TIP3    H214440   4.982   5.848   5.028  0.3091 -0.4830 -0.2151
 4826TIP3   OH214441   2.427   5.761   2.031  0.2462 -0.3785  0.1607
 4826TIP3    H114442   2.496   5.823   2.053 -0.8729  0.1966  2.3021
 4826TIP3    H214443   2.449   5.731   1.943  1.4876  2.1320 -0.4642
 4827TIP3   OH214444   3.903   3.677   0.390 -0.1141 -0.2382  0.4271
 4827TIP3    H114445   3.821   3.724   0.376 -0.6397 -0.8907  1.2411
 4827TIP3    H214446   3.939   3.715   0.470 -0.3019 -0.8703  0.8191
 4828TIP3   OH214447   6.663   4.767   5.704 -0.1261 -0.7810  0.0814
 4828TIP3    H114448   6.756   4.786   5.717 -0.4413  0.6950  0.3514
 4828TIP3    H214449   6.638   4.718   5.782  0.1922 -0.2614  0.5187
 4829TIP3   OH214450   2.680   5.030   1.749 -0.0569 -0.2450 -0.1172
 4829TIP3    H114451   2.765   4.988   1.747  0.3229  0.5126 -0.2932
 4829TIP3    H214452   2.624   4.969   1.797  0.9065 -0.1781  1.1537
 4830TIP3   OH214453   4.152   2.658   4.635 -0.3223  0.2500 -0.7018
 4830TIP3    H114454   4.074   2.635   4.586 -0.0882  1.3750 -1.6580
 4830TIP3    H214455   4.171   2.582   4.689 -1.8436 -0.1848 -0.7559
 4831TIP3   OH214456   1.311   1.369   3.306 -0.7869 -0.4007 -0.2346
 4831TIP3    H114457   1.262   1.391   3.386 -0.4210  2.9990 -0.7785
 4831TIP3    H214458   1.393   1.419   3.315 -0.4622 -0.4581 -2.4350
 4832TIP3   OH214459   4.155   3.741   5.453  0.0489  0.1176 -0.1203
 4832TIP3    H114460   4.186   3.824   5.491 -1.5521  0.3141  0.8762
 4832TIP3    H214461   4.110   3.767   5.373  0.0794  0.1386 -0.1311
 4833TIP3   OH214462   6.419   1.157   2.215  0.3072 -0.0695  0.4069
 4833TIP3    H114463   6.440   1.250   2.218 -1.8807  0.5799 -1.5760
 4833TIP3    H214464   6.342   1.148   2.271 -0.0336 -0.4969 -0.1227
 4834TIP3   OH214465   3.008   4.817   4.377 -0.7597 -0.0317 -0.1510
 4834TIP3    H114466   2.919   4.828   4.343 -0.6407 -1.0046 -0.8234
 4834TIP3    H214467   3.031   4.726   4.355  0.5666  0.3466 -0.4027
 4835TIP3   OH214468   1.105   3.848   1.013 -0.2993 -0.0038 -0.5425
 4835TIP3    H114469   1.111   3.756   0.991  1.4042  0.1800 -1.0157
 4835TIP3    H214470   1.192   3.883   0.993 -0.6251  1.5090  0.4880
 4836TIP3   OH214471   6.643   5.460   1.466  0.0852 -0.3515 -0.0312
 4836TIP3    H114472   6.658   5.367   1.483  0.6558  0.0721  2.0862
 4836TIP3    H214473   6.706   5.483   1.398  1.7542 -0.9961  1.2174
 4837TIP3   OH214474   3.112   0.106   3.137 -0.2089 -0.1559 -0.0280
 4837TIP3    H114475   3.171   0.096   3.062  0.1528  0.9913  0.0968
 4837TIP3    H214476   3.048   0.036   3.125  0.1540 -0.3280 -1.1166
 4838TIP3   OH214477   3.971   2.885   4.034  0.0631 -0.1203 -0.7589
 4838TIP3    H114478   4.066   2.896   4.034  0.0990 -0.2942  0.2260
 4838TIP3    H214479   3.938   2.954   3.978  0.7383  0.3326 -0.6031
 4839TIP3   OH214480   2.304   1.264   3.065  0.6286  0.1894  0.7238
 4839TIP3    H114481   2.237   1.241   3.129 -0.0926 -0.3372 -0.1953
 4839TIP3    H214482   2.260   1.324   3.004  0.2419 -1.9628 -1.2473
 4840TIP3   OH214483   7.160   0.775   4.786 -0.3715  0.1729 -0.3134
 4840TIP3    H114484   7.246   0.814   4.774  0.1359 -1.0661 -0.9076
 4840TIP3    H214485   7.178   0.685   4.812 -1.4828 -0.3560 -1.2891
 4841TIP3   OH214486   3.539   0.803   0.382  0.7163  0.1326 -0.1855
 4841TIP3    H114487   3.446   0.800   0.360  0.6988  0.7255 -0.2051
 4841TIP3    H214488   3.556   0.895   0.399  1.4263  0.1020 -0.7214
 4842TIP3   OH214489   3.043   6.664   1.021  0.4564 -0.4899 -0.1390
 4842TIP3    H114490   3.055   6.740   1.079 -1.0446  0.9049 -1.5394
 4842TIP3    H214491   3.081   6.692   0.937 -1.0809 -0.8238 -0.9803
 4843TIP3   OH214492   4.507   5.758   3.076  0.3899  0.2406  0.0551
 4843TIP3    H114493   4.485   5.745   3.168  1.9418 -0.7045  0.3305
 4843TIP3    H214494   4.506   5.670   3.038  0.2787  0.5602 -0.7131
 4844TIP3   OH214495   4.167   4.202   0.058  0.0354  0.9489  0.1226
 4844TIP3    H114496   4.149   4.239  -0.028 -0.1709  0.5362 -0.0125
 4844TIP3    H214497   4.191   4.111   0.041 -3.5309 -0.2645  0.7255
 4845TIP3   OH214498   5.285   2.932   3.970  0.3918  0.3630  0.7580
 4845TIP3    H114499   5.327   2.882   4.039 -0.7074 -0.1729  1.0623
 4845TIP3    H214500   5.292   3.023   3.998  2.3851  0.4334  0.2142
 4846TIP3   OH214501   1.642   3.614   3.285  0.1153 -0.0939 -0.7114
 4846TIP3    H114502   1.557   3.644   3.252 -2.0744 -0.9730  3.4079
 4846TIP3    H214503   1.641   3.519   3.271 -1.2927 -0.6452  2.1836
 4847TIP3   OH214504   0.913   3.045   5.576 -0.2126 -0.0393 -0.3612
 4847TIP3    H114505   0.852   3.111   5.610 -0.4166 -0.4941  0.1627
 4847TIP3    H214506   0.999   3.075   5.606 -0.4327 -0.6779  0.9826
 4848TIP3   OH214507   1.396   1.190   4.045  0.0847 -0.3528 -0.4259
 4848TIP3    H114508   1.474   1.184   3.990 -0.4494  0.0371 -1.2421
 4848TIP3    H214509   1.393   1.107   4.091  0.9405 -0.4012 -0.4390
 4849TIP3   OH214510   2.404   2.949   0.261 -0.4246  0.8816 -0.5081
 4849TIP3    H114511   2.407   2.881   0.328  1.7005  0.9041 -0.5054
 4849TIP3    H214512   2.462   3.018   0.294  1.3342  0.5461 -2.6600
 4850TIP3   OH214513   1.714   3.698   3.938  0.0279  0.2412 -0.1798
 4850TIP3    H114514   1.734   3.788   3.963  2.0607 -0.5691  1.4799
 4850TIP3    H214515   1.720   3.649   4.020  0.3467 -1.6036 -1.2383
 4851TIP3   OH214516   2.953   4.548   4.479  0.0444  0.0173 -0.2696
 4851TIP3    H114517   2.998   4.536   4.396 -0.9589 -0.3702 -0.7689
 4851TIP3    H214518   2.864   4.518   4.463 -0.2683  0.3048  0.8373
 4852TIP3   OH214519   3.517   1.051   4.277 -0.2703 -0.5844 -0.1710
 4852TIP3    H114520   3.437   1.021   4.234  0.2102 -0.1690 -1.4273
 4852TIP3    H214521   3.585   1.041   4.209  0.2084  1.7300 -0.1126
 4853TIP3   OH214522   7.127   0.218   0.197 -0.2973  0.4147  0.0689
 4853TIP3    H114523   7.053   0.178   0.152  1.9351 -2.2687 -1.5856
 4853TIP3    H214524   7.160   0.284   0.135 -0.2794  0.3867  0.0488
 4854TIP3   OH214525   7.209   3.236   0.195  0.2898 -0.4324 -0.0783
 4854TIP3    H114526   7.223   3.305   0.131 -1.3483 -0.4703 -0.5041
 4854TIP3    H214527   7.178   3.282   0.273 -0.8020 -0.6630 -0.3627
 4855TIP3   OH214528   1.754   4.207   5.286 -0.0671  0.0076  0.1594
 4855TIP3    H114529   1.800   4.284   5.252  1.0082 -0.6713  0.0543
 4855TIP3    H214530   1.716   4.165   5.208 -1.0956  0.6874  0.2686
 4856TIP3   OH214531   2.778   0.201   2.459  0.0015  0.6345  0.3479
 4856TIP3    H114532   2.729   0.132   2.504 -0.2842  0.9333  0.4985
 4856TIP3    H214533   2.865   0.199   2.500 -0.1664  0.7072  0.7087
 4857TIP3   OH214534   5.076   4.981   3.878  0.0956  0.6242  0.0811
 4857TIP3    H114535   5.150   5.005   3.822  0.5433 -0.8099  0.0201
 4857TIP3    H214536   5.115   4.973   3.966  0.3147 -1.4346 -0.1737
 4858TIP3   OH214537   5.161   4.928   1.454 -0.4722 -0.4773 -0.0088
 4858TIP3    H114538   5.238   4.905   1.506 -0.7245 -0.9898  0.1400
 4858TIP3    H214539   5.162   5.024   1.452 -0.8345 -0.4138  1.5250
 4859TIP3   OH214540   4.914   0.932   5.390  0.2156 -0.1405 -0.4986
 4859TIP3    H114541   4.830   0.948   5.346  0.2382 -1.9220 -1.2886
 4859TIP3    H214542   4.978   0.980   5.337 -0.0036 -0.7835 -1.3821
 4860TIP3   OH214543   1.883   2.178   4.034  0.2896 -0.4449 -0.3000
 4860TIP3    H114544   1.865   2.098   3.985  0.8398 -0.3330 -0.6981
 4860TIP3    H214545   1.905   2.243   3.967  1.8637 -0.5040  0.1199
 4861TIP3   OH214546   7.075   4.941   1.313 -0.0680  0.0272  0.4859
 4861TIP3    H114547   7.143   4.876   1.334  0.1011  0.0084 -0.1124
 4861TIP3    H214548   7.062   4.932   1.219 -2.1831 -1.2266  0.8330
 4862TIP3   OH214549   1.974   2.854   0.739  0.3005  0.2461 -0.3754
 4862TIP3    H114550   1.991   2.813   0.654 -0.6389  0.7040 -0.7898
 4862TIP3    H214551   2.007   2.790   0.802  1.6435  0.1966 -1.0844
 4863TIP3   OH214552   4.634   4.000   4.977  0.2832 -0.6283 -0.3207
 4863TIP3    H114553   4.722   3.989   4.940  0.3796 -1.3377  0.0938
 4863TIP3    H214554   4.640   4.078   5.032  0.8271 -1.0331  0.2044
 4864TIP3   OH214555   0.355   1.599   4.547 -0.6563 -0.7375  0.2996
 4864TIP3    H114556   0.373   1.631   4.458 -2.1930  0.0873  0.2471
 4864TIP3    H214557   0.400   1.662   4.604  0.0008 -1.0399  0.1244
 4865TIP3   OH214558   4.363   2.183   3.484  0.2072  0.6928  0.0228
 4865TIP3    H114559   4.370   2.148   3.395  0.1264 -0.9767  0.6355
 4865TIP3    H214560   4.269   2.191   3.499  0.1870 -0.1346  0.3593
 4866TIP3   OH214561   6.558   3.968   2.915  0.3695 -0.4577  0.0933
 4866TIP3    H114562   6.463   3.978   2.923  0.2036 -0.1221 -1.8140
 4866TIP3    H214563   6.594   4.037   2.970 -0.5966  1.9573 -2.0957
 4867TIP3   OH214564   3.161   2.230   0.311  0.2869 -0.4199 -0.4456
 4867TIP3    H114565   3.083   2.279   0.288 -0.3334 -1.4925 -0.6603
 4867TIP3    H214566   3.227   2.257   0.246 -0.1440 -0.1286 -0.7626
 4868TIP3   OH214567   4.131   3.304   3.724 -0.4942  0.2202 -0.0173
 4868TIP3    H114568   4.098   3.394   3.719  3.4334  1.9006  0.6964
 4868TIP3    H214569   4.163   3.294   3.814  0.3454 -1.3943 -0.4421
 4869TIP3   OH214570   7.025   0.843   2.209  0.0540  0.5348 -0.2063
 4869TIP3    H114571   6.971   0.779   2.162  0.0006  0.4079  0.0256
 4869TIP3    H214572   7.110   0.840   2.164  0.6838 -1.1416  1.0053
 4870TIP3   OH214573   2.333   5.012   0.681 -0.3696  0.4545  0.0005
 4870TIP3    H114574   2.276   5.088   0.671 -0.0053  0.8182  0.6259
 4870TIP3    H214575   2.320   4.962   0.601 -1.3891  0.6503  0.0291
 4871TIP3   OH214576   0.675   3.574   4.952 -0.4239  0.3134 -0.7599
 4871TIP3    H114577   0.763   3.535   4.959 -0.4853  0.0217 -1.5100
 4871TIP3    H214578   0.686   3.663   4.984 -0.4288 -0.4842  1.6826
 4872TIP3   OH214579   6.906   4.836   3.301 -0.4583 -0.1728 -0.3081
 4872TIP3    H114580   6.830   4.880   3.338  0.1100  0.6847 -0.1234
 4872TIP3    H214581   6.958   4.811   3.377 -1.4375 -2.4812 -0.3201
 4873TIP3   OH214582   4.883   2.957   4.825 -0.1269  0.3799 -0.0932
 4873TIP3    H114583   4.875   3.022   4.895  2.1431 -0.5229  1.1296
 4873TIP3    H214584   4.878   3.008   4.744 -0.4438  1.7949  0.7801
 4874TIP3   OH214585   5.301   3.838   0.706 -0.5677 -0.0458  0.3092
 4874TIP3    H114586   5.227   3.782   0.728 -0.2494 -0.5229  0.1686
 4874TIP3    H214587   5.331   3.873   0.791 -0.6735 -0.2017  0.4103
 4875TIP3   OH214588   4.145   1.209   2.934  0.5648 -0.1081  0.4243
 4875TIP3    H114589   4.068   1.162   2.901 -0.8448  1.7070  0.9697
 4875TIP3    H214590   4.120   1.240   3.021  0.8209  2.8495 -0.4400
 4876TIP3   OH214591   3.353   4.425   4.293  0.0170  0.0031 -0.4530
 4876TIP3    H114592   3.431   4.478   4.281 -0.3139  0.7596  0.6526
 4876TIP3    H214593   3.346   4.413   4.387  0.2389 -2.2787 -0.6680
 4877TIP3   OH214594   4.008   0.620   3.990 -0.6458  0.1730  0.4065
 4877TIP3    H114595   4.016   0.697   4.046 -0.2860 -0.0405  0.6507
 4877TIP3    H214596   4.022   0.653   3.901 -0.0790  0.3171  0.5489
 4878TIP3   OH214597   2.356   5.002   3.694 -0.5460 -0.0823 -0.0489
 4878TIP3    H114598   2.308   4.961   3.622  1.1127  0.2697 -1.4254
 4878TIP3    H214599   2.322   5.092   3.697 -0.2528  0.0591 -0.7671
 4879TIP3   OH214600   5.129   4.663   5.789  0.1809 -0.3320  0.0284
 4879TIP3    H114601   5.185   4.660   5.866 -1.4933 -0.5259  1.3051
 4879TIP3    H214602   5.044   4.693   5.822 -0.3161  0.5954 -1.9248
 4880TIP3   OH214603   0.119   3.736   4.150  0.3131  0.1414  0.3611
 4880TIP3    H114604   0.071   3.766   4.227  1.9537 -0.7547  1.7696
 4880TIP3    H214605   0.106   3.641   4.148  0.1267  0.1692 -0.6021
 4881TIP3   OH214606   3.748   1.711   0.638  0.2678  0.0936  0.3188
 4881TIP3    H114607   3.735   1.800   0.604  2.6169  1.8925  3.6360
 4881TIP3    H214608   3.842   1.697   0.632  0.0969 -1.6257  1.1962
 4882TIP3   OH214609   0.311   4.252   2.209 -0.1783 -0.0554 -0.3518
 4882TIP3    H114610   0.221   4.221   2.199 -0.1704 -0.5070  0.7949
 4882TIP3    H214611   0.329   4.241   2.302  0.4060  1.8385 -0.1943
 4883TIP3   OH214612   1.169   5.813   4.960  0.0321 -0.5502 -0.4628
 4883TIP3    H114613   1.128   5.889   4.918 -0.1681 -0.5302 -0.2338
 4883TIP3    H214614   1.102   5.780   5.021  0.6529  0.0079  0.5545
 4884TIP3   OH214615   2.731   0.821   4.818  0.4674  0.1766  0.5697
 4884TIP3    H114616   2.768   0.734   4.807  2.0438  0.6801  1.7053
 4884TIP3    H214617   2.684   0.817   4.901 -1.7760 -0.3050 -0.6061
 4885TIP3   OH214618   4.521   0.882   5.506  0.7166 -0.3451 -0.0966
 4885TIP3    H114619   4.437   0.929   5.504  0.8216 -0.1464  0.1222
 4885TIP3    H214620   4.548   0.885   5.597  2.3922  2.1842 -0.5712
 4886TIP3   OH214621   4.640   2.621   2.070 -0.3319  0.5329 -0.5002
 4886TIP3    H114622   4.645   2.642   2.163 -2.7488 -1.0428  0.0685
 4886TIP3    H214623   4.690   2.540   2.061 -1.7873 -0.4562 -0.1006
 4887TIP3   OH214624   3.456   4.148   3.531 -0.1588  0.3172 -0.3326
 4887TIP3    H114625   3.513   4.095   3.587  1.2139  2.1102  0.0572
 4887TIP3    H214626   3.488   4.238   3.541 -1.8663  1.1443 -1.5988
 4888TIP3   OH214627   2.907   1.449   5.665 -0.2324 -0.2488 -0.3984
 4888TIP3    H114628   2.846   1.509   5.707  1.1869  0.7053  0.3613
 4888TIP3    H214629   2.861   1.421   5.585 -2.0094 -0.2794  0.5833
 4889TIP3   OH214630   5.066   2.763   0.251  0.0915 -0.1159 -0.1117
 4889TIP3    H114631   5.146   2.811   0.270 -0.3979  0.3520  0.8543
 4889TIP3    H214632   5.032   2.738   0.337 -0.1722 -1.3601 -0.5503
 4890TIP3   OH214633   6.502   0.543   5.447  0.0605  0.0611  0.1235
 4890TIP3    H114634   6.410   0.549   5.472  0.2966  0.9373  0.8243
 4890TIP3    H214635   6.500   0.546   5.351 -0.5865  1.2034  0.1494
 4891TIP3   OH214636   5.714   5.141   0.098 -0.0560 -0.4435 -0.0270
 4891TIP3    H114637   5.639   5.193   0.126  0.1529  0.1493 -0.5563
 4891TIP3    H214638   5.708   5.060   0.150 -0.3837  0.1022  0.7985
 4892TIP3   OH214639   4.467   0.988   4.534 -0.3117 -0.2600  0.0852
 4892TIP3    H114640   4.423   1.038   4.466  1.3951 -1.2296 -1.8314
 4892TIP3    H214641   4.547   0.956   4.493  1.6288  0.4167  2.9984
 4893TIP3   OH214642   7.122   2.571   0.151 -0.0100  0.5496 -0.4513
 4893TIP3    H114643   7.150   2.655   0.185  0.2752  0.1964  0.2044
 4893TIP3    H214644   7.090   2.590   0.062  0.6500  1.2308 -0.5483
 4894TIP3   OH214645   2.389   3.761   3.616 -0.0256  0.3997 -0.2310
 4894TIP3    H114646   2.482   3.744   3.600 -0.0088  1.4824 -1.4629
 4894TIP3    H214647   2.383   3.857   3.620 -1.2082  0.3812 -1.0581
 4895TIP3   OH214648   6.300   0.037   0.159 -0.5326  0.1403  0.5138
 4895TIP3    H114649   6.381   0.014   0.205 -2.3265 -0.7792  3.5070
 4895TIP3    H214650   6.285  -0.035   0.098  1.0085  0.4666 -0.2848
 4896TIP3   OH214651   6.664   2.859   1.978  0.2797 -0.0600 -0.0412
 4896TIP3    H114652   6.675   2.895   1.890  1.5623 -1.5253 -0.5080
 4896TIP3    H214653   6.739   2.892   2.027  0.0334  0.0483  0.2646
 4897TIP3   OH214654   3.736   1.124   4.013  0.7527 -0.1869 -0.3418
 4897TIP3    H114655   3.736   1.168   4.098  0.5848 -0.0641 -0.4058
 4897TIP3    H214656   3.737   1.031   4.035  4.2508 -0.2378 -0.1628
 4898TIP3   OH214657   5.335   2.149   4.328 -0.3702  0.1139  0.1080
 4898TIP3    H114658   5.411   2.170   4.383 -0.4115 -0.3864  0.3624
 4898TIP3    H214659   5.316   2.230   4.281  0.2143  0.2920  0.1736
 4899TIP3   OH214660   5.381   0.678   3.578  0.1938  0.1237 -0.0388
 4899TIP3    H114661   5.287   0.692   3.590 -1.0317 -2.3787 -4.5074
 4899TIP3    H214662   5.395   0.586   3.601  1.0883 -0.0644 -1.2236
 4900TIP3   OH214663   6.696   0.636   5.613 -0.1146  0.1799  0.5963
 4900TIP3    H114664   6.652   0.698   5.671 -0.4141  0.0805  0.4776
 4900TIP3    H214665   6.624   0.592   5.567  0.1281  0.6595 -0.2707
 4901TIP3   OH214666   6.356   1.939   2.325 -0.2991 -0.0889 -0.2235
 4901TIP3    H114667   6.265   1.927   2.301 -0.1152 -0.6656 -0.6688
 4901TIP3    H214668   6.404   1.879   2.268  0.2255 -0.8458  0.9715
 4902TIP3   OH214669   4.917   5.312   3.773  0.4523 -0.2554 -0.3166
 4902TIP3    H114670   4.960   5.311   3.858  0.2712  0.8808 -0.2015
 4902TIP3    H214671   4.979   5.357   3.715  0.0044  0.1807 -0.4643
 4903TIP3   OH214672   3.307   0.716   3.982  0.2467  0.3926  0.0668
 4903TIP3    H114673   3.337   0.628   4.004  0.1676  0.5557  0.8853
 4903TIP3    H214674   3.377   0.752   3.928 -0.0627 -0.4294 -0.9005
 4904TIP3   OH214675   3.766   0.415   4.739  0.6425  0.1256 -0.9741
 4904TIP3    H114676   3.765   0.342   4.800  0.1285  1.4919  0.7155
 4904TIP3    H214677   3.852   0.456   4.751  0.6420  0.2542 -1.3756
 4905TIP3   OH214678   3.643   4.294   2.912  0.6756  0.2881 -0.0643
 4905TIP3    H114679   3.667   4.329   2.998 -1.2372  0.2448  0.5180
 4905TIP3    H214680   3.643   4.199   2.925 -1.4518  0.3166  0.4591
 4906TIP3   OH214681   7.149   5.140   4.966  0.2281  0.2069 -0.1377
 4906TIP3    H114682   7.231   5.093   4.950  1.7271  1.8089  2.1210
 4906TIP3    H214683   7.087   5.101   4.905  2.4779 -1.5497 -1.4971
 4907TIP3   OH214684   3.139   6.482   3.309 -0.0466  0.6316 -0.0730
 4907TIP3    H114685   3.077   6.551   3.334 -0.6209  0.6847 -1.5778
 4907TIP3    H214686   3.177   6.512   3.226  0.6011 -0.3032 -0.1377
 4908TIP3   OH214687   3.590   4.526   4.374 -0.5399 -0.4109 -0.2788
 4908TIP3    H114688   3.595   4.512   4.469 -3.6689 -0.6840 -0.0550
 4908TIP3    H214689   3.637   4.608   4.360 -0.0203 -0.3575  1.4842
 4909TIP3   OH214690   5.908   5.404   0.939 -0.6216  0.4784 -0.0462
 4909TIP3    H114691   5.827   5.369   0.901  0.2975  0.4204 -2.1178
 4909TIP3    H214692   5.975   5.382   0.875  1.1442  0.1254  1.8206
 4910TIP3   OH214693   4.325   5.976   3.075 -0.1703 -0.1373  0.0948
 4910TIP3    H114694   4.403   6.021   3.041 -1.7215  1.3195 -1.6971
 4910TIP3    H214695   4.353   5.884   3.082  1.8616  0.4116 -0.0004
 4911TIP3   OH214696   2.720   5.385   3.458  0.5902  0.4432 -0.5108
 4911TIP3    H114697   2.745   5.477   3.463  2.7034 -0.1445  0.7672
 4911TIP3    H214698   2.720   5.355   3.549 -2.1650 -0.3605 -0.6740
 4912TIP3   OH214699   4.029   5.561   2.190 -0.1292 -0.5057  0.0948
 4912TIP3    H114700   4.051   5.629   2.126  1.2343 -1.3625 -0.3990
 4912TIP3    H214701   3.947   5.590   2.229  1.1172  2.1359  0.9275
 4913TIP3   OH214702   4.515   5.850   2.388 -0.0454  0.4159 -0.0968
 4913TIP3    H114703   4.580   5.807   2.444  0.7465  0.5830 -0.8631
 4913TIP3    H214704   4.431   5.830   2.430  0.4191 -0.5993  0.4031
 4914TIP3   OH214705   5.585   6.282   5.713  0.1735  0.2751 -0.4072
 4914TIP3    H114706   5.537   6.250   5.637 -1.0260 -0.2088  0.5308
 4914TIP3    H214707   5.518   6.320   5.770  1.0757  0.8123  0.3291
 4915TIP3   OH214708   5.461   0.708   4.382 -0.2283 -0.2671  0.3496
 4915TIP3    H114709   5.539   0.723   4.436  0.3792 -0.0149 -0.5678
 4915TIP3    H214710   5.393   0.685   4.444 -0.1459  2.1984  1.5042
 4916TIP3   OH214711   1.044   4.559   4.290  0.1163 -0.1688  0.3237
 4916TIP3    H114712   1.059   4.651   4.265  1.5870 -1.1058 -2.6689
 4916TIP3    H214713   1.126   4.531   4.330 -0.8901  0.1839  2.8142
 4917TIP3   OH214714   2.302   3.184   4.498 -0.2324 -0.4254  0.3140
 4917TIP3    H114715   2.268   3.145   4.417 -0.8564 -0.4095  0.5700
 4917TIP3    H214716   2.396   3.165   4.495  0.3693  2.3174 -1.9876
 4918TIP3   OH214717   0.812   0.819   0.816  0.4470 -0.4294  0.6187
 4918TIP3    H114718   0.780   0.754   0.753 -1.0939  0.3673  0.5364
 4918TIP3    H214719   0.787   0.783   0.901  1.3688 -0.8732  0.7187
 4919TIP3   OH214720   1.907   1.893   4.735 -0.2835  0.2280 -0.1936
 4919TIP3    H114721   1.961   1.948   4.792 -1.1467  1.3793 -0.4607
 4919TIP3    H214722   1.961   1.881   4.656 -0.2783  1.1302 -0.3421
 4920TIP3   OH214723   1.842   2.331   3.554 -0.6274  0.1026 -0.5416
 4920TIP3    H114724   1.766   2.286   3.590 -0.1173  0.9006  1.7037
 4920TIP3    H214725   1.831   2.326   3.459 -2.1875 -1.9377 -0.3075
 4921TIP3   OH214726   0.781   1.971   5.792  0.2631 -0.2873  0.7257
 4921TIP3    H114727   0.771   1.905   5.860 -4.5659  1.9251  2.5930
 4921TIP3    H214728   0.692   1.991   5.764  1.3895  4.7441 -0.3017
 4922TIP3   OH214729   0.081   0.415   2.053  0.9017  0.4973  0.3799
 4922TIP3    H114730   0.102   0.326   2.082  0.5697  0.4913  0.6051
 4922TIP3    H214731   0.013   0.445   2.113 -0.1442  0.3045 -0.6635
 4923TIP3   OH214732   0.495   5.176   4.613  0.0720  0.2825  0.0477
 4923TIP3    H114733   0.563   5.173   4.546 -0.0009 -1.4286  0.0099
 4923TIP3    H214734   0.497   5.266   4.645  2.0343  0.3901 -0.2637
 4924TIP3   OH214735   2.889   0.677   5.680 -0.1759 -0.0708  0.4610
 4924TIP3    H114736   2.825   0.605   5.676  2.5148 -2.6016 -0.8107
 4924TIP3    H214737   2.965   0.640   5.725  0.5744  2.7477  1.7624
 4925TIP3   OH214738   5.111   2.557   4.201 -0.2832  0.2199 -0.4256
 4925TIP3    H114739   5.054   2.583   4.274  0.4184  1.3727 -0.2689
 4925TIP3    H214740   5.199   2.567   4.236  0.0450 -0.7339 -0.9476
 4926TIP3   OH214741   5.881   0.244   2.864 -0.0270  0.1957 -0.6311
 4926TIP3    H114742   5.906   0.317   2.806  0.0133 -0.1040 -0.9943
 4926TIP3    H214743   5.820   0.284   2.927 -0.2970  0.4664 -1.0547
 4927TIP3   OH214744   1.792   0.491   4.571  0.1618 -0.2639 -0.0245
 4927TIP3    H114745   1.835   0.445   4.499  1.0505 -0.5103  0.6463
 4927TIP3    H214746   1.743   0.562   4.528  0.4934 -0.5406 -0.8816
 4928TIP3   OH214747   3.530   5.631   0.644 -0.5481 -0.1277 -0.4179
 4928TIP3    H114748   3.445   5.592   0.666 -1.4589  2.3843  0.9314
 4928TIP3    H214749   3.551   5.595   0.558 -3.2835 -0.3780 -1.0778
 4929TIP3   OH214750   4.274   4.503   1.868  0.0831 -0.0838 -0.2215
 4929TIP3    H114751   4.204   4.474   1.926  0.1089  0.6597  0.1922
 4929TIP3    H214752   4.242   4.585   1.831  1.4304  1.1990  1.3131
 4930TIP3   OH214753   0.304   1.348  -0.030 -0.5701  0.5411 -0.0238
 4930TIP3    H114754   0.326   1.421   0.028 -2.2300 -0.4734  2.0286
 4930TIP3    H214755   0.330   1.270   0.018 -0.2598 -0.3045 -1.4966
 4931TIP3   OH214756   4.023   4.431   3.740  0.3988 -0.6183  0.0436
 4931TIP3    H114757   3.992   4.456   3.827  1.5754  0.1268  0.2798
 4931TIP3    H214758   4.109   4.392   3.756  0.0724 -1.6808 -0.6775
 4932TIP3   OH214759   0.911   6.268   5.163 -0.1569  0.1835  0.7087
 4932TIP3    H114760   1.002   6.243   5.146 -0.2343  0.6306 -0.4065
 4932TIP3    H214761   0.915   6.362   5.176 -0.0165 -0.1488  3.9005
 4933TIP3   OH214762   1.720   3.643   1.924  0.7914  0.0497 -0.3297
 4933TIP3    H114763   1.725   3.559   1.878  0.0231 -0.3007  0.2094
 4933TIP3    H214764   1.685   3.621   2.011  0.2836  0.9643 -0.2937
 4934TIP3   OH214765   3.269   0.651   4.370 -0.5958  0.1892 -0.2306
 4934TIP3    H114766   3.198   0.685   4.316  0.8781  2.8826 -0.6358
 4934TIP3    H214767   3.288   0.721   4.432  0.5823 -1.1624  1.0216
 4935TIP3   OH214768   0.427   3.135   1.692  0.2774  0.5220 -0.2753
 4935TIP3    H114769   0.445   3.149   1.599 -1.6021  0.3860 -0.7093
 4935TIP3    H214770   0.344   3.086   1.692  0.1383  0.7211  1.4834
 4936TIP3   OH214771   1.574   1.158   2.139 -0.2920 -0.2844 -0.2739
 4936TIP3    H114772   1.631   1.084   2.161 -0.1350  0.0017  0.3002
 4936TIP3    H214773   1.543   1.139   2.050  0.8325 -0.3613 -0.6630
 4937TIP3   OH214774   3.015   1.268   2.988 -0.1502  0.2834  0.6029
 4937TIP3    H114775   2.982   1.300   2.904 -1.1181 -1.0103  0.4590
 4937TIP3    H214776   3.001   1.173   2.985  2.7730 -0.2497  0.9470
 4938TIP3   OH214777   6.190   6.725   5.196  0.4482  0.1241 -0.0141
 4938TIP3    H114778   6.164   6.814   5.222  1.5078  0.2902  0.5379
 4938TIP3    H214779   6.254   6.738   5.126 -0.8482 -0.2757 -1.3222
 4939TIP3   OH214780   1.844   3.674   4.492 -0.3244  0.2231 -0.3219
 4939TIP3    H114781   1.922   3.631   4.528 -0.8235  0.4903  1.1323
 4939TIP3    H214782   1.794   3.603   4.451  0.7083  0.0679 -1.3763
 4940TIP3   OH214783   2.103   0.934   2.334  0.2780  0.0777 -0.0680
 4940TIP3    H114784   2.196   0.926   2.312  0.2916  0.0134  0.0112
 4940TIP3    H214785   2.079   0.847   2.366  0.2861  0.2034  0.2823
 4941TIP3   OH214786   1.482   5.875   2.054 -0.1432  0.3897  0.4264
 4941TIP3    H114787   1.439   5.819   1.988  0.2050  1.3799 -0.6847
 4941TIP3    H214788   1.564   5.901   2.013  2.1795 -2.3381  2.9318
 4942TIP3   OH214789   6.466   3.658   5.426 -0.0428  0.7488 -0.4254
 4942TIP3    H114790   6.506   3.723   5.484 -1.5161  0.9057  0.4606
 4942TIP3    H214791   6.375   3.651   5.456 -0.2518 -0.8022 -1.3166
 4943TIP3   OH214792   2.499   3.141   1.250  0.3328 -0.4096 -0.4022
 4943TIP3    H114793   2.582   3.098   1.230  1.2638  1.2461 -0.2525
 4943TIP3    H214794   2.503   3.224   1.203 -1.8649 -0.8705 -1.5344
 4944TIP3   OH214795   1.187   3.905   1.653  0.0525  0.0466  0.3200
 4944TIP3    H114796   1.270   3.869   1.684 -0.0853 -0.0527  0.5755
 4944TIP3    H214797   1.201   4.000   1.651  0.6945 -0.0552 -1.1529
 4945TIP3   OH214798   6.010   2.895   4.455  0.3389 -0.6095 -0.1561
 4945TIP3    H114799   6.038   2.836   4.384  0.4554 -1.7463  0.7933
 4945TIP3    H214800   6.081   2.889   4.519  0.3046  0.5167 -0.0069
 4946TIP3   OH214801   2.361   1.451   1.026 -0.4641  0.6251 -0.3279
 4946TIP3    H114802   2.352   1.382   0.960 -0.3220  1.3215 -1.0987
 4946TIP3    H214803   2.455   1.465   1.032 -0.3689 -0.4287  1.1064
 4947TIP3   OH214804   0.924   6.021   4.119  0.7299 -0.1572 -0.0012
 4947TIP3    H114805   0.893   6.040   4.207 -0.4230  0.4671 -0.5071
 4947TIP3    H214806   0.981   6.094   4.097  1.2376 -0.4545  0.3248
 4948TIP3   OH214807   0.733   6.181   2.228  0.1031 -0.1751  0.8327
 4948TIP3    H114808   0.772   6.094   2.230  0.8918  0.1413  0.0398
 4948TIP3    H214809   0.641   6.166   2.207  0.5435 -0.7548 -0.8839
 4949TIP3   OH214810   1.053   2.163   4.444 -0.0497  0.0612  0.1655
 4949TIP3    H114811   1.047   2.204   4.530 -0.6622  1.6998 -0.6100
 4949TIP3    H214812   0.995   2.216   4.388 -0.3497 -1.4774 -1.0563
 4950TIP3   OH214813   4.263   2.795   5.603  0.1543  1.2226 -0.1802
 4950TIP3    H114814   4.201   2.743   5.551  3.3332 -1.6277 -1.4695
 4950TIP3    H214815   4.314   2.844   5.539 -0.7350  3.6968  0.8697
 4951TIP3   OH214816   4.863   4.454   0.488 -0.8504  0.3156  1.0493
 4951TIP3    H114817   4.946   4.494   0.512 -0.8957 -0.1346  2.0157
 4951TIP3    H214818   4.830   4.416   0.570 -2.5541  1.4498  0.9410
 4952TIP3   OH214819   5.624   4.650   1.226  0.0627 -0.2094  0.4120
 4952TIP3    H114820   5.617   4.713   1.154 -1.0607 -0.9979 -0.1959
 4952TIP3    H214821   5.558   4.680   1.290 -0.8200 -1.0134 -0.0955
 4953TIP3   OH214822   6.807   3.962   4.778 -0.0796  0.0543 -0.6887
 4953TIP3    H114823   6.712   3.949   4.768 -0.2931 -1.5058  2.3155
 4953TIP3    H214824   6.816   4.015   4.857  1.5707 -0.6984 -0.3284
 4954TIP3   OH214825   3.666   4.484   2.321  0.4854 -0.1322  0.4952
 4954TIP3    H114826   3.665   4.424   2.246 -1.8396  2.2314 -1.5770
 4954TIP3    H214827   3.759   4.508   2.330  1.4361 -3.4097  1.0755
 4955TIP3   OH214828   1.317   5.914   1.068  0.3410  0.0588  0.0627
 4955TIP3    H114829   1.366   5.892   0.989  0.7023  4.8420 -1.3310
 4955TIP3    H214830   1.381   5.907   1.139  0.9500 -0.9068 -0.5561
 4956TIP3   OH214831   6.957   4.803   3.034  0.1959  0.1870 -0.1545
 4956TIP3    H114832   7.015   4.874   3.010  0.6004  0.4293  1.4243
 4956TIP3    H214833   6.928   4.824   3.123 -1.8561 -0.2239 -0.6608
 4957TIP3   OH214834   3.394   4.920   5.298  0.4011  0.6760 -0.7598
 4957TIP3    H114835   3.376   5.015   5.294  0.2160  0.6752 -0.0901
 4957TIP3    H214836   3.342   4.890   5.372 -0.8689 -0.2574 -1.9793
 4958TIP3   OH214837   2.461   0.197   3.555 -0.3634 -0.1641  0.3027
 4958TIP3    H114838   2.453   0.138   3.631 -1.2718 -0.5466 -0.0786
 4958TIP3    H214839   2.536   0.253   3.577  1.6133 -2.5066 -0.0427
 4959TIP3   OH214840   1.147   4.715   3.538  0.5277  0.1472 -0.1283
 4959TIP3    H114841   1.223   4.759   3.500  0.5193 -0.3103 -0.6736
 4959TIP3    H214842   1.080   4.719   3.470  0.2878 -0.0758  0.0906
 4960TIP3   OH214843   6.324   4.693   5.913 -0.5003 -0.4221 -0.1259
 4960TIP3    H114844   6.312   4.623   5.848 -0.0849  0.8144 -1.5821
 4960TIP3    H214845   6.408   4.732   5.891 -0.6363  0.4230  0.7802
 4961TIP3   OH214846   2.517   1.123   1.825  0.1508  0.4031 -0.1591
 4961TIP3    H114847   2.430   1.133   1.863 -0.0360 -0.1265 -0.4338
 4961TIP3    H214848   2.548   1.040   1.859 -0.5721 -0.7531 -2.1874
 4962TIP3   OH214849   2.515   1.761   3.314 -0.0675  0.4583 -0.0034
 4962TIP3    H114850   2.484   1.838   3.361 -0.5264 -0.1619  0.7346
 4962TIP3    H214851   2.445   1.696   3.325  0.8047 -0.4422  0.3554
 4963TIP3   OH214852   3.005   5.919   3.398 -0.7898  0.6358  0.4804
 4963TIP3    H114853   3.074   5.971   3.440 -0.1124 -0.6623  1.0096
 4963TIP3    H214854   2.971   5.977   3.329  0.5380  1.4712  0.4848
 4964TIP3   OH214855   6.396   0.101   2.369  0.4098  0.0635  0.7953
 4964TIP3    H114856   6.463   0.162   2.340 -0.7975  0.8382 -0.5209
 4964TIP3    H214857   6.324   0.157   2.398 -0.5292 -0.7189  0.0322
 4965TIP3   OH214858   1.060   3.750   0.317 -0.1309 -0.0334  0.0654
 4965TIP3    H114859   0.990   3.687   0.307  0.4013 -0.5341 -0.6459
 4965TIP3    H214860   1.105   3.751   0.232  0.1555  0.9592  0.2027
 4966TIP3   OH214861   0.431   2.114   5.091 -0.5868 -0.0839 -0.5823
 4966TIP3    H114862   0.503   2.076   5.142  0.1148  0.5103 -1.0932
 4966TIP3    H214863   0.473   2.140   5.008 -1.0918  1.5178 -0.3611
 4967TIP3   OH214864   5.125   1.354   2.545  0.0353  0.4910 -0.0138
 4967TIP3    H114865   5.210   1.312   2.561  0.2716  1.2539  0.8511
 4967TIP3    H214866   5.097   1.383   2.632 -1.0477  0.3829 -0.3136
 4968TIP3   OH214867   5.771   2.530   5.810  0.0726  0.4088  0.9018
 4968TIP3    H114868   5.767   2.558   5.718  0.4544  1.3266  1.1549
 4968TIP3    H214869   5.864   2.511   5.825 -0.2456 -1.6152  0.5757
 4969TIP3   OH214870   5.745   5.823   3.392  0.8494  0.0604  0.0957
 4969TIP3    H114871   5.803   5.755   3.357  0.7049  0.1463 -0.3124
 4969TIP3    H214872   5.797   5.865   3.461  0.8954 -0.5443  0.4413
 4970TIP3   OH214873   3.992   3.422   3.959  0.9132  0.2344  0.0013
 4970TIP3    H114874   3.962   3.513   3.961 -1.5825 -0.4964 -0.4320
 4970TIP3    H214875   4.080   3.427   3.923  0.6197  2.4297 -0.5883
 4971TIP3   OH214876   1.905   3.389   5.030 -0.1940 -0.5706  0.2618
 4971TIP3    H114877   1.932   3.305   4.993  0.0867  0.2930 -1.6252
 4971TIP3    H214878   1.974   3.412   5.091 -0.2230 -1.6432  0.7210
 4972TIP3   OH214879   1.318   6.211   5.201 -0.2818  0.9218  0.6760
 4972TIP3    H114880   1.253   6.201   5.270 -0.6639  0.1815  0.2258
 4972TIP3    H214881   1.356   6.297   5.216 -0.2763  0.7351  1.8771
 4973TIP3   OH214882   2.032   0.480   1.833 -0.1762  0.2179 -0.0374
 4973TIP3    H114883   2.111   0.527   1.809 -0.9397  1.3844 -0.3502
 4973TIP3    H214884   1.993   0.532   1.903 -0.3600 -0.6784  0.5540
 4974TIP3   OH214885   1.672   4.947   0.944 -0.0456  0.1803  0.0195
 4974TIP3    H114886   1.642   4.920   1.030 -4.7641  0.3622 -1.2965
 4974TIP3    H214887   1.687   4.865   0.897 -0.2906  0.0401  0.1855
 4975TIP3   OH214888   3.103   6.287   1.792 -0.4161 -0.1596  0.6536
 4975TIP3    H114889   3.114   6.303   1.699  0.3435  2.1238  1.0776
 4975TIP3    H214890   3.025   6.232   1.798 -1.1194  0.5583 -1.2611
 4976TIP3   OH214891   5.521   6.754   0.420  0.1963  0.1410 -0.3913
 4976TIP3    H114892   5.451   6.693   0.398 -1.3889  1.9980 -0.7752
 4976TIP3    H214893   5.593   6.731   0.362 -0.4911 -1.0791 -0.7961
 4977TIP3   OH214894   6.076   1.832   5.410  0.7768  0.1378 -0.3102
 4977TIP3    H114895   6.087   1.776   5.333 -1.3950  0.1416 -0.6807
 4977TIP3    H214896   6.062   1.920   5.374  1.5460  0.4769  0.1792
 4978TIP3   OH214897   3.482   6.192   1.674  0.3235 -0.1239  0.3628
 4978TIP3    H114898   3.431   6.113   1.654 -0.0506 -0.7941  3.5162
 4978TIP3    H214899   3.466   6.250   1.599 -3.6252 -0.9907  0.3220
 4979TIP3   OH214900   2.577   2.523   5.399 -0.1771 -0.1336 -0.2164
 4979TIP3    H114901   2.485   2.548   5.392 -0.7560 -1.4422  1.6864
 4979TIP3    H214902   2.575   2.428   5.412  1.4696 -0.2327 -0.4803
 4980TIP3   OH214903   0.682   0.664   1.065 -0.3439  0.4523  0.3709
 4980TIP3    H114904   0.701   0.750   1.102  0.6457  0.6171 -0.4631
 4980TIP3    H214905   0.588   0.666   1.046 -0.4005  1.2042  0.7045
 4981TIP3   OH214906   1.842   4.641   1.727 -0.2818 -0.0127 -0.4816
 4981TIP3    H114907   1.929   4.654   1.690 -0.7267 -0.3196 -1.6634
 4981TIP3    H214908   1.799   4.726   1.718 -0.4481 -0.1324 -0.8437
 4982TIP3   OH214909   2.470   3.189   0.775  0.4846  0.6975  0.7470
 4982TIP3    H114910   2.487   3.258   0.710 -1.7174 -0.8600 -1.6831
 4982TIP3    H214911   2.414   3.231   0.840 -0.8037  1.3141 -0.6797
 4983TIP3   OH214912   6.692   4.972   5.463 -0.0289 -0.2732 -0.2201
 4983TIP3    H114913   6.630   4.932   5.402 -0.3110  1.8698 -1.4259
 4983TIP3    H214914   6.732   4.898   5.508  0.5505 -2.0276 -3.3311
 4984TIP3   OH214915   3.419   0.109   4.762 -0.4827  0.0734  0.4491
 4984TIP3    H114916   3.494   0.052   4.783  0.6845  0.9967 -1.0441
 4984TIP3    H214917   3.437   0.191   4.807  0.1430  0.7698 -0.9966
 4985TIP3   OH214918   4.529   6.047   3.528 -0.1060  0.1144 -0.1576
 4985TIP3    H114919   4.504   6.087   3.445 -1.2465 -0.1943  0.0220
 4985TIP3    H214920   4.598   6.104   3.562  1.4842 -0.5829 -2.0106
 4986TIP3   OH214921   0.151   6.122   0.249 -0.1176  0.2078 -0.4550
 4986TIP3    H114922   0.092   6.159   0.315 -1.1219  0.5301 -1.4932
 4986TIP3    H214923   0.236   6.162   0.268 -0.2656 -0.0687  0.9110
 4987TIP3   OH214924   2.805   4.043   3.726 -0.4016 -0.0550 -0.4171
 4987TIP3    H114925   2.840   3.954   3.724  1.0712  0.5131 -0.6350
 4987TIP3    H214926   2.831   4.081   3.642  1.2094  1.3978  0.6864
 4988TIP3   OH214927   1.263   4.052   3.083  0.4031  0.2893 -0.1986
 4988TIP3    H114928   1.344   4.013   3.050 -0.3251 -0.5987 -0.9803
 4988TIP3    H214929   1.252   4.016   3.171  0.7465  0.2446 -0.1741
 4989TIP3   OH214930   3.215   4.451   0.144 -0.3132 -0.6706  0.6518
 4989TIP3    H114931   3.208   4.388   0.215 -0.7013  1.2049  2.3565
 4989TIP3    H214932   3.127   4.487   0.134 -0.0933 -0.3259 -0.2459
 4990TIP3   OH214933   0.905   0.905   4.299 -0.0108 -0.2476  0.3295
 4990TIP3    H114934   0.973   0.920   4.232 -1.1208 -1.0882 -1.0442
 4990TIP3    H214935   0.840   0.972   4.281  0.2468  0.3021  1.3921
 4991TIP3   OH214936   5.628   2.423   2.409 -0.1073 -0.7516 -0.1801
 4991TIP3    H114937   5.622   2.518   2.410  0.4604 -0.7064 -0.3490
 4991TIP3    H214938   5.695   2.402   2.474  0.2331 -0.9869 -0.5968
 4992TIP3   OH214939   6.270   5.440   3.996  0.3529  0.0214  0.0877
 4992TIP3    H114940   6.177   5.436   4.019  0.9406 -1.5564  2.6470
 4992TIP3    H214941   6.285   5.361   3.943 -0.2137  1.6601 -2.6953
 4993TIP3   OH214942   5.323   4.554   5.084 -0.0401  0.6958  0.6554
 4993TIP3    H114943   5.408   4.509   5.089  0.3232  1.1844 -0.6918
 4993TIP3    H214944   5.262   4.492   5.123  0.8552  0.1236  1.2071
 4994TIP3   OH214945   5.215   3.036   2.079 -0.0034  0.0853  0.0592
 4994TIP3    H114946   5.190   3.001   1.994 -1.9332  1.2703  0.0749
 4994TIP3    H214947   5.161   3.114   2.089  1.1512  0.7150  1.8102
 4995TIP3   OH214948   4.942   5.030   2.416 -0.0859 -0.0238 -0.1461
 4995TIP3    H114949   5.001   5.064   2.484  2.1566 -0.2647 -1.8364
 4995TIP3    H214950   4.987   4.953   2.382 -1.0234  0.2134 -2.0397
 4996TIP3   OH214951   5.339   3.229   3.283 -0.1200  0.7093  0.0595
 4996TIP3    H114952   5.245   3.214   3.292 -0.1174  1.4344  1.5111
 4996TIP3    H214953   5.355   3.228   3.188 -1.3197 -0.9148 -0.1575
 4997TIP3   OH214954   2.939   1.580   0.970 -0.2608  0.0270 -0.8179
 4997TIP3    H114955   2.965   1.490   0.952 -0.8268 -0.2818 -0.1248
 4997TIP3    H214956   2.898   1.610   0.889  0.0478 -0.2929 -1.0927
 4998TIP3   OH214957   3.380   1.927   0.048  0.3798  0.2740 -0.6072
 4998TIP3    H114958   3.429   1.899   0.125  0.3323 -0.3559 -0.7951
 4998TIP3    H214959   3.445   1.925  -0.023  0.5328  1.2829 -0.5088
 4999TIP3   OH214960   2.172   0.971   1.116 -0.3373  0.2043 -0.2590
 4999TIP3    H114961   2.102   0.965   1.181  0.0661  1.5807  0.3231
 4999TIP3    H214962   2.131   1.014   1.041 -0.1966  0.7541 -0.0239
 5000TIP3   OH214963   0.197   2.045   1.356 -0.7932  0.0090 -0.5503
 5000TIP3    H114964   0.196   2.109   1.427 -2.6628  0.0557 -0.5638
 5000TIP3    H214965   0.252   2.084   1.289 -1.3643  1.3139 -0.2883
 5001TIP3   OH214966   2.573   4.611   1.893  0.2799 -0.4985  0.1473
 5001TIP3    H114967   2.534   4.610   1.805  0.4579 -1.4618  0.0655
 5001TIP3    H214968   2.666   4.623   1.877  0.1790  0.5516  0.2793
 5002TIP3   OH214969   6.848   4.499   0.428  0.2265 -0.0333 -0.5574
 5002TIP3    H114970   6.778   4.474   0.488 -0.2425  1.7012 -0.3516
 5002TIP3    H214971   6.826   4.455   0.346 -0.2598 -0.7261 -0.0651
 5003TIP3   OH214972   1.760   4.223   0.373 -0.1269  0.0096  0.4280
 5003TIP3    H114973   1.848   4.224   0.335 -0.1643  0.7114  0.3567
 5003TIP3    H214974   1.771   4.177   0.456  0.4275  0.5994  0.6935
 5004TIP3   OH214975   1.620   4.122   1.862  0.6554 -0.8673 -0.3682
 5004TIP3    H114976   1.661   4.082   1.939  2.6341  0.8266 -0.4384
 5004TIP3    H214977   1.689   4.177   1.824 -1.5116  1.7707 -0.8519
 5005TIP3   OH214978   6.548   4.636   0.337  0.2395  0.1154 -0.3809
 5005TIP3    H114979   6.621   4.693   0.315  0.0352  0.6526  0.3023
 5005TIP3    H214980   6.580   4.583   0.410 -0.6465  1.6642  1.2012
 5006TIP3   OH214981   3.266   4.049   5.832  0.0244 -0.2049  0.7161
 5006TIP3    H114982   3.251   4.118   5.896 -0.8226 -0.5281  0.8793
 5006TIP3    H214983   3.229   4.082   5.751  0.0924 -0.2575  0.6631
 5007TIP3   OH214984   2.541   1.208   3.763 -0.2229  0.4757 -0.1958
 5007TIP3    H114985   2.625   1.207   3.717  0.0240  0.9457  0.2433
 5007TIP3    H214986   2.498   1.127   3.735  0.7796 -0.2650  0.3282
 5008TIP3   OH214987   7.179   4.997   3.148  0.0577  0.5598  0.1192
 5008TIP3    H114988   7.114   5.059   3.180  0.0081  1.4038 -1.4956
 5008TIP3    H214989   7.263   5.034   3.175  0.0118  1.1963 -0.5776
 5009TIP3   OH214990   1.567   0.411   3.201  0.3127 -0.0306 -0.0115
 5009TIP3    H114991   1.582   0.504   3.183 -0.4074  0.1276  0.1745
 5009TIP3    H214992   1.474   0.405   3.220  0.5646 -0.6044  1.1314
 5010TIP3   OH214993   1.434   5.764   1.802  0.0609  0.4756 -0.4730
 5010TIP3    H114994   1.400   5.774   1.713  0.9802 -1.8420 -1.1448
 5010TIP3    H214995   1.452   5.671   1.811  1.9707  0.9446  1.4158
 5011TIP3   OH214996   1.070   1.179   1.717 -0.4790  0.0645  1.0459
 5011TIP3    H114997   1.104   1.128   1.791  0.2530 -0.4119  0.3896
 5011TIP3    H214998   0.975   1.165   1.720 -0.3380 -0.9661  1.1517
 5012TIP3   OH214999   6.769   5.335   4.507  0.3198  0.4993 -0.4948
 5012TIP3    H115000   6.822   5.399   4.555 -0.2728  1.7726 -1.4876
 5012TIP3    H215001   6.832   5.290   4.449  0.8667 -0.3822  0.7395
 5013TIP3   OH215002   4.503   6.241   3.271 -0.5152  0.7009 -0.1623
 5013TIP3    H115003   4.510   6.331   3.237  0.6355  1.1078  1.0667
 5013TIP3    H215004   4.574   6.194   3.228 -0.0560  0.8184  0.4540
 5014TIP3   OH215005   3.142   0.376   5.693  0.5207  0.1608  0.0113
 5014TIP3    H115006   3.146   0.468   5.717 -2.4119  0.6282 -0.7942
 5014TIP3    H215007   3.115   0.332   5.774  2.6069 -0.1539  0.5802
 5015TIP3   OH215008   2.375   3.481   5.247 -0.1940  0.4721  1.1727
 5015TIP3    H115009   2.371   3.555   5.308  2.6812 -1.5782  4.2608
 5015TIP3    H215010   2.448   3.502   5.189 -1.1307  1.2039  0.2417
 5016TIP3   OH215011   4.460   1.928   3.931  0.9628  0.2713  0.4911
 5016TIP3    H115012   4.396   1.997   3.945 -0.3498 -0.9502  0.7939
 5016TIP3    H215013   4.496   1.910   4.018 -0.2237 -0.8137  0.7853
 5017TIP3   OH215014   7.092   4.130   3.626 -0.2918 -0.3880  0.5234
 5017TIP3    H115015   7.022   4.155   3.686  1.1584  1.7266  1.4816
 5017TIP3    H215016   7.171   4.131   3.680  0.6707 -1.3902 -0.8067
 5018TIP3   OH215017   3.863   4.538   0.807  0.1822  0.2977  0.5453
 5018TIP3    H115018   3.816   4.590   0.872  0.5347  2.2888 -0.7040
 5018TIP3    H215019   3.938   4.502   0.855 -0.5305  0.2115  1.6391
 5019TIP3   OH215020   4.904   0.764   1.892 -0.1548  0.0817 -0.3452
 5019TIP3    H115021   4.881   0.851   1.859 -0.5965  0.0194 -0.2139
 5019TIP3    H215022   4.864   0.761   1.979  2.0857  0.7325  0.7713
 5020TIP3   OH215023   1.210   6.629   1.313 -0.1393 -0.2022  0.1583
 5020TIP3    H115024   1.237   6.542   1.341 -0.5127  0.3530  2.4089
 5020TIP3    H215025   1.288   6.684   1.324 -0.3974  0.1051  0.4908
 5021TIP3   OH215026   2.455   3.893   3.288 -0.1449 -0.0651 -0.1437
 5021TIP3    H115027   2.445   3.940   3.371 -1.1348  0.1713 -0.3847
 5021TIP3    H215028   2.548   3.901   3.267  0.3918 -1.2260  1.5786
 5022TIP3   OH215029   0.134   6.404   5.057  0.4512 -0.1040 -0.4823
 5022TIP3    H115030   0.217   6.450   5.046 -0.3156  0.9243 -2.5226
 5022TIP3    H215031   0.115   6.369   4.970 -1.5578  0.2509 -0.2232
 5023TIP3   OH215032   5.793   3.457   5.362 -0.1682  0.1741 -0.5741
 5023TIP3    H115033   5.803   3.410   5.444 -2.0111  1.0261  0.1980
 5023TIP3    H215034   5.814   3.393   5.295 -1.5781 -1.4753  0.4787
 5024TIP3   OH215035   3.343   3.190   0.562  0.4837  0.3444 -0.1119
 5024TIP3    H115036   3.330   3.113   0.507 -1.4255  1.6026 -1.5638
 5024TIP3    H215037   3.427   3.226   0.533 -0.2537  0.7001 -1.9661
 5025TIP3   OH215038   7.001   4.758   1.801 -0.3855 -0.0380 -0.1798
 5025TIP3    H115039   7.013   4.773   1.895 -1.5426 -0.2978  0.0204
 5025TIP3    H215040   6.999   4.846   1.763  0.0690  0.0682  0.0406
 5026TIP3   OH215041   5.334   0.461   1.563 -1.0962 -0.7348  0.0661
 5026TIP3    H115042   5.304   0.399   1.630 -2.1071 -1.7350 -1.2421
 5026TIP3    H215043   5.401   0.412   1.514  0.1155  0.2171  0.7275
 5027TIP3   OH215044   7.085   6.621   4.604  0.1992  0.2386  0.0618
 5027TIP3    H115045   7.163   6.665   4.639 -0.2511  1.6412 -0.5959
 5027TIP3    H215046   7.025   6.693   4.581 -0.6978 -0.7386 -0.8003
 5028TIP3   OH215047   6.831   5.340   4.939  0.6963 -0.1866  0.2035
 5028TIP3    H115048   6.773   5.264   4.932 -0.8157  0.6836  2.2124
 5028TIP3    H215049   6.917   5.303   4.959  0.0482 -1.3935  0.8973
 5029TIP3   OH215050   1.954   2.330   1.375 -0.3141 -0.7128  0.1864
 5029TIP3    H115051   2.000   2.390   1.317  0.9182 -1.5898  0.2095
 5029TIP3    H215052   2.013   2.318   1.450 -1.7155  0.1246  1.4775
 5030TIP3   OH215053   1.383   0.705   0.722 -0.5545 -0.5226 -0.1171
 5030TIP3    H115054   1.419   0.655   0.649 -0.1059  0.5333 -0.6274
 5030TIP3    H215055   1.291   0.678   0.725 -0.2220 -1.7465 -0.0524
 5031TIP3   OH215056   6.331   2.891   4.539  0.2661  0.0093 -0.9941
 5031TIP3    H115057   6.316   2.840   4.460 -0.2127 -2.3872  0.5376
 5031TIP3    H215058   6.291   2.976   4.521 -1.4311 -1.0816 -2.6549
 5032TIP3   OH215059   2.117   4.779   4.499  0.0185  0.2372 -0.2004
 5032TIP3    H115060   2.108   4.839   4.425  0.4367  1.1459  0.4634
 5032TIP3    H215061   2.211   4.771   4.513  0.0766 -1.9142 -1.3101
 5033TIP3   OH215062   5.514   3.965   2.623 -0.5087 -0.3157 -0.5957
 5033TIP3    H115063   5.462   4.045   2.627 -1.4101 -0.9431  1.0878
 5033TIP3    H215064   5.592   3.990   2.573 -1.0098  1.4572 -0.5730
 5034TIP3   OH215065   2.521   0.111   1.739 -0.3597 -0.0327 -0.2212
 5034TIP3    H115066   2.586   0.043   1.756 -0.0494 -0.0086 -1.2237
 5034TIP3    H215067   2.526   0.169   1.815 -0.2077 -0.7909  0.3619
 5035TIP3   OH215068   7.208   1.826   3.854 -0.9745  0.6279  0.1137
 5035TIP3    H115069   7.119   1.854   3.834 -2.2668 -0.3187  3.6637
 5035TIP3    H215070   7.259   1.906   3.859 -1.1112  1.0912 -3.5127
 5036TIP3   OH215071   1.337   0.834   1.835 -0.0413 -0.1633  0.4560
 5036TIP3    H115072   1.289   0.869   1.760 -1.3866 -0.6134  1.0746
 5036TIP3    H215073   1.309   0.743   1.840  1.8403 -0.8083  0.1067
 5037TIP3   OH215074   0.376   0.632   0.992  0.2121 -0.8265  0.0275
 5037TIP3    H115075   0.316   0.642   1.065 -2.5447 -0.8737 -2.0722
 5037TIP3    H215076   0.332   0.675   0.919  3.4875  0.5217 -1.3435
 5038TIP3   OH215077   6.937   2.815   3.756 -0.6550  0.1362 -0.3790
 5038TIP3    H115078   6.982   2.816   3.840 -0.6157 -0.4015 -0.3868
 5038TIP3    H215079   6.898   2.902   3.748  0.2691  0.5632 -0.3148
 5039TIP3   OH215080   6.917   0.588   3.209  0.1614 -0.5719  0.4276
 5039TIP3    H115081   6.924   0.582   3.113  0.4494  0.5310  0.3637
 5039TIP3    H215082   6.993   0.541   3.242 -0.2370 -1.4450  0.1400
 5040TIP3   OH215083   3.835   1.693   2.255 -0.2350 -0.5711  0.1421
 5040TIP3    H115084   3.788   1.764   2.298 -0.0031 -0.1979 -0.2098
 5040TIP3    H215085   3.894   1.659   2.322  1.1230  0.9090 -0.2350
 5041TIP3   OH215086   1.261   5.338   0.452 -0.0305 -0.3014 -0.2196
 5041TIP3    H115087   1.265   5.245   0.474  0.8769  0.1824  1.9169
 5041TIP3    H215088   1.179   5.348   0.404  1.0677 -2.6046 -2.8273
 5042TIP3   OH215089   0.999   3.530   0.548 -0.1249  0.3226 -0.0351
 5042TIP3    H115090   0.948   3.511   0.627 -0.2800 -1.0606 -0.4510
 5042TIP3    H215091   1.083   3.487   0.563 -0.2419 -0.1578 -0.7143
 5043TIP3   OH215092   5.108   2.361   2.947 -0.0680  0.1604 -0.2008
 5043TIP3    H115093   5.051   2.342   3.022 -0.1831 -0.3295 -0.4099
 5043TIP3    H215094   5.059   2.329   2.871  0.0530  0.6515 -0.4851
 5044TIP3   OH215095   3.039   4.249   2.835  0.1258  0.0638 -0.2752
 5044TIP3    H115096   3.069   4.299   2.910 -0.8350 -0.4179  0.4446
 5044TIP3    H215097   3.091   4.283   2.761 -0.8108  2.4659  0.0737
 5045TIP3   OH215098   4.576   5.019   3.622 -0.3104 -0.5439  0.2264
 5045TIP3    H115099   4.672   5.020   3.620  0.1019 -1.9500  5.4351
 5045TIP3    H215100   4.552   5.112   3.616  1.4842 -0.0094  0.6356
 5046TIP3   OH215101   2.861   2.808   4.187 -0.7232 -0.4847 -0.3626
 5046TIP3    H115102   2.778   2.855   4.193 -1.8584 -2.5064  1.2317
 5046TIP3    H215103   2.891   2.802   4.278  0.4908 -0.9313 -0.7760
 5047TIP3   OH215104   0.284   3.195   4.969 -0.4135 -0.1643  0.4105
 5047TIP3    H115105   0.303   3.106   4.997 -1.5214 -0.7274 -0.5336
 5047TIP3    H215106   0.254   3.240   5.048  3.2710  0.3997  1.6850
 5048TIP3   OH215107   7.144   1.610   5.080  0.1487 -0.2382 -0.1214
 5048TIP3    H115108   7.114   1.690   5.037  0.0657  0.5771  1.3898
 5048TIP3    H215109   7.227   1.590   5.038 -0.2935  0.0923 -1.1792
 5049TIP3   OH215110   4.604   1.367   2.105  0.0837  0.1924  0.3732
 5049TIP3    H115111   4.694   1.350   2.077 -0.0729  0.0028 -0.0392
 5049TIP3    H215112   4.577   1.287   2.150 -0.4710 -0.5037 -1.0900
 5050TIP3   OH215113   3.750   5.706   5.691  0.6822  0.0175  0.1711
 5050TIP3    H115114   3.696   5.630   5.714  0.9033 -0.1660  0.0758
 5050TIP3    H215115   3.723   5.774   5.754  0.5208 -0.1535  0.2870
 5051TIP3   OH215116   6.382   3.287   5.118 -0.1526 -0.0706 -0.0834
 5051TIP3    H115117   6.390   3.233   5.196 -0.4161 -0.5104 -0.3601
 5051TIP3    H215118   6.471   3.290   5.081  0.3326  1.4527  1.0863
 5052TIP3   OH215119   0.511   6.518   1.640 -0.4054 -0.0970  0.1693
 5052TIP3    H115120   0.478   6.430   1.621 -0.6588  0.3228 -1.4816
 5052TIP3    H215121   0.432   6.572   1.648 -0.3243 -0.2090  2.5341
 5053TIP3   OH215122   3.502   4.347   0.411 -0.4105 -0.0460 -0.4154
 5053TIP3    H115123   3.586   4.382   0.383  0.3744 -0.6104  1.1330
 5053TIP3    H215124   3.445   4.424   0.418  0.7362  0.7197  1.0551
 5054TIP3   OH215125   2.767   0.213   0.111 -0.4766 -0.1890  0.1828
 5054TIP3    H115126   2.813   0.297   0.104  0.0591 -0.5466 -0.6072
 5054TIP3    H215127   2.836   0.147   0.103 -0.4666 -0.7458  3.4248
 5055TIP3   OH215128   2.688   4.103   3.994 -0.3012  0.3510  0.2075
 5055TIP3    H115129   2.740   4.095   3.914 -0.1844 -0.0399  0.3225
 5055TIP3    H215130   2.654   4.015   4.010  0.5161  0.1901  1.1649
 5056TIP3   OH215131   6.917   0.629   4.131  0.1437  0.4862 -0.4681
 5056TIP3    H115132   6.877   0.547   4.102 -1.0147  0.9794 -0.3286
 5056TIP3    H215133   6.958   0.607   4.215  0.7138 -0.1763 -0.9094
 5057TIP3   OH215134   6.325   5.016   4.534 -0.5584  0.2593  0.1121
 5057TIP3    H115135   6.359   5.089   4.482 -0.5049 -0.0198 -0.2569
 5057TIP3    H215136   6.238   5.000   4.498 -1.2317  1.1903  1.2819
 5058TIP3   OH215137   5.019   2.984   3.557  0.0323  0.4279  0.3100
 5058TIP3    H115138   5.043   2.896   3.585  0.8334  0.3692 -0.4929
 5058TIP3    H215139   5.096   3.037   3.578 -0.0444  0.7269 -0.1398
 5059TIP3   OH215140   4.412   3.601   5.909  0.3921  0.0565  0.1345
 5059TIP3    H115141   4.418   3.630   5.818 -0.0465 -0.5032 -0.0805
 5059TIP3    H215142   4.419   3.505   5.904 -0.7415 -0.0652  0.5755
 5060TIP3   OH215143   5.958   5.294   3.541  0.1928  0.3509  0.2308
 5060TIP3    H115144   6.020   5.335   3.602  0.5884  0.0845  0.0098
 5060TIP3    H215145   5.941   5.362   3.476 -0.6951  0.8519  0.9466
 5061TIP3   OH215146   3.165   3.374   1.337  0.2310  0.5245 -0.4318
 5061TIP3    H115147   3.226   3.427   1.287 -0.8659 -0.8419 -3.4917
 5061TIP3    H215148   3.213   3.292   1.354  0.1322  0.4419 -0.5453
 5062TIP3   OH215149   7.064   6.314   2.710  0.5919  0.4001 -0.6270
 5062TIP3    H115150   7.118   6.357   2.643  0.8511 -0.2494 -0.8334
 5062TIP3    H215151   7.000   6.381   2.734  0.0886  0.4436 -1.9883
 5063TIP3   OH215152   4.271   1.381   4.197  0.0645 -0.0264  0.3934
 5063TIP3    H115153   4.309   1.467   4.215 -2.2845  1.1206  0.3048
 5063TIP3    H215154   4.257   1.380   4.103  1.9174 -1.3935  0.0797
 5064TIP3   OH215155   0.298   0.814   3.880 -0.2830  0.7905 -0.3082
 5064TIP3    H115156   0.348   0.734   3.897  0.7982  0.9586 -2.3480
 5064TIP3    H215157   0.207   0.788   3.895  0.1151 -0.5657 -0.0507
 5065TIP3   OH215158   2.094   2.327   4.256 -0.4201  0.1667 -0.0368
 5065TIP3    H115159   2.090   2.236   4.225 -1.0699  0.2524 -0.2204
 5065TIP3    H215160   2.161   2.326   4.325  1.2658  0.0292 -1.6166
 5066TIP3   OH215161   2.747   4.964   4.263 -0.5305 -0.0855 -0.4116
 5066TIP3    H115162   2.726   5.024   4.192  1.1864  1.3991  0.2626
 5066TIP3    H215163   2.784   5.019   4.332  1.8680 -1.9481 -0.0480
 5067TIP3   OH215164   2.774   3.092   1.550  0.1710 -0.6858 -0.0705
 5067TIP3    H115165   2.729   3.120   1.471  0.7255 -2.8056 -1.2201
 5067TIP3    H215166   2.842   3.158   1.564 -1.3986  0.9602  0.0080
 5068TIP3   OH215167   3.277   5.797   3.593 -0.3339  0.2073 -0.1641
 5068TIP3    H115168   3.334   5.816   3.668 -1.5466  2.2127  0.3468
 5068TIP3    H215169   3.216   5.731   3.626  0.7112 -0.8326 -0.2397
 5069TIP3   OH215170   7.010   2.501   5.223 -0.0732  0.1427  0.6329
 5069TIP3    H115171   6.974   2.553   5.294  2.3454 -0.0628  2.1362
 5069TIP3    H215172   6.975   2.413   5.237 -2.2854  0.7621 -0.5202
 5070TIP3   OH215173   5.409   1.963   5.439 -0.2222  0.0295 -0.5728
 5070TIP3    H115174   5.355   1.972   5.518 -0.5858  1.3297 -0.9560
 5070TIP3    H215175   5.350   1.985   5.367  0.0066 -1.4980 -1.2682
 5071TIP3   OH215176   7.225   3.698   2.689  0.1320 -0.2201 -0.3438
 5071TIP3    H115177   7.178   3.614   2.697  0.5557 -0.3201  1.7696
 5071TIP3    H215178   7.155   3.764   2.692 -0.0276 -0.4005  2.0199
 5072TIP3   OH215179   7.044   2.219   4.333  0.8097  0.3719 -0.1694
 5072TIP3    H115180   6.974   2.242   4.273 -0.0930 -0.0811  0.6819
 5072TIP3    H215181   7.103   2.294   4.330 -0.9577  1.9083  0.9121
 5073TIP3   OH215182   5.450   1.435   5.389  0.0041 -0.3130 -0.4671
 5073TIP3    H115183   5.454   1.394   5.476  0.5138 -0.3727 -0.5119
 5073TIP3    H215184   5.536   1.415   5.350  0.4185  1.1391 -0.3371
 5074TIP3   OH215185   2.727   1.215   4.181 -0.0407  0.4551  0.1868
 5074TIP3    H115186   2.747   1.122   4.168  0.5398  0.4650  0.9294
 5074TIP3    H215187   2.707   1.222   4.275  0.9211  1.2533  0.3434
 5075TIP3   OH215188   3.686   3.736   0.671 -0.2139  0.5982 -0.4922
 5075TIP3    H115189   3.772   3.777   0.659 -0.6610  1.4063 -1.0236
 5075TIP3    H215190   3.627   3.790   0.619 -1.1889  0.5425  0.5348
 5076TIP3   OH215191   2.741   2.822   2.804  0.1065 -0.2242 -1.0573
 5076TIP3    H115192   2.686   2.895   2.775  0.3810 -0.4341 -2.1437
 5076TIP3    H215193   2.702   2.795   2.888  0.5786  1.7632 -0.1310
 5077TIP3   OH215194   4.112   2.989   4.807 -0.1015 -0.2774 -0.3410
 5077TIP3    H115195   4.140   3.014   4.719 -0.4696 -2.8900 -1.2848
 5077TIP3    H215196   4.168   3.040   4.866  0.0421  1.6532 -2.0505
 5078TIP3   OH215197   2.769   3.320   3.778  0.0289  0.2503  0.0701
 5078TIP3    H115198   2.827   3.298   3.851 -0.8213 -1.8223  0.1901
 5078TIP3    H215199   2.799   3.264   3.706 -2.8130 -2.2562  0.6443
 5079TIP3   OH215200   3.023   2.538   2.464  0.4046  0.6206  0.1835
 5079TIP3    H115201   3.095   2.474   2.466  0.7559  0.9985 -0.1132
 5079TIP3    H215202   3.058   2.612   2.414  0.1388  1.2006  0.8242
 5080TIP3   OH215203   5.618   4.745   3.642 -0.0351  0.2317  0.5407
 5080TIP3    H115204   5.692   4.685   3.628 -0.3747 -0.4087  1.4168
 5080TIP3    H215205   5.657   4.832   3.636  0.2808  0.0014 -1.8160
 5081TIP3   OH215206   6.031   0.895   4.469 -0.0874 -0.2179 -0.3468
 5081TIP3    H115207   6.041   0.840   4.546 -0.2809 -0.8220 -0.7486
 5081TIP3    H215208   6.079   0.850   4.400  1.4935  1.1343 -0.2127
 5082TIP3   OH215209   4.771   4.170   3.469 -0.4981 -0.4831 -0.1850
 5082TIP3    H115210   4.699   4.162   3.407 -1.0551  3.0993 -0.2388
 5082TIP3    H215211   4.834   4.229   3.426  1.2898 -1.5056  0.8760
 5083TIP3   OH215212   2.262   0.407   5.086 -0.6353  0.1685  0.2563
 5083TIP3    H115213   2.171   0.437   5.098 -0.1985  0.9906  1.8981
 5083TIP3    H215214   2.315   0.483   5.109  0.4870 -0.4894 -0.0852
 5084TIP3   OH215215   5.787   3.581   0.255 -0.0727 -0.2173 -0.3679
 5084TIP3    H115216   5.749   3.636   0.187 -0.4909 -0.8339 -0.6380
 5084TIP3    H215217   5.717   3.569   0.319 -0.5752 -1.8463 -1.1585
 5085TIP3   OH215218   1.243   4.546   1.519 -0.0935  0.1538 -0.4144
 5085TIP3    H115219   1.303   4.509   1.454 -0.3640 -2.3933  0.6510
 5085TIP3    H215220   1.188   4.606   1.469 -1.4600 -2.9664 -3.0522
 5086TIP3   OH215221   0.574   1.763   2.066  0.5356 -0.6963 -0.4081
 5086TIP3    H115222   0.513   1.826   2.106  1.7388 -0.2823  0.8428
 5086TIP3    H215223   0.536   1.745   1.980 -0.0090  1.5583 -0.7182
 5087TIP3   OH215224   4.172   5.197   2.501 -0.2103  0.2585  0.0271
 5087TIP3    H115225   4.183   5.267   2.566 -0.2137  0.0736  0.2279
 5087TIP3    H215226   4.197   5.118   2.548  0.5156  0.2138 -0.4184
 5088TIP3   OH215227   1.877   5.617   1.789 -0.1473 -0.3481  0.4117
 5088TIP3    H115228   1.905   5.634   1.879 -0.8139  1.2829  0.3471
 5088TIP3    H215229   1.896   5.525   1.775  0.9523 -0.3816  1.8688
 5089TIP3   OH215230   4.106   2.756   0.154 -0.4214  0.0095  0.1830
 5089TIP3    H115231   4.111   2.788   0.064 -0.6712 -0.0911  0.1324
 5089TIP3    H215232   4.183   2.792   0.197 -0.6077  0.5369  0.0779
 5090TIP3   OH215233   3.283   3.040   5.875 -0.2296  0.0198 -0.5827
 5090TIP3    H115234   3.298   2.963   5.929 -0.6884 -0.5053 -1.1850
 5090TIP3    H215235   3.204   3.019   5.824 -0.8451  1.2124 -0.1631
 5091TIP3   OH215236   4.883   6.135   1.995 -0.0114  0.2302  0.0459
 5091TIP3    H115237   4.843   6.079   2.060 -0.2722  0.8153  0.3999
 5091TIP3    H215238   4.947   6.187   2.044  0.5656 -0.0943 -0.3605
 5092TIP3   OH215239   0.792   2.230   0.392  0.6407  0.4456 -0.9630
 5092TIP3    H115240   0.779   2.319   0.425 -1.5548  0.7912 -2.5440
 5092TIP3    H215241   0.734   2.175   0.444  0.9972  0.1410 -0.8783
 5093TIP3   OH215242   1.081   3.671   3.194 -0.0157 -0.0520  0.3010
 5093TIP3    H115243   1.058   3.699   3.106 -1.8437  1.0869  1.0956
 5093TIP3    H215244   1.017   3.603   3.215  0.5673 -0.4976  0.6948
 5094TIP3   OH215245   6.931   1.856   3.986 -0.1698 -0.5166 -0.0276
 5094TIP3    H115246   7.002   1.907   4.023 -0.8932  0.3345  0.2056
 5094TIP3    H215247   6.874   1.920   3.943 -1.4741 -1.0197  0.8907
 5095TIP3   OH215248   1.201   1.433   0.029  0.0852  0.1361  0.1326
 5095TIP3    H115249   1.253   1.376   0.087 -0.7026 -1.4951 -0.6931
 5095TIP3    H215250   1.137   1.475   0.087  0.8989  0.4763  0.8108
 5096TIP3   OH215251   6.224   4.089   2.043 -0.1592 -0.6294  0.9773
 5096TIP3    H115252   6.208   4.067   2.135  0.8777 -1.2580  1.0267
 5096TIP3    H215253   6.288   4.160   2.046 -0.2171 -0.5671  0.7414
 5097TIP3   OH215254   4.719   6.463   0.752 -0.1563 -0.3152 -0.1167
 5097TIP3    H115255   4.687   6.398   0.814 -2.0530  1.3805  0.7904
 5097TIP3    H215256   4.644   6.484   0.697  0.5310  0.7790 -0.6853
 5098TIP3   OH215257   6.610   5.566   1.170  0.4328 -0.0573  0.1539
 5098TIP3    H115258   6.597   5.472   1.165  1.5475 -0.2960  1.1164
 5098TIP3    H215259   6.523   5.602   1.188  0.2415 -1.0535  1.3403
 5099TIP3   OH215260   0.768   2.214   5.572 -0.2909  0.1825  0.0335
 5099TIP3    H115261   0.722   2.130   5.570 -0.5429  0.1978  2.4367
 5099TIP3    H215262   0.722   2.265   5.638  2.5078  0.5520  1.8643
 5100TIP3   OH215263   1.218   6.151   0.762  0.4779  0.2692  0.6293
 5100TIP3    H115264   1.294   6.160   0.705  0.1875 -1.9616 -0.1925
 5100TIP3    H215265   1.156   6.216   0.730  1.5002  1.2003  0.4641
 5101TIP3   OH215266   2.019   3.183   3.268 -0.0291 -0.6900 -0.0865
 5101TIP3    H115267   2.113   3.180   3.286 -0.0622 -0.5804  0.1065
 5101TIP3    H215268   1.994   3.274   3.284 -0.0133 -0.5251 -0.9310
 5102TIP3   OH215269   5.557   0.409   4.045 -0.8072  0.4695  0.2172
 5102TIP3    H115270   5.618   0.446   4.109 -2.4246  2.7581  0.5729
 5102TIP3    H215271   5.589   0.439   3.961  0.0295 -0.6079  0.1344
 5103TIP3   OH215272   0.595   6.713   5.093 -0.5435 -0.1962 -0.2589
 5103TIP3    H115273   0.648   6.750   5.163  1.4541 -0.6705 -1.4632
 5103TIP3    H215274   0.599   6.778   5.023 -2.0248 -0.0002 -0.1988
 5104TIP3   OH215275   2.653   4.017   1.063 -0.0341  0.2197 -0.2779
 5104TIP3    H115276   2.702   4.025   1.145 -1.5906  0.1635  0.7092
 5104TIP3    H215277   2.674   3.930   1.030  0.6217  0.2506  0.0534
 5105TIP3   OH215278   4.275   3.009   2.737 -0.0879 -0.2255 -0.1361
 5105TIP3    H115279   4.291   3.087   2.790  0.4662 -0.9704  0.8274
 5105TIP3    H215280   4.186   3.020   2.704  0.2598  1.1951 -0.7013
 5106TIP3   OH215281   0.187   0.796   0.829 -0.1181 -0.5194  0.5539
 5106TIP3    H115282   0.258   0.838   0.783 -0.2113 -1.7120 -0.7591
 5106TIP3    H215283   0.177   0.846   0.910  1.8294 -0.0014  0.5201
 5107TIP3   OH215284   6.697   1.999   4.288  0.1538 -0.1572  0.2091
 5107TIP3    H115285   6.743   2.071   4.245 -0.6837  0.9371  1.0895
 5107TIP3    H215286   6.766   1.935   4.308  0.9407  0.4766 -0.4263
 5108TIP3   OH215287   5.543   3.759   3.689  0.4948 -0.6278  0.5287
 5108TIP3    H115288   5.595   3.822   3.739  0.1984  0.5626 -0.6159
 5108TIP3    H215289   5.455   3.795   3.690  0.0617 -1.6486  0.8263
 5109TIP3   OH215290   4.375   5.774   1.035  0.0707 -0.6340  0.5938
 5109TIP3    H115291   4.410   5.838   0.974 -1.0221 -0.0785  0.5419
 5109TIP3    H215292   4.399   5.808   1.122  0.2790 -0.6354  0.5388
 5110TIP3   OH215293   3.935   4.879   4.387 -0.0739 -0.5245  0.2268
 5110TIP3    H115294   3.877   4.909   4.316  1.4872 -1.7046 -1.6456
 5110TIP3    H215295   3.953   4.788   4.367  1.2134 -0.6192  1.6202
 5111TIP3   OH215296   5.698   2.420   3.965 -0.1229 -0.0339 -0.2384
 5111TIP3    H115297   5.673   2.335   3.929  0.1559 -0.6249  0.9131
 5111TIP3    H215298   5.617   2.455   4.001  0.6313 -2.5677  4.7624
 5112TIP3   OH215299   3.749   3.926   2.062  0.0023 -0.4923 -0.0407
 5112TIP3    H115300   3.687   3.961   1.999  1.5275  0.8332 -0.8809
 5112TIP3    H215301   3.787   3.850   2.018  0.1707 -0.3038 -0.2251
 5113TIP3   OH215302   2.020   0.658   2.039  0.1395 -0.2022  0.4254
 5113TIP3    H115303   1.959   0.725   2.071 -0.6743 -0.7371  0.0544
 5113TIP3    H215304   2.106   0.699   2.042 -0.2331  0.5554  1.0320
 5114TIP3   OH215305   6.829   5.596   1.328 -0.0548  0.2977  0.3051
 5114TIP3    H115306   6.775   5.612   1.251  1.7156  2.1784 -0.6599
 5114TIP3    H215307   6.882   5.519   1.305  0.1267  0.5637 -0.1770
 5115TIP3   OH215308   3.986   2.552   3.930  0.1018 -0.3935 -0.5680
 5115TIP3    H115309   4.046   2.490   3.890  0.6232  0.0461 -0.4685
 5115TIP3    H215310   3.901   2.507   3.929 -0.0328 -0.1881 -2.6797
 5116TIP3   OH215311   2.403   4.027   1.223 -0.2162 -0.1184 -0.3385
 5116TIP3    H115312   2.416   3.955   1.285  3.5545  2.2936  2.0790
 5116TIP3    H215313   2.458   4.004   1.148  2.4379  0.8161  1.1783
 5117TIP3   OH215314   0.142   6.106   0.787  0.3693  0.4748 -0.0126
 5117TIP3    H115315   0.158   6.111   0.881  1.8732  1.0772 -0.2714
 5117TIP3    H215316   0.046   6.110   0.778  0.2643  2.4009  1.3974
 5118TIP3   OH215317   5.679   4.239   3.844  0.0799 -0.0531 -0.1852
 5118TIP3    H115318   5.634   4.252   3.927  0.6183 -1.0489  0.2811
 5118TIP3    H215319   5.771   4.255   3.864  0.2989 -0.9595 -0.4180
 5119TIP3   OH215320   3.718   4.980   1.078 -0.0437 -0.3173  0.6543
 5119TIP3    H115321   3.679   5.067   1.087 -0.0966 -0.5187  2.9603
 5119TIP3    H215322   3.744   4.975   0.986  0.1018  2.1877  0.4752
 5120TIP3   OH215323   2.400   1.197   5.363 -0.1921 -0.2642  0.1168
 5120TIP3    H115324   2.354   1.209   5.446 -1.3234  1.4735 -0.7045
 5120TIP3    H215325   2.359   1.120   5.325  1.0547 -1.7231  1.5872
 5121TIP3   OH215326   0.164   3.368   1.524 -0.0104 -0.0066  0.3251
 5121TIP3    H115327   0.121   3.334   1.446  0.8205  0.4437 -0.3603
 5121TIP3    H215328   0.131   3.458   1.532 -0.4189 -0.1956  0.7399
 5122TIP3   OH215329   5.147   3.552   2.813 -0.2147 -0.2966 -0.5172
 5122TIP3    H115330   5.185   3.554   2.726  0.6064  0.3625 -0.1674
 5122TIP3    H215331   5.222   3.551   2.872 -0.7343  0.3852  0.1906
 5123TIP3   OH215332   0.810   0.923   4.589  0.1314 -0.2031 -0.4643
 5123TIP3    H115333   0.839   0.976   4.514  2.0602  1.9142  1.5847
 5123TIP3    H215334   0.760   0.984   4.643  1.4240 -0.7381  1.4326
 5124TIP3   OH215335   4.704   2.239   2.747  0.1782 -0.2584 -0.0349
 5124TIP3    H115336   4.610   2.252   2.755  0.4504  2.2144 -0.1238
 5124TIP3    H215337   4.723   2.164   2.803 -1.8206 -0.7280  0.0586
 5125TIP3   OH215338   4.548   3.378   2.002  0.8992  0.2187 -0.0922
 5125TIP3    H115339   4.551   3.467   2.038 -0.1566  0.7686 -1.2893
 5125TIP3    H215340   4.616   3.376   1.935  1.2685 -0.0479  0.2859
 5126TIP3   OH215341   2.256   5.253   3.226 -0.6255 -0.4402  0.3868
 5126TIP3    H115342   2.346   5.277   3.247 -0.3444 -1.9244  0.9998
 5126TIP3    H215343   2.204   5.287   3.299 -0.3548 -0.8990  0.7964
 5127TIP3   OH215344   2.230   2.167   5.714  0.1346 -0.3875  0.5938
 5127TIP3    H115345   2.166   2.203   5.776 -0.5028 -0.9673  0.2822
 5127TIP3    H215346   2.285   2.242   5.691  1.1956 -0.4105  2.8229
 5128TIP3   OH215347   5.491   5.288   2.097  0.1092 -0.2330 -0.4266
 5128TIP3    H115348   5.490   5.352   2.167  0.4805 -1.1178  0.4128
 5128TIP3    H215349   5.531   5.333   2.023  3.1922 -0.3557  1.0351
 5129TIP3   OH215350   5.922   4.980   2.944  0.0906  0.3921  0.0549
 5129TIP3    H115351   5.906   5.049   2.880 -0.1909  1.0090  0.7641
 5129TIP3    H215352   5.840   4.931   2.948  0.4964 -0.3837 -0.9047
 5130TIP3   OH215353   0.133   2.597   4.842  0.2065 -0.1249 -0.2816
 5130TIP3    H115354   0.179   2.608   4.759  1.0162 -1.3729 -0.0343
 5130TIP3    H215355   0.052   2.553   4.819 -0.8337  1.9037 -0.6968
 5131TIP3   OH215356   6.190   0.808   5.277  0.1192 -0.4669 -0.0098
 5131TIP3    H115357   6.125   0.749   5.315  0.4904 -0.2247  1.0213
 5131TIP3    H215358   6.142   0.888   5.258  0.2354 -0.0427  1.3813
 5132TIP3   OH215359   2.547   6.698   5.548 -0.4849  0.0483  0.9252
 5132TIP3    H115360   2.516   6.677   5.460  0.6054 -0.3567  0.6246
 5132TIP3    H215361   2.642   6.691   5.542 -0.2175  2.2929  1.5493
 5133TIP3   OH215362   1.594   2.720   4.525 -0.4712  0.3083  0.4326
 5133TIP3    H115363   1.569   2.792   4.467 -2.3742 -0.9360 -0.3722
 5133TIP3    H215364   1.542   2.734   4.604 -1.0700 -0.3459  0.1564
 5134TIP3   OH215365   5.237   0.088   0.947  0.1804  0.1072 -0.0781
 5134TIP3    H115366   5.183   0.155   0.990 -0.0990 -0.7622  0.9653
 5134TIP3    H215367   5.325   0.105   0.980  0.0863 -0.1251  0.2921
 5135TIP3   OH215368   4.939   4.238   2.408 -0.0032 -0.6214  0.0471
 5135TIP3    H115369   4.907   4.299   2.341 -1.7959  0.0294  1.4056
 5135TIP3    H215370   5.000   4.291   2.460  0.8108 -0.9097 -0.5964
 5136TIP3   OH215371   0.319   6.773   5.286 -0.2312  0.4096 -0.0922
 5136TIP3    H115372   0.247   6.718   5.317  0.6038  0.2603  1.7592
 5136TIP3    H215373   0.363   6.721   5.220 -1.9005  0.5878 -1.4210
 5137TIP3   OH215374   5.173   5.385   4.674 -0.3078 -0.4526 -0.1700
 5137TIP3    H115375   5.148   5.292   4.678  0.4901 -0.6387  0.8675
 5137TIP3    H215376   5.096   5.428   4.635 -0.4208 -1.6228 -1.3368
 5138TIP3   OH215377   5.769   0.595   0.767 -0.0135  0.3171  0.1565
 5138TIP3    H115378   5.798   0.541   0.840 -2.1766 -1.5249 -0.2447
 5138TIP3    H215379   5.768   0.684   0.802  0.5231 -0.3067  1.8488
 5139TIP3   OH215380   6.217   4.497   1.374 -0.2269  0.0754 -0.2480
 5139TIP3    H115381   6.285   4.434   1.394  0.2118  0.7943  0.5763
 5139TIP3    H215382   6.255   4.553   1.306  0.2410  0.8348  0.6209
 5140TIP3   OH215383   4.262   2.428   0.121  0.2619  0.6032 -0.3428
 5140TIP3    H115384   4.191   2.441   0.057  1.7862 -1.7914 -2.7626
 5140TIP3    H215385   4.320   2.502   0.107 -0.1728  0.8947 -0.6494
 5141TIP3   OH215386   1.044   0.561   2.496  0.5678  0.1830  0.0723
 5141TIP3    H115387   0.948   0.560   2.501  0.6181 -0.2978  1.3720
 5141TIP3    H215388   1.063   0.570   2.402 -0.7423  0.4027 -0.1924
 5142TIP3   OH215389   0.146   3.404   2.826 -0.2677 -0.3470  0.1164
 5142TIP3    H115390   0.146   3.312   2.851 -1.4822 -0.5953 -0.7046
 5142TIP3    H215391   0.053   3.428   2.825  0.0728  1.1855  1.3531
 5143TIP3   OH215392   0.240   4.055   3.425 -0.4577 -0.0906  0.1670
 5143TIP3    H115393   0.171   4.005   3.469  0.1920  0.0211  1.3698
 5143TIP3    H215394   0.319   4.035   3.475  0.2750  0.2299 -0.8427
 5144TIP3   OH215395   5.307   5.322   2.373 -0.7267 -0.0944 -0.3775
 5144TIP3    H115396   5.295   5.276   2.290  0.4183  0.5934 -0.9532
 5144TIP3    H215397   5.284   5.413   2.354  0.1154  0.1859 -0.1245
 5145TIP3   OH215398   2.540   2.084   5.063 -0.1804  0.1863 -0.1327
 5145TIP3    H115399   2.612   2.023   5.080 -1.0014 -1.2053 -1.4317
 5145TIP3    H215400   2.461   2.032   5.073 -1.1559  1.9190  2.2703
 5146TIP3   OH215401   4.752   2.811   1.091  0.0143  0.4718  0.4143
 5146TIP3    H115402   4.789   2.888   1.049 -0.1304 -0.1820 -0.9609
 5146TIP3    H215403   4.659   2.832   1.103 -0.4630 -0.2011 -1.7751
 5147TIP3   OH215404   3.850   1.267   0.617 -0.3280 -0.3853 -0.5454
 5147TIP3    H115405   3.866   1.361   0.607  0.3857 -0.3298  0.9030
 5147TIP3    H215406   3.834   1.255   0.711 -0.9829 -1.6339 -0.7936
 5148TIP3   OH215407   0.658   0.461   3.698 -0.4177 -0.4595 -0.2402
 5148TIP3    H115408   0.745   0.493   3.671  0.9537 -4.2728 -1.0303
 5148TIP3    H215409   0.668   0.441   3.791 -0.9062  0.3983 -0.0031
 5149TIP3   OH215410   2.599   6.422   2.243 -0.0901  0.4436  0.1961
 5149TIP3    H115411   2.554   6.337   2.246 -2.8706  1.7718 -0.9198
 5149TIP3    H215412   2.557   6.474   2.311 -0.0332  1.6357 -0.6438
 5150TIP3   OH215413   4.678   5.598   4.527 -0.3086 -0.1661  0.9746
 5150TIP3    H115414   4.671   5.508   4.559 -1.8103 -0.8993 -1.1986
 5150TIP3    H215415   4.587   5.626   4.513  0.1899  0.9853 -0.2202
 5151TIP3   OH215416   6.741   1.697   3.352  0.3542 -0.7059  0.3082
 5151TIP3    H115417   6.819   1.717   3.301  0.3832  0.7050  0.8602
 5151TIP3    H215418   6.772   1.637   3.420  1.3028  0.9482  1.3937
 5152TIP3   OH215419   2.110   0.240   1.343 -0.7394  0.1944 -0.3252
 5152TIP3    H115420   2.156   0.158   1.322 -2.8295 -0.9411 -0.8107
 5152TIP3    H215421   2.179   0.301   1.366  1.0515 -1.1806 -1.7250
 5153TIP3   OH215422   1.507   0.864   2.366 -0.0267  0.8991  0.0001
 5153TIP3    H115423   1.519   0.886   2.458 -1.3080  1.1440  0.1181
 5153TIP3    H215424   1.520   0.769   2.361  1.9478  1.1069  0.0808
 5154TIP3   OH215425   0.307   5.938   3.281 -0.1812 -0.6939  0.6033
 5154TIP3    H115426   0.318   6.007   3.346 -0.0682 -0.9976  0.9047
 5154TIP3    H215427   0.367   5.963   3.210 -0.5230 -0.2058  0.4760
 5155TIP3   OH215428   6.175   6.448   0.269 -0.2791 -0.0497  0.1698
 5155TIP3    H115429   6.212   6.513   0.330 -0.6790  1.6280 -1.2924
 5155TIP3    H215430   6.089   6.427   0.307 -0.5820  1.0714  0.1541
 5156TIP3   OH215431   2.365   2.117   5.369 -0.0421  0.0188 -0.2844
 5156TIP3    H115432   2.270   2.112   5.358 -0.2875 -0.0053  1.5765
 5156TIP3    H215433   2.388   2.038   5.419  1.0581 -0.2998 -1.2434
 5157TIP3   OH215434   6.691   5.257   3.530 -0.1812 -0.6260  0.2189
 5157TIP3    H115435   6.699   5.250   3.435  0.2959  2.0601  0.0010
 5157TIP3    H215436   6.776   5.289   3.559 -0.4631 -0.9951  1.5233
 5158TIP3   OH215437   0.275   4.835   5.527  0.5291 -0.2536  0.5932
 5158TIP3    H115438   0.279   4.777   5.451 -0.5420 -1.4625  1.4133
 5158TIP3    H215439   0.362   4.873   5.533  0.8388 -0.6582 -0.8225
 5159TIP3   OH215440   6.789   2.397   3.905 -0.2126 -0.2837 -0.6740
 5159TIP3    H115441   6.789   2.489   3.931  0.9746 -0.8919  1.6785
 5159TIP3    H215442   6.697   2.371   3.910 -0.3229  0.2768  0.6476
 5160TIP3   OH215443   0.170   0.186   3.253 -0.2745 -0.6992 -0.1958
 5160TIP3    H115444   0.213   0.268   3.229 -0.4315 -0.9021 -1.2595
 5160TIP3    H215445   0.084   0.190   3.211  0.8654 -2.7018 -3.1116
 5161TIP3   OH215446   3.268   3.646   5.316  0.2078 -1.0885 -0.4251
 5161TIP3    H115447   3.236   3.556   5.308 -0.9474 -0.6468 -0.9979
 5161TIP3    H215448   3.202   3.690   5.370  1.2238 -0.7909  0.6289
 5162TIP3   OH215449   4.763   4.897   2.225  0.0114  0.1637  0.3779
 5162TIP3    H115450   4.762   4.964   2.157 -0.7141 -0.9694 -0.7817
 5162TIP3    H215451   4.819   4.933   2.294  0.0303  1.7308 -0.4167
 5163TIP3   OH215452   3.037   5.437   4.796  0.6373 -0.0308  0.2940
 5163TIP3    H115453   2.972   5.461   4.862 -0.1204 -0.1165 -0.4021
 5163TIP3    H215454   3.089   5.369   4.837 -0.4302 -0.7620  0.4707
 5164TIP3   OH215455   7.052   0.441   2.257 -0.2039  0.3384 -0.5081
 5164TIP3    H115456   6.979   0.503   2.265 -0.4253 -0.0835  1.0188
 5164TIP3    H215457   7.016   0.368   2.206 -0.6773  0.4173 -0.2941
 5165TIP3   OH215458   7.160   5.302   3.914  0.2024  0.1407 -0.1282
 5165TIP3    H115459   7.083   5.343   3.874 -0.5730  0.1897  1.3571
 5165TIP3    H215460   7.203   5.373   3.961 -0.5902 -0.4695  1.6173
 5166TIP3   OH215461   3.231   5.435   2.005 -0.0001  0.1954  0.1265
 5166TIP3    H115462   3.246   5.375   1.932 -0.1077 -0.3942  0.5823
 5166TIP3    H215463   3.137   5.453   2.002 -0.1964 -0.6459  0.7282
 5167TIP3   OH215464   6.812   5.799   3.664 -0.0675 -0.2048 -0.2894
 5167TIP3    H115465   6.733   5.799   3.718 -0.3086  0.2914 -0.6416
 5167TIP3    H215466   6.787   5.752   3.585  1.3198 -4.3996  1.4776
 5168TIP3   OH215467   1.996   5.767   0.676  0.0349  0.3465  0.4989
 5168TIP3    H115468   1.957   5.692   0.630 -0.4750  0.5946  0.5222
 5168TIP3    H215469   2.065   5.797   0.617 -0.1893  0.2614  0.1864
 5169TIP3   OH215470   6.454   6.769   2.157  0.3293 -0.3693 -0.3188
 5169TIP3    H115471   6.376   6.732   2.198 -0.2231  0.9729 -0.1173
 5169TIP3    H215472   6.441   6.756   2.063  0.3049 -0.9940 -0.2290
 5170TIP3   OH215473   5.719   2.782   3.058  0.1982  0.2556 -0.3009
 5170TIP3    H115474   5.637   2.764   3.011 -1.7975 -0.5446  3.1675
 5170TIP3    H215475   5.738   2.701   3.105  1.8864  1.0793  0.5170
 5171TIP3   OH215476   5.956   1.474   0.268  0.2594  0.2302 -0.6559
 5171TIP3    H115477   5.885   1.532   0.242 -0.4553  0.4506  1.5721
 5171TIP3    H215478   5.952   1.401   0.206 -1.8318  0.3099 -0.6650
 5172TIP3   OH215479   5.491   2.442   4.992 -0.4190 -0.2165 -0.2403
 5172TIP3    H115480   5.410   2.491   4.983 -0.3487 -0.1565 -0.5621
 5172TIP3    H215481   5.492   2.413   5.083  0.2751  1.6675  0.4065
 5173TIP3   OH215482   2.067   1.211   3.782 -0.2508  0.8282  0.1013
 5173TIP3    H115483   2.081   1.277   3.714  1.3735 -0.4649 -0.8778
 5173TIP3    H215484   2.143   1.220   3.840  1.1775 -1.5522 -1.2658
 5174TIP3   OH215485   1.993   3.925   5.148 -0.1484  0.5227  0.1638
 5174TIP3    H115486   2.081   3.887   5.155 -0.2778  0.5784  2.7696
 5174TIP3    H215487   1.936   3.850   5.130  0.3264  0.4276 -1.0832
 5175TIP3   OH215488   6.301   6.462   3.004  0.3039 -0.3242 -0.5021
 5175TIP3    H115489   6.232   6.512   3.048  0.1593 -0.0096 -1.0835
 5175TIP3    H215490   6.346   6.416   3.076 -0.6109 -0.6688 -0.1320
 5176TIP3   OH215491   6.327   4.596   4.640 -0.3328  0.3596 -0.0240
 5176TIP3    H115492   6.367   4.596   4.727 -0.4694 -0.5093  0.0385
 5176TIP3    H215493   6.307   4.505   4.621  1.5367  0.2431 -1.8250
 5177TIP3   OH215494   3.648   1.009   4.512  0.4466  0.3729  0.2208
 5177TIP3    H115495   3.608   1.028   4.427 -1.1972  2.3067  1.3518
 5177TIP3    H215496   3.628   0.917   4.528 -0.8793  0.4822 -0.6534
 5178TIP3   OH215497   2.114   5.001   4.322  0.2940 -0.1939 -0.2835
 5178TIP3    H115498   2.031   5.014   4.368  0.1907  0.9349 -0.7394
 5178TIP3    H215499   2.143   5.090   4.301  2.5522 -0.4416  1.4452
 5179TIP3   OH215500   2.188   1.687   4.364 -0.0909 -0.0178  0.1652
 5179TIP3    H115501   2.133   1.663   4.290  0.2453 -0.9390  0.2082
 5179TIP3    H215502   2.128   1.733   4.424 -1.3140 -2.6115  1.0690
 5180TIP3   OH215503   1.364   4.180   0.866  0.7459  0.2156 -0.7173
 5180TIP3    H115504   1.391   4.115   0.930  1.6706 -0.1277 -1.4302
 5180TIP3    H215505   1.296   4.137   0.814 -1.2620  1.0594  1.0400
 5181TIP3   OH215506   5.926   6.238   2.828  0.1493  0.3693  0.1540
 5181TIP3    H115507   5.910   6.153   2.869  0.3077  0.9820  1.5480
 5181TIP3    H215508   6.018   6.235   2.800  0.1469  0.0714  0.1811
 5182TIP3   OH215509   0.541   5.642   3.914  0.4066  0.4978 -0.5620
 5182TIP3    H115510   0.544   5.614   4.005 -1.2632  0.5879 -0.4499
 5182TIP3    H215511   0.448   5.640   3.891  0.8499 -0.3158 -2.5160
 5183TIP3   OH215512   2.090   2.001   3.796 -0.2183  0.0988  0.2279
 5183TIP3    H115513   2.061   2.077   3.747  1.0670  0.7842  0.4876
 5183TIP3    H215514   2.162   1.965   3.744 -0.0133 -0.2134  0.7209
 5184TIP3   OH215515   7.046   3.804   5.726 -0.4478  0.8324  0.3118
 5184TIP3    H115516   6.976   3.740   5.740 -1.2272  1.5868 -0.0630
 5184TIP3    H215517   7.067   3.837   5.813  0.0723 -0.0396  0.5249
 5185TIP3   OH215518   3.088   2.969   5.698 -0.0058 -0.2286  0.4954
 5185TIP3    H115519   3.016   2.966   5.636 -1.6266 -2.0885  2.3493
 5185TIP3    H215520   3.166   2.985   5.643 -1.6337  0.8724 -1.6531
 5186TIP3   OH215521   3.829   5.263   0.295  0.2063 -0.1767 -0.3915
 5186TIP3    H115522   3.881   5.187   0.271 -0.7772 -0.4367 -1.7858
 5186TIP3    H215523   3.797   5.298   0.212 -0.3990  1.0125  0.3092
 5187TIP3   OH215524   5.050   2.342   2.072 -0.1519 -0.1324  0.5349
 5187TIP3    H115525   5.133   2.385   2.094 -0.0721 -0.1441  0.2685
 5187TIP3    H215526   5.010   2.322   2.156 -0.2889  0.6625  0.6691
 5188TIP3   OH215527   0.627   2.402   3.358  0.0777 -0.4404 -0.6104
 5188TIP3    H115528   0.679   2.456   3.418 -1.9236  0.9177 -0.0292
 5188TIP3    H215529   0.540   2.400   3.396 -0.7213 -1.3399 -2.3810
 5189TIP3   OH215530   6.612   1.931   5.310 -0.6683 -0.1336 -0.4950
 5189TIP3    H115531   6.597   1.899   5.221 -1.1081 -0.4410 -0.3142
 5189TIP3    H215532   6.581   2.021   5.310 -0.0314  0.0937 -0.8330
 5190TIP3   OH215533   1.841   3.695   0.071 -0.6512  0.1997  0.0039
 5190TIP3    H115534   1.803   3.723  -0.013 -1.6127  2.7970  1.1947
 5190TIP3    H215535   1.935   3.689   0.055 -0.9995 -1.3170 -1.7303
 5191TIP3   OH215536   4.989   4.404   5.606 -1.0207 -0.0715  0.3671
 5191TIP3    H115537   5.026   4.334   5.552  2.5982  0.0278  2.3995
 5191TIP3    H215538   4.976   4.477   5.546  0.3537 -0.7873 -0.8634
 5192TIP3   OH215539   0.488   2.278   5.422  0.0344  0.1565 -0.2062
 5192TIP3    H115540   0.430   2.211   5.458  0.0666 -0.1545 -0.7162
 5192TIP3    H215541   0.457   2.360   5.460 -1.3297  0.1164 -1.1577
 5193TIP3   OH215542   3.199   0.186   3.827 -0.8997 -0.3356  0.5471
 5193TIP3    H115543   3.107   0.189   3.800 -0.9216 -0.6645  0.5906
 5193TIP3    H215544   3.204   0.116   3.892 -0.6721 -0.1332  0.7510
 5194TIP3   OH215545   1.688   6.711   3.701 -0.0497  0.4941 -0.3182
 5194TIP3    H115546   1.683   6.705   3.796  0.7858 -1.7286 -0.3595
 5194TIP3    H215547   1.598   6.695   3.671 -0.3380  1.3228  0.0880
 5195TIP3   OH215548   7.209   4.729   3.265  0.3645 -0.1420 -0.1078
 5195TIP3    H115549   7.170   4.654   3.310 -0.8152  0.2246 -0.4935
 5195TIP3    H215550   7.138   4.793   3.258  0.6641  0.0378 -1.9933
 5196TIP3   OH215551   4.242   1.705   2.212  0.4512  0.1307  0.4794
 5196TIP3    H115552   4.249   1.770   2.282 -1.6680 -0.4314  1.2857
 5196TIP3    H215553   4.183   1.745   2.148  1.5393  0.2010 -0.5280
 5197TIP3   OH215554   0.980   1.961   3.673 -0.0775 -0.1491  0.0728
 5197TIP3    H115555   1.019   1.885   3.716 -0.8879  0.2568  1.6112
 5197TIP3    H215556   1.036   2.034   3.699 -0.5122  0.0867  0.3461
 5198TIP3   OH215557   4.393   3.689   3.562 -0.4499 -0.2610  0.4201
 5198TIP3    H115558   4.422   3.613   3.612 -0.2804  0.2923  1.1938
 5198TIP3    H215559   4.435   3.679   3.476 -0.1928 -0.8805  0.6128
 5199TIP3   OH215560   4.771   1.834   0.126  0.2536  0.4051 -0.0351
 5199TIP3    H115561   4.810   1.870   0.205 -0.1208  0.6302  0.0493
 5199TIP3    H215562   4.803   1.744   0.123  0.3828  0.4377  0.2989
 5200TIP3   OH215563   0.016   1.136   3.744  0.0721 -0.6129 -0.5455
 5200TIP3    H115564   0.093   1.168   3.697  0.4594 -2.5857 -1.3691
 5200TIP3    H215565  -0.058   1.172   3.696  0.4749  0.3349 -0.4697
 5201TIP3   OH215566   4.964   0.369   4.254 -0.1144 -0.3731  0.6898
 5201TIP3    H115567   4.933   0.296   4.200  1.7544 -0.3404 -0.5269
 5201TIP3    H215568   4.978   0.330   4.340  0.1028 -1.2836  0.2582
 5202TIP3   OH215569   4.463   6.780   0.387  0.3418  0.4419 -0.0559
 5202TIP3    H115570   4.485   6.856   0.333  0.7814 -0.6217 -1.4103
 5202TIP3    H215571   4.453   6.708   0.325 -1.1178 -0.4021  1.0988
 5203TIP3   OH215572   3.821   1.986   3.112  0.5119 -0.0561 -0.1860
 5203TIP3    H115573   3.898   1.931   3.101 -0.3332 -1.6200  1.2347
 5203TIP3    H215574   3.747   1.926   3.110 -0.4507  0.9687  1.5131
 5204TIP3   OH215575   3.526   4.385   3.936 -0.0645  0.4539  0.1971
 5204TIP3    H115576   3.471   4.338   3.998 -0.5294  0.3686 -0.2788
 5204TIP3    H215577   3.512   4.341   3.852  0.0939  0.9520 -0.0965
 5205TIP3   OH215578   3.252   5.893   4.732 -0.8163  0.2455 -0.0340
 5205TIP3    H115579   3.315   5.924   4.668 -0.4248  0.9207  0.6565
 5205TIP3    H215580   3.171   5.883   4.683  0.1430 -2.0838 -1.2762
 5206TIP3   OH215581   4.517   5.985   0.910 -0.1015 -0.3137 -0.2281
 5206TIP3    H115582   4.584   5.966   0.845 -0.8310 -1.2193 -0.7490
 5206TIP3    H215583   4.541   6.071   0.946  0.0290  0.4664 -2.0738
 5207TIP3   OH215584   6.720   3.661   2.536 -0.2903 -0.2311 -0.4108
 5207TIP3    H115585   6.728   3.715   2.614 -0.0457  0.6991 -1.0563
 5207TIP3    H215586   6.704   3.573   2.569  0.2361  0.0659  0.6864
 5208TIP3   OH215587   4.689   0.125   0.076  0.2192 -0.3553  0.4775
 5208TIP3    H115588   4.640   0.198   0.113  5.0712  3.4317  0.4544
 5208TIP3    H215589   4.652   0.112  -0.011 -1.7378  0.9748  1.0504
 5209TIP3   OH215590   2.007   3.187   1.060 -0.2627  0.1620 -0.2812
 5209TIP3    H115591   2.017   3.260   0.999 -1.2343  0.8498  0.3440
 5209TIP3    H215592   2.092   3.143   1.059  0.0103  0.6680 -1.4639
 5210TIP3   OH215593   1.472   1.010   3.268  0.1588 -0.2450 -0.7755
 5210TIP3    H115594   1.470   0.941   3.335  0.3363 -0.9465 -1.4721
 5210TIP3    H215595   1.526   1.079   3.306 -0.3075 -0.3359  0.0793
 5211TIP3   OH215596   0.305   6.098   3.492  0.3302 -0.3009  0.2161
 5211TIP3    H115597   0.210   6.091   3.492  0.1858  1.1554  1.1551
 5211TIP3    H215598   0.332   6.071   3.580  0.6756  0.2275  0.2824
 5212TIP3   OH215599   5.722   5.443   4.921  0.1271 -0.3082 -0.4674
 5212TIP3    H115600   5.686   5.409   4.839  0.0342  0.6276 -0.8265
 5212TIP3    H215601   5.654   5.426   4.987 -0.9740  1.3539 -1.1150
 5213TIP3   OH215602   0.742   2.981   5.320  0.2187  0.0679  0.4547
 5213TIP3    H115603   0.651   2.976   5.352  0.3044  1.6096  1.0002
 5213TIP3    H215604   0.795   2.952   5.394  0.2524  0.8663  0.7559
 5214TIP3   OH215605   2.938   4.907   2.532  0.1618  0.0157  0.0366
 5214TIP3    H115606   2.897   4.869   2.610  1.7809 -1.8927  0.0390
 5214TIP3    H215607   2.943   4.834   2.470  0.9077  0.9433 -1.0327
 5215TIP3   OH215608   6.974   2.786   1.209 -0.2249 -0.0195 -1.1375
 5215TIP3    H115609   6.935   2.744   1.287 -0.8070  0.7515 -0.9979
 5215TIP3    H215610   7.068   2.779   1.223 -0.3208 -0.1409 -0.4896
 5216TIP3   OH215611   6.138   6.130   0.649  0.0134  0.4301  0.3791
 5216TIP3    H115612   6.102   6.213   0.680 -1.1832 -0.0867  0.4325
 5216TIP3    H215613   6.093   6.114   0.566  0.7492  0.1796  0.0293
 5217TIP3   OH215614   1.407   2.749   0.831 -0.0172 -0.0238  0.0782
 5217TIP3    H115615   1.443   2.663   0.809  0.3764  0.2598 -0.4070
 5217TIP3    H215616   1.480   2.809   0.817 -0.9063  0.6855 -1.7623
 5218TIP3   OH215617   4.995   3.555   5.583 -0.0239 -0.3450  0.4845
 5218TIP3    H115618   4.974   3.532   5.674 -0.5426 -1.2795  0.1436
 5218TIP3    H215619   4.966   3.479   5.532  2.0366 -0.6977 -0.2577
 5219TIP3   OH215620   6.197   5.971   3.876  0.0286 -0.2439  0.1702
 5219TIP3    H115621   6.275   5.994   3.825  0.3390  0.5219  0.9744
 5219TIP3    H215622   6.231   5.934   3.957 -0.4105  0.8451  0.8775
 5220TIP3   OH215623   4.060   5.047   2.873 -0.2124 -0.1736 -0.1521
 5220TIP3    H115624   4.000   4.981   2.839  1.5870 -1.4855 -1.0046
 5220TIP3    H215625   4.136   5.042   2.815  2.2446 -1.1412  2.8511
 5221TIP3   OH215626   6.708   3.936   4.383  0.2150 -0.1561  0.5148
 5221TIP3    H115627   6.721   3.939   4.289 -0.4085 -0.4227  0.4102
 5221TIP3    H215628   6.692   3.843   4.402 -1.7809  0.1527  0.5550
 5222TIP3   OH215629   3.530   3.302   1.744  0.0903 -0.0944  0.2808
 5222TIP3    H115630   3.542   3.329   1.835  0.9016 -0.8659  0.4214
 5222TIP3    H215631   3.551   3.380   1.693 -0.8350  0.4884  0.7508
 5223TIP3   OH215632   6.204   0.640   2.828 -0.6191 -0.2309  0.5024
 5223TIP3    H115633   6.266   0.587   2.878 -1.2591 -0.5109  1.0025
 5223TIP3    H215634   6.195   0.593   2.745  0.5982  0.3426  0.0070
 5224TIP3   OH215635   2.467   4.363   0.565  0.7630 -0.3249  0.2836
 5224TIP3    H115636   2.419   4.298   0.514 -1.2789  1.6845 -0.5512
 5224TIP3    H215637   2.428   4.358   0.653 -0.3885  0.6045 -0.1325
 5225TIP3   OH215638   0.599   2.023   0.980  0.2632  0.3777  0.2239
 5225TIP3    H115639   0.614   1.937   0.940 -0.9431  0.4292 -0.3859
 5225TIP3    H215640   0.565   2.077   0.909  0.3415  1.1631  0.7717
 5226TIP3   OH215641   3.336   6.034   0.781 -0.4569  0.9431  0.0917
 5226TIP3    H115642   3.258   6.074   0.819 -1.2770  1.3880 -1.9411
 5226TIP3    H215643   3.377   6.103   0.729  0.4413  0.2798 -0.1229
 5227TIP3   OH215644   1.303   6.806   4.154  0.2710 -0.3563 -0.5992
 5227TIP3    H115645   1.346   6.726   4.186  2.0702  1.0187  0.6257
 5227TIP3    H215646   1.294   6.792   4.060 -1.2667 -2.7891 -0.1708
 5228TIP3   OH215647   4.533   0.845   3.064  0.3413  0.3674  0.2620
 5228TIP3    H115648   4.537   0.767   3.120 -0.1828 -0.2800 -0.5793
 5228TIP3    H215649   4.500   0.914   3.122  2.0735  0.3236  1.3749
 5229TIP3   OH215650   2.041   1.722   1.583 -0.5234  0.6413 -0.2397
 5229TIP3    H115651   1.978   1.792   1.599 -0.9266  0.9772 -2.8491
 5229TIP3    H215652   2.121   1.767   1.558  0.5183  0.1919  2.0772
 5230TIP3   OH215653   4.553   2.534   5.115  0.5799 -0.2552 -0.3265
 5230TIP3    H115654   4.529   2.494   5.032  0.0157 -0.4310 -0.0828
 5230TIP3    H215655   4.638   2.575   5.099 -0.5807  1.7801 -1.6505
 5231TIP3   OH215656   6.535   1.278   5.234  0.3354 -0.0425  0.1174
 5231TIP3    H115657   6.561   1.331   5.158  2.5288  0.5427  1.1936
 5231TIP3    H215658   6.551   1.335   5.309 -0.9014 -0.9447  1.1096
 5232TIP3   OH215659   1.978   0.529   3.771  0.1146  0.2913 -0.2592
 5232TIP3    H115660   1.998   0.473   3.696 -1.2498  0.5569 -0.8685
 5232TIP3    H215661   1.889   0.561   3.753  0.8498  2.7217  0.0087
 5233TIP3   OH215662   2.618   4.522   3.275 -0.4468 -0.1539  0.0138
 5233TIP3    H115663   2.556   4.588   3.308 -0.2002  0.2305 -0.2760
 5233TIP3    H215664   2.601   4.520   3.181 -0.8391 -0.9186  0.0911
 5234TIP3   OH215665   6.075   2.380   3.817  0.4108  0.1424  0.3161
 5234TIP3    H115666   6.139   2.344   3.879  0.2614 -0.9313 -0.1520
 5234TIP3    H215667   6.065   2.314   3.750 -0.6506  0.6127 -0.0187
 5235TIP3   OH215668   6.098   3.629   0.594  0.6960 -0.3525 -0.0273
 5235TIP3    H115669   6.070   3.583   0.515  0.3170 -2.6188  1.3434
 5235TIP3    H215670   6.194   3.624   0.592  0.6631 -1.1249  0.0395
 5236TIP3   OH215671   2.893   5.217   0.834  0.0397 -0.0327 -0.3022
 5236TIP3    H115672   2.842   5.200   0.755  0.8133  0.6638 -0.9784
 5236TIP3    H215673   2.984   5.203   0.807  0.2430 -0.9297  0.7920
 5237TIP3   OH215674   5.770   4.383   4.578  0.4729  0.3698  0.1564
 5237TIP3    H115675   5.701   4.445   4.556  0.6090  0.2812 -0.5802
 5237TIP3    H215676   5.730   4.297   4.567  0.8815  0.3028 -1.0088
 5238TIP3   OH215677   5.318   5.794   5.581  0.3158 -0.0149 -0.2248
 5238TIP3    H115678   5.316   5.811   5.487 -3.5622  3.1304  0.1898
 5238TIP3    H215679   5.395   5.842   5.613  1.5101 -0.8809 -1.6522
 5239TIP3   OH215680   2.855   2.402   2.248  0.8342  0.2662 -0.5226
 5239TIP3    H115681   2.839   2.313   2.281  2.0025 -0.1076 -0.9356
 5239TIP3    H215682   2.845   2.458   2.325  0.1994 -0.2207 -0.2341
 5240TIP3   OH215683   4.157   2.067   2.883 -0.4982  0.1271 -0.1601
 5240TIP3    H115684   4.187   2.020   2.805  0.9612  0.4190  0.1820
 5240TIP3    H215685   4.148   2.158   2.855  0.1149  0.2486  0.0131
 5241TIP3   OH215686   3.827   5.685   5.431  0.4550 -0.0035 -0.2334
 5241TIP3    H115687   3.797   5.692   5.522 -1.2679 -0.6821 -0.7201
 5241TIP3    H215688   3.864   5.597   5.424  1.5877  0.4232  0.0555
 5242TIP3   OH215689   1.403   0.867   4.054  0.6405  0.0848  0.2058
 5242TIP3    H115690   1.397   0.789   4.110  0.5789 -0.8890 -1.1261
 5242TIP3    H215691   1.314   0.901   4.051  0.8406  0.8555  1.6216
 5243TIP3   OH215692   0.378   5.811   4.876 -0.3009  0.2009  0.1835
 5243TIP3    H115693   0.334   5.767   4.949 -0.3905  0.5572  0.3467
 5243TIP3    H215694   0.317   5.880   4.850  0.5504  1.2755  0.9939
 5244TIP3   OH215695   0.661   4.718   3.045  0.3974  0.2772  0.1581
 5244TIP3    H115696   0.588   4.753   2.993 -0.9683 -0.6506  1.3645
 5244TIP3    H215697   0.736   4.772   3.020 -1.1249  2.6750  0.4213
 5245TIP3   OH215698   4.719   3.595   1.711 -0.1452  0.4926 -0.1665
 5245TIP3    H115699   4.790   3.660   1.708  1.5095 -1.2433 -1.2092
 5245TIP3    H215700   4.653   3.635   1.767  1.6211  2.2534  0.8132
 5246TIP3   OH215701   3.914   5.937   0.286  0.3190 -0.1715  0.2074
 5246TIP3    H115702   3.881   5.864   0.233  2.1391 -1.4604  0.7203
 5246TIP3    H215703   3.840   5.997   0.294 -0.2143 -0.1499 -3.2932
 5247TIP3   OH215704   1.782   6.162   5.252  0.0972 -0.3788  0.4726
 5247TIP3    H115705   1.735   6.216   5.317  0.8127  2.1459 -0.9797
 5247TIP3    H215706   1.714   6.108   5.213 -1.0780  0.9515  0.5849
 5248TIP3   OH215707   3.275   6.578   1.848 -0.3167 -0.2726 -0.0529
 5248TIP3    H115708   3.310   6.493   1.877 -0.7372 -0.4419 -0.0461
 5248TIP3    H215709   3.221   6.607   1.921 -0.6469 -0.2734 -0.2989
 5249TIP3   OH215710   1.836   4.161   2.942 -0.2932 -0.0353 -0.0431
 5249TIP3    H115711   1.922   4.121   2.960  0.0277  0.5454 -0.2496
 5249TIP3    H215712   1.804   4.187   3.028  0.8631  1.9731 -0.1604
 5250TIP3   OH215713   6.929   1.965   0.621  0.0592 -0.2403 -0.5802
 5250TIP3    H115714   7.004   2.024   0.624  1.2432 -1.7353  0.2915
 5250TIP3    H215715   6.859   2.017   0.580  1.6449  1.0734 -1.7360
 5251TIP3   OH215716   6.299   0.326   4.316 -0.1155 -0.2603  0.2218
 5251TIP3    H115717   6.230   0.361   4.372  0.0795 -0.2963  0.4865
 5251TIP3    H215718   6.308   0.235   4.344 -0.9036 -0.6505 -0.7386
 5252TIP3   OH215719   2.957   3.586   0.308  0.1450 -0.4626  0.4589
 5252TIP3    H115720   2.938   3.607   0.399 -0.6151 -0.8682  0.4025
 5252TIP3    H215721   3.042   3.541   0.311  0.9173  0.9649  0.7668
 5253TIP3   OH215722   2.436   2.253   1.985 -0.0308 -0.6609  0.2204
 5253TIP3    H115723   2.386   2.313   1.930  0.4995  0.6001  1.0481
 5253TIP3    H215724   2.372   2.192   2.020 -0.4708 -1.0716 -1.2455
 5254TIP3   OH215725   1.738   3.267   1.185 -0.6530 -0.5872  0.4384
 5254TIP3    H115726   1.817   3.233   1.143  0.5595  1.6555  0.7499
 5254TIP3    H215727   1.769   3.306   1.267 -1.7342  1.9734 -0.2810
 5255TIP3   OH215728   6.370   3.967   5.566  0.2834 -0.0011 -0.3718
 5255TIP3    H115729   6.319   3.985   5.645 -1.7763 -0.3762 -1.5603
 5255TIP3    H215730   6.449   3.923   5.599 -1.0739 -1.2893  1.4174
 5256TIP3   OH215731   5.971   4.727   4.802 -0.1221  0.1821  0.1566
 5256TIP3    H115732   5.912   4.791   4.840  0.1209  0.9793 -0.7727
 5256TIP3    H215733   6.049   4.777   4.779  0.5432 -0.6716  0.4750
 5257TIP3   OH215734   3.426   2.005   2.599  0.2819 -0.2049  0.2477
 5257TIP3    H115735   3.461   2.028   2.513  0.1371  0.1501  0.2838
 5257TIP3    H215736   3.440   1.910   2.606  1.1655 -0.0902  0.2235
 5258TIP3   OH215737   0.867   2.710   2.920 -0.3813 -0.2404  0.3059
 5258TIP3    H115738   0.900   2.771   2.853  0.0538 -1.0318 -0.2216
 5258TIP3    H215739   0.931   2.638   2.920 -1.8215 -1.5903 -0.4059
 5259TIP3   OH215740   2.900   2.378   3.833 -0.3834  0.0915 -0.4537
 5259TIP3    H115741   2.821   2.422   3.866  0.2207  0.0635  1.1403
 5259TIP3    H215742   2.972   2.423   3.876  0.2695 -2.4679  1.3843
 5260TIP3   OH215743   6.973   4.785   5.405 -0.1238 -0.7850  0.1236
 5260TIP3    H115744   7.055   4.797   5.452 -1.3097  0.3459  1.9992
 5260TIP3    H215745   6.951   4.692   5.416  0.4498 -0.8925  0.3430
 5261TIP3   OH215746   7.075   3.102   5.229 -0.2977 -0.5126 -0.2441
 5261TIP3    H115747   7.000   3.149   5.194  0.6023  0.8220 -0.4320
 5261TIP3    H215748   7.119   3.066   5.151 -1.8819 -3.1806 -0.0249
 5262TIP3   OH215749   2.366   4.954   2.852 -0.5657 -0.0838  0.1356
 5262TIP3    H115750   2.292   4.995   2.807  0.9052  0.7074 -1.6940
 5262TIP3    H215751   2.364   4.862   2.825 -1.4512 -0.3234  0.9459
 5263TIP3   OH215752   6.654   1.316   3.762 -0.5620  0.2192 -0.1090
 5263TIP3    H115753   6.745   1.344   3.768 -0.2469 -0.9228  0.7156
 5263TIP3    H215754   6.642   1.257   3.835 -1.6714 -0.4811 -0.8236
 5264TIP3   OH215755   3.640   3.545   1.637 -0.0334  0.3726  0.3035
 5264TIP3    H115756   3.599   3.567   1.721  2.7571 -0.6525  2.0800
 5264TIP3    H215757   3.624   3.621   1.582 -2.0120  1.0693  1.7211
 5265TIP3   OH215758   2.327   1.898   5.126 -0.1676 -0.0822 -0.1506
 5265TIP3    H115759   2.261   1.835   5.097  0.6160 -0.1958 -1.8464
 5265TIP3    H215760   2.314   1.906   5.220 -1.2376 -1.6664 -0.1312
 5266TIP3   OH215761   0.270   2.261   2.564  0.4678 -0.7551 -0.2951
 5266TIP3    H115762   0.270   2.342   2.513  0.5102 -1.2928 -1.1617
 5266TIP3    H215763   0.354   2.220   2.545  1.8684  0.4641  2.5850
 5267TIP3   OH215764   3.243   1.118   3.315  0.2630  0.6273  0.4387
 5267TIP3    H115765   3.325   1.134   3.360  0.0695  0.4920  0.8445
 5267TIP3    H215766   3.216   1.204   3.283  2.2066  0.2396 -2.6165
 5268TIP3   OH215767   4.994   6.579   1.251 -0.7527 -0.3366 -0.0375
 5268TIP3    H115768   5.000   6.514   1.321 -0.6545  1.1047  1.3509
 5268TIP3    H215769   5.084   6.609   1.237 -0.8432 -0.2353 -0.4298
 5269TIP3   OH215770   1.116   0.615   3.985 -0.0153  0.0950  0.0962
 5269TIP3    H115771   1.125   0.708   4.005  0.2919 -0.1811  1.2994
 5269TIP3    H215772   1.040   0.586   4.036 -0.4413 -0.2058 -0.6915
 5270TIP3   OH215773   0.664   4.231   0.816 -0.4566 -0.7090  0.3341
 5270TIP3    H115774   0.661   4.302   0.751 -0.8501 -1.1972 -0.1861
 5270TIP3    H215775   0.640   4.152   0.767  0.2581 -1.2547  0.8417
 5271TIP3   OH215776   5.193   0.567   4.387  0.0907  0.4777  0.6703
 5271TIP3    H115777   5.211   0.527   4.471  0.3952 -0.5911  0.1134
 5271TIP3    H215778   5.253   0.525   4.326  0.0924  1.4488 -0.0340
 5272TIP3   OH215779   0.699   3.375   3.123  0.4131 -1.1764 -0.2288
 5272TIP3    H115780   0.627   3.362   3.184  0.8812 -0.0560  0.5937
 5272TIP3    H215781   0.682   3.312   3.052 -0.9615 -1.4309  0.2955
 5273TIP3   OH215782   3.184   1.834   5.750 -0.3089  0.1803  0.1292
 5273TIP3    H115783   3.165   1.745   5.718 -0.3678  0.4066 -0.4808
 5273TIP3    H215784   3.238   1.820   5.828  0.5284 -0.3838 -0.5201
 5274TIP3   OH215785   7.051   6.657   2.939 -0.0998  0.1150 -0.1946
 5274TIP3    H115786   7.013   6.745   2.944  0.0341  0.1119  1.0094
 5274TIP3    H215787   7.144   6.673   2.920 -0.1166  0.2162 -0.1958
 5275TIP3   OH215788   4.011   1.902   4.616 -0.1208  0.5724  0.1112
 5275TIP3    H115789   4.031   1.934   4.705 -0.8489  0.3200  0.3747
 5275TIP3    H215790   4.088   1.925   4.564  1.1645 -0.9710  1.2229
 5276TIP3   OH215791   6.003   3.908   5.581  0.4420 -0.5184  0.5745
 5276TIP3    H115792   5.924   3.861   5.554  0.4787 -0.7623  0.8869
 5276TIP3    H215793   6.059   3.907   5.503 -0.5697  1.1971 -0.2159
 5277TIP3   OH215794   0.880   3.523   0.791 -0.4731 -0.0027 -0.3810
 5277TIP3    H115795   0.840   3.609   0.804  0.9112  0.7999 -1.1942
 5277TIP3    H215796   0.850   3.472   0.866 -1.6170  1.0694 -0.0633
 5278TIP3   OH215797   4.421   4.974   3.845  0.3234 -0.6850  0.1652
 5278TIP3    H115798   4.484   4.954   3.776  1.6421  0.8479  0.8660
 5278TIP3    H215799   4.358   5.032   3.802  0.6046 -0.4917  0.0097
 5279TIP3   OH215800   7.054   3.689   5.056  0.2558  0.1195  0.1178
 5279TIP3    H115801   6.994   3.689   4.982  1.3906  1.5714 -0.8598
 5279TIP3    H215802   7.027   3.765   5.108 -0.3652 -0.7359  1.0868
 5280TIP3   OH215803   1.436   4.088   0.097  0.3719  0.4836  0.0658
 5280TIP3    H115804   1.390   4.116   0.176  1.1542  0.0608  0.6851
 5280TIP3    H215805   1.524   4.123   0.107  0.0985  1.6921 -1.3245
 5281TIP3   OH215806   0.588   5.444   1.832 -0.1899  0.1667  0.1979
 5281TIP3    H115807   0.653   5.485   1.889  0.1482  1.9624 -1.3649
 5281TIP3    H215808   0.635   5.373   1.789  1.2104  2.0888 -1.7103
 5282TIP3   OH215809   5.793   0.472   1.023  0.9386 -0.1078 -0.5278
 5282TIP3    H115810   5.731   0.528   1.070  1.3506  0.6347 -0.8460
 5282TIP3    H215811   5.836   0.421   1.092  0.3654 -0.2385 -0.2572
 5283TIP3   OH215812   3.136   2.399   0.791  0.0799  0.0010 -0.5426
 5283TIP3    H115813   3.191   2.477   0.781  0.1287 -0.2243 -2.2195
 5283TIP3    H215814   3.058   2.418   0.738 -0.6950 -0.4074  0.4011
 5284TIP3   OH215815   4.016   5.427   4.704 -0.2181 -0.6952 -0.5422
 5284TIP3    H115816   4.001   5.340   4.667 -0.2665 -1.7909  1.8360
 5284TIP3    H215817   4.109   5.429   4.726  0.2277  0.6565 -2.3507
 5285TIP3   OH215818   1.686   4.618   2.581 -0.6646  0.1716 -0.0164
 5285TIP3    H115819   1.732   4.698   2.557 -0.2193 -0.1704 -0.3212
 5285TIP3    H215820   1.705   4.557   2.509 -0.1643 -0.5323  0.6887
 5286TIP3   OH215821   2.076   0.597   2.608 -0.5646 -0.2609 -0.4622
 5286TIP3    H115822   2.084   0.678   2.558 -1.6446 -1.2316 -2.3314
 5286TIP3    H215823   2.005   0.613   2.669 -0.4902  0.3279 -0.5234
 5287TIP3   OH215824   5.236   6.711   1.196 -0.0479 -0.3083  0.4396
 5287TIP3    H115825   5.266   6.799   1.218 -0.5930 -0.1829  0.6904
 5287TIP3    H215826   5.226   6.712   1.101 -0.8877  0.1717  0.5246
 5288TIP3   OH215827   0.454   0.284   0.045  0.2222 -0.4802 -0.2017
 5288TIP3    H115828   0.516   0.357   0.044  0.3077 -0.5536 -0.4347
 5288TIP3    H215829   0.508   0.206   0.059  0.1179 -0.4861  0.1586
 5289TIP3   OH215830   2.712   2.657   5.049  0.3091 -0.7858 -0.2020
 5289TIP3    H115831   2.664   2.684   5.127 -0.4809  5.0114 -2.1665
 5289TIP3    H215832   2.645   2.653   4.980  1.6038 -0.1831 -1.5497
 5290TIP3   OH215833   2.344   5.747   3.919  0.6178 -0.2660  0.5047
 5290TIP3    H115834   2.384   5.714   3.839 -0.3657  1.1991 -0.6433
 5290TIP3    H215835   2.418   5.755   3.981  1.4290 -1.1855 -0.3062
 5291TIP3   OH215836   6.786   6.233   4.055 -0.4061  0.2803  0.7886
 5291TIP3    H115837   6.739   6.314   4.076 -0.4906  0.0219  1.6489
 5291TIP3    H215838   6.758   6.211   3.967 -0.7173  0.9589  0.7134
 5292TIP3   OH215839   3.307   1.525   4.023  0.2344  0.1202 -0.4958
 5292TIP3    H115840   3.260   1.462   4.077 -0.9124  0.7200 -0.7572
 5292TIP3    H215841   3.240   1.589   3.998  0.5778 -0.4274 -3.0679
 5293TIP3   OH215842   6.094   5.049   2.252 -0.3258  0.4298 -0.0559
 5293TIP3    H115843   6.168   4.991   2.231  0.5062  0.9087  1.4313
 5293TIP3    H215844   6.046   5.003   2.320 -1.8748 -0.2149 -1.5170
 5294TIP3   OH215845   6.660   5.372   3.786  0.0184 -0.1730 -0.1073
 5294TIP3    H115846   6.652   5.353   3.692 -0.8095  1.1844 -0.3371
 5294TIP3    H215847   6.753   5.358   3.805  0.0794 -1.0877 -0.9730
 5295TIP3   OH215848   2.156   4.042   5.648  0.1219 -0.6589 -0.0010
 5295TIP3    H115849   2.108   3.959   5.657 -2.5832  0.5858 -1.6166
 5295TIP3    H215850   2.096   4.099   5.599  1.3615  2.6846  2.0526
 5296TIP3   OH215851   2.938   0.532   3.797  0.2446 -0.0459 -0.5361
 5296TIP3    H115852   2.989   0.581   3.733  1.0188 -0.8713 -0.5610
 5296TIP3    H215853   2.965   0.566   3.882 -2.0142  2.2849 -0.5998
 5297TIP3   OH215854   6.418   3.027   3.970  0.1565 -0.6991 -0.0713
 5297TIP3    H115855   6.361   2.954   3.951 -2.8345  1.4886 -0.1688
 5297TIP3    H215856   6.398   3.051   4.061  0.6132  0.3539 -0.2274
 5298TIP3   OH215857   3.108   3.282   3.673  0.1275  0.0124 -0.0194
 5298TIP3    H115858   3.182   3.251   3.622  1.0807  0.0082  1.3012
 5298TIP3    H215859   3.032   3.236   3.637  0.8872 -0.6238 -0.8466
 5299TIP3   OH215860   4.646   0.735   4.157  0.6288  0.1549  0.2406
 5299TIP3    H115861   4.622   0.795   4.086  0.4147  2.0077  1.7972
 5299TIP3    H215862   4.716   0.780   4.204 -0.1280 -0.4090  1.9879
 5300TIP3   OH215863   2.912   6.366   4.155  0.1864 -0.3015 -0.0260
 5300TIP3    H115864   2.854   6.355   4.230 -1.1364 -2.6029 -1.2799
 5300TIP3    H215865   2.875   6.439   4.105 -0.0214  0.0020  0.5673
 5301TIP3   OH215866   6.160   1.037   3.815 -0.2299  0.0756  0.5342
 5301TIP3    H115867   6.152   1.116   3.762 -0.2918 -0.6461 -0.5509
 5301TIP3    H215868   6.246   1.002   3.795 -0.1773 -0.1151  1.0571
 5302TIP3   OH215869   3.346   4.157   2.234 -0.0521 -0.6381 -0.4608
 5302TIP3    H115870   3.411   4.155   2.164 -0.7102  0.9411 -1.1551
 5302TIP3    H215871   3.393   4.125   2.311  1.1265 -0.8982 -1.2578
 5303TIP3   OH215872   0.454   3.931   0.879 -0.9821 -0.3847  0.2710
 5303TIP3    H115873   0.376   3.983   0.898 -1.2926 -0.2079 -1.3133
 5303TIP3    H215874   0.489   3.969   0.798  0.5296 -0.7259  0.7234
 5304TIP3   OH215875   6.920   1.310   4.024 -0.0477  0.6051  0.5626
 5304TIP3    H115876   7.003   1.358   4.021  0.7606 -0.7744 -0.9418
 5304TIP3    H215877   6.859   1.364   3.974  0.7241  0.3279 -0.7205
 5305TIP3   OH215878   3.887   3.117   2.107  0.4387 -0.2336 -0.1075
 5305TIP3    H115879   3.860   3.057   2.177 -0.4000 -0.9796 -1.0398
 5305TIP3    H215880   3.949   3.066   2.055  0.9685  0.2790  0.0173
 5306TIP3   OH215881   2.496   0.689   1.843 -0.4083  0.6783 -0.2965
 5306TIP3    H115882   2.409   0.681   1.803 -0.0091  0.0097 -1.0505
 5306TIP3    H215883   2.555   0.645   1.782  0.1916 -0.5955  1.1283
 5307TIP3   OH215884   6.622   1.767   1.903  0.6862 -0.4457  0.5909
 5307TIP3    H115885   6.651   1.783   1.813  2.6173  1.2527  1.4370
 5307TIP3    H215886   6.574   1.684   1.898 -2.9722  1.4734 -2.7477
 5308TIP3   OH215887   0.495   1.867   4.545 -0.0707  0.1984  0.0934
 5308TIP3    H115888   0.485   1.915   4.463 -0.9752 -0.0562  0.0393
 5308TIP3    H215889   0.557   1.919   4.596  1.0649 -0.0048 -1.0170
 5309TIP3   OH215890   2.941   2.377   0.255  0.3669 -0.1122 -0.5021
 5309TIP3    H115891   2.973   2.419   0.175 -2.9770  1.1968 -1.3445
 5309TIP3    H215892   2.848   2.402   0.259 -0.1641 -2.0796  2.5675
 5310TIP3   OH215893   0.841   4.215   4.924  0.3624 -0.0913  0.3716
 5310TIP3    H115894   0.775   4.247   4.863 -0.5739 -2.7335 -0.1281
 5310TIP3    H215895   0.907   4.173   4.869 -0.3304 -2.2259  1.0734
 5311TIP3   OH215896   3.182   4.259   0.403  0.2256  0.4211  0.4016
 5311TIP3    H115897   3.191   4.174   0.446 -1.3897 -0.5703 -1.0776
 5311TIP3    H215898   3.133   4.313   0.465  0.8801  0.1486  1.1720
 5312TIP3   OH215899   4.799   5.171   4.422  0.2929  0.1417 -0.1669
 5312TIP3    H115900   4.769   5.126   4.343  0.2455 -0.0563 -0.0366
 5312TIP3    H215901   4.718   5.196   4.467  0.2938 -1.1566  0.6245
 5313TIP3   OH215902   5.584   5.595   1.297 -0.2889  0.2608 -0.2347
 5313TIP3    H115903   5.653   5.589   1.231 -0.6732 -1.7690 -0.4996
 5313TIP3    H215904   5.627   5.569   1.378 -0.4155  0.3672 -0.1336
 5314TIP3   OH215905   5.158   5.695   4.701 -0.5132  0.6129  0.1447
 5314TIP3    H115906   5.217   5.625   4.730  0.6966  1.6614  0.3080
 5314TIP3    H215907   5.071   5.659   4.714 -0.0529  0.4060  3.7380
 5315TIP3   OH215908   3.437   1.645   2.963  0.4268 -0.3743  0.5258
 5315TIP3    H115909   3.362   1.691   2.925  1.4818  0.6043 -0.4591
 5315TIP3    H215910   3.418   1.553   2.951 -1.1643 -0.1891  1.3866
 5316TIP3   OH215911   1.234   2.155   1.335 -0.0615 -0.1392  0.0647
 5316TIP3    H115912   1.209   2.111   1.254 -0.2813 -1.9230  1.0629
 5316TIP3    H215913   1.170   2.125   1.400  0.1533  1.2007  0.9314
 5317TIP3   OH215914   1.002   5.060   3.875 -0.1768  0.3491  0.4865
 5317TIP3    H115915   0.979   4.982   3.824 -0.9974  1.1842 -0.4529
 5317TIP3    H215916   1.095   5.073   3.858 -0.6785  1.3009 -1.8268
 5318TIP3   OH215917   5.866   6.657   0.514  0.0713  0.0573 -0.3687
 5318TIP3    H115918   5.805   6.653   0.441  1.4001 -1.3641 -1.4560
 5318TIP3    H215919   5.817   6.622   0.588 -0.5066 -0.8966 -1.1772
 5319TIP3   OH215920   7.030   5.099   4.719 -0.0774 -0.1537 -0.1450
 5319TIP3    H115921   6.986   5.096   4.634  0.6362  1.3446 -0.6135
 5319TIP3    H215922   6.959   5.103   4.783 -0.6356  0.5758 -0.7894
 5320TIP3   OH215923   4.003   0.123   0.604  0.2890  0.0516 -0.0620
 5320TIP3    H115924   3.991   0.123   0.699  2.3291 -2.8553  0.3382
 5320TIP3    H215925   4.071   0.188   0.588 -0.2145  0.7072  0.3916
 5321TIP3   OH215926   3.241   0.711  -0.014  0.2098 -0.4820  0.0614
 5321TIP3    H115927   3.145   0.716  -0.012  0.2606  0.6623  1.1528
 5321TIP3    H215928   3.262   0.629   0.031 -0.2479 -0.8200 -0.3256
 5322TIP3   OH215929   5.938   3.593   4.842 -0.8094 -0.1146  0.8055
 5322TIP3    H115930   6.002   3.664   4.831  0.9414 -1.6158  0.8085
 5322TIP3    H215931   5.870   3.612   4.779 -0.1283  1.2988  0.4519
 5323TIP3   OH215932   3.367   6.477   3.451  0.8348  0.5812  0.7587
 5323TIP3    H115933   3.284   6.486   3.404  0.3136 -1.5875  1.1256
 5323TIP3    H215934   3.410   6.562   3.442 -0.8172  1.3252 -0.5962
 5324TIP3   OH215935   0.874   1.855   4.978  0.1162 -0.0714 -0.0160
 5324TIP3    H115936   0.918   1.829   5.059  0.9541  1.9328  0.2444
 5324TIP3    H215937   0.873   1.776   4.924 -0.1412 -1.3607  1.7903
 5325TIP3   OH215938   1.236   0.406   4.365 -0.3050  0.3848  0.8711
 5325TIP3    H115939   1.252   0.368   4.451 -1.8219  1.4039  1.6419
 5325TIP3    H215940   1.180   0.482   4.382  1.3155  2.0552 -0.7747
 5326TIP3   OH215941   0.044   3.278   1.299  0.2321  0.2807  0.0153
 5326TIP3    H115942   0.101   3.277   1.222 -0.9463 -0.1383 -0.8713
 5326TIP3    H215943  -0.001   3.362   1.295 -1.6261 -0.7116 -1.1446
 5327TIP3   OH215944   3.008   1.476   4.912 -0.3433  0.1100  0.0143
 5327TIP3    H115945   3.022   1.554   4.858 -0.2566 -0.8790 -1.4476
 5327TIP3    H215946   3.096   1.444   4.931 -0.3535  0.7823  1.2816
 5328TIP3   OH215947   6.043   5.329   4.276  0.0538 -0.6187 -0.3673
 5328TIP3    H115948   6.010   5.418   4.285  0.8050 -0.2893 -0.7546
 5328TIP3    H215949   5.967   5.278   4.246 -0.7596 -0.4287  1.2874
 5329TIP3   OH215950   1.798   5.713   0.005 -0.5700  0.2823  0.1970
 5329TIP3    H115951   1.791   5.618   0.012  0.3538  0.2140  0.4215
 5329TIP3    H215952   1.708   5.745   0.005 -0.9108 -0.6399 -0.6523
 5330TIP3   OH215953   3.608   3.283   1.313  0.4729  0.0379 -0.1836
 5330TIP3    H115954   3.595   3.243   1.227 -1.9627  0.4769 -0.1041
 5330TIP3    H215955   3.613   3.209   1.373  2.1527 -0.2710 -0.6716
 5331TIP3   OH215956   1.166   4.041   3.959  0.6028  0.1144  0.1210
 5331TIP3    H115957   1.140   4.066   3.871 -0.4305  1.9602  0.9005
 5331TIP3    H215958   1.109   3.966   3.980 -2.0305  2.1089  0.6131
 5332TIP3   OH215959   6.489   2.991   0.594 -0.5965  0.1104  0.1214
 5332TIP3    H115960   6.506   2.985   0.500 -1.7573  0.1637 -0.1173
 5332TIP3    H215961   6.541   3.066   0.623 -0.7875  0.5506 -0.6325
 5333TIP3   OH215962   1.062   6.066   2.703 -0.1247  0.2341 -0.5212
 5333TIP3    H115963   0.986   6.011   2.683  0.5193 -2.0208  2.5853
 5333TIP3    H215964   1.137   6.015   2.671  0.5213 -1.2035  2.8592
 5334TIP3   OH215965   3.666   2.829   3.684  0.2274  0.5216 -0.2048
 5334TIP3    H115966   3.712   2.833   3.600  1.9228 -0.3168  0.6549
 5334TIP3    H215967   3.723   2.779   3.741 -1.3765  0.1859  1.1839
 5335TIP3   OH215968   3.540   1.838   0.264 -0.1351  0.1215  0.4149
 5335TIP3    H115969   3.634   1.828   0.251 -0.0563 -0.2409  1.1738
 5335TIP3    H215970   3.525   1.805   0.353 -0.9431  0.3894  0.3860
 5336TIP3   OH215971   0.437   6.243   3.255  0.2052  0.3688 -0.4244
 5336TIP3    H115972   0.386   6.313   3.216 -0.2098  0.1767 -0.2340
 5336TIP3    H215973   0.402   6.234   3.344 -0.1974 -0.5213 -0.6623
 5337TIP3   OH215974   1.406   4.465   2.590  0.3037 -0.6833 -0.4542
 5337TIP3    H115975   1.460   4.537   2.560 -0.5686 -0.1778 -0.8633
 5337TIP3    H215976   1.404   4.474   2.685 -0.2374  0.1687 -0.5354
 5338TIP3   OH215977   3.979   5.302   2.339 -0.2978  0.2970  0.1379
 5338TIP3    H115978   4.055   5.272   2.389 -0.0376 -1.2705 -1.1183
 5338TIP3    H215979   4.004   5.389   2.308  1.1136 -0.2646 -0.4155
 5339TIP3   OH215980   6.520   0.517   1.656 -0.2065 -0.3402 -0.6818
 5339TIP3    H115981   6.591   0.581   1.661 -0.4907 -0.0890  0.2581
 5339TIP3    H215982   6.563   0.436   1.627  0.1006  0.3339 -2.2311
 5340TIP3   OH215983   4.657   2.987   3.749  0.7545  0.4465  0.5997
 5340TIP3    H115984   4.712   3.022   3.680  0.8913 -0.8260  0.0426
 5340TIP3    H215985   4.639   2.897   3.723 -0.7611  0.5230  1.2746
 5341TIP3   OH215986   1.692   2.836   0.880  0.5567  0.6184 -0.1226
 5341TIP3    H115987   1.637   2.885   0.941  0.6043  0.7748 -0.2038
 5341TIP3    H215988   1.712   2.755   0.926 -0.7175  0.0334 -0.5435
 5342TIP3   OH215989   0.832   1.613   4.866  0.5460 -0.6695  0.3338
 5342TIP3    H115990   0.767   1.577   4.926  0.4358 -0.3080  0.4350
 5342TIP3    H215991   0.783   1.629   4.785  0.6606 -1.0179  0.1947
 5343TIP3   OH215992   6.300   6.190   3.486  0.1563 -0.8813 -0.1664
 5343TIP3    H115993   6.274   6.271   3.529  1.2387  0.0782 -1.2272
 5343TIP3    H215994   6.371   6.216   3.427  0.4933 -2.5980 -0.5755
 5344TIP3   OH215995   5.217   4.322   4.880 -0.0459  0.4178  0.7838
 5344TIP3    H115996   5.276   4.327   4.805  0.7399 -2.0226  1.1636
 5344TIP3    H215997   5.271   4.290   4.952 -1.9768 -3.6302  0.7339
 5345TIP3   OH215998   4.209   0.833   1.520 -0.9270  0.5460  0.1087
 5345TIP3    H115999   4.221   0.924   1.546  1.9050  0.4682 -0.6738
 5345TIP3    H216000   4.221   0.784   1.601  1.5419  0.6915 -0.1031
 5346TIP3   OH216001   5.704   3.313   2.363  0.2086  0.7607  0.4351
 5346TIP3    H116002   5.773   3.253   2.334  0.1310  1.3155 -1.0063
 5346TIP3    H216003   5.648   3.259   2.418  0.8106 -0.1809  0.1606
 5347TIP3   OH216004   1.762   3.839   5.610  0.2729  0.6823 -0.2782
 5347TIP3    H116005   1.699   3.898   5.651  3.7088  5.0470 -0.6334
 5347TIP3    H216006   1.778   3.876   5.524  2.3356 -1.0797 -0.7305
 5348TIP3   OH216007   1.603   4.546   2.841 -0.5167 -0.6189  0.6908
 5348TIP3    H116008   1.675   4.529   2.902 -0.5508 -0.2504  0.8368
 5348TIP3    H216009   1.646   4.570   2.759 -0.4546 -2.4762  0.1553
 5349TIP3   OH216010   3.255   5.125   0.033 -0.4728 -0.4763  0.1864
 5349TIP3    H116011   3.223   5.040   0.061  0.5178 -1.3663 -1.2872
 5349TIP3    H216012   3.317   5.152   0.100  0.1274 -1.4923  0.0455
 5350TIP3   OH216013   6.562   4.587   5.533 -0.1627  0.1687  0.0743
 5350TIP3    H116014   6.624   4.531   5.581  0.1385 -0.6092 -1.1597
 5350TIP3    H216015   6.575   4.674   5.570  1.3836 -0.0581  0.1546
 5351TIP3   OH216016   5.667   6.482   4.797  0.1476  0.2728  0.4797
 5351TIP3    H116017   5.738   6.501   4.736  0.6253  1.5348  1.3775
 5351TIP3    H216018   5.626   6.403   4.763  0.0217  1.2356 -1.7997
 5352TIP3   OH216019   5.901   1.059   2.231  0.1824  0.3771  0.3710
 5352TIP3    H116020   5.860   0.982   2.270 -0.9106  0.3676 -0.7520
 5352TIP3    H216021   5.920   1.033   2.140 -0.8430  1.6383 -0.2335
 5353TIP3   OH216022   5.450   6.443   2.018  0.1794  0.0253  0.3301
 5353TIP3    H116023   5.523   6.445   2.080  0.1214  2.3375  0.4307
 5353TIP3    H216024   5.375   6.476   2.068  0.1912  2.2079 -0.9386
 5354TIP3   OH216025   6.371   5.399   1.484  0.3476 -0.3627  0.0308
 5354TIP3    H116026   6.444   5.338   1.488 -0.3096 -1.2224 -0.5937
 5354TIP3    H216027   6.343   5.397   1.392 -0.2225  0.2422  0.1799
 5355TIP3   OH216028   0.564   1.326   0.145  0.3769  0.1890 -0.0851
 5355TIP3    H116029   0.619   1.393   0.184  0.4802 -0.2552  0.5543
 5355TIP3    H216030   0.544   1.266   0.218 -1.9393  0.9704  0.0181
 5356TIP3   OH216031   0.617   4.813   1.976  0.0985 -0.9947  0.6416
 5356TIP3    H116032   0.666   4.891   2.003  0.7464 -0.7818 -1.0279
 5356TIP3    H216033   0.662   4.740   2.018  1.8281 -0.7929 -0.7492
 5357TIP3   OH216034   1.031   1.456   1.469 -0.2118 -0.1789  0.0306
 5357TIP3    H116035   0.960   1.413   1.420 -0.7697  0.4497  0.2762
 5357TIP3    H216036   1.024   1.548   1.445  0.1878 -0.0313  0.4692
 5358TIP3   OH216037   1.242   3.455   3.810 -0.0058 -0.1710 -0.0284
 5358TIP3    H116038   1.295   3.435   3.732 -1.1938  1.0211 -1.1909
 5358TIP3    H216039   1.302   3.503   3.867  0.7107 -0.5196 -0.4613
 5359TIP3   OH216040   7.092   5.312   3.425 -0.5631 -0.1544 -0.0879
 5359TIP3    H116041   7.046   5.355   3.497 -1.3445  1.1548 -1.3071
 5359TIP3    H216042   7.160   5.373   3.399  0.6059 -1.2089  0.3821
 5360TIP3   OH216043   6.554   4.123   2.593  0.3149  0.1759 -0.0661
 5360TIP3    H116044   6.474   4.149   2.547 -0.6666  1.1298  2.0335
 5360TIP3    H216045   6.552   4.028   2.594 -1.2189  0.1859  0.5787
 5361TIP3   OH216046   6.233   5.804   2.570 -0.1757 -0.3276 -0.2938
 5361TIP3    H116047   6.318   5.805   2.614  1.0863  1.8044 -2.5532
 5361TIP3    H216048   6.171   5.832   2.637  1.2995  0.6546  0.7222
 5362TIP3   OH216049   4.422   0.235   4.310  0.0398  0.0942  0.0804
 5362TIP3    H116050   4.407   0.181   4.232  2.1611 -0.9792  0.3515
 5362TIP3    H216051   4.418   0.325   4.278 -1.6545 -0.2390 -0.7516
 5363TIP3   OH216052   0.553   0.263   0.768 -0.6196 -0.2370  0.5463
 5363TIP3    H116053   0.465   0.251   0.803 -0.6315  0.2304  0.6808
 5363TIP3    H216054   0.546   0.339   0.710 -0.1101  0.3809  1.2762
 5364TIP3   OH216055   3.500   4.961   1.779  0.1198  0.3795 -0.6368
 5364TIP3    H116056   3.417   4.915   1.782  0.0050  0.4416 -2.2049
 5364TIP3    H216057   3.548   4.929   1.856 -1.3214  0.3339  0.2702
 5365TIP3   OH216058   6.547   1.555   0.282  0.3855 -0.4579 -0.0189
 5365TIP3    H116059   6.577   1.474   0.325  0.1006 -0.8218 -0.4899
 5365TIP3    H216060   6.459   1.534   0.251 -0.2446  0.5014  1.0711
 5366TIP3   OH216061   0.324   6.130   4.850 -0.0670 -0.3106 -1.2530
 5366TIP3    H116062   0.256   6.065   4.832 -0.7499  0.2037 -0.6199
 5366TIP3    H216063   0.282   6.214   4.832  0.8902 -0.0348 -2.3304
 5367TIP3   OH216064   5.256   6.684   5.920 -0.0477  0.5010  0.1164
 5367TIP3    H116065   5.205   6.674   5.840  0.8111 -2.4574 -0.1937
 5367TIP3    H216066   5.346   6.699   5.889  0.5786 -2.2175  0.3580
 5368TIP3   OH216067   6.218   4.935   3.563  0.0941  0.9510 -0.2053
 5368TIP3    H116068   6.275   5.012   3.560  0.4170  0.7485  0.5304
 5368TIP3    H216069   6.268   4.871   3.614 -1.4390  1.3007  1.8278
 5369TIP3   OH216070   6.395   6.152   5.434  0.5023 -0.2991  0.2966
 5369TIP3    H116071   6.329   6.084   5.442  2.1556 -1.7549  3.4656
 5369TIP3    H216072   6.363   6.223   5.489 -0.4329  0.9356 -1.7163
 5370TIP3   OH216073   2.722   1.829   4.022 -0.3154 -0.3130  0.3609
 5370TIP3    H116074   2.804   1.795   4.056 -0.4588 -0.5872  0.4373
 5370TIP3    H216075   2.659   1.758   4.034 -0.5618 -0.1114  0.2948
 5371TIP3   OH216076   1.502   1.929   0.274 -0.3349 -0.6598 -0.3173
 5371TIP3    H116077   1.484   2.018   0.304 -1.4669 -1.0789  0.3063
 5371TIP3    H216078   1.581   1.937   0.220  0.7301  0.3885  1.3346
 5372TIP3   OH216079   1.198   4.134   5.835 -0.1197  0.0860 -0.4955
 5372TIP3    H116080   1.263   4.064   5.829 -0.1373  0.0132  0.1056
 5372TIP3    H216081   1.115   4.091   5.815 -0.1878 -0.1626  0.2988
 5373TIP3   OH216082   2.731   0.482   0.864  0.9375  0.1880 -0.4841
 5373TIP3    H116083   2.822   0.453   0.850  0.9101  0.4414 -1.2593
 5373TIP3    H216084   2.722   0.559   0.808 -0.0369 -0.4004 -1.1630
 5374TIP3   OH216085   4.632   1.045   3.414  0.5123  0.0511  0.0326
 5374TIP3    H116086   4.701   0.982   3.437 -0.0050 -0.7232 -0.4863
 5374TIP3    H216087   4.678   1.128   3.406  1.6631 -0.6747 -1.6026
 5375TIP3   OH216088   4.851   3.065   1.050 -0.0817 -0.2813  0.6597
 5375TIP3    H116089   4.860   3.063   1.145  0.8457 -1.2959  0.5805
 5375TIP3    H216090   4.926   3.116   1.019 -0.0549 -0.4437  0.4479
 5376TIP3   OH216091   1.940   6.190   4.868 -0.3005  0.5060 -0.4212
 5376TIP3    H116092   1.868   6.139   4.906 -1.3336  1.1665 -1.4340
 5376TIP3    H216093   2.009   6.126   4.853 -0.4578 -0.0601  1.0484
 5377TIP3   OH216094   5.484   5.162   5.336 -0.1003  0.0500 -0.5457
 5377TIP3    H116095   5.435   5.149   5.417 -0.0171 -0.8828 -0.6348
 5377TIP3    H216096   5.425   5.130   5.268  0.1887 -0.0172 -0.7625
 5378TIP3   OH216097   0.334   4.667   2.925 -0.3632  0.5197 -0.3091
 5378TIP3    H116098   0.296   4.730   2.986  0.1818 -0.2802  0.9009
 5378TIP3    H216099   0.376   4.601   2.981 -0.1241 -0.4253 -1.5430
 5379TIP3   OH216100   3.055   5.598   3.602  0.0009  0.5519  0.2419
 5379TIP3    H116101   2.981   5.656   3.584 -1.4710 -0.9746  1.0346
 5379TIP3    H216102   3.084   5.569   3.515 -1.0071  0.3979 -0.0618
 5380TIP3   OH216103   4.261   6.309   1.909 -0.2430  0.7487  0.2825
 5380TIP3    H116104   4.294   6.307   1.999 -1.3961 -0.5265  0.7117
 5380TIP3    H216105   4.260   6.402   1.885  0.4191  1.0682  1.4566
 5381TIP3   OH216106   2.196   3.055   5.392  0.1691  0.2137 -0.2979
 5381TIP3    H116107   2.115   3.005   5.380 -1.3637  2.7298 -1.2338
 5381TIP3    H216108   2.241   3.046   5.308  0.7309 -0.9094  0.1064
 5382TIP3   OH216109   4.959   6.627   0.774 -0.4244 -0.2385  0.0915
 5382TIP3    H116110   4.975   6.660   0.686 -1.0863 -0.1540  0.0015
 5382TIP3    H216111   4.881   6.573   0.766 -1.6377  1.3029  0.9799
 5383TIP3   OH216112   0.803   3.743   4.008  0.2682  0.4785 -0.4620
 5383TIP3    H116113   0.762   3.774   3.927 -0.4205 -0.3846 -0.4536
 5383TIP3    H216114   0.877   3.690   3.978 -1.2360 -1.6309 -0.6275
 5384TIP3   OH216115   3.193   0.606   2.227 -0.3016  0.3356  0.7833
 5384TIP3    H116116   3.270   0.634   2.179 -1.0950  0.8048 -0.2717
 5384TIP3    H216117   3.177   0.517   2.197  0.1075  0.0516  1.3846
 5385TIP3   OH216118   1.927   0.660   2.823 -0.0900 -0.6174 -0.8432
 5385TIP3    H116119   1.855   0.601   2.845  1.6041 -2.7617 -0.7290
 5385TIP3    H216120   1.984   0.658   2.899 -0.3003  1.8052 -0.5459
 5386TIP3   OH216121   4.576   6.496   1.833  0.5064 -0.1949 -0.2058
 5386TIP3    H116122   4.570   6.460   1.745 -1.8090  0.7771 -0.5172
 5386TIP3    H216123   4.590   6.421   1.890 -0.7091 -1.1733 -1.1614
 5387TIP3   OH216124   1.806   5.758   0.298 -0.1222  0.1170  0.0250
 5387TIP3    H116125   1.840   5.846   0.281  2.4282 -0.9855 -1.0982
 5387TIP3    H216126   1.762   5.734   0.217  0.8908 -0.3394 -0.4064
 5388TIP3   OH216127   4.525   3.930   5.294 -0.0314 -1.0384 -0.0803
 5388TIP3    H116128   4.584   3.974   5.355 -1.4805  0.4089  0.3517
 5388TIP3    H216129   4.457   3.995   5.276 -2.0303 -2.9367  0.2065
 5389TIP3   OH216130   5.597   1.139   0.561 -0.3118  0.1094 -0.4495
 5389TIP3    H116131   5.668   1.078   0.580 -0.6751 -0.2804 -0.3032
 5389TIP3    H216132   5.640   1.222   0.542  0.1345  0.2193  0.9224
 5390TIP3   OH216133   1.641   3.836   1.225 -0.4403 -0.0472 -0.0721
 5390TIP3    H116134   1.653   3.751   1.184 -0.5462 -0.5119  0.8366
 5390TIP3    H216135   1.729   3.867   1.244 -0.4297 -0.6480  0.9536
 5391TIP3   OH216136   2.990   1.387   2.347 -0.2761 -0.1311  0.1755
 5391TIP3    H116137   3.074   1.342   2.355 -0.2303  0.0896  0.9991
 5391TIP3    H216138   2.998   1.439   2.267 -0.3148 -1.5191 -0.7779
 5392TIP3   OH216139   0.073   1.960   4.639  0.4261 -0.6661 -0.0908
 5392TIP3    H116140   0.044   2.050   4.625  0.3759 -0.7120 -0.2865
 5392TIP3    H216141   0.117   1.936   4.558 -0.7441 -1.2710 -0.5812
 5393TIP3   OH216142   6.438   6.613   1.378  0.0322  0.3133 -0.0794
 5393TIP3    H116143   6.427   6.573   1.465 -0.5722 -0.0106 -0.3029
 5393TIP3    H216144   6.453   6.706   1.397 -0.8443  0.3805  0.3487
 5394TIP3   OH216145   1.326   5.194   4.320 -0.3748  0.3491 -0.2788
 5394TIP3    H116146   1.362   5.221   4.235  1.3947 -2.6018 -0.6034
 5394TIP3    H216147   1.301   5.103   4.308 -1.8457  0.3926  1.8950
 5395TIP3   OH216148   6.849   0.251   2.559 -0.2786 -0.0867  0.6407
 5395TIP3    H116149   6.880   0.187   2.495 -0.6153  0.1169  0.2676
 5395TIP3    H216150   6.917   0.252   2.627  1.3837  1.4985 -0.9296
 5396TIP3   OH216151   0.191   3.862   2.006 -0.9585  0.4037 -0.1028
 5396TIP3    H116152   0.197   3.951   1.972  0.1925 -0.2436 -1.6786
 5396TIP3    H216153   0.245   3.809   1.948  1.7418 -0.6978  3.0490
 5397TIP3   OH216154   3.342   0.382   1.182 -0.1694 -0.0187  0.5665
 5397TIP3    H116155   3.394   0.450   1.224 -2.4455  2.0977  0.1511
 5397TIP3    H216156   3.257   0.385   1.226 -0.7666 -1.7038 -0.3670
 5398TIP3   OH216157   2.826   4.637   1.966 -0.1638  0.2930 -0.9047
 5398TIP3    H116158   2.760   4.608   2.030  1.4240  2.1922  1.7994
 5398TIP3    H216159   2.906   4.590   1.990  0.7483  1.8689 -0.7302
 5399TIP3   OH216160   6.876   4.280   3.354  0.4273  0.1008 -0.1986
 5399TIP3    H116161   6.914   4.195   3.375  2.3983  0.6753 -1.2045
 5399TIP3    H216162   6.800   4.259   3.299 -0.1356 -1.0411  0.9558
 5400TIP3   OH216163   1.263   5.341   2.022  0.1496 -0.4471  0.2409
 5400TIP3    H116164   1.199   5.390   1.971  1.5914  1.6007  0.3131
 5400TIP3    H216165   1.221   5.328   2.108 -1.3639 -1.9278 -0.6503
 5401TIP3   OH216166   6.627   6.156   4.357  0.1267  0.4883  0.0279
 5401TIP3    H116167   6.578   6.105   4.421  0.6986  1.6058  1.3878
 5401TIP3    H216168   6.564   6.174   4.287 -0.6602 -0.2894  0.5238
 5402TIP3   OH216169   0.173   0.765   3.586 -0.2099  0.5611  0.2435
 5402TIP3    H116170   0.178   0.750   3.680  1.9539  1.1818  0.2840
 5402TIP3    H216171   0.247   0.822   3.567 -0.1651 -0.1386 -1.9600
 5403TIP3   OH216172   1.056   2.230   2.582  0.1239 -0.2687 -0.2200
 5403TIP3    H116173   0.998   2.195   2.650 -0.4343  0.7435 -0.1645
 5403TIP3    H216174   1.105   2.299   2.626  0.1261  0.0446 -0.7085
 5404TIP3   OH216175   0.061   5.561   3.972 -0.2643  0.0121  0.1874
 5404TIP3    H116176   0.141   5.613   3.964 -1.2034  1.4994  0.0219
 5404TIP3    H216177   0.000   5.617   4.020 -1.2152 -1.0882  0.3310
 5405TIP3   OH216178   0.707   1.701   3.948  0.0124 -0.1302  0.4421
 5405TIP3    H116179   0.741   1.613   3.932  0.4982  0.1207  0.0605
 5405TIP3    H216180   0.632   1.709   3.889  0.9315  0.2739 -0.7054
 5406TIP3   OH216181   4.533   4.478   4.332  0.3573 -0.2100  0.3161
 5406TIP3    H116182   4.613   4.468   4.385  1.0441  0.4540 -0.5545
 5406TIP3    H216183   4.493   4.558   4.366  1.4778  0.9519 -0.9608
 5407TIP3   OH216184   1.152   0.303   4.119 -0.4133 -0.4079 -0.1519
 5407TIP3    H116185   1.140   0.303   4.214  0.2820  1.0182 -0.0377
 5407TIP3    H216186   1.131   0.393   4.092  0.0601 -0.6091 -1.2552
 5408TIP3   OH216187   6.022   1.477   3.482  0.1848 -0.0306 -0.6297
 5408TIP3    H116188   6.068   1.441   3.557  0.4286  0.7490 -0.4005
 5408TIP3    H216189   6.080   1.459   3.407  0.1225 -0.4510 -0.5823
 5409TIP3   OH216190   1.991   6.064   5.397 -0.7281 -0.1893  0.8183
 5409TIP3    H116191   1.904   6.089   5.368 -0.5333  0.5825  0.8727
 5409TIP3    H216192   1.980   5.977   5.436 -1.1597 -0.8655 -0.7192
 5410TIP3   OH216193   2.023   5.524   5.600  0.2479 -0.2721  0.2168
 5410TIP3    H116194   2.111   5.498   5.574  0.8496  0.1147  1.7252
 5410TIP3    H216195   1.970   5.445   5.588  0.8257 -0.5417 -0.5892
 5411TIP3   OH216196   4.252   2.549   5.740 -0.2017 -0.0214 -0.1470
 5411TIP3    H116197   4.215   2.575   5.655 -0.3633  0.9251  0.2064
 5411TIP3    H216198   4.240   2.625   5.796  0.1720 -0.5378  0.6527
 5412TIP3   OH216199   2.898   2.532   1.105 -0.0074  0.0195  0.1957
 5412TIP3    H116200   2.992   2.552   1.103  0.0413 -0.2593 -0.9968
 5412TIP3    H216201   2.863   2.578   1.028 -0.4686 -1.6359 -0.6198
 5413TIP3   OH216202   6.257   4.115   5.375  0.1106 -0.2888 -0.0960
 5413TIP3    H116203   6.307   4.087   5.452 -0.2227 -1.1256 -0.1692
 5413TIP3    H216204   6.217   4.034   5.343 -1.6681  0.4266  0.2288
 5414TIP3   OH216205   6.906   2.043   0.310 -0.1512 -0.2822 -0.2756
 5414TIP3    H116206   6.862   1.961   0.328 -0.8460 -0.0682 -0.9798
 5414TIP3    H216207   6.916   2.046   0.215  3.8931 -1.6209 -0.1074
 5415TIP3   OH216208   2.899   0.752   3.136 -0.1622  0.1825 -0.5408
 5415TIP3    H116209   2.921   0.754   3.229 -0.8978 -0.1942 -0.3510
 5415TIP3    H216210   2.978   0.782   3.092  1.2575 -2.5093  0.0186
 5416TIP3   OH216211   7.133   5.734   2.485 -0.4662 -0.2268 -0.2147
 5416TIP3    H116212   7.146   5.715   2.392  0.5721 -3.6887  0.4777
 5416TIP3    H216213   7.053   5.686   2.507 -1.2614  1.3891  0.5028
 5417TIP3   OH216214   0.487   1.211   4.345  0.1738  0.1911  0.2851
 5417TIP3    H116215   0.443   1.138   4.302  0.0716  0.7411 -0.5746
 5417TIP3    H216216   0.445   1.218   4.430 -0.9306  0.2566 -0.2505
 5418TIP3   OH216217   0.125   0.045   1.263  0.1207 -0.0293 -0.3517
 5418TIP3    H116218   0.101   0.060   1.172 -0.7662 -1.7453 -0.4441
 5418TIP3    H216219   0.129  -0.051   1.272  1.7862  0.1091  1.0143
 5419TIP3   OH216220   6.393   6.046   3.711  0.1801 -0.3536 -0.3609
 5419TIP3    H116221   6.381   6.064   3.617  1.9369 -1.0334 -0.7609
 5419TIP3    H216222   6.435   6.125   3.745 -0.2757 -0.1862 -0.1838
 5420TIP3   OH216223   4.290   1.285   5.624  0.1496  0.5495  0.3605
 5420TIP3    H116224   4.236   1.221   5.669  1.2453 -0.7906 -0.1520
 5420TIP3    H216225   4.233   1.323   5.558 -0.5144  0.0613  0.6487
 5421TIP3   OH216226   5.454   1.536   5.031  0.1935 -0.0558  0.0910
 5421TIP3    H116227   5.448   1.586   5.113  2.3772 -1.2750  1.0596
 5421TIP3    H216228   5.382   1.473   5.036 -1.3042  1.5409 -0.1981
 5422TIP3   OH216229   4.476   2.477   4.298  0.3531  0.0713 -0.1926
 5422TIP3    H116230   4.425   2.553   4.269 -1.6685 -1.7887 -1.8323
 5422TIP3    H216231   4.426   2.442   4.372  1.0361  0.0337  0.2630
 5423TIP3   OH216232   0.496   6.041   3.098  0.0784 -0.0316 -0.2727
 5423TIP3    H116233   0.520   6.047   3.005 -2.0099 -0.1793 -0.8685
 5423TIP3    H216234   0.468   6.129   3.122 -0.8685 -0.3330 -0.2377
 5424TIP3   OH216235   3.023   2.380   3.045 -0.5382  0.3038 -0.0023
 5424TIP3    H116236   2.974   2.433   2.982  1.7703  2.2895 -0.2743
 5424TIP3    H216237   3.039   2.439   3.119  1.7739 -0.0676 -0.1303
 5425TIP3   OH216238   6.334   1.491   4.686 -0.3665 -1.0244 -0.0997
 5425TIP3    H116239   6.384   1.415   4.660 -1.7784 -1.9171 -0.3142
 5425TIP3    H216240   6.396   1.545   4.736  1.0595 -1.5536 -1.2435
 5426TIP3   OH216241   3.529   0.761   2.691  0.2758 -0.3998 -0.3039
 5426TIP3    H116242   3.465   0.722   2.750 -0.5718  0.3585 -0.6971
 5426TIP3    H216243   3.491   0.845   2.667  0.6347 -0.6445 -1.8414
 5427TIP3   OH216244   0.307   0.558   5.149  0.0604  0.8303 -0.1531
 5427TIP3    H116245   0.212   0.561   5.156  0.0585 -0.1900  0.5351
 5427TIP3    H216246   0.338   0.567   5.239  0.5559  0.1353 -0.2425
 5428TIP3   OH216247   5.064   0.715   5.507 -0.1718  0.6349  0.3471
 5428TIP3    H116248   5.027   0.801   5.492 -0.5773  0.7730  1.8947
 5428TIP3    H216249   5.112   0.694   5.427 -1.5630  1.5025 -0.7615
 5429TIP3   OH216250   3.820   5.213   4.083  0.5535  0.0436 -0.0060
 5429TIP3    H116251   3.840   5.286   4.024  0.0057  0.6129  0.4911
 5429TIP3    H216252   3.832   5.249   4.170 -1.9676  0.2868  0.3320
 5430TIP3   OH216253   2.833   1.294   0.160  0.0726  0.4558 -0.2410
 5430TIP3    H116254   2.928   1.302   0.158  0.1690 -0.7575 -1.1153
 5430TIP3    H216255   2.812   1.278   0.252  1.0630 -2.8922 -0.4963
 5431TIP3   OH216256   1.616   2.619   1.461  0.6206  0.6620 -0.0148
 5431TIP3    H116257   1.604   2.713   1.443  0.6098  1.0856  1.9376
 5431TIP3    H216258   1.628   2.615   1.556 -0.1736 -1.4114  0.0377
 5432TIP3   OH216259   5.504   0.685   5.163 -0.0761  0.3049 -0.1836
 5432TIP3    H116260   5.583   0.631   5.163  0.2097  0.5491 -2.8229
 5432TIP3    H216261   5.536   0.774   5.178 -0.0960  0.1666  0.6766
 5433TIP3   OH216262   6.122   5.770   0.096  0.5466 -0.1252 -0.0056
 5433TIP3    H116263   6.160   5.826   0.028  1.5686  0.2952  0.8717
 5433TIP3    H216264   6.197   5.725   0.134  0.1417  0.3604  1.4672
 5434TIP3   OH216265   6.164   5.465   3.148  0.4919  0.2286  0.2130
 5434TIP3    H116266   6.089   5.492   3.200  0.3444  0.3356 -0.0565
 5434TIP3    H216267   6.129   5.451   3.060  0.4540 -1.2785  0.4291
 5435TIP3   OH216268   2.455   5.758   1.308  0.2532 -0.0809  0.1519
 5435TIP3    H116269   2.513   5.817   1.357  0.0200  0.8247 -0.6264
 5435TIP3    H216270   2.492   5.756   1.220 -0.5507  0.0258 -0.1984
 5436TIP3   OH216271   4.269   5.208   1.738  0.0663 -0.2222 -0.0264
 5436TIP3    H116272   4.362   5.194   1.752  0.1157 -0.3121 -0.4291
 5436TIP3    H216273   4.231   5.210   1.826  0.4381 -0.2389  0.1349
 5437TIP3   OH216274   2.154   6.564   4.949 -0.1316 -0.3737 -0.3059
 5437TIP3    H116275   2.213   6.500   4.987 -1.1635 -0.2295  1.6718
 5437TIP3    H216276   2.075   6.514   4.927  0.4770 -0.4790 -2.4809
 5438TIP3   OH216277   4.655   2.958   0.069  0.1190  0.0904  0.5536
 5438TIP3    H116278   4.727   2.901   0.095  0.2263 -0.0383 -0.0256
 5438TIP3    H216279   4.620   2.991   0.152  2.1092  1.7419  0.8171
 5439TIP3   OH216280   6.175   5.835   3.256 -0.3094  0.1585 -0.0237
 5439TIP3    H116281   6.200   5.759   3.309 -0.0590 -0.4834 -1.0320
 5439TIP3    H216282   6.157   5.904   3.320 -1.8021 -1.0973  0.9822
 5440TIP3   OH216283   2.435   3.143   1.534 -0.6510  0.3979 -0.0688
 5440TIP3    H116284   2.453   3.149   1.440 -0.4214  2.0527  0.0383
 5440TIP3    H216285   2.348   3.181   1.544 -1.2711 -1.0580  0.2470
 5441TIP3   OH216286   4.923   5.376   2.366 -0.3911 -0.2955  1.1284
 5441TIP3    H116287   4.926   5.350   2.273  1.3724 -1.9150  1.5652
 5441TIP3    H216288   4.969   5.306   2.411 -0.2826  0.9999  3.1367
 5442TIP3   OH216289   0.471   0.440   5.412 -0.4350  0.2824 -0.1905
 5442TIP3    H116290   0.498   0.418   5.501 -1.6007 -0.5374 -0.0240
 5442TIP3    H216291   0.476   0.536   5.409  0.6966  0.2634  0.3826
 5443TIP3   OH216292   3.696   6.108   0.293 -0.0545  0.0017  0.0214
 5443TIP3    H116293   3.652   6.052   0.357 -1.7429 -1.4889 -2.2753
 5443TIP3    H216294   3.656   6.194   0.305 -1.5945 -0.6607 -0.0771
 5444TIP3   OH216295   4.370   5.399   0.841  0.3033  0.1194  0.3059
 5444TIP3    H116296   4.403   5.446   0.918  1.9171 -0.9235  0.2975
 5444TIP3    H216297   4.330   5.468   0.787  0.2876  1.0671  1.4622
 5445TIP3   OH216298   0.720   0.204   5.649  0.5856 -0.1702  0.2932
 5445TIP3    H116299   0.774   0.246   5.582  1.0261  0.0811  0.7995
 5445TIP3    H216300   0.759   0.117   5.661  1.6288  0.4194  1.4865
 5446TIP3   OH216301   1.908   2.594   0.289  0.4604  0.0672 -0.5846
 5446TIP3    H116302   1.870   2.540   0.359  1.1552 -1.7852 -1.5753
 5446TIP3    H216303   1.848   2.584   0.215  0.5225  0.8065 -0.7505
 5447TIP3   OH216304   2.505   1.313   4.025 -0.5205 -0.1089  0.2027
 5447TIP3    H116305   2.547   1.289   4.108  2.0904  1.2428 -0.6273
 5447TIP3    H216306   2.526   1.241   3.966 -2.0995 -0.9110  0.5638
 5448TIP3   OH216307   3.027   6.090   2.587  0.7691 -0.3494 -0.4220
 5448TIP3    H116308   2.957   6.044   2.540 -0.3907 -0.9242  1.7434
 5448TIP3    H216309   3.032   6.176   2.545  0.0195 -0.9285 -1.7632
 5449TIP3   OH216310   0.140   1.349   1.664  0.4844  0.0067  0.2964
 5449TIP3    H116311   0.153   1.254   1.665  2.9231  0.2871  0.7968
 5449TIP3    H216312   0.186   1.381   1.741 -1.0992  1.5497  0.6664
 5450TIP3   OH216313   1.593   1.481   1.709  0.3824 -0.1332  0.0002
 5450TIP3    H116314   1.622   1.418   1.643  0.1372 -1.5446  1.1785
 5450TIP3    H216315   1.529   1.535   1.664  0.4935 -0.8245 -1.0220
 5451TIP3   OH216316   7.159   4.547   3.705 -0.1163 -0.0369 -0.0754
 5451TIP3    H116317   7.200   4.471   3.746 -0.8707  0.6858  2.2209
 5451TIP3    H216318   7.214   4.621   3.733 -0.6245  0.4943 -0.4515
 5452TIP3   OH216319   3.334   0.859   3.493  0.2506 -0.1898 -0.3481
 5452TIP3    H116320   3.378   0.943   3.478  0.5895 -0.4070 -0.5789
 5452TIP3    H216321   3.272   0.851   3.421 -2.5551  1.6256  1.6237
 5453TIP3   OH216322   4.112   2.709   4.956 -0.2769  0.3055  0.4728
 5453TIP3    H116323   4.059   2.786   4.933  1.6605  1.7698  0.6312
 5453TIP3    H216324   4.135   2.670   4.872 -2.0812 -0.7681  0.4129
 5454TIP3   OH216325   4.480   6.075   1.772  0.2831 -0.1274 -0.0182
 5454TIP3    H116326   4.529   6.143   1.820  1.2040 -0.6921 -0.1244
 5454TIP3    H216327   4.528   6.066   1.690  0.5845 -1.3749  0.2733
 5455TIP3   OH216328   1.544   1.892   2.458  0.0727  0.0959  0.1572
 5455TIP3    H116329   1.500   1.814   2.425 -0.5578 -0.2487  1.7446
 5455TIP3    H216330   1.611   1.859   2.517 -1.2606  0.7367  2.1307
 5456TIP3   OH216331   4.392   0.203   3.511 -0.4596 -0.7635  0.1191
 5456TIP3    H116332   4.306   0.201   3.469 -0.0818 -0.5299 -0.6634
 5456TIP3    H216333   4.386   0.135   3.579 -1.3134 -0.6372  0.1778
 5457TIP3   OH216334   2.528   6.614   5.283 -0.4965 -0.6710  0.1952
 5457TIP3    H116335   2.501   6.526   5.257  0.2791 -0.0022 -3.3680
 5457TIP3    H216336   2.624   6.610   5.283 -0.4504 -0.2469  1.8858
 5458TIP3   OH216337   0.623   3.890   1.192 -0.1891 -1.1042  0.2564
 5458TIP3    H116338   0.548   3.834   1.208 -0.5492 -0.5401  0.5799
 5458TIP3    H216339   0.690   3.832   1.155 -0.9048 -1.5382 -0.3789
 5459TIP3   OH216340   4.171   2.150   0.541  0.3451  0.0995 -0.2455
 5459TIP3    H116341   4.238   2.083   0.555  1.3765  1.0911 -0.3534
 5459TIP3    H216342   4.098   2.102   0.500  0.1761 -1.3809  1.6562
 5460TIP3   OH216343   3.526   6.014   0.470  0.5458  0.3185 -0.6003
 5460TIP3    H116344   3.433   6.004   0.453  0.3292 -1.1370  1.1030
 5460TIP3    H216345   3.546   5.947   0.536  2.8910  0.2867 -1.2346
 5461TIP3   OH216346   2.743   2.912   2.150 -0.0293 -0.4899  0.3230
 5461TIP3    H116347   2.765   2.893   2.059  0.2539 -0.5044  0.3928
 5461TIP3    H216348   2.686   2.988   2.146 -0.0148 -0.4886  0.1339
 5462TIP3   OH216349   6.495   5.992   0.715 -0.3724 -0.0687 -0.0081
 5462TIP3    H116350   6.502   5.945   0.631  2.8186 -0.3060  0.2824
 5462TIP3    H216351   6.519   5.927   0.781 -1.4610  0.5135  1.0021
 5463TIP3   OH216352   6.963   5.029   0.213  0.1617 -0.0026 -0.1501
 5463TIP3    H116353   6.888   5.078   0.247 -1.4480 -2.3264 -0.1045
 5463TIP3    H216354   6.961   5.047   0.119  0.8465  1.5552  0.1020
 5464TIP3   OH216355   6.525   0.495   3.798  0.3784 -0.2741  0.0004
 5464TIP3    H116356   6.561   0.548   3.869  2.8581 -3.6628  1.5021
 5464TIP3    H216357   6.431   0.513   3.800  0.6747  1.5023  2.5846
 5465TIP3   OH216358   7.088   0.154   1.318  0.1898 -0.3698 -0.4472
 5465TIP3    H116359   7.029   0.159   1.243  2.3619  0.7181 -2.2001
 5465TIP3    H216360   7.168   0.115   1.283  0.4315 -2.3274  1.9728
 5466TIP3   OH216361   0.167   5.068   4.096 -0.0741  0.0280  0.0618
 5466TIP3    H116362   0.186   4.987   4.049 -0.4383  1.0411 -1.9569
 5466TIP3    H216363   0.088   5.048   4.146  0.5323 -1.2065  0.5498
 5467TIP3   OH216364   1.941   0.907   0.796 -0.6623 -0.3858 -0.1584
 5467TIP3    H116365   1.923   0.838   0.859 -0.7514 -0.0576  0.1822
 5467TIP3    H216366   2.001   0.867   0.733  0.1709 -0.4484  0.6501
 5468TIP3   OH216367   0.751   3.556   4.306 -0.3305 -0.1914 -0.4605
 5468TIP3    H116368   0.700   3.604   4.241 -0.1759  0.5286 -0.0679
 5468TIP3    H216369   0.686   3.527   4.370 -0.4199 -0.4703 -0.6778
 5469TIP3   OH216370   6.219   6.290   2.807 -0.0208 -0.2625  0.2098
 5469TIP3    H116371   6.236   6.316   2.897 -1.5857 -0.1561  0.5028
 5469TIP3    H216372   6.178   6.366   2.767 -0.3682 -0.6927 -0.2678
 5470TIP3   OH216373   6.484   0.831   1.326 -0.2892  0.0254  0.7041
 5470TIP3    H116374   6.513   0.921   1.344 -1.3138  0.6801 -0.6891
 5470TIP3    H216375   6.445   0.802   1.408  2.0982 -0.0318  1.9000
 5471TIP3   OH216376   2.850   2.092   4.197 -0.3549 -0.4719  0.6336
 5471TIP3    H116377   2.912   2.163   4.180  0.8540 -1.3867  1.0734
 5471TIP3    H216378   2.905   2.013   4.199 -1.5552 -1.3131  0.9807
 5472TIP3   OH216379   2.045   5.816   1.612 -0.0062  0.2492 -0.0152
 5472TIP3    H116380   1.990   5.837   1.536 -0.3460  1.9893  0.6583
 5472TIP3    H216381   1.999   5.744   1.655 -0.9211  0.6116 -0.3483
 5473TIP3   OH216382   7.084   6.519   1.345 -0.3527 -0.6717 -0.6895
 5473TIP3    H116383   6.994   6.524   1.313 -0.1465  1.4001 -1.1041
 5473TIP3    H216384   7.136   6.501   1.266 -0.2262  0.3600 -0.8594
 5474TIP3   OH216385   4.324   6.767   1.521  0.3270  0.3614 -0.5417
 5474TIP3    H116386   4.306   6.858   1.542  0.5302  0.5641 -1.1957
 5474TIP3    H216387   4.418   6.757   1.536  0.6845  0.7862 -2.2150
 5475TIP3   OH216388   5.926   3.824   4.389 -0.1162  0.0091  0.1978
 5475TIP3    H116389   5.976   3.899   4.421 -1.8595  1.5687 -0.4751
 5475TIP3    H216390   5.985   3.779   4.329  0.4321  1.8950 -0.7403
 5476TIP3   OH216391   3.442   3.250   3.777 -0.8669  0.1539 -0.5067
 5476TIP3    H116392   3.527   3.211   3.801  0.0843  2.0881 -0.5427
 5476TIP3    H216393   3.423   3.214   3.691  0.1420  0.0013 -0.6855
 5477TIP3   OH216394   4.363   1.948   0.519  0.4599  0.0669  0.0969
 5477TIP3    H116395   4.347   1.869   0.468  4.0217 -1.3720  0.9276
 5477TIP3    H216396   4.452   1.975   0.495  0.5968  1.9179  2.2731
 5478TIP3   OH216397   5.388   0.730   1.360 -0.2282  0.2095  0.6719
 5478TIP3    H116398   5.433   0.703   1.440  0.2373  0.5380  0.5250
 5478TIP3    H216399   5.307   0.772   1.391  0.4162  1.2344  1.0318
 5479TIP3   OH216400   5.339   1.345   4.296 -0.1545  0.7841 -0.5496
 5479TIP3    H116401   5.429   1.314   4.291  0.0656  1.1284  0.7561
 5479TIP3    H216402   5.346   1.439   4.311 -0.7572  0.9782 -1.4069
 5480TIP3   OH216403   1.750   1.317   0.877 -0.2325  0.4083  0.3208
 5480TIP3    H116404   1.702   1.336   0.796  1.1697 -0.7577 -0.8407
 5480TIP3    H216405   1.840   1.302   0.848  0.3385  0.1612  2.1363
 5481TIP3   OH216406   0.611   1.541   5.031  0.9299 -0.5132  0.0235
 5481TIP3    H116407   0.552   1.469   5.009 -0.1397  0.1624  0.5954
 5481TIP3    H216408   0.557   1.619   5.027  1.9768  0.2267 -0.1717
 5482TIP3   OH216409   3.967   5.592   4.132 -0.0224  0.0937 -0.6416
 5482TIP3    H116410   3.875   5.577   4.153  0.0809  0.8969  0.4765
 5482TIP3    H216411   3.984   5.536   4.057 -1.4024 -0.1235 -0.8130
 5483TIP3   OH216412   3.449   3.789   4.851  0.6016  0.8725  0.5913
 5483TIP3    H116413   3.530   3.838   4.862  0.9408  0.3892  0.2967
 5483TIP3    H216414   3.445   3.732   4.927  0.6254  0.7738  0.5187
 5484TIP3   OH216415   5.741   4.838   0.633  0.1708 -0.1433  0.1637
 5484TIP3    H116416   5.725   4.882   0.549 -0.0584 -0.6612 -0.0751
 5484TIP3    H216417   5.655   4.838   0.676 -0.0140 -1.0323 -0.1799
 5485TIP3   OH216418   3.188   5.356   5.872  0.2667  0.1246 -0.1431
 5485TIP3    H116419   3.106   5.378   5.918  0.1874 -1.5016  0.5561
 5485TIP3    H216420   3.160   5.330   5.785  0.0926  0.0934 -0.0797
 5486TIP3   OH216421   0.448   3.957   3.556  0.0166  0.3761  0.5002
 5486TIP3    H116422   0.516   3.972   3.490 -0.6100  0.1456 -0.1992
 5486TIP3    H216423   0.497   3.946   3.638  0.8719 -0.6078 -0.1292
 5487TIP3   OH216424   0.328   6.194   0.625  0.4530  0.4274  0.3608
 5487TIP3    H116425   0.326   6.276   0.675  0.1543 -0.4323  1.8066
 5487TIP3    H216426   0.258   6.141   0.663  1.3116 -0.8999  0.1524
 5488TIP3   OH216427   6.415   5.205   2.531  0.1278 -0.0373  0.3201
 5488TIP3    H116428   6.507   5.197   2.557  0.2506 -1.0421 -0.3703
 5488TIP3    H216429   6.367   5.191   2.613  0.4735 -4.2580  0.0582
 5489TIP3   OH216430   4.719   0.146   2.608 -0.1002  0.0625  0.1837
 5489TIP3    H116431   4.704   0.229   2.564  0.2197  0.3757  0.6475
 5489TIP3    H216432   4.682   0.080   2.550  1.6127  0.2981 -1.2791
 5490TIP3   OH216433   3.148   6.641   3.741  0.1701  0.0313 -0.2811
 5490TIP3    H116434   3.130   6.730   3.770 -1.6883  0.2440 -1.9270
 5490TIP3    H216435   3.151   6.589   3.822 -0.2540  1.3228  0.5849
 5491TIP3   OH216436   4.019   5.014   3.304 -0.2513 -0.0724  0.1358
 5491TIP3    H116437   4.108   4.983   3.287 -0.6905 -2.2397  1.3815
 5491TIP3    H216438   4.024   5.050   3.393 -0.5862 -0.0598  0.1481
 5492TIP3   OH216439   6.940   5.411   1.602  0.2436 -0.0393  0.5433
 5492TIP3    H116440   6.991   5.428   1.523  0.1123 -1.0052  0.2413
 5492TIP3    H216441   6.915   5.319   1.595  0.0108 -0.0625  1.5844
 5493TIP3   OH216442   1.103   0.650   3.026  0.1947  0.0160  0.4517
 5493TIP3    H116443   1.011   0.648   3.002  0.5934 -1.1273 -1.0820
 5493TIP3    H216444   1.150   0.625   2.947  1.8181  0.2808  1.2825
 5494TIP3   OH216445   5.388   1.115   1.194  0.3051 -0.6618 -0.9756
 5494TIP3    H116446   5.337   1.186   1.156 -0.4744 -1.2052 -0.9630
 5494TIP3    H216447   5.328   1.040   1.196  0.8951 -1.1320 -0.3482
 5495TIP3   OH216448   3.773   2.525   5.436 -0.1154 -0.4068 -0.2063
 5495TIP3    H116449   3.678   2.512   5.436 -0.1097 -0.4502 -0.0344
 5495TIP3    H216450   3.808   2.451   5.486 -0.0604  0.0853  0.4973
 5496TIP3   OH216451   4.934   0.502   1.870  0.4303  0.2287  0.1927
 5496TIP3    H116452   4.927   0.596   1.888 -1.1376 -0.0165  1.0403
 5496TIP3    H216453   4.985   0.468   1.944  0.7901  0.3666  0.0115
 5497TIP3   OH216454   6.682   4.938   4.021 -0.3890 -0.5027  0.5372
 5497TIP3    H116455   6.722   4.870   3.967  1.4004  0.0710  1.0547
 5497TIP3    H216456   6.641   4.890   4.093 -2.2939 -1.2318 -0.9484
 5498TIP3   OH216457   3.127   1.461   1.238  0.4661 -0.1245  0.0342
 5498TIP3    H116458   3.113   1.532   1.175 -1.5229 -1.4840 -1.2142
 5498TIP3    H216459   3.127   1.503   1.323  1.0668  1.5466 -0.7511
 5499TIP3   OH216460   1.625   2.439   4.506  0.6993 -0.5704 -0.0419
 5499TIP3    H116461   1.604   2.414   4.596 -1.3276  1.0438  0.0038
 5499TIP3    H216462   1.613   2.534   4.505  1.1574 -0.5040 -1.9059
 5500TIP3   OH216463   6.353   1.428   3.950 -0.2006 -0.3061  0.3391
 5500TIP3    H116464   6.322   1.501   4.003  1.8441  1.9820 -1.4266
 5500TIP3    H216465   6.300   1.353   3.980 -1.2273  1.4627  3.3851
 5501TIP3   OH216466   2.981   1.592   2.174 -0.3041  0.5277  0.3692
 5501TIP3    H116467   2.896   1.622   2.141 -0.5884 -1.3450 -0.7488
 5501TIP3    H216468   3.045   1.626   2.111 -0.4712  0.0376 -0.0706
 5502TIP3   OH216469   2.354   4.628   5.815 -0.5429 -0.4416  0.2797
 5502TIP3    H116470   2.372   4.715   5.779 -1.1847 -0.7197 -0.7496
 5502TIP3    H216471   2.298   4.645   5.891  0.2976  0.1101  0.7961
 5503TIP3   OH216472   0.892   2.535   0.934  0.0359 -0.4454 -0.3396
 5503TIP3    H116473   0.848   2.549   1.018 -1.1161 -1.2256 -0.7814
 5503TIP3    H216474   0.971   2.589   0.939 -1.4008  1.7681  0.1387
 5504TIP3   OH216475   2.395   4.382   1.658 -0.6361  0.1042  0.0126
 5504TIP3    H116476   2.356   4.358   1.743 -0.0990 -0.6645  0.0518
 5504TIP3    H216477   2.449   4.459   1.678 -1.1425  0.4170  0.2040
 5505TIP3   OH216478   2.225   0.552   5.538 -0.2730 -0.0667  0.4384
 5505TIP3    H116479   2.312   0.564   5.501 -1.2396  2.3196 -1.3028
 5505TIP3    H216480   2.226   0.603   5.619 -0.1838  0.3199  0.1945
 5506TIP3   OH216481   2.090   2.086   1.337 -0.0710 -0.3280 -0.3832
 5506TIP3    H116482   2.170   2.125   1.301  0.2018 -1.8054 -1.4370
 5506TIP3    H216483   2.025   2.156   1.329  1.4367  1.5309  2.0946
 5507TIP3   OH216484   1.843   3.310   1.469 -0.0517 -0.3354  0.3639
 5507TIP3    H116485   1.760   3.330   1.513  1.3298  0.8746  2.5834
 5507TIP3    H216486   1.879   3.236   1.518  0.8875  0.1491  0.4250
 5508TIP3   OH216487   6.486   5.137   3.877  0.4936 -0.6455 -0.1136
 5508TIP3    H116488   6.518   5.227   3.864  1.2405 -0.8979 -0.0997
 5508TIP3    H216489   6.535   5.106   3.953  1.4124 -1.5968 -1.0610
 5509TIP3   OH216490   2.336   1.960   3.669 -0.0006  0.4094 -0.0697
 5509TIP3    H116491   2.358   2.040   3.621 -1.0936  0.1982 -0.9424
 5509TIP3    H216492   2.411   1.947   3.727  1.5339  0.5219 -1.9047
 5510TIP3   OH216493   3.947   2.548   4.513  0.1562  0.4385  0.3559
 5510TIP3    H116494   3.955   2.461   4.473  2.1550  0.9700 -0.5455
 5510TIP3    H216495   3.878   2.538   4.578  1.3208 -2.2719  1.3663
 5511TIP3   OH216496   3.269   3.699   4.302  0.3560  0.5905  0.2337
 5511TIP3    H116497   3.187   3.679   4.257  0.2202  1.1326  0.2312
 5511TIP3    H216498   3.262   3.656   4.387  0.3856  0.0080 -0.0574
 5512TIP3   OH216499   4.713   6.447   1.332 -0.3204  0.0266 -0.4402
 5512TIP3    H116500   4.786   6.386   1.341  1.2075  1.8130 -0.1340
 5512TIP3    H216501   4.706   6.488   1.418 -2.3651 -0.7628 -0.1633
 5513TIP3   OH216502   0.639   6.039   5.462 -0.3211 -0.3073  0.0286
 5513TIP3    H116503   0.634   6.056   5.556 -1.1808 -3.5200  0.6910
 5513TIP3    H216504   0.555   5.998   5.441 -0.0792  0.1993 -2.1321
 5514TIP3   OH216505   3.646   1.193   1.618  0.0325  0.0071  0.3658
 5514TIP3    H116506   3.659   1.268   1.560  2.6711 -0.1378  0.6478
 5514TIP3    H216507   3.683   1.222   1.702 -0.5377 -1.0019  0.9741
 5515TIP3   OH216508   4.901   3.961   4.977  0.3433  0.2241 -0.4029
 5515TIP3    H116509   4.861   3.883   5.013  0.1986 -0.4295 -1.9145
 5515TIP3    H216510   4.943   3.932   4.896  1.0042  1.5465 -0.5716
 5516TIP3   OH216511   6.948   1.098   2.183 -0.3333  0.5929 -0.8889
 5516TIP3    H116512   7.017   1.158   2.156 -0.9982  1.3569 -0.9396
 5516TIP3    H216513   6.987   1.011   2.177  0.5645  1.0020 -1.0679
 5517TIP3   OH216514   0.938   5.378   1.659 -0.5462 -0.5262 -0.0734
 5517TIP3    H116515   0.878   5.306   1.678 -0.8326 -0.5004 -0.8675
 5517TIP3    H216516   0.941   5.383   1.564  1.5200 -1.1838 -0.0888
 5518TIP3   OH216517   4.843   2.313   4.293  0.7741  0.1606 -0.1947
 5518TIP3    H116518   4.824   2.407   4.288  0.1958  0.0603  0.0279
 5518TIP3    H216519   4.785   2.274   4.228  1.0698 -0.0387 -0.3411
 5519TIP3   OH216520   0.600   4.674   3.568  0.5450 -0.6378 -0.1076
 5519TIP3    H116521   0.593   4.624   3.487  1.2953 -0.4533 -0.2893
 5519TIP3    H216522   0.647   4.616   3.628 -1.9392 -1.6899  0.9632
 5520TIP3   OH216523   0.785   3.954   0.262 -0.0639  0.0489 -0.4742
 5520TIP3    H116524   0.786   3.965   0.357  1.0713 -0.9571 -0.3329
 5520TIP3    H216525   0.807   3.861   0.249 -0.4838  0.1053 -1.7077
 5521TIP3   OH216526   4.364   1.640   0.773 -0.3623 -0.1570 -0.3811
 5521TIP3    H116527   4.439   1.583   0.788  0.5298  0.6656 -1.5293
 5521TIP3    H216528   4.385   1.721   0.819 -1.4785 -0.5910  0.9724
 5522TIP3   OH216529   0.475   2.537   0.576  0.2822  0.1534  0.1613
 5522TIP3    H116530   0.450   2.619   0.532  0.2196 -0.2471 -0.5733
 5522TIP3    H216531   0.449   2.550   0.667 -1.1723  0.3630 -0.2535
 5523TIP3   OH216532   2.235   2.687   0.678  0.3196  0.1677  0.2409
 5523TIP3    H116533   2.216   2.594   0.671 -2.4091  0.7074 -0.4793
 5523TIP3    H216534   2.245   2.702   0.772  0.7116 -0.8284  0.3651
 5524TIP3   OH216535   2.135   0.171   5.188  0.1267 -0.1066 -0.6725
 5524TIP3    H116536   2.189   0.241   5.151 -0.6030  0.1870 -1.2013
 5524TIP3    H216537   2.197   0.100   5.205  1.1341  1.1465  1.1950
 5525TIP3   OH216538   6.917   1.791   3.570  0.3325 -0.7675 -0.1328
 5525TIP3    H116539   6.920   1.811   3.477  0.2158 -1.5865 -0.3244
 5525TIP3    H216540   6.827   1.807   3.596  0.4076 -0.3655 -0.1191
 5526TIP3   OH216541   4.655   0.403   1.885  0.3683 -0.5212  0.0073
 5526TIP3    H116542   4.647   0.313   1.918 -0.1677 -1.1023 -1.5945
 5526TIP3    H216543   4.750   0.418   1.878  0.4749 -0.6243  1.1119
 5527TIP3   OH216544   6.947   0.789   2.459 -0.5804  0.2189  0.2147
 5527TIP3    H116545   6.990   0.871   2.483 -1.5763  0.7260  0.2909
 5527TIP3    H216546   6.976   0.772   2.369 -0.3026  0.6012  0.2294
 5528TIP3   OH216547   1.161   5.283   4.085  0.1551  0.4797 -0.0873
 5528TIP3    H116548   1.111   5.364   4.087 -1.3616 -0.4145 -0.1017
 5528TIP3    H216549   1.196   5.279   3.996 -2.0781 -0.1712 -1.0156
 5529TIP3   OH216550   1.162   2.368   4.136 -0.2417  0.0079 -0.2348
 5529TIP3    H116551   1.192   2.282   4.164  1.1427  0.6864  0.4550
 5529TIP3    H216552   1.188   2.427   4.207 -0.3086  1.1434 -1.1239
 5530TIP3   OH216553   4.496   3.251   0.080 -0.6335  0.1421 -0.3745
 5530TIP3    H116554   4.431   3.278   0.144  0.4371  1.8931  0.0609
 5530TIP3    H216555   4.572   3.225   0.132 -0.1261  0.5631 -0.8821
 5531TIP3   OH216556   4.099   3.622   0.180  0.2328 -0.3911 -0.2913
 5531TIP3    H116557   4.034   3.575   0.232 -0.5504 -0.8678 -1.6355
 5531TIP3    H216558   4.054   3.643   0.099  0.9777  1.5907 -0.2359
 5532TIP3   OH216559   4.468   6.124   5.625  0.0093  0.0995 -0.6465
 5532TIP3    H116560   4.494   6.064   5.695 -1.5370 -1.6162 -1.4636
 5532TIP3    H216561   4.485   6.211   5.660  1.7211 -0.7723  0.8426
 5533TIP3   OH216562   3.481   2.497   3.707  0.2153  0.0507 -0.0415
 5533TIP3    H116563   3.495   2.424   3.646  1.0443  0.8255 -0.8078
 5533TIP3    H216564   3.568   2.534   3.720 -0.4449  2.3317 -1.5069
 5534TIP3   OH216565   3.461   2.119   0.354  0.1413  0.6561 -0.2217
 5534TIP3    H116566   3.467   2.028   0.326  1.1646  0.4962  0.4428
 5534TIP3    H216567   3.526   2.165   0.302 -1.5539  1.3806 -1.8116
 5535TIP3   OH216568   2.010   3.784   5.707 -0.3019 -0.1567  0.3715
 5535TIP3    H116569   1.922   3.787   5.670 -0.1126  0.3107 -0.0731
 5535TIP3    H216570   1.997   3.778   5.801 -0.7992 -1.3231  0.2411
 5536TIP3   OH216571   7.144   1.015   5.492  0.5845 -0.4282  0.7181
 5536TIP3    H116572   7.070   1.004   5.431  0.0519 -1.6800  1.5521
 5536TIP3    H216573   7.219   0.980   5.444  0.4800  0.0441  0.1943
 5537TIP3   OH216574   4.053   4.693   4.046  0.2220 -0.2483 -0.5032
 5537TIP3    H116575   4.131   4.703   3.991 -0.0334  0.6627 -0.7093
 5537TIP3    H216576   4.006   4.776   4.038 -0.2519 -0.4034  0.4280
 5538TIP3   OH216577   5.442   1.674   3.353 -0.3344 -0.2282  0.0372
 5538TIP3    H116578   5.460   1.601   3.412  2.0418 -0.7764 -1.2557
 5538TIP3    H216579   5.397   1.634   3.278 -0.2876 -0.1264 -0.0458
 5539TIP3   OH216580   0.303   4.622   2.333 -0.4636  0.7722  0.4747
 5539TIP3    H116581   0.325   4.588   2.246  1.2504  0.0358  1.1532
 5539TIP3    H216582   0.267   4.709   2.316  0.1862  0.7962 -0.9541
 5540TIP3   OH216583   1.316   1.955   2.172 -0.4555 -0.0914  0.1417
 5540TIP3    H116584   1.232   1.996   2.151 -0.2499 -0.0550 -0.6266
 5540TIP3    H216585   1.358   1.941   2.087 -0.8717 -2.7011  0.2843
 5541TIP3   OH216586   5.072   5.391   5.578 -0.2441  0.0089  0.1371
 5541TIP3    H116587   5.129   5.397   5.655 -2.8590  0.9930  2.1976
 5541TIP3    H216588   5.006   5.326   5.603 -0.5559 -0.4672 -1.7839
 5542TIP3   OH216589   6.932   3.868   4.568  0.5671  0.2071  0.0170
 5542TIP3    H116590   6.861   3.901   4.513  1.0876  0.8354 -0.2900
 5542TIP3    H216591   6.925   3.919   4.649  1.2845  1.0023 -0.4039
 5543TIP3   OH216592   4.971   3.820   5.589 -0.0220 -0.2086  0.0721
 5543TIP3    H116593   4.978   3.725   5.587 -0.5962 -0.2507 -0.0861
 5543TIP3    H216594   4.901   3.838   5.651 -0.3177  0.0832 -0.3383
 5544TIP3   OH216595   5.956   0.532   5.115  0.1611 -0.1971  0.0740
 5544TIP3    H116596   6.017   0.505   5.047  0.7763  1.4455 -0.0749
 5544TIP3    H216597   6.012   0.564   5.186 -0.3947 -3.1180  2.0083
 5545TIP3   OH216598   1.902   2.964   1.160 -0.4667 -0.2104  0.1838
 5545TIP3    H116599   1.854   2.926   1.087 -1.8325  0.3939  0.7455
 5545TIP3    H216600   1.944   3.042   1.123 -1.2785  0.1783  0.0680
 5546TIP3   OH216601   3.325   1.276   5.374  0.3265  0.1996 -0.2722
 5546TIP3    H116602   3.250   1.271   5.314  0.1120 -1.5986  0.0930
 5546TIP3    H216603   3.324   1.366   5.406 -1.9088  0.1425 -0.0085
 5547TIP3   OH216604   3.484   2.054   0.989 -0.4940  0.0027 -0.1653
 5547TIP3    H116605   3.560   2.109   1.010 -1.2071  1.5667 -1.4899
 5547TIP3    H216606   3.511   1.966   1.015  1.6800  0.5530 -0.3490
 5548TIP3   OH216607   1.234   2.401   2.687 -0.0195  0.0384  0.0848
 5548TIP3    H116608   1.312   2.417   2.634 -0.8465 -0.0461 -1.1966
 5548TIP3    H216609   1.268   2.361   2.768  1.1547 -1.3088 -1.0183
 5549TIP3   OH216610   6.952   1.017   4.915 -0.0237 -0.1614  0.7490
 5549TIP3    H116611   6.922   1.057   4.833 -1.6688 -0.4787  1.1555
 5549TIP3    H216612   7.010   0.946   4.887  1.3680  1.2037 -0.0413
 5550TIP3   OH216613   1.584   4.711   0.397  0.4862 -0.1420  0.1975
 5550TIP3    H116614   1.632   4.629   0.411  0.3629 -0.5109 -1.3778
 5550TIP3    H216615   1.642   4.763   0.341 -0.8322 -0.5207 -1.5784
 5551TIP3   OH216616   0.627   5.646   5.515  0.7384  0.0674  0.4962
 5551TIP3    H116617   0.623   5.646   5.419 -1.3003 -2.7518  0.4664
 5551TIP3    H216618   0.716   5.617   5.534  0.8542 -0.3456 -0.5737
 5552TIP3   OH216619   1.827   5.057   4.408 -0.2519 -0.6411 -0.1929
 5552TIP3    H116620   1.843   5.146   4.439  1.9763 -1.0708  0.0022
 5552TIP3    H216621   1.787   5.012   4.482  2.2800 -0.8421  1.1354
 5553TIP3   OH216622   6.077   3.953   4.966 -0.0029  0.0503  0.2975
 5553TIP3    H116623   5.983   3.949   4.950  0.0942  0.9363 -0.5535
 5553TIP3    H216624   6.116   3.909   4.890  0.3087  0.8829 -0.0386
 5554TIP3   OH216625   4.422   3.279   1.657  0.0005  0.0667  0.1047
 5554TIP3    H116626   4.426   3.360   1.605 -0.3724 -0.9533 -1.5745
 5554TIP3    H216627   4.337   3.284   1.701  0.0103  0.6124  0.0744
 5555TIP3   OH216628   5.617   2.919   1.895  0.1126  0.2637  0.8344
 5555TIP3    H116629   5.619   2.861   1.971  3.1083 -0.7768  0.0904
 5555TIP3    H216630   5.534   2.899   1.852  0.7063 -3.0851  0.9826
 5556TIP3   OH216631   4.469   6.454   4.432 -0.4294  0.4830  0.2498
 5556TIP3    H116632   4.430   6.471   4.519  0.3614  0.2686  0.6501
 5556TIP3    H216633   4.400   6.408   4.384 -1.1450  1.2450  0.5069
 5557TIP3   OH216634   5.010   5.955   5.525  0.6225 -0.3384 -0.4949
 5557TIP3    H116635   5.077   5.939   5.591  0.3713 -1.0524 -0.4054
 5557TIP3    H216636   4.978   6.043   5.545  1.2793 -0.1337 -0.3208
 5558TIP3   OH216637   3.808   2.171   3.331 -0.1830  0.2322 -0.3057
 5558TIP3    H116638   3.805   2.097   3.270  0.1692 -0.0100 -0.0361
 5558TIP3    H216639   3.756   2.239   3.289 -1.3151 -0.4975 -0.1029
 5559TIP3   OH216640   3.215   2.345   2.585 -0.0898 -0.3812  0.2977
 5559TIP3    H116641   3.167   2.358   2.667 -2.2287 -0.1467 -0.9047
 5559TIP3    H216642   3.211   2.250   2.570  3.0889 -0.9249  1.9479
 5560TIP3   OH216643   0.839   1.545   3.717  0.3295  0.0555  0.2722
 5560TIP3    H116644   0.858   1.451   3.726  0.9500  0.2491  1.2166
 5560TIP3    H216645   0.913   1.588   3.760  0.6711  1.0192 -1.2342
 5561TIP3   OH216646   0.122   2.740   2.078  0.0634  0.1060  0.7793
 5561TIP3    H116647   0.168   2.657   2.091  0.1169  0.0821  0.4383
 5561TIP3    H216648   0.032   2.721   2.107 -0.3365 -0.5444 -0.7529
 5562TIP3   OH216649   1.719   6.573   2.093 -0.2212  0.3056  0.1916
 5562TIP3    H116650   1.737   6.662   2.124  3.3959  0.7753 -2.5179
 5562TIP3    H216651   1.778   6.518   2.143 -2.4812 -0.7371  1.8863
 5563TIP3   OH216652   4.659   2.264   1.936  0.1732  0.6166  0.0396
 5563TIP3    H116653   4.577   2.227   1.903  0.1908  1.0725 -0.5440
 5563TIP3    H216654   4.724   2.197   1.920 -0.2941 -0.2948  1.7183
 5564TIP3   OH216655   5.435   6.172   5.496 -0.1787  0.2739  0.3222
 5564TIP3    H116656   5.438   6.135   5.408 -0.2126 -0.3633  0.5804
 5564TIP3    H216657   5.354   6.223   5.498 -0.9640 -0.9216  0.4393
 5565TIP3   OH216658   0.813   5.700   0.554 -0.1423  0.1227 -0.3500
 5565TIP3    H116659   0.841   5.742   0.473 -0.5683  1.1170  0.0025
 5565TIP3    H216660   0.893   5.662   0.591  0.4226  1.3711 -0.2483
 5566TIP3   OH216661   1.212   2.732   1.183 -0.6980 -0.0440  0.0538
 5566TIP3    H116662   1.278   2.688   1.237 -0.4343  0.9548  0.5677
 5566TIP3    H216663   1.188   2.810   1.233 -0.7869  0.6634 -1.0670
 5567TIP3   OH216664   3.207   6.468   5.221  0.2576 -0.0469 -0.3820
 5567TIP3    H116665   3.293   6.426   5.228  0.0381 -0.5000 -0.3770
 5567TIP3    H216666   3.212   6.519   5.140 -0.3809 -2.2435 -1.9016
 5568TIP3   OH216667   2.397   2.548   1.928 -0.1699 -0.5792  0.6115
 5568TIP3    H116668   2.392   2.617   1.994 -0.6832 -0.1825  0.1629
 5568TIP3    H216669   2.491   2.531   1.917  0.0123  0.6985  0.0552
 5569TIP3   OH216670   5.648   6.462   2.214 -0.4361 -0.4624 -0.0476
 5569TIP3    H116671   5.705   6.538   2.205 -0.2103 -0.0665  3.2314
 5569TIP3    H216672   5.702   6.397   2.259 -1.5413 -1.3957 -0.0193
 5570TIP3   OH216673   2.089   5.282   2.209  0.4005  0.1813  0.2603
 5570TIP3    H116674   2.066   5.339   2.135  1.0506  2.8607  2.0077
 5570TIP3    H216675   2.184   5.271   2.202  0.3317 -0.3843  0.1696
 5571TIP3   OH216676   2.277   4.443   4.439 -0.1467  0.3419 -0.5054
 5571TIP3    H116677   2.187   4.438   4.406 -0.3208 -0.4261  0.0513
 5571TIP3    H216678   2.288   4.535   4.462 -1.3937  0.1606  1.0089
 5572TIP3   OH216679   4.573   3.593   0.679  0.1655 -0.3806 -0.2472
 5572TIP3    H116680   4.480   3.614   0.669 -0.3902 -3.2421 -3.0302
 5572TIP3    H216681   4.578   3.543   0.760 -0.5676  0.5051  0.3553
 5573TIP3   OH216682   1.791   2.010   5.679 -0.6548 -0.5056 -0.1109
 5573TIP3    H116683   1.744   1.929   5.699  0.6482 -1.3971 -0.5558
 5573TIP3    H216684   1.862   1.984   5.620 -0.0071  0.9104 -0.0142
 5574TIP3   OH216685   2.045   1.421   4.653  0.0892 -0.0195  0.1970
 5574TIP3    H116686   2.050   1.440   4.559  1.4181  2.3940  0.6928
 5574TIP3    H216687   2.069   1.503   4.696  1.5782 -1.5990  2.6386
 5575TIP3   OH216688   0.848   0.117   0.647  0.1225  0.1947 -0.5706
 5575TIP3    H116689   0.819   0.080   0.564 -0.0883  0.7977 -0.7689
 5575TIP3    H216690   0.884   0.043   0.695  2.7343  0.2325 -2.2686
 5576TIP3   OH216691   0.905   5.192   2.685 -0.7586 -0.1349 -0.0993
 5576TIP3    H116692   0.842   5.137   2.731 -0.2512  0.5206  1.4667
 5576TIP3    H216693   0.912   5.271   2.739  2.0826 -0.5720  0.3629
 5577TIP3   OH216694   4.387   2.386   2.135  0.6599 -0.3686  0.0684
 5577TIP3    H116695   4.404   2.449   2.065  1.7759 -0.5847  0.1350
 5577TIP3    H216696   4.323   2.326   2.098 -1.5226  1.5572  0.4595
 5578TIP3   OH216697   2.951   5.400   3.769 -0.5889 -0.5954  0.1140
 5578TIP3    H116698   2.884   5.466   3.788  0.6880  0.8434 -0.1232
 5578TIP3    H216699   3.011   5.444   3.709  0.3649 -1.9744  0.0123
 5579TIP3   OH216700   2.367   4.141   1.530  0.0496  0.1112 -0.0332
 5579TIP3    H116701   2.400   4.140   1.440  1.1999  0.1252  0.3767
 5579TIP3    H216702   2.374   4.232   1.557 -2.1724  0.4997 -0.5720
 5580TIP3   OH216703   6.422   4.487   5.144 -0.4005 -0.1432  0.1497
 5580TIP3    H116704   6.482   4.545   5.190 -0.1401 -0.8951  0.7827
 5580TIP3    H216705   6.439   4.504   5.051  0.1037  0.3457  0.3274
 5581TIP3   OH216706   6.400   2.386   4.534 -0.0553 -0.5146  0.0524
 5581TIP3    H116707   6.354   2.406   4.615  0.7272 -0.4379  0.4863
 5581TIP3    H216708   6.412   2.291   4.535 -2.3006 -0.8861 -1.2162
 5582TIP3   OH216709   1.352   3.344   2.192 -0.3878 -0.2214  0.2452
 5582TIP3    H116710   1.355   3.339   2.288  1.2067 -1.4491  0.1912
 5582TIP3    H216711   1.270   3.301   2.168  0.5662 -2.6298  1.0019
 5583TIP3   OH216712   6.260   4.817   3.234 -0.1607  0.7143  0.1356
 5583TIP3    H116713   6.276   4.722   3.242 -0.1012  0.7295  0.1989
 5583TIP3    H216714   6.276   4.851   3.322  0.7002  0.9136 -0.0886
 5584TIP3   OH216715   4.033   4.170   1.534 -0.3285 -0.3842  0.4165
 5584TIP3    H116716   4.060   4.124   1.613  0.8484 -1.1185 -0.3727
 5584TIP3    H216717   4.106   4.227   1.513 -1.5992  1.6262  1.1395
 5585TIP3   OH216718   1.433   0.561   1.739 -0.0336  0.2019 -0.1590
 5585TIP3    H116719   1.341   0.554   1.762  0.0030 -0.2137 -0.1271
 5585TIP3    H216720   1.433   0.585   1.647 -0.1783  1.3774  0.1312
 5586TIP3   OH216721   2.506   2.638   5.718 -0.1008 -0.0740  0.6263
 5586TIP3    H116722   2.540   2.621   5.806  3.6119  1.5812 -0.3327
 5586TIP3    H216723   2.446   2.711   5.729 -1.0951 -1.0401  1.9705
 5587TIP3   OH216724   3.966   0.356   4.057  0.0379  0.1153 -0.1213
 5587TIP3    H116725   3.998   0.436   4.015  1.3758 -0.3838 -0.0919
 5587TIP3    H216726   3.909   0.316   3.991  0.2881  0.5047 -0.5863
 5588TIP3   OH216727   3.455   4.894   1.460  0.2599 -0.1128 -0.1935
 5588TIP3    H116728   3.524   4.866   1.520  0.1949 -0.5321 -0.3112
 5588TIP3    H216729   3.402   4.956   1.511  0.4654 -0.1269  0.0372
 5589TIP3   OH216730   6.967   1.701   0.777 -0.1590  0.2716  0.1679
 5589TIP3    H116731   6.892   1.641   0.776  0.0749 -0.0193  0.0056
 5589TIP3    H216732   6.953   1.758   0.701 -0.6345  0.7426  0.5996
 5590TIP3   OH216733   5.453   0.418   2.808 -0.7766 -0.2783  0.7425
 5590TIP3    H116734   5.435   0.512   2.805  1.3305  0.1405  0.0925
 5590TIP3    H216735   5.476   0.394   2.719  0.0985 -1.1141  1.1726
 5591TIP3   OH216736   2.782   4.797   0.615 -0.2243 -0.4967 -0.1840
 5591TIP3    H116737   2.866   4.806   0.660 -0.6881  0.0126  0.6036
 5591TIP3    H216738   2.736   4.879   0.634 -1.7678 -1.6273  1.2384
 5592TIP3   OH216739   4.869   5.610   5.387 -0.4724  0.9213 -0.3454
 5592TIP3    H116740   4.819   5.529   5.378 -0.4120  0.7080  1.0003
 5592TIP3    H216741   4.804   5.678   5.405 -0.3401  0.6074  1.6226
 5593TIP3   OH216742   5.961   6.513   4.709  0.0202  0.0321 -0.3828
 5593TIP3    H116743   5.943   6.421   4.730  0.7958 -0.0579 -0.0730
 5593TIP3    H216744   6.043   6.532   4.754  0.0053  0.8043 -0.6663
 5594TIP3   OH216745   6.405   3.336   0.462  0.2565  0.6540  0.3174
 5594TIP3    H116746   6.375   3.422   0.492  1.4537  0.8627  0.9576
 5594TIP3    H216747   6.399   3.340   0.367 -3.3472  0.0944  0.3665
 5595TIP3   OH216748   2.633   6.742   4.972 -0.3685 -0.1170  0.7933
 5595TIP3    H116749   2.595   6.787   4.897  0.3009  1.5283  1.3852
 5595TIP3    H216750   2.726   6.763   4.968 -0.3416  0.1348  2.1608
 5596TIP3   OH216751   0.795   0.576   5.419  0.0478 -0.1408  0.3997
 5596TIP3    H116752   0.778   0.569   5.513  2.2058  0.1714  0.8661
 5596TIP3    H216753   0.862   0.644   5.412  0.4429 -0.6587 -1.2977
 5597TIP3   OH216754   4.398   2.737   2.419  0.1088 -0.0089 -0.8897
 5597TIP3    H116755   4.470   2.743   2.356  0.0645 -2.1408 -1.1910
 5597TIP3    H216756   4.322   2.714   2.366  0.0850 -1.8876 -0.0859
 5598TIP3   OH216757   0.029   5.858   1.217  0.1803 -0.0943  0.5126
 5598TIP3    H116758   0.078   5.916   1.275 -0.2947  0.0912  0.7420
 5598TIP3    H216759  -0.056   5.848   1.261 -0.8506  1.4632 -0.9666
 5599TIP3   OH216760   3.465   4.252   5.388 -1.0331 -0.9122 -0.1024
 5599TIP3    H116761   3.473   4.292   5.474 -0.1961 -0.3950 -0.4010
 5599TIP3    H216762   3.531   4.182   5.389  1.7294  1.4300 -1.5415
 5600TIP3   OH216763   0.235   3.378   3.631 -0.1985 -0.4901  0.3788
 5600TIP3    H116764   0.162   3.355   3.573  1.2112 -0.4183 -1.5462
 5600TIP3    H216765   0.268   3.461   3.596  0.9631 -0.6494  1.0217
 5601TIP3   OH216766   1.956   6.365   3.182 -0.7707  0.5171  0.2717
 5601TIP3    H116767   1.873   6.409   3.202 -1.1387  0.5986 -1.3001
 5601TIP3    H216768   2.019   6.404   3.242 -1.7089  1.0120  0.9688
 5602TIP3   OH216769   4.253   2.371   4.499  0.3545 -0.4165  0.3195
 5602TIP3    H116770   4.208   2.402   4.420  2.3587 -0.7621 -1.0452
 5602TIP3    H216771   4.205   2.293   4.526  0.8160 -1.5280 -1.8429
 5603TIP3   OH216772   4.732   2.562   0.243 -0.6354  0.4203  0.0180
 5603TIP3    H116773   4.749   2.488   0.301  0.1152 -1.4114 -2.4229
 5603TIP3    H216774   4.793   2.630   0.273 -0.0220 -0.5861  1.1371
 5604TIP3   OH216775   6.281   2.794   3.952  0.0084 -0.4213  0.1692
 5604TIP3    H116776   6.212   2.751   4.002 -1.0023  1.0563  0.1038
 5604TIP3    H216777   6.347   2.726   3.939 -0.3056 -1.2340  2.3210
 5605TIP3   OH216778   2.599   5.582   3.146  0.0071  0.0979  0.9544
 5605TIP3    H116779   2.586   5.587   3.052 -3.8309  1.2543  1.3924
 5605TIP3    H216780   2.552   5.503   3.173  0.4744  0.1507  1.9922
 5606TIP3   OH216781   6.192   0.943   1.714 -0.4764 -0.4507 -0.0062
 5606TIP3    H116782   6.193   0.982   1.802 -1.0708 -2.3761  0.9199
 5606TIP3    H216783   6.158   1.012   1.658  0.2362  0.9456  1.2073
 5607TIP3   OH216784   7.152   3.784   1.954  0.2056 -0.1636 -0.1749
 5607TIP3    H116785   7.240   3.812   1.976  0.0133  0.3607 -0.0502
 5607TIP3    H216786   7.138   3.816   1.864  0.2580 -0.5164 -0.3070
 5608TIP3   OH216787   1.038   5.946   1.004  0.3570  0.3715 -0.1290
 5608TIP3    H116788   1.009   5.954   0.913 -1.2336 -3.2448 -0.1036
 5608TIP3    H216789   1.133   5.950   0.999  0.2610  2.2658 -1.6189
 5609TIP3   OH216790   2.174   3.821   0.545 -0.3732 -0.9369  0.6293
 5609TIP3    H116791   2.155   3.757   0.476 -0.6010  0.2225 -0.4347
 5609TIP3    H216792   2.232   3.884   0.502 -2.4174  1.1287  0.7508
 5610TIP3   OH216793   1.729   2.503   3.788  0.4171  0.3773  0.1492
 5610TIP3    H116794   1.782   2.434   3.748  1.4445  1.5943 -0.6686
 5610TIP3    H216795   1.639   2.482   3.762  0.7645 -0.3698 -0.4963
 5611TIP3   OH216796   4.543   4.823   4.618  0.1050  0.5722  0.4067
 5611TIP3    H116797   4.590   4.851   4.696 -0.0963  1.1333  0.3330
 5611TIP3    H216798   4.515   4.734   4.637  1.4027  0.1444  0.3562
 5612TIP3   OH216799   3.238   3.955   1.151  0.1429 -0.6758 -0.0906
 5612TIP3    H116800   3.171   3.902   1.194 -0.0036 -0.5315 -0.1406
 5612TIP3    H216801   3.198   4.042   1.142  0.4955 -0.4656  0.2795
 5613TIP3   OH216802   0.508   2.361   3.936 -0.3655 -0.0685  0.2457
 5613TIP3    H116803   0.591   2.407   3.921 -0.6568  0.3204 -0.2004
 5613TIP3    H216804   0.441   2.429   3.926 -0.6802 -0.1538  1.6859
 5614TIP3   OH216805   6.104   5.058   1.295  0.1991  0.3086  0.3245
 5614TIP3    H116806   6.090   5.128   1.358  1.0739 -0.4610  1.4107
 5614TIP3    H216807   6.180   5.010   1.328 -0.4539 -1.2443 -0.3082
 5615TIP3   OH216808   7.127   0.231   1.709 -0.0077 -0.0039  0.2644
 5615TIP3    H116809   7.045   0.233   1.660 -0.0097 -0.7010  0.2204
 5615TIP3    H216810   7.193   0.206   1.645  0.0151 -0.7677  0.5741
 5616TIP3   OH216811   4.415   0.049   1.837 -0.7261 -0.2988  0.5964
 5616TIP3    H116812   4.415  -0.039   1.876 -1.3257 -0.3007  0.6028
 5616TIP3    H216813   4.364   0.040   1.757  0.8520 -0.3848 -0.4372
 5617TIP3   OH216814   4.327   4.387   1.171 -0.7668 -0.5570  0.6380
 5617TIP3    H116815   4.352   4.462   1.225 -0.4467  0.6009 -1.0777
 5617TIP3    H216816   4.247   4.354   1.212 -2.0132  1.9098  0.3410
 5618TIP3   OH216817   1.135   2.630   0.930 -0.4072 -0.1967 -0.8194
 5618TIP3    H116818   1.202   2.663   0.870  0.2630 -0.5836 -0.2952
 5618TIP3    H216819   1.159   2.666   1.016  0.6758 -2.4424 -0.1169
 5619TIP3   OH216820   3.814   0.933   2.398  0.3793 -0.2435 -0.6846
 5619TIP3    H116821   3.804   1.025   2.423 -2.1623 -0.8939  1.0393
 5619TIP3    H216822   3.755   0.921   2.324 -1.3380 -0.9998  0.7340
 5620TIP3   OH216823   0.644   3.851   4.995 -0.5095  0.0746 -0.1083
 5620TIP3    H116824   0.657   3.922   5.057  0.5633 -0.6112  0.4921
 5620TIP3    H216825   0.686   3.881   4.914  2.4422 -0.8974  0.9278
 5621TIP3   OH216826   2.972   3.579   0.926  0.1616 -0.0174  0.3098
 5621TIP3    H116827   2.975   3.671   0.950 -0.5843  0.4031 -1.1052
 5621TIP3    H216828   3.045   3.539   0.973  2.1777  1.8044 -1.1089
 5622TIP3   OH216829   5.970   0.512   2.317 -0.0861 -0.6491  0.7577
 5622TIP3    H116830   5.899   0.574   2.332 -1.2004 -1.9701  1.1471
 5622TIP3    H216831   5.977   0.506   2.221  0.9944  1.0809  0.6814
 5623TIP3   OH216832   0.422   3.122   2.397 -0.6332  0.2242  0.3075
 5623TIP3    H116833   0.484   3.165   2.456 -1.5011  2.0441 -0.0551
 5623TIP3    H216834   0.382   3.193   2.348 -1.5428 -1.0805 -0.9164
 5624TIP3   OH216835   1.004   4.070   5.485  0.2615  0.4433  0.2131
 5624TIP3    H116836   0.919   4.111   5.497  0.6632  0.7792  2.3641
 5624TIP3    H216837   1.007   4.046   5.393 -1.2764  2.3630 -0.3946
 5625TIP3   OH216838   6.706   4.345   5.201 -0.2940 -0.2356 -0.4509
 5625TIP3    H116839   6.766   4.297   5.258 -0.8915 -0.5125 -0.0427
 5625TIP3    H216840   6.753   4.426   5.179  0.0385 -0.2352  0.2452
 5626TIP3   OH216841   4.262   5.361   1.204 -0.1730  0.1594  0.2328
 5626TIP3    H116842   4.311   5.420   1.145  0.3295 -0.1086  0.3792
 5626TIP3    H216843   4.275   5.399   1.291  1.6273 -1.1082  0.5789
 5627TIP3   OH216844   5.452   1.880   4.316 -0.4213  0.0238 -0.1932
 5627TIP3    H116845   5.416   1.969   4.311 -0.0879  0.3029  1.5475
 5627TIP3    H216846   5.510   1.883   4.393 -1.3574 -2.0078  0.6470
 5628TIP3   OH216847   0.164   2.945   1.381  0.5589  0.0270  0.5514
 5628TIP3    H116848   0.218   3.004   1.329 -2.7994  1.9837 -1.1021
 5628TIP3    H216849   0.225   2.899   1.438  3.7079  3.0997 -0.0396
 5629TIP3   OH216850   6.308   3.998   1.174  0.1361 -0.4835  1.0756
 5629TIP3    H116851   6.243   3.968   1.111 -0.3237 -1.4606  1.9926
 5629TIP3    H216852   6.392   3.974   1.134 -0.1897 -2.3771  1.4318
 5630TIP3   OH216853   0.923   1.288   0.695  0.0389 -0.3056 -0.1647
 5630TIP3    H116854   0.972   1.364   0.664 -0.1979  0.1799  0.6174
 5630TIP3    H216855   0.983   1.243   0.754 -0.5920  0.5813  1.2144
 5631TIP3   OH216856   1.793   4.594   5.823  0.5010  0.6369  0.0893
 5631TIP3    H116857   1.726   4.645   5.868  0.2934 -0.7322  1.4125
 5631TIP3    H216858   1.872   4.607   5.875  0.5567  0.0218  0.1681
 5632TIP3   OH216859   4.306   5.352   0.441  0.0024  0.1427  0.0383
 5632TIP3    H116860   4.268   5.370   0.527 -1.8196  0.8033 -0.8369
 5632TIP3    H216861   4.300   5.257   0.432 -0.2568  0.1154  0.4645
 5633TIP3   OH216862   6.395   0.959   0.094  0.2508 -0.1756  0.6643
 5633TIP3    H116863   6.333   1.020   0.133  0.5160 -0.4157  1.4823
 5633TIP3    H216864   6.394   0.979   0.000  0.1086  0.8672  0.8854
 5634TIP3   OH216865   3.447   3.606   5.065 -0.0442 -0.1847 -1.1583
 5634TIP3    H116866   3.428   3.602   5.159 -1.1531 -0.4270 -1.3752
 5634TIP3    H216867   3.531   3.560   5.055  0.8421  1.1466 -0.1130
 5635TIP3   OH216868   6.307   2.037   0.092 -0.0360 -0.1529 -0.4086
 5635TIP3    H116869   6.373   1.981   0.052 -0.3949 -0.8338 -0.0643
 5635TIP3    H216870   6.230   1.981   0.103 -0.3818  0.3833  0.0152
 5636TIP3   OH216871   5.105   5.463   3.604 -0.5206 -0.0023  0.4090
 5636TIP3    H116872   5.165   5.531   3.637  1.0436 -1.9510  1.8071
 5636TIP3    H216873   5.116   5.467   3.509 -0.4026  1.6062  0.4487
 5637TIP3   OH216874   4.229   4.698   1.216 -0.0447  0.5194  0.3490
 5637TIP3    H116875   4.231   4.633   1.146 -1.8578  0.2731  0.4751
 5637TIP3    H216876   4.223   4.782   1.171 -0.5680  0.4018  0.1924
 5638TIP3   OH216877   4.023   0.242   4.952 -0.3898  0.1777 -0.3876
 5638TIP3    H116878   4.117   0.228   4.943 -0.3898  1.0112 -2.0858
 5638TIP3    H216879   3.984   0.175   4.895 -0.7705  0.4489 -0.4481
 5639TIP3   OH216880   2.304   2.937   4.256  0.4227 -0.2818 -0.2338
 5639TIP3    H116881   2.366   2.868   4.229  1.7848  1.0783 -0.7306
 5639TIP3    H216882   2.235   2.934   4.191  1.4932  0.1021 -1.4378
 5640TIP3   OH216883   3.737   2.787   3.426  0.2027 -0.4900  0.4231
 5640TIP3    H116884   3.736   2.859   3.363  0.8621 -1.3934 -0.6650
 5640TIP3    H216885   3.682   2.720   3.386 -0.8308 -0.4192  1.6664
 5641TIP3   OH216886   6.643   3.506   1.941  0.0757  0.8841 -0.3934
 5641TIP3    H116887   6.614   3.589   1.978  0.6761  0.3935  1.2603
 5641TIP3    H216888   6.569   3.475   1.890  0.1332  2.8241 -1.7815
 5642TIP3   OH216889   6.962   3.398   4.919  0.6422 -0.0199  0.3213
 5642TIP3    H116890   6.932   3.369   5.005  0.2124 -0.7528 -0.0690
 5642TIP3    H216891   6.926   3.334   4.858  0.6162  0.7143 -0.4463
 5643TIP3   OH216892   0.402   2.489   5.760  0.3602  0.5754  0.0879
 5643TIP3    H116893   0.399   2.496   5.665 -0.1051 -0.2209  0.0364
 5643TIP3    H216894   0.318   2.524   5.790  0.3971  0.5810  0.1871
 5644TIP3   OH216895   1.477   4.860   2.977  0.3701 -0.1617  0.2407
 5644TIP3    H116896   1.460   4.860   2.883  0.1088  0.7613  0.2763
 5644TIP3    H216897   1.474   4.767   3.002  1.0180 -0.4611 -0.7465
 5645TIP3   OH216898   2.591   2.268   4.069  0.3593 -0.3196  0.8565
 5645TIP3    H116899   2.563   2.328   4.139  0.3108 -0.2501  0.7784
 5645TIP3    H216900   2.638   2.324   4.008  0.7810 -0.4582  1.0503
 5646TIP3   OH216901   0.760   3.864   3.155 -0.5097  0.0305 -0.4503
 5646TIP3    H116902   0.829   3.883   3.091  0.0203 -1.5799 -0.3917
 5646TIP3    H216903   0.707   3.796   3.114 -0.2654 -0.9104  0.7247
 5647TIP3   OH216904   4.751   4.630   2.443 -0.2097  0.1986 -0.6679
 5647TIP3    H116905   4.815   4.565   2.470 -0.5977 -0.2153 -0.7373
 5647TIP3    H216906   4.690   4.582   2.387 -0.5514  0.5996 -0.6395
 5648TIP3   OH216907   2.427   1.199   0.172  0.3510 -0.2069 -0.2921
 5648TIP3    H116908   2.398   1.261   0.239 -1.3300  0.1636 -1.3163
 5648TIP3    H216909   2.438   1.252   0.093  1.4340 -0.7987 -0.5658
 5649TIP3   OH216910   1.084   3.334   5.865 -0.2296 -0.0715 -0.0941
 5649TIP3    H116911   1.032   3.374   5.795 -0.1235 -2.1446 -1.4203
 5649TIP3    H216912   1.097   3.405   5.928 -1.4575  1.5065 -1.5261
 5650TIP3   OH216913   3.995   1.390   3.113  0.0960 -0.4047 -0.5914
 5650TIP3    H116914   4.014   1.372   3.205  0.5462  2.1940 -0.0995
 5650TIP3    H216915   3.907   1.356   3.100 -0.6713  0.6818  1.3180
 5651TIP3   OH216916   1.694   4.335   4.478  0.3267  0.2863 -0.5127
 5651TIP3    H116917   1.752   4.340   4.554 -0.8854 -0.4961  0.5080
 5651TIP3    H216918   1.752   4.313   4.405  1.4579  0.6301  0.2576
 5652TIP3   OH216919   3.027   6.189   4.965  0.4805  0.1026 -0.2772
 5652TIP3    H116920   2.960   6.121   4.967 -0.0953  0.6299 -0.9372
 5652TIP3    H216921   3.028   6.225   5.054 -0.5162  0.4675 -0.4030
 5653TIP3   OH216922   0.428   3.258   4.526 -0.4036  0.3795  0.1411
 5653TIP3    H116923   0.398   3.336   4.573 -2.8131 -2.0151  2.9899
 5653TIP3    H216924   0.511   3.236   4.567 -0.5621  0.5067  0.5403
 5654TIP3   OH216925   2.372   5.313   1.395 -0.9004 -0.2176  0.1356
 5654TIP3    H116926   2.339   5.224   1.411  0.7621 -1.2514 -1.7629
 5654TIP3    H216927   2.406   5.341   1.479  0.2032 -2.1411  0.3893
 5655TIP3   OH216928   7.161   3.079   4.495  0.3794 -0.2006  0.0354
 5655TIP3    H116929   7.195   3.118   4.575 -1.1872 -0.7309  0.9974
 5655TIP3    H216930   7.218   3.004   4.479 -0.5100 -1.3390  1.8662
 5656TIP3   OH216931   6.820   1.020   1.404 -0.2040 -0.4657  0.3783
 5656TIP3    H116932   6.879   1.004   1.477  0.4648 -1.4064 -0.3478
 5656TIP3    H216933   6.732   1.016   1.442  0.1219 -1.4015  1.0506
 5657TIP3   OH216934   0.782   5.107   4.018 -0.1737  0.0439 -0.4715
 5657TIP3    H116935   0.833   5.069   3.946  2.3278  0.3878  1.0030
 5657TIP3    H216936   0.847   5.127   4.085 -1.8842  3.2225  0.4487
 5658TIP3   OH216937   7.072   3.498   4.189  0.2144  0.5494  0.4135
 5658TIP3    H116938   7.098   3.433   4.254 -1.7021  0.8404  1.5373
 5658TIP3    H216939   7.065   3.580   4.238  2.1825  1.5964 -0.8960
 5659TIP3   OH216940   6.159   3.978   2.279  0.0892  0.3614  0.3421
 5659TIP3    H116941   6.066   3.985   2.300  0.1179  0.3234  0.4786
 5659TIP3    H216942   6.171   3.886   2.254  0.4910 -0.1475  2.2349
 5660TIP3   OH216943   6.095   4.358   4.860  0.3999 -0.1532  0.0206
 5660TIP3    H116944   6.126   4.420   4.794  3.0046 -1.5197 -0.1441
 5660TIP3    H216945   6.051   4.290   4.810  2.2674 -1.1280 -0.3762
 5661TIP3   OH216946   6.244   5.304   5.298  0.6869 -0.3363  0.1562
 5661TIP3    H116947   6.302   5.264   5.363 -0.1701 -1.4564  0.2686
 5661TIP3    H216948   6.303   5.355   5.242  1.5848 -0.2855  1.1112
 5662TIP3   OH216949   3.932   2.786   5.491  0.1830  0.2338 -0.3711
 5662TIP3    H116950   3.899   2.699   5.468  0.6457 -0.2213  0.6240
 5662TIP3    H216951   4.014   2.794   5.442  3.0881 -2.2084  3.4813
 5663TIP3   OH216952   0.184   5.083   5.357  0.1187  0.7831  0.1331
 5663TIP3    H116953   0.156   5.007   5.409  0.4643 -0.6467 -1.6574
 5663TIP3    H216954   0.130   5.155   5.389  0.6400  0.1054  2.7656
 5664TIP3   OH216955   3.612   2.025   4.797 -0.0718 -0.0204 -0.4352
 5664TIP3    H116956   3.665   2.084   4.743  3.3524 -1.6231  0.8357
 5664TIP3    H216957   3.641   1.937   4.772 -0.3365 -0.8973  2.0543
 5665TIP3   OH216958   5.075   3.955   5.345 -0.6354  0.1484 -0.3115
 5665TIP3    H116959   5.046   3.907   5.423  1.9291  0.6039  1.0202
 5665TIP3    H216960   5.107   3.887   5.286  0.7945 -0.0115  0.5968
 5666TIP3   OH216961   0.930   2.878   0.494 -0.1014  0.1459  0.2277
 5666TIP3    H116962   1.017   2.859   0.529  0.4838 -0.8476 -1.6415
 5666TIP3    H216963   0.941   2.961   0.448 -0.8420  1.3870  2.1484
 5667TIP3   OH216964   7.073   5.713   2.980  0.3378 -0.1324 -0.2474
 5667TIP3    H116965   7.165   5.685   2.980  0.1423 -0.8080  0.3259
 5667TIP3    H216966   7.060   5.753   2.894  1.5852  1.4290  0.2509
 5668TIP3   OH216967   2.155   3.859   3.416  0.2648 -0.1584 -0.0730
 5668TIP3    H116968   2.226   3.898   3.466 -0.6398  0.7534  0.5354
 5668TIP3    H216969   2.109   3.933   3.376 -1.0026 -0.6273  0.4563
 5669TIP3   OH216970   2.462   5.371   3.723  0.4022 -0.0860  0.4483
 5669TIP3    H116971   2.397   5.319   3.770  0.8421 -0.5204  0.5834
 5669TIP3    H216972   2.410   5.422   3.660  0.1231 -2.8284 -1.7576
 5670TIP3   OH216973   4.418   5.930   0.336  0.0967  0.2166  0.3035
 5670TIP3    H116974   4.431   6.024   0.326 -0.2179  0.4041  1.5265
 5670TIP3    H216975   4.506   5.894   0.341  0.2328  0.3452 -0.8764
 5671TIP3   OH216976   6.522   2.206   1.625 -0.1790  0.5004  0.2650
 5671TIP3    H116977   6.612   2.238   1.636  0.3839 -0.1381 -1.9587
 5671TIP3    H216978   6.531   2.112   1.614 -1.0356  0.4943 -0.5547
 5672TIP3   OH216979   7.080   2.584   0.945  0.5388  0.3761  0.2348
 5672TIP3    H116980   7.010   2.642   0.974  0.5401 -0.2283  1.5418
 5672TIP3    H216981   7.160   2.635   0.957  0.6792 -0.2985  2.7533
 5673TIP3   OH216982   4.133   1.564   4.548  0.5331  0.2090  0.7483
 5673TIP3    H116983   4.095   1.477   4.563 -1.7072  0.6692 -1.4554
 5673TIP3    H216984   4.217   1.547   4.507 -0.5131 -1.0223 -1.0411
 5674TIP3   OH216985   2.573   2.317   4.672 -0.3446 -0.3799  0.0304
 5674TIP3    H116986   2.659   2.312   4.632  0.2979 -1.5677  1.4340
 5674TIP3    H216987   2.557   2.410   4.686  0.2158 -0.0864 -1.2454
 5675TIP3   OH216988   6.795   4.317   4.197  0.6137  0.5942  0.3291
 5675TIP3    H116989   6.722   4.288   4.251  0.7689  0.0723  0.2672
 5675TIP3    H216990   6.809   4.246   4.135  1.8135  0.2202  0.9790
 5676TIP3   OH216991   6.571   1.697   1.157  0.2404 -0.4332  0.4334
 5676TIP3    H116992   6.569   1.763   1.088 -1.5085 -1.1870 -0.2949
 5676TIP3    H216993   6.662   1.668   1.160  0.6461  0.6896 -0.5099
 5677TIP3   OH216994   0.565   0.194   0.415 -0.5745  0.1025  0.4615
 5677TIP3    H116995   0.623   0.127   0.450  2.6518  1.5932 -1.5441
 5677TIP3    H216996   0.527   0.236   0.492  1.4885 -0.6269  1.9636
 5678TIP3   OH216997   5.220   6.708   4.254  0.1215  0.2314  0.8492
 5678TIP3    H116998   5.210   6.788   4.204  0.4093 -0.3663 -0.1820
 5678TIP3    H216999   5.138   6.700   4.303 -1.1326 -0.3066 -1.2032
 5679TIP3   OH217000   3.959   4.576   1.886 -0.4550  0.0346  0.0336
 5679TIP3    H117001   3.979   4.669   1.882 -0.2909  0.0021  0.0819
 5679TIP3    H217002   4.031   4.538   1.937 -0.5193 -0.1181  0.0117
 5680TIP3   OH217003   1.952   6.041   3.785 -0.3167 -0.4036 -0.2588
 5680TIP3    H117004   2.004   5.968   3.820 -0.0885 -0.0611  0.1184
 5680TIP3    H217005   1.955   6.029   3.690 -2.5902 -2.5141 -0.1749
 5681TIP3   OH217006   2.171   5.467   1.103 -0.1434  0.7558 -0.2801
 5681TIP3    H117007   2.145   5.554   1.072 -0.1973  0.9435  0.2744
 5681TIP3    H217008   2.246   5.484   1.160  2.9672  0.0309 -3.8058
 5682TIP3   OH217009   2.649   0.107   4.677 -0.3878 -0.1987 -0.3841
 5682TIP3    H117010   2.654   0.135   4.585  0.2191  0.0634 -0.2695
 5682TIP3    H217011   2.597   0.175   4.720 -2.7880 -1.5124 -0.9953
 5683TIP3   OH217012   3.425   5.553   1.576  0.0754 -0.3218  0.3253
 5683TIP3    H117013   3.506   5.509   1.551 -0.3232 -0.8040 -0.1392
 5683TIP3    H217014   3.442   5.585   1.665  0.1635 -2.0242  0.9716
 5684TIP3   OH217015   3.999   1.848   1.706  0.0815 -0.4930 -0.2829
 5684TIP3    H117016   3.950   1.922   1.743  0.7252  0.5020 -1.3434
 5684TIP3    H217017   3.969   1.842   1.615  1.7378  0.0280 -0.9068
 5685TIP3   OH217018   2.533   6.404   3.898 -0.2404  0.0209  0.4120
 5685TIP3    H117019   2.559   6.329   3.846  1.1937  0.7069  0.0783
 5685TIP3    H217020   2.615   6.440   3.931 -0.9688  0.8217  1.4453
 5686TIP3   OH217021   3.562   1.093   1.941 -0.2982 -0.4392  0.3708
 5686TIP3    H117022   3.598   1.019   1.892 -0.6888  0.1783 -0.8727
 5686TIP3    H217023   3.630   1.115   2.005  0.4066 -0.9767 -0.1822
 5687TIP3   OH217024   4.647   5.051   1.569 -0.0003  0.2416 -0.3849
 5687TIP3    H117025   4.721   5.111   1.561  1.1321 -0.9876  0.3753
 5687TIP3    H217026   4.572   5.100   1.535  0.8214  2.1607  0.4067
 5688TIP3   OH217027   3.311   1.761   1.370 -0.2755 -0.7550 -0.1141
 5688TIP3    H117028   3.261   1.699   1.424  0.8279 -2.4031 -0.8881
 5688TIP3    H217029   3.300   1.728   1.281 -0.5997  0.8734 -0.7050
 5689TIP3   OH217030   6.932   6.759   4.100  0.0597  0.3957 -0.1035
 5689TIP3    H117031   6.872   6.684   4.093 -0.4316  0.6888  0.7745
 5689TIP3    H217032   7.005   6.727   4.152  0.3518  0.2316 -0.6094
 5690TIP3   OH217033   5.612   0.448   3.749 -0.4240 -0.3334 -0.1973
 5690TIP3    H117034   5.662   0.461   3.668 -1.7669  2.4059 -0.7276
 5690TIP3    H217035   5.521   0.446   3.721 -0.8933  0.2675  1.1982
 5691TIP3   OH217036   6.902   3.708   3.188 -0.2692 -0.0018  0.5202
 5691TIP3    H117037   6.915   3.672   3.100  1.6476  0.9783  0.3654
 5691TIP3    H217038   6.821   3.666   3.219 -0.8682 -0.5330 -1.6017
 5692TIP3   OH217039   6.650   0.812   2.972 -0.1916  0.0683  0.4698
 5692TIP3    H117040   6.706   0.863   3.031  0.8971  0.2983 -0.7362
 5692TIP3    H217041   6.699   0.806   2.890  0.4473 -4.1802  0.9355
 5693TIP3   OH217042   1.757   5.991   4.959 -0.1611  0.0380 -0.0716
 5693TIP3    H117043   1.822   5.946   5.013 -0.1617  2.0538  1.7019
 5693TIP3    H217044   1.687   6.016   5.020 -2.2595 -1.2724 -1.7600
 5694TIP3   OH217045   1.098   3.251   4.330 -0.3143  0.6117 -0.4444
 5694TIP3    H117046   1.017   3.297   4.354 -1.1213 -0.5454 -0.8410
 5694TIP3    H217047   1.120   3.200   4.408 -2.2396 -2.1724 -1.5695
 5695TIP3   OH217048   5.218   3.466   3.920  0.2391  0.5305  0.3134
 5695TIP3    H117049   5.277   3.403   3.880  0.2403 -0.5209  1.9005
 5695TIP3    H217050   5.264   3.495   3.999 -1.3426 -0.3687  1.6275
 5696TIP3   OH217051   1.671   5.294   3.720 -0.5678 -0.5214 -0.4770
 5696TIP3    H117052   1.726   5.372   3.710 -1.0605 -0.0397  0.3751
 5696TIP3    H217053   1.629   5.283   3.635 -2.2752  1.5757 -0.0079
 5697TIP3   OH217054   2.810   2.341   5.223  0.1676 -0.0588  0.1758
 5697TIP3    H117055   2.860   2.267   5.189 -0.8158 -0.5455 -0.2512
 5697TIP3    H217056   2.737   2.301   5.271 -1.7680  0.5378 -2.0668
 5698TIP3   OH217057   1.280   6.036   2.152 -0.0177 -0.1238 -0.0518
 5698TIP3    H117058   1.323   6.091   2.217 -0.0395 -0.5617  0.3363
 5698TIP3    H217059   1.345   5.970   2.128  0.7151  1.2145 -1.9924
 5699TIP3   OH217060   2.325   1.385   1.990  0.4373  0.1979 -0.5986
 5699TIP3    H117061   2.289   1.427   1.912 -0.4165  1.2420  0.3278
 5699TIP3    H217062   2.359   1.457   2.043  0.7205 -0.4637  0.1428
 5700TIP3   OH217063   5.257   2.636   0.089  0.0753 -0.0358 -0.7760
 5700TIP3    H117064   5.267   2.551   0.133 -0.6716 -0.8068 -2.0172
 5700TIP3    H217065   5.191   2.682   0.141  0.4899 -0.2030 -0.0889
 5701TIP3   OH217066   6.993   0.657   2.940 -0.1295  0.0731 -0.3611
 5701TIP3    H117067   6.976   0.648   2.847  1.6182 -0.9713 -0.6352
 5701TIP3    H217068   6.976   0.749   2.959  0.2587  0.4951 -1.8952
 5702TIP3   OH217069   2.616   0.101   0.955 -0.0067  0.5011  0.7584
 5702TIP3    H117070   2.711   0.106   0.958  0.1307 -1.5950  0.9553
 5702TIP3    H217071   2.588   0.114   1.046  0.1634 -0.0235  0.8859
 5703TIP3   OH217072   1.394   6.700   4.990 -0.3931  0.0831  0.2406
 5703TIP3    H117073   1.378   6.712   5.084 -1.1350 -0.7137  0.2319
 5703TIP3    H217074   1.444   6.619   4.984 -1.1097 -0.3484 -0.0960
 5704TIP3   OH217075   4.907   6.110   0.380  0.0857  0.1124  0.4964
 5704TIP3    H117076   4.857   6.169   0.437  0.2132 -0.2409  0.9809
 5704TIP3    H217077   4.998   6.127   0.404  0.2259  1.0071 -0.6284
 5705TIP3   OH217078   5.001   0.255   0.389  0.3070  0.1950 -0.0335
 5705TIP3    H117079   5.089   0.229   0.416  0.9127  2.3360  0.2898
 5705TIP3    H217080   5.016   0.316   0.317 -0.8556  0.9828  0.3685
 5706TIP3   OH217081   4.256   3.863   2.094  0.4227 -0.0542 -0.1457
 5706TIP3    H117082   4.230   3.916   2.169  0.7477 -1.3603  0.9246
 5706TIP3    H217083   4.176   3.854   2.042  0.3165  1.2886 -0.2609
 5707TIP3   OH217084   4.427   4.887   1.725  0.3778  0.6123 -0.0349
 5707TIP3    H117085   4.492   4.957   1.731  1.7259 -0.5270 -0.6580
 5707TIP3    H217086   4.412   4.877   1.631 -0.8103  0.9382  0.1076
 5708TIP3   OH217087   7.034   2.786   4.306  0.4673  0.4223 -0.1693
 5708TIP3    H117088   7.105   2.753   4.361 -0.0998 -0.2860  0.1434
 5708TIP3    H217089   6.984   2.844   4.365 -0.9734 -1.4386  0.5153
 5709TIP3   OH217090   7.036   1.905   1.854  0.4133 -0.3846 -0.0472
 5709TIP3    H117091   6.982   1.844   1.904 -0.1383  1.0341  1.1759
 5709TIP3    H217092   7.005   1.896   1.764 -0.2677 -1.2480  0.2546
 5710TIP3   OH217093   0.995   2.456   3.535  0.6231  0.2799 -0.3510
 5710TIP3    H117094   0.902   2.480   3.541  0.8459  0.8360  1.3393
 5710TIP3    H217095   1.034   2.492   3.614  2.2288 -0.2511 -0.8713
 5711TIP3   OH217096   2.333   1.801   2.133 -0.1216 -0.5163 -0.4136
 5711TIP3    H117097   2.282   1.822   2.211  0.6356  0.4096 -0.1470
 5711TIP3    H217098   2.361   1.710   2.146 -1.5905 -1.0167 -0.5237
 5712TIP3   OH217099   5.594   3.772   0.115  0.3661 -0.6158  0.6137
 5712TIP3    H117100   5.567   3.864   0.107  1.7009 -0.2499 -0.1450
 5712TIP3    H217101   5.557   3.743   0.198 -3.3964 -0.5882 -0.8769
 5713TIP3   OH217102   5.117   4.515   0.960  0.6278  0.4064 -0.0451
 5713TIP3    H117103   5.032   4.544   0.926  1.0505  1.9807  0.1823
 5713TIP3    H217104   5.135   4.573   1.034  1.2704 -0.8157  0.7987
 5714TIP3   OH217105   2.763   2.685   0.924 -0.4605  0.0699  0.5811
 5714TIP3    H117106   2.679   2.641   0.938 -1.4516  1.1027 -1.6133
 5714TIP3    H217107   2.746   2.777   0.947  0.7016 -0.0562  2.1061
 5715TIP3   OH217108   5.873   0.869   2.019  0.6065  0.4129 -0.0421
 5715TIP3    H117109   5.779   0.860   2.037  0.4810 -1.3036 -1.3049
 5715TIP3    H217110   5.909   0.782   2.038  1.8760  0.9230 -0.0073
 5716TIP3   OH217111   3.480   5.402   4.337  0.2459  0.3747  0.0358
 5716TIP3    H117112   3.499   5.382   4.429  0.3821  0.6585  0.0700
 5716TIP3    H217113   3.546   5.466   4.313 -1.1795  2.0612  0.4145
 5717TIP3   OH217114   4.711   2.743   4.720 -0.1425 -1.0525  0.7466
 5717TIP3    H117115   4.747   2.826   4.750  0.3306 -0.5332 -1.1181
 5717TIP3    H217116   4.616   2.754   4.728 -0.0846 -0.3281  0.5486
 5718TIP3   OH217117   3.479   4.062   2.463  0.2776  0.2855  0.1918
 5718TIP3    H117118   3.546   4.015   2.511 -1.5216 -0.0200  2.5385
 5718TIP3    H217119   3.489   4.154   2.490 -0.5212  0.1669  0.9306
 5719TIP3   OH217120   2.837   0.510   0.364  0.3095  0.2429 -0.2250
 5719TIP3    H117121   2.890   0.473   0.435 -0.5387  0.5433  0.5882
 5719TIP3    H217122   2.790   0.583   0.405  0.7085  1.2060 -1.3896
 5720TIP3   OH217123   6.471   5.974   0.243 -0.1892 -0.1931 -0.1377
 5720TIP3    H117124   6.477   5.962   0.149 -1.1575 -1.1028 -0.0988
 5720TIP3    H217125   6.415   6.050   0.255  3.0913  2.4788 -0.3183
 5721TIP3   OH217126   2.863   3.865   4.256 -0.3056 -0.1828 -0.2440
 5721TIP3    H117127   2.829   3.954   4.251 -0.8868 -0.4666 -1.8498
 5721TIP3    H217128   2.933   3.870   4.321  0.2566  1.6372 -0.9181
 5722TIP3   OH217129   4.283   0.965   3.946  0.6073  0.1974 -0.4589
 5722TIP3    H117130   4.281   0.928   3.857  1.2841  1.3504 -0.9794
 5722TIP3    H217131   4.376   0.985   3.961  0.3504  1.0385  0.0560
 5723TIP3   OH217132   2.789   1.927   1.208 -0.7022  0.1813 -0.5362
 5723TIP3    H117133   2.820   1.908   1.120  0.3376  2.1669 -0.6640
 5723TIP3    H217134   2.867   1.951   1.257 -1.5026  1.1851  0.3129
 5724TIP3   OH217135   4.843   1.817   5.358  0.1199  0.3529  0.4268
 5724TIP3    H117136   4.849   1.752   5.288 -0.3232  1.6387 -0.8629
 5724TIP3    H217137   4.924   1.808   5.407 -0.2101 -1.5758  0.6656
 5725TIP3   OH217138   3.073   1.685   1.932  0.0718  0.0824  0.2842
 5725TIP3    H117139   2.997   1.640   1.896 -0.6001  0.3636  1.3032
 5725TIP3    H217140   3.146   1.658   1.876 -0.3952 -1.8596  0.5478
 5726TIP3   OH217141   2.157   5.391   1.662  0.3160 -0.1736 -0.0867
 5726TIP3    H117142   2.248   5.399   1.634  1.2035 -2.0821  1.9442
 5726TIP3    H217143   2.109   5.372   1.581  1.5891  1.2611 -1.2629
 5727TIP3   OH217144   1.600   1.167   1.238 -0.1760 -0.0544  0.7401
 5727TIP3    H117145   1.637   1.251   1.264 -0.7997  0.6503 -0.5219
 5727TIP3    H217146   1.537   1.189   1.169 -2.1359 -1.2923  2.0187
 5728TIP3   OH217147   7.015   5.901   2.151 -0.1459 -0.3978  0.5775
 5728TIP3    H117148   7.003   5.968   2.219 -1.6463 -0.0698  0.0379
 5728TIP3    H217149   6.986   5.943   2.070 -0.3521 -1.4428  0.0872
 5729TIP3   OH217150   3.203   1.969   1.106  0.2826  0.6837  0.2510
 5729TIP3    H117151   3.138   2.013   1.051  0.3879 -0.3292 -0.7167
 5729TIP3    H217152   3.288   1.997   1.071  0.3981  1.8186  1.3612
 5730TIP3   OH217153   4.846   5.932   3.711 -0.0088  0.0353 -0.1354
 5730TIP3    H117154   4.835   5.876   3.634 -2.1677 -2.1681  1.6077
 5730TIP3    H217155   4.927   5.901   3.752 -0.7386 -1.2798  0.3514
 5731TIP3   OH217156   7.143   0.728   3.443  0.1883 -0.3232  0.3135
 5731TIP3    H117157   7.213   0.725   3.508  0.7000  1.1675 -0.1269
 5731TIP3    H217158   7.148   0.643   3.399 -0.3695 -1.4940  2.3629
 5732TIP3   OH217159   2.130   2.637   2.624 -0.7115 -0.0950  0.0037
 5732TIP3    H117160   2.191   2.698   2.666 -0.2989 -1.2082  1.0638
 5732TIP3    H217161   2.043   2.674   2.642 -0.5036 -0.1616  1.2128
 5733TIP3   OH217162   4.506   5.034   4.119  0.5496  0.5790 -0.2919
 5733TIP3    H117163   4.498   4.939   4.117 -1.2748  0.6698  0.8446
 5733TIP3    H217164   4.453   5.064   4.046 -2.1276  0.7914  1.5652
 5734TIP3   OH217165   7.049   1.757   5.332  0.1258 -0.2915  0.5195
 5734TIP3    H117166   7.141   1.769   5.355  0.8405 -1.8798 -1.2539
 5734TIP3    H217167   7.025   1.835   5.283  1.4598 -1.1055 -1.5553
 5735TIP3   OH217168   6.197   5.695   4.338 -0.2565 -0.4237  0.0445
 5735TIP3    H117169   6.247   5.640   4.398  0.4470  0.8109  0.6025
 5735TIP3    H217170   6.193   5.781   4.380 -0.4650  0.2403 -1.2826
 5736TIP3   OH217171   5.949   1.175   0.156 -0.0479  0.1542 -0.8718
 5736TIP3    H117172   5.981   1.241   0.094  0.7457  1.7260  1.0777
 5736TIP3    H217173   5.928   1.099   0.102  1.1831  1.2061 -2.9699
 5737TIP3   OH217174   7.054   0.422   1.894  0.3519 -0.0638  0.0721
 5737TIP3    H117175   7.036   0.343   1.843  1.8490  0.5396 -1.4823
 5737TIP3    H217176   7.147   0.416   1.914  0.6330  1.5753 -0.6003
 5738TIP3   OH217177   2.622   6.302   1.527 -0.3118 -0.1583 -0.0230
 5738TIP3    H117178   2.695   6.340   1.479 -0.4948 -0.1907 -0.3266
 5738TIP3    H217179   2.649   6.308   1.619 -0.3495  0.7278 -0.0630
 5739TIP3   OH217180   5.981   2.274   5.081  0.3507  0.0698 -0.1735
 5739TIP3    H117181   6.046   2.331   5.121  0.4079  0.1365 -0.3627
 5739TIP3    H217182   5.917   2.334   5.042  0.7013  0.0098 -0.8562
 5740TIP3   OH217183   2.699   3.331   2.010 -0.1747 -0.6893 -0.2512
 5740TIP3    H117184   2.656   3.404   2.055  1.1066 -0.8135  1.2596
 5740TIP3    H217185   2.666   3.253   2.053  1.3138 -0.7973  0.7735
 5741TIP3   OH217186   2.224   6.201   3.562  0.4587 -0.2319  0.3790
 5741TIP3    H117187   2.205   6.267   3.629 -1.3899  1.4432 -1.6626
 5741TIP3    H217188   2.154   6.136   3.572 -0.8080  0.8722 -0.8864
 5742TIP3   OH217189   5.955   4.210   4.299  0.0939  0.0728 -0.1265
 5742TIP3    H117190   5.975   4.116   4.302 -2.2905 -0.4852  2.0320
 5742TIP3    H217191   6.017   4.249   4.361 -1.8131 -0.8693  2.5631
 5743TIP3   OH217192   2.876   0.797   0.372 -0.1608  0.1625 -0.1107
 5743TIP3    H117193   2.939   0.837   0.313  0.6226 -1.2309 -0.2557
 5743TIP3    H217194   2.928   0.763   0.445 -0.9400  0.4910  0.6197
 5744TIP3   OH217195   2.501   4.412   5.900 -0.7421  0.3106  0.6996
 5744TIP3    H117196   2.474   4.497   5.866 -0.9601  0.6452  1.6599
 5744TIP3    H217197   2.439   4.349   5.863  1.0131  0.1312 -2.2037
 5745TIP3   OH217198   4.646   1.745   3.800 -0.2272  0.2351  0.1036
 5745TIP3    H117199   4.716   1.768   3.861  0.7841  0.2995 -1.0403
 5745TIP3    H217200   4.583   1.817   3.806  0.2234  0.5933  0.5280
 5746TIP3   OH217201   0.512   2.792   1.768  0.2646  0.0474 -0.0245
 5746TIP3    H117202   0.453   2.765   1.839 -0.9542 -1.6864 -1.6051
 5746TIP3    H217203   0.558   2.869   1.803 -1.8482  0.5661  1.8389
 5747TIP3   OH217204   3.741   5.258   5.751 -0.0271 -0.5462 -0.1590
 5747TIP3    H117205   3.834   5.239   5.746  0.5020  0.5426  2.9147
 5747TIP3    H217206   3.699   5.172   5.754  1.0376 -1.0775  0.0506
 5748TIP3   OH217207   2.542   3.395   1.102  0.4494 -0.7367  0.1476
 5748TIP3    H117208   2.529   3.490   1.096 -0.5235 -0.8333  0.5903
 5748TIP3    H217209   2.630   3.381   1.068  0.0359  0.1544 -1.3721
 5749TIP3   OH217210   1.181   4.191   2.673  0.0899  0.0150  0.0843
 5749TIP3    H117211   1.275   4.191   2.658  0.1168  3.0233 -0.3426
 5749TIP3    H217212   1.144   4.153   2.593  0.8934  0.2589 -0.4150
 5750TIP3   OH217213   5.113   1.949   2.854 -0.3466  0.1494  0.0910
 5750TIP3    H117214   5.034   1.916   2.812 -0.3420 -1.5406  1.3376
 5750TIP3    H217215   5.086   1.967   2.945  0.7314 -0.6997  0.6023
 5751TIP3   OH217216   5.208   1.454   0.164 -0.3538  0.1683 -0.6261
 5751TIP3    H117217   5.141   1.410   0.217  0.7090 -0.4584  0.2570
 5751TIP3    H217218   5.160   1.490   0.090 -2.1000  1.9943  1.2534
 5752TIP3   OH217219   2.763   3.091   1.196 -0.4383  0.2010 -0.5282
 5752TIP3    H117220   2.840   3.041   1.223  1.1289  2.7108 -0.0094
 5752TIP3    H217221   2.750   3.155   1.266 -2.4758  0.4322 -1.0448
 5753TIP3   OH217222   3.282   2.641   2.625 -0.0049  0.0568  0.0221
 5753TIP3    H117223   3.320   2.592   2.698 -0.0292 -1.5004 -0.9619
 5753TIP3    H217224   3.189   2.621   2.628 -0.0099  0.0092 -0.4169
 5754TIP3   OH217225   6.744   2.062   1.771 -0.3879  0.3968  0.2431
 5754TIP3    H117226   6.793   2.106   1.840  0.7198  0.0633 -0.2961
 5754TIP3    H217227   6.808   2.051   1.700 -1.5396  0.9108 -0.9138
 5755TIP3   OH217228   4.351   4.271   4.946  0.4088  0.5578  0.4243
 5755TIP3    H117229   4.294   4.348   4.946  2.1482  1.9155 -0.5815
 5755TIP3    H217230   4.401   4.278   5.027 -0.3976 -0.3188  1.0226
 5756TIP3   OH217231   7.086   6.816   1.320  0.0514  0.1210  0.6536
 5756TIP3    H117232   7.036   6.736   1.307  0.1260  0.3331 -1.2274
 5756TIP3    H217233   7.118   6.810   1.410  0.6204 -2.2764  0.3569
 5757TIP3   OH217234   3.686   2.280   4.676 -0.1262  0.3439 -0.0488
 5757TIP3    H117235   3.703   2.374   4.687  0.2109  0.1550  1.3250
 5757TIP3    H217236   3.609   2.276   4.620 -0.9682  1.5132  0.9526
 5758TIP3   OH217237   3.650   3.336   4.122  0.5525  0.0849  0.2254
 5758TIP3    H117238   3.691   3.400   4.181  2.2368 -0.8658  0.1466
 5758TIP3    H217239   3.719   3.274   4.102 -0.8100 -1.3060 -0.3877
 5759TIP3   OH217240   5.912   1.513   0.548 -0.6022 -0.3678 -0.1780
 5759TIP3    H117241   5.978   1.496   0.480 -0.4303  1.7079 -0.6028
 5759TIP3    H217242   5.920   1.606   0.566 -1.4388 -0.6533  1.9120
 5760TIP3   OH217243   1.010   5.652   4.766  0.1677  0.0258  0.1387
 5760TIP3    H117244   1.074   5.680   4.831  0.6195  0.5046 -0.4952
 5760TIP3    H217245   0.973   5.734   4.732 -0.6029 -0.2384  0.3152
 5761TIP3   OH217246   3.981   4.361   2.723 -0.5502  0.0483 -0.5119
 5761TIP3    H117247   4.053   4.404   2.675 -0.6144 -0.0016 -0.6544
 5761TIP3    H217248   3.996   4.385   2.814  0.8427 -1.6283 -0.2445
 5762TIP3   OH217249   5.611   1.213   5.853  0.6895 -0.2884 -0.0759
 5762TIP3    H117250   5.686   1.250   5.900 -0.0671  0.0149  0.9478
 5762TIP3    H217251   5.536   1.265   5.883 -0.1531 -1.5370  0.0754
 5763TIP3   OH217252   1.938   5.455   5.179 -0.3554 -0.0444 -0.6661
 5763TIP3    H117253   1.893   5.371   5.170  0.6036 -0.5479 -0.9251
 5763TIP3    H217254   1.868   5.518   5.196 -1.0530 -0.9763  0.0825
 5764TIP3   OH217255   6.379   6.334   5.225 -0.2894 -0.0212 -0.9514
 5764TIP3    H117256   6.352   6.267   5.289 -0.7237  0.4262 -0.6612
 5764TIP3    H217257   6.446   6.385   5.270  0.1627 -0.3560 -1.2328
 5765TIP3   OH217258   4.502   3.892   4.483 -0.0908  0.2869 -0.4712
 5765TIP3    H117259   4.538   3.833   4.417  1.1039  1.1172 -0.6034
 5765TIP3    H217260   4.446   3.952   4.434 -2.6877 -1.6717 -0.1295
 5766TIP3   OH217261   6.583   2.377  -0.005  0.2269 -0.3431 -0.4911
 5766TIP3    H117262   6.629   2.386   0.078 -0.9317  1.1749  0.0342
 5766TIP3    H217263   6.502   2.426   0.006 -0.3191 -0.7410 -2.2661
 5767TIP3   OH217264   0.081   1.932   3.075 -0.2534 -0.3565  0.6228
 5767TIP3    H117265   0.019   1.957   3.007  0.1592  1.4385  0.8522
 5767TIP3    H217266   0.145   1.877   3.029 -1.1269 -0.9067  0.0386
 5768TIP3   OH217267   6.859   4.581   2.439  0.3191 -0.0233 -0.9618
 5768TIP3    H117268   6.862   4.631   2.521  0.4554 -2.7016  0.7816
 5768TIP3    H217269   6.774   4.538   2.441  0.4381 -0.3343 -2.1122
 5769TIP3   OH217270   3.446   4.763   3.849 -0.4110  0.0374 -0.3190
 5769TIP3    H117271   3.500   4.781   3.926 -3.5475  2.6920  1.5478
 5769TIP3    H217272   3.423   4.671   3.856  0.0887  0.0179  1.4290
 5770TIP3   OH217273   2.452   1.076   1.065 -0.2339 -0.5293  0.1213
 5770TIP3    H117274   2.419   1.000   1.113 -0.8842  0.3559  1.1360
 5770TIP3    H217275   2.531   1.102   1.112 -0.2681 -0.3040  0.0571
 5771TIP3   OH217276   1.600   0.241   5.818  0.6924 -0.1794  0.0326
 5771TIP3    H117277   1.536   0.309   5.799  2.4726  1.2891 -1.1128
 5771TIP3    H217278   1.594   0.181   5.744 -0.9449 -1.3747  1.0890
 5772TIP3   OH217279   0.795   3.914   5.312 -0.3390 -0.1581 -0.2070
 5772TIP3    H117280   0.764   3.997   5.275 -0.4892  0.4635  1.2312
 5772TIP3    H217281   0.744   3.905   5.393  0.2564 -1.2603  0.0495
 5773TIP3   OH217282   5.011   1.366   0.312  0.0672  0.6099  0.0844
 5773TIP3    H117283   4.982   1.275   0.323  2.7965 -0.2113  1.2195
 5773TIP3    H217284   4.972   1.413   0.386  0.6928 -0.2135  0.9605
 5774TIP3   OH217285   0.059   0.654   5.217  0.3956 -0.7508  0.0931
 5774TIP3    H117286   0.093   0.741   5.239  0.0524 -1.1496  2.5556
 5774TIP3    H217287  -0.036   0.666   5.211  0.3452 -0.9459  0.4685
 5775TIP3   OH217288   6.591   5.927   4.119  0.2642  0.0300  0.1678
 5775TIP3    H117289   6.597   5.932   4.024 -0.0535 -0.6526  0.1099
 5775TIP3    H217290   6.679   5.900   4.147  0.7787  1.5934  0.1877
 5776TIP3   OH217291   6.787   4.058   5.048  0.7622  0.3861  0.3625
 5776TIP3    H117292   6.694   4.066   5.070  0.5442 -0.6854 -0.1387
 5776TIP3    H217293   6.813   4.147   5.021  0.3705  1.1402  2.2761
 5777TIP3   OH217294   4.110   6.520   2.057  0.0481  0.3822 -0.2383
 5777TIP3    H117295   4.096   6.427   2.077  0.7038  0.2942 -0.1845
 5777TIP3    H217296   4.137   6.520   1.965  0.9057  0.4372  0.0058
 5778TIP3   OH217297   5.854   1.676   2.954  0.2212  0.2141 -0.0355
 5778TIP3    H117298   5.856   1.632   3.039  1.4452 -0.8891 -0.6061
 5778TIP3    H217299   5.946   1.687   2.930 -0.1042  0.8691 -1.0396
 5779TIP3   OH217300   1.942   2.755   5.041 -0.0844 -0.2406  0.2592
 5779TIP3    H117301   1.926   2.669   5.080 -0.2933 -0.0710  0.5468
 5779TIP3    H217302   1.866   2.807   5.066 -0.0560 -0.0304 -0.0878
 5780TIP3   OH217303   3.168   0.823   5.396 -0.2476 -0.7305 -0.0222
 5780TIP3    H117304   3.238   0.884   5.373 -0.3885 -1.2511 -1.9838
 5780TIP3    H217305   3.141   0.850   5.484  1.7920  0.0445  0.4140
 5781TIP3   OH217306   1.431   1.237   4.790  0.0043  0.0066 -0.3006
 5781TIP3    H117307   1.521   1.250   4.760 -0.1759 -0.6552 -1.1970
 5781TIP3    H217308   1.384   1.210   4.711 -0.7246 -0.8000  0.3900
 5782TIP3   OH217309   4.577   2.564   0.984  0.1999  0.3093 -0.6556
 5782TIP3    H117310   4.587   2.650   1.024  0.4808  0.1522 -0.3814
 5782TIP3    H217311   4.599   2.502   1.054 -0.6421  0.0003 -0.6593
 5783TIP3   OH217312   5.505   5.699   1.577  0.1636  0.5252 -0.7950
 5783TIP3    H117313   5.542   5.768   1.522  0.7999  0.4585 -0.4491
 5783TIP3    H217314   5.576   5.636   1.588  0.6912  1.4546  1.6836
 5784TIP3   OH217315   1.015   6.608   4.656 -0.3836  0.2569  0.1512
 5784TIP3    H117316   0.938   6.584   4.708 -0.0929 -0.6278  0.1901
 5784TIP3    H217317   1.058   6.676   4.707 -1.0590  0.6555  0.1981
 5785TIP3   OH217318   6.906   4.648   4.554  0.5684 -0.3690 -0.5446
 5785TIP3    H117319   6.964   4.577   4.527 -1.5192 -1.7627 -1.7237
 5785TIP3    H217320   6.948   4.686   4.631  2.4878 -1.9584 -0.7254
 5786TIP3   OH217321   5.110   1.125   2.014  0.3003  0.5361 -0.4754
 5786TIP3    H117322   5.021   1.126   2.048  0.1303  0.3620 -0.9070
 5786TIP3    H217323   5.134   1.032   2.011 -0.1310  0.4377 -1.9356
 5787TIP3   OH217324   1.521   1.453   4.477 -0.0205 -0.4014  0.2034
 5787TIP3    H117325   1.607   1.492   4.462 -0.4286  0.4570  0.0133
 5787TIP3    H217326   1.539   1.371   4.523  0.9392 -0.5891 -0.4851
 5788TIP3   OH217327   2.355   2.177   4.757 -0.3997  0.1525  0.6639
 5788TIP3    H117328   2.384   2.086   4.760  0.2439  0.3844  1.6667
 5788TIP3    H217329   2.434   2.227   4.739 -0.7569  0.5307  0.0766
 5789TIP3   OH217330   2.900   3.311   4.772  0.8167  0.3573 -0.2762
 5789TIP3    H117331   2.929   3.369   4.702 -0.0627  2.0725  0.6893
 5789TIP3    H217332   2.811   3.342   4.792  0.0267 -1.8181 -0.1874
 5790TIP3   OH217333   3.845   0.490   1.680  0.0283  0.8415 -0.0469
 5790TIP3    H117334   3.822   0.404   1.643 -1.8412  1.4280 -0.3951
 5790TIP3    H217335   3.878   0.539   1.605  0.3935  0.6546 -0.0082
 5791TIP3   OH217336   5.879   6.457   0.260  0.3622 -0.1447 -0.0463
 5791TIP3    H117337   5.791   6.456   0.297  0.6169  0.5973  0.6198
 5791TIP3    H217338   5.885   6.541   0.215  0.7179 -0.1939 -0.0942
 5792TIP3   OH217339   3.254   2.799   0.590  0.0996  0.0689  0.4030
 5792TIP3    H117340   3.190   2.840   0.533  1.8215  1.8606 -0.3836
 5792TIP3    H217341   3.321   2.765   0.531  0.6471 -0.3824  1.2477
 5793TIP3   OH217342   0.921   6.291   4.583 -0.5418  0.1335  0.2386
 5793TIP3    H117343   0.883   6.285   4.496 -2.7222  3.6488  0.7522
 5793TIP3    H217344   0.865   6.235   4.637  0.2051 -1.2492 -0.3561
 5794TIP3   OH217345   6.210   3.868   2.540 -0.0122 -0.0549 -0.1492
 5794TIP3    H117346   6.128   3.913   2.561  0.6455  0.9630  0.2923
 5794TIP3    H217347   6.184   3.777   2.527 -0.9585 -0.1265  1.8489
 5795TIP3   OH217348   4.590   6.802   3.515 -0.6287 -0.0903  0.4002
 5795TIP3    H117349   4.616   6.724   3.564  1.2502 -0.5306 -1.1498
 5795TIP3    H217350   4.522   6.843   3.568  0.4295 -1.1681  2.7396
 5796TIP3   OH217351   3.742   1.088   4.746  0.2786  0.0740  0.3145
 5796TIP3    H117352   3.716   1.066   4.656 -3.9447 -2.5392  1.8641
 5796TIP3    H217353   3.793   1.012   4.775  2.5724  1.3873 -0.0679
 5797TIP3   OH217354   2.293   6.731   0.288  0.0110 -0.0691  0.4659
 5797TIP3    H117355   2.295   6.804   0.226 -0.0829 -1.5530 -1.3775
 5797TIP3    H217356   2.331   6.766   0.368  1.5741  1.5158 -0.8974
 5798TIP3   OH217357   3.965   3.247   4.637 -0.3693  0.8483  0.7165
 5798TIP3    H117358   3.973   3.314   4.568 -0.3732  0.6743  0.5448
 5798TIP3    H217359   3.959   3.165   4.589 -0.0827  0.6999  0.9344
 5799TIP3   OH217360   6.844   2.656   5.806 -0.3031 -0.1213  0.2194
 5799TIP3    H117361   6.766   2.696   5.767 -2.7957 -2.1219  2.6437
 5799TIP3    H217362   6.851   2.697   5.892  1.2512 -0.0973  0.0939
 5800TIP3   OH217363   4.257   5.044   0.683 -0.0223  0.2054  0.4037
 5800TIP3    H117364   4.311   5.060   0.606 -0.3510  1.9866  0.4839
 5800TIP3    H217365   4.184   5.106   0.674 -2.6547 -2.7391 -0.2104
 5801TIP3   OH217366   7.115   3.340   3.549  0.2224  0.2861  0.4673
 5801TIP3    H117367   7.136   3.251   3.524  2.2512  0.5848  0.9279
 5801TIP3    H217368   7.023   3.336   3.578  0.3969 -1.7238  0.8842
 5802TIP3   OH217369   6.495   1.527   3.296  0.3639 -0.3418 -0.0478
 5802TIP3    H117370   6.567   1.590   3.297 -0.5992  0.7903  0.7972
 5802TIP3    H217371   6.539   1.441   3.296  1.6989  0.2905 -1.1731
 5803TIP3   OH217372   2.869   0.218   5.572  0.1261  0.0314 -0.0896
 5803TIP3    H117373   2.857   0.297   5.624  1.0109  0.3481 -0.3483
 5803TIP3    H217374   2.952   0.231   5.527 -0.3834 -0.4451 -1.2164
 5804TIP3   OH217375   1.715   4.752   2.334 -0.1599  0.1568  0.1382
 5804TIP3    H117376   1.809   4.758   2.314 -0.5657  1.0744 -1.6957
 5804TIP3    H217377   1.680   4.696   2.265 -0.6581 -2.2292  2.1670
 5805TIP3   OH217378   3.770   3.606   2.081  0.1379  0.2804  0.5344
 5805TIP3    H117379   3.859   3.640   2.068  0.0480  0.3052 -0.0658
 5805TIP3    H217380   3.767   3.528   2.025 -0.1133  0.0998  0.8039
 5806TIP3   OH217381   2.281   3.601   2.782 -0.5308 -0.0519 -0.6247
 5806TIP3    H117382   2.195   3.637   2.807 -0.0975  1.0803 -0.7008
 5806TIP3    H217383   2.292   3.627   2.691 -0.0668 -0.1087 -0.5860
 5807TIP3   OH217384   4.759   0.448   3.617  0.1274  0.0205  0.3191
 5807TIP3    H117385   4.701   0.523   3.624 -2.8741 -2.2325  2.0167
 5807TIP3    H217386   4.718   0.390   3.553  2.5771 -0.1411 -1.2707
 5808TIP3   OH217387   2.109   2.911   1.984  0.5356  0.3778 -0.4706
 5808TIP3    H117388   2.097   2.822   2.017 -2.6796  0.8961  0.0245
 5808TIP3    H217389   2.167   2.952   2.048  1.5866 -1.1374 -0.3815
 5809TIP3   OH217390   0.513   6.184   0.065  0.4838  0.4791 -0.3325
 5809TIP3    H117391   0.586   6.221   0.014  0.0958  1.9169  0.1237
 5809TIP3    H217392   0.459   6.260   0.088 -0.9736 -0.5150 -0.3464
 5810TIP3   OH217393   6.375   5.791   4.845  0.2888  0.4247 -0.8249
 5810TIP3    H117394   6.386   5.702   4.877  0.4400  0.5936 -0.4006
 5810TIP3    H217395   6.365   5.844   4.924 -0.0153  0.7560 -1.0831
 5811TIP3   OH217396   1.606   4.502   5.367 -0.4881  1.0453  0.1264
 5811TIP3    H117397   1.688   4.479   5.322 -0.2684  1.1291  0.4800
 5811TIP3    H217398   1.632   4.568   5.431 -0.2434 -1.1361  2.4347
 5812TIP3   OH217399   5.296   3.222   1.064 -0.1725 -0.1262  0.0376
 5812TIP3    H117400   5.312   3.287   1.132  1.4250 -0.9450  0.5019
 5812TIP3    H217401   5.279   3.141   1.112  0.1867 -0.5491 -0.5403
 5813TIP3   OH217402   1.473   4.384   1.047 -0.6479 -0.0554  0.6789
 5813TIP3    H117403   1.461   4.330   0.969 -1.5564 -1.7148  1.9158
 5813TIP3    H217404   1.567   4.399   1.051 -0.7389  1.7011 -1.7480
 5814TIP3   OH217405   3.537   1.377   4.054 -0.3211  0.4847  0.4062
 5814TIP3    H117406   3.475   1.449   4.047 -0.0472  0.7941  1.0790
 5814TIP3    H217407   3.619   1.411   4.017 -0.0204  0.7450  1.2664
 5815TIP3   OH217408   0.324   4.361   2.465  0.1059 -0.2823  0.0445
 5815TIP3    H117409   0.290   4.382   2.552 -1.3473 -1.7241 -0.1216
 5815TIP3    H217410   0.301   4.437   2.411 -0.1662  0.0468  0.6164
 5816TIP3   OH217411   3.955   4.692   5.335  0.0646 -0.6032 -0.0243
 5816TIP3    H117412   4.016   4.753   5.293  0.7574 -1.2673  0.0015
 5816TIP3    H217413   3.978   4.606   5.299 -0.9950 -0.8393 -0.1682
 5817TIP3   OH217414   4.292   4.763   5.101  0.1872  0.4335  0.4071
 5817TIP3    H117415   4.379   4.723   5.103  0.1995  0.4097 -0.2536
 5817TIP3    H217416   4.307   4.855   5.122  0.5838  0.7553 -1.1506
 5818TIP3   OH217417   6.606   0.906   4.738 -0.6526 -0.4127 -0.0693
 5818TIP3    H117418   6.654   0.964   4.679  0.6159 -0.5127  0.8166
 5818TIP3    H217419   6.664   0.831   4.751  0.7554  1.1048  3.9247
 5819TIP3   OH217420   2.601   4.956   4.543  0.1863  0.2018 -0.3698
 5819TIP3    H117421   2.633   4.901   4.471  0.7264  0.1879 -0.1235
 5819TIP3    H217422   2.649   5.038   4.533 -0.3300  0.4933 -0.5002
 5820TIP3   OH217423   4.686   1.921   5.012  0.0826  0.2459 -0.0415
 5820TIP3    H117424   4.682   2.015   5.028  0.9409  0.6585 -1.9404
 5820TIP3    H217425   4.618   1.884   5.068  0.0093  1.9374  1.0633
 5821TIP3   OH217426   0.474   5.876   4.600  0.4196  0.4448 -0.0356
 5821TIP3    H117427   0.451   5.818   4.673  1.0098  1.1155  0.7071
 5821TIP3    H217428   0.541   5.934   4.637  0.3186  1.1570 -0.9578
 5822TIP3   OH217429   6.052   3.240   5.749 -0.2561  0.3183  0.3505
 5822TIP3    H117430   6.020   3.179   5.815  1.6750 -0.3310  0.7527
 5822TIP3    H217431   6.078   3.184   5.676 -0.5652  0.8698 -0.1870
 5823TIP3   OH217432   4.407   5.066   2.023  0.4061 -0.1106 -0.4368
 5823TIP3    H117433   4.441   5.152   1.998 -0.3809  0.5977  0.8166
 5823TIP3    H217434   4.312   5.080   2.033  0.5498 -0.4674  2.2098
 5824TIP3   OH217435   0.450   3.272   3.268  0.3183 -0.7692 -0.4331
 5824TIP3    H117436   0.424   3.196   3.216 -0.6231 -1.8998  1.5731
 5824TIP3    H217437   0.368   3.320   3.282  0.3331 -1.0981  0.8949
 5825TIP3   OH217438   6.610   1.074   0.259 -0.0350  0.0079  0.3772
 5825TIP3    H117439   6.657   0.990   0.258  0.9575  0.5428  1.2700
 5825TIP3    H217440   6.542   1.063   0.192  0.7449 -1.1295 -0.2762
 5826TIP3   OH217441   0.129   3.219   4.652 -0.1900  0.1090  0.0005
 5826TIP3    H117442   0.090   3.275   4.719 -1.1365 -1.5622  0.9080
 5826TIP3    H217443   0.202   3.270   4.618 -0.3227  1.4305  1.5643
 5827TIP3   OH217444   0.091   3.142   2.954  0.1150 -0.0740  0.1646
 5827TIP3    H117445   0.020   3.173   3.009  0.8380 -0.7606  1.5248
 5827TIP3    H217446   0.133   3.073   3.005  1.5260  0.0560 -0.7682
 5828TIP3   OH217447   2.799   6.312   4.396  0.3859 -0.3882 -0.2032
 5828TIP3    H117448   2.735   6.367   4.440  0.0306  0.1772 -1.3785
 5828TIP3    H217449   2.870   6.302   4.459  0.0302  0.6373  0.3850
 5829TIP3   OH217450   5.957   4.760   1.706  0.8157 -0.2493 -0.0013
 5829TIP3    H117451   5.935   4.835   1.761  0.4116 -0.3686  0.0033
 5829TIP3    H217452   5.984   4.798   1.623  0.8794 -0.0867  0.0945
 5830TIP3   OH217453   6.454   4.117   1.686  0.4293 -0.6585  0.3634
 5830TIP3    H117454   6.493   4.141   1.602  1.3454 -2.2998  0.2939
 5830TIP3    H217455   6.444   4.200   1.732  1.4743  0.0844 -0.7033
 5831TIP3   OH217456   5.839   4.897   3.792 -0.0953  0.8126  0.5668
 5831TIP3    H117457   5.767   4.847   3.832 -0.3524  0.8814  0.1891
 5831TIP3    H217458   5.906   4.899   3.860  0.4166 -1.1024  0.1824
 5832TIP3   OH217459   3.763   2.719   4.950  0.7349  0.5901  0.0541
 5832TIP3    H117460   3.839   2.675   4.989  0.0770  0.7821  1.6530
 5832TIP3    H217461   3.711   2.748   5.026 -0.5749  1.0863 -0.9933
 5833TIP3   OH217462   4.551   1.125   4.743 -0.0405 -0.3467  0.5741
 5833TIP3    H117463   4.531   1.061   4.674 -0.5819  0.7356 -0.3028
 5833TIP3    H217464   4.475   1.183   4.745  0.8958  0.9351  0.5771
 5834TIP3   OH217465   4.283   3.583   2.963 -0.4289 -0.3757  0.2859
 5834TIP3    H117466   4.201   3.600   3.009  0.5558  1.3916  1.4869
 5834TIP3    H217467   4.272   3.627   2.878 -1.1894 -1.2755 -0.1020
 5835TIP3   OH217468   3.849   5.554   3.162 -0.4039  0.2942  0.2775
 5835TIP3    H117469   3.872   5.618   3.095  0.6282  0.2566  0.5910
 5835TIP3    H217470   3.805   5.605   3.230 -0.1520  0.5679  0.2343
 5836TIP3   OH217471   4.274   0.817   2.953 -0.3708 -0.3738 -0.2897
 5836TIP3    H117472   4.365   0.830   2.981  0.0519 -1.7467 -0.9040
 5836TIP3    H217473   4.249   0.899   2.911  1.3259 -0.6518 -1.9812
 5837TIP3   OH217474   5.191   1.651   1.276 -0.3607 -0.0607  0.4969
 5837TIP3    H117475   5.272   1.606   1.252  0.3544  1.8168 -0.8994
 5837TIP3    H217476   5.125   1.613   1.218 -0.0089 -0.1517  0.1429
 5838TIP3   OH217477   1.422   0.532   2.873  0.0442 -0.5071  0.8226
 5838TIP3    H117478   1.473   0.452   2.858 -0.4709 -0.9078  1.1750
 5838TIP3    H217479   1.384   0.521   2.960 -0.2887 -0.0233  0.7441
 5839TIP3   OH217480   2.214   1.778   0.298 -0.3477  0.0296 -0.5597
 5839TIP3    H117481   2.266   1.704   0.268 -0.5730 -0.3087 -0.1306
 5839TIP3    H217482   2.167   1.745   0.375  0.7109  1.0564  0.5716
 5840TIP3   OH217483   1.984   3.700   3.845 -0.0238 -0.1891  0.1332
 5840TIP3    H117484   2.008   3.640   3.774  2.0568  1.9681 -1.1492
 5840TIP3    H217485   1.892   3.681   3.862  0.2420 -2.9031 -0.9806
 5841TIP3   OH217486   3.706   1.635   5.163 -0.0670 -0.3957 -0.5431
 5841TIP3    H117487   3.712   1.700   5.233 -0.6328 -0.5752 -0.3250
 5841TIP3    H217488   3.780   1.655   5.105 -0.8140  1.0633 -1.0156
 5842TIP3   OH217489   6.542   4.752   3.332  0.2999  0.0523 -0.3680
 5842TIP3    H117490   6.588   4.828   3.367 -1.3370  0.8178  0.2169
 5842TIP3    H217491   6.503   4.709   3.409  1.4577 -1.5863 -0.6502
 5843TIP3   OH217492   1.260   1.676   4.856 -0.0202  0.1745 -0.1504
 5843TIP3    H117493   1.241   1.584   4.878 -0.5857 -0.0327 -1.3978
 5843TIP3    H217494   1.343   1.673   4.808  0.7557  0.5207  1.1097
 5844TIP3   OH217495   0.867   3.767   1.124 -0.2743 -0.3806 -0.0101
 5844TIP3    H117496   0.956   3.761   1.090  0.0772  2.0242  0.3634
 5844TIP3    H217497   0.867   3.707   1.199  0.4557 -1.7815 -1.0832
 5845TIP3   OH217498   5.713   4.326   0.562  0.1871  0.3313  0.3541
 5845TIP3    H117499   5.776   4.396   0.582  1.1214 -0.8616  1.7986
 5845TIP3    H217500   5.639   4.344   0.619  0.3932  0.1946  0.6684
 5846TIP3   OH217501   2.472   5.706   1.781  0.1905  0.0441  0.1593
 5846TIP3    H117502   2.395   5.697   1.724 -0.1456  2.3899  0.1271
 5846TIP3    H217503   2.505   5.794   1.762  2.2326 -0.4869  0.9995
 5847TIP3   OH217504   4.770   0.598   1.458 -0.4992 -0.2332  0.0513
 5847TIP3    H117505   4.697   0.612   1.398 -0.4343 -0.0359  0.0196
 5847TIP3    H217506   4.788   0.684   1.495  0.4531 -0.0422 -0.7888
 5848TIP3   OH217507   4.228   3.756   2.717 -0.4597  0.6066 -0.3951
 5848TIP3    H117508   4.189   3.844   2.714  0.0155  0.8939  1.2670
 5848TIP3    H217509   4.163   3.700   2.675 -1.6768  1.4371  0.3361
 5849TIP3   OH217510   5.360   5.397   2.664  0.1411 -0.0974 -0.7389
 5849TIP3    H117511   5.344   5.394   2.570 -0.6797  2.2516 -0.7422
 5849TIP3    H217512   5.455   5.389   2.673  0.1589 -1.1699 -1.6774
 5850TIP3   OH217513   0.669   0.859   3.214 -0.1279  0.1070  0.0671
 5850TIP3    H117514   0.589   0.907   3.234  1.4152  2.2991  1.2977
 5850TIP3    H217515   0.734   0.927   3.195  1.4275 -1.6077 -1.1020
 5851TIP3   OH217516   2.716   6.469   0.912 -0.4811 -0.3500 -0.1561
 5851TIP3    H117517   2.648   6.404   0.930 -1.2323  0.2922 -0.5879
 5851TIP3    H217518   2.790   6.418   0.880 -1.3919 -0.9367 -1.4108
 5852TIP3   OH217519   0.336   2.411   1.370  0.2590 -0.2647  0.6828
 5852TIP3    H117520   0.345   2.357   1.292  1.1059  0.6094  0.1533
 5852TIP3    H217521   0.352   2.351   1.443  1.2112 -0.7301  0.1091
 5853TIP3   OH217522   0.560   3.379   2.742 -0.3729 -0.3551 -0.1053
 5853TIP3    H117523   0.559   3.300   2.797  0.2410 -0.4100 -0.1700
 5853TIP3    H217524   0.641   3.372   2.692 -0.3585  0.2836 -0.1717
 5854TIP3   OH217525   4.923   1.483   3.779 -0.5605  0.0281 -0.0756
 5854TIP3    H117526   4.888   1.459   3.865  0.1440 -0.4844  0.0733
 5854TIP3    H217527   5.013   1.510   3.796 -0.4644  0.0686 -0.6321
 5855TIP3   OH217528   4.440   1.728   0.359  0.3880  0.4773 -0.2266
 5855TIP3    H117529   4.529   1.736   0.393  0.5888  1.3928 -0.9582
 5855TIP3    H217530   4.435   1.638   0.325  0.4826 -0.1474  1.3214
 5856TIP3   OH217531   2.074   0.509   2.293  0.1925  0.2276  0.6468
 5856TIP3    H117532   2.054   0.514   2.199  0.0141  1.1823  0.7272
 5856TIP3    H217533   2.014   0.573   2.333 -0.4100 -0.8608  1.5272
 5857TIP3   OH217534   3.319   5.356   0.591  0.4385  0.1833 -0.2914
 5857TIP3    H117535   3.286   5.288   0.532 -0.1384  1.1810 -1.1424
 5857TIP3    H217536   3.343   5.308   0.670 -2.5375 -0.7125  0.2016
 5858TIP3   OH217537   4.405   0.550   0.689 -0.6103 -0.1274  0.2605
 5858TIP3    H117538   4.402   0.467   0.642  1.2281 -0.5450  0.7699
 5858TIP3    H217539   4.454   0.609   0.632  0.3390 -0.1956  0.9675
 5859TIP3   OH217540   4.943   2.216   3.934  0.1151 -0.0210 -0.5853
 5859TIP3    H117541   4.897   2.300   3.926 -0.1576 -0.1096 -0.0237
 5859TIP3    H217542   4.890   2.155   3.884 -0.8264 -0.2857  0.6627
 5860TIP3   OH217543   2.721   5.193   0.514  0.4471 -0.3057 -0.1306
 5860TIP3    H117544   2.809   5.182   0.550  0.1169  1.1383  1.2303
 5860TIP3    H217545   2.670   5.123   0.553  0.6465 -0.2060  0.3115
 5861TIP3   OH217546   2.813   1.832   4.303  0.0993 -0.4540  0.0647
 5861TIP3    H117547   2.846   1.778   4.231 -0.3158  0.8202 -1.1299
 5861TIP3    H217548   2.721   1.805   4.312  0.2175 -0.7840  0.2725
 5862TIP3   OH217549   5.995   5.735   4.651 -0.5519 -0.1624  0.2121
 5862TIP3    H117550   6.066   5.792   4.679 -0.8078  0.4034 -0.2804
 5862TIP3    H217551   5.947   5.715   4.731 -0.5183  0.3878  0.3694
 5863TIP3   OH217552   0.468   6.581   0.387  0.1036  0.4491 -0.3119
 5863TIP3    H117553   0.542   6.536   0.428  2.5621  1.1956 -3.5509
 5863TIP3    H217554   0.410   6.511   0.359  0.5412 -0.2672  0.5051
 5864TIP3   OH217555   6.299   5.482   0.439  0.1678 -0.4917  0.1285
 5864TIP3    H117556   6.352   5.511   0.513  2.2933 -1.2261 -1.0385
 5864TIP3    H217557   6.350   5.412   0.398 -2.4471 -2.3726 -0.1547
 5865TIP3   OH217558   7.106   0.902   1.876 -0.0529  0.0965 -0.0683
 5865TIP3    H117559   7.184   0.847   1.870  1.0661  1.3688  1.7213
 5865TIP3    H217560   7.040   0.846   1.918  0.6874 -0.2480  0.6618
 5866TIP3   OH217561   1.511   2.570   5.138 -0.1800  0.2048 -0.1918
 5866TIP3    H117562   1.477   2.496   5.188  1.5370  0.0656  0.8491
 5866TIP3    H217563   1.506   2.644   5.199 -0.6149  0.6564 -0.7670
 5867TIP3   OH217564   2.838   4.577   0.340  0.0675 -0.3602 -0.0137
 5867TIP3    H117565   2.762   4.555   0.286  1.3726 -2.5649 -1.1152
 5867TIP3    H217566   2.840   4.510   0.407  0.9010 -0.1882  0.1393
 5868TIP3   OH217567   4.857   3.832   1.759 -0.3524 -0.2216  0.1479
 5868TIP3    H117568   4.812   3.881   1.828  0.1290  1.0272 -0.3877
 5868TIP3    H217569   4.906   3.899   1.710  0.6138 -1.2935 -0.4062
 5869TIP3   OH217570   6.126   3.540   3.994  0.6431  0.0923 -1.2116
 5869TIP3    H117571   6.034   3.524   4.013  0.6393  0.8720 -0.5403
 5869TIP3    H217572   6.130   3.545   3.898 -0.1027  0.5802 -1.2239
 5870TIP3   OH217573   3.665   6.266   5.242  0.7422 -0.3422 -0.0140
 5870TIP3    H117574   3.577   6.231   5.232 -0.5227  2.1976  1.1457
 5870TIP3    H217575   3.711   6.202   5.296 -0.6706 -1.2975  0.1103
 5871TIP3   OH217576   0.842   2.795   4.304 -0.8079 -0.9800  0.2103
 5871TIP3    H117577   0.895   2.849   4.245 -2.3629  1.8894  1.2211
 5871TIP3    H217578   0.896   2.718   4.322  1.6587  0.3047 -1.2191
 5872TIP3   OH217579   6.323   5.049   5.167 -0.5530  0.2447 -0.2721
 5872TIP3    H117580   6.283   5.034   5.081 -1.3507  2.0801 -0.2574
 5872TIP3    H217581   6.271   5.119   5.206  1.4374  1.3311  0.5958
 5873TIP3   OH217582   5.374   3.307   0.065 -0.1844  0.2792 -0.0234
 5873TIP3    H117583   5.411   3.368   0.002 -1.6413 -1.1610 -2.4193
 5873TIP3    H217584   5.284   3.337   0.078 -0.3925 -0.3822  0.1006
 5874TIP3   OH217585   5.695   1.526   4.485  0.1480 -0.0113 -0.1608
 5874TIP3    H117586   5.775   1.537   4.536 -0.2094  1.5278  0.1000
 5874TIP3    H217587   5.625   1.559   4.541 -0.6785 -1.1717 -0.4588
 5875TIP3   OH217588   2.940   1.765   0.432 -0.0606 -0.4181  0.5321
 5875TIP3    H117589   2.889   1.764   0.351 -1.2368  3.2916  1.0565
 5875TIP3    H217590   3.031   1.768   0.404 -0.4848  2.0732 -0.7919
 5876TIP3   OH217591   6.750   0.738   0.707  0.3845 -0.2370 -0.0885
 5876TIP3    H117592   6.830   0.759   0.661  1.3191 -0.6796  1.2618
 5876TIP3    H217593   6.681   0.743   0.641  1.7859 -1.8609 -1.7556
 5877TIP3   OH217594   4.332   5.563   1.758 -0.2066  0.2085 -0.0692
 5877TIP3    H117595   4.391   5.633   1.786 -0.5240  1.2381 -1.8535
 5877TIP3    H217596   4.247   5.606   1.746 -0.6247 -0.6714 -0.3427
 5878TIP3   OH217597   6.966   3.886   5.214  0.1570  0.0199 -0.1880
 5878TIP3    H117598   6.906   3.929   5.152 -2.2101  0.3527  2.1528
 5878TIP3    H217599   7.022   3.957   5.246 -1.0464  0.6214  0.6709
 5879TIP3   OH217600   6.740   6.581   0.825  0.0210  0.0475  0.0308
 5879TIP3    H117601   6.709   6.592   0.735  1.0907 -0.2436 -0.3893
 5879TIP3    H217602   6.770   6.668   0.851  0.3743 -0.0216 -0.1485
 5880TIP3   OH217603   5.362   6.459   1.105  0.1030 -0.4327  0.3148
 5880TIP3    H117604   5.398   6.439   1.019 -0.1757 -0.7048  0.2592
 5880TIP3    H217605   5.278   6.501   1.087 -0.3682 -1.3055  0.4627
 5881TIP3   OH217606   2.618   2.386   3.796  0.2441 -0.1869  0.1290
 5881TIP3    H117607   2.617   2.479   3.771 -1.3545  0.0518  0.9485
 5881TIP3    H217608   2.643   2.340   3.716  0.7618  0.9234 -0.3731
 5882TIP3   OH217609   0.826   3.197   2.112  0.0677  0.1096  0.1806
 5882TIP3    H117610   0.899   3.135   2.107  0.0991  0.1872 -0.3266
 5882TIP3    H217611   0.847   3.253   2.187  0.9757  0.7065 -0.5059
 5883TIP3   OH217612   0.598   6.236   1.036 -0.2922 -0.4704 -0.2099
 5883TIP3    H117613   0.600   6.328   1.010  1.4410  0.0755  1.6077
 5883TIP3    H217614   0.574   6.190   0.956  0.4332  1.4296 -1.6181
 5884TIP3   OH217615   2.457   3.592   3.361  0.1762 -0.1903 -0.2467
 5884TIP3    H117616   2.492   3.676   3.388  1.6469 -0.8151 -0.1287
 5884TIP3    H217617   2.531   3.532   3.366 -0.7771 -1.4441 -0.5723
 5885TIP3   OH217618   0.007   3.292   4.324 -0.1893  0.2800  0.0120
 5885TIP3    H117619   0.037   3.240   4.399 -1.0025  1.9411  1.5679
 5885TIP3    H217620  -0.016   3.227   4.258  4.3019 -1.2031 -0.4295
 5886TIP3   OH217621   0.505   0.263   3.560  0.4536  0.2942 -0.1064
 5886TIP3    H117622   0.432   0.303   3.609  0.1653 -0.9081  0.4848
 5886TIP3    H217623   0.577   0.325   3.569  0.0240  0.6787  0.8045
 5887TIP3   OH217624   6.601   2.482   5.431 -0.1228 -0.8011 -0.2517
 5887TIP3    H117625   6.666   2.467   5.500 -0.7296  2.0991  1.1288
 5887TIP3    H217626   6.653   2.494   5.351  1.0638  0.7695  0.6874
 5888TIP3   OH217627   2.669   1.665   0.525 -0.2360 -0.1931 -0.6126
 5888TIP3    H117628   2.701   1.619   0.448  0.6665  0.9500 -0.9420
 5888TIP3    H217629   2.698   1.755   0.513  0.8521 -0.1849  1.5699
 5889TIP3   OH217630   6.117   2.863   3.137 -0.1879 -0.1152 -0.3686
 5889TIP3    H117631   6.148   2.953   3.144 -0.7199 -0.0086  0.9019
 5889TIP3    H217632   6.065   2.861   3.056 -1.8143  1.2575  0.5725
 5890TIP3   OH217633   2.062   0.490   4.862 -0.1062 -1.0354 -0.2148
 5890TIP3    H117634   2.142   0.447   4.890  0.1516 -1.1843 -1.1358
 5890TIP3    H217635   2.019   0.517   4.943  2.9142  2.9323  0.3755
 5891TIP3   OH217636   5.618   6.445   0.375 -0.0705 -0.5161  0.0104
 5891TIP3    H117637   5.546   6.501   0.348 -0.0403 -1.1028 -1.4099
 5891TIP3    H217638   5.603   6.429   0.468  0.1182  2.0912  0.5690
 5892TIP3   OH217639   3.090   1.795   2.364 -0.2153  0.1839  0.0703
 5892TIP3    H117640   3.006   1.808   2.320 -0.2471  1.6014  0.5141
 5892TIP3    H217641   3.155   1.799   2.293 -0.4275  0.2326 -0.1234
 5893TIP3   OH217642   4.510   2.897   4.893 -0.2347 -0.1019  0.1274
 5893TIP3    H117643   4.474   2.810   4.875  2.9226 -1.0877 -2.4699
 5893TIP3    H217644   4.472   2.953   4.825  1.4744 -0.7298 -1.4465
 5894TIP3   OH217645   7.089   3.407   2.512  0.5064 -0.0239  0.6924
 5894TIP3    H117646   7.031   3.456   2.454  0.3336 -0.6796  0.2988
 5894TIP3    H217647   7.177   3.433   2.486  0.4189 -0.0459  0.3660
 5895TIP3   OH217648   0.444   0.724   1.759  0.7814 -0.1796 -0.1449
 5895TIP3    H117649   0.386   0.734   1.684 -0.0231 -1.3877  0.2722
 5895TIP3    H217650   0.448   0.629   1.773  0.6200  0.0259  1.5404
 5896TIP3   OH217651   5.842   0.116   2.275 -0.4348  0.2688  0.3909
 5896TIP3    H117652   5.819   0.029   2.308  1.6934 -0.2580  0.5996
 5896TIP3    H217653   5.930   0.107   2.240  0.5178  2.6905  1.8688
 5897TIP3   OH217654   6.320   6.787   0.755  0.1242 -0.5710  0.4626
 5897TIP3    H117655   6.260   6.720   0.789  0.1397 -0.8924 -0.1328
 5897TIP3    H217656   6.393   6.787   0.818  1.1900 -2.6659 -0.6384
 5898TIP3   OH217657   6.076   3.279   1.233  0.1100 -0.7669  0.7960
 5898TIP3    H117658   6.099   3.251   1.145 -1.0474 -0.2271  0.2982
 5898TIP3    H217659   6.012   3.349   1.220 -0.9884 -1.4719  2.0692
 5899TIP3   OH217660   4.365   0.720   4.553  0.2907 -0.1130 -0.1765
 5899TIP3    H117661   4.370   0.680   4.466  0.5493 -0.2803 -0.0851
 5899TIP3    H217662   4.378   0.814   4.537 -0.8399  0.0093 -0.4514
 5900TIP3   OH217663   1.436   6.589   0.892  0.2975  0.3970  0.9937
 5900TIP3    H117664   1.397   6.585   0.804  0.4845  1.5292  0.8414
 5900TIP3    H217665   1.400   6.669   0.930  4.2216  3.0032 -0.0845
 5901TIP3   OH217666   3.000   6.811   4.729  0.1883 -0.0430 -0.6180
 5901TIP3    H117667   3.017   6.737   4.671 -3.7286 -0.3312 -1.7179
 5901TIP3    H217668   2.963   6.772   4.808 -1.7598  0.6111 -1.1414
 5902TIP3   OH217669   1.131   3.190   3.638 -0.4204  0.0844  0.5022
 5902TIP3    H117670   1.227   3.190   3.647 -0.2104  3.2867 -0.2287
 5902TIP3    H217671   1.116   3.201   3.544 -1.4690  0.1502  0.6664
 5903TIP3   OH217672   4.141   6.233   4.688  0.1267 -0.2196  0.3966
 5903TIP3    H117673   4.102   6.295   4.626  0.6719  0.9601  1.1972
 5903TIP3    H217674   4.210   6.190   4.639 -0.7623 -0.7753 -0.4014
 5904TIP3   OH217675   1.295   6.288   4.185  0.0696  0.1272 -0.1551
 5904TIP3    H117676   1.369   6.229   4.171 -0.4930 -0.7613  0.4575
 5904TIP3    H217677   1.222   6.245   4.141 -0.1453  0.8643 -0.5313
 5905TIP3   OH217678   1.083   0.267   1.089  0.0165  0.7062  0.5189
 5905TIP3    H117679   1.154   0.330   1.093  0.8025 -0.1249  0.1232
 5905TIP3    H217680   1.017   0.309   1.033  1.4189  0.3655 -1.5360
 5906TIP3   OH217681   4.335   3.203   2.447  0.2515 -0.1802 -0.3922
 5906TIP3    H117682   4.411   3.149   2.469  0.6755 -0.7725 -2.9633
 5906TIP3    H217683   4.264   3.141   2.432 -1.0341  0.4002  2.6377
 5907TIP3   OH217684   5.592   5.308   1.543 -0.1237  0.0430 -0.3342
 5907TIP3    H117685   5.659   5.240   1.546 -0.6609 -0.5001 -0.4754
 5907TIP3    H217686   5.639   5.387   1.518  0.3680 -0.4658 -1.0663
 5908TIP3   OH217687   6.312   5.552   2.776 -0.3089 -0.6080 -0.1577
 5908TIP3    H117688   6.311   5.607   2.854 -0.9578 -0.2598 -0.4026
 5908TIP3    H217689   6.291   5.464   2.808  2.5669 -1.1471  0.5133
 5909TIP3   OH217690   5.649   5.084   4.698 -0.2606  0.2748 -0.7347
 5909TIP3    H117691   5.629   5.087   4.792 -3.4178  1.2618 -1.3069
 5909TIP3    H217692   5.675   4.994   4.682  0.0967  0.0278  1.0601
 5910TIP3   OH217693   5.730   5.177   5.598 -0.0390  0.1199 -0.4986
 5910TIP3    H117694   5.681   5.256   5.623  1.3120  1.6295 -2.3205
 5910TIP3    H217695   5.819   5.194   5.628  0.2101 -0.8340 -0.6903
 5911TIP3   OH217696   6.683   0.065   5.707  0.3046  0.3215  0.0716
 5911TIP3    H117697   6.682   0.095   5.798  1.5812 -0.1110  0.2526
 5911TIP3    H217698   6.770   0.027   5.696 -0.2925 -0.7888 -0.9680
 5912TIP3   OH217699   6.511   4.263   4.945 -0.1126  0.2355 -0.0450
 5912TIP3    H117700   6.580   4.257   5.011 -0.6833 -0.0403  0.5348
 5912TIP3    H217701   6.466   4.179   4.948  0.4615 -0.1648 -1.4920
 5913TIP3   OH217702   5.059   5.084   2.903  0.2330  0.4913  0.0587
 5913TIP3    H117703   5.140   5.091   2.953  2.0513 -0.0563 -2.6311
 5913TIP3    H217704   5.050   4.991   2.883 -2.1503  0.2414  1.8624
 5914TIP3   OH217705   4.769   1.254   4.208  0.4058 -0.7758  0.2313
 5914TIP3    H117706   4.856   1.295   4.214  0.1823  0.2301 -2.2529
 5914TIP3    H217707   4.786   1.168   4.170  0.2395  0.3890 -2.8217
 5915TIP3   OH217708   4.155   4.378   4.651 -0.4840  0.2865  0.7165
 5915TIP3    H117709   4.196   4.358   4.567 -2.5465 -0.5117 -0.1697
 5915TIP3    H217710   4.148   4.293   4.695 -0.3221  0.5551  1.2718
 5916TIP3   OH217711   2.877   0.150   1.033 -0.8078 -0.2602 -0.6817
 5916TIP3    H117712   2.918   0.136   1.118 -0.9159  0.8426 -0.4344
 5916TIP3    H217713   2.940   0.202   0.983 -1.0031 -0.3781 -1.0585
 5917TIP3   OH217714   0.803   3.664   0.266  0.0933 -0.4348  0.4197
 5917TIP3    H117715   0.743   3.595   0.292 -1.1688  0.5463  0.2067
 5917TIP3    H217716   0.817   3.650   0.172  0.8698 -1.1339  0.6200
 5918TIP3   OH217717   4.953   3.322   4.608 -0.2155  0.2295  0.1013
 5918TIP3    H117718   4.923   3.233   4.588 -1.6117  0.3797  1.3081
 5918TIP3    H217719   4.994   3.352   4.527  0.2365 -1.4843 -0.3523
 5919TIP3   OH217720   2.815   5.961   2.466 -0.0438 -0.0433 -0.2904
 5919TIP3    H117721   2.790   5.873   2.437  0.1077 -0.9120  2.0010
 5919TIP3    H217722   2.731   6.008   2.474 -0.2019 -0.2582 -0.6411
 5920TIP3   OH217723   1.333   6.393   1.445  0.2194  0.0582 -0.4426
 5920TIP3    H117724   1.318   6.323   1.508 -0.5210 -0.3718 -1.0760
 5920TIP3    H217725   1.357   6.469   1.499 -0.3665 -0.3040  0.3536
 5921TIP3   OH217726   2.116   0.293   4.403  0.0215 -0.1268 -0.0945
 5921TIP3    H117727   2.027   0.309   4.371  1.1628 -0.4881 -3.9722
 5921TIP3    H217728   2.132   0.361   4.468 -1.9936  1.9769 -1.6735
 5922TIP3   OH217729   6.233   1.677   4.484 -0.1013 -0.5885 -0.0083
 5922TIP3    H117730   6.228   1.602   4.544 -2.7534 -1.5224 -1.2211
 5922TIP3    H217731   6.315   1.665   4.437  0.1411 -2.0324  0.7124
 5923TIP3   OH217732   6.038   6.207   1.545  0.0137 -0.1101  0.1499
 5923TIP3    H117733   6.097   6.212   1.620  0.3579 -1.4427  0.0006
 5923TIP3    H217734   6.061   6.283   1.491 -0.0317  0.6881  1.2236
 5924TIP3   OH217735   1.023   5.142   0.469  0.5580  0.5305 -0.7233
 5924TIP3    H117736   1.091   5.112   0.529 -0.6940  0.1468  0.5434
 5924TIP3    H217737   0.966   5.197   0.523 -1.2832 -0.8134 -1.2313
 5925TIP3   OH217738   1.943   1.163   1.675  0.4593  0.2034  0.2666
 5925TIP3    H117739   1.885   1.094   1.706  0.4871  0.6291  1.3288
 5925TIP3    H217740   1.958   1.218   1.752  0.6421  1.2470 -0.4840
 5926TIP3   OH217741   0.459   0.721   5.389  0.3244  0.3642 -0.6771
 5926TIP3    H117742   0.502   0.757   5.311  2.0471  0.5103  0.2986
 5926TIP3    H217743   0.414   0.795   5.429  1.3673  0.8057 -0.2964
 5927TIP3   OH217744   3.957   2.489   3.235  0.0823 -0.5872 -0.1647
 5927TIP3    H117745   4.014   2.495   3.312 -1.2902 -0.1463  0.8547
 5927TIP3    H217746   3.969   2.573   3.190 -1.0361  0.2383  1.0054
 5928TIP3   OH217747   5.681   6.164   0.441  0.1918 -0.0763  0.0639
 5928TIP3    H117748   5.664   6.252   0.405 -1.1692  0.5688  2.0935
 5928TIP3    H217749   5.650   6.104   0.373  0.6306  1.0037 -1.1304
 5929TIP3   OH217750   6.469   2.594   2.305 -0.1977 -0.3202  0.6333
 5929TIP3    H117751   6.400   2.575   2.369 -2.2599 -1.1455 -1.6530
 5929TIP3    H217752   6.511   2.509   2.290 -0.6988 -0.4395 -0.1357
 5930TIP3   OH217753   5.032   2.710   5.577  0.0099  0.5369  0.4879
 5930TIP3    H117754   5.009   2.703   5.670  0.3878 -0.2633  0.5341
 5930TIP3    H217755   4.962   2.663   5.532  0.3437  0.0663  0.4512
 5931TIP3   OH217756   4.495   4.070   3.326  0.1273  0.5586 -0.7578
 5931TIP3    H117757   4.520   4.083   3.235  1.1069 -0.8834 -0.7181
 5931TIP3    H217758   4.410   4.027   3.323  0.4532 -0.0718 -1.0102
 5932TIP3   OH217759   3.478   0.207   3.809  0.6066  0.3219  0.8289
 5932TIP3    H117760   3.386   0.224   3.826  0.4161 -1.3215  1.5896
 5932TIP3    H217761   3.501   0.268   3.738 -1.5021 -0.3937 -0.5746
 5933TIP3   OH217762   6.119   4.771   2.633  0.3301 -0.2587 -0.1678
 5933TIP3    H117763   6.045   4.832   2.639 -0.6493 -1.4973  1.0758
 5933TIP3    H217764   6.084   4.687   2.664  2.1011 -1.0399 -0.1240
 5934TIP3   OH217765   3.001   4.651   0.119  0.4165  0.1149 -0.4257
 5934TIP3    H117766   2.925   4.706   0.102  0.2168 -0.3542 -1.1343
 5934TIP3    H217767   2.976   4.596   0.193  0.4001  0.5699 -0.0944
 5935TIP3   OH217768   6.446   6.062   4.517 -0.3781 -0.5103  0.2533
 5935TIP3    H117769   6.507   6.031   4.584  2.4175 -0.5311 -2.0615
 5935TIP3    H217770   6.398   5.984   4.490  1.0131 -1.2736 -0.1339
 5936TIP3   OH217771   5.366   5.412   3.995 -0.2808  0.5582  0.3376
 5936TIP3    H117772   5.392   5.501   3.974 -0.6254  0.3015 -1.4025
 5936TIP3    H217773   5.384   5.363   3.914 -2.8477 -0.3245  0.2273
 5937TIP3   OH217774   4.977   4.623   5.090  0.2416 -0.3497  0.3209
 5937TIP3    H117775   4.999   4.705   5.135 -1.9943  2.4070 -2.9931
 5937TIP3    H217776   5.041   4.617   5.019  1.7157 -2.8168  1.7301
 5938TIP3   OH217777   1.886   2.558   2.777  0.2637 -0.5093 -0.4718
 5938TIP3    H117778   1.853   2.578   2.689  4.0894 -0.8307 -2.1641
 5938TIP3    H217779   1.905   2.464   2.775 -2.4235 -1.2600  1.8935
 5939TIP3   OH217780   0.601   1.494   5.453 -0.4454  0.3067 -0.0026
 5939TIP3    H117781   0.605   1.556   5.380 -1.3439  3.5260  2.4892
 5939TIP3    H217782   0.512   1.460   5.452 -0.4895  0.4319 -0.3081
 5940TIP3   OH217783   6.899   1.250   0.745 -0.1841  0.9198 -0.6038
 5940TIP3    H117784   6.834   1.286   0.806 -0.9704 -0.4901 -0.5651
 5940TIP3    H217785   6.982   1.286   0.775 -0.4491 -0.2493  1.7373
 5941TIP3   OH217786   2.848   6.448   1.700  0.4365 -0.4231 -0.2849
 5941TIP3    H117787   2.916   6.497   1.746  2.0462 -1.8709 -0.9900
 5941TIP3    H217788   2.792   6.414   1.770  1.6782 -0.9325  0.5110
 5942TIP3   OH217789   2.680   5.987   5.855 -0.5938 -0.2136 -0.5795
 5942TIP3    H117790   2.694   5.994   5.760 -0.8599 -1.3987 -0.7280
 5942TIP3    H217791   2.754   5.936   5.887 -2.5933 -3.6620 -0.8765
 5943TIP3   OH217792   5.750   6.011   3.199  1.0996  0.1746  0.2250
 5943TIP3    H117793   5.732   5.955   3.274  0.1258  0.8562  0.5204
 5943TIP3    H217794   5.720   6.098   3.225  0.1009  0.2939 -1.1837
 5944TIP3   OH217795   4.114   1.901   5.379  0.5358  0.1163 -0.0684
 5944TIP3    H117796   4.058   1.913   5.455  1.1115 -1.3116  0.6130
 5944TIP3    H217797   4.104   1.982   5.329 -2.3685 -0.2148 -0.1675
 5945TIP3   OH217798   2.542   3.781   2.325 -0.2626 -0.0672  0.1348
 5945TIP3    H117799   2.576   3.867   2.299  0.6098 -0.3246  0.3920
 5945TIP3    H217800   2.618   3.734   2.358 -1.0140 -0.4031  1.4426
 5946TIP3   OH217801   0.080   2.793   1.787  0.8162  0.5786 -0.1859
 5946TIP3    H117802  -0.004   2.762   1.821  0.8068 -1.5518 -1.8895
 5946TIP3    H217803   0.135   2.804   1.864 -0.8369  1.5133  0.9185
 5947TIP3   OH217804   1.662   1.680   2.092 -0.0844  0.6140  0.4435
 5947TIP3    H117805   1.589   1.623   2.066  2.6434 -1.9732 -2.4060
 5947TIP3    H217806   1.699   1.637   2.169  0.4519 -0.0789 -0.1874
 5948TIP3   OH217807   2.825   4.016   2.312 -0.0895  0.4325  0.5206
 5948TIP3    H117808   2.900   3.964   2.340  0.8205  1.9996  1.1166
 5948TIP3    H217809   2.796   3.975   2.231  1.8001  0.1662 -0.0515
 5949TIP3   OH217810   6.445   2.843   2.159  0.2744  0.0761 -0.2615
 5949TIP3    H117811   6.465   2.883   2.075  2.1995  0.8586  0.5098
 5949TIP3    H217812   6.454   2.749   2.144 -0.6919  0.1169 -1.2134
 5950TIP3   OH217813   3.928   5.808   2.434 -0.1212 -0.0423  0.0829
 5950TIP3    H117814   3.839   5.817   2.399 -0.2504  1.3481  0.6906
 5950TIP3    H217815   3.923   5.730   2.490 -1.2961  0.6442  1.0066
 5951TIP3   OH217816   7.213   5.786   3.749 -0.0762 -0.4428 -0.3369
 5951TIP3    H117817   7.135   5.826   3.712 -0.0502 -0.2246 -0.1567
 5951TIP3    H217818   7.207   5.694   3.723  0.9361  0.0622 -2.5560
 5952TIP3   OH217819   1.406   5.505   0.651  0.1774 -0.5897  0.0971
 5952TIP3    H117820   1.348   5.470   0.583  0.0355 -1.2242  0.5381
 5952TIP3    H217821   1.475   5.439   0.660 -0.2820 -0.9406  1.1883
 5953TIP3   OH217822   1.888   6.505   1.234 -0.5195  0.0046  0.1347
 5953TIP3    H117823   1.867   6.589   1.193  0.6708  0.2574  0.0004
 5953TIP3    H217824   1.844   6.507   1.318 -0.5865  0.7244  0.0869
 5954TIP3   OH217825   3.490   6.061   5.205  0.2050 -0.6496 -0.4711
 5954TIP3    H117826   3.515   5.985   5.151  1.4443 -0.1204 -0.6658
 5954TIP3    H217827   3.442   6.023   5.279  1.7943 -1.7659  0.0428
 5955TIP3   OH217828   0.938   2.524   2.108 -0.2544  0.3741  0.0585
 5955TIP3    H117829   0.989   2.598   2.140 -0.4522  0.2356  0.7121
 5955TIP3    H217830   0.932   2.465   2.184  0.5203 -0.6542 -0.6514
 5956TIP3   OH217831   5.644   3.323   4.532 -0.1065  0.1560  0.5608
 5956TIP3    H117832   5.685   3.347   4.448 -0.7223 -0.0699  0.1917
 5956TIP3    H217833   5.716   3.330   4.595 -0.0992  2.5006  0.4084
 5957TIP3   OH217834   3.697   4.259   2.164  0.3360 -0.2321  0.5525
 5957TIP3    H117835   3.772   4.260   2.105 -0.0160  1.1674  0.0662
 5957TIP3    H217836   3.628   4.214   2.115  0.3411  0.0515  0.2797
 5958TIP3   OH217837   6.470   0.016   5.311  0.0549  0.6147  0.0590
 5958TIP3    H117838   6.546  -0.042   5.310 -1.7474 -1.9132 -1.0878
 5958TIP3    H217839   6.472   0.056   5.398  1.2412 -1.4438  1.0662
 5959TIP3   OH217840   4.960   0.711   1.254  0.0572  0.0567 -0.5941
 5959TIP3    H117841   4.978   0.626   1.292 -0.5059  0.1701 -0.0745
 5959TIP3    H217842   4.943   0.769   1.329  0.8905  0.7363 -0.9079
 5960TIP3   OH217843   4.382   5.744   5.203  0.0697 -0.0963  0.2808
 5960TIP3    H117844   4.412   5.813   5.262  0.9327  0.0448 -0.3047
 5960TIP3    H217845   4.316   5.786   5.148  1.1655  0.5054 -0.6110
 5961TIP3   OH217846   0.738   5.024   5.697 -0.2824  0.4812 -0.1601
 5961TIP3    H117847   0.719   4.945   5.748 -0.3452  2.0424  2.4312
 5961TIP3    H217848   0.769   4.991   5.613  3.5918 -2.4658  2.0705
 5962TIP3   OH217849   6.666   2.429   1.336  0.5254  0.0111  0.2047
 5962TIP3    H117850   6.578   2.411   1.368  0.4677  0.3838  0.2533
 5962TIP3    H217851   6.660   2.420   1.241  0.2967  0.6134  0.1574
 5963TIP3   OH217852   0.925   6.040   5.775 -0.1889  0.0356 -0.3641
 5963TIP3    H117853   1.000   5.981   5.771  1.6047  2.1879 -0.7717
 5963TIP3    H217854   0.942   6.097   5.850 -0.5905  1.5420 -1.3529
 5964TIP3   OH217855   3.670   1.512   2.143 -0.2557 -0.0297 -0.3493
 5964TIP3    H117856   3.608   1.585   2.144  0.9417  1.0499 -1.3921
 5964TIP3    H217857   3.754   1.551   2.167  0.5005 -0.9724 -1.3711
 5965TIP3   OH217858   1.026   2.613   3.752 -0.0421 -0.1408  0.0683
 5965TIP3    H117859   1.111   2.624   3.794 -0.0037  1.2881 -0.3061
 5965TIP3    H217860   0.983   2.698   3.762 -1.7807 -1.0618  0.9508
 5966TIP3   OH217861   1.251   5.609   1.159  0.2858  0.3762 -0.1079
 5966TIP3    H117862   1.252   5.705   1.150  0.6490  0.4706  0.8367
 5966TIP3    H217863   1.251   5.577   1.069 -3.4238  1.2694 -0.5984
 5967TIP3   OH217864   6.936   3.570   4.534 -0.5164 -0.3173 -0.0033
 5967TIP3    H117865   6.966   3.627   4.605 -0.3018 -1.4149  0.8103
 5967TIP3    H217866   7.012   3.515   4.513 -1.1224 -1.2357  0.1671
 5968TIP3   OH217867   2.076   1.528   1.818  0.4448 -0.0748 -0.2313
 5968TIP3    H117868   2.074   1.524   1.722 -0.2426 -2.0249 -0.1780
 5968TIP3    H217869   1.989   1.561   1.842  0.4851  0.0609 -0.2722
 5969TIP3   OH217870   7.007   6.429   0.844  0.1550  0.3509  0.6635
 5969TIP3    H117871   6.966   6.354   0.888  1.8907 -0.1226  1.5286
 5969TIP3    H217872   6.937   6.495   0.840 -1.4441 -1.2906 -0.1894
 5970TIP3   OH217873   1.396   4.810   3.437 -0.4797  0.3076  0.0470
 5970TIP3    H117874   1.475   4.839   3.391 -1.3602  0.7707 -1.2491
 5970TIP3    H217875   1.326   4.861   3.397 -1.5222 -0.5489  0.7370
 5971TIP3   OH217876   0.473   1.667   3.231  0.1764 -0.8068 -0.1198
 5971TIP3    H117877   0.446   1.655   3.322  0.3234  1.6578  0.3239
 5971TIP3    H217878   0.390   1.680   3.184  0.1207 -1.7358 -0.2849
 5972TIP3   OH217879   2.429   2.027   3.371  0.5809 -0.4958  0.3290
 5972TIP3    H117880   2.399   2.079   3.445 -0.1424 -1.1269  0.4914
 5972TIP3    H217881   2.351   2.018   3.315  0.3751 -2.3546  0.8647
 5973TIP3   OH217882   3.990   2.102   0.340  0.5904 -0.1353 -0.1965
 5973TIP3    H117883   3.931   2.176   0.327  0.2842 -0.5925 -1.5112
 5973TIP3    H217884   4.071   2.129   0.296  0.6238 -0.3984 -0.2941
 5974TIP3   OH217885   3.840   4.181   3.917 -0.0841  0.0265  0.1528
 5974TIP3    H117886   3.749   4.168   3.944 -0.6480 -0.4740 -1.8340
 5974TIP3    H217887   3.869   4.257   3.967 -0.9366 -0.9728  2.2776
 5975TIP3   OH217888   1.289   4.452   4.342  0.2746 -0.1236 -0.0905
 5975TIP3    H117889   1.342   4.378   4.312  0.1604 -0.5250  0.6845
 5975TIP3    H217890   1.254   4.423   4.426  1.0875  1.2243  0.7357
 5976TIP3   OH217891   1.322   0.303   1.948 -0.1138 -0.2061 -0.0693
 5976TIP3    H117892   1.278   0.276   1.867  0.8945  0.8980 -1.0329
 5976TIP3    H217893   1.270   0.376   1.981 -0.8031 -0.9701  0.5655
 5977TIP3   OH217894   1.072   3.488   1.208  0.2872 -0.2912 -0.0766
 5977TIP3    H117895   1.086   3.521   1.297  0.8725 -0.4192 -0.1168
 5977TIP3    H217896   1.104   3.398   1.211 -1.6277 -0.9965  0.1246
 5978TIP3   OH217897   6.568   6.523   5.378 -0.3740  0.0848 -0.4559
 5978TIP3    H117898   6.610   6.544   5.461  0.3809  1.1149 -1.0787
 5978TIP3    H217899   6.640   6.501   5.319 -0.7621  1.0229 -1.3062
 5979TIP3   OH217900   5.596   0.738   2.227  0.4863  0.0705 -0.4283
 5979TIP3    H117901   5.580   0.643   2.229  0.2544 -0.0504 -3.6287
 5979TIP3    H217902   5.685   0.748   2.262  0.0041 -1.1117  1.2824
 5980TIP3   OH217903   1.695   5.344   3.131  0.0018 -0.3248 -0.0986
 5980TIP3    H117904   1.686   5.383   3.044 -1.6252 -0.7010 -0.1344
 5980TIP3    H217905   1.671   5.415   3.191  1.3660  0.0090  0.0737
 5981TIP3   OH217906   1.896   3.034   5.654  0.3894  0.1175  0.6222
 5981TIP3    H117907   1.814   2.987   5.667  1.0150 -1.4007 -0.5962
 5981TIP3    H217908   1.933   2.997   5.573  1.8377  1.3942  0.6410
 5982TIP3   OH217909   0.446   1.245   2.653  0.1851 -0.0642  0.4883
 5982TIP3    H117910   0.392   1.169   2.673  0.5505 -0.3998  0.2061
 5982TIP3    H217911   0.426   1.307   2.723 -2.3343  0.7777 -0.8388
 5983TIP3   OH217912   5.196   0.764   1.133  0.3123  0.2193  0.4012
 5983TIP3    H117913   5.124   0.740   1.191  1.0140 -2.0004  0.4770
 5983TIP3    H217914   5.275   0.731   1.177  0.9036 -1.1992 -1.5589
 5984TIP3   OH217915   6.640   0.305   0.639 -0.8977  0.4245  0.1465
 5984TIP3    H117916   6.556   0.260   0.624 -0.9552 -0.1100  1.8630
 5984TIP3    H217917   6.615   0.394   0.665 -0.8640  0.6781 -0.6474
 5985TIP3   OH217918   1.214   2.760   2.049 -0.9555 -0.6304  0.4722
 5985TIP3    H117919   1.192   2.848   2.019  0.9517 -0.1148  0.4536
 5985TIP3    H217920   1.153   2.742   2.120 -3.4408 -0.5820 -1.5460
 5986TIP3   OH217921   6.824   4.440   1.673  0.7378  0.7004 -0.1246
 5986TIP3    H117922   6.773   4.495   1.732  0.7311  0.2719  0.2734
 5986TIP3    H217923   6.873   4.501   1.619  3.1481  1.1243  2.3581
 5987TIP3   OH217924   2.723   5.814   2.060 -0.7297 -0.6334 -0.0803
 5987TIP3    H117925   2.777   5.763   2.121 -0.8492 -1.8170 -0.9105
 5987TIP3    H217926   2.749   5.782   1.973 -0.0127  1.5451 -0.7356
 5988TIP3   OH217927   0.651   5.599   4.498 -0.1893  0.3551  0.0773
 5988TIP3    H117928   0.592   5.539   4.452 -0.4430  0.3375  0.4243
 5988TIP3    H217929   0.736   5.555   4.496 -0.0415  0.6675 -0.9793
 5989TIP3   OH217930   0.802   4.084   1.265 -0.5195 -0.1941  0.0117
 5989TIP3    H117931   0.770   4.155   1.320 -1.9312 -0.6001 -0.2512
 5989TIP3    H217932   0.723   4.039   1.236  0.2589 -0.7135 -1.3810
 5990TIP3   OH217933   5.409   4.228   2.610 -0.1120 -0.1956 -0.0755
 5990TIP3    H117934   5.359   4.185   2.541 -1.2807  1.1707 -0.1292
 5990TIP3    H217935   5.398   4.322   2.593 -0.6698  0.2005  2.1061
 5991TIP3   OH217936   0.053   5.338   3.003  0.1990  0.1030 -0.5094
 5991TIP3    H117937   0.059   5.283   2.925  0.7840 -0.5551 -0.0030
 5991TIP3    H217938   0.089   5.285   3.073 -1.6636  0.1106  0.5249
 5992TIP3   OH217939   4.723   3.715   4.730 -0.1646 -0.1877  0.3634
 5992TIP3    H117940   4.727   3.654   4.656 -2.2891 -0.2597  0.2650
 5992TIP3    H217941   4.807   3.762   4.727 -0.6077  0.6240 -2.8210
 5993TIP3   OH217942   4.018   3.350   2.642 -0.3628  0.3125 -0.2662
 5993TIP3    H117943   4.031   3.255   2.649  2.8341  0.6699  0.1017
 5993TIP3    H217944   4.009   3.366   2.548  0.3780 -0.2439 -0.4388
 5994TIP3   OH217945   5.259   4.531   0.536  0.2493 -0.4918 -0.1827
 5994TIP3    H117946   5.202   4.526   0.612 -0.2515 -1.5105 -0.6153
 5994TIP3    H217947   5.262   4.624   0.515 -0.9132 -0.3808  0.0952
 5995TIP3   OH217948   4.506   1.415   3.511 -0.3181 -0.0416 -0.8652
 5995TIP3    H117949   4.539   1.497   3.474 -0.4155  0.5693  0.3509
 5995TIP3    H217950   4.445   1.383   3.445 -0.8292  1.2511 -1.0614
 5996TIP3   OH217951   5.485   5.682   4.754  0.3216  0.1276  0.1249
 5996TIP3    H117952   5.425   5.662   4.826  1.2868 -1.1053  0.6279
 5996TIP3    H217953   5.444   5.755   4.708 -1.0711 -0.0562  1.0182
 5997TIP3   OH217954   5.725   6.585   1.463  0.0262 -0.2082  0.3767
 5997TIP3    H117955   5.631   6.585   1.476  0.1452 -2.0519  1.5558
 5997TIP3    H217956   5.758   6.519   1.524  2.1151  0.6154  0.2286
 5998TIP3   OH217957   3.617   5.584   0.245 -0.6487  0.0761  0.6240
 5998TIP3    H117958   3.530   5.622   0.238 -1.4217 -1.7748 -0.3709
 5998TIP3    H217959   3.608   5.514   0.310 -0.4274 -1.3841 -0.8433
 5999TIP3   OH217960   4.860   1.341   1.519  0.4948  0.5734 -0.4058
 5999TIP3    H117961   4.833   1.432   1.525  0.2544  0.4158  2.0200
 5999TIP3    H217962   4.923   1.338   1.447  0.4468  2.6167 -0.5701
 6000TIP3   OH217963   0.600   2.653   2.862 -0.4219 -0.4323  1.1953
 6000TIP3    H117964   0.587   2.560   2.881 -1.0882 -0.4384  0.7226
 6000TIP3    H217965   0.694   2.667   2.877 -0.1229 -1.3941  0.3649
 6001TIP3   OH217966   2.508   6.300   0.986 -0.6229 -0.6648 -0.5275
 6001TIP3    H117967   2.439   6.366   0.979  1.0420  1.0844 -1.0555
 6001TIP3    H217968   2.532   6.300   1.079 -0.5755 -0.4822 -0.5396
 6002TIP3   OH217969   5.470   2.935   5.797 -0.4913 -0.8198  0.2507
 6002TIP3    H117970   5.492   2.945   5.704  2.7020 -2.0860  0.7743
 6002TIP3    H217971   5.454   3.025   5.827  2.0979  0.0573 -0.7572
 6003TIP3   OH217972   0.444   1.810   2.526 -0.3050  0.2161  0.1487
 6003TIP3    H117973   0.471   1.891   2.570 -1.1730  0.6164 -0.0372
 6003TIP3    H217974   0.517   1.750   2.541 -0.6028  0.2961  2.2459
 6004TIP3   OH217975   6.989   5.770   0.072 -0.0480  0.2476 -0.4422
 6004TIP3    H117976   7.037   5.768   0.155 -1.1980  2.4593  0.3464
 6004TIP3    H217977   7.055   5.749   0.006  1.6650  1.5914  0.7484
 6005TIP3   OH217978   5.376   3.451   4.904  0.2759  1.0638 -0.2523
 6005TIP3    H117979   5.291   3.431   4.942  0.0766  1.4654 -0.4791
 6005TIP3    H217980   5.406   3.529   4.951  0.8731  0.4750  0.3644
 6006TIP3   OH217981   0.146   0.548   3.832 -0.2384  0.5666  0.0365
 6006TIP3    H117982   0.120   0.459   3.808  1.2361  0.6463 -2.1364
 6006TIP3    H217983   0.171   0.541   3.924  1.1003 -1.6062 -0.4145
 6007TIP3   OH217984   1.772   1.852   2.617 -0.3771 -0.0894  0.3365
 6007TIP3    H117985   1.799   1.854   2.708 -0.3451 -0.3559  0.3354
 6007TIP3    H217986   1.827   1.917   2.573  1.2514 -1.5537  0.0746
 6008TIP3   OH217987   3.595   6.611   4.069  0.4402  0.2102  0.2479
 6008TIP3    H117988   3.554   6.529   4.040 -0.0572  0.5167  0.0710
 6008TIP3    H217989   3.641   6.643   3.991 -0.3052  0.6683 -0.0219
 6009TIP3   OH217990   5.159   2.220   3.688 -0.4980  0.7234 -0.1933
 6009TIP3    H117991   5.229   2.277   3.659 -0.7803  2.1455  1.7495
 6009TIP3    H217992   5.183   2.195   3.777 -0.8184 -1.5450 -0.6810
 6010TIP3   OH217993   5.780   1.553   5.055 -0.2804  1.0063  0.1344
 6010TIP3    H117994   5.745   1.556   4.965 -0.3116 -1.1408  0.0320
 6010TIP3    H217995   5.716   1.502   5.104  0.5285  0.7962  1.0021
 6011TIP3   OH217996   3.258   3.605   1.161 -0.2646  0.2205  0.7928
 6011TIP3    H117997   3.326   3.642   1.104 -0.7236  1.5443  1.0564
 6011TIP3    H217998   3.180   3.658   1.142 -0.7008 -0.0040  1.8896
 6012TIP3   OH217999   0.309   0.394   0.434 -0.1065  0.1531  0.0868
 6012TIP3    H118000   0.238   0.412   0.496 -0.1254  2.8605 -0.6217
 6012TIP3    H218001   0.270   0.410   0.348  1.2557  1.4404 -0.3244
 6013TIP3   OH218002   5.026   1.371   4.292  0.1130 -0.3061 -0.2629
 6013TIP3    H118003   5.011   1.388   4.385 -0.7460 -0.8439 -0.2915
 6013TIP3    H218004   5.114   1.335   4.288  0.2224 -0.1134  0.3254
 6014TIP3   OH218005   2.739   6.107   4.217  0.6430 -0.4166  0.0562
 6014TIP3    H118006   2.785   6.129   4.136 -0.1979  0.6787 -0.1422
 6014TIP3    H218007   2.791   6.148   4.286  0.8771 -0.6109 -0.0020
 6015TIP3   OH218008   5.902   4.526   5.006 -0.0178 -0.3474  0.2079
 6015TIP3    H118009   5.977   4.467   4.994  0.1118 -0.1241 -0.1200
 6015TIP3    H218010   5.921   4.600   4.948  0.5420  0.7183  1.6953
 6016TIP3   OH218011   0.520   2.962   4.153 -0.6971 -0.6564 -0.0506
 6016TIP3    H118012   0.448   3.024   4.136  0.4402  0.6273 -0.3441
 6016TIP3    H218013   0.579   3.010   4.211 -0.2727 -1.8477  0.5269
 6017TIP3   OH218014   2.862   5.398   1.048  0.5866 -0.1394  0.3446
 6017TIP3    H118015   2.883   5.338   0.976  0.5929  0.5383 -0.2391
 6017TIP3    H218016   2.802   5.349   1.103  0.4122 -0.6037 -0.2391
 6018TIP3   OH218017   0.424   4.846   1.199  0.1211  0.2528 -0.2224
 6018TIP3    H118018   0.362   4.775   1.215 -1.1323  1.3634 -0.0154
 6018TIP3    H218019   0.405   4.874   1.109  0.7774  0.1792 -0.3891
 6019TIP3   OH218020   2.822   6.037   1.224 -0.0528  0.0821  0.3210
 6019TIP3    H118021   2.810   6.004   1.135 -0.1823  0.8673  0.0338
 6019TIP3    H218022   2.859   6.125   1.212  2.3886 -0.7739  1.1047
 6020TIP3   OH218023   6.110   3.873   5.344  0.0517 -0.1524  0.0324
 6020TIP3    H118024   6.133   3.815   5.272 -0.7600  0.6790 -0.9217
 6020TIP3    H218025   6.038   3.926   5.311  2.0857  2.8943  0.0614
 6021TIP3   OH218026   5.535   1.696   4.103 -0.0550  0.4687  0.7017
 6021TIP3    H118027   5.474   1.720   4.034 -0.3011  1.7928  1.3531
 6021TIP3    H218028   5.540   1.774   4.159  1.0165 -0.1722  1.5325
 6022TIP3   OH218029   1.545   5.236   1.812 -0.2962 -0.3250 -0.0805
 6022TIP3    H118030   1.578   5.215   1.900  1.8016  1.5639 -0.3134
 6022TIP3    H218031   1.452   5.213   1.815  0.0271 -1.6986  2.1342
 6023TIP3   OH218032   5.836   0.520   4.857  0.6280  0.3867 -0.7114
 6023TIP3    H118033   5.848   0.426   4.846  2.0612  0.5950 -1.1690
 6023TIP3    H218034   5.871   0.538   4.944  0.3573  0.5039 -0.6259
 6024TIP3   OH218035   6.932   5.004   0.793  0.6264 -0.0112 -0.5301
 6024TIP3    H118036   6.986   4.963   0.725 -0.6424 -0.4175 -1.3430
 6024TIP3    H218037   6.986   5.004   0.871  2.1778  0.5564 -1.5701
 6025TIP3   OH218038   1.249   2.273   1.852 -0.2660  0.0479 -0.3844
 6025TIP3    H118039   1.314   2.319   1.799  1.6355 -2.7708 -0.7118
 6025TIP3    H218040   1.174   2.333   1.856  2.0490  3.1976 -0.5122
 6026TIP3   OH218041   1.587   1.287   4.242 -0.3678 -0.0799 -0.0925
 6026TIP3    H118042   1.509   1.333   4.211 -0.1704 -0.1217 -0.6678
 6026TIP3    H218043   1.659   1.345   4.221 -0.3302  0.5798  1.6561
 6027TIP3   OH218044   3.041   6.178   4.648 -0.1391 -0.0034  0.3173
 6027TIP3    H118045   3.031   6.155   4.740 -2.4004 -0.7960 -0.0452
 6027TIP3    H218046   3.062   6.096   4.605 -2.3064 -0.3575 -0.2176
 6028TIP3   OH218047   2.654   2.877   0.023 -0.3142  0.4606 -0.5502
 6028TIP3    H118048   2.586   2.941   0.044 -0.0661  0.1162  1.4972
 6028TIP3    H218049   2.722   2.891   0.089  1.2166  0.1818 -1.9897
 6029TIP3   OH218050   0.910   1.890   3.409 -0.2052 -0.0638 -0.0480
 6029TIP3    H118051   0.855   1.812   3.405  0.0349 -0.2430  0.1352
 6029TIP3    H218052   0.946   1.890   3.498  2.1713 -1.3857 -0.9126
 6030TIP3   OH218053   5.384   3.480   5.885  0.3262  0.4474 -0.1999
 6030TIP3    H118054   5.329   3.517   5.816  0.4386 -1.7839 -1.5824
 6030TIP3    H218055   5.473   3.498   5.857  0.4049 -1.3858 -1.2697
 6031TIP3   OH218056   2.864   2.574   5.349  0.0822 -0.4688 -0.2136
 6031TIP3    H118057   2.848   2.502   5.287  0.7812 -0.7165 -0.1131
 6031TIP3    H218058   2.783   2.579   5.401 -0.5413 -0.2040 -1.1929
 6032TIP3   OH218059   4.822   5.540   5.681 -0.0139 -0.2442  0.0386
 6032TIP3    H118060   4.865   5.603   5.740  1.6967 -1.4333  0.1322
 6032TIP3    H218061   4.881   5.534   5.605 -0.6458 -1.0069 -0.4079
 6033TIP3   OH218062   1.271   2.314   5.752 -0.0580  0.7876 -0.7332
 6033TIP3    H118063   1.203   2.354   5.699 -2.1295 -0.2922  0.9485
 6033TIP3    H218064   1.268   2.221   5.729  1.6434  0.8462 -1.3915
 6034TIP3   OH218065   6.676   3.076   2.917  0.4290 -0.8444 -0.2978
 6034TIP3    H118066   6.624   2.996   2.927  0.2505 -0.9502 -1.9088
 6034TIP3    H218067   6.613   3.147   2.930 -0.1697 -0.9714 -2.2307
 6035TIP3   OH218068   5.661   4.141   4.543 -0.2739 -0.3838  0.2084
 6035TIP3    H118069   5.615   4.136   4.627 -0.7616 -0.2098 -0.0468
 6035TIP3    H218070   5.637   4.061   4.497 -0.1917 -0.3696  0.1409
 6036TIP3   OH218071   1.123   0.940   3.149  0.0638  0.7160 -0.2309
 6036TIP3    H118072   1.071   0.901   3.079 -0.0421 -0.3469  0.4127
 6036TIP3    H218073   1.156   0.865   3.199  0.6672  1.4320  0.4765
 6037TIP3   OH218074   5.976   5.962   2.527  0.1417 -0.1642 -0.6411
 6037TIP3    H118075   5.995   5.929   2.439  0.7299  0.2808 -0.6872
 6037TIP3    H218076   6.059   5.999   2.557 -0.5574  1.5394 -0.7188
 6038TIP3   OH218077   6.728   2.954   1.727 -0.1086 -0.3831 -0.5692
 6038TIP3    H118078   6.670   2.925   1.657 -1.0331  1.8915 -0.8244
 6038TIP3    H218079   6.812   2.973   1.684 -1.1798  2.7897 -1.5656
 6039TIP3   OH218080   2.468   6.030   4.503 -0.2145  0.4760 -0.1533
 6039TIP3    H118081   2.517   5.984   4.434 -0.5892  0.5332 -0.4564
 6039TIP3    H218082   2.449   5.962   4.567  0.5648  0.5197  0.1429
 6040TIP3   OH218083   6.346   0.203   3.712  0.0250  1.0337  0.0176
 6040TIP3    H118084   6.353   0.294   3.683  0.3856  1.5125  1.4901
 6040TIP3    H218085   6.339   0.209   3.808 -0.0877 -0.4806  0.1293
 6041TIP3   OH218086   2.380   1.653   1.232 -0.0071  0.0080 -0.2827
 6041TIP3    H118087   2.397   1.558   1.231 -0.2330 -0.0368 -0.0780
 6041TIP3    H218088   2.461   1.692   1.202 -0.0714 -0.2779 -0.8504
 6042TIP3   OH218089   4.051   5.245   5.277 -0.1429 -0.0759 -0.3235
 6042TIP3    H118090   3.996   5.166   5.279 -0.1338 -0.0978 -0.7647
 6042TIP3    H218091   4.138   5.214   5.303 -0.3359 -0.0381  0.3945
 6043TIP3   OH218092   6.663   3.647   4.008 -0.0530  0.0528 -0.1895
 6043TIP3    H118093   6.617   3.665   3.926 -0.0348  0.0260 -0.2055
 6043TIP3    H218094   6.755   3.666   3.989  0.0604 -0.6489 -0.3916
 6044TIP3   OH218095   0.661   2.361   5.000  0.1324  0.3211  0.7715
 6044TIP3    H118096   0.708   2.281   5.023 -0.9830 -0.7001 -0.2988
 6044TIP3    H218097   0.728   2.429   4.998  0.9993 -0.4428  2.3250
 6045TIP3   OH218098   3.624   1.743   4.800 -0.1942 -0.0315  0.0646
 6045TIP3    H118099   3.533   1.713   4.800  0.5143 -2.3780  0.6308
 6045TIP3    H218100   3.653   1.733   4.710  0.0842 -1.3396  0.2776
 6046TIP3   OH218101   5.344   4.490   2.551  0.2097  0.0896  0.5163
 6046TIP3    H118102   5.345   4.505   2.456 -0.6747  1.1255  0.6502
 6046TIP3    H218103   5.409   4.551   2.585  0.6782 -0.4307  0.5718
 6047TIP3   OH218104   3.762   3.258   2.560 -0.5067 -0.5344 -0.3980
 6047TIP3    H118105   3.799   3.278   2.645 -0.6154 -0.0621 -0.4610
 6047TIP3    H218106   3.824   3.196   2.521  0.1601  0.1589 -0.4551
 6048TIP3   OH218107   5.214   3.927   3.703 -0.0961 -0.0854 -0.1478
 6048TIP3    H118108   5.275   4.001   3.712 -0.9841  0.6063  0.3448
 6048TIP3    H218109   5.137   3.965   3.661 -0.2017 -0.9507 -0.7503
 6049TIP3   OH218110   4.904   5.667   2.784  0.0964 -0.7919 -0.2227
 6049TIP3    H118111   4.948   5.669   2.698 -0.5719  0.4665 -0.5555
 6049TIP3    H218112   4.812   5.655   2.763 -0.3079  1.2296  0.1874
 6050TIP3   OH218113   7.102   6.261   1.988  0.4587  0.2268  0.1855
 6050TIP3    H118114   7.114   6.347   1.949 -0.5711  0.6884  0.8294
 6050TIP3    H218115   7.043   6.215   1.929 -2.6628  1.6050  2.0316
 6051TIP3   OH218116   0.401   1.111   0.809  0.6751 -0.0443  0.4145
 6051TIP3    H118117   0.332   1.134   0.747 -1.4244 -0.6110  2.4174
 6051TIP3    H218118   0.469   1.071   0.755 -1.1426 -0.7201 -1.5069
 6052TIP3   OH218119   6.411   0.437   2.655 -0.1953  0.0210 -0.1544
 6052TIP3    H118120   6.336   0.451   2.597  2.0692  1.3105 -3.0347
 6052TIP3    H218121   6.472   0.385   2.603  1.8056  0.8533  1.2333
 6053TIP3   OH218122   2.825   3.321   0.642 -0.3423 -0.1083 -0.2588
 6053TIP3    H118123   2.794   3.254   0.703  1.2357 -2.1468 -1.5554
 6053TIP3    H218124   2.921   3.319   0.651 -0.2459  2.1361 -0.2342
 6054TIP3   OH218125   1.968   2.354   1.944  0.0922  0.0140 -0.1350
 6054TIP3    H118126   1.883   2.319   1.969  0.7936 -0.3599  1.8573
 6054TIP3    H218127   1.972   2.440   1.986  1.0967 -0.4034  0.6435
 6055TIP3   OH218128   1.491   1.669   4.704  0.1599  0.1039 -0.2347
 6055TIP3    H118129   1.465   1.700   4.618 -0.4288 -0.3826 -0.2381
 6055TIP3    H218130   1.573   1.621   4.688  0.0179 -0.0421 -0.5293
 6056TIP3   OH218131   1.628   3.317   3.803  0.3567  0.0665  0.0873
 6056TIP3    H118132   1.681   3.358   3.735 -0.7980  1.9833  0.2873
 6056TIP3    H218133   1.689   3.256   3.846  0.8706 -1.9739 -3.1811
 6057TIP3   OH218134   5.273   4.678   5.536  0.3796 -0.2484 -0.6583
 6057TIP3    H118135   5.206   4.684   5.604 -0.3573  0.8867 -1.4398
 6057TIP3    H218136   5.282   4.584   5.519  0.0936 -0.5010  0.5156
 6058TIP3   OH218137   5.253   1.476   1.774 -0.3594 -0.1602  0.7300
 6058TIP3    H118138   5.262   1.430   1.857  0.6666 -1.4483 -0.0598
 6058TIP3    H218139   5.320   1.545   1.777  1.4968 -1.8399 -0.0306
 6059TIP3   OH218140   1.002   4.265   3.923 -0.3599 -0.0274 -0.1930
 6059TIP3    H118141   0.982   4.346   3.971  0.6734  0.1953 -0.1145
 6059TIP3    H218142   1.093   4.246   3.944 -0.6808 -1.4154  0.0589
 6060TIP3   OH218143   1.587   5.779   3.398  0.4375 -0.3199  0.3163
 6060TIP3    H118144   1.559   5.795   3.309 -0.5394  0.7561  0.7998
 6060TIP3    H218145   1.507   5.755   3.445  0.6972  0.4727  1.1962
 6061TIP3   OH218146   0.537   1.193   1.280  0.4010  0.0176  0.2506
 6061TIP3    H118147   0.570   1.282   1.290 -0.0357  0.1961  0.1038
 6061TIP3    H218148   0.552   1.172   1.187  2.5370 -0.8782  0.7318
 6062TIP3   OH218149   3.921   5.420   5.446  0.3542 -0.0842 -0.1033
 6062TIP3    H118150   3.993   5.435   5.506  1.5959  0.5011 -1.6639
 6062TIP3    H218151   3.957   5.361   5.379 -0.4764  0.5432 -1.1394
 6063TIP3   OH218152   4.660   4.265   3.860 -0.0565 -0.1606  0.4399
 6063TIP3    H118153   4.692   4.284   3.948  1.5250 -2.1986  0.3722
 6063TIP3    H218154   4.659   4.350   3.816  2.0391  0.4797  1.5148
 6064TIP3   OH218155   5.111   3.269   2.143 -0.1412  0.3929  0.1787
 6064TIP3    H118156   5.174   3.338   2.165 -0.2844  0.7394 -0.4415
 6064TIP3    H218157   5.026   3.305   2.169 -0.0986 -0.0472  0.9547
 6065TIP3   OH218158   4.103   5.147   1.981  1.1117 -0.0498 -0.1656
 6065TIP3    H118159   4.031   5.089   1.956  1.1450 -0.5079  0.7683
 6065TIP3    H218160   4.063   5.233   1.990  0.4731 -0.4644  1.2417
 6066TIP3   OH218161   3.592   4.093   4.009  0.2935 -0.5791  0.3948
 6066TIP3    H118162   3.511   4.089   4.060  0.7419 -1.7302  1.0743
 6066TIP3    H218163   3.604   4.003   3.978  1.0958 -0.3221 -0.0476
 6067TIP3   OH218164   4.703   1.120   0.199 -0.6406  0.2441  0.2005
 6067TIP3    H118165   4.724   1.095   0.289  3.3382 -1.5380 -0.9936
 6067TIP3    H218166   4.676   1.038   0.157  1.0727  0.2434 -1.0007
 6068TIP3   OH218167   6.968   5.302   5.851  0.3454 -0.7541 -0.2030
 6068TIP3    H118168   7.041   5.278   5.908  1.1540 -0.2318 -1.0118
 6068TIP3    H218169   7.006   5.357   5.783 -0.8502 -0.2120 -0.4673
 6069TIP3   OH218170   4.050   5.830   4.580 -0.0438 -0.3168 -0.1512
 6069TIP3    H118171   4.105   5.870   4.649 -0.2160  0.2786 -0.3515
 6069TIP3    H218172   4.028   5.903   4.523 -0.0083 -0.7906 -0.7722
 6070TIP3   OH218173   6.518   1.203   4.279 -0.6948 -0.1573 -0.3447
 6070TIP3    H118174   6.607   1.206   4.244 -0.3469  1.4078  0.6040
 6070TIP3    H218175   6.471   1.145   4.218  0.6689 -0.1145 -1.5046
 6071TIP3   OH218176   3.426   0.196   1.003 -0.4339  0.4757  0.2793
 6071TIP3    H118177   3.400   0.243   1.082 -0.4431 -0.8883  1.1209
 6071TIP3    H218178   3.479   0.258   0.954  1.0542  0.7928  2.2068
 6072TIP3   OH218179   3.134   1.552   2.984  0.6039  0.0573 -0.0675
 6072TIP3    H118180   3.167   1.467   2.955  1.1831  0.2494  0.0193
 6072TIP3    H218181   3.152   1.612   2.912 -2.3609 -0.4209 -1.3668
 6073TIP3   OH218182   2.925   1.013   2.805  0.1641  0.1450 -0.4583
 6073TIP3    H118183   2.853   0.950   2.816  1.0994 -0.8444  0.1448
 6073TIP3    H218184   2.974   0.981   2.730  0.6752  0.1165 -0.1163
 6074TIP3   OH218185   4.784   5.365   2.026 -0.0239 -0.0259 -0.0822
 6074TIP3    H118186   4.779   5.449   2.071  0.9729 -0.6078  1.1768
 6074TIP3    H218187   4.825   5.384   1.942  0.4515  0.7090  0.3090
 6075TIP3   OH218188   5.604   0.787   3.711 -0.1457  0.2697 -0.1667
 6075TIP3    H118189   5.629   0.731   3.784  2.2424 -0.4045 -1.3944
 6075TIP3    H218190   5.550   0.730   3.655 -0.0413  0.0513 -0.0492
 6076TIP3   OH218191   2.314   4.734   2.087  0.0701 -0.1461  0.5527
 6076TIP3    H118192   2.300   4.822   2.054  1.0314 -0.6339 -1.2950
 6076TIP3    H218193   2.283   4.677   2.017  2.8427 -1.2354  0.0810
 6077TIP3   OH218194   1.081   4.621   0.647  0.2426  0.0235  0.4584
 6077TIP3    H118195   1.137   4.564   0.699 -0.2790  0.9502  2.0802
 6077TIP3    H218196   0.992   4.594   0.669 -0.0181  1.5251  1.3742
 6078TIP3   OH218197   3.838   4.131   2.403  0.3503 -0.1950 -0.0587
 6078TIP3    H118198   3.767   4.152   2.342  1.8596  1.9746 -1.2180
 6078TIP3    H218199   3.801   4.145   2.490 -1.3808 -1.7599 -0.4780
 6079TIP3   OH218200   3.637   6.344   0.395  0.6749 -0.0793  0.5928
 6079TIP3    H118201   3.679   6.428   0.414 -0.6472  0.4292  1.4583
 6079TIP3    H218202   3.550   6.368   0.363  1.0105 -1.1021 -1.2102
 6080TIP3   OH218203   5.574   3.282   0.479 -0.0949  0.8326  0.0220
 6080TIP3    H118204   5.665   3.283   0.450 -0.3731  0.2446 -0.9469
 6080TIP3    H218205   5.578   3.260   0.572  0.6906 -1.7354 -0.5194
 6081TIP3   OH218206   5.380   3.569   2.948 -0.2195 -0.8062  0.6319
 6081TIP3    H118207   5.394   3.487   2.996  0.2569 -1.8413 -1.1917
 6081TIP3    H218208   5.464   3.587   2.906 -0.1695  0.9097  1.3896
 6082TIP3   OH218209   4.028   0.579   4.854  0.4153 -0.0681 -0.3376
 6082TIP3    H118210   4.071   0.498   4.879  0.5320  0.3183  0.7563
 6082TIP3    H218211   4.081   0.614   4.782  1.9861  0.4158  0.9957
 6083TIP3   OH218212   1.658   0.656   1.876  0.1419  0.0016  0.0281
 6083TIP3    H118213   1.672   0.592   1.946  1.0294  0.2372  0.0698
 6083TIP3    H218214   1.593   0.615   1.818  0.9229 -1.0602 -0.1066
 6084TIP3   OH218215   3.235   5.619   4.609 -0.2837 -0.0185  0.1213
 6084TIP3    H118216   3.234   5.536   4.658  1.4563  0.2872  0.7660
 6084TIP3    H218217   3.180   5.678   4.660 -0.2395 -0.3260  0.5347
 6085TIP3   OH218218   1.905   0.115   4.231 -0.3417  0.0364 -0.0968
 6085TIP3    H118219   1.968   0.121   4.159 -1.1136 -0.0839 -0.7959
 6085TIP3    H218220   1.916   0.026   4.265  0.6050  0.3619  0.4914
 6086TIP3   OH218221   2.227   6.604   2.616 -0.5196  0.5607 -0.1523
 6086TIP3    H118222   2.217   6.515   2.649 -0.5945  0.6180 -0.0185
 6086TIP3    H218223   2.138   6.640   2.617 -0.4345  0.7726  0.1826
 6087TIP3   OH218224   0.439   4.867   4.385 -0.0176 -0.8257  0.0818
 6087TIP3    H118225   0.405   4.806   4.320  0.3001 -3.2640  2.0639
 6087TIP3    H218226   0.372   4.868   4.454  1.1953 -1.0556  1.2974
 6088TIP3   OH218227   5.801   2.142   2.273 -0.4078  0.0229  0.4962
 6088TIP3    H118228   5.706   2.148   2.263 -0.3334 -1.6084 -1.9442
 6088TIP3    H218229   5.817   2.054   2.309  0.1945  0.5175  1.5171
 6089TIP3   OH218230   0.294   3.663   0.620  0.3473  0.1353  0.1613
 6089TIP3    H118231   0.324   3.573   0.633 -0.2671 -0.0904  0.0406
 6089TIP3    H218232   0.372   3.710   0.591  0.7854 -0.2487  0.6857
 6090TIP3   OH218233   6.837   4.080   3.057 -0.6728  0.2067 -0.2332
 6090TIP3    H118234   6.924   4.111   3.035  0.4452 -0.0996  3.2501
 6090TIP3    H218235   6.785   4.159   3.068 -1.0902  0.3813 -2.8368
 6091TIP3   OH218236   7.117   1.045   0.525 -0.1662 -0.3638 -0.1700
 6091TIP3    H118237   7.070   1.007   0.599 -1.5215  1.2388 -0.1562
 6091TIP3    H218238   7.152   0.969   0.477 -0.1860 -1.4647  1.4876
 6092TIP3   OH218239   1.522   6.366   2.191 -0.3492  1.0672 -0.1430
 6092TIP3    H118240   1.609   6.329   2.175 -0.7584 -0.2976  0.6100
 6092TIP3    H218241   1.540   6.456   2.220  0.6211  1.8808 -2.9450
 6093TIP3   OH218242   4.166   4.856   0.424  0.3215  0.1936 -0.1886
 6093TIP3    H118243   4.108   4.791   0.384  0.0789  0.6606 -0.6027
 6093TIP3    H218244   4.237   4.804   0.463  0.2247 -0.3078 -0.6712
 6094TIP3   OH218245   0.233   5.160   3.163  0.5695  0.5386 -0.0865
 6094TIP3    H118246   0.296   5.137   3.231  1.7001 -0.7249 -1.5100
 6094TIP3    H218247   0.286   5.183   3.087 -0.6325  3.1201 -0.2538
 6095TIP3   OH218248   5.281   6.444   3.268  0.4580 -0.0749 -0.1285
 6095TIP3    H118249   5.339   6.485   3.204  1.0590 -1.1114 -0.2615
 6095TIP3    H218250   5.282   6.505   3.342 -1.8605  2.2209 -1.7738
 6096TIP3   OH218251   5.397   2.304   2.402  0.3762  0.1294 -0.4969
 6096TIP3    H118252   5.341   2.338   2.472  1.0181 -3.1430  1.8546
 6096TIP3    H218253   5.484   2.338   2.423  0.7888 -1.7466  1.1273
 6097TIP3   OH218254   6.911   1.804   4.298  0.1709  0.7127 -0.5378
 6097TIP3    H118255   6.899   1.720   4.254  0.9982  0.6315 -0.6274
 6097TIP3    H218256   6.989   1.841   4.257 -0.2040  1.5360 -0.5148
 6098TIP3   OH218257   3.135   5.704   0.848  0.1331 -0.1306  0.6447
 6098TIP3    H118258   3.222   5.675   0.877  1.0641  1.0029 -0.8435
 6098TIP3    H218259   3.078   5.685   0.922  1.4913 -1.5987  1.3926
 6099TIP3   OH218260   6.379   0.185   5.535  0.0708  0.2849  0.3757
 6099TIP3    H118261   6.357   0.136   5.614 -0.4666  1.3963  0.9430
 6099TIP3    H218262   6.331   0.268   5.544  0.9999  0.9481 -0.5069
 6100TIP3   OH218263   4.323   5.109   0.936 -0.2317 -0.3895  0.4391
 6100TIP3    H118264   4.304   5.202   0.928 -2.6149 -0.6885  1.6024
 6100TIP3    H218265   4.312   5.075   0.847  0.7124  0.4164 -0.0036
 6101TIP3   OH218266   6.577   2.249   1.009 -0.0066  0.1117  0.3326
 6101TIP3    H118267   6.538   2.215   1.089  0.1189 -0.3292  0.2125
 6101TIP3    H218268   6.647   2.187   0.988  0.3931  0.5874  0.2428
 6102TIP3   OH218269   2.740   3.289   1.384  0.1427 -0.1313  0.0596
 6102TIP3    H118270   2.692   3.333   1.455  2.0591 -0.1472  1.4633
 6102TIP3    H218271   2.801   3.356   1.353 -0.0117 -0.4427 -0.9215
 6103TIP3   OH218272   1.909   3.922   0.396 -0.3431  0.1392 -0.4473
 6103TIP3    H118273   1.816   3.905   0.410 -0.3451 -0.5886 -1.2878
 6103TIP3    H218274   1.954   3.847   0.436  0.0620  1.6174  2.1407
 6104TIP3   OH218275   2.867   4.870   3.058 -0.9440 -0.6181 -0.1179
 6104TIP3    H118276   2.855   4.845   3.150 -1.6875 -0.4425 -0.1587
 6104TIP3    H218277   2.943   4.820   3.029 -0.4779 -0.4052  0.6947
 6105TIP3   OH218278   3.418   1.773   4.290  0.3595  1.0944  0.1846
 6105TIP3    H118279   3.447   1.725   4.212 -0.2101  1.9234 -0.5590
 6105TIP3    H218280   3.368   1.708   4.340  1.1400  0.4187  0.1062
 6106TIP3   OH218281   0.095   1.926   5.078  0.0142 -0.4530  0.0126
 6106TIP3    H118282   0.167   1.892   5.131 -1.5196 -2.0262  1.2280
 6106TIP3    H218283   0.113   2.019   5.069  1.6143 -0.6111  1.2056
 6107TIP3   OH218284   4.201   0.459   3.266  0.8667 -0.8165  0.2015
 6107TIP3    H118285   4.288   0.459   3.228  0.5494 -2.4310 -0.5928
 6107TIP3    H218286   4.192   0.374   3.308 -0.3953 -0.7577  0.1011
 6108TIP3   OH218287   5.312   3.386   0.382 -0.2746 -0.0659 -0.0377
 6108TIP3    H118288   5.366   3.337   0.445  0.6562 -0.0929 -0.8392
 6108TIP3    H218289   5.228   3.339   0.382  0.1573 -0.8598  0.1964
 6109TIP3   OH218290   4.639   0.395   0.153  0.4001  0.0734  0.6121
 6109TIP3    H118291   4.552   0.428   0.177  0.7757  1.1718  0.5532
 6109TIP3    H218292   4.693   0.474   0.148  1.3240 -0.5648  0.3219
 6110TIP3   OH218293   5.014   3.668   0.674 -0.3275 -0.3293 -0.0892
 6110TIP3    H118294   4.935   3.660   0.620 -0.7394 -0.3487  0.5012
 6110TIP3    H218295   4.993   3.737   0.736  0.7849  0.9065 -1.0287
 6111TIP3   OH218296   7.183   4.074   1.919  0.0812  0.4246  0.7438
 6111TIP3    H118297   7.104   4.030   1.948  1.1004 -2.2253 -0.2212
 6111TIP3    H218298   7.168   4.094   1.827  0.2090  0.7487  0.7891
 6112TIP3   OH218299   1.939   4.016   3.781  0.4857 -0.4306 -0.1012
 6112TIP3    H118300   2.032   4.022   3.804  0.6515  0.0633 -0.8561
 6112TIP3    H218301   1.915   3.926   3.801  1.0019 -0.4312  0.5568
 6113TIP3   OH218302   3.444   1.720   2.212 -0.3482 -0.5940 -0.1862
 6113TIP3    H118303   3.471   1.809   2.188 -1.9933  0.0536  0.1727
 6113TIP3    H218304   3.430   1.675   2.129 -2.0448  0.3476 -0.4617
 6114TIP3   OH218305   1.129   6.336   3.179 -0.1215  0.4122  0.3510
 6114TIP3    H118306   1.145   6.347   3.273 -0.5886  0.9449  0.3689
 6114TIP3    H218307   1.141   6.242   3.164  4.2006  0.8122  0.1308
 6115TIP3   OH218308   5.088   0.752   2.967 -0.2267 -0.0335  0.3898
 6115TIP3    H118309   5.044   0.783   2.889 -0.3259 -1.6035 -0.2248
 6115TIP3    H218310   5.171   0.800   2.969 -0.3258  0.1865 -0.5432
 6116TIP3   OH218311   3.740   1.289   4.928 -0.0308  0.2208  0.1571
 6116TIP3    H118312   3.676   1.354   4.900 -0.0522 -0.1705 -0.7542
 6116TIP3    H218313   3.728   1.216   4.867  2.4422  0.8141 -1.1690
 6117TIP3   OH218314   4.906   2.936   5.263  0.5089  0.1298  0.2866
 6117TIP3    H118315   4.954   3.018   5.254  1.0449 -0.3659 -2.3104
 6117TIP3    H218316   4.816   2.962   5.284  0.2236  1.5842 -2.2631
 6118TIP3   OH218317   0.607   6.397   2.897  0.2041  0.1056 -0.3113
 6118TIP3    H118318   0.534   6.433   2.948  0.5966  1.7238 -0.8361
 6118TIP3    H218319   0.648   6.473   2.856  1.5725 -0.8721 -0.8544
 6119TIP3   OH218320   6.356   5.361   3.307 -0.1400 -0.6337 -0.4790
 6119TIP3    H118321   6.416   5.338   3.236  0.5647  3.1200 -1.2851
 6119TIP3    H218322   6.297   5.426   3.269 -1.6374 -0.6404  1.6359
 6120TIP3   OH218323   6.094   6.035   3.431 -0.2012  0.1218  0.3288
 6120TIP3    H118324   6.031   6.102   3.406 -1.5931 -1.0421  0.6335
 6120TIP3    H218325   6.178   6.081   3.435 -1.3003  2.0980  1.7210
 6121TIP3   OH218326   5.100   1.110   4.660  0.2388  0.0616 -0.2928
 6121TIP3    H118327   5.014   1.117   4.700  0.4719  2.4304 -0.0063
 6121TIP3    H218328   5.138   1.030   4.696 -0.7910  0.4161  1.7252
 6122TIP3   OH218329   3.202   3.076   2.372 -0.2888 -0.1422  0.4347
 6122TIP3    H118330   3.122   3.087   2.424 -1.2660 -0.7303 -0.8686
 6122TIP3    H218331   3.264   3.035   2.431 -1.1625 -0.2412  1.3095
 6123TIP3   OH218332   6.982   2.809   4.033 -0.1858  0.0190  0.0794
 6123TIP3    H118333   7.007   2.825   4.124 -0.8961  4.5495 -0.2570
 6123TIP3    H218334   6.888   2.829   4.030 -0.5480 -1.6887 -1.3839
 6124TIP3   OH218335   2.046   4.037   3.256 -0.1748  0.1246 -0.4551
 6124TIP3    H118336   2.060   4.047   3.161  1.2521  0.7430 -0.1989
 6124TIP3    H218337   1.951   4.045   3.266 -0.2108  1.9526 -1.6477
 6125TIP3   OH218338   6.910   6.774   3.428 -0.1486  0.0696  0.8269
 6125TIP3    H118339   6.892   6.742   3.340 -1.2805  0.1015  1.0374
 6125TIP3    H218340   6.924   6.868   3.416 -1.4549  0.2774  0.8209
 6126TIP3   OH218341   3.225   3.605   4.574  0.3768 -0.1541  0.1064
 6126TIP3    H118342   3.269   3.522   4.553 -0.4586 -0.2865 -1.2598
 6126TIP3    H218343   3.296   3.669   4.579  0.8930 -0.6735 -0.3453
 6127TIP3   OH218344   5.820   0.777   3.358 -0.3766  0.4411 -0.4917
 6127TIP3    H118345   5.795   0.761   3.450 -0.6708 -0.8438 -0.7672
 6127TIP3    H218346   5.748   0.740   3.307  0.3691 -0.0003 -1.2514
 6128TIP3   OH218347   2.312   5.784   3.385 -0.4777  0.0251  0.2073
 6128TIP3    H118348   2.345   5.696   3.402 -1.6383 -0.2550  1.2178
 6128TIP3    H218349   2.350   5.808   3.301  0.5502 -1.0907  0.3141
 6129TIP3   OH218350   3.735   3.313   2.202 -0.8565 -0.2794  0.2537
 6129TIP3    H118351   3.792   3.256   2.150 -0.6453 -0.3000  0.5081
 6129TIP3    H218352   3.665   3.338   2.141 -0.7710 -0.5416  0.0452
 6130TIP3   OH218353   4.497   2.179   2.376  0.4326  0.0255 -0.9185
 6130TIP3    H118354   4.433   2.201   2.443  1.8414  0.1484  0.4361
 6130TIP3    H218355   4.453   2.113   2.321  0.1792 -2.2616  1.7999
 6131TIP3   OH218356   4.261   6.124   2.487 -0.2844 -0.1519  0.1683
 6131TIP3    H118357   4.182   6.162   2.525 -0.1705  1.2913 -0.9649
 6131TIP3    H218358   4.229   6.062   2.422 -0.4601 -1.5988  1.5491
 6132TIP3   OH218359   2.420   5.257   4.074 -0.4404  0.1652 -0.7165
 6132TIP3    H118360   2.388   5.319   4.009 -2.3744 -0.5686 -0.5306
 6132TIP3    H218361   2.445   5.180   4.024 -0.8058  0.0409 -0.7144
 6133TIP3   OH218362   5.702   6.518   5.686  0.2591  0.3962  0.0207
 6133TIP3    H118363   5.670   6.429   5.703 -2.1616  0.8859 -1.5409
 6133TIP3    H218364   5.650   6.574   5.743  0.1155  1.0019 -0.6840
 6134TIP3   OH218365   1.527   0.428   5.532 -0.1663 -0.1414 -0.4714
 6134TIP3    H118366   1.524   0.523   5.544 -1.1632 -0.0414 -1.3081
 6134TIP3    H218367   1.610   0.401   5.571  1.2175  1.3784 -2.1711
 6135TIP3   OH218368   7.112   4.440   2.482 -0.0070  0.1423  1.0594
 6135TIP3    H118369   7.126   4.487   2.564 -0.5052  1.4620  0.4052
 6135TIP3    H218370   7.019   4.452   2.463  0.0949 -0.1988  0.3169
 6136TIP3   OH218371   0.119   2.278   5.709 -0.2388 -0.0282 -0.5663
 6136TIP3    H118372   0.092   2.366   5.683 -0.5736 -0.6542 -2.5196
 6136TIP3    H218373   0.040   2.237   5.742 -1.0358 -0.7762 -3.1875
 6137TIP3   OH218374   1.563   2.432   1.956  0.2905 -0.1403  0.2054
 6137TIP3    H118375   1.470   2.432   1.976  0.2588  0.7453  0.1325
 6137TIP3    H218376   1.585   2.341   1.938 -0.6588 -0.2909 -0.2297
 6138TIP3   OH218377   6.029   4.164   1.856  0.5622  1.3069 -0.5333
 6138TIP3    H118378   6.079   4.107   1.914 -0.1179  1.8297  0.5815
 6138TIP3    H218379   6.071   4.153   1.770  1.3738  0.2863 -0.0238
 6139TIP3   OH218380   4.909   5.609   4.703  0.0268  0.4128  0.0250
 6139TIP3    H118381   4.867   5.631   4.619  3.2919 -1.9089 -2.4767
 6139TIP3    H218382   4.886   5.517   4.717 -1.3544  1.0408  2.4008
 6140TIP3   OH218383   2.936   0.486   3.428  0.3137 -0.3411 -0.2694
 6140TIP3    H118384   2.951   0.566   3.478 -2.1315  0.9267 -1.3744
 6140TIP3    H218385   2.994   0.493   3.352  1.2292 -0.4045  0.4094
 6141TIP3   OH218386   7.005   1.994   3.721  0.8686 -0.2708 -0.0361
 6141TIP3    H118387   6.966   2.070   3.676 -0.0867 -0.5016  0.3646
 6141TIP3    H218388   6.967   1.919   3.677  1.0994 -0.5097  0.1725
 6142TIP3   OH218389   0.876   6.094   3.150  0.2650  0.2343  0.0447
 6142TIP3    H118390   0.843   6.181   3.174  0.1638  0.5071 -1.0119
 6142TIP3    H218391   0.925   6.065   3.226  0.7593  1.4645  0.2227
 6143TIP3   OH218392   4.074   2.078   4.821  0.1074  0.1304 -0.0638
 6143TIP3    H118393   4.166   2.095   4.842  0.0154 -0.2313  0.6343
 6143TIP3    H218394   4.024   2.135   4.880 -0.1362 -0.4571  0.3044
 6144TIP3   OH218395   5.570   0.111   5.007 -0.3170  0.0319 -0.1614
 6144TIP3    H118396   5.658   0.117   5.045 -0.9194 -1.0741  1.5204
 6144TIP3    H218397   5.571   0.030   4.957 -0.9112 -1.0187  1.4571
 6145TIP3   OH218398   0.135   0.538   4.104  0.1302  0.5503  0.0608
 6145TIP3    H118399   0.084   0.617   4.117  1.5629  1.9810 -2.4020
 6145TIP3    H218400   0.220   0.558   4.143 -0.3823 -1.0289  2.2161
 6146TIP3   OH218401   0.196   0.363   1.693  0.7014 -0.3231  0.0226
 6146TIP3    H118402   0.229   0.342   1.606 -0.7243 -1.1406 -0.3607
 6146TIP3    H218403   0.103   0.341   1.690 -0.5733  4.0194  0.2941
 6147TIP3   OH218404   6.661   2.709   3.724 -0.0246  0.2055  0.5700
 6147TIP3    H118405   6.661   2.684   3.816  2.0022  0.2274  0.6091
 6147TIP3    H218406   6.752   2.698   3.695 -0.8452 -1.1823 -1.8149
 6148TIP3   OH218407   6.748   3.491   3.292 -1.1443 -0.4866 -0.3552
 6148TIP3    H118408   6.749   3.529   3.380 -0.0543  0.9724 -0.9493
 6148TIP3    H218409   6.657   3.470   3.275 -1.2732 -1.5238  1.4094
 6149TIP3   OH218410   0.916   3.449   4.983 -0.4662  0.3501 -0.5071
 6149TIP3    H118411   1.000   3.426   5.023 -0.7758 -1.2207 -0.6735
 6149TIP3    H218412   0.908   3.388   4.909 -1.0219  1.5581 -1.4690
 6150TIP3   OH218413   1.228   4.764   5.862  0.3277  0.0850 -0.3275
 6150TIP3    H118414   1.215   4.859   5.869  3.1096  0.4550  1.0222
 6150TIP3    H218415   1.299   4.754   5.798  1.6455 -0.8742  1.2160
 6151TIP3   OH218416   1.989   6.397   0.580  0.0416 -0.0348 -0.1487
 6151TIP3    H118417   2.016   6.306   0.586  0.6440  0.1043 -0.6421
 6151TIP3    H218418   2.042   6.443   0.645 -1.7944 -0.3526  1.6432
 6152TIP3   OH218419   6.524   4.423   1.391  0.0390  0.1823  0.4649
 6152TIP3    H118420   6.486   4.387   1.311  0.0921  0.4768  0.3061
 6152TIP3    H218421   6.559   4.346   1.437  1.2216  0.1542 -0.4429
 6153TIP3   OH218422   5.662   3.592   5.863 -0.0166 -0.0754  0.2895
 6153TIP3    H118423   5.695   3.551   5.783  1.8993  0.9845  0.4887
 6153TIP3    H218424   5.609   3.666   5.832  0.4685  0.1492 -0.0080
 6154TIP3   OH218425   3.688   0.275   0.243  0.6139 -0.3070 -0.0964
 6154TIP3    H118426   3.607   0.225   0.232  0.6060 -0.2782 -0.1659
 6154TIP3    H218427   3.711   0.262   0.335 -0.5118  1.2715  0.4497
 6155TIP3   OH218428   1.506   3.933   2.985  0.2122  0.4434 -0.0956
 6155TIP3    H118429   1.571   3.999   2.960  0.9531 -0.6326 -1.1219
 6155TIP3    H218430   1.557   3.853   2.997 -0.6769  0.0262  1.0815
 6156TIP3   OH218431   2.437   0.596   5.896 -0.2126  0.7391 -0.0017
 6156TIP3    H118432   2.360   0.619   5.845 -1.0236  0.1699  0.9446
 6156TIP3    H218433   2.511   0.628   5.843 -0.9358 -0.8267 -2.0952
 6157TIP3   OH218434   3.337   1.744   1.742 -0.1955 -0.1593 -0.0402
 6157TIP3    H118435   3.352   1.829   1.699  0.4426 -0.0389  0.4086
 6157TIP3    H218436   3.401   1.686   1.702  0.4756 -0.0226  0.8044
 6158TIP3   OH218437   7.130   2.961   5.005  0.1151  0.3401 -0.0430
 6158TIP3    H118438   7.195   2.958   4.935 -0.6000  2.2418 -0.8382
 6158TIP3    H218439   7.145   2.880   5.055  0.8265 -0.9360 -2.1873
 6159TIP3   OH218440   5.568   0.202   5.522  0.2384 -0.4093  0.0052
 6159TIP3    H118441   5.625   0.279   5.526  3.0104 -2.2983  0.6589
 6159TIP3    H218442   5.531   0.203   5.434 -0.7327  2.1924  0.3598
 6160TIP3   OH218443   3.885   2.824   0.998 -0.1184  0.7265  0.4224
 6160TIP3    H118444   3.798   2.842   1.033 -0.8505 -0.5152 -0.6502
 6160TIP3    H218445   3.904   2.734   1.026 -0.1264  0.2106 -1.0823
 6161TIP3   OH218446   0.548   3.356   5.830  0.2432 -0.3208  0.0614
 6161TIP3    H118447   0.512   3.333   5.915 -1.0545  1.6784  0.1115
 6161TIP3    H218448   0.482   3.412   5.790  1.4485 -0.0638 -1.6812
 6162TIP3   OH218449   0.988   5.113   4.217  0.1948  0.7535  0.1092
 6162TIP3    H118450   1.041   5.056   4.274 -0.4822  0.4310  0.4208
 6162TIP3    H218451   1.052   5.151   4.157  0.5843 -0.8148 -0.5226
 6163TIP3   OH218452   0.872   1.584   2.078  0.3814  0.7648 -0.0389
 6163TIP3    H118453   0.908   1.657   2.029 -0.3527  1.8537  0.9920
 6163TIP3    H218454   0.945   1.522   2.086  1.6573  2.2887  0.8152
 6164TIP3   OH218455   1.803   4.080   2.406 -0.1540 -0.2662  0.1764
 6164TIP3    H118456   1.782   4.096   2.314  2.1352  0.9279 -0.2166
 6164TIP3    H218457   1.745   4.008   2.431 -1.0882 -0.4064 -2.0878
 6165TIP3   OH218458   4.760   1.588   1.419  0.4911  0.2544  0.3789
 6165TIP3    H118459   4.749   1.637   1.501 -0.6775  0.8998 -0.1293
 6165TIP3    H218460   4.670   1.568   1.392  0.8324 -4.8941  2.0916
 6166TIP3   OH218461   3.070   2.810   0.794 -0.5740  0.0382 -0.3601
 6166TIP3    H118462   3.152   2.801   0.746 -1.1235  0.7225 -1.4596
 6166TIP3    H218463   3.025   2.883   0.751 -1.4057  0.2032  0.7443
 6167TIP3   OH218464   6.453   1.119   1.298 -0.0462 -0.3941 -0.2062
 6167TIP3    H118465   6.459   1.133   1.393  2.4986  0.6692 -0.4379
 6167TIP3    H218466   6.411   1.199   1.265 -1.7604 -1.1498  0.0658
 6168TIP3   OH218467   1.859   1.837   1.734  0.1104 -0.2539  0.1647
 6168TIP3    H118468   1.764   1.845   1.745  0.2716  0.6752  1.1190
 6168TIP3    H218469   1.884   1.765   1.792  0.1853  0.6869  1.3607
 6169TIP3   OH218470   0.890   5.125   3.530  0.1540 -0.0068  0.5414
 6169TIP3    H118471   0.834   5.185   3.481 -0.0476  0.4067  1.2629
 6169TIP3    H218472   0.831   5.084   3.594  0.6268  0.2835  1.1785
 6170TIP3   OH218473   5.234   1.271   3.738  0.2359  0.1192 -0.1390
 6170TIP3    H118474   5.218   1.191   3.789 -1.4149  0.6970  0.3399
 6170TIP3    H218475   5.190   1.255   3.655  0.7065  0.1641 -0.3943
 6171TIP3   OH218476   2.813   0.191   2.845  0.4323 -0.5064  0.3552
 6171TIP3    H118477   2.734   0.240   2.870  0.3494 -0.6544  0.3834
 6171TIP3    H218478   2.843   0.151   2.927 -0.4447 -1.8710  0.0350
 6172TIP3   OH218479   3.705   2.183   4.020  0.3952 -0.3348  0.2722
 6172TIP3    H118480   3.767   2.239   4.067  0.2330 -0.4449  0.6206
 6172TIP3    H218481   3.751   2.156   3.941 -0.1463  1.7822 -0.8464
 6173TIP3   OH218482   4.978   6.046   1.755  0.4222  0.1328 -0.1214
 6173TIP3    H118483   4.932   6.073   1.834  0.2178 -1.6738  0.4176
 6173TIP3    H218484   5.071   6.042   1.780  0.4722  0.4639 -0.2457
 6174TIP3   OH218485   2.641   3.745   4.168  0.0326 -0.2004  0.5116
 6174TIP3    H118486   2.671   3.751   4.077  0.5960 -0.2412  0.6964
 6174TIP3    H218487   2.692   3.812   4.214 -1.4055  0.9775  0.4929
 6175TIP3   OH218488   4.077   4.964   5.600  0.1499 -0.3668 -0.3651
 6175TIP3    H118489   4.007   4.918   5.647  1.8242 -1.0443  1.5995
 6175TIP3    H218490   4.065   5.056   5.625 -1.2033 -0.1519 -1.6622
 6176TIP3   OH218491   2.592   1.138   2.142  0.2605  0.4256 -0.6205
 6176TIP3    H118492   2.578   1.070   2.077 -1.0838  0.0424  0.0442
 6176TIP3    H218493   2.504   1.169   2.164  0.4550 -0.8223  2.4253
 6177TIP3   OH218494   4.294   3.314   4.443  0.6624 -0.1844 -0.0567
 6177TIP3    H118495   4.332   3.379   4.385  2.8543 -0.9386  0.4579
 6177TIP3    H218496   4.200   3.334   4.442  1.1431  2.4267 -0.5405
 6178TIP3   OH218497   2.088   5.920   2.054  0.2842 -0.2978 -0.4843
 6178TIP3    H118498   2.119   5.907   1.965  0.0890 -0.5384 -0.5170
 6178TIP3    H218499   2.164   5.951   2.102  0.4684 -0.4787 -0.6607
 6179TIP3   OH218500   5.412   2.635   4.700  0.1020 -0.2418  0.2111
 6179TIP3    H118501   5.420   2.610   4.792  0.6275  0.1393  0.2735
 6179TIP3    H218502   5.501   2.631   4.666  0.2833  1.8252  0.3171
 6180TIP3   OH218503   5.813   3.627   3.151 -1.2142  0.2622 -0.0172
 6180TIP3    H118504   5.744   3.640   3.217 -1.4286 -0.0584 -0.1753
 6180TIP3    H218505   5.766   3.607   3.070 -0.9408  0.2835 -0.1836
 6181TIP3   OH218506   0.689   2.982   4.779 -0.0292 -0.0077  0.1364
 6181TIP3    H118507   0.706   2.922   4.707 -0.1484 -1.0431  0.9581
 6181TIP3    H218508   0.688   2.927   4.857 -2.7438  0.6097  0.6354
 6182TIP3   OH218509   5.815   2.228   1.243 -0.2468 -0.1094  0.1785
 6182TIP3    H118510   5.769   2.310   1.221  1.4865  0.8476 -0.0703
 6182TIP3    H218511   5.747   2.172   1.280 -1.8960  0.7154 -1.4276
 6183TIP3   OH218512   0.870   2.389   5.310  0.5484  0.5181 -0.3354
 6183TIP3    H118513   0.800   2.357   5.367  1.3674  1.5035  1.2977
 6183TIP3    H218514   0.873   2.325   5.239 -0.6103 -0.6987  0.6422
 6184TIP3   OH218515   5.678   5.859   4.158  0.2618 -0.0076  0.2380
 6184TIP3    H118516   5.636   5.816   4.233  0.2876  0.6790  0.6563
 6184TIP3    H218517   5.744   5.916   4.198 -0.9293  1.7475 -0.1665
 6185TIP3   OH218518   1.711   6.569   0.321 -0.2652 -1.2903 -0.2979
 6185TIP3    H118519   1.658   6.489   0.317  0.1890 -1.6495  0.6064
 6185TIP3    H218520   1.705   6.597   0.412  0.3076 -0.7935 -0.4112
 6186TIP3   OH218521   2.372   1.863   5.440 -0.0006  0.0991  0.2731
 6186TIP3    H118522   2.315   1.801   5.396  0.7415  0.7425 -1.7150
 6186TIP3    H218523   2.426   1.810   5.498 -0.0795 -0.9848 -0.6184
 6187TIP3   OH218524   1.329   6.239   2.377  0.1646  0.6508  0.0553
 6187TIP3    H118525   1.414   6.265   2.340  0.0405  0.2177 -0.5521
 6187TIP3    H218526   1.327   6.280   2.463  0.1889  2.2434 -0.6622
 6188TIP3   OH218527   5.978   4.815   1.247 -0.2417  1.1447  0.2816
 6188TIP3    H118528   6.056   4.783   1.292  0.5411  1.0771 -1.0653
 6188TIP3    H218529   5.977   4.909   1.265 -1.4738  0.7363  2.6535
 6189TIP3   OH218530   2.901   5.653   4.373  0.1187  0.4972  0.5414
 6189TIP3    H118531   2.987   5.674   4.409 -0.5565  0.5958  2.1993
 6189TIP3    H218532   2.866   5.585   4.432  0.3384 -1.9580 -1.9613
 6190TIP3   OH218533   7.151   2.016   2.096 -0.3717  0.3227  0.4598
 6190TIP3    H118534   7.098   2.095   2.104  0.1981  0.7679 -0.0853
 6190TIP3    H218535   7.137   1.986   2.006 -1.0187 -0.5178  0.8273
 6191TIP3   OH218536   1.497   0.105   3.298 -0.3014 -0.6794 -0.4299
 6191TIP3    H118537   1.543   0.116   3.382 -3.0662 -0.0602  1.1101
 6191TIP3    H218538   1.567   0.110   3.232  1.8799 -0.3562  1.7518
 6192TIP3   OH218539   5.318   1.938   1.150  0.6665  0.2043 -0.3225
 6192TIP3    H118540   5.246   1.911   1.206 -0.1833  3.1401  0.1412
 6192TIP3    H218541   5.336   1.861   1.096 -0.6771 -1.6318  1.7009
 6193TIP3   OH218542   1.462   6.113   2.682  0.2470  0.4443  0.3084
 6193TIP3    H118543   1.530   6.132   2.618  1.9183 -2.9209  0.8219
 6193TIP3    H218544   1.395   6.065   2.633 -0.3895  1.2408  0.3726
 6194TIP3   OH218545   6.767   2.754   0.988 -0.5131  0.4726  0.0011
 6194TIP3    H118546   6.738   2.664   1.005  1.0871 -0.2131 -0.6640
 6194TIP3    H218547   6.823   2.775   1.062 -0.9821  0.9772  0.2154
 6195TIP3   OH218548   4.684   4.479   4.114  0.5362 -0.3067  0.1630
 6195TIP3    H118549   4.687   4.557   4.058  0.8857 -0.7067 -0.3829
 6195TIP3    H218550   4.607   4.492   4.170 -0.3560 -0.3207 -1.0363
 6196TIP3   OH218551   1.325   2.003   3.128 -0.1492 -0.1168 -0.4397
 6196TIP3    H118552   1.313   2.097   3.137  0.4301 -0.0345 -0.4862
 6196TIP3    H218553   1.346   1.972   3.216  1.3200  0.0606 -0.6878
 6197TIP3   OH218554   0.155   3.101   2.039  0.5706 -0.1727 -0.2995
 6197TIP3    H118555   0.071   3.090   1.994 -1.1877  2.6338  1.9265
 6197TIP3    H218556   0.193   3.180   2.000  0.3983  0.6268  1.1001
 6198TIP3   OH218557   1.712   6.726   4.888  0.1930  0.1782  0.3683
 6198TIP3    H118558   1.707   6.727   4.983  0.4865 -1.4154  0.4334
 6198TIP3    H218559   1.770   6.652   4.868 -0.6752 -0.1490 -1.0607
 6199TIP3   OH218560   2.742   0.469   2.548  0.0921 -0.2404  0.1331
 6199TIP3    H118561   2.766   0.383   2.513 -1.5487 -0.4362 -0.6449
 6199TIP3    H218562   2.813   0.527   2.521  0.1875 -0.9384 -1.2160
 6200TIP3   OH218563   2.674   1.248   5.061 -0.7039 -0.0023  0.6644
 6200TIP3    H118564   2.596   1.255   5.116  0.6683  1.2238  2.5876
 6200TIP3    H218565   2.714   1.166   5.086 -0.1610  0.4828  1.4254
 6201TIP3   OH218566   0.049   6.559   0.402  0.5442  0.0997  0.8999
 6201TIP3    H118567  -0.043   6.569   0.379  0.6406 -1.7472 -0.5672
 6201TIP3    H218568   0.085   6.647   0.400 -1.2750  0.9318  2.0584
 6202TIP3   OH218569   3.774   4.226   2.643  0.0403  0.1057 -0.2015
 6202TIP3    H118570   3.857   4.263   2.674  0.0930 -0.9010  0.9258
 6202TIP3    H218571   3.715   4.233   2.719 -1.2383  1.6764 -1.2637
 6203TIP3   OH218572   6.988   4.426   3.121 -0.5461 -0.2915 -0.2984
 6203TIP3    H118573   6.908   4.476   3.136 -0.1806 -0.2154  1.5602
 6203TIP3    H218574   6.982   4.352   3.181  2.2701  1.5104  2.5374
 6204TIP3   OH218575   3.428   4.242   0.655  0.3604  0.0831  0.4920
 6204TIP3    H118576   3.363   4.177   0.630  0.2177  0.4132 -0.0267
 6204TIP3    H218577   3.464   4.273   0.572  0.8346  0.2509  0.7567
 6205TIP3   OH218578   3.327   2.064   1.975 -0.4127  0.0473  0.2756
 6205TIP3    H118579   3.328   2.159   1.971 -0.9300  0.0066 -1.8400
 6205TIP3    H218580   3.312   2.036   1.885  2.9961 -2.1238  0.1753
 6206TIP3   OH218581   1.028   3.420   2.031 -0.0541 -0.8362  0.0778
 6206TIP3    H118582   0.980   3.362   1.972  0.0522 -0.5266 -0.3162
 6206TIP3    H218583   0.960   3.459   2.087 -0.0461 -1.9649  0.9104
 6207TIP3   OH218584   0.642   5.378   5.826  0.4013 -0.0856 -0.1194
 6207TIP3    H118585   0.680   5.346   5.745 -1.3539  0.6693 -1.3087
 6207TIP3    H218586   0.644   5.303   5.885 -1.5815 -1.8273 -2.0888
 6208TIP3   OH218587   0.957   1.135   2.539  0.2639 -1.0675  0.1458
 6208TIP3    H118588   0.864   1.144   2.560  0.4046 -2.4297  1.5360
 6208TIP3    H218589   0.961   1.063   2.476  0.3635 -0.7881 -0.1739
 6209TIP3   OH218590   6.888   2.363   2.572  0.1113  0.3137 -0.8819
 6209TIP3    H118591   6.799   2.398   2.578 -0.5581 -1.5169  1.6063
 6209TIP3    H218592   6.940   2.422   2.627 -0.5194 -1.0618  1.2854
 6210TIP3   OH218593   4.711   4.835   5.662 -0.5184  0.3974  0.3662
 6210TIP3    H118594   4.778   4.844   5.594 -0.4810 -1.7681  0.0453
 6210TIP3    H218595   4.751   4.777   5.728 -1.3704  0.6528  1.1274
 6211TIP3   OH218596   2.905   1.404   4.073  0.0206  0.8703  0.1018
 6211TIP3    H118597   2.914   1.398   3.978  0.6941  0.1781  0.1905
 6211TIP3    H218598   2.843   1.334   4.095  0.3983  0.5745  0.2335
 6212TIP3   OH218599   2.652   2.916   1.020 -0.3086  0.4991  0.4019
 6212TIP3    H118600   2.603   2.850   1.069  0.9276 -1.0489 -0.3376
 6212TIP3    H218601   2.693   2.970   1.088 -0.0585 -0.4993  1.0696
 6213TIP3   OH218602   1.349   4.548   2.955  0.0438 -0.1412 -0.1283
 6213TIP3    H118603   1.428   4.563   2.903 -0.0467  0.0985 -0.2003
 6213TIP3    H218604   1.359   4.460   2.990 -0.1356 -0.5098 -0.9714
 6214TIP3   OH218605   3.545   4.317   2.502  0.2827  0.3907  0.3508
 6214TIP3    H118606   3.577   4.382   2.439 -0.2181 -0.8182 -1.2356
 6214TIP3    H218607   3.622   4.293   2.553  0.7267  1.3289  0.1470
 6215TIP3   OH218608   4.727   2.537   4.203  0.1686 -0.2987 -0.1134
 6215TIP3    H118609   4.651   2.521   4.259  0.0380 -0.9055 -0.4619
 6215TIP3    H218610   4.712   2.624   4.167  0.8298  0.6247  1.7097
 6216TIP3   OH218611   3.013   3.591   4.210  0.4351 -0.0149 -0.4547
 6216TIP3    H118612   2.941   3.639   4.169  0.3618  1.1278  0.9255
 6216TIP3    H218613   2.970   3.532   4.271  0.6474  0.5813  0.2838
 6217TIP3   OH218614   4.729   5.290   5.828  0.3413 -0.6392 -0.1372
 6217TIP3    H118615   4.756   5.219   5.769 -1.1248  0.2290 -1.9400
 6217TIP3    H218616   4.766   5.369   5.790 -0.4197 -0.0834  0.2542
 6218TIP3   OH218617   0.175   4.531   1.004 -0.0449 -0.3855  0.1715
 6218TIP3    H118618   0.222   4.448   1.002  2.1375  0.7780 -0.2960
 6218TIP3    H218619   0.227   4.587   1.062  0.4327  1.6525 -2.0664
 6219TIP3   OH218620   7.108   4.892   1.035 -0.5393  0.5918 -0.1559
 6219TIP3    H118621   7.134   4.829   0.968  1.1710  1.2554 -0.1589
 6219TIP3    H218622   7.188   4.941   1.055 -1.3294  1.3259  1.3902
 6220TIP3   OH218623   2.144   0.508   4.596  0.0046  0.1922  0.2997
 6220TIP3    H118624   2.239   0.504   4.608 -0.1547 -0.4792  1.5055
 6220TIP3    H218625   2.108   0.494   4.684 -1.2113  0.6254 -0.1055
 6221TIP3   OH218626   2.174   1.741   2.679  0.1317  0.3524  0.1902
 6221TIP3    H118627   2.237   1.704   2.740 -0.1457  1.3767  1.1294
 6221TIP3    H218628   2.097   1.683   2.686  0.7497 -0.5980 -0.5835
 6222TIP3   OH218629   1.904   4.061   1.544 -0.2762 -0.4447 -0.0953
 6222TIP3    H118630   1.831   4.121   1.535  0.1525  0.1063  0.0579
 6222TIP3    H218631   1.975   4.114   1.581 -1.3159 -2.0013  4.9378
 6223TIP3   OH218632   5.968   4.827   3.299 -0.3478 -0.1400  0.1874
 6223TIP3    H118633   5.964   4.733   3.316  1.4611 -0.4773 -1.0259
 6223TIP3    H218634   5.953   4.867   3.385 -1.7033 -1.4817  0.6242
 6224TIP3   OH218635   4.717   0.907   4.413  1.1387  0.1176  0.4194
 6224TIP3    H118636   4.783   0.976   4.424  0.7348  0.4263  0.9866
 6224TIP3    H218637   4.739   0.842   4.481 -1.9086  2.4567  4.0687
 6225TIP3   OH218638   4.850   1.125   1.095  0.3927 -0.5467  0.0371
 6225TIP3    H118639   4.892   1.174   1.166 -0.5738 -0.1063  0.3248
 6225TIP3    H218640   4.813   1.193   1.038  1.1415 -0.8979 -0.8982
 6226TIP3   OH218641   4.341   6.501   2.842 -0.0290  0.0840  0.2296
 6226TIP3    H118642   4.360   6.584   2.885 -0.7135 -0.4818  1.6739
 6226TIP3    H218643   4.328   6.524   2.750 -0.4280  1.6133  0.6423
 6227TIP3   OH218644   5.431   5.830   1.288  0.6198 -0.3228  0.0343
 6227TIP3    H118645   5.489   5.868   1.355  0.2296  0.3740 -0.0143
 6227TIP3    H218646   5.480   5.755   1.254  1.2931 -0.0280  0.3274
 6228TIP3   OH218647   1.437   3.348   5.274 -0.3300  0.1411  0.5199
 6228TIP3    H118648   1.373   3.331   5.343 -1.4771  0.6068 -0.3994
 6228TIP3    H218649   1.424   3.440   5.251 -0.6086 -0.2371 -0.9399
 6229TIP3   OH218650   5.124   0.537   1.399  0.1944  0.2208 -0.2486
 6229TIP3    H118651   5.116   0.605   1.466 -0.5395 -0.8401  0.8103
 6229TIP3    H218652   5.191   0.478   1.434  1.1569  0.6275 -1.3760
 6230TIP3   OH218653   3.997   0.430   3.064 -0.1891 -0.0885 -0.0006
 6230TIP3    H118654   4.063   0.430   3.133 -2.1041  1.6097  1.9892
 6230TIP3    H218655   4.047   0.443   2.983  2.0113 -0.5755  1.2071
 6231TIP3   OH218656   5.779   2.052   4.182 -0.6000 -0.4430 -0.1968
 6231TIP3    H118657   5.786   2.104   4.102 -0.4614  1.9952  1.3251
 6231TIP3    H218658   5.868   2.049   4.217 -0.5196 -2.1182 -0.4449
 6232TIP3   OH218659   4.854   6.753   0.243  0.2007 -0.1721  0.5901
 6232TIP3    H118660   4.807   6.817   0.189  1.7038 -0.3227 -0.9823
 6232TIP3    H218661   4.937   6.797   0.265  0.8861 -1.2494  0.2218
 6233TIP3   OH218662   1.175   2.460   4.901 -0.5203 -0.6951 -0.1109
 6233TIP3    H118663   1.165   2.374   4.941  0.6654 -0.4845  0.6733
 6233TIP3    H218664   1.242   2.504   4.954 -1.2055  0.7643 -0.4123
 6234TIP3   OH218665   6.362   0.194   0.606  0.5986 -0.0966 -0.7168
 6234TIP3    H118666   6.374   0.179   0.700 -0.5200 -0.7779 -0.6601
 6234TIP3    H218667   6.274   0.160   0.588  0.9458 -0.3079 -2.0849
 6235TIP3   OH218668   1.517   1.034   4.319  0.3897  0.2557 -0.0814
 6235TIP3    H118669   1.542   1.114   4.273 -0.4351  0.2829 -0.5051
 6235TIP3    H218670   1.428   1.050   4.349 -0.1826 -0.8772 -1.0891
 6236TIP3   OH218671   1.535   6.377   2.763  0.4691  0.3975  0.3699
 6236TIP3    H118672   1.518   6.283   2.764 -2.0223  0.7972 -0.0658
 6236TIP3    H218673   1.477   6.412   2.696  0.6177  2.3828  1.2103
 6237TIP3   OH218674   2.758   0.155   1.397 -0.2204 -0.2118  0.6069
 6237TIP3    H118675   2.827   0.201   1.444  0.7006 -2.5585  1.6759
 6237TIP3    H218676   2.804   0.089   1.345 -1.5133 -0.1744 -0.6427
 6238TIP3   OH218677   4.291   3.618   0.618  0.9140  0.0175 -0.6083
 6238TIP3    H118678   4.289   3.571   0.534  0.7667  0.8036 -1.0501
 6238TIP3    H218679   4.263   3.707   0.597  1.6220  0.4336  0.1418
 6239TIP3   OH218680   1.583   6.669   5.521 -0.5381  0.1773  0.5660
 6239TIP3    H118681   1.504   6.647   5.472 -0.7273  1.6438  0.1588
 6239TIP3    H218682   1.551   6.712   5.601 -0.1732  0.7212  0.4284
 6240TIP3   OH218683   1.420   3.116   2.553 -0.0385 -0.2569  0.2206
 6240TIP3    H118684   1.342   3.166   2.577  0.7565  1.2146 -0.1138
 6240TIP3    H218685   1.423   3.120   2.458  0.7235  0.1688  0.2535
 6241TIP3   OH218686   1.136   6.104   1.449 -0.0134  0.3105 -0.3189
 6241TIP3    H118687   1.096   6.191   1.444  1.2666  0.9577  0.2588
 6241TIP3    H218688   1.082   6.057   1.512 -1.0389  0.4889 -1.0314
 6242TIP3   OH218689   3.426   2.475   2.787  0.3161 -0.1353  0.3789
 6242TIP3    H118690   3.368   2.417   2.835  0.1621 -0.7589 -0.5316
 6242TIP3    H218691   3.503   2.422   2.767  0.3636  0.0964 -0.0841
 6243TIP3   OH218692   4.493   1.127   1.059  0.4351 -0.3850 -0.2716
 6243TIP3    H118693   4.402   1.101   1.044  0.2658 -0.5520  0.9657
 6243TIP3    H218694   4.530   1.056   1.111  0.9394  0.2393  0.2389
 6244TIP3   OH218695   2.869   0.445   1.913 -0.0621  0.2244  0.3683
 6244TIP3    H118696   2.867   0.401   1.828  0.1207  1.7732 -0.4863
 6244TIP3    H218697   2.777   0.466   1.931  0.0446  1.2799 -0.2354
 6245TIP3   OH218698   1.555   0.923   1.604  0.0640  0.1888 -0.0378
 6245TIP3    H118699   1.497   0.876   1.545  1.5235 -1.8457  0.0725
 6245TIP3    H218700   1.632   0.945   1.551  0.3420  0.4987  0.4848
 6246TIP3   OH218701   5.759   2.800   4.443  0.5676 -0.7337 -0.0601
 6246TIP3    H118702   5.853   2.802   4.428  1.1713 -0.8220  3.0201
 6246TIP3    H218703   5.746   2.860   4.517 -1.6832 -1.2701  0.0429
 6247TIP3   OH218704   1.595   0.873   2.087  0.5341  0.0537 -0.0938
 6247TIP3    H118705   1.556   0.867   2.174  1.0129  0.4087  0.1455
 6247TIP3    H218706   1.689   0.862   2.101  0.5192 -0.9421 -0.6872
 6248TIP3   OH218707   4.221   3.028   0.651 -0.8400 -0.7943  0.0665
 6248TIP3    H118708   4.148   2.965   0.646 -0.4559 -1.2527  0.1736
 6248TIP3    H218709   4.276   2.995   0.722 -0.4011 -0.5870 -0.1719
 6249TIP3   OH218710   0.129   5.482   3.363 -0.8437 -0.3554  0.2179
 6249TIP3    H118711   0.123   5.556   3.303 -1.9596  0.6451  1.5079
 6249TIP3    H218712   0.219   5.451   3.354  0.0903  2.0451  0.6496
 6250TIP3   OH218713   1.940   4.657   1.112  0.4325  0.3795  0.0135
 6250TIP3    H118714   1.958   4.751   1.104 -0.1044  0.5544  0.7174
 6250TIP3    H218715   2.023   4.618   1.138  0.0871  1.0514  2.4118
 6251TIP3   OH218716   1.688   2.859   3.334  0.2533  0.2434  0.1701
 6251TIP3    H118717   1.685   2.948   3.370 -0.8514  0.4929 -0.4803
 6251TIP3    H218718   1.598   2.842   3.305  0.9408 -0.1456 -1.9141
 6252TIP3   OH218719   2.557   1.316   3.444 -0.1734  0.5458  0.1962
 6252TIP3    H118720   2.560   1.388   3.381 -1.6737  1.1312  0.7502
 6252TIP3    H218721   2.534   1.240   3.391  0.8720  0.5695 -0.3110
 6253TIP3   OH218722   4.445   0.846   1.111 -0.2394 -0.0385  0.5664
 6253TIP3    H118723   4.358   0.883   1.097  0.6589  1.2831 -2.5521
 6253TIP3    H218724   4.450   0.774   1.048  0.7846 -0.3324  0.9693
 6254TIP3   OH218725   2.692   2.663   2.576 -0.3367 -0.2333 -0.3208
 6254TIP3    H118726   2.739   2.715   2.510  1.7040 -1.4172  0.1072
 6254TIP3    H218727   2.719   2.700   2.660 -0.5335 -0.6457 -0.0715
 6255TIP3   OH218728   1.098   5.695   3.472 -0.2594  0.4292 -0.4785
 6255TIP3    H118729   1.093   5.725   3.381  2.5946  4.4095  0.4045
 6255TIP3    H218730   1.030   5.628   3.479 -1.1563  0.4588 -5.2686
 6256TIP3   OH218731   5.711   4.471   2.292  0.1592  0.2217 -0.0546
 6256TIP3    H118732   5.761   4.436   2.218 -0.7397  0.7050 -0.9123
 6256TIP3    H218733   5.627   4.424   2.289 -0.6639  1.6788 -0.5940
 6257TIP3   OH218734   2.128   3.411   0.466  0.4713  0.3437  0.0099
 6257TIP3    H118735   2.223   3.414   0.455  0.4140 -0.6930 -0.9733
 6257TIP3    H218736   2.105   3.319   0.455 -0.6810  0.6308 -0.1136
 6258TIP3   OH218737   1.694   6.162   0.339 -0.1290 -0.0751 -0.3301
 6258TIP3    H118738   1.691   6.237   0.399 -1.0276  0.1943 -0.6915
 6258TIP3    H218739   1.608   6.161   0.298 -0.1593 -1.3840 -0.2535
 6259TIP3   OH218740   4.492   0.834   3.521 -0.2363 -0.1028  0.0351
 6259TIP3    H118741   4.537   0.894   3.461 -1.3261  0.3474 -0.3479
 6259TIP3    H218742   4.462   0.763   3.465  0.6506 -0.7936  0.4167
 6260TIP3   OH218743   1.775   2.902   0.403 -0.0756 -0.4885 -0.1655
 6260TIP3    H118744   1.729   2.840   0.346  0.4764 -1.5902  0.5528
 6260TIP3    H218745   1.773   2.861   0.489  0.3765  0.4717  0.3190
 6261TIP3   OH218746   1.924   2.381   4.591 -0.0900 -0.2509 -0.2439
 6261TIP3    H118747   1.953   2.469   4.566  0.5423 -0.4623 -0.2567
 6261TIP3    H218748   2.004   2.329   4.593 -0.5666 -1.0673 -1.2142
 6262TIP3   OH218749   4.270   6.363   3.122 -0.0949 -0.1942 -0.1827
 6262TIP3    H118750   4.271   6.355   3.026 -0.9134 -0.0491 -0.2100
 6262TIP3    H218751   4.260   6.273   3.154 -1.5485 -0.0913 -0.2882
 6263TIP3   OH218752   0.576   4.211   1.080 -0.1428 -0.3146  0.6950
 6263TIP3    H118753   0.568   4.117   1.096  1.8356 -0.7417 -0.5460
 6263TIP3    H218754   0.615   4.217   0.993 -1.5784  1.7053  0.1298
 6264TIP3   OH218755   0.295   4.859   3.989  0.1405 -0.4869 -0.3005
 6264TIP3    H118756   0.349   4.797   3.941  0.2995 -0.4141 -0.2156
 6264TIP3    H218757   0.326   4.946   3.961  2.6632 -0.3218  2.4870
 6265TIP3   OH218758   4.553   3.698   1.507 -0.5688 -0.4318 -0.0235
 6265TIP3    H118759   4.638   3.733   1.533  0.6754 -2.0317 -1.7176
 6265TIP3    H218760   4.508   3.772   1.466  0.7269 -0.0211 -0.7480
 6266TIP3   OH218761   0.148   5.498   2.200 -0.1244 -0.0763  0.1603
 6266TIP3    H118762   0.131   5.582   2.157  2.8495  1.6440  2.0092
 6266TIP3    H218763   0.192   5.446   2.133 -1.5371 -0.0263 -0.8521
 6267TIP3   OH218764   2.435   2.491   0.396  0.4114  0.4522  0.0324
 6267TIP3    H118765   2.401   2.453   0.477  0.9312  1.5983  0.8188
 6267TIP3    H218766   2.516   2.442   0.379  0.1552  0.0197  0.0390
 6268TIP3   OH218767   2.850   6.553   3.706 -0.3494 -0.2605  0.1589
 6268TIP3    H118768   2.920   6.504   3.663 -2.1288 -2.1369 -0.7991
 6268TIP3    H218769   2.824   6.618   3.641  0.0898  0.0288  0.2716
 6269TIP3   OH218770   0.328   3.488   4.657  0.0177 -0.2776  0.0160
 6269TIP3    H118771   0.379   3.528   4.727 -0.1416 -1.3622  0.7720
 6269TIP3    H218772   0.270   3.558   4.627  1.6018  0.8489 -0.5623
 6270TIP3   OH218773   4.674   2.392   1.560  0.0885 -0.1385  0.4640
 6270TIP3    H118774   4.745   2.365   1.502 -1.1180  0.5085 -1.4084
 6270TIP3    H218775   4.642   2.310   1.599  2.4762 -0.3434  2.1906
 6271TIP3   OH218776   5.680   1.440   3.109 -0.1957  0.0958  0.6309
 6271TIP3    H118777   5.695   1.454   3.202  0.3828 -3.2748  1.1604
 6271TIP3    H218778   5.609   1.377   3.105 -1.6885  1.7541 -1.3671
 6272TIP3   OH218779   6.456   1.902   1.538 -0.0209  0.7779  0.1303
 6272TIP3    H118780   6.426   1.811   1.540  0.3420  0.6228  2.8182
 6272TIP3    H218781   6.376   1.954   1.535 -0.3373  0.3553  0.9837
 6273TIP3   OH218782   6.320   5.690   0.270 -0.2786  0.5109  0.7337
 6273TIP3    H118783   6.260   5.618   0.291  0.3633  0.2242  1.6187
 6273TIP3    H218784   6.396   5.647   0.231  1.4258  0.3205  3.9572
 6274TIP3   OH218785   4.479   3.360   4.146 -0.3255 -0.2079  0.2264
 6274TIP3    H118786   4.557   3.322   4.185 -0.1739 -1.5905 -1.3018
 6274TIP3    H218787   4.511   3.407   4.069 -0.7318  1.5144  1.0577
 6275TIP3   OH218788   3.654   6.278   2.673  0.0032 -0.2729  0.6012
 6275TIP3    H118789   3.690   6.347   2.618 -0.1424  0.1300  1.0033
 6275TIP3    H218790   3.685   6.299   2.761 -1.9497  0.6491  1.1400
 6276TIP3   OH218791   4.139   0.667   3.442 -0.5982  0.1204 -0.6139
 6276TIP3    H118792   4.171   0.659   3.532  0.8190  0.9870 -1.0133
 6276TIP3    H218793   4.175   0.590   3.398  0.4939  0.7792 -0.9160
 6277TIP3   OH218794   5.186   0.453   5.571  0.1128 -0.1616 -0.0627
 6277TIP3    H118795   5.122   0.506   5.617 -0.1669 -1.1278  0.6907
 6277TIP3    H218796   5.155   0.452   5.480 -0.6244 -0.1537  0.1849
 6278TIP3   OH218797   5.767   6.763   4.803 -0.2976 -0.5566  0.4555
 6278TIP3    H118798   5.706   6.762   4.729  0.9231 -1.6615 -0.5712
 6278TIP3    H218799   5.718   6.721   4.874 -1.1915 -0.2277  0.0531
 6279TIP3   OH218800   5.523   4.721   0.079 -0.2261  0.2591  0.4952
 6279TIP3    H118801   5.452   4.751   0.136  0.0713  0.8233  0.5734
 6279TIP3    H218802   5.488   4.643   0.036 -0.6264  0.1042  1.0903
 6280TIP3   OH218803   6.258   1.583   2.042 -0.4991  0.2434  0.4967
 6280TIP3    H118804   6.210   1.574   1.960 -1.8951  1.5880  1.1087
 6280TIP3    H218805   6.195   1.557   2.109  0.1017  0.6612  1.2368
 6281TIP3   OH218806   4.281   5.489   1.497  0.5177  0.4646  0.1227
 6281TIP3    H118807   4.230   5.492   1.579  2.7145  1.5798  1.5602
 6281TIP3    H218808   4.253   5.567   1.449 -0.1314  0.2903  0.1985
 6282TIP3   OH218809   3.135   4.760   3.539 -0.2123 -0.4139 -0.4529
 6282TIP3    H118810   3.065   4.759   3.604  0.9383 -0.7214  0.8324
 6282TIP3    H218811   3.214   4.780   3.589  0.5723  0.3327 -1.9281
 6283TIP3   OH218812   1.745   5.926   4.690  0.1710  0.2190 -0.2897
 6283TIP3    H118813   1.831   5.902   4.656  0.0330 -0.9723  0.1529
 6283TIP3    H218814   1.758   5.939   4.784  0.1522  1.5500 -0.4439
 6284TIP3   OH218815   7.060   6.245   1.663  0.1603 -0.1960  0.0055
 6284TIP3    H118816   6.978   6.253   1.711  0.3986 -0.1851  0.4108
 6284TIP3    H218817   7.079   6.151   1.662  1.7456  0.0061  2.6408
 6285TIP3   OH218818   0.983   1.474   4.000 -0.1168  0.1461 -0.3171
 6285TIP3    H118819   1.005   1.514   4.084 -0.4845  0.6130 -0.4361
 6285TIP3    H218820   1.026   1.389   4.002  0.6027  0.5034 -0.0139
 6286TIP3   OH218821   7.170   0.480   2.504  0.5751  0.3359 -0.2301
 6286TIP3    H118822   7.115   0.475   2.426  0.2661 -0.4887  0.0339
 6286TIP3    H218823   7.114   0.522   2.569  0.1597 -0.6995  0.1034
 6287TIP3   OH218824   5.255   0.875   5.746 -0.1295  0.0997 -0.2801
 6287TIP3    H118825   5.318   0.818   5.701  0.9891  0.9495  0.1604
 6287TIP3    H218826   5.206   0.816   5.804  1.1405 -0.3937  0.3195
 6288TIP3   OH218827   4.771   3.969   4.307  0.1954  0.3972  0.5298
 6288TIP3    H118828   4.697   4.028   4.293 -0.3741 -0.2354  0.8414
 6288TIP3    H218829   4.731   3.883   4.317  0.9952  0.0167  0.4726
 6289TIP3   OH218830   4.007   1.561   1.939  0.0249 -0.0782  0.2983
 6289TIP3    H118831   4.053   1.490   1.983  1.6994  0.3534 -0.6669
 6289TIP3    H218832   4.038   1.641   1.982 -0.1166  0.2013 -0.1090
 6290TIP3   OH218833   6.375   5.033   0.665 -0.2216  0.5443  0.2200
 6290TIP3    H118834   6.382   5.050   0.759 -1.5718  1.5431  0.1724
 6290TIP3    H218835   6.346   4.942   0.659  0.2283  0.3616  0.7546
 6291TIP3   OH218836   5.472   4.133   1.503  0.0811 -0.0325 -0.2825
 6291TIP3    H118837   5.382   4.161   1.519  0.1284  0.5846 -1.0786
 6291TIP3    H218838   5.515   4.210   1.468  0.9724 -0.2769  0.2484
 6292TIP3   OH218839   6.490   3.459   4.904 -0.1468  0.1346  0.0711
 6292TIP3    H118840   6.401   3.448   4.870 -0.2511 -3.0577  1.0241
 6292TIP3    H218841   6.478   3.497   4.991 -0.6116 -0.4484  0.2686
 6293TIP3   OH218842   6.377   2.967   2.638 -0.4324  0.3298  0.1311
 6293TIP3    H118843   6.318   2.985   2.565  0.3190  1.1725 -0.2961
 6293TIP3    H218844   6.460   3.008   2.612  1.0566 -2.7155 -0.2983
 6294TIP3   OH218845   5.793   4.013   4.940  0.1612 -0.3933  0.0781
 6294TIP3    H118846   5.717   3.962   4.911 -0.6624  0.1433  1.2116
 6294TIP3    H218847   5.764   4.104   4.932  0.2281 -0.2098  1.6973
 6295TIP3   OH218848   6.029   4.728   4.101  0.0628  0.1217  0.2058
 6295TIP3    H118849   6.069   4.648   4.068 -4.4716 -1.5096 -2.2500
 6295TIP3    H218850   5.961   4.697   4.161  0.4237  2.4542  1.9548
 6296TIP3   OH218851   0.424   4.231   5.862  0.5201 -0.6272 -0.0722
 6296TIP3    H118852   0.378   4.296   5.809  1.1522 -0.7211 -0.7570
 6296TIP3    H218853   0.440   4.158   5.802  0.2506 -1.2154  0.5572
 6297TIP3   OH218854   4.391   1.630   2.549  0.1491 -0.5893 -0.5723
 6297TIP3    H118855   4.422   1.617   2.460  0.2921 -1.5363 -0.3894
 6297TIP3    H218856   4.344   1.714   2.546  0.9075 -0.1801 -1.3234
 6298TIP3   OH218857   4.892   2.536   2.281 -0.5582  0.0625  0.4268
 6298TIP3    H118858   4.899   2.581   2.365  1.1766 -0.1743  0.4393
 6298TIP3    H218859   4.804   2.498   2.282 -1.0947  1.2303  1.5196
 6299TIP3   OH218860   0.219   2.584   0.303  0.7414 -0.2504  0.0220
 6299TIP3    H118861   0.215   2.592   0.208 -2.2147 -3.8762 -0.4159
 6299TIP3    H218862   0.151   2.644   0.335 -0.1576 -0.9789 -0.4614
 6300TIP3   OH218863   6.164   5.565   2.394  0.2899  0.2155  0.4555
 6300TIP3    H118864   6.257   5.569   2.418  0.9923  2.1115 -2.0972
 6300TIP3    H218865   6.162   5.592   2.302 -2.6865 -1.0909  0.0099
 6301TIP3   OH218866   5.636   5.500   2.751  0.1861  0.2217 -0.4438
 6301TIP3    H118867   5.716   5.509   2.699  2.7715  1.5090  3.3180
 6301TIP3    H218868   5.641   5.411   2.787 -1.5063 -0.6035 -2.0401
 6302TIP3   OH218869   4.905   5.639   3.634  0.3890 -0.3904  0.4180
 6302TIP3    H118870   4.958   5.567   3.600  1.0759  0.5126 -0.4847
 6302TIP3    H218871   4.884   5.691   3.557  1.8014  1.5981  1.2909
 6303TIP3   OH218872   6.242   4.550   5.631  0.0909 -0.1493 -0.1838
 6303TIP3    H118873   6.315   4.528   5.573 -0.4011  1.1297 -1.3541
 6303TIP3    H218874   6.223   4.469   5.678  1.5633 -0.7859 -0.6299
 6304TIP3   OH218875   2.163   6.248   5.185 -0.4031 -0.3394  0.2721
 6304TIP3    H118876   2.166   6.171   5.129 -0.8914  0.1268 -0.3999
 6304TIP3    H218877   2.107   6.222   5.259 -1.0373 -0.4437 -0.2392
 6305TIP3   OH218878   5.259   1.071   3.926  0.2716  0.2180  0.2248
 6305TIP3    H118879   5.177   1.070   3.976  0.3069  0.4226  0.2886
 6305TIP3    H218880   5.296   0.984   3.938 -1.1096 -0.7420 -1.7505
 6306TIP3   OH218881   6.190   2.272   4.752 -0.4504  0.1621 -0.4200
 6306TIP3    H118882   6.221   2.311   4.834 -0.8782  0.6365 -0.4770
 6306TIP3    H218883   6.121   2.212   4.778  0.4037 -0.7923 -0.3052
 6307TIP3   OH218884   1.115   1.566   5.714 -0.3595  0.2361  0.4635
 6307TIP3    H118885   1.068   1.494   5.672  0.5510 -0.1869  0.1558
 6307TIP3    H218886   1.092   1.643   5.661 -0.8689  0.0797  0.4486
 6308TIP3   OH218887   0.089   4.721   2.809  0.0697 -0.1518  0.1521
 6308TIP3    H118888   0.179   4.721   2.842  1.0049 -0.5737 -2.2044
 6308TIP3    H218889   0.044   4.654   2.862  0.8050  0.7583  2.0397
 6309TIP3   OH218890   6.544   4.130   5.238  0.2384  0.6975 -0.8948
 6309TIP3    H118891   6.575   4.112   5.327 -1.1767  1.7551 -0.1481
 6309TIP3    H218892   6.578   4.218   5.218 -1.7007  1.6299 -0.2837
 6310TIP3   OH218893   2.018   2.613   2.278 -0.1099 -0.1026 -0.1909
 6310TIP3    H118894   2.052   2.525   2.292  0.7768 -0.1782 -2.4210
 6310TIP3    H218895   2.021   2.626   2.183 -1.8118  1.7190 -0.0868
 6311TIP3   OH218896   1.034   2.107   2.885  0.4238  0.2174  0.0203
 6311TIP3    H118897   1.044   2.161   2.964  1.7095  0.5701 -0.3455
 6311TIP3    H218898   1.124   2.092   2.856  0.0269 -1.1723 -0.5427
 6312TIP3   OH218899   2.136   4.840   1.507 -0.6052 -0.6748 -0.0603
 6312TIP3    H118900   2.123   4.750   1.539 -2.2221 -1.3689 -2.4397
 6312TIP3    H218901   2.052   4.883   1.524 -0.8038 -0.4776 -1.4725
 6313TIP3   OH218902   2.049   6.395   2.935  0.4259  0.3080  0.1723
 6313TIP3    H118903   2.030   6.372   3.026 -0.5609 -1.4389 -0.4265
 6313TIP3    H218904   2.061   6.311   2.891 -1.2875  0.9767 -1.7455
 6314TIP3   OH218905   5.034   1.842   4.187 -0.0916 -0.3216  0.4358
 6314TIP3    H118906   5.095   1.842   4.113 -0.0081  0.9157  0.4709
 6314TIP3    H218907   5.079   1.894   4.254 -1.0229  0.2927  0.5988
 6315TIP3   OH218908   3.290   4.414   2.276  0.4789 -0.2959  0.3020
 6315TIP3    H118909   3.321   4.471   2.205 -1.5678  0.2413 -0.2033
 6315TIP3    H218910   3.307   4.325   2.244 -0.1929 -0.0504 -0.7645
 6316TIP3   OH218911   2.010   5.360   4.080 -0.1349  0.2090  0.7242
 6316TIP3    H118912   1.917   5.350   4.102 -0.6361  1.0114 -0.8632
 6316TIP3    H218913   2.054   5.290   4.128 -1.9201 -2.0237 -0.6993
 6317TIP3   OH218914   2.468   5.399   2.700  0.4686  0.4219  0.3033
 6317TIP3    H118915   2.408   5.382   2.772  0.4530  1.4743  0.5655
 6317TIP3    H218916   2.544   5.440   2.741  0.9784 -0.0754 -0.1352
 6318TIP3   OH218917   1.273   4.387   4.909 -0.2395  0.0983  0.5723
 6318TIP3    H118918   1.191   4.434   4.897  0.5498  1.3506 -0.1703
 6318TIP3    H218919   1.306   4.419   4.993 -0.4687 -0.3546  0.8387
 6319TIP3   OH218920   6.455   1.631   4.345 -0.0448 -0.4865  0.4731
 6319TIP3    H118921   6.440   1.659   4.255  1.4915  1.3289  0.7200
 6319TIP3    H218922   6.548   1.611   4.350  0.2063  0.8573  1.9905
 6320TIP3   OH218923   4.085   2.424   4.774 -0.4000 -0.0502 -0.0769
 6320TIP3    H118924   4.050   2.369   4.704 -2.1117  0.3841  0.3916
 6320TIP3    H218925   4.169   2.385   4.795 -0.0671 -0.4891 -2.0187
 6321TIP3   OH218926   4.338   4.771   3.014  0.1272  0.0144  0.5702
 6321TIP3    H118927   4.304   4.758   3.102  0.2992  0.7165  0.7436
 6321TIP3    H218928   4.432   4.788   3.026  0.8149 -2.8939  0.0344
 6322TIP3   OH218929   1.745   6.690   0.587  0.2340 -0.1682  1.0660
 6322TIP3    H118930   1.732   6.784   0.579 -0.1790 -0.3324 -0.3766
 6322TIP3    H218931   1.755   6.675   0.681 -1.8389  1.0320  1.5296
 6323TIP3   OH218932   6.255   5.535   1.690 -0.3360 -0.6942 -0.4219
 6323TIP3    H118933   6.304   5.525   1.771 -1.5511  0.7989  0.5524
 6323TIP3    H218934   6.309   5.491   1.624 -0.4730 -4.1478  1.5471
 6324TIP3   OH218935   0.144   3.795   2.281 -0.0319 -0.7077 -0.0458
 6324TIP3    H118936   0.052   3.821   2.292  0.1545 -0.6713  1.7021
 6324TIP3    H218937   0.161   3.807   2.188 -1.5554  0.1206 -0.2553
 6325TIP3   OH218938   2.404   3.150   1.906  0.0926  0.3559  0.0983
 6325TIP3    H118939   2.374   3.239   1.885  2.6681  1.1533 -0.6140
 6325TIP3    H218940   2.451   3.121   1.827  0.7205 -0.9536  0.9199
 6326TIP3   OH218941   0.780   1.963   3.166 -0.0683  0.1098 -0.0721
 6326TIP3    H118942   0.838   1.942   3.239  2.0588 -0.7023 -1.8740
 6326TIP3    H218943   0.779   2.059   3.163  0.6374  0.1454  0.4393
 6327TIP3   OH218944   2.701   1.179   4.773 -0.1788  0.6941  0.1058
 6327TIP3    H118945   2.612   1.144   4.780  1.0704 -2.5235  2.0250
 6327TIP3    H218946   2.722   1.209   4.862  1.4757 -1.0070  0.3422
 6328TIP3   OH218947   6.251   2.963   0.721  0.2083  0.5118  0.4835
 6328TIP3    H118948   6.199   3.023   0.668  0.2029  0.0893 -0.0022
 6328TIP3    H218949   6.338   2.966   0.683  0.1208 -0.0530  0.2218
 6329TIP3   OH218950   1.548   2.132   5.634 -0.3745 -0.2839  0.3673
 6329TIP3    H118951   1.510   2.106   5.550 -0.5833 -0.0008  0.3736
 6329TIP3    H218952   1.634   2.090   5.635 -0.3928 -0.3329  0.0368
 6330TIP3   OH218953   5.591   2.978   5.195 -0.3061  1.0156  0.4191
 6330TIP3    H118954   5.539   2.923   5.254 -0.9089  0.7899 -0.3141
 6330TIP3    H218955   5.680   2.942   5.200 -0.3267  1.0641  1.2646
 6331TIP3   OH218956   6.583   3.218   1.675  0.1894  0.7216 -0.4734
 6331TIP3    H118957   6.663   3.179   1.710 -0.0686  0.6273  0.0123
 6331TIP3    H218958   6.542   3.148   1.625  0.5126  0.8310 -0.8990
 6332TIP3   OH218959   4.578   3.567   4.896 -0.2228  0.4179 -0.2976
 6332TIP3    H118960   4.554   3.612   4.977 -1.6610  0.8024 -0.9093
 6332TIP3    H218961   4.642   3.625   4.854  0.0858  0.4954  0.2793
 6333TIP3   OH218962   5.266   5.689   2.533 -0.0168  0.0227  0.8148
 6333TIP3    H118963   5.357   5.694   2.504  0.5069 -0.0606  2.3382
 6333TIP3    H218964   5.272   5.667   2.626 -1.5827  0.6681  1.0932
 6334TIP3   OH218965   0.337   1.053   2.405 -0.0554 -0.4785 -0.4241
 6334TIP3    H118966   0.406   1.102   2.360 -0.2457 -0.4488 -0.6882
 6334TIP3    H218967   0.335   1.090   2.493  1.0159 -1.2326 -0.0625
 6335TIP3   OH218968   0.754   2.170   2.783  0.4622  0.2994  0.0417
 6335TIP3    H118969   0.846   2.147   2.796  0.1634 -0.9154  0.0853
 6335TIP3    H218970   0.754   2.265   2.776  1.6450  0.3626  0.6856
 6336TIP3   OH218971   1.543   1.504   3.374 -0.3832  0.1443 -0.1300
 6336TIP3    H118972   1.620   1.447   3.385  0.0874  0.6588 -0.6932
 6336TIP3    H218973   1.532   1.545   3.460  0.2327  0.3811 -0.1558
 6337TIP3   OH218974   3.003   3.978   3.294 -0.1811  0.5156  0.6889
 6337TIP3    H118975   2.997   4.046   3.361  0.1573 -1.5525  2.9563
 6337TIP3    H218976   3.092   3.943   3.303 -0.8808 -1.3546  0.8078
 6338TIP3   OH218977   2.700   4.297   2.097 -0.0607  0.1042 -0.3582
 6338TIP3    H118978   2.708   4.263   2.187  1.2721 -0.1460 -0.5450
 6338TIP3    H218979   2.632   4.363   2.102  0.9248  1.0650  1.1477
 6339TIP3   OH218980   2.681   6.047   5.590  0.6200  0.0875 -0.1843
 6339TIP3    H118981   2.700   5.966   5.542  0.6220 -1.0769  1.6826
 6339TIP3    H218982   2.604   6.083   5.546  1.4644 -0.1168 -1.9511
 6340TIP3   OH218983   6.963   0.540   5.655  0.5292 -0.5151  0.6085
 6340TIP3    H118984   7.010   0.564   5.575  2.8053  1.2522  2.3625
 6340TIP3    H218985   6.873   0.571   5.640  1.5046  2.1182 -0.3457
 6341TIP3   OH218986   1.812   2.283   2.713 -0.0315 -0.0459  0.3409
 6341TIP3    H118987   1.771   2.256   2.630  1.0337 -0.7679  0.0376
 6341TIP3    H218988   1.738   2.297   2.772 -0.7339 -3.4208  0.4658
 6342TIP3   OH218989   3.339   2.761   1.203 -0.0781 -0.1269 -0.0457
 6342TIP3    H118990   3.433   2.746   1.217 -0.3207 -1.6395  0.0632
 6342TIP3    H218991   3.299   2.745   1.288 -0.6376 -1.3789 -0.5275
 6343TIP3   OH218992   4.356   5.270   3.784 -0.0434  0.1546  0.1428
 6343TIP3    H118993   4.365   5.277   3.879  2.8497 -0.4342  0.0206
 6343TIP3    H218994   4.446   5.271   3.751 -0.8362 -1.6653 -2.4538
 6344TIP3   OH218995   3.628   3.993   1.165  1.1358 -0.6844  0.0661
 6344TIP3    H118996   3.640   3.980   1.071  2.5457  2.3031 -0.2673
 6344TIP3    H218997   3.538   3.965   1.182  0.5301 -0.4250 -2.3601
 6345TIP3   OH218998   4.946   0.703   0.831 -0.3031  0.3065 -0.2244
 6345TIP3    H118999   5.007   0.634   0.858 -1.2608 -0.9803 -1.2289
 6345TIP3    H219000   4.922   0.747   0.913  0.1643 -0.6905  0.4672
 6346TIP3   OH219001   0.329   4.206   1.263 -0.0427  0.2288 -0.3729
 6346TIP3    H119002   0.339   4.247   1.178 -0.9899  3.0137  0.7536
 6346TIP3    H219003   0.413   4.221   1.307  0.8575 -2.1806 -1.1025
 6347TIP3   OH219004   5.294   4.825   5.117  0.0467 -0.1018 -0.0852
 6347TIP3    H119005   5.240   4.831   5.038 -1.1530 -1.6179  0.5826
 6347TIP3    H219006   5.323   4.734   5.120  2.3849  0.5817 -0.2176
 6348TIP3   OH219007   5.729   1.180   1.774  0.4686  0.1074  0.2582
 6348TIP3    H119008   5.684   1.192   1.691  2.0459  0.2474 -0.6075
 6348TIP3    H219009   5.721   1.264   1.818 -0.1013  0.1274  0.1263
 6349TIP3   OH219010   3.564   5.504   1.035 -0.1348  0.0044 -0.2920
 6349TIP3    H119011   3.602   5.545   1.113  0.8483 -1.6675  0.1656
 6349TIP3    H219012   3.487   5.557   1.015  2.5219  3.8779 -1.4820
 6350TIP3   OH219013   3.656   1.819   5.708  0.5778  0.3406  0.4766
 6350TIP3    H119014   3.581   1.845   5.654  1.3486  0.1608 -0.7278
 6350TIP3    H219015   3.622   1.748   5.762  0.1114 -0.4561 -0.7985
 6351TIP3   OH219016   2.968   1.177   1.683 -0.2883  0.3805 -0.6850
 6351TIP3    H119017   2.919   1.239   1.737 -0.9083  0.0597 -0.8778
 6351TIP3    H219018   2.902   1.116   1.649  0.4847 -1.4690  0.9139
 6352TIP3   OH219019   1.692   1.309   2.366 -0.3167 -0.2163 -0.1099
 6352TIP3    H119020   1.729   1.221   2.360 -1.1996 -0.5625 -0.6613
 6352TIP3    H219021   1.598   1.297   2.349 -0.2935  0.9576 -1.2423
 6353TIP3   OH219022   0.053   0.297   3.757 -0.1605 -0.1510  0.0252
 6353TIP3    H119023   0.128   0.239   3.768  1.6980  1.8058 -1.5144
 6353TIP3    H219024   0.031   0.292   3.665  0.4564  1.9539 -0.2974
 6354TIP3   OH219025   2.865   3.211   3.554 -0.2388 -0.4740  0.1297
 6354TIP3    H119026   2.867   3.127   3.510  0.8939 -0.3164 -0.1356
 6354TIP3    H219027   2.780   3.249   3.530 -0.6361 -1.4053  0.0297
 6355TIP3   OH219028   7.195   6.223   0.420  0.3478  0.0072 -0.4592
 6355TIP3    H119029   7.102   6.242   0.431  0.3259 -0.2015 -0.2791
 6355TIP3    H219030   7.237   6.265   0.495  0.1209 -2.0224  0.8785
 6356TIP3   OH219031   5.445   0.859   1.615 -0.1193  0.4019  0.5418
 6356TIP3    H119032   5.541   0.850   1.614 -0.2400 -1.9108 -1.4969
 6356TIP3    H219033   5.427   0.931   1.556  0.3568  0.3491  0.3271
 6357TIP3   OH219034   0.440   0.382   4.021 -0.2577 -0.4061  0.5057
 6357TIP3    H119035   0.400   0.392   4.107 -4.1908 -0.0284 -1.1524
 6357TIP3    H219036   0.411   0.296   3.991 -0.2796  0.1061 -1.0318
 6358TIP3   OH219037   3.423   5.474   3.689 -0.2782 -0.7092  0.0260
 6358TIP3    H119038   3.372   5.485   3.770  0.3922 -1.2293  0.5327
 6358TIP3    H219039   3.471   5.392   3.703  2.7100  1.0179  0.6940
 6359TIP3   OH219040   6.869   0.139   0.138 -0.1246  0.0800 -0.0380
 6359TIP3    H119041   6.796   0.081   0.118 -1.1186  0.7403  1.4880
 6359TIP3    H219042   6.828   0.214   0.182  1.1455  1.7759 -1.5737
 6360TIP3   OH219043   5.959   3.010   3.965  0.5302 -0.4004  0.4851
 6360TIP3    H119044   5.889   3.019   3.900 -0.0103  2.8584  1.3251
 6360TIP3    H219045   6.005   2.930   3.940 -3.1461 -2.4556 -0.4114
 6361TIP3   OH219046   1.787   0.944   1.789 -0.3790 -0.2728 -0.0985
 6361TIP3    H119047   1.813   0.876   1.726  1.1905  0.9009 -0.8028
 6361TIP3    H219048   1.856   0.944   1.854 -0.1873  0.8255 -0.2772
 6362TIP3   OH219049   0.410   3.462   4.046  0.5938 -0.1636  0.2070
 6362TIP3    H119050   0.317   3.475   4.064  0.5408 -0.8403  0.4615
 6362TIP3    H219051   0.416   3.467   3.950  0.3560  0.2566  0.2119
 6363TIP3   OH219052   6.766   0.174   1.982  0.1170  0.0628 -0.0699
 6363TIP3    H119053   6.795   0.117   1.911 -2.5172 -0.3622 -0.9053
 6363TIP3    H219054   6.676   0.196   1.960 -0.1845  1.4584  2.2190
 6364TIP3   OH219055   1.215   4.201   2.048 -0.0460  0.4659  0.0838
 6364TIP3    H119056   1.140   4.253   2.077  0.7678  1.8561 -0.1850
 6364TIP3    H219057   1.288   4.232   2.102  0.4179 -0.5801  0.0675
 6365TIP3   OH219058   6.326   2.587   4.707  0.4344 -0.4808 -0.2459
 6365TIP3    H119059   6.293   2.590   4.797  0.5221 -1.8682 -0.1414
 6365TIP3    H219060   6.285   2.661   4.663 -1.2311 -0.9882  0.4103
 6366TIP3   OH219061   1.008   5.759   1.552 -0.3643  0.2022 -0.3042
 6366TIP3    H119062   1.092   5.773   1.595 -0.1055  1.7234 -1.2230
 6366TIP3    H219063   1.025   5.778   1.459 -1.3709 -0.9917 -0.7680
 6367TIP3   OH219064   7.165   4.327   4.210 -0.6398 -0.2980  0.4233
 6367TIP3    H119065   7.208   4.410   4.188 -1.2968 -0.1428 -0.3324
 6367TIP3    H219066   7.154   4.330   4.305 -0.3110  0.3105  0.4468
 6368TIP3   OH219067   5.589   6.092   5.254 -0.2728  0.2371  0.2349
 6368TIP3    H119068   5.665   6.149   5.251  0.5072 -0.8022 -1.2704
 6368TIP3    H219069   5.564   6.080   5.162 -1.6108 -0.2905  0.6359
 6369TIP3   OH219070   2.000   1.285   1.894  0.2698  0.6237  0.0809
 6369TIP3    H119071   1.943   1.300   1.969 -0.4621 -0.6784 -0.1697
 6369TIP3    H219072   2.034   1.371   1.871 -1.5674  1.4500  0.2766
 6370TIP3   OH219073   2.993   6.661   2.059  0.3380  0.4833 -0.3618
 6370TIP3    H119074   3.032   6.713   2.130 -0.4331 -0.0343  0.4537
 6370TIP3    H219075   3.022   6.571   2.077 -0.0529  0.3159 -0.5713
 6371TIP3   OH219076   1.078   2.034   0.146 -0.1481 -0.2953  0.3196
 6371TIP3    H119077   1.047   1.952   0.184 -0.2761 -0.2129  0.3946
 6371TIP3    H219078   1.071   2.098   0.218  0.5897 -0.3658  0.4628
 6372TIP3   OH219079   5.560   5.924   0.304  0.5438  0.3488 -0.0488
 6372TIP3    H119080   5.507   5.923   0.384  0.0451  0.8665 -0.3657
 6372TIP3    H219081   5.495   5.921   0.233  0.9834 -0.2316 -0.4373
 6373TIP3   OH219082   6.872   3.014   4.197  0.0460  0.1045  0.1941
 6373TIP3    H119083   6.860   2.988   4.288  0.1573  1.2219  0.5424
 6373TIP3    H219084   6.951   3.069   4.197  0.8655 -1.0214 -0.8190
 6374TIP3   OH219085   6.706   4.763   2.022  0.1368 -0.5320  0.8345
 6374TIP3    H119086   6.781   4.766   2.081 -0.7284 -0.2876  1.9451
 6374TIP3    H219087   6.706   4.848   1.979  0.5274 -0.5623  0.7649
 6375TIP3   OH219088   0.349   6.084   4.417 -0.3237 -0.3975  0.0914
 6375TIP3    H119089   0.399   6.033   4.480  0.1998  0.8712  0.7497
 6375TIP3    H219090   0.402   6.082   4.337 -0.2199 -0.7301  0.1685
 6376TIP3   OH219091   5.229   1.040   1.759  0.1030 -0.5798  0.0276
 6376TIP3    H119092   5.254   1.018   1.849  0.3042 -0.0210  0.1097
 6376TIP3    H219093   5.299   1.004   1.705 -0.4516 -1.6834  0.0182
 6377TIP3   OH219094   6.804   5.883   2.432 -0.1902 -0.4258  1.1303
 6377TIP3    H119095   6.896   5.911   2.428  0.3734 -2.2298  0.3305
 6377TIP3    H219096   6.757   5.961   2.460  1.5117  0.7242  0.9799
 6378TIP3   OH219097   6.981   6.403   2.199  0.1377 -0.4030  0.6052
 6378TIP3    H119098   6.963   6.461   2.125 -2.1806 -1.6401  0.1050
 6378TIP3    H219099   7.032   6.331   2.162 -0.5018 -0.7183  0.3277
 6379TIP3   OH219100   5.750   6.121   3.496 -0.6117  0.4216  0.5306
 6379TIP3    H119101   5.665   6.145   3.460 -0.5325  0.9883  0.7151
 6379TIP3    H219102   5.784   6.202   3.534 -0.7169 -0.1597  1.9172
 6380TIP3   OH219103   0.641   1.948   5.173 -0.5889  0.5595  0.1210
 6380TIP3    H119104   0.716   1.918   5.121  1.5235  1.5156  2.4119
 6380TIP3    H219105   0.669   1.940   5.264 -2.2373  3.4000  1.0407
 6381TIP3   OH219106   5.360   0.472   1.894 -0.1590 -1.2030  0.1066
 6381TIP3    H119107   5.378   0.537   1.826 -2.7499  0.0719  0.5251
 6381TIP3    H219108   5.443   0.461   1.939  0.6177  1.0587 -0.6402
 6382TIP3   OH219109   4.264   5.572   0.648  0.4860 -0.5682 -0.5463
 6382TIP3    H119110   4.351   5.604   0.626  0.1740  2.5445  2.0752
 6382TIP3    H219111   4.210   5.598   0.573  1.0693  1.4209 -0.3396
 6383TIP3   OH219112   5.271   0.575   5.035  0.1784 -0.3844 -0.0867
 6383TIP3    H119113   5.263   0.484   5.064  1.3087 -0.5375 -0.2187
 6383TIP3    H219114   5.359   0.601   5.061  0.1673  0.4037 -0.7972
 6384TIP3   OH219115   4.434   0.569   1.908 -0.0339 -0.1551 -0.2152
 6384TIP3    H119116   4.379   0.503   1.951 -0.9785  1.3230  0.9143
 6384TIP3    H219117   4.517   0.524   1.893 -0.9759 -1.9402 -0.4874
 6385TIP3   OH219118   2.442   3.370   5.530 -0.4048 -0.3861  0.0025
 6385TIP3    H119119   2.377   3.361   5.461 -0.0231 -0.4121 -0.3602
 6385TIP3    H219120   2.461   3.280   5.557  0.7575 -0.5087 -1.1138
 6386TIP3   OH219121   0.904   5.300   0.644 -0.4790  0.3152 -0.0525
 6386TIP3    H119122   0.820   5.342   0.662  0.6081  2.6418 -0.0059
 6386TIP3    H219123   0.952   5.306   0.727  0.0293 -0.2744 -0.2933
 6387TIP3   OH219124   7.142   6.488   1.617 -0.2487 -0.0856 -0.1780
 6387TIP3    H119125   7.108   6.505   1.529  1.7470 -1.3572 -1.2709
 6387TIP3    H219126   7.136   6.393   1.627  3.3010 -0.4962 -0.7028
 6388TIP3   OH219127   3.985   1.569   1.626  0.1657  0.0730 -0.8215
 6388TIP3    H119128   3.982   1.590   1.719  2.2182  0.1908 -0.7283
 6388TIP3    H219129   3.944   1.644   1.583 -1.3032 -0.2277 -0.0243
 6389TIP3   OH219130   1.750   4.387   3.651  0.3907  0.3404 -1.3018
 6389TIP3    H119131   1.836   4.369   3.690 -0.6316  0.6498  1.2534
 6389TIP3    H219132   1.736   4.313   3.592  1.8431 -0.4184 -0.7704
 6390TIP3   OH219133   1.749   5.041   5.672  0.1252  0.0309 -0.1528
 6390TIP3    H119134   1.739   5.094   5.751  0.2935 -1.1509  0.6841
 6390TIP3    H219135   1.838   5.061   5.641  0.2513  0.0970  0.2514
 6391TIP3   OH219136   7.171   2.211   2.609 -0.2885 -0.5339  0.4022
 6391TIP3    H119137   7.112   2.283   2.632  0.0310 -0.0696 -0.1932
 6391TIP3    H219138   7.255   2.238   2.645 -0.3478 -1.0143  0.9126
 6392TIP3   OH219139   6.331   5.440   0.805  0.0114 -0.5923 -0.2148
 6392TIP3    H119140   6.379   5.503   0.751  1.4220  0.0699  1.7350
 6392TIP3    H219141   6.295   5.378   0.741  0.0063  1.1850 -2.0668
 6393TIP3   OH219142   0.787   5.721   3.813  0.2173 -0.2815 -0.1016
 6393TIP3    H119143   0.770   5.771   3.733  1.6233 -0.5095 -0.5821
 6393TIP3    H219144   0.706   5.673   3.831 -0.1213 -0.1951 -1.3683
 6394TIP3   OH219145   3.797   3.412   0.158  0.2109  0.1512 -0.7355
 6394TIP3    H119146   3.737   3.486   0.160  0.1793  0.1105  0.1429
 6394TIP3    H219147   3.827   3.407   0.067 -0.7601  0.4479 -1.0754
 6395TIP3   OH219148   6.020   1.760   4.817 -0.3728 -0.0794 -0.5435
 6395TIP3    H119149   6.102   1.789   4.779 -1.2708  0.7334 -1.9482
 6395TIP3    H219150   6.034   1.765   4.912  1.2510 -0.2057 -0.7559
 6396TIP3   OH219151   5.396   5.084   5.581  0.4805  0.1145  0.5873
 6396TIP3    H119152   5.348   5.034   5.515 -0.6522  0.2256  1.3029
 6396TIP3    H219153   5.482   5.042   5.585  0.6296  0.2327 -1.0743
 6397TIP3   OH219154   3.720   4.691   0.998  0.5655  0.2787  0.0546
 6397TIP3    H119155   3.810   4.698   1.032  0.2840  0.9632  0.6787
 6397TIP3    H219156   3.666   4.735   1.064 -0.0652  1.1957 -1.0491
 6398TIP3   OH219157   7.207   2.999   3.832 -0.4125 -0.0940  0.1386
 6398TIP3    H119158   7.138   3.065   3.835  0.2143  0.5431  2.6650
 6398TIP3    H219159   7.280   3.043   3.788 -0.3007  0.6332  1.0191
 6399TIP3   OH219160   1.711   3.202   4.221 -0.2924 -0.6334 -0.2393
 6399TIP3    H119161   1.745   3.199   4.310 -1.6783  0.4070  0.3549
 6399TIP3    H219162   1.616   3.199   4.232 -0.6507  2.5587 -1.4561
 6400TIP3   OH219163   6.693   5.895   5.507 -0.0543  0.0119  0.2152
 6400TIP3    H119164   6.780   5.871   5.475  0.6398  0.8345  1.3947
 6400TIP3    H219165   6.673   5.829   5.573  0.0797  0.3179  0.5694
 6401TIP3   OH219166   4.385   4.408   1.586  0.3975 -0.2367  0.8902
 6401TIP3    H119167   4.362   4.452   1.504  0.9653 -2.0817 -0.3035
 6401TIP3    H219168   4.422   4.478   1.640  3.1578  0.5373 -1.6656
 6402TIP3   OH219169   1.543   6.345   4.424  0.2692  0.9588  0.3979
 6402TIP3    H119170   1.507   6.325   4.338  0.5092  2.2709 -0.0400
 6402TIP3    H219171   1.591   6.267   4.449 -0.8804  0.0747 -0.0776
 6403TIP3   OH219172   0.853   4.194   3.309 -0.2714 -0.1566 -0.4664
 6403TIP3    H119173   0.914   4.217   3.239  0.2172  0.3088  0.0956
 6403TIP3    H219174   0.794   4.130   3.269  0.9233 -1.0644 -0.8732
 6404TIP3   OH219175   4.977   2.518   1.716 -0.2471 -0.1622  0.4270
 6404TIP3    H119176   5.029   2.581   1.765  0.6131 -0.8477  0.4190
 6404TIP3    H219177   4.914   2.484   1.779  0.3829 -0.5074  0.8870
 6405TIP3   OH219178   1.721   6.743   2.919 -0.5566 -0.1726  0.3739
 6405TIP3    H119179   1.655   6.674   2.917  0.8641 -1.5965  0.2010
 6405TIP3    H219180   1.764   6.732   3.004 -0.2318  0.4164  0.2906
 6406TIP3   OH219181   4.565   0.571   1.202 -0.0988 -0.3134  0.2411
 6406TIP3    H119182   4.494   0.627   1.233 -0.1255  0.5474 -1.2632
 6406TIP3    H219183   4.575   0.594   1.110  0.9045 -1.7442 -0.0434
 6407TIP3   OH219184   1.561   5.533   3.280  0.5468 -0.6610  0.4006
 6407TIP3    H119185   1.585   5.605   3.339 -1.2632 -0.2146  0.6625
 6407TIP3    H219186   1.474   5.506   3.309 -0.1694 -0.8052 -1.7028
 6408TIP3   OH219187   6.468   5.495   4.525 -0.5149  0.2397 -0.0641
 6408TIP3    H119188   6.382   5.506   4.566 -0.7840 -1.5815 -0.0746
 6408TIP3    H219189   6.452   5.505   4.432 -0.4604  1.2193  0.0203
 6409TIP3   OH219190   6.710   1.224   2.307  0.3539 -0.0650 -0.1457
 6409TIP3    H119191   6.787   1.205   2.254 -0.2106 -1.2544 -0.5734
 6409TIP3    H219192   6.674   1.304   2.270  0.0875 -0.7555 -1.4511
 6410TIP3   OH219193   6.805   5.000   2.838 -0.0948 -0.6318  0.0833
 6410TIP3    H119194   6.825   5.093   2.849 -0.0121 -0.6746  0.3037
 6410TIP3    H219195   6.891   4.957   2.831 -0.0653 -0.9165  1.8421
 6411TIP3   OH219196   0.183   0.142   2.931  0.1973 -0.0502 -0.4026
 6411TIP3    H119197   0.133   0.167   2.853 -0.0751 -2.4899 -1.0944
 6411TIP3    H219198   0.118   0.139   3.001  0.0961  0.3339 -0.4754
 6412TIP3   OH219199   2.202   3.021   0.601 -0.5042  0.3810  0.6105
 6412TIP3    H119200   2.178   2.930   0.616 -0.8656  0.5006  0.7935
 6412TIP3    H219201   2.282   3.034   0.651  1.0109 -0.5119 -1.4400
 6413TIP3   OH219202   2.595   3.571   4.364 -0.1292 -0.0560  0.5060
 6413TIP3    H119203   2.516   3.605   4.407  0.0069  1.1182 -0.1490
 6413TIP3    H219204   2.625   3.643   4.308  1.9959 -0.1111  1.5076
 6414TIP3   OH219205   6.598   0.321   4.639 -0.5163 -0.1161  0.7033
 6414TIP3    H119206   6.666   0.262   4.607 -0.8035  1.1865 -2.7643
 6414TIP3    H219207   6.557   0.274   4.712 -0.9611 -4.3769 -1.9876
 6415TIP3   OH219208   3.715   5.343   3.401 -0.3543 -0.6440 -0.1046
 6415TIP3    H119209   3.785   5.347   3.466 -0.1010 -0.6908 -0.3713
 6415TIP3    H219210   3.648   5.403   3.434 -0.0806 -0.4086  0.0298
 6416TIP3   OH219211   5.012   4.619   0.654  0.0573 -0.3040  0.2694
 6416TIP3    H119212   4.965   4.591   0.733  1.4106 -2.0873  0.4915
 6416TIP3    H219213   5.067   4.692   0.684 -1.6014  1.0291  0.2547
 6417TIP3   OH219214   2.325   1.528   4.167  0.0010 -0.4577 -0.5122
 6417TIP3    H119215   2.324   1.588   4.241  1.7706 -0.5966 -0.3373
 6417TIP3    H219216   2.334   1.441   4.206 -1.6026 -0.7833 -0.8033
 6418TIP3   OH219217   4.249   0.799   0.216  0.4851 -0.2335  0.0866
 6418TIP3    H119218   4.162   0.780   0.181  0.2705 -1.1237  1.0576
 6418TIP3    H219219   4.239   0.791   0.311  2.1145 -2.5068  0.1413
 6419TIP3   OH219220   5.300   2.000   5.688 -0.7044  0.3949 -0.2242
 6419TIP3    H119221   5.247   1.965   5.759  1.1253 -0.0097  0.9983
 6419TIP3    H219222   5.384   2.020   5.728  0.9089 -1.2133 -2.5163
 6420TIP3   OH219223   3.012   1.554   3.397  0.2791 -0.1027 -0.5197
 6420TIP3    H119224   3.056   1.638   3.407  0.1181 -0.2373  2.0655
 6420TIP3    H219225   2.926   1.575   3.361 -0.1536  1.0142  1.0697
 6421TIP3   OH219226   6.300   0.587   3.546  0.3936  0.4532  0.0055
 6421TIP3    H119227   6.208   0.596   3.569  0.5656 -1.8446  1.9369
 6421TIP3    H219228   6.347   0.605   3.628  1.3899 -2.1345  0.0824
 6422TIP3   OH219229   2.493   5.626   2.274  0.1207 -0.5889  0.3392
 6422TIP3    H119230   2.560   5.577   2.226  0.9853 -0.1953  1.1319
 6422TIP3    H219231   2.470   5.698   2.215  1.3443  0.0278  0.5924
 6423TIP3   OH219232   3.742   4.972   4.232  0.1979  0.0589  0.6832
 6423TIP3    H119233   3.727   5.065   4.214  0.2703 -0.1123 -0.2672
 6423TIP3    H219234   3.665   4.945   4.283  0.4141  0.7526  1.3925
 6424TIP3   OH219235   4.828   3.242   4.255 -0.8323 -0.1261  0.1053
 6424TIP3    H119236   4.875   3.287   4.324 -0.7357  1.0840 -0.7176
 6424TIP3    H219237   4.868   3.273   4.174 -1.1324 -1.2880 -0.5148
 6425TIP3   OH219238   0.820   4.529   1.283 -0.0752 -0.0261 -0.1906
 6425TIP3    H119239   0.800   4.540   1.190 -0.1124  1.2140 -0.0463
 6425TIP3    H219240   0.781   4.606   1.325  1.0725  0.0967  0.6808
 6426TIP3   OH219241   4.884   3.791   2.546  0.5171  0.0952  0.1284
 6426TIP3    H119242   4.795   3.778   2.579  0.9705 -2.5535  0.5442
 6426TIP3    H219243   4.901   3.884   2.559 -1.6272  0.3679  1.4835
 6427TIP3   OH219244   1.188   2.965   4.367 -0.6274 -0.1896  0.1139
 6427TIP3    H119245   1.147   3.037   4.319 -1.9402  0.6685  2.3489
 6427TIP3    H219246   1.124   2.895   4.365 -0.7728 -0.0786  0.7455
 6428TIP3   OH219247   3.412   2.984   4.835  0.2523 -0.0624  0.7042
 6428TIP3    H119248   3.484   2.965   4.774 -2.1622  1.0557 -2.7732
 6428TIP3    H219249   3.421   3.077   4.853 -0.6925  0.2552 -0.3681
 6429TIP3   OH219250   6.513   4.618   2.625 -0.0403  0.2237 -0.3789
 6429TIP3    H119251   6.562   4.552   2.674  1.9702  0.9636 -1.2732
 6429TIP3    H219252   6.457   4.659   2.691  0.9350 -0.3105  0.8402
 6430TIP3   OH219253   2.422   1.255   1.601  0.2284 -0.0649  0.1060
 6430TIP3    H119254   2.460   1.220   1.682 -0.8605 -0.0376  0.6551
 6430TIP3    H219255   2.339   1.208   1.592  0.7059 -0.6625 -1.4599
 6431TIP3   OH219256   2.729   2.456   1.790  0.3254 -0.0896  0.6028
 6431TIP3    H119257   2.657   2.419   1.739  0.2568 -0.3827  0.9165
 6431TIP3    H219258   2.806   2.446   1.733 -0.1619  1.7869 -0.4657
 6432TIP3   OH219259   0.841   3.372   2.331  0.0354  0.2001 -0.0679
 6432TIP3    H119260   0.808   3.339   2.414 -0.2990 -1.7691 -0.9326
 6432TIP3    H219261   0.855   3.466   2.346 -0.6590  0.0171  1.9763
 6433TIP3   OH219262   5.658   4.028   4.133 -0.1636 -0.2932  0.1145
 6433TIP3    H119263   5.648   3.983   4.217  0.3422 -1.3566 -0.3699
 6433TIP3    H219264   5.620   4.114   4.147 -0.5064 -0.6177  1.2978
 6434TIP3   OH219265   6.097   5.309   1.491  0.1131  0.2279 -0.1160
 6434TIP3    H119266   6.169   5.346   1.542 -0.4657  2.5515 -0.8762
 6434TIP3    H219267   6.018   5.329   1.542 -0.0720 -3.0613  1.1600
 6435TIP3   OH219268   3.978   0.436   2.334  0.0364 -0.1108 -0.0591
 6435TIP3    H119269   3.937   0.457   2.418 -0.3940 -0.5599 -0.1503
 6435TIP3    H219270   3.979   0.340   2.331  1.4498 -0.1285  0.1123
 6436TIP3   OH219271   6.523   0.267   0.349  0.3632  0.1426 -0.5665
 6436TIP3    H119272   6.500   0.178   0.375  0.7365 -0.6715 -2.8476
 6436TIP3    H219273   6.445   0.319   0.369 -0.8022 -1.1902 -1.5084
 6437TIP3   OH219274   6.714   3.086   3.969 -0.3615 -0.3020 -0.6740
 6437TIP3    H119275   6.635   3.034   3.977 -0.8056  0.2035 -1.5611
 6437TIP3    H219276   6.774   3.051   4.035 -0.8090 -1.6232 -0.9512
 6438TIP3   OH219277   6.290   4.381   5.843 -0.0740  0.1762 -0.3427
 6438TIP3    H119278   6.196   4.386   5.862 -0.1945  0.0747 -0.8975
 6438TIP3    H219279   6.323   4.314   5.903 -0.4150 -0.0059 -0.3569
 6439TIP3   OH219280   1.554   1.102   0.415 -0.0005 -0.3647 -0.9041
 6439TIP3    H119281   1.617   1.174   0.416 -0.1486 -0.2248  0.5647
 6439TIP3    H219282   1.479   1.137   0.368 -0.9741  1.3287  1.6443
 6440TIP3   OH219283   1.787   6.249   3.725 -0.2067 -0.2244 -0.6553
 6440TIP3    H119284   1.721   6.201   3.675  0.6730 -1.1670 -0.9322
 6440TIP3    H219285   1.854   6.184   3.746  1.8644  1.1834 -2.4898
 6441TIP3   OH219286   1.400   4.653   5.668 -0.1483  0.7674 -0.2617
 6441TIP3    H119287   1.472   4.599   5.701 -1.7001 -0.1553  1.8168
 6441TIP3    H219288   1.362   4.602   5.597  0.4892  0.7424 -0.6012
 6442TIP3   OH219289   1.381   3.554   1.102  0.2250 -0.0070 -0.3522
 6442TIP3    H119290   1.307   3.580   1.047  0.5711 -0.0476 -0.8497
 6442TIP3    H219291   1.432   3.496   1.046  0.8018  0.2724 -0.1208
 6443TIP3   OH219292   5.259   0.733   1.748 -0.0539  0.1242 -0.0762
 6443TIP3    H119293   5.212   0.677   1.687 -0.8777  0.8912 -0.1500
 6443TIP3    H219294   5.308   0.793   1.693  1.3753 -0.9182 -0.0120
 6444TIP3   OH219295   3.947   0.397   4.315  0.2734 -0.1770 -0.4500
 6444TIP3    H119296   3.902   0.315   4.334  1.0108 -0.6573 -0.7340
 6444TIP3    H219297   3.970   0.392   4.223  1.4096 -0.2058 -0.1838
 6445TIP3   OH219298   0.398   3.701   3.187 -0.0251 -0.1010 -0.2177
 6445TIP3    H119299   0.389   3.624   3.131 -1.7264 -0.9266  1.0717
 6445TIP3    H219300   0.323   3.755   3.164 -0.1204  0.0677  0.4805
 6446TIP3   OH219301   4.831   4.880   1.758  0.0731 -0.6942 -0.1866
 6446TIP3    H119302   4.782   4.916   1.685 -0.2638 -3.3324 -1.3695
 6446TIP3    H219303   4.828   4.949   1.825 -2.7697  0.3642 -1.2600
 6447TIP3   OH219304   0.763   2.279   4.709 -0.2864 -0.6728 -0.1763
 6447TIP3    H119305   0.836   2.338   4.694  0.9667 -2.7966 -3.6968
 6447TIP3    H219306   0.690   2.318   4.662 -0.2874 -0.5344 -0.0607
 6448TIP3   OH219307   6.955   0.343   1.516  0.7424  0.4593 -0.0388
 6448TIP3    H119308   7.012   0.419   1.501  0.3631  0.9986  1.1278
 6448TIP3    H219309   6.976   0.283   1.444  2.8964  0.5700  0.4370
 6449TIP3   OH219310   6.989   5.366   1.957 -0.0986  0.4231 -0.3280
 6449TIP3    H119311   6.901   5.404   1.966 -0.5635 -1.0565  2.6411
 6449TIP3    H219312   7.032   5.385   2.041  2.7317  1.6310 -1.9082
 6450TIP3   OH219313   2.360   6.514   1.041  0.1455 -0.6456  0.0912
 6450TIP3    H119314   2.434   6.565   1.074  0.2068 -1.4768  1.3006
 6450TIP3    H219315   2.293   6.522   1.108 -0.8875  0.0863 -0.9840
 6451TIP3   OH219316   0.248   4.707   0.673  0.5404 -0.2443 -0.1779
 6451TIP3    H119317   0.214   4.676   0.589  2.5523 -1.0395 -0.7535
 6451TIP3    H219318   0.320   4.766   0.650  1.7248 -1.1841  0.9506
 6452TIP3   OH219319   0.469   1.937   3.202 -0.1968 -0.2763 -0.1400
 6452TIP3    H119320   0.519   1.995   3.261  1.0116 -0.8407 -0.5824
 6452TIP3    H219321   0.498   1.849   3.226 -2.6996 -0.8257  1.1609
 6453TIP3   OH219322   4.942   6.448   1.808 -0.4337 -0.0034  0.6922
 6453TIP3    H119323   5.037   6.455   1.794 -0.6738  0.5545 -0.8934
 6453TIP3    H219324   4.924   6.510   1.879  0.4949 -0.8487  1.7170
 6454TIP3   OH219325   1.672   5.899   2.311 -0.0741 -0.0626 -0.1058
 6454TIP3    H119326   1.638   5.820   2.353 -0.1909  0.2922  0.4912
 6454TIP3    H219327   1.642   5.893   2.220 -0.3285 -0.5591  0.0076
 6455TIP3   OH219328   5.742   4.265   4.857  0.2343 -0.2102 -0.2125
 6455TIP3    H119329   5.802   4.262   4.783  0.0531  0.3669 -0.3817
 6455TIP3    H219330   5.711   4.355   4.861  0.5345 -0.1359  0.7978
 6456TIP3   OH219331   7.197   2.222   4.569 -0.1632 -0.6595  0.6332
 6456TIP3    H119332   7.164   2.212   4.480  1.0019  0.3629  0.0656
 6456TIP3    H219333   7.118   2.235   4.622 -0.7492  1.9341 -0.7028
 6457TIP3   OH219334   4.319   5.037   5.125 -0.2521 -0.0983  0.3130
 6457TIP3    H119335   4.225   5.040   5.105 -0.0359  0.3673 -0.7218
 6457TIP3    H219336   4.361   5.062   5.043  0.7539  0.6807  1.0399
 6458TIP3   OH219337   4.647   2.795   4.133 -0.1777 -0.2355 -0.3628
 6458TIP3    H119338   4.588   2.753   4.070 -0.9818 -0.3511  0.4479
 6458TIP3    H219339   4.674   2.877   4.090 -0.7001 -0.3221 -0.8671
 6459TIP3   OH219340   2.320   3.352   2.910 -0.2550 -0.1544 -0.1958
 6459TIP3    H119341   2.409   3.358   2.945 -0.5707  0.4835  0.5034
 6459TIP3    H219342   2.313   3.426   2.850  0.2647 -1.2057 -1.6487
 6460TIP3   OH219343   6.445   3.989   4.911  0.0500  0.4390 -0.6749
 6460TIP3    H119344   6.443   3.927   4.983 -1.3762  0.7491 -0.4319
 6460TIP3    H219345   6.397   3.945   4.840 -0.7174  1.1358 -0.5961
 6461TIP3   OH219346   2.307   3.150   3.287 -0.3059 -0.2978  0.2752
 6461TIP3    H119347   2.293   3.244   3.290 -1.3486 -0.3893 -0.9466
 6461TIP3    H219348   2.371   3.137   3.217 -0.4761 -0.5190  0.1588
 6462TIP3   OH219349   5.836   0.730   5.809 -0.0358  0.3397  0.5902
 6462TIP3    H119350   5.880   0.698   5.888  0.6558  1.1486  0.5552
 6462TIP3    H219351   5.748   0.752   5.838 -1.2334 -3.3382  0.2082
 6463TIP3   OH219352   6.282   2.951   2.362  0.0927 -0.0147 -0.0997
 6463TIP3    H119353   6.272   3.045   2.343 -2.4481 -0.5051 -1.6624
 6463TIP3    H219354   6.312   2.913   2.280  0.8312 -0.6298  0.4448
 6464TIP3   OH219355   3.498   0.510   1.565  0.0781  0.4580 -0.4235
 6464TIP3    H119356   3.533   0.568   1.632 -1.0181  0.4687  0.1648
 6464TIP3    H219357   3.549   0.530   1.487  2.3158 -0.5111  0.6883
 6465TIP3   OH219358   1.756   0.988   1.444  0.1012  0.4720  0.8059
 6465TIP3    H119359   1.850   0.982   1.460  0.2196  1.3580  0.4651
 6465TIP3    H219360   1.748   1.030   1.358 -0.5853 -0.9726  0.1208
 6466TIP3   OH219361   1.667   0.699   4.431 -0.2388 -0.3621  0.4502
 6466TIP3    H119362   1.672   0.713   4.337 -0.3440 -1.9886  0.1646
 6466TIP3    H219363   1.573   0.697   4.450 -0.2246 -0.5808  0.4971
 6467TIP3   OH219364   2.943   4.341   4.180  0.6506 -0.5546 -0.2493
 6467TIP3    H119365   2.995   4.305   4.251  1.0526  0.0820 -0.2132
 6467TIP3    H219366   2.954   4.278   4.108 -0.7429 -1.8457  0.6128
 6468TIP3   OH219367   1.015   0.222   5.187  0.0924  0.3031  0.0229
 6468TIP3    H119368   1.083   0.279   5.153 -0.2233  0.6312 -0.0703
 6468TIP3    H219369   0.937   0.244   5.136 -0.3118  0.5930  0.7422
 6469TIP3   OH219370   1.974   6.214   5.828 -0.0077  0.5347  0.1346
 6469TIP3    H119371   2.032   6.269   5.775  0.1958 -0.9355 -1.2586
 6469TIP3    H219372   1.896   6.202   5.774 -1.1564  1.4858  1.4874
 6470TIP3   OH219373   0.958   3.884   3.395  0.0175  0.2635 -0.3372
 6470TIP3    H119374   0.972   3.829   3.318 -0.3238 -1.2701  0.6725
 6470TIP3    H219375   0.863   3.890   3.404  0.0579 -0.0341  0.2975
 6471TIP3   OH219376   5.350   3.990   4.560 -0.1373 -0.3909 -0.1503
 6471TIP3    H119377   5.358   3.897   4.578 -0.8143 -0.1376  1.5941
 6471TIP3    H219378   5.405   4.032   4.626  0.5065  0.4538 -1.1818
 6472TIP3   OH219379   4.833   2.452   1.951 -0.0595 -0.4203 -0.0094
 6472TIP3    H119380   4.914   2.412   1.981  0.6495 -0.5425 -1.9562
 6472TIP3    H219381   4.774   2.378   1.936 -0.5888 -0.3255  1.4916
 6473TIP3   OH219382   2.469   0.589   2.514 -0.2581 -0.0610 -0.2538
 6473TIP3    H119383   2.455   0.526   2.443  2.1019 -1.9558  0.8168
 6473TIP3    H219384   2.564   0.596   2.521 -0.4622  2.1367  1.0019
 6474TIP3   OH219385   2.579   6.009   0.928 -0.2112  0.2121  0.7108
 6474TIP3    H119386   2.673   6.019   0.939 -0.0298 -0.3525 -0.1779
 6474TIP3    H219387   2.547   6.099   0.916  0.2092  0.4075  1.0304
 6475TIP3   OH219388   1.176   1.734   3.553 -0.4243 -0.1275  0.5503
 6475TIP3    H119389   1.129   1.682   3.619  0.5672 -0.7374  0.7855
 6475TIP3    H219390   1.240   1.784   3.604 -0.4157  0.2529  0.1671
 6476TIP3   OH219391   6.469   6.306   1.329  0.2733 -0.2583  0.2954
 6476TIP3    H119392   6.418   6.380   1.297 -1.6632 -1.3984  0.6122
 6476TIP3    H219393   6.493   6.257   1.250  1.2419  0.4750  0.1171
 6477TIP3   OH219394   3.371   5.651   5.850 -0.7038  0.5484 -0.1239
 6477TIP3    H119395   3.306   5.614   5.790 -1.8306  1.2704  0.5965
 6477TIP3    H219396   3.412   5.575   5.892 -0.4820  0.0630 -1.1943
 6478TIP3   OH219397   5.055   0.441   3.449  0.0756 -0.3200 -0.3581
 6478TIP3    H119398   4.984   0.505   3.443  0.9943  0.6922 -0.8404
 6478TIP3    H219399   5.069   0.429   3.543 -0.5699 -0.3574 -0.2612
 6479TIP3   OH219400   5.559   0.563   1.183 -0.3789  0.3646 -0.1374
 6479TIP3    H119401   5.573   0.474   1.216 -0.1510  0.3771 -0.1965
 6479TIP3    H219402   5.497   0.602   1.244 -0.8253  0.0200 -0.3599
 6480TIP3   OH219403   5.214   0.235   1.660 -0.0039 -0.4309 -0.7974
 6480TIP3    H119404   5.235   0.183   1.582  0.4685 -0.5248 -0.6061
 6480TIP3    H219405   5.119   0.222   1.672 -0.5986  1.4902 -2.7459
 6481TIP3   OH219406   5.590   5.937   5.658  0.1140  0.0491  0.3665
 6481TIP3    H119407   5.590   6.018   5.606  0.1566 -0.7438 -0.8940
 6481TIP3    H219408   5.661   5.885   5.620 -0.9702 -1.2599  0.0864
 6482TIP3   OH219409   2.227   3.300   1.646  0.7912  0.7194  0.2515
 6482TIP3    H119410   2.288   3.319   1.717 -0.1468  1.5092  0.8817
 6482TIP3    H219411   2.155   3.362   1.660 -0.1175 -0.1418 -0.4962
 6483TIP3   OH219412   0.925   1.071   1.259 -0.2707 -0.0785  0.3087
 6483TIP3    H119413   0.926   1.166   1.262  0.6809 -0.0852  0.8284
 6483TIP3    H219414   1.013   1.047   1.228 -1.0353 -0.7631 -1.4838
 6484TIP3   OH219415   4.984   3.797   4.760  0.4059  0.3607 -1.0047
 6484TIP3    H119416   5.075   3.792   4.790  0.0533  0.7255  0.1958
 6484TIP3    H219417   4.983   3.750   4.677  1.3013 -1.2674 -0.1311
 6485TIP3   OH219418   6.405   3.720   0.795  0.8953  0.0943 -0.1080
 6485TIP3    H119419   6.344   3.747   0.863 -1.0029 -3.1339 -0.3402
 6485TIP3    H219420   6.470   3.790   0.792 -1.5272  2.6196  1.7213
 6486TIP3   OH219421   3.536   0.397   2.884  0.2129 -0.0517  0.3735
 6486TIP3    H119422   3.473   0.393   2.956  0.1823  0.4020  0.3724
 6486TIP3    H219423   3.519   0.481   2.842  0.7909  0.0582  0.3504
 6487TIP3   OH219424   1.391   1.552   5.102  0.0327 -0.5422  0.0135
 6487TIP3    H119425   1.467   1.541   5.046 -0.6140 -1.8927 -0.6509
 6487TIP3    H219426   1.321   1.502   5.059 -1.2468  0.6527  0.5921
 6488TIP3   OH219427   0.452   3.855   0.482 -0.2846 -0.1401  0.3736
 6488TIP3    H119428   0.427   3.798   0.409 -2.1196 -0.6520  1.3474
 6488TIP3    H219429   0.379   3.915   0.492  1.4040  2.1479 -0.3029
 6489TIP3   OH219430   5.484   3.952   3.897  0.2497  0.1183 -0.4792
 6489TIP3    H119431   5.418   4.019   3.916 -1.3608 -1.3237 -0.7392
 6489TIP3    H219432   5.559   3.976   3.951 -0.8722  1.2199  0.6526
 6490TIP3   OH219433   4.938   2.702   4.389 -0.1191 -0.3442  0.2181
 6490TIP3    H119434   4.888   2.783   4.392 -0.5780 -0.6260  0.2063
 6490TIP3    H219435   4.880   2.636   4.427  0.1090 -0.7435 -0.1190
 6491TIP3   OH219436   0.045   1.932   5.457  0.5751 -0.2671  0.3256
 6491TIP3    H119437   0.101   1.925   5.535  0.0792 -0.4142  0.6738
 6491TIP3    H219438  -0.042   1.951   5.492  0.0258 -1.8582 -0.1042
 6492TIP3   OH219439   1.604   4.629   2.132  0.0489 -0.7136 -0.3023
 6492TIP3    H119440   1.529   4.688   2.142  2.2003  2.0893  0.6268
 6492TIP3    H219441   1.597   4.597   2.042 -1.3174  0.9109 -0.8384
 6493TIP3   OH219442   4.320   3.086   3.212  0.3355 -0.0236  0.0212
 6493TIP3    H119443   4.326   2.992   3.196 -1.6543 -0.4783  1.5033
 6493TIP3    H219444   4.369   3.100   3.293  0.9464  0.2952 -0.3989
 6494TIP3   OH219445   3.087   6.175   0.954 -0.1007  0.2090  0.0399
 6494TIP3    H119446   3.096   6.228   0.875 -0.7323  0.6095  0.2331
 6494TIP3    H219447   2.999   6.195   0.987 -1.1238 -2.2558 -0.8614
 6495TIP3   OH219448   0.148   5.507   1.808  0.0483 -0.4505 -0.0582
 6495TIP3    H119449   0.143   5.561   1.729  2.5957 -1.6127 -1.1012
 6495TIP3    H219450   0.076   5.445   1.799  1.0042 -1.3602 -2.1534
 6496TIP3   OH219451   5.560   2.188   5.490  0.1646  0.2963  0.5802
 6496TIP3    H119452   5.535   2.096   5.484 -1.5025  0.8027 -1.6378
 6496TIP3    H219453   5.546   2.212   5.581 -2.7454 -0.8115  0.5117
 6497TIP3   OH219454   3.861   4.887   2.752 -0.3361  0.3518  0.1717
 6497TIP3    H119455   3.824   4.829   2.817 -0.8146 -0.7588 -1.0498
 6497TIP3    H219456   3.788   4.944   2.726 -0.5737 -0.2354 -0.4876
 6498TIP3   OH219457   6.758   3.529   1.391  0.6605 -0.0579  0.4521
 6498TIP3    H119458   6.783   3.602   1.335  1.0930 -0.4310  0.1541
 6498TIP3    H219459   6.665   3.514   1.371  1.0481 -0.8293 -0.9188
 6499TIP3   OH219460   6.253   1.555   0.071 -0.5585  0.5595  0.1687
 6499TIP3    H119461   6.286   1.616   0.005  0.4072  1.6015  1.5707
 6499TIP3    H219462   6.177   1.599   0.109 -1.0836 -0.0191 -0.1832
 6500TIP3   OH219463   1.068   3.029   5.877 -0.0280 -0.2643  0.1677
 6500TIP3    H119464   1.158   3.008   5.851  1.0288  1.7419  1.9145
 6500TIP3    H219465   1.045   3.106   5.825 -1.5059 -1.7962 -1.6054
 6501TIP3   OH219466   4.118   5.689   3.547  0.1144  0.0078  0.1806
 6501TIP3    H119467   4.025   5.679   3.531 -0.1045 -1.1801  1.8660
 6501TIP3    H219468   4.160   5.645   3.473 -0.6424  0.6794 -0.6642
 6502TIP3   OH219469   6.834   1.296   1.363 -0.3576  0.2175 -0.2616
 6502TIP3    H119470   6.925   1.269   1.372 -0.3271  0.3389 -0.2097
 6502TIP3    H219471   6.784   1.214   1.362 -0.3874  0.1949  1.1740
 6503TIP3   OH219472   4.800   1.209   3.787 -0.6056 -0.1305  0.0602
 6503TIP3    H119473   4.881   1.170   3.752 -0.0015  0.8493  0.3168
 6503TIP3    H219474   4.765   1.260   3.714 -0.3582  0.3953  0.3095
 6504TIP3   OH219475   3.850   3.638   3.574 -0.6398 -0.0098  0.0500
 6504TIP3    H119476   3.799   3.699   3.520  1.0274  0.6181 -0.9062
 6504TIP3    H219477   3.811   3.552   3.556 -2.2665  0.5960  0.5047
 6505TIP3   OH219478   4.165   0.114   2.174  0.2218 -0.5354  0.4713
 6505TIP3    H119479   4.159   0.152   2.262  0.2254  2.1415 -0.5838
 6505TIP3    H219480   4.257   0.127   2.150 -0.4349  1.8847 -1.1094
 6506TIP3   OH219481   0.481   6.560   3.407  0.3854 -0.2876 -0.6253
 6506TIP3    H119482   0.463   6.652   3.427  0.2415 -0.0631 -1.7202
 6506TIP3    H219483   0.572   6.547   3.433  0.5487  0.2974 -0.8767
 6507TIP3   OH219484   5.885   3.341   3.712  0.3540 -0.3278 -0.6477
 6507TIP3    H119485   5.822   3.298   3.654  0.7010 -0.5099 -0.8926
 6507TIP3    H219486   5.949   3.380   3.653  0.9853 -0.9364 -0.3794
 6508TIP3   OH219487   0.598   1.713   1.320 -0.1932 -0.5223 -0.2514
 6508TIP3    H119488   0.558   1.794   1.288 -0.0533 -1.0277 -1.7453
 6508TIP3    H219489   0.690   1.736   1.333  0.0244 -0.6419 -1.4809
 6509TIP3   OH219490   5.866   0.058   0.323  0.4352  0.1150 -0.0099
 6509TIP3    H119491   5.943   0.004   0.308 -0.1068 -0.3118 -1.3957
 6509TIP3    H219492   5.868   0.123   0.253 -0.4675  0.0973 -0.0676
 6510TIP3   OH219493   5.616   3.943   3.240 -0.5671 -0.1857 -0.6905
 6510TIP3    H119494   5.686   3.989   3.195  1.2336  1.8108  3.6603
 6510TIP3    H219495   5.555   4.012   3.267 -1.1714 -1.1779  0.5710
 6511TIP3   OH219496   1.859   2.652   5.409  0.3537 -0.2617 -0.5964
 6511TIP3    H119497   1.776   2.700   5.414 -0.0857 -1.0274 -0.4422
 6511TIP3    H219498   1.835   2.560   5.417  1.0669 -0.6176 -2.1128
 6512TIP3   OH219499   1.568   4.636   1.795 -0.2597  0.8209  0.5678
 6512TIP3    H119500   1.658   4.621   1.765 -0.5901  0.6539 -0.3903
 6512TIP3    H219501   1.570   4.722   1.836  0.2097  1.0996 -0.0241
 6513TIP3   OH219502   7.211   6.209   2.274  0.4420  0.4183 -0.1838
 6513TIP3    H119503   7.240   6.173   2.357 -0.0256  2.2991  0.8478
 6513TIP3    H219504   7.124   6.171   2.260  0.6241 -0.0925  0.0574
 6514TIP3   OH219505   0.785   1.307   0.438  0.0366 -0.0595  0.4601
 6514TIP3    H119506   0.843   1.314   0.513 -1.8221  0.4272  1.9185
 6514TIP3    H219507   0.737   1.389   0.437 -2.2678 -1.3198  0.7649
 6515TIP3   OH219508   3.852   1.626   3.152 -0.0417  0.6099 -0.0481
 6515TIP3    H119509   3.912   1.666   3.214 -0.0841 -1.1555  1.1881
 6515TIP3    H219510   3.901   1.554   3.113 -1.4698 -1.2816  1.4675
 6516TIP3   OH219511   5.459   4.140   3.343 -0.0712 -0.2195 -0.0486
 6516TIP3    H119512   5.442   4.214   3.284 -0.9764 -0.1629  0.2772
 6516TIP3    H219513   5.388   4.142   3.407  1.4579  0.3806  1.7342
 6517TIP3   OH219514   3.928   3.905   2.285 -0.1736  0.3381  0.1200
 6517TIP3    H119515   3.937   3.987   2.334  2.6949  0.1885 -0.0130
 6517TIP3    H219516   3.864   3.925   2.217  1.5335  2.9877 -0.8378
 6518TIP3   OH219517   6.734   0.012   2.697 -0.0283  0.6082  0.5214
 6518TIP3    H119518   6.675   0.054   2.759 -0.0139  1.7770 -0.2184
 6518TIP3    H219519   6.713   0.053   2.613  0.8654  0.0313  0.0009
 6519TIP3   OH219520   3.724   3.655   1.020 -0.1026 -0.0928  0.0555
 6519TIP3    H119521   3.673   3.726   1.059  0.6393 -0.3249  1.5316
 6519TIP3    H219522   3.662   3.583   1.010 -0.2929 -0.0540  0.9226
 6520TIP3   OH219523   3.337   5.205   3.828 -0.1454  0.9074 -0.0139
 6520TIP3    H119524   3.303   5.219   3.917 -1.5723 -0.9790 -0.1927
 6520TIP3    H219525   3.408   5.141   3.840 -0.9599 -0.0783 -0.2866
 6521TIP3   OH219526   6.865   1.220   5.626 -0.2851  0.4455  0.2748
 6521TIP3    H119527   6.805   1.159   5.583  1.1148 -1.0196  0.3310
 6521TIP3    H219528   6.927   1.245   5.558  0.6673 -0.2083  0.8925
 6522TIP3   OH219529   5.477   3.557   0.672  0.4195 -0.5780  0.4347
 6522TIP3    H119530   5.417   3.532   0.742  1.6368 -1.2112  1.2866
 6522TIP3    H219531   5.540   3.485   0.667  0.0548 -0.8210 -1.6976
 6523TIP3   OH219532   7.210   3.523   0.473 -0.7777  0.1832 -0.4634
 6523TIP3    H119533   7.251   3.583   0.410  0.3357 -0.6280 -0.5292
 6523TIP3    H219534   7.143   3.477   0.422 -1.1325  0.8230 -0.5934
 6524TIP3   OH219535   1.159   1.622   2.557 -0.5080 -0.0394  0.1160
 6524TIP3    H119536   1.184   1.715   2.562 -1.1094  0.1485 -0.2221
 6524TIP3    H219537   1.190   1.584   2.639  1.7563 -0.0461 -0.6691
 6525TIP3   OH219538   4.094   1.323   1.741 -0.1604 -0.4477 -0.5969
 6525TIP3    H119539   4.083   1.418   1.735 -1.2397 -0.5360 -0.2781
 6525TIP3    H219540   4.080   1.303   1.834 -1.1219 -1.0366 -0.8540
 6526TIP3   OH219541   4.150   0.651   0.752 -0.4552 -0.0619 -0.2746
 6526TIP3    H119542   4.146   0.648   0.848  2.3488 -1.0747 -0.0940
 6526TIP3    H219543   4.243   0.647   0.732 -0.8962  1.1961 -3.0644
 6527TIP3   OH219544   3.305   2.927   5.254  0.4853 -0.0872 -0.5390
 6527TIP3    H119545   3.254   2.846   5.253 -2.1567  1.4436 -1.5750
 6527TIP3    H219546   3.289   2.966   5.167  2.9157  0.8566 -0.6408
 6528TIP3   OH219547   3.716   5.978   3.114  0.0402 -0.2832  0.1745
 6528TIP3    H119548   3.739   5.987   3.021  2.3218 -1.6021  0.5533
 6528TIP3    H219549   3.717   6.068   3.147 -1.1035  0.2419 -1.0975
 6529TIP3   OH219550   3.370   4.478   3.707  0.5534 -0.1203  0.0333
 6529TIP3    H119551   3.415   4.449   3.628  0.1311  0.4318 -0.4259
 6529TIP3    H219552   3.286   4.432   3.705  0.3262  0.2962 -0.1243
 6530TIP3   OH219553   3.792   0.189   4.357  0.2823 -0.4779 -0.4641
 6530TIP3    H119554   3.794   0.147   4.443 -2.2248  1.8125  0.8608
 6530TIP3    H219555   3.756   0.122   4.299 -2.7505 -0.6488  1.3930
 6531TIP3   OH219556   4.380   4.836   0.941 -0.0037 -0.4975  0.2169
 6531TIP3    H119557   4.471   4.863   0.949 -0.1995  0.0657  0.6581
 6531TIP3    H219558   4.330   4.917   0.957 -0.5783 -0.8002 -0.0048
 6532TIP3   OH219559   3.231   3.964   4.241 -0.5180 -0.1283  0.1802
 6532TIP3    H119560   3.296   4.030   4.263  0.4905 -0.3903 -1.8255
 6532TIP3    H219561   3.262   3.884   4.283  1.3998 -0.6302 -1.9674
 6533TIP3   OH219562   5.230   4.103   0.640 -0.1747  0.0832  1.0040
 6533TIP3    H119563   5.254   4.015   0.611 -1.5234 -0.1156  0.4554
 6533TIP3    H219564   5.244   4.158   0.563  1.1453  0.4620  1.4856
 6534TIP3   OH219565   2.750   4.822   3.288  0.4553 -0.0484  0.1600
 6534TIP3    H119566   2.717   4.765   3.218  1.0562 -1.7888  1.2379
 6534TIP3    H219567   2.692   4.804   3.362  2.0326 -1.0536  1.2215
 6535TIP3   OH219568   1.182   2.145   3.702 -0.4990 -0.0292  0.2444
 6535TIP3    H119569   1.189   2.218   3.764 -0.3099 -0.1447  0.3581
 6535TIP3    H219570   1.244   2.080   3.734 -1.8556 -0.9461  1.0988
 6536TIP3   OH219571   3.074   0.390   1.261 -0.0357 -0.1712  0.7701
 6536TIP3    H119572   3.059   0.471   1.310 -1.9457  0.5721 -0.9382
 6536TIP3    H219573   3.032   0.322   1.314  1.3079 -0.0487  2.0578
 6537TIP3   OH219574   1.972   2.528   1.727  0.0449 -0.0318 -0.0668
 6537TIP3    H119575   2.034   2.529   1.654  1.3175  1.1249  0.9660
 6537TIP3    H219576   1.973   2.437   1.757  1.1046 -0.0899 -0.2058
 6538TIP3   OH219577   1.839   1.489   4.953  0.2425  0.0109 -0.0210
 6538TIP3    H119578   1.760   1.543   4.962  0.7504  0.7450  0.1518
 6538TIP3    H219579   1.860   1.463   5.043  0.2554 -0.1017 -0.0568
 6539TIP3   OH219580   0.911   5.350   3.860 -0.2799 -0.2272 -0.0808
 6539TIP3    H119581   0.920   5.270   3.910  0.9529 -0.9050 -1.3115
 6539TIP3    H219582   0.843   5.331   3.795 -0.0336 -0.2685 -0.3315
 6540TIP3   OH219583   1.274   0.514   4.919 -0.1689 -0.7169 -0.1077
 6540TIP3    H119584   1.360   0.554   4.906  0.1635 -1.1767  0.5522
 6540TIP3    H219585   1.212   0.584   4.903  0.3161 -0.4387 -0.8473
 6541TIP3   OH219586   5.811   1.987   3.140 -0.1334 -0.2035 -0.0254
 6541TIP3    H119587   5.757   2.038   3.080 -0.9790 -0.7525  0.2542
 6541TIP3    H219588   5.892   1.970   3.091 -0.7270 -0.4775 -0.9365
 6542TIP3   OH219589   3.259   5.858   4.311 -0.0297 -0.1431  0.1964
 6542TIP3    H119590   3.259   5.762   4.311 -0.2595 -0.1645 -1.4594
 6542TIP3    H219591   3.282   5.882   4.222  0.9741  1.3652  0.8266
 6543TIP3   OH219592   1.285   6.302   3.702 -0.0105 -0.1027 -0.2309
 6543TIP3    H119593   1.354   6.357   3.667 -0.1688  1.3032  1.5344
 6543TIP3    H219594   1.212   6.362   3.719 -0.1272 -0.7470  1.9405
 6544TIP3   OH219595   0.113   3.544   5.369 -0.2669 -0.1804  0.2934
 6544TIP3    H119596   0.111   3.639   5.359 -0.9921 -0.2556 -0.4266
 6544TIP3    H219597   0.059   3.511   5.297  1.2662 -1.2188 -0.4386
 6545TIP3   OH219598   5.944   1.366   3.785 -0.7717 -0.2354  0.0386
 6545TIP3    H119599   5.919   1.417   3.862 -0.1958  1.2662 -0.7311
 6545TIP3    H219600   6.038   1.349   3.797 -0.2696  1.5116 -1.1213
 6546TIP3   OH219601   7.108   5.676   0.746 -0.4977  0.1282 -0.3756
 6546TIP3    H119602   7.056   5.597   0.733 -1.0248  0.2747  0.7148
 6546TIP3    H219603   7.044   5.744   0.767  0.0471  0.5559 -0.0625
 6547TIP3   OH219604   0.342   6.744   1.676 -0.4373  0.5247  0.1467
 6547TIP3    H119605   0.311   6.712   1.591  0.4099 -0.6804  0.2582
 6547TIP3    H219606   0.376   6.832   1.658 -1.0002  0.6007 -0.5938
 6548TIP3   OH219607   1.540   3.389   1.555  0.3069 -0.2282  0.3158
 6548TIP3    H119608   1.477   3.382   1.483 -0.8948  3.2731  0.7970
 6548TIP3    H219609   1.500   3.340   1.626 -1.9654  1.7089  0.5358
 6549TIP3   OH219610   5.225   1.733   3.132 -0.1332  0.6492 -0.3617
 6549TIP3    H119611   5.158   1.731   3.200  1.8634 -1.4614  1.7529
 6549TIP3    H219612   5.300   1.776   3.174  1.7925 -2.3867 -0.4116
 6550TIP3   OH219613   4.436   0.045   1.186 -0.3185 -0.1381 -0.3492
 6550TIP3    H119614   4.400   0.030   1.099  1.5178  2.3804 -1.6957
 6550TIP3    H219615   4.437   0.140   1.195 -0.9296 -0.3218  2.7041
 6551TIP3   OH219616   0.159   0.575   2.825 -0.2215 -1.1577  0.1096
 6551TIP3    H119617   0.127   0.660   2.793 -0.1532 -1.5461 -1.0060
 6551TIP3    H219618   0.152   0.582   2.921 -2.4483 -0.7651 -0.0425
 6552TIP3   OH219619   0.757   5.671   0.242 -0.8843  0.3686  0.0025
 6552TIP3    H119620   0.741   5.743   0.181  0.9240 -0.0646 -1.0910
 6552TIP3    H219621   0.670   5.638   0.264 -1.6686  1.7162 -0.9208
 6553TIP3   OH219622   3.844   0.397   5.141  0.0279  0.2733  0.1318
 6553TIP3    H119623   3.831   0.326   5.205 -5.5822 -0.3330 -1.1971
 6553TIP3    H219624   3.891   0.355   5.069  0.5678 -0.8527  1.0861
 6554TIP3   OH219625   1.039   5.329   0.197 -0.2326 -0.0600  0.0138
 6554TIP3    H119626   1.105   5.397   0.186  0.2200 -0.4024  0.5434
 6554TIP3    H219627   1.086   5.248   0.177 -0.9736 -0.1626 -1.4285
 6555TIP3   OH219628   5.898   1.120   0.442  0.0428  0.4434  0.8365
 6555TIP3    H119629   5.884   1.159   0.356 -0.8529  1.0854  1.2534
 6555TIP3    H219630   5.863   1.031   0.434  3.0004 -0.7384 -0.4155
 6556TIP3   OH219631   5.823   2.147   5.414 -0.2392 -0.1929  0.0783
 6556TIP3    H119632   5.729   2.162   5.427 -0.3418  0.6637 -1.4413
 6556TIP3    H219633   5.831   2.124   5.322  0.9299 -1.4982  0.4665
 6557TIP3   OH219634   2.654   2.771   5.519  0.0578 -0.5785 -0.3692
 6557TIP3    H119635   2.623   2.694   5.473 -1.2449  0.1996 -0.8555
 6557TIP3    H219636   2.608   2.769   5.603  0.1735 -0.4385 -0.3015
 6558TIP3   OH219637   0.104   5.619   4.796 -0.0252 -0.0498 -0.1867
 6558TIP3    H119638   0.161   5.577   4.860 -0.7969  0.7380  1.0545
 6558TIP3    H219639   0.043   5.550   4.769 -0.2703 -0.1528  0.6217
 6559TIP3   OH219640   6.945   1.868   3.016 -0.2297 -0.0974  0.1989
 6559TIP3    H119641   6.988   1.929   2.955 -2.1042  0.2163 -0.8805
 6559TIP3    H219642   6.961   1.782   2.977 -1.4389  0.1021 -0.8007
 6560TIP3   OH219643   3.491   2.500   5.458  0.2022  0.6668  0.0253
 6560TIP3    H119644   3.480   2.442   5.383 -2.8221  1.1025  0.0116
 6560TIP3    H219645   3.486   2.588   5.420  2.0089  0.9562  0.3820
 6561TIP3   OH219646   1.733   0.298   4.807 -0.5827  0.1082 -0.6768
 6561TIP3    H119647   1.770   0.355   4.740 -0.1534  1.1877  0.4533
 6561TIP3    H219648   1.748   0.209   4.773  2.5803  0.4727 -0.5797
 6562TIP3   OH219649   5.485   2.312   5.260 -0.3089  0.2603 -0.5189
 6562TIP3    H119650   5.511   2.279   5.346  1.4499  0.8000 -0.8008
 6562TIP3    H219651   5.415   2.376   5.279 -0.1699  0.1347  0.4704
 6563TIP3   OH219652   1.689   3.532   0.300  0.1964 -0.5085  0.1396
 6563TIP3    H119653   1.708   3.600   0.236  0.8051 -0.0675  0.7789
 6563TIP3    H219654   1.686   3.451   0.249  1.9412 -0.3477 -0.2736
 6564TIP3   OH219655   5.440   5.159   4.234  0.2618 -0.0526 -0.1172
 6564TIP3    H119656   5.401   5.191   4.315 -0.9535 -0.4622 -0.5181
 6564TIP3    H219657   5.498   5.230   4.205  1.7909 -0.4434  1.8003
 6565TIP3   OH219658   4.033   0.044   4.223  0.3517 -0.6732  0.4569
 6565TIP3    H119659   3.982  -0.029   4.258 -0.8037 -0.0896  0.0471
 6565TIP3    H219660   3.980   0.122   4.242  0.1824 -0.2319 -1.5687
 6566TIP3   OH219661   4.400   0.572   0.183 -0.1671 -0.6200 -0.0124
 6566TIP3    H119662   4.376   0.503   0.245 -1.2190 -0.3893 -0.1549
 6566TIP3    H219663   4.330   0.636   0.190  0.9365  0.5995  0.3241
 6567TIP3   OH219664   4.133   3.151   5.283  0.3777 -0.3426 -0.8791
 6567TIP3    H119665   4.150   3.246   5.285 -0.3010 -0.2291 -0.1255
 6567TIP3    H219666   4.220   3.112   5.291  0.6055  0.2242 -0.4568
 6568TIP3   OH219667   3.018   6.591   1.323 -0.0601 -0.2531  0.6517
 6568TIP3    H119668   2.996   6.513   1.373  1.6203 -1.1512  0.0488
 6568TIP3    H219669   3.083   6.562   1.259 -0.8612  1.2175 -0.9253
 6569TIP3   OH219670   0.300   6.333   1.966 -0.3333  0.1618 -0.2960
 6569TIP3    H119671   0.387   6.300   1.989 -1.3386 -2.6801 -0.1233
 6569TIP3    H219672   0.313   6.425   1.946  2.4239  0.2026  1.2723
 6570TIP3   OH219673   6.866   0.426   3.926 -0.5188  1.0582 -0.7087
 6570TIP3    H119674   6.936   0.488   3.906  2.2096 -1.1403  1.2461
 6570TIP3    H219675   6.890   0.347   3.878 -1.3257  0.0643  0.4728
 6571TIP3   OH219676   4.506   2.998   2.482  0.2412  0.1910  0.4842
 6571TIP3    H119677   4.514   3.011   2.388 -0.1008  0.9946  0.5638
 6571TIP3    H219678   4.457   2.916   2.491  0.8844 -0.2633 -0.0271
 6572TIP3   OH219679   6.522   6.656   4.911  0.4393 -0.0390 -0.1985
 6572TIP3    H119680   6.557   6.627   4.827  0.1775 -1.1440  0.0580
 6572TIP3    H219681   6.596   6.651   4.971  0.2872 -0.6303 -0.0546
 6573TIP3   OH219682   0.317   2.412   4.346 -0.0745  0.4973 -0.0090
 6573TIP3    H119683   0.393   2.383   4.295 -0.4237 -1.0193  0.3146
 6573TIP3    H219684   0.269   2.332   4.367 -1.0888  1.3101  0.8836
 6574TIP3   OH219685   2.183   6.418   1.410 -0.3790 -0.0255 -0.0074
 6574TIP3    H119686   2.159   6.510   1.398  0.1216  0.1320  0.1613
 6574TIP3    H219687   2.260   6.421   1.468  0.1293 -0.5031 -0.6522
 6575TIP3   OH219688   3.614   4.022   2.923 -0.1072  0.0902 -0.3397
 6575TIP3    H119689   3.558   3.951   2.891 -0.5597  0.4639 -0.3799
 6575TIP3    H219690   3.702   3.997   2.895 -0.6291  1.0951 -3.1717
 6576TIP3   OH219691   3.787   5.833   5.217  0.1325  0.1223  0.1352
 6576TIP3    H119692   3.824   5.922   5.219  0.8566 -0.1858  0.7238
 6576TIP3    H219693   3.789   5.804   5.308 -1.2745 -0.0365  0.1388
 6577TIP3   OH219694   5.896   0.170   1.025 -0.1290  0.1515  0.1437
 6577TIP3    H119695   5.858   0.179   1.113 -0.3192 -0.7219  0.1680
 6577TIP3    H219696   5.987   0.195   1.036 -0.2198  0.3329  0.5289
 6578TIP3   OH219697   6.252   5.818   1.017 -0.2242 -0.1896 -0.4003
 6578TIP3    H119698   6.320   5.816   0.951 -0.1217 -0.3684 -0.2921
 6578TIP3    H219699   6.170   5.809   0.968 -0.1041 -1.1900 -0.4412
 6579TIP3   OH219700   0.235   0.101   1.870 -0.0051 -0.4780 -0.1082
 6579TIP3    H119701   0.324   0.138   1.866 -0.9832  2.0609 -1.0592
 6579TIP3    H219702   0.229   0.046   1.792  1.2863 -2.1909  0.9482
 6580TIP3   OH219703   6.684   6.548   5.608  0.6562  0.2858 -0.6025
 6580TIP3    H119704   6.739   6.623   5.632 -0.6087  0.4694  2.1686
 6580TIP3    H219705   6.723   6.474   5.655 -0.0300 -0.0856 -0.6067
 6581TIP3   OH219706   0.949   4.366   1.746 -0.1372  0.4171 -0.3257
 6581TIP3    H119707   0.978   4.287   1.701  1.8270  2.0875 -2.2174
 6581TIP3    H219708   0.869   4.340   1.792  0.1105 -2.4723 -1.3495
 6582TIP3   OH219709   0.721   2.296   3.131  0.5512  0.8271  0.3127
 6582TIP3    H119710   0.816   2.309   3.124  0.4339  1.4872 -0.2652
 6582TIP3    H219711   0.696   2.340   3.212  0.7470  0.6141  0.4876
 6583TIP3   OH219712   5.907   4.426   1.199  0.9266  0.2882 -0.4531
 6583TIP3    H119713   5.868   4.385   1.122  0.9352  0.2822 -0.4542
 6583TIP3    H219714   6.000   4.406   1.193  0.7233 -1.0340  0.3709
 6584TIP3   OH219715   4.786   2.695   5.179 -0.8201 -0.5996  0.0501
 6584TIP3    H119716   4.840   2.769   5.151  0.5839 -0.8565  1.8983
 6584TIP3    H219717   4.720   2.734   5.237 -1.0549 -0.5995 -0.2173
 6585TIP3   OH219718   2.258   1.039   4.223  0.3255 -0.4978  0.4287
 6585TIP3    H119719   2.212   0.959   4.196 -1.4133  0.4198  0.4992
 6585TIP3    H219720   2.189   1.093   4.262  0.8998  2.0381 -1.7816
 6586TIP3   OH219721   1.469   3.125   4.747 -0.4342 -0.6221 -0.1961
 6586TIP3    H119722   1.416   3.048   4.727 -0.7529 -0.2245 -0.9062
 6586TIP3    H219723   1.442   3.150   4.836 -0.0355 -1.5563  0.1985
 6587TIP3   OH219724   6.595   0.072   1.057  0.3189 -0.1073  0.2808
 6587TIP3    H119725   6.628   0.161   1.052 -1.7629  0.6386 -1.1244
 6587TIP3    H219726   6.673   0.018   1.071  1.8374  1.7393 -0.7420
 6588TIP3   OH219727   0.693   5.929   0.445  0.8570  0.6607 -0.4207
 6588TIP3    H119728   0.609   5.954   0.482  0.5542 -0.4542 -0.3303
 6588TIP3    H219729   0.721   5.854   0.497  2.8606  2.1884  0.8438
 6589TIP3   OH219730   3.059   4.188   2.286 -0.5070  0.0775  0.3247
 6589TIP3    H119731   3.151   4.163   2.276 -0.1752  1.3208  0.1538
 6589TIP3    H219732   3.011   4.112   2.254  0.4626 -0.4183 -0.0145
 6590TIP3   OH219733   1.674   2.582   1.738  0.2744  0.3564  0.4353
 6590TIP3    H119734   1.762   2.549   1.718 -0.3092 -0.9659 -0.1025
 6590TIP3    H219735   1.663   2.567   1.831 -0.1151 -1.4343  0.1451
 6591TIP3   OH219736   1.087   5.992   2.983  0.4856 -0.6598  0.0195
 6591TIP3    H119737   1.011   6.000   3.040  1.3350  1.1597  0.9941
 6591TIP3    H219738   1.070   6.054   2.912  1.7523  1.1205  1.1698
 6592TIP3   OH219739   6.112   4.468   4.014 -0.5248  0.6260 -0.4215
 6592TIP3    H119740   6.178   4.480   3.946  0.0893  1.2563  0.2585
 6592TIP3    H219741   6.161   4.431   4.088 -1.7001 -2.8865 -1.2130
 6593TIP3   OH219742   4.640   3.165   3.109  0.2573  0.2569 -0.3727
 6593TIP3    H119743   4.722   3.204   3.078  0.4377  0.5935  0.5104
 6593TIP3    H219744   4.662   3.074   3.126  0.6656  0.5262  0.6191
 6594TIP3   OH219745   3.217   6.736   2.691  0.6126 -0.0555  0.2232
 6594TIP3    H119746   3.264   6.653   2.694  0.2183 -0.2565  1.0201
 6594TIP3    H219747   3.249   6.785   2.766 -0.5214 -0.2478  0.8584
 6595TIP3   OH219748   0.463   2.181   0.792 -0.3157 -0.8709 -0.5353
 6595TIP3    H119749   0.523   2.255   0.801 -0.0649 -1.0364 -0.8339
 6595TIP3    H219750   0.382   2.211   0.834  0.1779 -0.8894  0.4765
 6596TIP3   OH219751   3.551   3.800   1.556 -0.1494 -0.8570 -0.2526
 6596TIP3    H119752   3.566   3.893   1.535 -0.6974 -0.5481  0.6775
 6596TIP3    H219753   3.462   3.783   1.525 -0.2951 -0.8911  0.1876
 6597TIP3   OH219754   3.307   5.128   4.511  0.2680  0.6171 -0.1760
 6597TIP3    H119755   3.247   5.107   4.438  0.0000 -2.2738  0.7592
 6597TIP3    H219756   3.250   5.162   4.579  0.2876  1.6936 -0.6743
 6598TIP3   OH219757   4.588   6.231   4.594 -0.1024  0.1573 -0.3964
 6598TIP3    H119758   4.565   6.302   4.534 -0.6884  1.5141  1.3538
 6598TIP3    H219759   4.525   6.239   4.665  0.4975 -1.4834  0.3596
 6599TIP3   OH219760   3.296   1.091   4.759 -0.1903 -0.5637  0.2656
 6599TIP3    H119761   3.297   1.000   4.728 -2.5528 -0.2011 -1.0654
 6599TIP3    H219762   3.236   1.136   4.700 -0.1080  1.5933  1.7205
 6600TIP3   OH219763   5.410   1.309   4.621 -0.2661  0.3542 -0.2273
 6600TIP3    H119764   5.454   1.319   4.536 -0.6093 -0.3355 -0.4876
 6600TIP3    H219765   5.354   1.386   4.627 -1.1531 -0.1818 -1.1842
 6601TIP3   OH219766   5.504   0.080   1.370 -0.1031 -0.6094  0.0495
 6601TIP3    H119767   5.499   0.123   1.456  0.0941  1.2344 -0.8088
 6601TIP3    H219768   5.446   0.004   1.378 -1.9443  0.8014  1.1390
 6602TIP3   OH219769   3.997   4.586   4.327 -0.4807 -0.1589 -0.2923
 6602TIP3    H119770   4.013   4.492   4.322 -0.1360 -0.1135 -0.0248
 6602TIP3    H219771   3.956   4.607   4.243 -1.4961 -0.7245  0.0410
 6603TIP3   OH219772   6.243   3.732   2.204  0.2201 -0.1208  0.0391
 6603TIP3    H119773   6.283   3.651   2.236 -0.8426 -0.5378  0.3446
 6603TIP3    H219774   6.215   3.710   2.115  2.1132  0.6775 -0.8060
 6604TIP3   OH219775   3.680   0.835   5.892 -0.5480  0.1275 -0.2328
 6604TIP3    H119776   3.731   0.863   5.816 -2.0093 -0.2071 -1.3963
 6604TIP3    H219777   3.671   0.913   5.945 -1.2464  0.9124 -1.4597
 6605TIP3   OH219778   6.378   6.416   0.845  0.4870 -0.0293  0.2275
 6605TIP3    H119779   6.355   6.324   0.854  1.8095 -0.3848  0.1002
 6605TIP3    H219780   6.473   6.417   0.835  0.4570  1.3210 -0.1859
 6606TIP3   OH219781   5.772   6.801   2.125 -0.0997 -0.8396  0.1490
 6606TIP3    H119782   5.714   6.779   2.053  1.6191 -1.6539 -1.0408
 6606TIP3    H219783   5.842   6.736   2.122  1.1778  0.3981  1.1904
 6607TIP3   OH219784   3.467   2.972   0.314  0.2480 -0.0776 -0.0668
 6607TIP3    H119785   3.374   2.987   0.333 -0.7308 -3.5948 -1.3806
 6607TIP3    H219786   3.497   3.055   0.277 -1.9604  1.6116  1.6296
 6608TIP3   OH219787   5.046   2.075   5.051  0.5220 -0.1888  0.0366
 6608TIP3    H119788   5.107   2.116   4.990 -0.4047  0.8776 -0.2105
 6608TIP3    H219789   4.967   2.059   4.999 -0.7246  1.8388  1.1561
 6609TIP3   OH219790   4.382   0.694   5.830 -0.0083 -0.3307  0.2937
 6609TIP3    H119791   4.448   0.754   5.796  0.9524 -1.1318  0.6544
 6609TIP3    H219792   4.312   0.750   5.862  0.9518  0.6179  0.8181
 6610TIP3   OH219793   6.323   3.992   4.157 -0.4906 -0.4777 -0.0185
 6610TIP3    H119794   6.233   3.973   4.131 -0.9094  1.4499 -0.1221
 6610TIP3    H219795   6.368   3.908   4.151 -2.3388 -1.5466  0.3209
 6611TIP3   OH219796   0.919   2.513   4.658  0.1274  0.6498  0.1743
 6611TIP3    H119797   0.970   2.554   4.588 -0.3448  0.1513 -0.4655
 6611TIP3    H219798   0.846   2.573   4.673  0.2259  0.7545  0.2411
 6612TIP3   OH219799   3.808   2.329   0.317 -0.1612  0.1399 -0.7637
 6612TIP3    H119800   3.767   2.389   0.379 -0.7972 -0.9097 -0.1567
 6612TIP3    H219801   3.871   2.384   0.269 -1.6732  1.6064 -1.1643
 6613TIP3   OH219802   1.871   1.758   3.634  0.5073  0.2803  0.0434
 6613TIP3    H119803   1.963   1.756   3.611  0.5369  2.6740 -0.3467
 6613TIP3    H219804   1.842   1.667   3.627  2.4894 -0.3194 -1.1692
 6614TIP3   OH219805   6.332   0.407   1.284 -0.1649  0.1736  0.1765
 6614TIP3    H119806   6.321   0.502   1.291 -0.9233  0.2569 -1.5156
 6614TIP3    H219807   6.426   0.393   1.284 -0.0042  1.0933 -1.0187
 6615TIP3   OH219808   0.485   0.535   0.603  0.6855 -0.2264 -0.1295
 6615TIP3    H119809   0.416   0.490   0.554  0.4496 -0.4149  0.3677
 6615TIP3    H219810   0.459   0.627   0.602 -1.5419 -0.6458  3.0486
 6616TIP3   OH219811   0.122   5.017   1.110 -0.0617 -0.5841 -0.0742
 6616TIP3    H119812   0.147   5.035   1.201  0.8688 -2.3305  0.0523
 6616TIP3    H219813   0.199   5.040   1.058  0.3750 -2.0558 -0.1206
 6617TIP3   OH219814   1.179   1.832   5.055 -0.0490 -0.3083  0.2806
 6617TIP3    H119815   1.139   1.763   5.108 -0.2740  0.1438  0.7083
 6617TIP3    H219816   1.195   1.790   4.970 -0.3166 -0.8427  0.4852
 6618TIP3   OH219817   4.900   4.778   1.455 -0.0174  0.5998  0.5339
 6618TIP3    H119818   4.988   4.814   1.446 -0.4632  1.2561 -1.6315
 6618TIP3    H219819   4.913   4.683   1.464  0.8870  0.4919 -1.4758
 6619TIP3   OH219820   1.344   4.602   0.307  0.0798 -0.2147 -0.4656
 6619TIP3    H119821   1.429   4.645   0.306  0.4476 -0.5183  3.4736
 6619TIP3    H219822   1.285   4.664   0.349 -1.5649 -0.3039 -2.4517
 6620TIP3   OH219823   6.957   3.198   2.916  0.7950 -0.2590 -0.5221
 6620TIP3    H119824   6.874   3.158   2.891  2.0098 -3.7237  0.3805
 6620TIP3    H219825   6.948   3.216   3.009  0.8118  0.0742 -0.5839
 6621TIP3   OH219826   2.644   0.744   2.343 -0.2848 -0.2359 -0.2478
 6621TIP3    H119827   2.693   0.823   2.319  1.9155 -1.5313 -0.3093
 6621TIP3    H219828   2.638   0.694   2.261 -0.8974 -0.5414 -0.0235
 6622TIP3   OH219829   1.702   6.207   3.066  0.0401  0.8025 -0.0933
 6622TIP3    H119830   1.728   6.253   3.146  0.1900 -0.2150  0.4519
 6622TIP3    H219831   1.611   6.232   3.053 -0.0229  0.8762  0.4579
 6623TIP3   OH219832   1.331   3.100   1.547  0.3582  0.4440 -0.5488
 6623TIP3    H119833   1.245   3.136   1.568  0.1525  0.8397 -2.0028
 6623TIP3    H219834   1.383   3.116   1.626 -0.2547  2.2752 -0.4646
 6624TIP3   OH219835   5.840   4.647   4.292  0.0413 -0.0330  0.2699
 6624TIP3    H119836   5.790   4.566   4.291 -0.7614  0.4535 -0.0252
 6624TIP3    H219837   5.774   4.716   4.288  0.7342  0.6289  0.0029
 6625TIP3   OH219838   7.052   0.230   2.759  0.1205  0.4342 -0.0439
 6625TIP3    H119839   7.001   0.255   2.836 -0.6462  0.6292 -0.6034
 6625TIP3    H219840   7.135   0.277   2.769  0.4797 -0.4252  1.2231
 6626TIP3   OH219841   4.820   6.594   1.030 -0.2363 -0.4634  0.4799
 6626TIP3    H119842   4.886   6.615   0.964 -0.2404  2.5471  1.2849
 6626TIP3    H219843   4.868   6.597   1.113 -1.4129  3.2248  1.2452
 6627TIP3   OH219844   0.033   0.553   4.927  0.4345  0.1889  0.5638
 6627TIP3    H119845   0.028   0.458   4.943  2.3486  0.1134  0.9918
 6627TIP3    H219846   0.055   0.590   5.012 -1.0859  1.1473  0.5736
 6628TIP3   OH219847   4.598   1.251   0.564 -0.0926  0.3673  0.1050
 6628TIP3    H119848   4.631   1.334   0.529  0.9408 -0.0471  0.0582
 6628TIP3    H219849   4.663   1.186   0.536 -0.3403 -0.2912  1.0252
 6629TIP3   OH219850   2.970   1.117   5.373 -0.0892  0.3789 -0.1776
 6629TIP3    H119851   2.918   1.189   5.407 -0.6629  0.1907 -0.6376
 6629TIP3    H219852   2.987   1.061   5.448  0.5880  1.1180  0.2409
 6630TIP3   OH219853   3.858   6.202   0.078 -0.0877 -0.5133  0.0139
 6630TIP3    H119854   3.810   6.155   0.146  0.9817 -0.1413  1.0606
 6630TIP3    H219855   3.903   6.273   0.124  0.1212  0.1758 -1.1894
 6631TIP3   OH219856   7.014   6.138   5.261 -0.0694  0.1296 -0.7527
 6631TIP3    H119857   7.100   6.180   5.252 -0.1821  0.4128 -0.5124
 6631TIP3    H219858   6.961   6.201   5.310 -0.2271 -0.3096 -0.3425
 6632TIP3   OH219859   6.424   0.612   5.764  0.3717 -0.6051  0.2014
 6632TIP3    H119860   6.343   0.642   5.804  0.7137 -0.1679  0.5761
 6632TIP3    H219861   6.489   0.678   5.788  0.8553 -0.9841 -0.0381
 6633TIP3   OH219862   3.289   0.913   4.457  0.2449  0.2847 -0.0747
 6633TIP3    H119863   3.258   1.004   4.456  0.2427  0.2850 -0.7274
 6633TIP3    H219864   3.309   0.894   4.365  0.5867 -0.2597  0.1085
 6634TIP3   OH219865   4.404   4.390   3.206 -0.5784  0.8147 -0.2874
 6634TIP3    H119866   4.492   4.353   3.201 -0.5395  1.0723 -2.4310
 6634TIP3    H219867   4.399   4.429   3.293  0.8670 -0.5235  0.4530
 6635TIP3   OH219868   6.146   2.579   2.041  0.2414  0.0633  0.2441
 6635TIP3    H119869   6.081   2.649   2.036  0.5371  0.5134  1.9431
 6635TIP3    H219870   6.216   2.606   1.982 -0.4939  0.2622 -0.5450
 6636TIP3   OH219871   1.877   4.926   1.506  0.1344 -0.1382 -0.3976
 6636TIP3    H119872   1.796   4.884   1.477 -0.0326 -2.1088  2.5444
 6636TIP3    H219873   1.857   5.019   1.506 -1.8465 -0.5222 -0.5296
 6637TIP3   OH219874   1.553   5.509   1.768 -0.2319  0.2524 -0.8707
 6637TIP3    H119875   1.546   5.415   1.784  0.8864 -0.0201 -1.8529
 6637TIP3    H219876   1.641   5.521   1.733  0.6814  2.0509  1.7368
 6638TIP3   OH219877   1.299   0.002   2.637 -0.0969  0.0512  0.1065
 6638TIP3    H119878   1.354   0.077   2.660 -0.6596  0.5368 -0.1113
 6638TIP3    H219879   1.278   0.015   2.544 -2.3098  1.0287  0.6660
 6639TIP3   OH219880   3.400   5.238   3.237  0.2047 -0.3183 -0.4415
 6639TIP3    H119881   3.395   5.157   3.288  0.1378 -1.2146 -1.8267
 6639TIP3    H219882   3.311   5.272   3.238  0.2194 -0.2866  0.0978
 6640TIP3   OH219883   0.698   0.893   3.505 -0.1599 -0.2253  0.0278
 6640TIP3    H119884   0.782   0.895   3.551 -0.2366  0.1627  0.1491
 6640TIP3    H219885   0.718   0.850   3.421  0.0610 -0.5616  0.2515
 6641TIP3   OH219886   5.582   2.065   1.219  0.1600 -0.0271  0.5887
 6641TIP3    H119887   5.540   2.075   1.305 -1.5236  0.8020 -0.2740
 6641TIP3    H219888   5.518   2.017   1.167  0.3948  0.9800 -0.6854
 6642TIP3   OH219889   5.346   1.830   1.907  0.3959 -0.1581  0.4747
 6642TIP3    H119890   5.268   1.780   1.932  0.9062 -0.4636  1.5024
 6642TIP3    H219891   5.317   1.921   1.906 -0.1143 -0.3219  0.2858
 6643TIP3   OH219892   2.810   2.329   0.798  0.7758 -0.0971 -0.2863
 6643TIP3    H119893   2.855   2.410   0.771  1.6798  0.0410  1.4801
 6643TIP3    H219894   2.755   2.356   0.872  0.2758 -0.9048 -0.3520
 6644TIP3   OH219895   1.139   1.436   3.062  0.3693 -0.8318  0.5607
 6644TIP3    H119896   1.141   1.470   3.152  0.1564  0.1168  0.2271
 6644TIP3    H219897   1.209   1.483   3.018 -0.9551  0.4034 -0.3201
 6645TIP3   OH219898   4.803   0.934   0.725 -0.1385 -0.3896 -0.1979
 6645TIP3    H119899   4.830   0.849   0.759 -1.2017 -0.9274 -0.6472
 6645TIP3    H219900   4.860   0.997   0.769  1.5569 -1.4279 -0.8160
 6646TIP3   OH219901   2.428   4.895   0.432  0.1248 -0.0524 -0.3127
 6646TIP3    H119902   2.487   4.878   0.358 -1.4503 -0.8177 -1.4332
 6646TIP3    H219903   2.426   4.812   0.480  0.9586  0.3735  0.4988
 6647TIP3   OH219904   6.881   3.267   3.177 -0.2079  0.6196 -1.0870
 6647TIP3    H119905   6.865   3.357   3.206  0.7380  0.2260  0.7569
 6647TIP3    H219906   6.817   3.214   3.224  0.2799  0.1518 -0.9367
 6648TIP3   OH219907   1.294   6.400   2.587  0.3753  0.0434  0.2442
 6648TIP3    H119908   1.204   6.367   2.578  1.2599 -2.1309 -1.3444
 6648TIP3    H219909   1.283   6.495   2.597 -2.0346  0.0670 -1.5583
 6649TIP3   OH219910   4.317   0.639   1.348 -0.3199 -0.6685  0.1505
 6649TIP3    H119911   4.322   0.721   1.397 -0.7718 -0.3768 -0.2782
 6649TIP3    H219912   4.224   0.631   1.325 -0.4414 -1.7403  0.9334
 6650TIP3   OH219913   1.295   5.109   2.987  0.6053 -0.1680 -0.0163
 6650TIP3    H119914   1.351   5.039   3.022 -0.5498 -0.8100  0.6045
 6650TIP3    H219915   1.258   5.072   2.907  2.0414  0.7370 -1.1461
 6651TIP3   OH219916   1.104   5.958   4.533 -0.3852 -0.4078 -0.7070
 6651TIP3    H119917   1.064   5.883   4.490  0.4212 -1.1469 -0.2088
 6651TIP3    H219918   1.170   5.989   4.470 -1.2721  0.4216 -1.2630
 6652TIP3   OH219919   5.974   0.337   2.054 -0.0543 -0.0820  0.2720
 6652TIP3    H119920   5.954   0.255   2.098 -0.3236 -0.4730 -0.5715
 6652TIP3    H219921   5.909   0.344   1.984 -0.8515  1.4629  1.0991
 6653TIP3   OH219922   1.898   0.153   2.167  0.2361  0.6406 -0.4526
 6653TIP3    H119923   1.894   0.129   2.075  1.3219  1.5656 -0.7669
 6653TIP3    H219924   1.807   0.152   2.197  0.0255 -1.8226 -0.9293
 6654TIP3   OH219925   6.448   3.880   5.195  0.1832  0.4533  0.0380
 6654TIP3    H119926   6.464   3.972   5.217  0.1184 -0.0420  2.3999
 6654TIP3    H219927   6.495   3.831   5.262 -2.1542 -1.2001  0.5771
 6655TIP3   OH219928   5.233   2.834   2.269 -0.6681  0.2538 -0.2323
 6655TIP3    H119929   5.155   2.796   2.227 -0.5445  0.2371 -0.4499
 6655TIP3    H219930   5.233   2.925   2.240 -0.6876  0.2913 -0.1137
 6656TIP3   OH219931   0.777   6.536   2.304  0.1446  0.0553 -0.2003
 6656TIP3    H119932   0.746   6.492   2.224  1.8727 -0.3083 -0.7046
 6656TIP3    H219933   0.725   6.498   2.374 -0.1089 -0.9929 -0.9329
 6657TIP3   OH219934   1.035   1.370   1.024 -0.5473  0.2883  0.8165
 6657TIP3    H119935   1.072   1.287   0.994  1.8202  0.8703  1.9215
 6657TIP3    H219936   1.039   1.427   0.947  1.0926  0.3733  0.9237
 6658TIP3   OH219937   3.107   3.932   0.105 -0.2380 -0.1648 -0.6069
 6658TIP3    H119938   3.186   3.962   0.060  0.1833 -0.6523 -0.1981
 6658TIP3    H219939   3.087   4.000   0.169  1.4577 -1.2877  1.2266
 6659TIP3   OH219940   4.313   1.455   2.867  0.3460 -0.6284  0.3754
 6659TIP3    H119941   4.309   1.361   2.850  0.4572 -0.7181  0.8140
 6659TIP3    H219942   4.387   1.486   2.814 -0.1481 -0.6576 -0.3339
 6660TIP3   OH219943   2.049   4.113   0.306 -0.9146 -0.0868  0.1247
 6660TIP3    H119944   2.000   4.039   0.341 -0.0922 -1.2532 -1.0613
 6660TIP3    H219945   2.136   4.104   0.345 -0.8112  0.2603 -0.0237
 6661TIP3   OH219946   0.045   3.736   1.324 -0.1134 -0.3179  0.4241
 6661TIP3    H119947   0.140   3.727   1.324  0.0002  0.3104 -2.0011
 6661TIP3    H219948   0.028   3.821   1.283 -1.7291  0.2479  2.0688
 6662TIP3   OH219949   6.516   4.776   2.385 -0.3785 -0.1528 -0.0686
 6662TIP3    H119950   6.462   4.852   2.405 -1.5476 -0.9280 -0.1756
 6662TIP3    H219951   6.521   4.727   2.467  0.7730  0.2587  0.1308
 6663TIP3   OH219952   3.397   4.448   2.798 -0.2613 -0.6977 -0.0307
 6663TIP3    H119953   3.478   4.411   2.834 -0.4958 -0.7406  0.4563
 6663TIP3    H219954   3.329   4.425   2.862 -0.6019 -0.3836 -0.2755
 6664TIP3   OH219955   6.982   5.887   5.177 -0.5182 -0.1808  0.4274
 6664TIP3    H119956   6.904   5.914   5.128 -0.7588  0.6473  1.2309
 6664TIP3    H219957   7.026   5.970   5.198  0.4791 -0.6263  0.1524
 6665TIP3   OH219958   3.161   3.207   4.821  0.0876 -0.5842  0.5753
 6665TIP3    H119959   3.071   3.236   4.834 -0.1776 -1.2472  0.2517
 6665TIP3    H219960   3.214   3.278   4.855 -0.5164  1.0580 -1.6783
 6666TIP3   OH219961   4.542   4.313   5.384 -0.7174 -0.3361  0.9388
 6666TIP3    H119962   4.448   4.309   5.370 -0.4467  1.1391 -1.9856
 6666TIP3    H219963   4.561   4.407   5.392  0.5509 -0.5934  1.1645
 6667TIP3   OH219964   5.948   1.072   4.761 -0.0645  0.4432  0.8178
 6667TIP3    H119965   5.944   1.167   4.763  0.4149  0.4576  1.4752
 6667TIP3    H219966   6.041   1.052   4.749 -0.3820  0.0665 -1.4443
 6668TIP3   OH219967   1.055   5.902   1.278  0.1735 -0.1720  0.0532
 6668TIP3    H119968   1.039   5.935   1.190  1.3712 -0.3519 -0.2531
 6668TIP3    H219969   1.110   5.968   1.320  1.3747 -1.0372 -0.0772
 6669TIP3   OH219970   4.116   2.549   5.499 -0.3000 -0.2499  0.1870
 6669TIP3    H119971   4.075   2.465   5.522 -1.2567  0.1545  0.0098
 6669TIP3    H219972   4.118   2.549   5.404  0.0636 -0.2408  0.1947
 6670TIP3   OH219973   2.447   3.409   4.148 -0.3132  0.3270 -0.9134
 6670TIP3    H119974   2.424   3.488   4.099 -1.9822  0.5131  0.0754
 6670TIP3    H219975   2.488   3.441   4.228 -0.3162  0.1731 -0.8503
 6671TIP3   OH219976   1.838   2.686   1.301  0.4781  0.1593  0.4663
 6671TIP3    H119977   1.751   2.663   1.334 -1.2153  1.1858 -2.8594
 6671TIP3    H219978   1.857   2.771   1.341 -0.9618  0.8361 -0.2262
 6672TIP3   OH219979   2.748   5.896   3.782  0.2232  0.2556  0.5702
 6672TIP3    H119980   2.772   5.954   3.709  0.0069  0.5227  0.7046
 6672TIP3    H219981   2.757   5.952   3.860  0.6898 -0.0983  0.7734
 6673TIP3   OH219982   4.444   6.225   4.849 -0.6882 -0.4769  0.8038
 6673TIP3    H119983   4.507   6.258   4.912  0.8311  0.9443 -1.3530
 6673TIP3    H219984   4.359   6.257   4.881  0.1187  0.8073  1.7257
 6674TIP3   OH219985   3.932   1.232   3.854 -0.1017  0.4965 -0.5719
 6674TIP3    H119986   3.990   1.262   3.924 -0.3585  1.5818 -0.7967
 6674TIP3    H219987   3.864   1.182   3.899  0.1562  0.5345 -0.1336
 6675TIP3   OH219988   2.964   0.626   1.327  0.3612 -0.0956  0.1045
 6675TIP3    H119989   3.040   0.683   1.315  1.1012 -1.1505 -0.3922
 6675TIP3    H219990   2.890   0.676   1.292  0.9906  0.5693 -0.2842
 6676TIP3   OH219991   3.722   5.814   4.024  0.3614  0.2184 -0.4353
 6676TIP3    H119992   3.781   5.796   4.097  0.6147  1.2532 -0.3795
 6676TIP3    H219993   3.779   5.828   3.949  0.1645  0.6813 -0.5003
 6677TIP3   OH219994   6.396   5.967   3.139 -0.2783  0.9214 -0.3154
 6677TIP3    H119995   6.443   5.952   3.220  0.5938  1.0984 -0.7821
 6677TIP3    H219996   6.304   5.969   3.165 -0.0431  0.4954  0.5907
 6678TIP3   OH219997   1.137   6.197   5.438 -0.3961 -0.4077 -0.2070
 6678TIP3    H119998   1.198   6.175   5.509 -2.8151  0.4390  2.3074
 6678TIP3    H219999   1.070   6.129   5.442 -0.5269 -0.3989 -1.7954
 6679TIP3   OH220000   5.438   3.093   0.721  0.1040 -0.2972  0.3493
 6679TIP3    H120001   5.386   3.155   0.669  1.6408 -0.1193 -1.0458
 6679TIP3    H220002   5.375   3.025   0.746 -1.3911  1.2570  1.0497
 6680TIP3   OH220003   4.949   3.163   1.564  0.0810  0.3419  1.1772
 6680TIP3    H120004   4.925   3.253   1.542 -0.6410  0.0702  0.8059
 6680TIP3    H220005   4.911   3.148   1.650 -0.8532  0.0189  0.7295
 6681TIP3   OH220006   6.053   3.204   4.688 -0.0120  0.2545  0.4144
 6681TIP3    H120007   6.100   3.170   4.612 -2.9861 -0.0368 -1.4696
 6681TIP3    H220008   6.117   3.203   4.759  2.5641 -0.6427 -1.7700
 6682TIP3   OH220009   6.618   4.978   3.701  0.0588  0.3824  0.8442
 6682TIP3    H120010   6.565   5.032   3.760  0.4920 -0.6471  2.2585
 6682TIP3    H220011   6.693   4.951   3.755 -0.2903 -1.8532  0.3307
 6683TIP3   OH220012   1.013   2.991   1.900  0.6910  0.3441 -0.3666
 6683TIP3    H120013   0.989   2.965   1.811  0.1664 -2.0640  0.3844
 6683TIP3    H220014   1.097   3.035   1.891  0.0665  1.2567 -2.1510
 6684TIP3   OH220015   1.164   4.878   3.286 -0.2151  0.4976  0.6575
 6684TIP3    H120016   1.174   4.815   3.215 -0.5557 -0.2629  1.2699
 6684TIP3    H220017   1.070   4.896   3.289 -0.3884 -0.4693  1.7330
 6685TIP3   OH220018   1.777   3.396   4.589  0.0490 -0.4625  0.4665
 6685TIP3    H120019   1.749   3.330   4.653  1.3562  0.5816  2.2263
 6685TIP3    H220020   1.834   3.349   4.529  1.1375 -0.9752  1.8268
 6686TIP3   OH220021   6.379   5.184   1.998 -1.0799  0.3007  0.9261
 6686TIP3    H120022   6.469   5.160   1.977 -1.2835  0.4680 -0.2271
 6686TIP3    H220023   6.366   5.155   2.088 -0.1957 -0.6385  0.7620
 6687TIP3   OH220024   6.646   0.319   1.100  0.4347  0.1906 -0.0788
 6687TIP3    H120025   6.639   0.333   1.194 -1.2637  0.2339 -0.1723
 6687TIP3    H220026   6.663   0.406   1.064 -2.3646  0.8374 -0.0437
 6688TIP3   OH220027   3.411   3.452   3.416  0.1777  0.8031  0.5504
 6688TIP3    H120028   3.421   3.359   3.436  0.9971  0.9041  0.6236
 6688TIP3    H220029   3.485   3.473   3.361 -0.5801  1.1767 -0.3546
 6689TIP3   OH220030   0.280   2.182   3.664 -0.3223  0.0347 -0.5886
 6689TIP3    H120031   0.282   2.226   3.749 -0.9647  0.8223 -0.9646
 6689TIP3    H220032   0.192   2.145   3.658 -0.0303 -0.6700 -0.5950
 6690TIP3   OH220033   2.034   1.332   5.690 -0.4091 -0.2653 -0.0689
 6690TIP3    H120034   1.963   1.280   5.653 -0.2888 -1.0847  0.8315
 6690TIP3    H220035   2.025   1.322   5.785 -0.4189  1.4149  0.1331
 6691TIP3   OH220036   6.083   1.890   2.265 -0.0289  0.0615  0.4351
 6691TIP3    H120037   6.096   1.796   2.256  0.3347  0.0865  0.6694
 6691TIP3    H220038   6.019   1.898   2.336  0.7221  0.0206  1.1256
 6692TIP3   OH220039   2.030   0.677   1.331  0.0248 -0.4558 -0.5718
 6692TIP3    H120040   2.092   0.648   1.264 -0.1138 -3.6415  0.5323
 6692TIP3    H220041   1.944   0.662   1.292 -0.1282  1.4277 -1.0785
 6693TIP3   OH220042   4.456   0.059   2.445  0.2222 -0.2831  0.2425
 6693TIP3    H120043   4.414   0.009   2.516  1.3126 -0.2426  0.9496
 6693TIP3    H220044   4.491  -0.008   2.387 -1.8652 -0.3384 -1.0628
 6694TIP3   OH220045   5.413   1.286   4.018  0.5274 -1.0729  0.2011
 6694TIP3    H120046   5.350   1.357   4.033  1.0003  0.1510 -2.8002
 6694TIP3    H220047   5.359   1.210   3.996  0.0477 -0.8181  0.4778
 6695TIP3   OH220048   2.300   1.339   3.515 -0.1023  0.4585 -0.5577
 6695TIP3    H120049   2.385   1.295   3.519 -1.4089 -2.2225 -0.5187
 6695TIP3    H220050   2.295   1.391   3.595  1.6079  0.9749 -0.7459
 6696TIP3   OH220051   6.460   0.502   2.066 -0.2960  0.0727 -0.2458
 6696TIP3    H120052   6.415   0.514   2.149  1.0825  2.6168  0.2301
 6696TIP3    H220053   6.438   0.580   2.015 -0.3438 -0.9862 -1.9582
 6697TIP3   OH220054   2.455   1.555   1.596 -0.7714  0.2967  0.0163
 6697TIP3    H120055   2.454   1.459   1.596 -1.1927  0.3007  0.1039
 6697TIP3    H220056   2.413   1.580   1.513  0.4912  0.3988 -0.6136
 6698TIP3   OH220057   2.899   4.305   2.567 -0.5822 -0.6796  0.0027
 6698TIP3    H120058   2.891   4.227   2.622  3.2415  0.2982  2.3232
 6698TIP3    H220059   2.989   4.302   2.534 -0.5140  2.3617 -0.3792
 6699TIP3   OH220060   0.414   3.527   2.922  0.4445  0.1669 -0.1932
 6699TIP3    H120061   0.331   3.479   2.917  0.5298 -0.6189  3.1382
 6699TIP3    H220062   0.467   3.491   2.851 -1.0019 -1.6101 -0.4634
 6700TIP3   OH220063   4.097   5.783   1.233 -0.0250 -0.0590 -0.4639
 6700TIP3    H120064   4.144   5.749   1.309 -0.5912 -0.4921 -0.2981
 6700TIP3    H220065   4.022   5.830   1.269 -0.5083 -0.5867 -0.7500
 6701TIP3   OH220066   4.181   6.181   5.577  0.2944 -0.1345 -0.3034
 6701TIP3    H120067   4.182   6.272   5.607 -0.0491 -0.2050 -0.0682
 6701TIP3    H220068   4.273   6.159   5.564  0.4891 -0.1861  0.9785
 6702TIP3   OH220069   2.535   6.498   0.309  0.0437 -0.1238 -0.0552
 6702TIP3    H120070   2.549   6.517   0.216 -5.2785  0.7356 -0.9749
 6702TIP3    H220071   2.509   6.582   0.347 -0.7424 -1.0433  1.5204
 6703TIP3   OH220072   0.975   5.991   4.767 -0.4470 -0.2096 -0.5162
 6703TIP3    H120073   1.042   6.049   4.803 -0.3678 -0.3488 -0.4433
 6703TIP3    H220074   0.995   5.988   4.673  1.1100 -2.1539 -0.1836
 6704TIP3   OH220075   5.646   0.342   3.006 -0.0331  0.0730 -0.3246
 6704TIP3    H120076   5.610   0.308   3.088  0.5426 -0.7065 -0.3761
 6704TIP3    H220077   5.569   0.362   2.953 -0.4738 -2.3101 -0.7327
 6705TIP3   OH220078   3.470   5.873   1.115 -0.5898  0.5283  0.1696
 6705TIP3    H120079   3.507   5.957   1.086  2.0009 -0.1128  1.3117
 6705TIP3    H220080   3.494   5.867   1.207 -1.7209 -0.9839  0.4038
 6706TIP3   OH220081   4.859   1.015   2.828 -0.0444  0.2222  0.1802
 6706TIP3    H120082   4.838   1.106   2.848  0.2446  0.6136 -1.1686
 6706TIP3    H220083   4.781   0.981   2.784 -0.5538 -0.5158  1.6057
 6707TIP3   OH220084   2.327   1.089   2.868  0.2782 -0.2089  0.5769
 6707TIP3    H120085   2.326   1.158   2.934  1.9190  0.4120  0.0255
 6707TIP3    H220086   2.340   1.136   2.785  0.0836 -1.0896  0.0348
 6708TIP3   OH220087   2.690   3.935   4.818  0.5481  0.8679 -0.0762
 6708TIP3    H120088   2.606   3.890   4.820  1.1419 -0.3174 -0.6436
 6708TIP3    H220089   2.716   3.942   4.910  0.4329  0.0551  0.0220
 6709TIP3   OH220090   1.982   5.624   4.144  0.0183  0.0194 -0.0001
 6709TIP3    H120091   2.013   5.641   4.233 -1.4222 -0.7391  0.6799
 6709TIP3    H220092   1.986   5.528   4.135 -0.5913  0.0256 -0.4534
 6710TIP3   OH220093   3.001   0.392   2.730  0.4774 -0.1803  0.3501
 6710TIP3    H120094   2.955   0.314   2.762  1.5757 -0.5293  1.1270
 6710TIP3    H220095   3.078   0.357   2.684  0.3302  0.4135 -0.3617
 6711TIP3   OH220096   3.406   5.188   5.698  0.4179  0.0582 -0.1383
 6711TIP3    H120097   3.473   5.121   5.714  1.3924  1.0193 -0.1174
 6711TIP3    H220098   3.405   5.240   5.778 -1.0999 -0.5529  0.2638
 6712TIP3   OH220099   2.994   4.171   0.215 -0.3092 -0.0350 -0.0748
 6712TIP3    H120100   3.041   4.179   0.298  1.2818 -1.4541 -0.7812
 6712TIP3    H220101   2.903   4.194   0.236  0.3999  1.4669  1.6334
 6713TIP3   OH220102   2.224   0.682   1.777 -0.3263 -0.0134 -0.3478
 6713TIP3    H120103   2.144   0.735   1.776 -0.3708 -0.0189  1.1070
 6713TIP3    H220104   2.260   0.692   1.689 -1.7893  0.1932 -0.9604
 6714TIP3   OH220105   4.939   3.247   3.847  0.4487  0.2802  0.1798
 6714TIP3    H120106   4.964   3.156   3.837 -2.2895 -0.2586 -3.9794
 6714TIP3    H220107   5.016   3.297   3.817  1.5741 -0.5789  1.4928
 6715TIP3   OH220108   1.133   0.519   2.050 -0.0452  1.2301 -0.5916
 6715TIP3    H120109   1.134   0.578   2.125  0.9992  1.5700 -0.8631
 6715TIP3    H220110   1.041   0.492   2.042 -0.0315  0.3890  1.4269
 6716TIP3   OH220111   1.734   5.461   0.042  0.3157 -0.2070  0.1742
 6716TIP3    H120112   1.809   5.409   0.072  1.3213  0.4758 -1.0928
 6716TIP3    H220113   1.676   5.397   0.001  0.1051 -0.7585  1.2682
 6717TIP3   OH220114   0.596   2.676   4.179  0.3107  0.5689  0.3412
 6717TIP3    H120115   0.634   2.742   4.238 -0.2462 -0.5441  2.0231
 6717TIP3    H220116   0.589   2.720   4.095  0.4694  2.4869  1.2810
 6718TIP3   OH220117   2.195   3.090   3.550  0.0218 -0.1391  0.5010
 6718TIP3    H120118   2.229   3.121   3.466  0.7101 -1.3898  0.2938
 6718TIP3    H220119   2.136   3.018   3.526 -0.3525 -0.0211  1.0561
 6719TIP3   OH220120   0.373   2.962   0.878  0.1489 -0.8737 -0.6867
 6719TIP3    H120121   0.418   2.981   0.796  1.6317 -0.9550  0.0632
 6719TIP3    H220122   0.289   3.006   0.871  1.0107  0.7275 -1.4847
 6720TIP3   OH220123   5.236   1.635   2.601  0.4839  0.4031  0.1722
 6720TIP3    H120124   5.223   1.596   2.688  0.5468  0.1593  0.0714
 6720TIP3    H220125   5.209   1.567   2.540 -0.8454  1.0348  0.0194
 6721TIP3   OH220126   3.172   0.570   5.272 -0.2012 -0.2891  0.3328
 6721TIP3    H120127   3.236   0.609   5.211  0.7967 -1.7267  0.4181
 6721TIP3    H220128   3.155   0.639   5.336 -0.0052  0.6829 -0.6329
 6722TIP3   OH220129   4.429   1.503   5.174  0.1782 -0.1704 -0.7797
 6722TIP3    H120130   4.349   1.455   5.195 -0.1900 -0.2257 -2.2088
 6722TIP3    H220131   4.436   1.569   5.242 -0.7909 -0.5240 -0.3289
 6723TIP3   OH220132   4.614   2.054   3.118 -0.1687 -0.5234  0.6150
 6723TIP3    H120133   4.538   2.112   3.121  0.7547  0.6845  1.5101
 6723TIP3    H220134   4.665   2.077   3.195  0.4688 -2.2343  0.7527
 6724TIP3   OH220135   6.797   3.549   5.207  0.6559  0.1169  0.5190
 6724TIP3    H120136   6.822   3.642   5.210 -0.7935  0.5315  0.5242
 6724TIP3    H220137   6.702   3.550   5.202  0.5466 -1.3973  1.5121
 6725TIP3   OH220138   6.634   1.081   3.971 -0.6929 -0.5074  0.0635
 6725TIP3    H120139   6.547   1.041   3.965 -0.8914 -0.0703 -0.0553
 6725TIP3    H220140   6.685   1.020   4.024 -0.6411 -1.4939 -1.0973
 6726TIP3   OH220141   1.249   1.030   4.315 -0.0178 -0.7447 -0.0740
 6726TIP3    H120142   1.214   1.021   4.226 -1.5999 -0.3357  0.4616
 6726TIP3    H220143   1.181   0.993   4.371  0.4208  0.0713  1.0385
 6727TIP3   OH220144   5.244   0.623   3.984 -0.1043  0.6557 -0.2385
 6727TIP3    H120145   5.237   0.662   3.897 -1.3540  4.1063  1.2337
 6727TIP3    H220146   5.315   0.671   4.027  2.1179 -2.5325  0.0985
 6728TIP3   OH220147   5.736   6.031   1.690 -0.1084 -0.4716  0.7577
 6728TIP3    H120148   5.732   5.992   1.777  0.5101  0.4741  1.2357
 6728TIP3    H220149   5.826   6.015   1.661 -0.2095 -0.4806  0.4440
 6729TIP3   OH220150   5.022   6.354   1.405 -0.5590  0.2393 -0.0071
 6729TIP3    H120151   5.111   6.320   1.413 -0.5909  0.1798  0.1082
 6729TIP3    H220152   4.970   6.279   1.376 -0.6755  0.1175  0.5016
 6730TIP3   OH220153   2.039   3.799   0.796 -0.2351  0.1780 -0.5884
 6730TIP3    H120154   2.070   3.826   0.710  0.5853 -0.7588 -0.6045
 6730TIP3    H220155   2.027   3.704   0.789  0.8961 -0.0956  0.6125
 6731TIP3   OH220156   4.187   4.089   4.803 -0.0587 -0.6316  0.0231
 6731TIP3    H120157   4.110   4.112   4.855 -0.5041  1.7110 -1.5020
 6731TIP3    H220158   4.260   4.130   4.849 -0.2319  0.0632 -0.2999
 6732TIP3   OH220159   5.655   4.010   2.388  0.8117 -0.2724 -0.2126
 6732TIP3    H120160   5.746   3.994   2.362  0.8638  0.5506 -0.5640
 6732TIP3    H220161   5.611   3.927   2.373  1.4937 -0.6636 -0.0905
 6733TIP3   OH220162   0.999   3.165   2.978 -0.9683  0.1487  0.1358
 6733TIP3    H120163   0.928   3.150   3.041 -1.7583  1.8591 -0.2885
 6733TIP3    H220164   1.053   3.233   3.019 -0.3394 -0.1645 -0.1617
 6734TIP3   OH220165   0.392   4.379   5.301 -0.0574 -0.3382  0.2866
 6734TIP3    H120166   0.366   4.389   5.210 -0.5775 -1.8207  0.2460
 6734TIP3    H220167   0.484   4.354   5.298  0.0226 -0.0362  0.1933
 6735TIP3   OH220168   0.165   1.031   1.637  0.2738  0.0013 -0.5332
 6735TIP3    H120169   0.116   0.992   1.565  1.2402 -0.4401 -0.9575
 6735TIP3    H220170   0.164   0.964   1.706  0.6725 -0.1893 -0.7127
 6736TIP3   OH220171   4.990   4.444   1.957  0.3014  0.2470 -0.3023
 6736TIP3    H120172   4.994   4.368   1.898 -0.5456  0.9671 -1.3263
 6736TIP3    H220173   5.035   4.513   1.909  2.6752 -0.0037  1.3575
 6737TIP3   OH220174   6.955   1.639   2.823  0.5397  0.3282  0.1456
 6737TIP3    H120175   6.917   1.622   2.737  0.8185 -1.6601  0.3706
 6737TIP3    H220176   7.041   1.597   2.819  0.3858 -0.1387  1.5247
 6738TIP3   OH220177   6.641   5.151   4.329  0.1338  0.7018 -0.4463
 6738TIP3    H120178   6.549   5.148   4.301  0.5045 -1.7580 -1.6976
 6738TIP3    H220179   6.640   5.208   4.406 -2.6933 -0.2060  0.3500
 6739TIP3   OH220180   6.219   6.096   2.596  0.6761  0.2722  0.3041
 6739TIP3    H120181   6.250   6.043   2.670 -0.3871 -2.6738 -1.2109
 6739TIP3    H220182   6.209   6.184   2.632  1.0011 -0.8614  3.4481
 6740TIP3   OH220183   3.618   2.255   2.062 -0.0625  0.9355  0.2020
 6740TIP3    H120184   3.639   2.246   2.155  0.0641 -0.1253  0.0851
 6740TIP3    H220185   3.694   2.300   2.025  0.4777  0.2279  0.4014
 6741TIP3   OH220186   4.274   0.417   2.127 -0.2591  0.2950 -0.1122
 6741TIP3    H120187   4.185   0.404   2.094 -0.1146 -0.1135 -0.3441
 6741TIP3    H220188   4.316   0.332   2.118  0.6705  0.8614 -1.5095
 6742TIP3   OH220189   5.585   4.907   5.496 -0.3367 -0.1368  0.8153
 6742TIP3    H120190   5.662   4.851   5.510 -0.7727 -0.4021  2.3100
 6742TIP3    H220191   5.622   4.990   5.465  0.3980 -0.8655 -0.3316
 6743TIP3   OH220192   1.655   0.172   5.345  0.4274 -0.6828  0.0839
 6743TIP3    H120193   1.749   0.189   5.347  0.3399 -0.1487 -0.1770
 6743TIP3    H220194   1.640   0.128   5.261  0.3897 -0.4115 -0.0535
 6744TIP3   OH220195   1.800   5.731   3.560 -0.1083  0.5993 -0.1678
 6744TIP3    H120196   1.885   5.721   3.516 -1.5309 -1.0766 -2.7806
 6744TIP3    H220197   1.738   5.749   3.489 -2.2226  0.0684  1.4395
 6745TIP3   OH220198   3.214   5.591   0.533 -0.6224 -0.1788  0.1678
 6745TIP3    H120199   3.266   5.511   0.543  0.6292  0.6956  1.0472
 6745TIP3    H220200   3.129   5.569   0.570 -0.9170 -1.6435 -1.2681
 6746TIP3   OH220201   4.564   1.815   2.295 -0.1208  0.0304  0.8767
 6746TIP3    H120202   4.536   1.843   2.208  0.0321 -0.6203  0.6160
 6746TIP3    H220203   4.655   1.787   2.284 -0.2464 -0.4997  1.1399
 6747TIP3   OH220204   2.083   2.956   4.426 -0.2198  0.6411 -0.3708
 6747TIP3    H120205   2.149   2.892   4.453  0.2451  1.2067 -0.1314
 6747TIP3    H220206   2.121   2.998   4.349  0.0390  1.4786  0.1969
 6748TIP3   OH220207   1.047   1.678   5.241  0.0464 -0.1076  0.0997
 6748TIP3    H120208   0.964   1.635   5.220 -0.7691  2.2271 -2.0105
 6748TIP3    H220209   1.032   1.715   5.328  0.1777 -2.4937  1.2176
 6749TIP3   OH220210   1.957   1.496   3.871  0.6083 -0.2535  0.4477
 6749TIP3    H120211   1.936   1.405   3.894  2.4456 -0.8132  0.0826
 6749TIP3    H220212   1.914   1.509   3.786  0.3919 -0.8104  0.4644
 6750TIP3   OH220213   4.823   0.703   5.279  0.7600  0.7709  0.5533
 6750TIP3    H120214   4.886   0.765   5.316  1.1783  0.7816 -0.1611
 6750TIP3    H220215   4.773   0.672   5.355 -0.0160  2.5750  0.8215
 6751TIP3   OH220216   2.483   0.227   2.173 -0.2253  0.7301  0.4751
 6751TIP3    H120217   2.511   0.136   2.184  0.3294  0.9931  1.2990
 6751TIP3    H220218   2.402   0.234   2.224  1.2174  1.3975  2.8017
 6752TIP3   OH220219   7.153   0.776   1.106 -0.0191 -0.3328  0.1491
 6752TIP3    H120220   7.203   0.853   1.133  0.7795 -1.2745  1.4926
 6752TIP3    H220221   7.208   0.702   1.131 -1.0700 -1.3581 -0.4720
 6753TIP3   OH220222   1.238   0.900   3.553  0.1947  0.2087 -0.4942
 6753TIP3    H120223   1.287   0.886   3.634  1.8382 -2.0024 -1.7516
 6753TIP3    H220224   1.253   0.992   3.531 -0.6856  0.9981  1.8714
 6754TIP3   OH220225   4.762   2.002   2.120  0.1003  0.0926 -0.3520
 6754TIP3    H120226   4.667   1.999   2.113  0.1808  0.2931 -1.8822
 6754TIP3    H220227   4.779   2.072   2.184 -0.7917 -2.3690  2.8666
 6755TIP3   OH220228   0.906   2.838   4.860 -0.4283  0.0969  0.0581
 6755TIP3    H120229   0.881   2.850   4.952 -0.1103  0.1263  0.1386
 6755TIP3    H220230   0.826   2.805   4.819  0.1057 -2.4492  0.8747
 6756TIP3   OH220231   0.966   1.014   2.926  0.2440 -0.1019 -0.1089
 6756TIP3    H120232   0.903   0.966   2.872  1.6820 -2.6773  0.3544
 6756TIP3    H220233   1.046   1.017   2.873  0.7673  0.0369  0.6708
 6757TIP3   OH220234   4.055   5.679   1.695  0.1860 -0.1295  0.2396
 6757TIP3    H120235   3.969   5.678   1.653  0.1938  0.5488  0.1877
 6757TIP3    H220236   4.036   5.692   1.787  0.2774  2.1330 -0.0085
 6758TIP3   OH220237   1.708   4.414   1.649  0.0916  0.4879  0.1256
 6758TIP3    H120238   1.749   4.491   1.689  1.3605 -0.0147 -0.1619
 6758TIP3    H220239   1.776   4.347   1.649 -1.0968 -0.7803  0.7052
 6759TIP3   OH220240   2.600   6.284   4.834 -0.0221  0.1871 -0.7008
 6759TIP3    H120241   2.648   6.214   4.879 -0.4030 -0.3657 -1.1330
 6759TIP3    H220242   2.587   6.351   4.901  0.4854 -0.0887 -0.3191
 6760TIP3   OH220243   0.630   1.983   0.701 -0.2861  0.5889 -0.5746
 6760TIP3    H120244   0.561   1.919   0.722 -1.1783  1.5900 -0.3387
 6760TIP3    H220245   0.589   2.068   0.717  1.0678  1.2145 -0.2815
 6761TIP3   OH220246   2.544   4.563   0.253 -0.4747 -0.1956  0.1201
 6761TIP3    H120247   2.553   4.589   0.345 -2.1308 -0.4519  0.3916
 6761TIP3    H220248   2.475   4.497   0.254 -0.5777 -0.1365 -1.3292
 6762TIP3   OH220249   0.350   6.815   4.261 -0.2535 -0.3945 -1.1219
 6762TIP3    H120250   0.437   6.816   4.222  0.6768  0.8508  0.8438
 6762TIP3    H220251   0.328   6.722   4.267  2.2916 -1.0029  1.0263
 6763TIP3   OH220252   0.613   5.528   3.559 -0.5130 -0.6107 -0.3401
 6763TIP3    H120253   0.556   5.499   3.488 -1.6187 -1.5587  0.8953
 6763TIP3    H220254   0.562   5.594   3.605 -0.5497 -1.3128  0.6510
 6764TIP3   OH220255   2.736   2.537   0.183 -0.2794  0.4664 -0.5391
 6764TIP3    H120256   2.682   2.470   0.225 -0.2636  1.1714  0.6368
 6764TIP3    H220257   2.754   2.601   0.252  1.0209  0.8880 -1.2297
 6765TIP3   OH220258   0.678   0.882   1.797 -0.3164 -0.5929 -0.2063
 6765TIP3    H120259   0.725   0.816   1.848 -0.8618 -2.3518 -1.8570
 6765TIP3    H220260   0.597   0.839   1.770 -1.2007  1.1412 -0.4383
 6766TIP3   OH220261   0.494   4.466   1.146  0.0641  0.3095  0.3593
 6766TIP3    H120262   0.580   4.503   1.124 -0.5635  1.5688 -0.0885
 6766TIP3    H220263   0.507   4.371   1.142  1.2520  0.4794 -0.4236
 6767TIP3   OH220264   5.549   3.393   3.314 -0.3995  0.2191  0.1290
 6767TIP3    H120265   5.458   3.378   3.289 -0.4256  1.8583 -0.9294
 6767TIP3    H220266   5.562   3.487   3.301  1.6559 -0.0989 -0.4398
 6768TIP3   OH220267   0.419   1.925   2.248 -0.1108 -0.3304 -0.7414
 6768TIP3    H120268   0.346   1.988   2.242  0.4285  0.2442 -1.4623
 6768TIP3    H220269   0.471   1.957   2.322 -0.5904 -0.7520 -0.2132
 6769TIP3   OH220270   4.375   2.522   0.797  0.2251 -0.2513  0.2152
 6769TIP3    H120271   4.453   2.512   0.851 -1.3861 -0.6888  2.6710
 6769TIP3    H220272   4.325   2.591   0.840 -0.9494 -0.2776 -1.0300
 6770TIP3   OH220273   4.521   5.141   3.340  0.5888 -0.3401 -1.0136
 6770TIP3    H120274   4.576   5.215   3.365 -1.5172  0.2518  2.5681
 6770TIP3    H220275   4.580   5.066   3.339  2.1601  0.8611 -1.4297
 6771TIP3   OH220276   1.323   0.810   0.363 -0.6153  0.3196  0.1281
 6771TIP3    H120277   1.417   0.821   0.372 -0.5482 -1.4426  2.2430
 6771TIP3    H220278   1.312   0.730   0.312 -0.9445  0.0628  0.5930
 6772TIP3   OH220279   0.782   0.248   0.928  0.0180  0.0676  0.5919
 6772TIP3    H120280   0.735   0.243   0.845 -0.3840  1.1911  0.7480
 6772TIP3    H220281   0.753   0.170   0.977 -1.9842  0.9094  0.8373
 6773TIP3   OH220282   0.784   0.482   5.168 -0.2591  0.2098  0.6764
 6773TIP3    H120283   0.722   0.410   5.170 -0.0281 -0.0138 -0.0131
 6773TIP3    H220284   0.780   0.520   5.256  0.5038 -1.3857  1.4293
 6774TIP3   OH220285   6.066   6.017   2.122 -0.7677  0.4322  0.0075
 6774TIP3    H120286   6.117   5.962   2.180 -0.5967 -0.7883 -1.2386
 6774TIP3    H220287   6.122   6.093   2.106 -0.7526  0.7031  1.2672
 6775TIP3   OH220288   4.537   4.663   0.514 -0.4923 -0.2451  0.0233
 6775TIP3    H120289   4.544   4.722   0.438 -0.9513 -0.4252 -0.1640
 6775TIP3    H220290   4.443   4.661   0.534 -0.6776 -1.9331 -0.8074
 6776TIP3   OH220291   4.809   2.412   5.110 -0.0301 -0.0691 -0.1252
 6776TIP3    H120292   4.830   2.504   5.125  0.6710 -0.2081 -0.1992
 6776TIP3    H220293   4.880   2.381   5.053 -0.6477 -0.4760 -0.6752
 6777TIP3   OH220294   3.200   4.699   4.913  0.5691  0.7424 -0.5745
 6777TIP3    H120295   3.283   4.710   4.959  0.5655 -0.2876 -0.2893
 6777TIP3    H220296   3.193   4.776   4.857  0.8965  1.6917  0.6489
 6778TIP3   OH220297   2.103   2.815   5.788  0.1376  0.0876 -0.1962
 6778TIP3    H120298   2.079   2.805   5.881  0.1546  1.2210 -0.0522
 6778TIP3    H220299   2.020   2.831   5.744  0.4036  2.9567  0.1510
 6779TIP3   OH220300   6.107   2.301   1.143  0.1870 -0.0342 -0.3189
 6779TIP3    H120301   6.023   2.297   1.188  0.1723 -0.6887 -0.3982
 6779TIP3    H220302   6.101   2.380   1.088 -0.8078 -0.6913 -1.1736
 6780TIP3   OH220303   2.995   1.509   0.548  0.6537 -0.0889  0.2433
 6780TIP3    H120304   2.980   1.585   0.491  0.6044 -0.1455  0.1794
 6780TIP3    H220305   2.921   1.451   0.529 -0.2596  0.6150  1.5676
 6781TIP3   OH220306   2.037   2.883   2.324  0.0631 -0.0191 -0.1098
 6781TIP3    H120307   1.957   2.931   2.301  0.7005  0.3990 -1.5777
 6781TIP3    H220308   2.022   2.795   2.290  1.0796  0.6472 -2.4829
 6782TIP3   OH220309   3.953   3.688   2.694  0.3984 -1.0262  0.4906
 6782TIP3    H120310   3.967   3.727   2.608 -1.1227 -0.0189  0.6454
 6782TIP3    H220311   3.931   3.597   2.676 -1.3530 -0.4880 -0.3443
 6783TIP3   OH220312   2.111   1.426   4.994 -0.4952 -0.5571  0.2153
 6783TIP3    H120313   2.089   1.472   5.075 -1.4618 -2.2961  0.9847
 6783TIP3    H220314   2.029   1.423   4.945 -0.6033 -1.9052  0.4401
 6784TIP3   OH220315   1.328   3.042   3.271  0.4611  0.0162 -0.1039
 6784TIP3    H120316   1.376   3.117   3.236 -0.6690  0.6694 -0.2830
 6784TIP3    H220317   1.300   2.993   3.194 -0.0746  0.2178 -0.0390
 6785TIP3   OH220318   0.382   6.568   3.950  0.6598  1.0358 -0.5267
 6785TIP3    H120319   0.290   6.569   3.924  0.5074 -1.4919 -0.3680
 6785TIP3    H220320   0.400   6.476   3.971  2.7087  1.7563  1.3000
 6786TIP3   OH220321   6.650   2.193   0.291  0.8040 -0.3026 -0.2745
 6786TIP3    H120322   6.665   2.104   0.258 -0.6553  0.0570 -1.9895
 6786TIP3    H220323   6.558   2.195   0.315  0.9625  0.5922  0.3198
 6787TIP3   OH220324   2.625   2.205   3.582  0.0392 -0.5254 -0.5216
 6787TIP3    H120325   2.548   2.230   3.531 -0.0622 -3.6370 -2.1741
 6787TIP3    H220326   2.693   2.189   3.517  1.6041  0.5175  0.7850
 6788TIP3   OH220327   3.695   3.831   5.738  0.2812 -0.0680 -0.4392
 6788TIP3    H120328   3.663   3.921   5.733 -0.5590 -0.3951 -3.6543
 6788TIP3    H220329   3.672   3.793   5.653  3.9272 -2.1904 -0.6975
 6789TIP3   OH220330   2.032   3.206   0.731  0.3231  0.5223 -0.8563
 6789TIP3    H120331   2.083   3.160   0.665  0.1748  0.5788 -1.0100
 6789TIP3    H220332   2.010   3.138   0.796  1.7157  0.7690 -0.1065
 6790TIP3   OH220333   2.930   3.577   3.588  0.8366  0.2378  0.2272
 6790TIP3    H120334   2.967   3.545   3.506  1.9933  1.9160  0.0522
 6790TIP3    H220335   2.958   3.513   3.653  4.1126  1.3402  0.0963
 6791TIP3   OH220336   0.528   6.762   5.445  0.2778 -0.1156  0.0390
 6791TIP3    H120337   0.507   6.804   5.528 -2.1594 -1.6706  0.2969
 6791TIP3    H220338   0.457   6.788   5.386  0.5835 -1.1152 -0.8043
 6792TIP3   OH220339   0.608   6.490   5.544 -0.0498 -0.1584  0.6145
 6792TIP3    H120340   0.624   6.584   5.531 -2.5491  0.4236  1.1752
 6792TIP3    H220341   0.642   6.449   5.464  0.0307  1.3642 -0.1700
 6793TIP3   OH220342   6.044   3.294   4.286  0.1720  0.4707 -0.1413
 6793TIP3    H120343   6.070   3.348   4.360  0.6848 -0.4430  0.3643
 6793TIP3    H220344   5.962   3.252   4.313  0.3356  0.1730 -0.0954
 6794TIP3   OH220345   0.353   5.177   0.911 -0.2389 -0.1521  0.1455
 6794TIP3    H120346   0.391   5.260   0.881 -2.7904  0.7282 -0.9305
 6794TIP3    H220347   0.351   5.122   0.833  0.8818 -1.0305  0.7205
 6795TIP3   OH220348   2.328   6.616   4.160  0.1605 -0.4070  0.2655
 6795TIP3    H120349   2.302   6.685   4.221 -1.2988 -1.7188  1.2132
 6795TIP3    H220350   2.382   6.557   4.213  0.3585 -0.6516 -0.2037
 6796TIP3   OH220351   5.362   0.300   4.839  0.5041  0.4952  0.3961
 6796TIP3    H120352   5.371   0.205   4.847 -0.0233  0.1282 -2.4239
 6796TIP3    H220353   5.268   0.316   4.837  0.5007  0.6363 -2.2199
 6797TIP3   OH220354   4.475   1.140   2.205  0.0638  0.0944 -0.0265
 6797TIP3    H120355   4.381   1.159   2.208 -0.7072 -2.9103 -1.1396
 6797TIP3    H220356   4.481   1.047   2.230  2.7845  0.2896  0.3160
 6798TIP3   OH220357   5.818   1.340   0.737 -0.3922  0.2057 -0.5726
 6798TIP3    H120358   5.856   1.389   0.664  2.3493  0.4739  0.9050
 6798TIP3    H220359   5.808   1.406   0.806  1.7284 -0.8705  0.8699
 6799TIP3   OH220360   2.492   1.881   0.724 -0.0425 -0.1855  0.1469
 6799TIP3    H120361   2.402   1.885   0.691  0.0397 -1.1232 -0.2519
 6799TIP3    H220362   2.546   1.906   0.649  0.0391  0.1473  0.3164
 6800TIP3   OH220363   5.374   4.098   5.811 -0.1306  0.3679 -0.4177
 6800TIP3    H120364   5.341   4.183   5.782 -0.8671  0.2496  0.0390
 6800TIP3    H220365   5.322   4.034   5.762  0.3477  0.1742 -0.6812
 6801TIP3   OH220366   3.093   2.087   5.755 -0.0855  0.3017  0.0467
 6801TIP3    H120367   3.129   1.999   5.744 -3.8431 -1.1903 -2.5542
 6801TIP3    H220368   3.086   2.121   5.666 -1.7521  1.8348  0.7075
 6802TIP3   OH220369   6.911   1.351   4.888  0.2693 -0.5819  0.4180
 6802TIP3    H120370   6.833   1.297   4.891 -1.7953  2.1495 -0.3649
 6802TIP3    H220371   6.937   1.361   4.980  0.1222 -2.0083  0.6372
 6803TIP3   OH220372   7.209   3.406   4.798 -0.0017  0.0181 -0.5812
 6803TIP3    H120373   7.255   3.475   4.845 -0.2216  0.3882 -0.9017
 6803TIP3    H220374   7.130   3.390   4.851  0.4439 -0.5614 -0.0748
 6804TIP3   OH220375   4.661   3.618   1.169  0.3833  0.1056  0.4876
 6804TIP3    H120376   4.579   3.655   1.203 -0.0918 -0.6059  0.1290
 6804TIP3    H220377   4.636   3.574   1.088  0.6415 -2.2901  1.6395
 6805TIP3   OH220378   3.176   0.180   4.668  0.2621 -0.1526  0.1227
 6805TIP3    H120379   3.264   0.143   4.677  0.4891  0.2099 -0.5334
 6805TIP3    H220380   3.120   0.104   4.649  0.2617 -0.5135  1.4718
 6806TIP3   OH220381   2.179   3.554   3.542  0.3927 -0.1609  0.3590
 6806TIP3    H120382   2.242   3.625   3.552  0.2143 -0.0811  0.9500
 6806TIP3    H220383   2.107   3.593   3.492  0.2609  0.1039  0.7446
 6807TIP3   OH220384   6.514   3.278   3.853 -0.5100  0.1769 -0.2322
 6807TIP3    H120385   6.492   3.194   3.894 -2.2202 -0.4901 -2.3697
 6807TIP3    H220386   6.602   3.299   3.887 -0.2562 -2.2015  0.7455
 6808TIP3   OH220387   1.978   0.795   4.886 -0.0097  0.2799 -0.3082
 6808TIP3    H120388   1.938   0.872   4.926  1.4485  1.0276 -0.2160
 6808TIP3    H220389   2.063   0.787   4.930 -0.0749 -1.3096 -0.4101
 6809TIP3   OH220390   5.972   4.650   5.509 -0.3057  0.0358 -0.3200
 6809TIP3    H120391   5.995   4.692   5.426  0.2115 -0.1082 -0.2492
 6809TIP3    H220392   6.055   4.624   5.547 -0.4093  1.4936  0.9913
 6810TIP3   OH220393   4.593   0.969   1.977  0.3580  0.2803  0.4111
 6810TIP3    H120394   4.525   1.015   2.026 -0.0148  2.4763 -1.9671
 6810TIP3    H220395   4.549   0.892   1.940  0.0765 -0.1382  1.5927
 6811TIP3   OH220396   6.506   3.275   4.323 -0.1978 -0.2495 -0.1772
 6811TIP3    H120397   6.575   3.329   4.362 -1.0228 -1.4515  3.3365
 6811TIP3    H220398   6.442   3.338   4.289 -0.3497  1.0990  2.3115
 6812TIP3   OH220399   2.617   5.004   0.696 -0.1631 -0.4162 -0.5582
 6812TIP3    H120400   2.523   5.020   0.686 -0.9744 -3.3593  1.0216
 6812TIP3    H220401   2.635   5.027   0.787  0.4362 -0.7035 -0.5982
 6813TIP3   OH220402   3.905   1.936   2.693  0.1614  0.4896 -0.4402
 6813TIP3    H120403   3.831   1.892   2.736  0.3846 -2.2684 -2.5391
 6813TIP3    H220404   3.903   2.025   2.726 -1.7284 -0.5005  2.5167
 6814TIP3   OH220405   0.493   4.635   2.573  0.2916  0.1974 -0.3590
 6814TIP3    H120406   0.427   4.647   2.505  0.0926 -3.1321 -0.9293
 6814TIP3    H220407   0.546   4.561   2.543  1.0782 -0.5025  2.4378
 6815TIP3   OH220408   7.049   1.694   1.214 -0.0162  0.1317 -0.1851
 6815TIP3    H120409   7.080   1.620   1.266  2.0332  0.6612 -0.5875
 6815TIP3    H220410   7.064   1.771   1.269  0.8672  0.5528 -0.9871
 6816TIP3   OH220411   2.634   5.626   0.586 -0.5333 -0.4244 -0.1503
 6816TIP3    H120412   2.694   5.609   0.659  0.2995 -0.3894 -0.8183
 6816TIP3    H220413   2.592   5.542   0.569  1.4383 -1.2098 -1.5396
 6817TIP3   OH220414   3.784   1.278   1.855  0.2209  0.9268  0.0745
 6817TIP3    H120415   3.860   1.237   1.816  0.8634  0.2886  1.8970
 6817TIP3    H220416   3.767   1.227   1.934 -2.4356  0.7114 -0.5317
 6818TIP3   OH220417   4.763   0.812   5.032 -0.0547  0.0422  0.4654
 6818TIP3    H120418   4.750   0.902   5.062  0.1570 -0.8356  3.5228
 6818TIP3    H220419   4.770   0.761   5.113 -0.9300 -2.8477 -1.1540
 6819TIP3   OH220420   4.282   1.001   5.446 -0.4365  0.4896 -0.2627
 6819TIP3    H120421   4.222   0.929   5.463 -0.5260  1.0567  2.1293
 6819TIP3    H220422   4.226   1.078   5.433 -0.2923  0.8093  0.8912
 6820TIP3   OH220423   0.002   5.861   0.252 -0.1012  0.9855  0.6425
 6820TIP3    H120424   0.058   5.939   0.263  0.2887  0.8443 -0.3125
 6820TIP3    H220425  -0.024   5.839   0.342  0.7260  1.5313  1.0345
 6821TIP3   OH220426   3.560   2.400   1.586 -0.4338  0.5517 -0.2549
 6821TIP3    H120427   3.565   2.496   1.593 -0.6954  0.5087  0.7426
 6821TIP3    H220428   3.479   2.383   1.538 -0.2106  0.8342 -0.7386
 6822TIP3   OH220429   5.313   0.219   5.668 -0.1192 -0.1355  0.0444
 6822TIP3    H120430   5.256   0.283   5.624  1.0317 -0.8394 -2.6731
 6822TIP3    H220431   5.398   0.230   5.625  0.9363 -1.3509  1.7338
 6823TIP3   OH220432   5.052   3.323   0.349 -0.5974  0.1265  0.2219
 6823TIP3    H120433   5.049   3.240   0.300 -1.3359 -0.8600  1.8493
 6823TIP3    H220434   4.963   3.335   0.382 -0.1498  0.7751  1.2427
 6824TIP3   OH220435   6.109   1.246   2.533  0.2044  0.2299  0.5567
 6824TIP3    H120436   6.193   1.262   2.577 -0.1004  0.4102  1.0864
 6824TIP3    H220437   6.044   1.286   2.591  0.0202  3.5822 -1.6830
 6825TIP3   OH220438   4.328   2.550   1.649  0.4426  0.5640  0.1511
 6825TIP3    H120439   4.403   2.541   1.707  0.1200 -0.2678  0.4582
 6825TIP3    H220440   4.275   2.618   1.690 -0.1294 -0.4877  1.2581
 6826TIP3   OH220441   1.530   5.692   4.718 -0.2925 -0.3859 -0.2999
 6826TIP3    H120442   1.518   5.714   4.811 -0.7246  0.4633 -0.5431
 6826TIP3    H220443   1.441   5.678   4.686 -0.3504  1.4488 -1.0721
 6827TIP3   OH220444   5.058   3.514   5.065  0.0889 -0.1318  0.2259
 6827TIP3    H120445   5.099   3.429   5.048  0.1521  0.2965 -2.0689
 6827TIP3    H220446   4.969   3.504   5.029  1.0107  1.6227 -2.9005
 6828TIP3   OH220447   7.088   2.072   1.058  0.1051 -0.0077 -0.6150
 6828TIP3    H120448   7.130   1.997   1.017 -0.0704  0.1418 -1.0713
 6828TIP3    H220449   7.098   2.143   0.995  1.2800  0.6694  0.2813
 6829TIP3   OH220450   4.277   3.375   3.278 -0.2074  0.1393  0.3591
 6829TIP3    H120451   4.290   3.334   3.363  1.2052 -0.4769 -0.1200
 6829TIP3    H220452   4.366   3.389   3.244 -0.7355 -0.3731 -1.3391
 6830TIP3   OH220453   3.135   3.382   2.051 -0.0677 -0.1998 -0.2464
 6830TIP3    H120454   3.042   3.360   2.048 -0.7508  2.4639 -1.2056
 6830TIP3    H220455   3.139   3.476   2.031  2.8633 -0.2993 -0.6472
 6831TIP3   OH220456  -0.006   5.864   4.250 -0.2727 -0.0760  0.3014
 6831TIP3    H120457  -0.000   5.941   4.306 -0.4475 -0.9476  1.5398
 6831TIP3    H220458   0.014   5.897   4.162 -0.4681  1.3941  0.7889
 6832TIP3   OH220459   4.066   1.385   5.533 -0.4518 -0.1801  0.4723
 6832TIP3    H120460   4.020   1.431   5.603 -0.0681  0.7118  0.1508
 6832TIP3    H220461   4.030   1.422   5.452 -0.1844 -0.5009  0.2016
 6833TIP3   OH220462   4.562   4.599   2.244  0.2894 -0.0933 -0.3215
 6833TIP3    H120463   4.502   4.524   2.251 -1.2738  0.9834 -1.4689
 6833TIP3    H220464   4.546   4.634   2.157  2.4512  0.4101 -0.5689
 6834TIP3   OH220465   4.565   0.498   5.194  0.6844 -0.0467  0.1690
 6834TIP3    H120466   4.638   0.494   5.256  0.3398  0.9112  0.6509
 6834TIP3    H220467   4.503   0.559   5.234 -0.1899 -0.5206 -0.4429
 6835TIP3   OH220468   3.757   2.442   3.606 -0.3136 -0.2533  0.3135
 6835TIP3    H120469   3.759   2.354   3.568  4.4908  0.2837 -1.2657
 6835TIP3    H220470   3.789   2.430   3.695  0.9266 -0.1006 -0.0956
 6836TIP3   OH220471   5.611   1.599   4.826 -0.4084  0.8354 -0.4456
 6836TIP3    H120472   5.546   1.587   4.895 -0.7160 -0.0912 -0.8863
 6836TIP3    H220473   5.561   1.598   4.744  0.1187  0.4579 -0.7706
 6837TIP3   OH220474   0.450   3.690   0.993  0.3324  0.3073  0.1993
 6837TIP3    H120475   0.534   3.645   1.004 -0.5594 -1.1116  1.6571
 6837TIP3    H220476   0.470   3.764   0.937  1.6298 -2.8046 -4.0112
 6838TIP3   OH220477   0.103   0.881   2.141 -0.4179 -0.2069 -0.1884
 6838TIP3    H120478   0.139   0.965   2.171  0.2226 -0.7526  0.6104
 6838TIP3    H220479   0.112   0.885   2.045 -0.5618  0.7037 -0.1752
 6839TIP3   OH220480   0.543   3.284   4.943  0.1251 -0.5974 -0.0333
 6839TIP3    H120481   0.454   3.254   4.928 -0.0290 -0.6700  0.9469
 6839TIP3    H220482   0.535   3.379   4.954  0.0546 -0.6914  0.7915
 6840TIP3   OH220483   4.413   6.319   1.364 -0.5061 -0.2477 -0.5721
 6840TIP3    H120484   4.363   6.274   1.296 -0.7633 -0.4266 -0.2678
 6840TIP3    H220485   4.355   6.389   1.395 -0.2231  0.1062 -0.8340
 6841TIP3   OH220486   5.087   4.364   2.617 -0.0963  0.0912 -0.4956
 6841TIP3    H120487   5.169   4.392   2.577  0.1886  0.0247  0.0359
 6841TIP3    H220488   5.112   4.289   2.671 -0.2597  0.9189  0.7619
 6842TIP3   OH220489   6.783   1.496   3.528  0.0175 -0.3653  0.6425
 6842TIP3    H120490   6.845   1.431   3.560  1.5638  1.1847  0.9957
 6842TIP3    H220491   6.736   1.526   3.606 -1.5670 -1.8618  0.3118
 6843TIP3   OH220492   0.305   0.777   4.970  0.4225 -0.2638  0.2096
 6843TIP3    H120493   0.312   0.858   5.021 -1.7267 -0.5209  0.9943
 6843TIP3    H220494   0.300   0.707   5.035 -1.0875 -0.7025 -0.3309
 6844TIP3   OH220495   0.501   4.296   4.966  0.2504 -0.1122  0.1182
 6844TIP3    H120496   0.568   4.340   4.914  0.4133  0.3774  0.7258
 6844TIP3    H220497   0.418   4.317   4.923  0.3545  0.5521  0.2334
 6845TIP3   OH220498   5.635   6.646   5.008  0.0425  0.6344 -0.0559
 6845TIP3    H120499   5.652   6.576   4.944 -0.6931 -1.2703  1.7291
 6845TIP3    H220500   5.569   6.609   5.067  0.4582  2.4348  1.6399
 6846TIP3   OH220501   1.109   0.025   0.176  0.2003 -0.1995 -0.3538
 6846TIP3    H120502   1.025  -0.008   0.144 -0.3616 -0.0558  0.9026
 6846TIP3    H220503   1.152   0.061   0.099 -0.7960 -0.4932 -1.0583
 6847TIP3   OH220504   0.161   2.015   0.206  0.3539  0.1160  0.3454
 6847TIP3    H120505   0.238   1.991   0.258  1.6252  2.1923 -0.4635
 6847TIP3    H220506   0.093   2.033   0.271  1.6095  1.6674  1.3038
 6848TIP3   OH220507   2.979   3.076   3.217  0.3952 -0.3941  0.0828
 6848TIP3    H120508   2.982   3.042   3.306 -1.1766  0.4800  0.5119
 6848TIP3    H220509   2.908   3.027   3.175  0.3089  0.0469 -0.3002
 6849TIP3   OH220510   0.517   4.480   3.091  0.3927  0.5385  0.1950
 6849TIP3    H120511   0.558   4.399   3.061 -1.3537  0.1870 -1.3738
 6849TIP3    H220512   0.573   4.550   3.056  1.1002  0.0606  0.3384
 6850TIP3   OH220513   1.174   2.917   3.021 -0.3333  0.5857 -0.1797
 6850TIP3    H120514   1.203   2.900   2.931 -2.1881 -0.3754 -0.6448
 6850TIP3    H220515   1.131   3.002   3.016 -0.1609  0.6791 -0.1104
 6851TIP3   OH220516   6.516   6.500   2.837  0.4935 -0.0794 -0.1662
 6851TIP3    H120517   6.572   6.567   2.876  0.6920  0.7056 -1.7015
 6851TIP3    H220518   6.456   6.475   2.907  0.5326  1.5973  0.5165
 6852TIP3   OH220519   5.866   5.997   2.924  0.6781 -0.0557 -0.6707
 6852TIP3    H120520   5.829   5.929   2.868  0.5212 -2.3740  1.9835
 6852TIP3    H220521   5.793   6.028   2.977  0.8432  1.9733 -1.5266
 6853TIP3   OH220522   6.310   4.902   2.158  0.0389  1.3292  0.2897
 6853TIP3    H120523   6.387   4.941   2.200  0.4829  1.0327 -0.2391
 6853TIP3    H220524   6.268   4.851   2.227  1.9083 -0.8571 -0.1108
 6854TIP3   OH220525   1.978   4.590   3.878  0.4577  0.3576 -0.8728
 6854TIP3    H120526   2.009   4.614   3.966  2.6752  0.4514 -1.6421
 6854TIP3    H220527   1.981   4.672   3.829  0.8623 -0.0341 -1.5039
 6855TIP3   OH220528   7.172   1.573   0.495  0.3942  0.1735 -0.1556
 6855TIP3    H120529   7.152   1.499   0.438 -0.9570  0.4792 -0.1281
 6855TIP3    H220530   7.265   1.589   0.483  0.7253 -1.5559 -0.1092
 6856TIP3   OH220531   1.448   2.417   1.697 -0.6252  0.1420  0.1421
 6856TIP3    H120532   1.531   2.456   1.724 -0.5435 -0.5332  0.9064
 6856TIP3    H220533   1.401   2.489   1.654  0.2065  0.6209  0.0064
 6857TIP3   OH220534   2.721   3.030   3.895  0.2296 -0.4429 -0.4922
 6857TIP3    H120535   2.736   2.994   3.808  1.2206  0.8318 -0.8799
 6857TIP3    H220536   2.790   3.097   3.906  0.0343 -0.4723  1.2008
 6858TIP3   OH220537   3.631   0.100   1.753  0.0134 -0.0342 -0.1957
 6858TIP3    H120538   3.681   0.147   1.686  0.1426 -0.0818 -0.1327
 6858TIP3    H220539   3.615   0.014   1.715 -1.1037  0.3899 -0.7332
 6859TIP3   OH220540   6.281   6.460   3.520 -0.3564 -0.1010 -0.0849
 6859TIP3    H120541   6.353   6.506   3.563  0.8729 -1.1890 -0.8914
 6859TIP3    H220542   6.222   6.529   3.492 -1.0878  0.6804  3.0400
 6860TIP3   OH220543   5.333   0.867   2.901  0.2102 -0.3449 -0.2736
 6860TIP3    H120544   5.298   0.930   2.838  0.8324  0.8500  0.5626
 6860TIP3    H220545   5.383   0.919   2.963  1.3460 -1.7362  0.0337
 6861TIP3   OH220546   3.157   5.273   0.951 -0.2683 -0.1869 -0.2547
 6861TIP3    H120547   3.126   5.307   1.035  2.4978 -0.4899  0.9958
 6861TIP3    H220548   3.216   5.341   0.919 -0.6359 -0.4685 -1.5600
 6862TIP3   OH220549   0.858   3.267   2.597 -0.2399  0.0871 -0.0178
 6862TIP3    H120550   0.941   3.313   2.597 -0.1328 -0.0539 -1.3057
 6862TIP3    H220551   0.865   3.203   2.668 -0.4338  2.0708  1.8561
 6863TIP3   OH220552   4.216   5.762   1.479  0.2664  0.0761  0.0781
 6863TIP3    H120553   4.275   5.834   1.502  0.7200 -0.3265  0.1915
 6863TIP3    H220554   4.154   5.758   1.552  0.5511  0.0298  0.3217
 6864TIP3   OH220555   6.607   4.941   0.160  0.0716  0.0812  0.0981
 6864TIP3    H120556   6.668   4.891   0.215 -0.5725 -2.2554 -1.2084
 6864TIP3    H220557   6.542   4.975   0.222  0.9971  0.0777  1.1174
 6865TIP3   OH220558   5.807   3.558   0.567  0.4598 -0.7855 -0.1658
 6865TIP3    H120559   5.883   3.586   0.618 -0.8908  0.2553  1.3888
 6865TIP3    H220560   5.732   3.570   0.627 -1.1241 -0.2027 -2.1525
 6866TIP3   OH220561   6.406   4.794   3.735 -1.0113  0.5823  0.0804
 6866TIP3    H120562   6.365   4.840   3.809  0.3842 -2.0056  2.6866
 6866TIP3    H220563   6.491   4.837   3.724 -0.5236 -0.0289  1.2017
 6867TIP3   OH220564   3.559   3.726   4.227  0.4193  0.0887  0.2157
 6867TIP3    H120565   3.485   3.755   4.280 -0.2100 -1.4538  0.2353
 6867TIP3    H220566   3.532   3.642   4.191  1.8138 -0.0830 -0.5281
 6868TIP3   OH220567   4.575   5.495   0.434 -0.2755  0.1366  0.1374
 6868TIP3    H120568   4.489   5.461   0.410 -0.1377 -0.2656  0.1907
 6868TIP3    H220569   4.634   5.421   0.421 -0.1483 -0.0179  1.4219
 6869TIP3   OH220570   6.226   5.764   1.892  0.3191  0.4788  0.1260
 6869TIP3    H120571   6.248   5.851   1.858 -0.7535  0.6391 -0.2038
 6869TIP3    H220572   6.231   5.706   1.816 -0.9189  0.6251 -0.0875
 6870TIP3   OH220573   6.151   4.352   4.450 -0.0945  0.2846 -0.0559
 6870TIP3    H120574   6.231   4.316   4.486  1.0540  0.7305 -2.0233
 6870TIP3    H220575   6.107   4.394   4.524  0.0997 -2.2824  1.6227
 6871TIP3   OH220576   2.761   1.646   2.038 -0.2755  0.3725  0.2486
 6871TIP3    H120577   2.727   1.561   2.064  3.8811 -2.2860 -1.9757
 6871TIP3    H220578   2.735   1.657   1.947  0.8332  0.4823 -0.0723
 6872TIP3   OH220579   2.273   0.225   4.837 -0.3450  0.4239 -0.1628
 6872TIP3    H120580   2.277   0.275   4.918  0.8740 -1.1909  0.8584
 6872TIP3    H220581   2.345   0.259   4.784 -1.5095  1.8887 -0.8715
 6873TIP3   OH220582   3.787   4.312   1.583  0.6615 -0.4194 -0.3825
 6873TIP3    H120583   3.846   4.248   1.543  0.5582  0.7585 -2.6255
 6873TIP3    H220584   3.839   4.392   1.587 -0.2438  0.2034 -0.8203
 6874TIP3   OH220585   3.361   1.879   3.987 -0.0575  0.1129  0.0519
 6874TIP3    H120586   3.428   1.812   3.996 -0.0432 -0.0938 -1.3547
 6874TIP3    H220587   3.383   1.944   4.053 -0.3492 -1.4702  1.7793
 6875TIP3   OH220588   1.455   5.125   1.349 -0.0297 -0.1330  0.5208
 6875TIP3    H120589   1.380   5.081   1.310 -0.6345  0.1704  1.3070
 6875TIP3    H220590   1.419   5.170   1.425  1.0669 -0.5264  1.3016
 6876TIP3   OH220591   1.254   5.194   0.906  0.1456  0.0038  0.0777
 6876TIP3    H120592   1.160   5.213   0.903  0.6130  2.5479 -1.5392
 6876TIP3    H220593   1.259   5.104   0.937 -2.6142  1.0514  4.5875
 6877TIP3   OH220594   3.631   3.632   2.298 -0.0110 -0.5204 -0.2285
 6877TIP3    H120595   3.588   3.716   2.281  1.6631  0.3739 -0.2967
 6877TIP3    H220596   3.695   3.624   2.227  0.3527 -1.5110  0.2000
 6878TIP3   OH220597   0.370   2.362   0.408  0.0584  0.1173 -0.2490
 6878TIP3    H120598   0.393   2.397   0.494  1.3599 -0.3365 -0.3849
 6878TIP3    H220599   0.357   2.439   0.353  0.5084  0.3984  0.0361
 6879TIP3   OH220600   0.168   2.231   1.549  0.0884  0.1748 -0.3879
 6879TIP3    H120601   0.142   2.310   1.502 -0.3674 -0.4819 -1.2492
 6879TIP3    H220602   0.086   2.193   1.580  0.2995 -0.0188 -0.0507
 6880TIP3   OH220603   2.881   4.452   5.008 -0.2799 -0.0529  0.8158
 6880TIP3    H120604   2.932   4.518   5.056 -0.5215  0.4246  0.4135
 6880TIP3    H220605   2.926   4.444   4.924 -1.6672  1.4142 -0.1124
 6881TIP3   OH220606   1.522   0.588   2.404  0.3231  0.1980  0.2757
 6881TIP3    H120607   1.449   0.548   2.452  0.9483 -1.4140 -0.0283
 6881TIP3    H220608   1.557   0.516   2.351  1.6388  1.1303 -0.1669
 6882TIP3   OH220609   2.696   5.315   1.668 -0.0479  0.1137  1.0260
 6882TIP3    H120610   2.692   5.231   1.713 -0.3433 -0.2840  0.2772
 6882TIP3    H220611   2.790   5.332   1.658  0.0178  0.0914  1.5655
 6883TIP3   OH220612   2.729   4.514   1.631  0.1351  0.2054  0.2390
 6883TIP3    H120613   2.807   4.565   1.609  0.1233 -0.6373 -2.0968
 6883TIP3    H220614   2.657   4.575   1.618  0.3275  0.9316  2.2200
 6884TIP3   OH220615   5.656   3.047   4.619  0.4101 -0.1867  0.0765
 6884TIP3    H120616   5.601   3.022   4.693  0.1123 -0.1346 -0.1233
 6884TIP3    H220617   5.644   3.141   4.610  2.1422  0.1946  1.3180
 6885TIP3   OH220618   0.602   5.366   2.898 -0.0228 -0.0807 -0.1477
 6885TIP3    H120619   0.685   5.408   2.876  1.1273 -1.6099  0.9935
 6885TIP3    H220620   0.616   5.273   2.877 -1.9836 -0.1507 -1.3409
 6886TIP3   OH220621   2.884   0.474   0.103  0.3538  0.1032  0.0624
 6886TIP3    H120622   2.865   0.482   0.197  1.3286  1.0249  0.2061
 6886TIP3    H220623   2.891   0.565   0.073 -0.7305 -0.1717 -1.0874
 6887TIP3   OH220624   5.410   2.324   3.631  0.0515 -0.1992 -0.4946
 6887TIP3    H120625   5.482   2.278   3.587  0.9493 -1.4086  2.0225
 6887TIP3    H220626   5.453   2.394   3.680 -0.7217  0.2627 -0.4716
 6888TIP3   OH220627   7.095   2.466   2.725  0.4976  0.1205 -0.0825
 6888TIP3    H120628   7.122   2.414   2.801 -0.9833 -1.6535 -0.7174
 6888TIP3    H220629   7.171   2.522   2.707  1.3928 -0.3695  1.8543
 6889TIP3   OH220630   3.469   0.841   1.537  0.2025  0.0661  0.1634
 6889TIP3    H120631   3.517   0.777   1.591  0.6373  0.2434 -0.0112
 6889TIP3    H220632   3.385   0.851   1.582  0.8548  0.8085  1.2559
 6890TIP3   OH220633   7.118   3.852   1.697  0.1015  0.2203  0.0848
 6890TIP3    H120634   7.179   3.895   1.636  0.5443  0.0918  0.4266
 6890TIP3    H220635   7.034   3.894   1.681  0.3329  0.5723 -0.2285
 6891TIP3   OH220636   4.237   3.305   5.625 -0.2115 -0.0901 -0.8119
 6891TIP3    H120637   4.272   3.249   5.694  0.5926  0.3221 -0.8651
 6891TIP3    H220638   4.142   3.302   5.636 -0.0652  1.2169  1.3332
 6892TIP3   OH220639   0.158   2.294   4.020 -0.1685 -0.0822  0.1409
 6892TIP3    H120640   0.210   2.373   4.007  0.5704 -0.8817 -2.3371
 6892TIP3    H220641   0.070   2.318   3.992  0.3243 -0.4028 -1.8335
 6893TIP3   OH220642   4.273   2.901   5.088  0.3341  0.0993  0.2003
 6893TIP3    H120643   4.232   2.842   5.025  1.2534  0.6945 -0.9783
 6893TIP3    H220644   4.362   2.869   5.097  0.8962  1.3876 -0.5822
 6894TIP3   OH220645   7.025   6.149   2.944  0.2037  0.0356 -0.0236
 6894TIP3    H120646   7.064   6.219   2.890 -0.5626 -0.6687 -1.5407
 6894TIP3    H220647   6.943   6.128   2.900 -0.2630 -0.8495  1.2263
 6895TIP3   OH220648   3.240   3.463   0.884 -0.3028  0.2229 -0.3441
 6895TIP3    H120649   3.196   3.442   0.802 -0.0537 -0.3570 -0.3401
 6895TIP3    H220650   3.330   3.480   0.859  0.4249 -2.5225  0.0460
 6896TIP3   OH220651   4.720   3.242   1.279  0.1036  0.1077  0.1118
 6896TIP3    H120652   4.723   3.316   1.340 -0.0631 -0.4087  0.7658
 6896TIP3    H220653   4.796   3.190   1.302  0.8306  0.6147 -1.0708
 6897TIP3   OH220654   3.509   2.440   0.038 -0.3058  0.3572  0.4521
 6897TIP3    H120655   3.541   2.500   0.105  0.6663  2.2895 -1.6009
 6897TIP3    H220656   3.577   2.373   0.032  0.2838  0.9376  0.4692
 6898TIP3   OH220657   0.178   3.679   0.871 -0.1810  0.5991 -0.0866
 6898TIP3    H120658   0.201   3.708   0.783  1.1852  0.9327  0.3539
 6898TIP3    H220659   0.263   3.667   0.915 -0.8181 -0.3420  0.9292
 6899TIP3   OH220660   5.612   2.637   5.233  0.4414 -0.3114 -0.4511
 6899TIP3    H120661   5.524   2.654   5.199  0.5215 -0.3037 -0.6585
 6899TIP3    H220662   5.600   2.626   5.328  0.1058 -1.0920 -0.5765
 6900TIP3   OH220663   2.748   2.960   5.768 -0.4496  0.0408 -0.2397
 6900TIP3    H120664   2.745   3.052   5.793 -1.8583  0.0830 -0.4576
 6900TIP3    H220665   2.791   2.960   5.682  0.6640  0.3397  0.2992
 6901TIP3   OH220666   1.897   4.617   4.555 -0.0401 -0.2692 -0.5743
 6901TIP3    H120667   1.851   4.593   4.475  0.4855 -1.0917 -0.6408
 6901TIP3    H220668   1.966   4.677   4.526 -1.2626  1.2532 -0.4276
 6902TIP3   OH220669   0.471   1.717   3.507 -0.1129  0.2981 -0.0153
 6902TIP3    H120670   0.563   1.740   3.515 -0.2418  1.9831 -2.4780
 6902TIP3    H220671   0.424   1.799   3.518 -1.3391 -0.4879  0.9154
 6903TIP3   OH220672   0.014   2.772   0.298  0.1662  0.1545  0.3931
 6903TIP3    H120673   0.041   2.799   0.210 -0.5255  0.2880  0.2160
 6903TIP3    H220674  -0.026   2.850   0.335 -0.7073 -0.2632  0.3474
 6904TIP3   OH220675   1.418   3.415   2.813  0.4823  0.2102  0.5794
 6904TIP3    H120676   1.426   3.375   2.899  1.1589 -0.5911  0.1568
 6904TIP3    H220677   1.475   3.492   2.817 -0.4625  0.9065  1.2389
 6905TIP3   OH220678   0.653   5.627   2.756  0.5198 -0.1854 -0.2536
 6905TIP3    H120679   0.570   5.615   2.711 -0.2475  1.3100  0.6727
 6905TIP3    H220680   0.718   5.584   2.699 -0.7944 -0.9233 -1.2475
 6906TIP3   OH220681   6.341   2.180   3.796 -0.2858  0.1353  0.2812
 6906TIP3    H120682   6.271   2.122   3.826  0.2640  0.3930  2.2621
 6906TIP3    H220683   6.316   2.206   3.708 -0.3001 -3.5070 -0.9447
 6907TIP3   OH220684   6.312   6.347   5.606  0.1441 -0.0877 -0.4009
 6907TIP3    H120685   6.235   6.382   5.651  1.4815  0.0135  2.0247
 6907TIP3    H220686   6.366   6.423   5.586  1.6729 -0.3442  2.1807
 6908TIP3   OH220687   4.773   1.465   3.039 -0.4116 -0.1218 -0.0517
 6908TIP3    H120688   4.832   1.394   3.064 -0.7313  0.0021  1.1449
 6908TIP3    H220689   4.831   1.535   3.007 -0.0925 -0.8821 -1.1985
 6909TIP3   OH220690   0.356   6.392   0.148  0.3550 -0.1183  0.2381
 6909TIP3    H120691   0.316   6.476   0.125  0.9166 -0.0438 -0.4861
 6909TIP3    H220692   0.316   6.369   0.233  0.0068  0.7448  0.3178
 6910TIP3   OH220693   3.946   1.117   5.007 -0.4496  0.1883 -0.4238
 6910TIP3    H120694   3.936   1.036   4.958 -3.1851 -1.0432  1.8600
 6910TIP3    H220695   3.893   1.181   4.960 -0.3846 -0.0692 -0.8465
 6911TIP3   OH220696   5.257   0.676   5.317  0.0765  0.7006  0.2386
 6911TIP3    H120697   5.331   0.694   5.259  0.9564 -0.0128  1.1076
 6911TIP3    H220698   5.294   0.679   5.405 -0.9014  0.1671  0.6842
 6912TIP3   OH220699   4.194   1.933   1.311 -0.1925  0.3584 -0.0787
 6912TIP3    H120700   4.220   1.844   1.287  0.6317  0.4857  0.2867
 6912TIP3    H220701   4.224   1.943   1.402 -0.9899  0.7404  0.1490
 6913TIP3   OH220702   0.472   2.904   0.167 -0.0980  0.2579  0.6220
 6913TIP3    H120703   0.565   2.884   0.165 -0.2266 -0.3734  0.7327
 6913TIP3    H220704   0.444   2.900   0.075 -0.5650 -2.3017  0.8067
 6914TIP3   OH220705   6.722   0.499   2.690 -0.4086  0.5258 -0.0679
 6914TIP3    H120706   6.660   0.450   2.636 -1.4390 -0.5544  1.9892
 6914TIP3    H220707   6.686   0.588   2.693 -1.3999  0.1286  0.3492
 6915TIP3   OH220708   5.513   6.429   3.848 -0.5639  0.2998 -0.0978
 6915TIP3    H120709   5.592   6.478   3.824  0.2248 -0.9685 -0.1876
 6915TIP3    H220710   5.546   6.350   3.891 -1.8279  0.2720  0.8946
 6916TIP3   OH220711   0.956   4.543   2.856  0.4864 -0.2827  0.1908
 6916TIP3    H120712   1.044   4.580   2.855  0.8871 -1.1809  0.6597
 6916TIP3    H220713   0.955   4.483   2.781  0.3680 -0.4557  0.3293
 6917TIP3   OH220714   1.587   0.889   3.483 -0.6481  0.1551 -0.6011
 6917TIP3    H120715   1.643   0.818   3.452 -1.1288  0.1719 -1.5514
 6917TIP3    H220716   1.551   0.856   3.565 -0.4681 -0.4989 -0.7734
 6918TIP3   OH220717   1.254   5.056   0.613 -0.0070 -0.1268  0.1765
 6918TIP3    H120718   1.339   5.018   0.589 -0.5273 -0.9400 -0.4350
 6918TIP3    H220719   1.265   5.084   0.704  0.3471 -1.9444  0.7371
 6919TIP3   OH220720   2.803   4.043   5.053  0.4508  0.1025  0.1326
 6919TIP3    H120721   2.792   4.135   5.077  2.0503 -0.0806  1.7961
 6919TIP3    H220722   2.870   4.010   5.113  1.2240 -1.6941 -1.5668
 6920TIP3   OH220723   0.798   5.652   1.691 -0.2157  0.6025 -0.8392
 6920TIP3    H120724   0.793   5.557   1.688  0.5340  0.5361 -0.3005
 6920TIP3    H220725   0.871   5.675   1.634  0.6446  0.7263  0.2674
 6921TIP3   OH220726   2.312   4.107   0.127  0.2787 -0.2525 -0.0741
 6921TIP3    H120727   2.288   4.018   0.102 -0.2416  0.1031 -0.8774
 6921TIP3    H220728   2.325   4.103   0.222  1.1122 -1.3729 -0.2156
 6922TIP3   OH220729   2.542   2.776   3.021 -0.7525  0.0726  0.4053
 6922TIP3    H120730   2.465   2.821   3.058 -2.5237 -1.8378 -0.7251
 6922TIP3    H220731   2.520   2.683   3.026  1.1850 -0.4827 -0.6524
 6923TIP3   OH220732   0.341   2.240   2.056 -0.1449 -0.4693  0.5969
 6923TIP3    H120733   0.316   2.203   2.141 -0.5969 -0.7582  0.3442
 6923TIP3    H220734   0.287   2.193   1.992  1.3406 -1.4221 -0.0217
 6924TIP3   OH220735   2.902   2.581   0.719  0.0222  0.3934 -0.3502
 6924TIP3    H120736   2.982   2.634   0.727 -0.4221  1.0157  0.1008
 6924TIP3    H220737   2.835   2.633   0.765 -0.3361 -0.7530  0.4574
 6925TIP3   OH220738   7.123   2.468   4.765 -0.4759  0.0104 -0.1290
 6925TIP3    H120739   7.118   2.403   4.835 -0.9696  0.3309  0.1420
 6925TIP3    H220740   7.051   2.529   4.784  1.1414  1.7329  0.7619
 6926TIP3   OH220741   5.187   1.658   5.722  0.5979 -0.1946 -0.6347
 6926TIP3    H120742   5.191   1.577   5.773  1.2125  0.5891  0.6031
 6926TIP3    H220743   5.265   1.654   5.666  0.2151 -0.7974 -1.1459
 6927TIP3   OH220744   4.033   0.907   4.825  0.2733 -0.3654 -0.0666
 6927TIP3    H120745   3.984   0.841   4.873  0.7576 -0.5130  0.2308
 6927TIP3    H220746   4.042   0.872   4.737 -0.4728 -0.1692 -0.2305
 6928TIP3   OH220747   3.477   1.094   3.479 -0.0950 -0.2598  0.3352
 6928TIP3    H120748   3.527   1.154   3.533  0.6658 -1.2914  0.8057
 6928TIP3    H220749   3.527   1.086   3.398 -0.5561  0.2703 -0.0076
 6929TIP3   OH220750   3.389   3.658   3.106  0.1021 -0.3470  0.5757
 6929TIP3    H120751   3.471   3.646   3.152 -0.5867 -2.3857  1.3958
 6929TIP3    H220752   3.329   3.694   3.172 -0.3685 -1.4504  0.7717
 6930TIP3   OH220753   3.254   1.505   0.320  0.0429  0.5837  0.2952
 6930TIP3    H120754   3.279   1.590   0.283  1.1331 -0.3606 -1.3031
 6930TIP3    H220755   3.310   1.496   0.398 -0.2192  1.3973  0.5907
 6931TIP3   OH220756   5.262   5.559   2.241  0.3923 -0.7004  0.4071
 6931TIP3    H120757   5.289   5.582   2.152  0.0427  1.2721  0.7695
 6931TIP3    H220758   5.324   5.607   2.297 -1.2125  0.5070  1.2144
 6932TIP3   OH220759   0.409   2.833   4.485 -0.0106 -0.0005  0.4864
 6932TIP3    H120760   0.496   2.841   4.444  1.0999  0.1893  2.7419
 6932TIP3    H220761   0.411   2.896   4.557 -1.9672 -0.1570  0.7235
 6933TIP3   OH220762   1.294   3.323   0.233 -0.2976 -0.0579 -0.4597
 6933TIP3    H120763   1.212   3.366   0.259 -1.1857 -0.5220 -2.3292
 6933TIP3    H220764   1.350   3.395   0.203 -0.4113  0.1645 -0.1394
 6934TIP3   OH220765   4.590   4.775   3.254 -0.5893  0.3381 -0.1322
 6934TIP3    H120766   4.573   4.759   3.347 -0.6223 -0.5727 -0.2789
 6934TIP3    H220767   4.654   4.846   3.253  1.3513 -1.2722  0.7213
 6935TIP3   OH220768   1.374   1.590   1.561  0.1021 -0.3218  0.2310
 6935TIP3    H120769   1.296   1.556   1.606  0.3702 -0.0629  0.8900
 6935TIP3    H220770   1.348   1.594   1.469 -0.5055 -0.6946  0.3817
 6936TIP3   OH220771   2.227   5.009   2.124  0.4837  0.1930 -0.3686
 6936TIP3    H120772   2.273   5.087   2.156  2.5976 -1.0275 -0.2485
 6936TIP3    H220773   2.174   5.040   2.051 -0.2010  2.0592  0.8599
 6937TIP3   OH220774   1.874   0.725   2.370 -0.5799  0.1601  0.4824
 6937TIP3    H120775   1.790   0.684   2.348 -0.7759  1.1357 -0.7050
 6937TIP3    H220776   1.867   0.743   2.464 -2.1590  1.1659  0.2188
 6938TIP3   OH220777   1.651   5.332   1.408  0.2246  0.5562 -0.1402
 6938TIP3    H120778   1.645   5.381   1.326 -0.5863  0.7724  0.0395
 6938TIP3    H220779   1.575   5.274   1.407  0.0530  0.7519  0.5766
 6939TIP3   OH220780   3.553   3.997   5.083  0.1908 -0.5241  0.3533
 6939TIP3    H120781   3.582   4.010   5.173 -0.7189 -0.8884  0.7175
 6939TIP3    H220782   3.473   3.944   5.091  0.8157 -1.6973 -0.7406
 6940TIP3   OH220783   4.721   3.539   3.097 -0.2598  0.1046 -1.0546
 6940TIP3    H120784   4.641   3.526   3.147 -0.4247 -1.5558 -1.7182
 6940TIP3    H220785   4.787   3.560   3.163 -1.1725  1.3357 -0.4886
 6941TIP3   OH220786   6.530   3.149   2.068  0.0121 -0.2047  0.3262
 6941TIP3    H120787   6.513   3.175   1.977 -0.8201  2.1649  1.0910
 6941TIP3    H220788   6.614   3.103   2.064 -0.9109 -1.8925 -1.8807
 6942TIP3   OH220789   5.484   0.184   0.243  0.0145  0.7810 -0.0693
 6942TIP3    H120790   5.462   0.224   0.159  1.9855 -0.5668 -1.3334
 6942TIP3    H220791   5.535   0.106   0.219  2.4860  1.4666  2.3778
 6943TIP3   OH220792   4.611   6.032   1.542  0.0196  0.1582 -0.3415
 6943TIP3    H120793   4.596   6.054   1.450 -0.7692 -1.1640 -0.5501
 6943TIP3    H220794   4.692   5.981   1.541  1.5146  2.3991  0.0672
 6944TIP3   OH220795   5.520   6.072   2.023  0.5352 -0.6913  0.5897
 6944TIP3    H120796   5.462   5.997   2.012 -1.0390  0.7982 -2.9108
 6944TIP3    H220797   5.485   6.120   2.098 -1.3444 -1.1033  0.0114
 6945TIP3   OH220798   6.529   6.272   5.794  0.4196  0.2988  0.6189
 6945TIP3    H120799   6.592   6.214   5.752 -0.7125 -1.5225  1.3425
 6945TIP3    H220800   6.482   6.313   5.721  1.3671  0.5022  0.1042
 6946TIP3   OH220801   4.920   6.238   1.021 -0.3444  0.6224 -0.5184
 6946TIP3    H120802   4.941   6.201   1.107 -1.4334  1.4899  0.1526
 6946TIP3    H220803   5.000   6.281   0.992  0.4804 -0.9310 -0.6267
 6947TIP3   OH220804   7.083   6.682   2.307 -0.2097  0.4786  0.6444
 6947TIP3    H120805   7.040   6.745   2.249 -1.1612 -0.0584  0.7450
 6947TIP3    H220806   7.046   6.597   2.281  0.6703  0.0239  0.8575
 6948TIP3   OH220807   1.960   6.494   3.568  0.5294  0.1945  0.5089
 6948TIP3    H120808   2.037   6.470   3.619  0.0559 -0.2887  1.0119
 6948TIP3    H220809   1.888   6.444   3.607  0.2596 -0.7143 -1.0755
 6949TIP3   OH220810   6.101   6.130   3.069 -0.0674  0.3188 -0.3855
 6949TIP3    H120811   6.052   6.202   3.108 -0.3996 -0.4472  0.6333
 6949TIP3    H220812   6.034   6.072   3.033  0.0552 -0.6884  0.9393
 6950TIP3   OH220813   1.905   6.503   1.521 -0.1786 -0.8090  0.3799
 6950TIP3    H120814   1.935   6.422   1.480 -1.7080 -1.5778  0.7152
 6950TIP3    H220815   1.981   6.561   1.519  0.7715 -2.0491 -0.3871
 6951TIP3   OH220816   4.558   5.738   3.997 -0.0748 -0.1696 -0.2507
 6951TIP3    H120817   4.575   5.683   3.921 -0.8188 -0.5310 -0.1671
 6951TIP3    H220818   4.586   5.826   3.970  2.9402 -0.8590  0.2587
 6952TIP3   OH220819   5.179   0.625   4.792 -0.3491 -0.0081 -0.4369
 6952TIP3    H120820   5.233   0.619   4.871 -0.6259  1.2656 -0.1311
 6952TIP3    H220821   5.103   0.569   4.811 -0.7928  0.8797  0.5441
 6953TIP3   OH220822   5.128   3.974   2.441 -0.2592 -0.1986  0.7082
 6953TIP3    H120823   5.129   3.885   2.405 -1.4706 -0.0786  0.3345
 6953TIP3    H220824   5.124   3.960   2.536 -0.3708 -0.5519  0.6562
 6954TIP3   OH220825   1.922   3.146   2.439 -0.4137 -0.3128 -0.2574
 6954TIP3    H120826   1.852   3.125   2.502  0.4236 -2.0876  0.1619
 6954TIP3    H220827   1.977   3.209   2.485 -1.0329  0.1134 -0.0883
 6955TIP3   OH220828   0.992   1.413   3.353  0.2327  0.1027  0.4362
 6955TIP3    H120829   0.908   1.440   3.390  1.0618  1.5224  1.3942
 6955TIP3    H220830   0.990   1.317   3.354 -2.0653  0.0528 -1.2452
 6956TIP3   OH220831   3.189   3.467   3.064  0.3007  0.0648 -0.6285
 6956TIP3    H120832   3.182   3.408   3.139  0.9544 -1.1993 -1.5455
 6956TIP3    H220833   3.259   3.528   3.088  0.6121 -0.4254 -0.2674
 6957TIP3   OH220834   6.619   1.390   5.460  0.5269  0.0361  0.3396
 6957TIP3    H120835   6.667   1.460   5.417 -1.3634  1.1186 -0.1411
 6957TIP3    H220836   6.654   1.387   5.549 -0.1651  2.4606  0.7639
 6958TIP3   OH220837   1.540   0.242   4.502 -0.3060  0.0570 -0.2994
 6958TIP3    H120838   1.452   0.238   4.541  0.2789 -0.6583  1.0359
 6958TIP3    H220839   1.587   0.170   4.544  1.4351  1.5132  0.3621
 6959TIP3   OH220840   6.589   4.467   0.551 -0.0868  0.2047  0.4605
 6959TIP3    H120841   6.626   4.509   0.629 -1.2102 -0.3083  1.3046
 6959TIP3    H220842   6.582   4.374   0.575 -1.0693  0.1519  0.0180
 6960TIP3   OH220843   3.452   6.186   4.303 -0.4188  0.5278 -0.2732
 6960TIP3    H120844   3.480   6.264   4.350  2.5288  0.1241 -1.1349
 6960TIP3    H220845   3.414   6.219   4.222 -1.2847  1.1078  0.3631
 6961TIP3   OH220846   0.066   1.618   2.870 -0.3798 -0.2258  0.1923
 6961TIP3    H120847   0.013   1.674   2.813 -0.9359 -0.8245  0.1176
 6961TIP3    H220848   0.147   1.603   2.820 -0.8721 -0.7642 -0.4522
 6962TIP3   OH220849   4.510   0.905   0.109  0.7986 -0.0109  0.3285
 6962TIP3    H120850   4.519   0.952   0.027  0.3794  0.1766  0.3862
 6962TIP3    H220851   4.416   0.886   0.116  0.5569  1.4415  1.5614
 6963TIP3   OH220852   3.206   4.460   5.342 -0.0272  0.2448  0.0977
 6963TIP3    H120853   3.294   4.423   5.349 -0.1015  0.1039  0.2988
 6963TIP3    H220854   3.148   4.392   5.377 -0.1119  0.7673  1.0248
 6964TIP3   OH220855   5.500   3.695   2.689  0.0505  0.0327  0.2306
 6964TIP3    H120856   5.430   3.659   2.634 -0.4866 -0.6490  1.3235
 6964TIP3    H220857   5.517   3.781   2.653 -1.3556  0.2089 -0.0695
 6965TIP3   OH220858   3.713   6.423   0.827  0.1268 -0.2580  0.2673
 6965TIP3    H120859   3.675   6.424   0.915  0.1247  1.5753  0.2827
 6965TIP3    H220860   3.693   6.509   0.791  0.4067 -0.8594 -1.4280
 6966TIP3   OH220861   7.091   3.466   2.850  0.1431  0.4161 -1.0566
 6966TIP3    H120862   7.066   3.380   2.885 -0.2043  0.7944 -0.3701
 6966TIP3    H220863   7.012   3.499   2.807 -0.9986  2.0779  2.0247
 6967TIP3   OH220864   2.206   4.435   5.664 -0.5881  0.7878 -0.2989
 6967TIP3    H120865   2.243   4.514   5.703  0.3237  0.1454  0.1607
 6967TIP3    H220866   2.280   4.377   5.652 -0.9758  0.6022 -2.1609
 6968TIP3   OH220867   1.778   2.231   4.283 -0.2453  0.1737  0.9403
 6968TIP3    H120868   1.846   2.246   4.217 -0.9810  1.9284  0.5015
 6968TIP3    H220869   1.737   2.148   4.258  0.7010 -0.1054  0.2887
 6969TIP3   OH220870   5.258   3.214   2.816  0.0180  0.2377  0.4684
 6969TIP3    H120871   5.261   3.212   2.721 -0.7176 -0.9191  0.4457
 6969TIP3    H220872   5.175   3.259   2.836  0.5670  1.2209  0.5858
 6970TIP3   OH220873   5.923   5.564   2.009  0.0110 -0.2912 -0.4748
 6970TIP3    H120874   5.923   5.594   1.918 -0.3292  1.8277  0.1569
 6970TIP3    H220875   5.844   5.603   2.047  0.7651 -0.1312  1.0009
 6971TIP3   OH220876   3.125   0.232   2.323 -0.1729  0.4891  0.3743
 6971TIP3    H120877   3.064   0.277   2.265  1.0479  1.1155 -0.4591
 6971TIP3    H220878   3.110   0.139   2.306  2.4580  0.5353 -3.6611
 6972TIP3   OH220879   2.340   4.276   0.947 -0.0009  0.1346 -0.3496
 6972TIP3    H120880   2.302   4.354   0.988  0.1019  0.1378 -0.2593
 6972TIP3    H220881   2.271   4.211   0.951 -0.3492  0.4452 -1.0979
 6973TIP3   OH220882   0.232   4.160   5.566  0.1067  0.2759 -0.2375
 6973TIP3    H120883   0.315   4.206   5.580  0.6300 -0.4003 -1.0162
 6973TIP3    H220884   0.229   4.144   5.472  0.0803 -1.5041  0.0262
 6974TIP3   OH220885   4.430   1.870   1.742  0.1525 -0.7343 -0.0021
 6974TIP3    H120886   4.378   1.912   1.674  0.9512 -0.2494 -0.3236
 6974TIP3    H220887   4.374   1.798   1.773 -0.7522 -0.1599 -0.2459
 6975TIP3   OH220888   3.815   2.981   0.787  0.0750  0.1101 -0.1616
 6975TIP3    H120889   3.882   2.968   0.720  0.3165 -0.2121  0.1396
 6975TIP3    H220890   3.840   2.922   0.857 -0.3310  0.2487  0.1002
 6976TIP3   OH220891   6.572   0.999   1.551  0.2514 -0.3293  0.6092
 6976TIP3    H120892   6.579   1.041   1.636 -0.4300 -0.7817  0.8968
 6976TIP3    H220893   6.519   0.921   1.567 -0.0427 -0.3216 -0.2646
 6977TIP3   OH220894   1.455   2.662   3.316  0.2702  0.0859  0.2539
 6977TIP3    H120895   1.371   2.690   3.353  0.5010  0.9546  0.1215
 6977TIP3    H220896   1.503   2.626   3.391 -0.9067 -2.1913  0.0304
 6978TIP3   OH220897   3.517   6.493   4.351 -0.4991  0.0874  0.1562
 6978TIP3    H120898   3.508   6.497   4.446  0.0323  1.1069  0.1665
 6978TIP3    H220899   3.499   6.582   4.321 -0.9954 -0.2953 -0.7378
 6979TIP3   OH220900   2.498   3.711   5.866  0.0823 -0.3676  0.1198
 6979TIP3    H120901   2.465   3.626   5.838  0.5802 -0.2170 -0.9656
 6979TIP3    H220902   2.501   3.764   5.786 -2.5908  1.5174  1.1057
 6980TIP3   OH220903   3.633   2.180   0.160 -0.3425  0.2984 -0.2880
 6980TIP3    H120904   3.709   2.228   0.193  1.0586 -1.0974 -1.3160
 6980TIP3    H220905   3.669   2.122   0.092 -1.5622 -3.3880  1.8935
 6981TIP3   OH220906   4.748   5.333   5.370 -0.2492  0.1752  0.2315
 6981TIP3    H120907   4.710   5.287   5.295  0.6498 -0.9569  0.4509
 6981TIP3    H220908   4.722   5.281   5.446 -0.0870  0.6101  0.5918
 6982TIP3   OH220909   1.016   2.842   2.279 -0.2575 -0.3611  0.9946
 6982TIP3    H120910   1.022   2.910   2.346 -0.4517  0.8208 -0.1254
 6982TIP3    H220911   0.927   2.808   2.287 -0.6178  0.4711  0.7278
 6983TIP3   OH220912   6.739   1.349   1.956  0.7718 -0.1689  0.0202
 6983TIP3    H120913   6.654   1.391   1.965  0.7549 -0.2191  0.0960
 6983TIP3    H220914   6.790   1.410   1.902  0.4849 -0.4356 -0.5681
 6984TIP3   OH220915   6.478   4.139   4.361  0.0423  0.4797  0.4636
 6984TIP3    H120916   6.411   4.107   4.300  0.3426  1.3441 -0.3428
 6984TIP3    H220917   6.556   4.087   4.340 -0.0025  0.4025  0.4863
 6985TIP3   OH220918   3.242   5.010   0.957  0.1800 -0.3132 -0.0268
 6985TIP3    H120919   3.234   5.092   0.909 -0.0593 -1.1800 -1.5271
 6985TIP3    H220920   3.257   4.944   0.890 -1.0490 -1.7232  1.0132
 6986TIP3   OH220921   6.687   5.723   0.336  0.0904  0.6844 -0.2909
 6986TIP3    H120922   6.634   5.676   0.272 -1.3680  1.4622  0.2932
 6986TIP3    H220923   6.670   5.816   0.318  1.2880  0.9696 -0.0894
 6987TIP3   OH220924   0.701   4.501   4.957  0.0964  0.3096  0.4020
 6987TIP3    H120925   0.645   4.578   4.968 -0.0991  0.2358 -0.0600
 6987TIP3    H220926   0.722   4.474   5.046  1.2857  1.7123  0.5852
 6988TIP3   OH220927   0.144   2.836   4.176  0.0682  0.3053 -0.0702
 6988TIP3    H120928   0.215   2.778   4.204 -0.5037  0.6172  2.2852
 6988TIP3    H220929   0.187   2.918   4.155  0.6593 -0.3127 -1.3926
 6989TIP3   OH220930   3.761   1.148   1.213 -0.2291  0.2049  0.4624
 6989TIP3    H120931   3.681   1.124   1.259  0.0533 -1.9605 -0.0633
 6989TIP3    H220932   3.822   1.077   1.232  0.2862 -0.2120 -2.2410
 6990TIP3   OH220933   4.311   4.942   3.393  0.1800  0.5415  0.0725
 6990TIP3    H120934   4.384   5.004   3.392  0.1230  0.6104 -0.7508
 6990TIP3    H220935   4.271   4.954   3.479  1.2293  0.3885  0.6061
 6991TIP3   OH220936   3.682   0.703   0.167 -0.2662  0.2100  0.3818
 6991TIP3    H120937   3.661   0.610   0.165 -0.6669  0.2651  1.3326
 6991TIP3    H220938   3.618   0.741   0.228  0.8339  0.8361  1.1935
 6992TIP3   OH220939   5.392   5.991   3.866  0.4247  0.2506  0.4146
 6992TIP3    H120940   5.475   5.948   3.849 -0.5578 -1.8428  0.5675
 6992TIP3    H220941   5.373   5.972   3.958 -0.3045  0.5571  0.3403
 6993TIP3   OH220942   4.794   3.391   1.879  0.1488 -0.7573  0.2997
 6993TIP3    H120943   4.832   3.470   1.917 -3.5522  1.1197  0.4926
 6993TIP3    H220944   4.786   3.411   1.786  1.4914 -2.0039 -0.1216
 6994TIP3   OH220945   3.983   1.097   4.525  0.2208  0.0158 -0.7740
 6994TIP3    H120946   3.925   1.025   4.552 -0.0061  0.4904  0.0342
 6994TIP3    H220947   4.043   1.057   4.462  0.8909 -1.1815  0.5845
 6995TIP3   OH220948   5.595   3.523   3.872 -0.2735  0.0151  0.0604
 6995TIP3    H120949   5.688   3.539   3.861 -0.2179  0.5064  1.0736
 6995TIP3    H220950   5.554   3.562   3.795  0.2195  1.4215  0.4740
 6996TIP3   OH220951   6.784   4.955   2.436  0.1159  0.3266  0.7660
 6996TIP3    H120952   6.714   4.922   2.492 -0.4028  0.0548 -0.0176
 6996TIP3    H220953   6.769   5.050   2.432  0.2150  0.3575  1.1702
 6997TIP3   OH220954   0.243   1.863   5.641  0.4539 -0.2432  0.1024
 6997TIP3    H120955   0.209   1.797   5.701  0.1245 -1.1536 -1.0381
 6997TIP3    H220956   0.307   1.816   5.587  0.8244  0.5742 -0.1984
 6998TIP3   OH220957   5.297   2.943   2.919  0.1661  0.4439  0.7016
 6998TIP3    H120958   5.266   3.034   2.920 -0.6922  0.2509 -1.9384
 6998TIP3    H220959   5.219   2.891   2.903  0.8332 -0.6940  1.0286
 6999TIP3   OH220960   6.322   2.394   5.887 -0.6707  0.0653  0.2243
 6999TIP3    H120961   6.333   2.323   5.825 -3.7758 -0.7412  0.4536
 6999TIP3    H220962   6.307   2.472   5.833 -3.2176 -0.6086 -0.1623
 7000TIP3   OH220963   4.906   6.316   4.543  0.2724  0.2921 -0.4240
 7000TIP3    H120964   4.865   6.293   4.627  0.5638  0.5899 -0.1985
 7000TIP3    H220965   4.999   6.327   4.563  0.0006  2.8838 -0.2427
 7001TIP3   OH220966   4.542   0.986   3.757  0.0379  0.2763 -0.0872
 7001TIP3    H120967   4.549   0.970   3.663 -4.2729 -0.6139 -0.4811
 7001TIP3    H220968   4.527   1.080   3.765  0.0159  0.2916 -0.3132
 7002TIP3   OH220969   3.324   3.007   0.816  0.3441 -0.0933  0.5760
 7002TIP3    H120970   3.322   3.087   0.764  0.9093 -0.5581 -0.1801
 7002TIP3    H220971   3.303   2.937   0.754 -1.9102 -0.3910  1.5714
 7003TIP3   OH220972  -0.020   4.460   1.178  0.1718  0.3695 -0.0812
 7003TIP3    H120973   0.028   4.418   1.249  0.6884  0.4296 -0.3907
 7003TIP3    H220974   0.036   4.448   1.101 -0.7689 -0.4406 -0.6584
 7004TIP3   OH220975   3.871   0.238   3.494  0.2081  0.1033 -0.5255
 7004TIP3    H120976   3.822   0.312   3.461  0.0690  1.1267  1.7982
 7004TIP3    H220977   3.806   0.182   3.536  0.5746 -0.3181 -0.5074
 7005TIP3   OH220978   6.641   2.529   4.597  0.0758 -0.2278 -0.0660
 7005TIP3    H120979   6.603   2.611   4.626  0.5953  0.1194 -0.3581
 7005TIP3    H220980   6.575   2.463   4.618  0.3641  0.0149  1.7706
 7006TIP3   OH220981   4.894   4.162   4.696 -0.7698 -0.6355  0.1700
 7006TIP3    H120982   4.815   4.112   4.677 -0.9388  0.1480 -1.3803
 7006TIP3    H220983   4.964   4.113   4.653 -0.8442  0.0539 -0.7946
 7007TIP3   OH220984   5.962   0.172   0.083 -0.0843 -0.4356  0.3925
 7007TIP3    H120985   6.017   0.206   0.013 -1.9898  1.1201 -0.4658
 7007TIP3    H220986   5.959   0.243   0.148 -2.8719  0.5599 -0.6871
 7008TIP3   OH220987   6.832   2.167   4.549 -0.1910  0.2538  0.1646
 7008TIP3    H120988   6.889   2.130   4.617  0.3850  1.2425  0.2406
 7008TIP3    H220989   6.887   2.171   4.471  0.0935  1.8853  0.4226
 7009TIP3   OH220990   3.399   5.741   2.701  0.0458  0.4152  0.7005
 7009TIP3    H120991   3.488   5.717   2.728 -0.7430 -1.1692  2.0774
 7009TIP3    H220992   3.405   5.833   2.676  1.8412  0.6586  1.8720
 7010TIP3   OH220993   4.857   0.094   4.255 -0.3269 -0.3090 -0.2794
 7010TIP3    H120994   4.762   0.094   4.257 -0.3454  0.5064 -0.6414
 7010TIP3    H220995   4.883   0.081   4.347 -0.8083  0.9745  0.0633
 7011TIP3   OH220996   5.457   5.654   3.932  0.6410 -0.0522 -0.2535
 7011TIP3    H120997   5.432   5.723   3.994 -0.1565  0.4941 -1.1589
 7011TIP3    H220998   5.535   5.687   3.889 -0.5446  0.9927 -1.7199
 7012TIP3   OH220999   0.291   0.956   1.261  0.1639  0.2365  0.4266
 7012TIP3    H121000   0.369   1.011   1.272 -0.1467  0.5065  1.3978
 7012TIP3    H221001   0.259   0.978   1.173  1.6461 -0.5101 -0.3344
 7013TIP3   OH221002   4.648   6.683   5.210  0.1597  0.7080  0.0475
 7013TIP3    H121003   4.630   6.592   5.236  0.9879  0.3595 -0.5664
 7013TIP3    H221004   4.736   6.680   5.173  0.2740  1.8122  0.2153
 7014TIP3   OH221005   7.099   2.206   0.081 -0.1395  0.0678  0.2803
 7014TIP3    H121006   7.016   2.245   0.109 -0.0571  1.6350 -1.4681
 7014TIP3    H221007   7.164   2.274   0.096  0.9078 -1.1937  1.7681
 7015TIP3   OH221008   4.931  -0.016   0.514 -0.1138  0.1048  0.1591
 7015TIP3    H121009   4.939   0.052   0.447  0.5567 -0.3607 -0.2393
 7015TIP3    H221010   4.975   0.020   0.591 -0.8547  0.6270  0.3493
 7016TIP3   OH221011   5.405   4.457   3.166 -0.3627  0.3563 -0.1006
 7016TIP3    H121012   5.365   4.457   3.252  0.6281 -0.5515  0.3824
 7016TIP3    H221013   5.335   4.429   3.107 -1.0185  0.8854  0.4066
 7017TIP3   OH221014   3.510   3.484   1.026  0.4341  0.0504  0.1191
 7017TIP3    H121015   3.504   3.491   1.122 -1.2886  0.8232 -0.0140
 7017TIP3    H221016   3.483   3.395   1.007 -0.5596  0.3079  0.2754
 7018TIP3   OH221017   4.476   1.988   1.402 -0.2984 -0.6547 -0.0193
 7018TIP3    H121018   4.404   1.991   1.465 -1.0542 -1.3298 -0.8170
 7018TIP3    H221019   4.499   1.896   1.397 -0.2105 -0.6044 -0.6720
 7019TIP3   OH221020   1.746   3.002   4.013 -0.8123  0.0654  0.1487
 7019TIP3    H121021   1.735   3.078   4.070  0.0957  0.7679 -0.5846
 7019TIP3    H221022   1.819   3.025   3.956  0.1317 -1.7524  0.5397
 7020TIP3   OH221023   6.635   4.748   0.634  0.2336  0.0912  0.1706
 7020TIP3    H121024   6.641   4.798   0.716 -0.4722  0.2671  0.1274
 7020TIP3    H221025   6.684   4.668   0.651  0.9344  0.5628  0.4220
 7021TIP3   OH221026   2.186   1.059   5.111 -0.3591 -0.1030 -0.2202
 7021TIP3    H121027   2.175   1.091   5.022 -3.5770 -1.9010 -0.6635
 7021TIP3    H221028   2.165   1.134   5.167 -0.9318  0.3886 -1.0749
 7022TIP3   OH221029   4.045   3.931   1.432 -0.8654 -0.1612  0.3181
 7022TIP3    H121030   3.979   3.917   1.363 -0.9870 -0.1244  0.4265
 7022TIP3    H221031   4.047   4.026   1.443 -0.1547 -0.0932 -0.3060
 7023TIP3   OH221032   1.539   1.308   2.900 -0.3619  0.4560 -0.1295
 7023TIP3    H121033   1.516   1.304   2.807 -0.9493  1.5887 -0.0457
 7023TIP3    H221034   1.465   1.267   2.945 -0.9308  1.5574 -0.0472
 7024TIP3   OH221035   2.755   1.087   1.447 -0.0816 -0.0948  0.0122
 7024TIP3    H121036   2.683   1.048   1.397 -1.6217  0.8366  1.4327
 7024TIP3    H221037   2.736   1.181   1.448  0.8406  0.0993  0.8909
 7025TIP3   OH221038   0.192   0.734   1.590 -0.2775  0.4078 -0.2875
 7025TIP3    H121039   0.116   0.765   1.542  0.3608  0.2579 -1.4318
 7025TIP3    H221040   0.264   0.740   1.527  0.4838 -0.2550  0.4991
 7026TIP3   OH221041   2.339   6.641   3.055 -0.5762 -0.6529 -0.0915
 7026TIP3    H121042   2.267   6.649   3.117 -0.7338  1.2482 -0.4677
 7026TIP3    H221043   2.312   6.693   2.979  1.5666  0.9882  0.1660
 7027TIP3   OH221044   5.387   5.118   2.832  0.3376 -0.0630 -0.2182
 7027TIP3    H121045   5.363   5.057   2.762 -1.0637  1.1912 -0.8921
 7027TIP3    H221046   5.387   5.065   2.912  3.6407 -1.9261 -1.2579
 7028TIP3   OH221047   6.049   2.783   1.734 -0.4425 -0.4126 -0.4357
 7028TIP3    H121048   6.004   2.802   1.652 -0.3013 -2.1360 -0.9419
 7028TIP3    H221049   6.004   2.706   1.770  0.2604 -0.4159  0.4977
 7029TIP3   OH221050   0.365   2.661   2.545  0.4034  0.3521 -0.0245
 7029TIP3    H121051   0.444   2.608   2.552  1.2619  1.7109  0.6974
 7029TIP3    H221052   0.392   2.739   2.498 -1.1741 -0.3940 -2.3688
 7030TIP3   OH221053   2.998   2.760   0.073  0.4763 -0.3530  0.1886
 7030TIP3    H121054   2.920   2.714   0.040  0.4787  1.0536 -1.9123
 7030TIP3    H221055   2.966   2.845   0.102  0.8346 -0.7802  1.9697
 7031TIP3   OH221056   5.197   5.378   4.241 -0.1925  0.5349  0.0361
 7031TIP3    H121057   5.120   5.433   4.228 -1.4615 -1.0992  0.4173
 7031TIP3    H221058   5.246   5.385   4.159 -1.4011  0.5592 -0.6983
 7032TIP3   OH221059   5.436   2.383   0.358  0.1869 -0.7496 -0.3716
 7032TIP3    H121060   5.422   2.317   0.290  0.5397 -0.1081 -1.0828
 7032TIP3    H221061   5.436   2.466   0.311  2.7095 -0.4269  0.0526
 7033TIP3   OH221062   4.439   2.501   2.570 -0.4641  0.1491  0.4916
 7033TIP3    H121063   4.383   2.468   2.500  0.2147 -0.5946  0.2809
 7033TIP3    H221064   4.475   2.582   2.535  0.7634 -0.7864 -0.5165
 7034TIP3   OH221065   2.641   5.929   1.741 -0.2083 -1.0746 -0.6451
 7034TIP3    H121066   2.617   5.942   1.649  1.5835 -0.3648 -1.0473
 7034TIP3    H221067   2.615   6.010   1.784 -0.3961 -1.1247 -0.6622
 7035TIP3   OH221068   3.789   4.536   5.506  0.1461 -0.1218  0.0996
 7035TIP3    H121069   3.863   4.579   5.462 -0.2396  0.0302 -0.4047
 7035TIP3    H221070   3.712   4.584   5.476 -0.2570 -0.9092 -0.1472
 7036TIP3   OH221071   0.980   1.488   1.807  0.2664 -0.5792  0.3091
 7036TIP3    H121072   1.071   1.486   1.778  0.7605  2.0075  1.4479
 7036TIP3    H221073   0.980   1.436   1.887  0.2360 -2.3581 -0.7895
 7037TIP3   OH221074   2.474   1.950   4.115 -0.0742  0.2236 -0.2249
 7037TIP3    H121075   2.381   1.952   4.093 -0.2684  0.4115  0.5932
 7037TIP3    H221076   2.481   1.888   4.187  0.3766  0.5025 -0.0245
 7038TIP3   OH221077   0.353   5.907   5.467 -0.0922 -0.6326 -0.2632
 7038TIP3    H121078   0.387   5.950   5.389 -0.4939  1.1061  0.4803
 7038TIP3    H221079   0.258   5.914   5.460 -0.1415 -0.6891  0.2597
 7039TIP3   OH221080   4.033   3.459   4.462  0.2951 -0.1660  0.0638
 7039TIP3    H121081   3.996   3.530   4.409 -0.8147 -0.4462  0.4598
 7039TIP3    H221082   4.089   3.504   4.525 -0.7294  0.4106  0.5848
 7040TIP3   OH221083   5.768   1.803   4.910 -0.0734 -0.4222  0.3446
 7040TIP3    H121084   5.706   1.741   4.873  0.1735  0.7445 -2.1790
 7040TIP3    H221085   5.844   1.801   4.851 -0.0842  2.2826  0.1032
 7041TIP3   OH221086   2.055   4.446   4.255  0.0401  0.5225 -0.0340
 7041TIP3    H121087   2.005   4.528   4.254 -0.4938  0.2109  0.7554
 7041TIP3    H221088   2.118   4.456   4.184 -1.1426  0.9156 -1.0593
 7042TIP3   OH221089   7.026   3.400   0.324 -0.7993  0.4700 -0.0253
 7042TIP3    H121090   6.950   3.342   0.330 -0.0757 -0.3531  2.9472
 7042TIP3    H221091   7.006   3.459   0.252 -2.9786 -1.4768 -1.1507
 7043TIP3   OH221092   6.883   3.669   2.798 -0.4759  0.6559  0.5868
 7043TIP3    H121093   6.886   3.765   2.804 -0.7244  0.7248 -0.2228
 7043TIP3    H221094   6.803   3.645   2.845  0.6574  0.6481  2.6347
 7044TIP3   OH221095   6.092   2.732   4.745  0.0115 -0.0699  0.1030
 7044TIP3    H121096   6.055   2.656   4.700 -0.4788  1.0428 -1.4336
 7044TIP3    H221097   6.015   2.777   4.781  0.3553 -0.6686  1.7108
 7045TIP3   OH221098   6.068   3.874   0.715  0.5138 -0.7309 -0.1191
 7045TIP3    H121099   5.976   3.895   0.730  0.9867 -0.3580  2.7690
 7045TIP3    H221100   6.067   3.784   0.682 -0.8548 -1.2967  1.3236
 7046TIP3   OH221101   2.148   6.307   0.894 -0.1028 -0.1140  0.2969
 7046TIP3    H121102   2.175   6.386   0.848 -0.2179 -0.5014 -0.4577
 7046TIP3    H221103   2.139   6.333   0.985  4.2308 -0.2504  0.9421
 7047TIP3   OH221104   5.943   2.969   1.153 -0.8467  0.8050  0.2687
 7047TIP3    H121105   5.968   3.046   1.102  2.2661 -0.2810 -0.0359
 7047TIP3    H221106   5.972   2.895   1.101  0.1899 -0.4114  2.4222
 7048TIP3   OH221107   3.590   0.458   0.046 -0.1118  0.3836 -0.0549
 7048TIP3    H121108   3.550   0.407  -0.024 -0.8165  0.5453  0.2184
 7048TIP3    H221109   3.637   0.393   0.099  0.9127  0.3422 -0.9983
 7049TIP3   OH221110   6.801   0.079   4.001 -0.5402 -0.8593  0.7812
 7049TIP3    H121111   6.713   0.090   3.964 -0.7014  0.2607  1.4687
 7049TIP3    H221112   6.860   0.106   3.931 -0.7897 -0.2248  0.8146
 7050TIP3   OH221113   0.095   0.781   2.659 -0.3857 -0.0020  0.1957
 7050TIP3    H121114   0.119   0.748   2.573  0.7937 -1.3587  1.0047
 7050TIP3    H221115   0.025   0.844   2.642 -0.8700 -0.9794 -1.6537
 7051TIP3   OH221116   1.535   3.180   4.505  0.3931  0.3101  0.0850
 7051TIP3    H121117   1.495   3.264   4.482 -2.2846  0.0707  3.1512
 7051TIP3    H221118   1.508   3.165   4.595  1.4453 -3.4943 -0.0810
 7052TIP3   OH221119   4.440   1.222   0.264 -0.0183  0.1444  0.2829
 7052TIP3    H121120   4.533   1.208   0.244  0.0105 -0.4132  0.8055
 7052TIP3    H221121   4.418   1.153   0.325 -1.2384 -0.7876 -1.1489
 7053TIP3   OH221122   1.633   0.136   5.050  0.0464  0.4483 -0.5081
 7053TIP3    H121123   1.726   0.159   5.046  0.7527 -2.0449 -0.0295
 7053TIP3    H221124   1.611   0.110   4.960 -0.0993  0.7161 -0.5501
 7054TIP3   OH221125   0.016   5.477   5.116  0.3098  0.5156  0.1649
 7054TIP3    H121126   0.045   5.474   5.207  0.0173  1.1957  0.2819
 7054TIP3    H221127   0.096   5.468   5.065  0.8057  2.6822  0.4785
 7055TIP3   OH221128   7.032   5.146   2.364  0.4754  0.6868 -0.0129
 7055TIP3    H121129   6.977   5.174   2.438 -0.1615 -3.0520  1.1543
 7055TIP3    H221130   7.049   5.226   2.316 -3.5798  2.5753  1.1776
 7056TIP3   OH221131   1.112   3.302   2.368  0.1773 -0.0127 -0.1584
 7056TIP3    H121132   1.033   3.327   2.319  0.3658  0.4567 -0.2214
 7056TIP3    H221133   1.110   3.357   2.447 -1.2788 -2.2482  1.4956
 7057TIP3   OH221134   3.897   6.235   3.054  0.2873 -0.1764 -0.3775
 7057TIP3    H121135   3.933   6.240   3.143  0.8986  0.0988 -0.6367
 7057TIP3    H221136   3.971   6.254   2.997 -0.8888  3.8678 -0.8625
 7058TIP3   OH221137   3.047   3.865   4.468  0.4915 -0.2943  0.1423
 7058TIP3    H121138   3.028   3.897   4.557 -1.0697  0.5779 -0.4623
 7058TIP3    H221139   3.124   3.810   4.478  0.7861  0.3802  1.9284
 7059TIP3   OH221140   2.934   6.687   4.386 -0.2899  0.0698 -0.4284
 7059TIP3    H121141   2.897   6.766   4.423  0.1600  0.5495 -0.9818
 7059TIP3    H221142   2.862   6.625   4.383 -0.3034 -0.0455  1.3922
 7060TIP3   OH221143   1.362   0.089   4.077  0.2373  0.8545  0.6358
 7060TIP3    H121144   1.306   0.114   4.151 -0.1338 -2.2028  1.4908
 7060TIP3    H221145   1.451   0.110   4.105  0.0523  0.1515  1.7791
 7061TIP3   OH221146   2.115   1.376   2.547  0.2005 -0.2232  0.0173
 7061TIP3    H121147   2.069   1.353   2.466  0.5010 -0.1917 -0.1639
 7061TIP3    H221148   2.192   1.424   2.518  0.9499 -1.2435  0.2453
 7062TIP3   OH221149   3.372   3.355   4.611 -0.3361  0.0015  0.1181
 7062TIP3    H121150   3.283   3.319   4.612 -0.8465  1.1913  1.3958
 7062TIP3    H221151   3.402   3.346   4.701  0.4426  0.5471 -0.0749
 7063TIP3   OH221152   4.721   1.716   1.057 -0.4438 -0.3033 -0.3149
 7063TIP3    H121153   4.647   1.665   1.091  0.4762 -0.9845  0.7404
 7063TIP3    H221154   4.743   1.776   1.128 -0.8958  0.9297 -1.1856
 7064TIP3   OH221155   0.748   1.137   4.251  0.6014  0.6618  0.2549
 7064TIP3    H121156   0.768   1.182   4.170 -1.4374  1.6481  0.2439
 7064TIP3    H221157   0.664   1.174   4.280  0.1498 -1.2488  1.6300
 7065TIP3   OH221158   0.856   3.548   2.807  0.7147  0.4515  0.0958
 7065TIP3    H121159   0.814   3.591   2.733 -0.3839 -0.7528 -0.0167
 7065TIP3    H221160   0.789   3.544   2.875  1.5696  1.1324  1.0126
 7066TIP3   OH221161   4.164   2.686   3.423  0.2152 -0.0289 -0.3444
 7066TIP3    H121162   4.238   2.658   3.477 -0.4859  0.4639  0.9137
 7066TIP3    H221163   4.090   2.633   3.454 -0.0031 -0.4585 -1.5300
 7067TIP3   OH221164   6.822   4.316   1.265 -0.2012 -0.0608  0.3943
 7067TIP3    H121165   6.831   4.408   1.242 -0.7953 -0.0677  0.1271
 7067TIP3    H221166   6.889   4.302   1.331 -0.9716  0.9071  1.4322
 7068TIP3   OH221167   2.649   1.030   0.191 -0.1038 -0.1642 -0.0007
 7068TIP3    H121168   2.641   0.983   0.109 -0.6940  1.3672 -0.8622
 7068TIP3    H221169   2.579   1.095   0.189 -0.0262  0.0128  1.6376
 7069TIP3   OH221170   6.664   4.166   3.914  0.1806 -0.2147 -0.3646
 7069TIP3    H121171   6.588   4.174   3.970  0.0378  1.7707 -0.7630
 7069TIP3    H221172   6.643   4.094   3.855 -0.7133 -0.7022  0.5221
 7070TIP3   OH221173   1.173   5.363   4.943 -0.0077 -0.1655 -0.0649
 7070TIP3    H121174   1.216   5.280   4.968 -0.0682 -0.1095  0.2294
 7070TIP3    H221175   1.208   5.427   5.005 -0.5139 -0.1177  0.1752
 7071TIP3   OH221176   5.019   0.092   0.758 -0.0872  0.8580 -0.2303
 7071TIP3    H121177   5.070   0.171   0.739  0.7423  0.5876  0.8011
 7071TIP3    H221178   5.076   0.039   0.813  0.2307 -1.4505 -2.5796
 7072TIP3   OH221179   1.353   5.551   5.469  0.6272  0.9007  0.0449
 7072TIP3    H121180   1.275   5.605   5.483  0.3053  0.4421  0.0793
 7072TIP3    H221181   1.406   5.600   5.407  0.8237  1.7250  0.8343
 7073TIP3   OH221182   6.791   5.606   4.840  0.4616  0.8558  0.1013
 7073TIP3    H121183   6.839   5.660   4.902  1.3974  0.6174 -0.3774
 7073TIP3    H221184   6.809   5.516   4.868 -0.5911  0.7733  0.5416
 7074TIP3   OH221185   0.164   5.710   3.202  0.0433  0.5799  0.1637
 7074TIP3    H121186   0.186   5.701   3.110 -0.8821 -0.9621  0.0550
 7074TIP3    H221187   0.219   5.782   3.233  0.9689  0.5850 -1.3853
 7075TIP3   OH221188   7.165   4.287   0.519 -0.2550  0.6449  0.0321
 7075TIP3    H121189   7.091   4.299   0.579 -2.5930 -1.0973 -2.2634
 7075TIP3    H221190   7.166   4.367   0.466 -0.4440  0.6984  0.1075
 7076TIP3   OH221191   3.309   2.651   2.125 -0.1667 -0.4878 -0.3145
 7076TIP3    H121192   3.364   2.622   2.198  0.5398  0.9421 -0.2473
 7076TIP3    H221193   3.303   2.746   2.135 -0.0939 -0.2604 -2.0943
 7077TIP3   OH221194   0.447   6.081   0.405 -0.2143  0.4227  0.3326
 7077TIP3    H121195   0.435   6.134   0.483 -0.5704 -0.3081  0.7854
 7077TIP3    H221196   0.386   6.008   0.416 -0.6785  0.6009 -0.8898
 7078TIP3   OH221197   0.661   2.774   3.589 -0.0370  0.0812  0.2890
 7078TIP3    H121198   0.635   2.839   3.524 -1.6694 -2.4666 -1.8228
 7078TIP3    H221199   0.578   2.737   3.620  0.8235 -0.9007  1.5147
 7079TIP3   OH221200   6.120   5.734   1.516  0.4778 -0.5167  0.2005
 7079TIP3    H121201   6.175   5.763   1.444  0.7047  3.9079  1.7896
 7079TIP3    H221202   6.169   5.663   1.557  2.2587 -0.4606 -1.6593
 7080TIP3   OH221203   3.075   5.082   1.324  0.1935 -0.1730 -0.5278
 7080TIP3    H121204   3.055   5.043   1.239 -0.1764 -1.8101  0.2593
 7080TIP3    H221205   2.992   5.120   1.352 -0.3078 -1.6435  0.0738
 7081TIP3   OH221206   4.868   0.590   5.641  0.3566  0.4547  0.9580
 7081TIP3    H121207   4.946   0.645   5.634  0.9937 -0.6018 -0.6996
 7081TIP3    H221208   4.815   0.615   5.566  1.5514 -2.4645 -1.0164
 7082TIP3   OH221209   6.351   3.278   2.503 -0.1004  0.0917  0.3438
 7082TIP3    H121210   6.405   3.353   2.528  0.1453  0.0212  0.0261
 7082TIP3    H221211   6.410   3.221   2.454  0.0902 -0.9360  1.6877
 7083TIP3   OH221212   3.536   2.697   4.651 -0.8770  0.0506  0.2331
 7083TIP3    H121213   3.575   2.776   4.613 -0.9152  0.2509  0.6032
 7083TIP3    H221214   3.442   2.718   4.658 -1.0904 -0.5081 -0.8505
 7084TIP3   OH221215   0.366   4.495   3.906 -0.2900 -0.3259 -0.3815
 7084TIP3    H121216   0.324   4.494   3.992 -0.4853  0.4730 -0.4600
 7084TIP3    H221217   0.456   4.469   3.923 -0.1104  0.6110  0.1963
 7085TIP3   OH221218   1.400   3.868   0.933 -0.0117 -0.1972  0.4723
 7085TIP3    H121219   1.447   3.790   0.902  0.8064  0.2903  0.4629
 7085TIP3    H221220   1.462   3.913   0.989 -0.2047  0.8409 -0.1168
 7086TIP3   OH221221   2.096   1.718   5.698  0.4866  0.1977  0.0709
 7086TIP3    H121222   2.047   1.679   5.771 -1.3364 -0.2744 -1.3135
 7086TIP3    H221223   2.175   1.664   5.690  1.2531  0.9153  2.3159
 7087TIP3   OH221224   4.589   0.336   5.639 -0.0804  0.4427  0.3709
 7087TIP3    H121225   4.566   0.256   5.590  2.5754  1.1887 -2.4580
 7087TIP3    H221226   4.676   0.317   5.674  0.7736  2.1477 -0.7053
 7088TIP3   OH221227   5.015   6.261   3.684  0.5850  0.0804  0.0084
 7088TIP3    H121228   5.039   6.222   3.600  0.4977  0.6470 -0.2859
 7088TIP3    H221229   5.067   6.213   3.749 -0.7201 -1.6164 -0.1414
 7089TIP3   OH221230   6.749   2.099   2.860 -0.1811 -0.1988 -0.3958
 7089TIP3    H121231   6.795   2.074   2.780  0.8279  1.4783 -0.3814
 7089TIP3    H221232   6.701   2.178   2.837 -0.2154  0.0640  0.5547
 7090TIP3   OH221233   3.206   4.584   3.969  0.0751  0.2798  0.1466
 7090TIP3    H121234   3.150   4.651   3.930  0.1118  0.3130  0.1505
 7090TIP3    H221235   3.195   4.507   3.914  1.4559  0.8236 -0.9577
 7091TIP3   OH221236   0.742   4.676   4.331 -0.2616 -0.1455 -0.0636
 7091TIP3    H121237   0.677   4.636   4.273  1.2051 -2.5611 -0.1755
 7091TIP3    H221238   0.801   4.724   4.272 -0.0546 -0.7250 -0.3326
 7092TIP3   OH221239   4.845   1.135   4.767 -0.4101 -0.1246 -0.6054
 7092TIP3    H121240   4.867   1.189   4.843 -0.6183  2.3459 -2.2119
 7092TIP3    H221241   4.752   1.117   4.776 -1.0102  2.2731 -1.4720
 7093TIP3   OH221242   6.759   6.067   1.097  0.2209  0.3205  0.2810
 7093TIP3    H121243   6.821   5.996   1.082  0.7402  1.1221 -1.8076
 7093TIP3    H221244   6.681   6.024   1.132  1.1443 -1.0098  0.7892
 7094TIP3   OH221245   2.005   3.502   1.695 -0.1233  0.6563 -0.5015
 7094TIP3    H121246   1.912   3.516   1.677 -0.4092 -0.6336 -0.1258
 7094TIP3    H221247   2.011   3.502   1.790 -1.0293 -5.8568  0.0463
 7095TIP3   OH221248   5.407   2.317   5.739 -0.5430 -0.7152 -0.1751
 7095TIP3    H121249   5.442   2.245   5.791 -1.9953 -1.0810  0.3371
 7095TIP3    H221250   5.316   2.327   5.768 -0.2086  1.7888  0.2690
 7096TIP3   OH221251   5.217   1.306   1.576  0.1804  0.7388 -0.7433
 7096TIP3    H121252   5.139   1.266   1.613 -0.6795  1.0940 -2.0929
 7096TIP3    H221253   5.244   1.371   1.641 -1.0361  1.0576 -0.5329
 7097TIP3   OH221254   4.201   4.220   3.138  0.6725 -0.7864 -0.2815
 7097TIP3    H121255   4.238   4.141   3.099  3.4841  1.1209 -1.8113
 7097TIP3    H221256   4.277   4.272   3.163 -0.9968  2.2521 -1.0760
 7098TIP3   OH221257   6.926   3.722   3.955 -0.5347 -0.0033  0.5502
 7098TIP3    H121258   6.950   3.787   3.889  0.1344 -1.1994 -0.4362
 7098TIP3    H221259   6.966   3.640   3.923 -1.1814 -0.8529  1.8459
 7099TIP3   OH221260   2.527   0.107   1.229 -0.1212 -0.4941 -0.1770
 7099TIP3    H121261   2.445   0.082   1.273 -1.0054  0.3741 -1.2770
 7099TIP3    H221262   2.592   0.108   1.300 -0.8197 -2.1515  0.5588
 7100TIP3   OH221263   0.946   4.236   2.125 -0.6946  0.2443 -0.1376
 7100TIP3    H121264   0.871   4.296   2.119  0.2062  1.8182  2.3714
 7100TIP3    H221265   0.914   4.163   2.178 -0.4626  1.0659  1.2036
 7101TIP3   OH221266   0.340   1.360   0.537 -0.1715 -0.4264 -1.1134
 7101TIP3    H121267   0.246   1.344   0.546 -0.3520  0.5645 -1.1806
 7101TIP3    H221268   0.373   1.281   0.493 -0.6121 -1.7193  0.7361
 7102TIP3   OH221269   4.847   0.735   3.843 -0.3014 -0.1176 -0.2432
 7102TIP3    H121270   4.870   0.651   3.883 -0.7603 -0.7578 -1.3086
 7102TIP3    H221271   4.823   0.790   3.918 -0.4125 -1.0607  0.4386
 7103TIP3   OH221272   3.752   4.850   1.578 -0.2065  0.2271  0.1684
 7103TIP3    H121273   3.768   4.932   1.531  2.3309  0.5377  1.3775
 7103TIP3    H221274   3.783   4.868   1.667  0.0079 -1.8944  0.5698
 7104TIP3   OH221275   2.915   2.342   4.111 -0.7379 -0.5006 -0.0683
 7104TIP3    H121276   2.908   2.337   4.016 -1.2903 -0.2489 -0.0411
 7104TIP3    H221277   2.868   2.421   4.135  0.9084  0.4143  0.2700
 7105TIP3   OH221278   6.962   2.283   1.874  0.3214  0.2378  0.3206
 7105TIP3    H121279   6.989   2.264   1.964 -0.2788  1.3088  0.7510
 7105TIP3    H221280   7.044   2.307   1.830  0.8042 -1.4274  0.2400
 7106TIP3   OH221281   6.626   1.498   2.637 -0.0780  0.3130 -0.4493
 7106TIP3    H121282   6.576   1.578   2.622  0.3979  0.6309 -0.3408
 7106TIP3    H221283   6.710   1.514   2.595  0.9606  0.8557  1.7180
 7107TIP3   OH221284   4.860   3.999   2.269 -0.0654  0.4973 -0.1624
 7107TIP3    H121285   4.936   3.941   2.272 -1.2606 -1.2302 -1.6614
 7107TIP3    H221286   4.884   4.072   2.327  1.3566 -1.6218  2.1283
 7108TIP3   OH221287   0.522   2.232   5.832 -0.6205  0.2873 -0.1168
 7108TIP3    H121288   0.544   2.255   5.922 -2.1893  0.0955  0.3428
 7108TIP3    H221289   0.477   2.309   5.797 -0.1874  0.2909 -0.6718
 7109TIP3   OH221290   4.107   2.441   4.280  0.0115  0.2122  0.0466
 7109TIP3    H121291   4.123   2.403   4.193  0.3910 -0.0071  0.2102
 7109TIP3    H221292   4.085   2.532   4.262 -0.9662 -0.0904 -0.3560
 7110TIP3   OH221293   0.146   3.104   1.015  0.2073  0.3701  0.2129
 7110TIP3    H121294   0.147   3.181   0.958 -0.0797 -1.2021 -2.0510
 7110TIP3    H221295   0.055   3.096   1.043  0.3557  1.1819  0.9458
 7111TIP3   OH221296   4.384   0.153   0.920 -0.1649 -0.0119 -0.3133
 7111TIP3    H121297   4.449   0.088   0.892 -0.0389  0.2961 -0.7523
 7111TIP3    H221298   4.426   0.237   0.905 -0.4926  0.1814 -0.1568
 7112TIP3   OH221299   4.128   1.322   4.864 -0.5809  0.1904 -0.1501
 7112TIP3    H121300   4.174   1.258   4.918  2.7527  2.5353  0.0479
 7112TIP3    H221301   4.080   1.377   4.927 -2.3753 -1.1544 -0.2377
 7113TIP3   OH221302   6.043   4.428   2.514  0.7124  0.0870 -0.3447
 7113TIP3    H121303   6.085   4.404   2.431  0.6785 -1.6858  0.1166
 7113TIP3    H221304   6.099   4.389   2.581 -0.3259 -0.1768  0.3862
 7114TIP3   OH221305   1.397   3.211   3.647  0.1862 -0.0847 -0.2514
 7114TIP3    H121306   1.430   3.147   3.584  2.0598  0.4909  0.0704
 7114TIP3    H221307   1.465   3.216   3.714  0.4694  2.7157 -0.6075
 7115TIP3   OH221308   0.416   6.647   0.765 -0.1807  0.2472 -0.7882
 7115TIP3    H121309   0.484   6.676   0.827 -0.5173  2.4075 -1.3298
 7115TIP3    H221310   0.437   6.694   0.684 -0.5265 -1.5035 -1.9261
 7116TIP3   OH221311   1.541   5.899   1.208  0.0112 -0.4745 -0.2328
 7116TIP3    H121312   1.632   5.925   1.195  0.1799 -0.8224  0.2262
 7116TIP3    H221313   1.542   5.803   1.206 -0.4735 -0.4723 -1.0401
 7117TIP3   OH221314   4.185   2.330   4.036 -0.3535 -0.5716 -0.7379
 7117TIP3    H121315   4.132   2.333   3.957 -0.0743  1.0329 -0.9010
 7117TIP3    H221316   4.276   2.334   4.003 -0.2468  0.4296 -0.3392
 7118TIP3   OH221317   0.455   6.805   0.542 -0.3029 -0.5270  0.1815
 7118TIP3    H121318   0.372   6.844   0.516 -0.5566 -1.0539  0.1880
 7118TIP3    H221319   0.459   6.722   0.494  0.3111 -0.4123  0.0291
 7119TIP3   OH221320   6.764   6.617   0.255  0.2009  0.3991 -0.6531
 7119TIP3    H121321   6.746   6.533   0.297  0.9521  0.9220  0.7729
 7119TIP3    H221322   6.677   6.653   0.236 -0.2061  0.3564  0.9438
 7120TIP3   OH221323   2.710   5.346   4.484  0.0857 -0.4496 -0.1636
 7120TIP3    H121324   2.646   5.320   4.550  0.5443  0.4189  0.6641
 7120TIP3    H221325   2.658   5.384   4.413 -0.3353  0.2550  0.5023
 7121TIP3   OH221326   1.737   3.515   1.678  0.6404 -0.3303 -0.0292
 7121TIP3    H121327   1.715   3.605   1.655  0.3265 -0.0435  1.3170
 7121TIP3    H221328   1.662   3.464   1.648 -0.4260  0.2194  1.5807
 7122TIP3   OH221329   1.005   2.814   2.665 -0.4298 -0.0350  0.4844
 7122TIP3    H121330   1.091   2.777   2.644  1.2207  3.0682  1.2281
 7122TIP3    H221331   0.966   2.834   2.580  0.1819 -0.2486  0.1487
 7123TIP3   OH221332   2.838   3.896   1.412 -0.3318  0.2512 -0.5975
 7123TIP3    H121333   2.883   3.850   1.341  0.2178  0.3488 -0.3165
 7123TIP3    H221334   2.840   3.988   1.386 -0.9991  0.1749 -0.9250
 7124TIP3   OH221335   4.811   3.252   0.176 -0.4624  0.1831 -0.6319
 7124TIP3    H121336   4.902   3.229   0.161  0.5631  1.5837  2.6530
 7124TIP3    H221337   4.780   3.186   0.239 -0.5332  1.7647  1.0622
 7125TIP3   OH221338   1.542   3.838   5.288 -0.7328  0.0835 -0.1190
 7125TIP3    H121339   1.636   3.857   5.295 -1.2044  2.5659  0.4868
 7125TIP3    H221340   1.524   3.841   5.194 -0.3185  0.3853 -0.1930
 7126TIP3   OH221341   1.137   2.633   1.794 -0.7613  0.0731 -0.4389
 7126TIP3    H121342   1.181   2.666   1.873 -0.6958  1.2273 -0.9399
 7126TIP3    H221343   1.087   2.557   1.825 -0.0420 -0.0290  0.5356
 7127TIP3   OH221344   3.743   3.927   4.605  0.1474  0.0983 -0.1565
 7127TIP3    H121345   3.701   3.941   4.520 -0.7861 -1.6447 -0.0383
 7127TIP3    H221346   3.837   3.934   4.587 -0.0304 -0.3521 -1.3715
 7128TIP3   OH221347   5.207   6.711   4.851 -0.0676  0.0779  0.2566
 7128TIP3    H121348   5.183   6.710   4.944  2.6888  0.0933  1.0422
 7128TIP3    H221349   5.169   6.792   4.817 -0.2296  0.6082  1.6418
 7129TIP3   OH221350   2.276   1.916   5.786  0.0421  0.0080  0.5314
 7129TIP3    H121351   2.203   1.862   5.754  2.0779 -1.5712 -1.8272
 7129TIP3    H221352   2.251   2.005   5.765 -0.7635 -0.5991 -1.2429
 7130TIP3   OH221353   6.225   3.491   4.775 -1.1222 -0.4073 -0.2437
 7130TIP3    H121354   6.150   3.502   4.716 -1.3671 -0.6036  0.0256
 7130TIP3    H221355   6.260   3.579   4.786 -0.9147 -0.4101 -0.8883
 7131TIP3   OH221356   1.074   6.147   2.304 -0.0179 -0.1653 -0.4963
 7131TIP3    H121357   1.163   6.180   2.316 -0.2674  0.3431  0.0158
 7131TIP3    H221358   1.072   6.065   2.354 -0.0328  0.1776  0.0719
 7132TIP3   OH221359   1.002   3.083   0.898 -0.3096 -0.7325  0.4592
 7132TIP3    H121360   1.046   3.124   0.824 -1.0232 -0.0246  0.4065
 7132TIP3    H221361   1.072   3.048   0.952  0.4174  1.6025  1.1137
 7133TIP3   OH221362   1.264   3.470   0.675 -0.1009  0.0510  0.1705
 7133TIP3    H121363   1.261   3.494   0.768 -0.1571  1.6463 -0.2164
 7133TIP3    H221364   1.348   3.502   0.644 -0.1150 -0.4007 -0.3673
 7134TIP3   OH221365   6.405   0.901   5.109  0.3813  0.1587 -0.4420
 7134TIP3    H121366   6.351   0.879   5.185 -0.1049 -0.0621 -0.8400
 7134TIP3    H221367   6.380   0.836   5.043  0.6314  0.4851 -0.8616
 7135TIP3   OH221368   6.075   5.132   3.229  0.2194 -0.7567  0.2036
 7135TIP3    H121369   6.081   5.162   3.320 -0.8814 -0.2558  0.1246
 7135TIP3    H221370   5.996   5.175   3.195 -0.1037 -1.9537 -0.6052
 7136TIP3   OH221371   6.968   5.470   3.056 -0.5280 -0.2062  0.9147
 7136TIP3    H121372   7.053   5.429   3.073 -0.3465 -0.2795 -0.0940
 7136TIP3    H221373   6.990   5.560   3.032 -0.7382 -0.1919  0.7718
 7137TIP3   OH221374   4.087   6.654   4.988 -0.4236 -0.3326  0.0521
 7137TIP3    H121375   4.168   6.610   5.014 -0.0374 -0.3584 -1.1391
 7137TIP3    H221376   4.095   6.665   4.893 -1.6560 -0.0006 -0.0293
 7138TIP3   OH221377   4.119   0.688   2.600 -0.1098 -0.0469  0.0045
 7138TIP3    H121378   4.145   0.660   2.512  0.5352  0.0559  0.1545
 7138TIP3    H221379   4.124   0.608   2.653  1.8888  0.3276  0.4676
 7139TIP3   OH221380   1.600   6.117   2.462  0.6719 -0.3853  0.0323
 7139TIP3    H121381   1.626   6.048   2.401  0.0589 -0.9509  0.3932
 7139TIP3    H221382   1.651   6.193   2.435 -0.0327 -0.4383 -1.5985
 7140TIP3   OH221383   3.061   5.419   2.779  0.1134 -0.5412 -0.1700
 7140TIP3    H121384   2.983   5.376   2.745  0.5381 -0.9156 -0.6826
 7140TIP3    H221385   3.100   5.463   2.703  0.1270  0.0653  0.1828
 7141TIP3   OH221386   0.103   3.488   0.146  0.0689  0.4747  0.2930
 7141TIP3    H121387   0.032   3.547   0.121 -0.7234 -1.0072 -1.1761
 7141TIP3    H221388   0.182   3.542   0.143 -1.0393  2.5138  3.2048
 7142TIP3   OH221389   0.930   4.834   3.740  0.4548  0.1880 -0.1431
 7142TIP3    H121390   0.958   4.743   3.752 -1.6162 -0.4294  0.3244
 7142TIP3    H221391   0.916   4.842   3.646 -1.1185 -0.5506  0.0103
 7143TIP3   OH221392   5.761   5.536   1.546  0.3704 -0.3557  0.2828
 7143TIP3    H121393   5.831   5.517   1.609 -0.7107  1.2709  2.0784
 7143TIP3    H221394   5.792   5.613   1.498  1.0186 -1.3579 -0.9680
 7144TIP3   OH221395   2.836   6.419   5.672  0.0750  0.0961 -0.0293
 7144TIP3    H121396   2.777   6.399   5.599  2.4937  0.7765 -2.3263
 7144TIP3    H221397   2.906   6.354   5.665  0.7984  0.7203  1.1643
 7145TIP3   OH221398   2.054   3.127   5.871 -0.2039  0.4341  0.1996
 7145TIP3    H121399   2.006   3.114   5.789 -0.9959 -0.3791  0.7758
 7145TIP3    H221400   2.054   3.222   5.884 -2.7841  0.4196  0.8112
 7146TIP3   OH221401   0.450   1.753   5.029  0.0392  0.2381 -0.1560
 7146TIP3    H121402   0.393   1.794   4.964 -0.8000 -0.7288 -0.0538
 7146TIP3    H221403   0.462   1.820   5.096  1.0431  1.3122 -1.3436
 7147TIP3   OH221404   6.851   4.975   4.934 -0.3942  0.2742  0.2799
 7147TIP3    H121405   6.884   4.939   5.016 -0.6762 -1.1211 -0.1811
 7147TIP3    H221406   6.757   4.956   4.936 -0.4687  0.5691 -0.1926
 7148TIP3   OH221407   2.621   0.566   1.624  0.3224  0.1009  0.0675
 7148TIP3    H121408   2.715   0.552   1.611  0.0571 -0.6365 -1.1232
 7148TIP3    H221409   2.581   0.480   1.613 -0.6553  0.6660 -1.0634
 7149TIP3   OH221410   3.214   1.910   0.772  0.0714 -0.4760  0.0290
 7149TIP3    H121411   3.292   1.953   0.738 -0.5217  0.5718 -0.0888
 7149TIP3    H221412   3.176   1.975   0.832 -0.4583 -1.1439  0.4360
 7150TIP3   OH221413   2.491   0.732   4.614  0.3092  0.4789  0.6940
 7150TIP3    H121414   2.573   0.721   4.661 -0.7563  0.8262  2.7567
 7150TIP3    H221415   2.464   0.822   4.633 -0.9483  0.1088  0.7659
 7151TIP3   OH221416   4.324   3.792   2.437  0.2902 -0.2888  0.0071
 7151TIP3    H121417   4.342   3.770   2.529 -2.2607 -2.1903  0.1494
 7151TIP3    H221418   4.409   3.782   2.393  0.9350 -2.5745  1.6051
 7152TIP3   OH221419   0.707   1.466   2.869 -0.2573  0.0737  0.1215
 7152TIP3    H121420   0.774   1.398   2.878  0.5766  0.7694 -0.5128
 7152TIP3    H221421   0.702   1.482   2.774  0.8982  2.1223  0.3452
 7153TIP3   OH221422   4.070   5.757   0.720 -0.0394  0.1980 -0.2617
 7153TIP3    H121423   4.028   5.761   0.806  0.6184 -2.1319  0.2341
 7153TIP3    H221424   4.155   5.716   0.736  0.4213  0.4218 -1.9202
 7154TIP3   OH221425   2.211   0.595   1.150 -0.2856  0.2676  0.3429
 7154TIP3    H121426   2.188   0.637   1.067 -2.1988 -2.1427 -0.4852
 7154TIP3    H221427   2.292   0.548   1.131 -1.0101 -0.7293 -0.3700
 7155TIP3   OH221428   3.568   5.039   3.577 -0.4792  0.2473  0.0281
 7155TIP3    H121429   3.476   5.020   3.594 -0.2546 -0.4016  0.5947
 7155TIP3    H221430   3.613   4.957   3.596  0.0869  0.2044 -1.4317
 7156TIP3   OH221431   2.052   5.241   1.020 -0.6323 -0.3082 -0.0715
 7156TIP3    H121432   2.114   5.265   0.952 -1.0290  0.1983 -0.2662
 7156TIP3    H221433   2.064   5.308   1.088  1.1929 -1.9270  1.3248
 7157TIP3   OH221434   4.161   1.145   5.823 -0.3742 -0.7108 -0.4030
 7157TIP3    H121435   4.081   1.177   5.865  0.3497  0.4343  0.1535
 7157TIP3    H221436   4.183   1.064   5.869 -0.1320  0.0138  0.7928
 7158TIP3   OH221437   0.198   4.811   3.089 -0.6547 -0.2348 -0.5113
 7158TIP3    H121438   0.179   4.760   3.168 -0.9897 -1.0842 -1.1205
 7158TIP3    H221439   0.135   4.883   3.092 -1.3462 -0.8212 -0.4988
 7159TIP3   OH221440   5.125   1.886   1.366  1.0206  0.2210  0.0080
 7159TIP3    H121441   5.154   1.796   1.347 -0.0288 -0.1589  0.1827
 7159TIP3    H221442   5.166   1.906   1.450  2.2951  0.3946 -0.6153
 7160TIP3   OH221443   4.553   2.104   5.422  0.3069  0.1938  0.7660
 7160TIP3    H121444   4.645   2.077   5.413  0.1174 -1.4906  2.9855
 7160TIP3    H221445   4.512   2.076   5.340  1.9045  1.9117 -0.7171
 7161TIP3   OH221446   3.780   5.288   4.330  0.5388 -0.0232  0.1244
 7161TIP3    H121447   3.712   5.282   4.398  2.0401  1.1283  1.8428
 7161TIP3    H221448   3.755   5.363   4.277  0.4714  0.4030  0.7522
 7162TIP3   OH221449   5.521   3.898   4.870  0.2485  0.3688 -0.0903
 7162TIP3    H121450   5.471   3.855   4.939 -1.4332  2.2716 -0.0481
 7162TIP3    H221451   5.523   3.835   4.798 -0.6195 -0.4458  0.5850
 7163TIP3   OH221452   6.893   6.333   5.412 -0.3143 -0.6325 -0.6713
 7163TIP3    H121453   6.869   6.350   5.503  3.2723  2.8873 -0.0530
 7163TIP3    H221454   6.826   6.379   5.361  0.0432  1.3468  0.5080
 7164TIP3   OH221455   0.402   4.054   3.178 -0.2653 -0.1942 -0.2209
 7164TIP3    H121456   0.383   4.086   3.089 -0.3713  0.6592  0.1024
 7164TIP3    H221457   0.334   3.989   3.195 -0.9473  0.4806 -0.3260
 7165TIP3   OH221458   1.739  -0.016   0.972  0.1899 -0.5638  0.1019
 7165TIP3    H121459   1.826  -0.024   0.933  0.9516  0.2121  1.5524
 7165TIP3    H221460   1.741   0.067   1.019 -1.6873 -0.0489 -0.6376
 7166TIP3   OH221461   0.655   5.089   3.197  0.1561 -0.0341  0.5212
 7166TIP3    H121462   0.684   5.150   3.265  0.2895  0.3577  0.1126
 7166TIP3    H221463   0.725   5.090   3.132 -0.4569  0.4102 -0.1456
 7167TIP3   OH221464   4.763   1.682   5.837 -1.1429 -0.2945 -0.0927
 7167TIP3    H121465   4.768   1.755   5.898 -0.4625  0.0111 -0.5010
 7167TIP3    H221466   4.679   1.693   5.792 -1.3658 -0.1760  0.3569
 7168TIP3   OH221467   0.859   2.849   1.446 -0.2194  0.0248  0.2752
 7168TIP3    H121468   0.900   2.865   1.531 -0.3094 -0.2606  0.3750
 7168TIP3    H221469   0.876   2.756   1.428  1.3516  0.4767 -0.8527
 7169TIP3   OH221470   1.596   0.865   0.265 -0.2605 -0.2575 -0.3856
 7169TIP3    H121471   1.573   0.952   0.297  0.0174 -0.6020  0.8219
 7169TIP3    H221472   1.688   0.872   0.240 -0.6718  0.1983 -1.8162
 7170TIP3   OH221473   6.926   4.108   2.586  0.0710  0.1728 -0.0813
 7170TIP3    H121474   6.930   4.022   2.546 -1.3387  0.0025  0.0993
 7170TIP3    H221475   6.991   4.106   2.656 -0.0890 -0.8084  0.0437
 7171TIP3   OH221476   5.458   6.317   0.895 -0.2386  0.1869 -0.1934
 7171TIP3    H121477   5.485   6.345   0.808  0.4523  3.9599  1.0504
 7171TIP3    H221478   5.459   6.222   0.891  1.1878  0.1946 -3.8353
 7172TIP3   OH221479   3.073   2.176   0.935 -0.5224  0.7371 -0.1335
 7172TIP3    H121480   3.078   2.234   0.859 -1.3983 -0.2411 -0.9580
 7172TIP3    H221481   3.006   2.216   0.990 -1.2264  0.4404 -0.7654
 7173TIP3   OH221482   7.104   6.344   0.173  0.1193  0.1042  0.7380
 7173TIP3    H121483   7.035   6.401   0.207 -0.3209 -0.0903  0.1895
 7173TIP3    H221484   7.158   6.324   0.250  0.1530  1.0649  0.9790
 7174TIP3   OH221485   2.265   1.784   2.434 -0.5995  0.6132  0.3917
 7174TIP3    H121486   2.233   1.772   2.524 -0.8909  1.2048  0.3726
 7174TIP3    H221487   2.186   1.781   2.380 -0.4712  0.7229  0.1979
 7175TIP3   OH221488   6.761   5.084   0.509  0.0777  0.2992 -0.5614
 7175TIP3    H121489   6.670   5.089   0.479  0.3476  4.1604 -1.2751
 7175TIP3    H221490   6.761   5.129   0.593  1.5935  2.5285 -1.6526
 7176TIP3   OH221491   2.625   2.445   2.793  0.1619  0.6223  0.5261
 7176TIP3    H121492   2.567   2.371   2.773  1.5094  0.1739 -2.1690
 7176TIP3    H221493   2.624   2.498   2.713  3.4628  0.5552  0.3257
 7177TIP3   OH221494   3.421   4.172   1.363 -0.6752 -0.3563 -0.1264
 7177TIP3    H121495   3.363   4.248   1.367  0.6278  0.6412  1.1922
 7177TIP3    H221496   3.419   4.145   1.271 -1.2046  1.2767 -0.6290
 7178TIP3   OH221497   6.173   1.438   5.158 -0.0329 -0.1307  0.4480
 7178TIP3    H121498   6.233   1.401   5.223 -0.1854  0.5857  1.0095
 7178TIP3    H221499   6.157   1.367   5.097  2.6249  0.0776 -0.6168
 7179TIP3   OH221500   0.066   0.045   4.804 -0.0931  0.1600 -0.1173
 7179TIP3    H121501   0.152   0.073   4.775  0.0005  0.5481  0.5236
 7179TIP3    H221502   0.009   0.120   4.785  0.1692  0.8738  1.6584
 7180TIP3   OH221503   4.232   1.405   2.436  0.3567 -0.2025 -0.1804
 7180TIP3    H121504   4.299   1.399   2.367 -1.4430 -2.2379 -1.9355
 7180TIP3    H221505   4.261   1.477   2.492  2.2305  1.2195 -2.7556
 7181TIP3   OH221506   6.549   0.175   2.829  0.4260 -0.0978 -0.3147
 7181TIP3    H121507   6.454   0.187   2.828  0.4870  0.3827 -1.0209
 7181TIP3    H221508   6.581   0.235   2.896  0.4088  1.3025 -1.4994
 7182TIP3   OH221509   3.126   4.642   0.376 -0.1195  0.0034 -0.0580
 7182TIP3    H121510   3.108   4.566   0.432 -1.1428 -1.3415 -2.0560
 7182TIP3    H221511   3.219   4.635   0.356 -0.1465 -0.5933 -0.0049
 7183TIP3   OH221512   6.474   2.999   4.276  0.4396  0.2503  0.9647
 7183TIP3    H121513   6.545   2.951   4.319  0.8286  0.9357  1.0914
 7183TIP3    H221514   6.484   3.089   4.306  0.8531  0.8002 -0.7095
 7184TIP3   OH221515   6.110   6.396   1.795  0.1376 -0.3385  0.4061
 7184TIP3    H121516   6.040   6.373   1.857  1.3804  0.9310  2.3773
 7184TIP3    H221517   6.076   6.472   1.748 -0.8325 -1.3379 -0.5971
 7185TIP3   OH221518   2.423   6.380   2.934  0.1918  0.6355 -0.0561
 7185TIP3    H121519   2.392   6.465   2.964 -2.7695 -0.1359 -0.5755
 7185TIP3    H221520   2.431   6.328   3.014 -1.4010  0.4547  0.0259
 7186TIP3   OH221521   6.755   1.523   0.792 -0.0132 -0.0623 -0.0958
 7186TIP3    H121522   6.690   1.543   0.725  0.7818 -0.0136 -0.8703
 7186TIP3    H221523   6.705   1.481   0.862 -1.0921  1.1199 -0.1014
 7187TIP3   OH221524   2.432   4.529   2.954  0.6139 -0.2937  0.0138
 7187TIP3    H121525   2.349   4.523   3.003 -0.1433 -1.7961 -1.3296
 7187TIP3    H221526   2.416   4.597   2.889  0.6688 -0.1254  0.1766
 7188TIP3   OH221527   1.332   2.038   4.698 -0.1799 -0.3882 -0.1857
 7188TIP3    H121528   1.272   1.963   4.690  0.9362 -1.2308 -1.1100
 7188TIP3    H221529   1.335   2.074   4.609 -0.6097  0.7019  0.2293
 7189TIP3   OH221530   1.895   5.579   0.922  0.1404 -0.2079 -0.7353
 7189TIP3    H121531   1.970   5.617   0.969  0.3459 -3.2003  1.6908
 7189TIP3    H221532   1.934   5.531   0.849  0.4244 -0.3556 -0.4880
 7190TIP3   OH221533   1.102   6.344   0.400  0.5867 -0.6792 -0.0454
 7190TIP3    H121534   1.038   6.402   0.358  0.5254 -0.3501  0.4864
 7190TIP3    H221535   1.075   6.342   0.492  0.7279 -1.3725 -0.0190
 7191TIP3   OH221536   1.258   4.413   4.010 -0.2424 -0.0747  0.2658
 7191TIP3    H121537   1.216   4.408   4.096 -0.7639 -1.3510 -0.0400
 7191TIP3    H221538   1.304   4.497   4.011  0.9261 -0.6620  2.3082
 7192TIP3   OH221539   6.382   3.615   1.498  0.2006 -0.6809  0.0110
 7192TIP3    H121540   6.447   3.681   1.474  0.1415 -0.7233 -0.2754
 7192TIP3    H221541   6.421   3.532   1.468  0.0667 -0.7201 -0.0564
 7193TIP3   OH221542   7.120   4.523   0.358 -0.0543 -0.1000 -0.1581
 7193TIP3    H121543   7.115   4.604   0.308  0.2971  0.3081  0.4512
 7193TIP3    H221544   7.035   4.515   0.400  0.0218  0.1241  0.0389
 7194TIP3   OH221545   5.323   6.802   0.097  0.3159  0.0582  0.2826
 7194TIP3    H121546   5.334   6.750   0.017 -0.6333  2.4359 -1.5510
 7194TIP3    H221547   5.378   6.759   0.162 -0.9511 -3.5530 -0.8138
 7195TIP3   OH221548   0.164   1.714   5.831 -0.7954  0.2555 -0.5550
 7195TIP3    H121549   0.185   1.674   5.915  0.0014  0.6586 -0.5527
 7195TIP3    H221550   0.185   1.647   5.766 -0.9384  0.1200 -0.4605
 7196TIP3   OH221551   2.314   0.502   2.719 -0.4421 -0.5332  0.0389
 7196TIP3    H121552   2.230   0.501   2.673 -0.8420 -0.1168  0.7370
 7196TIP3    H221553   2.375   0.544   2.658  0.0379 -3.5744 -1.7291
 7197TIP3   OH221554   0.885   4.657   1.796 -0.0033 -0.3642  0.3286
 7197TIP3    H121555   0.840   4.635   1.878 -0.6707 -0.2406  0.0042
 7197TIP3    H221556   0.939   4.580   1.777  0.8814 -0.0228  1.3604
 7198TIP3   OH221557   0.627   3.478   0.364 -0.0845 -0.1745 -0.0348
 7198TIP3    H121558   0.636   3.467   0.459 -1.7494  0.3151  0.2119
 7198TIP3    H221559   0.533   3.489   0.350 -0.0840 -1.9189 -1.9327
 7199TIP3   OH221560   4.143   5.576   3.266 -0.0620 -0.3019 -0.4248
 7199TIP3    H121561   4.179   5.633   3.198  0.3866  0.1938  0.2158
 7199TIP3    H221562   4.050   5.570   3.245  0.1182 -0.3566 -1.2221
 7200TIP3   OH221563   5.039   4.437   0.157  0.1106 -1.0279  0.1519
 7200TIP3    H121564   5.069   4.520   0.194 -1.5566  0.8363 -2.3336
 7200TIP3    H221565   5.082   4.432   0.072 -2.4335 -0.8800 -1.2296
 7201TIP3   OH221566   1.906   0.251   1.639  0.0665  0.0238 -0.5837
 7201TIP3    H121567   1.968   0.188   1.675  0.6441 -0.6145 -2.5677
 7201TIP3    H221568   1.955   0.334   1.640 -0.7230  0.5585  2.1012
 7202TIP3   OH221569   6.225   3.642   1.253 -0.0573 -0.4185  0.5002
 7202TIP3    H121570   6.281   3.617   1.326 -0.5667 -1.0131  0.7006
 7202TIP3    H221571   6.142   3.667   1.294  0.4505  1.8160  0.3313
 7203TIP3   OH221572   2.111   1.025   3.262  0.1811 -0.1358  0.5441
 7203TIP3    H121573   2.075   1.030   3.350  1.0300 -1.2909  0.9851
 7203TIP3    H221574   2.164   0.946   3.262 -0.0011 -0.2959 -1.0919
 7204TIP3   OH221575   5.708   3.110   5.664 -0.0795 -0.4059  0.1687
 7204TIP3    H121576   5.752   3.119   5.579 -0.6425 -1.2102 -0.2245
 7204TIP3    H221577   5.716   3.017   5.685  1.2293  0.0036  1.6689
 7205TIP3   OH221578   1.706   2.629   2.032  0.0152 -0.1799  0.1186
 7205TIP3    H121579   1.640   2.688   2.069 -0.5113 -0.0851 -0.9418
 7205TIP3    H221580   1.660   2.546   2.021  0.0643 -0.1169 -0.6178
 7206TIP3   OH221581   3.758   6.130   3.983 -0.2280  0.0713  0.2778
 7206TIP3    H121582   3.768   6.044   4.022  1.6790 -0.1116 -0.5331
 7206TIP3    H221583   3.758   6.191   4.058 -0.8365 -0.5611  0.8022
 7207TIP3   OH221584   2.828   3.062   4.625  0.2191 -0.3811  0.4284
 7207TIP3    H121585   2.737   3.089   4.640  0.4748 -0.1814  1.7340
 7207TIP3    H221586   2.879   3.121   4.680  1.1150 -0.7294 -0.0217
 7208TIP3   OH221587   2.137   2.306   1.568  0.1068  0.0136 -0.7761
 7208TIP3    H121588   2.221   2.346   1.545 -0.8676  2.4809 -0.2830
 7208TIP3    H221589   2.150   2.273   1.657  0.7469 -0.2478 -0.9562
 7209TIP3   OH221590   5.122   1.990   4.404 -0.8700 -0.0994 -0.6945
 7209TIP3    H121591   5.208   2.020   4.374  0.0070 -1.8790 -0.0900
 7209TIP3    H221592   5.082   2.068   4.444  0.8221  0.5440 -0.1759
 7210TIP3   OH221593   2.668   5.605   0.090  0.3142 -0.3555 -0.2539
 7210TIP3    H121594   2.740   5.636   0.035  0.9777 -0.3524  0.5993
 7210TIP3    H221595   2.622   5.542   0.035  0.1569  0.6177 -1.2907
 7211TIP3   OH221596   3.977   4.205   4.929  0.7549 -0.4058  0.7728
 7211TIP3    H121597   3.937   4.157   5.001 -1.1466 -1.3544 -0.8364
 7211TIP3    H221598   3.966   4.297   4.953 -1.7853 -0.6558  0.7559
 7212TIP3   OH221599   0.204   4.377   0.074 -0.2204 -0.5086  0.0897
 7212TIP3    H121600   0.282   4.427   0.095 -0.2182 -0.4546 -0.0434
 7212TIP3    H221601   0.148   4.438   0.026 -0.0104 -0.7691 -0.5003
 7213TIP3   OH221602   4.039   4.082   4.568  0.1081  0.6041 -0.4374
 7213TIP3    H121603   4.062   4.068   4.660  0.4583  0.3743 -0.5601
 7213TIP3    H221604   4.018   3.995   4.535  0.0877  0.6715 -0.6019
 7214TIP3   OH221605   6.959   6.143   4.575 -0.3613  0.4887  0.3685
 7214TIP3    H121606   6.897   6.097   4.632 -0.4437  0.8771  0.5944
 7214TIP3    H221607   6.997   6.074   4.521 -1.4245  0.3127 -0.1842
 7215TIP3   OH221608   5.550   3.232   5.266  0.0418  0.0898  0.0178
 7215TIP3    H121609   5.542   3.258   5.174 -1.7648  0.9330  0.3682
 7215TIP3    H221610   5.587   3.144   5.263 -0.6094 -0.1650 -1.5497
 7216TIP3   OH221611   6.384   0.642   5.023 -0.6733 -0.6247 -0.2702
 7216TIP3    H121612   6.447   0.614   4.956 -0.1603  3.6776 -1.9285
 7216TIP3    H221613   6.438   0.673   5.096 -1.0612 -0.8941  0.1368
 7217TIP3   OH221614   3.377   2.862   1.487 -0.6301 -0.0353 -0.0540
 7217TIP3    H121615   3.414   2.900   1.567  0.7391  0.0681 -0.7161
 7217TIP3    H221616   3.316   2.795   1.519 -1.3759  1.1274  1.0932
 7218TIP3   OH221617   3.781   0.187   3.852 -0.1980  0.1873 -0.0287
 7218TIP3    H121618   3.686   0.176   3.840 -0.5828  1.2110  1.6872
 7218TIP3    H221619   3.812   0.102   3.882 -0.4966 -0.2588 -0.9484
 7219TIP3   OH221620   4.675   1.750   0.540  0.0693  0.0438  0.6998
 7219TIP3    H121621   4.641   1.838   0.521  1.6604  0.4712 -0.3412
 7219TIP3    H221622   4.661   1.738   0.634 -1.5059  0.7969  0.5922
 7220TIP3   OH221623   2.334   0.336   1.067  0.1609  0.1816  0.1833
 7220TIP3    H121624   2.343   0.300   1.155  2.0384  3.5856  1.5673
 7220TIP3    H221625   2.420   0.325   1.027 -0.3383 -0.2439 -0.8331
 7221TIP3   OH221626   6.548   1.476   0.612  0.2318  0.5097 -0.0623
 7221TIP3    H121627   6.496   1.556   0.607 -1.4689 -0.5059  0.7541
 7221TIP3    H221628   6.514   1.420   0.543  0.0142 -0.2900  0.6736
 7222TIP3   OH221629   1.793   1.957   1.473 -0.6681 -0.1558  0.4825
 7222TIP3    H121630   1.850   1.889   1.436 -0.6517  1.2047 -2.2259
 7222TIP3    H221631   1.834   1.979   1.557  1.0678 -1.3299 -0.0044
 7223TIP3   OH221632   0.994   1.787   5.474  0.5131  0.5513  0.0981
 7223TIP3    H121633   0.919   1.759   5.527  0.4684 -0.4495 -0.4698
 7223TIP3    H221634   0.988   1.882   5.472 -0.5807  0.4997  0.3017
 7224TIP3   OH221635   4.949   0.487   3.047  0.5779  0.4371 -0.6989
 7224TIP3    H121636   4.891   0.513   2.976 -0.6003  0.8398  0.3711
 7224TIP3    H221637   4.964   0.393   3.033  0.5605  0.5645 -1.6021
 7225TIP3   OH221638   3.006   4.823   1.506  0.0874  0.1420 -0.4614
 7225TIP3    H121639   3.031   4.915   1.519  1.7399 -0.1966 -1.0203
 7225TIP3    H221640   2.968   4.820   1.418 -0.5143  0.3707 -0.2194
 7226TIP3   OH221641   5.040   2.374   4.958 -0.3589 -0.0918  0.7700
 7226TIP3    H121642   4.990   2.419   4.891  0.4564  1.3270  1.0582
 7226TIP3    H221643   5.100   2.317   4.910 -0.3977  0.2414  0.3219
 7227TIP3   OH221644   0.585   2.483   2.514 -0.0076  0.4018 -0.1738
 7227TIP3    H121645   0.564   2.545   2.444  0.3257  1.6247  0.7812
 7227TIP3    H221646   0.556   2.398   2.480  1.2629  0.7390 -2.2990
 7228TIP3   OH221647   3.194   1.874   2.118  0.3612 -0.2101  0.4047
 7228TIP3    H121648   3.169   1.814   2.048  1.3316 -1.1320  0.8103
 7228TIP3    H221649   3.247   1.941   2.075  0.5013 -0.4733  0.1574
 7229TIP3   OH221650   3.694   5.504   4.171  0.6124 -0.6529  0.1735
 7229TIP3    H121651   3.676   5.512   4.077  0.2836 -1.2972  0.1790
 7229TIP3    H221652   3.652   5.582   4.210 -0.6816 -1.2201 -0.0261
 7230TIP3   OH221653   1.375   0.304   2.702  0.2774 -0.3040  0.3554
 7230TIP3    H121654   1.330   0.368   2.647  0.5726  1.0323  1.6004
 7230TIP3    H221655   1.313   0.284   2.772  1.6119  1.7366  2.2184
 7231TIP3   OH221656   3.383   2.156   4.928 -0.0028  0.0780 -0.0395
 7231TIP3    H121657   3.390   2.101   5.006 -1.6667 -0.2793 -0.1229
 7231TIP3    H221658   3.473   2.160   4.894  0.8756  0.7361  2.1974
 7232TIP3   OH221659   5.345   6.110   3.350 -0.1578 -0.7932 -0.7356
 7232TIP3    H121660   5.336   6.142   3.440  1.1471  0.1266 -0.9071
 7232TIP3    H221661   5.363   6.189   3.299 -1.2430 -1.2561 -1.8764
 7233TIP3   OH221662   3.954   3.370   4.908 -0.2663  0.6315  0.2679
 7233TIP3    H121663   4.033   3.323   4.937  0.0566  1.8412  1.4263
 7233TIP3    H221664   3.932   3.329   4.824  1.3298 -0.0393  0.1299
 7234TIP3   OH221665   2.627   5.477   1.882  0.1676 -0.0020 -0.2296
 7234TIP3    H121666   2.642   5.437   1.796 -0.0721 -1.1220  0.2421
 7234TIP3    H221667   2.685   5.554   1.882  0.2858 -0.0719 -1.3268
 7235TIP3   OH221668   5.904   4.901   1.923 -1.1757  0.0094 -0.6992
 7235TIP3    H121669   5.914   4.834   1.991 -0.3854  0.0664 -0.7549
 7235TIP3    H221670   5.889   4.982   1.972  1.6595  0.4739 -0.4663
 7236TIP3   OH221671   5.591   0.874   2.691 -0.0103  0.3053 -0.6805
 7236TIP3    H121672   5.623   0.788   2.717  0.8573  0.4575 -1.2253
 7236TIP3    H221673   5.608   0.930   2.767 -0.3586  0.0554 -0.4158
 7237TIP3   OH221674   5.244   6.025   5.204 -0.1397 -0.0117  0.0206
 7237TIP3    H121675   5.220   6.116   5.221  1.1169  0.1427  1.1709
 7237TIP3    H221676   5.173   5.991   5.150 -0.8805  1.5070 -0.0173
 7238TIP3   OH221677   3.597   3.709   0.092  0.0858  0.2851  0.3420
 7238TIP3    H121678   3.592   3.633   0.034  0.8340 -0.3217  1.0492
 7238TIP3    H221679   3.591   3.784   0.034 -0.9890 -0.3131 -0.3390
 7239TIP3   OH221680   5.782   6.348   1.000 -0.4484 -0.1994  0.3537
 7239TIP3    H121681   5.761   6.277   1.060 -0.0174  0.3327  1.1469
 7239TIP3    H221682   5.739   6.425   1.036  1.3418  0.5246  1.0437
 7240TIP3   OH221683   1.567   3.861   5.020 -0.0136  0.5549 -0.2932
 7240TIP3    H121684   1.630   3.932   5.028 -1.8801  2.1627  1.3839
 7240TIP3    H221685   1.523   3.878   4.936  2.7897 -1.6199 -2.3957
 7241TIP3   OH221686   2.835   4.952   3.828 -0.6934 -0.1313 -0.1671
 7241TIP3    H121687   2.896   5.018   3.860 -2.4345  0.6633  1.7879
 7241TIP3    H221688   2.797   4.990   3.749  1.8220 -1.0106 -1.9394
 7242TIP3   OH221689   5.230   2.496   0.873 -0.3812 -0.2881  0.3320
 7242TIP3    H121690   5.289   2.569   0.854 -1.2135  0.3350  0.0791
 7242TIP3    H221691   5.274   2.420   0.834  1.2669 -0.2470  1.9457
 7243TIP3   OH221692   7.148   5.916   1.877  0.2204 -0.1219 -0.2997
 7243TIP3    H121693   7.161   5.905   1.783  3.1239 -1.5882  0.1513
 7243TIP3    H221694   7.217   5.977   1.904  1.3025 -1.8673  1.2033
 7244TIP3   OH221695   7.168   2.123   1.680 -0.1025  1.0405  0.5782
 7244TIP3    H121696   7.098   2.163   1.628 -0.8694  1.5338  1.9485
 7244TIP3    H221697   7.124   2.055   1.731  0.7641  0.0908  0.1054
 7245TIP3   OH221698   6.330   1.945   4.446 -0.7750 -0.3337  0.6386
 7245TIP3    H121699   6.275   1.879   4.488  0.0822 -0.3222  1.8366
 7245TIP3    H221700   6.403   1.958   4.507 -0.1814  0.6773 -0.2454
 7246TIP3   OH221701   2.963   1.008   4.375 -0.4141  0.1944  0.4226
 7246TIP3    H121702   2.886   1.006   4.319 -0.5974  1.4770  0.6014
 7246TIP3    H221703   2.930   0.990   4.463 -0.4854  0.5533  0.4706
 7247TIP3   OH221704   3.810   4.602   0.547  0.7595  0.3500  0.2248
 7247TIP3    H121705   3.803   4.510   0.519 -0.6262  0.0879  1.3349
 7247TIP3    H221706   3.838   4.597   0.638  0.9308  1.0577  0.2172
 7248TIP3   OH221707   3.718   6.500   4.952 -0.3020  0.2305  0.4374
 7248TIP3    H121708   3.736   6.590   4.981 -1.0038  0.9275 -1.1559
 7248TIP3    H221709   3.784   6.447   4.996  0.2795  1.5573  1.2383
 7249TIP3   OH221710   6.499   2.078   4.005 -0.2939 -0.4580  0.1000
 7249TIP3    H121711   6.426   2.104   3.949 -1.2745  0.2504  1.6197
 7249TIP3    H221712   6.495   2.139   4.079  0.7058 -1.5688  1.1151
 7250TIP3   OH221713   1.952   3.548   4.810  0.3484 -0.0366 -0.8600
 7250TIP3    H121714   1.916   3.480   4.754  0.3955 -0.5632 -0.2560
 7250TIP3    H221715   1.930   3.521   4.899 -0.1682  1.0518 -0.6435
 7251TIP3   OH221716   3.407   1.844   4.544  0.0511  0.2099  0.1620
 7251TIP3    H121717   3.395   1.828   4.451 -1.2529 -1.5782  0.5961
 7251TIP3    H221718   3.371   1.932   4.559 -2.5164 -0.6649 -0.5303
 7252TIP3   OH221719   0.551   6.796   1.262  0.6503 -0.3271 -0.9029
 7252TIP3    H121720   0.613   6.806   1.334 -0.2783  1.6808 -0.3178
 7252TIP3    H221721   0.524   6.705   1.267 -0.9123  0.1703  2.6427
 7253TIP3   OH221722   6.032   2.693   5.271  0.0375 -0.2865  0.4789
 7253TIP3    H121723   6.070   2.655   5.192  1.1221  0.1511  0.7747
 7253TIP3    H221724   6.050   2.628   5.340  0.0272 -0.1887  0.5738
 7254TIP3   OH221725   2.072   1.698   0.504 -0.8562  0.5396 -0.2282
 7254TIP3    H121726   1.990   1.673   0.463 -0.0788 -1.3869 -0.6966
 7254TIP3    H221727   2.069   1.659   0.591  0.2566 -1.0904 -0.8687
 7255TIP3   OH221728   3.653   5.430   1.465 -0.6867 -0.3843  0.0344
 7255TIP3    H121729   3.609   5.350   1.495 -1.6422 -0.1471 -0.6843
 7255TIP3    H221730   3.743   5.402   1.447 -1.3342 -1.6284 -1.4667
 7256TIP3   OH221731   0.300   0.701   0.154 -0.3089 -0.3460 -0.5848
 7256TIP3    H121732   0.333   0.697   0.064 -0.2162  0.2348 -0.5846
 7256TIP3    H221733   0.271   0.612   0.173  1.0290 -0.8225 -0.6777
 7257TIP3   OH221734   4.864   2.785   0.082  0.5219 -0.3703 -0.3918
 7257TIP3    H121735   4.931   2.749   0.140  0.6524 -0.6882 -0.7357
 7257TIP3    H221736   4.837   2.712   0.027  0.7224  0.0249 -1.0374
 7258TIP3   OH221737   5.027   1.677   2.321 -0.2623  0.6912 -0.0048
 7258TIP3    H121738   5.028   1.768   2.352  0.2025  1.3249 -1.7470
 7258TIP3    H221739   5.117   1.661   2.290 -0.4138 -0.2598  0.0195
 7259TIP3   OH221740   5.617   2.566   4.497  0.6589 -0.1240  0.1566
 7259TIP3    H121741   5.672   2.643   4.483  0.8802 -0.6065 -2.0232
 7259TIP3    H221742   5.582   2.546   4.411 -2.2292 -0.4144  1.2972
 7260TIP3   OH221743   4.921   0.811   2.671 -0.1083  0.0407  0.2616
 7260TIP3    H121744   4.839   0.845   2.707 -0.8278 -0.5248 -0.8119
 7260TIP3    H221745   4.971   0.890   2.648 -1.0829  0.4136 -0.6857
 7261TIP3   OH221746   7.138   3.176   3.167  0.9170 -0.0292  0.9419
 7261TIP3    H121747   7.046   3.201   3.179  1.0092  0.1257  1.3577
 7261TIP3    H221748   7.161   3.129   3.247  2.3604  3.4422  2.8113
 7262TIP3   OH221749   0.762   2.859   5.756 -0.1622  0.5427  0.3312
 7262TIP3    H121750   0.838   2.899   5.713 -0.4283  1.6413  0.8514
 7262TIP3    H221751   0.688   2.914   5.732 -0.7148 -0.2285  0.2457
 7263TIP3   OH221752   1.137   5.342   3.039  0.2040  0.0456 -0.0168
 7263TIP3    H121753   1.186   5.422   3.017 -0.8175  0.5954 -0.3804
 7263TIP3    H221754   1.195   5.271   3.012  1.6621  0.6224  1.4614
 7264TIP3   OH221755   1.006   2.733   3.444  0.5135  0.1460 -0.6480
 7264TIP3    H121756   0.986   2.658   3.388 -0.2075  0.3525 -0.6762
 7264TIP3    H221757   1.010   2.807   3.383 -1.2449  0.5410 -0.3361
 7265TIP3   OH221758   4.385   2.205   0.711  0.0403  0.6253  0.2862
 7265TIP3    H121759   4.289   2.203   0.705  0.1092  1.0572 -1.9389
 7265TIP3    H221760   4.405   2.293   0.743 -0.2940  0.3091  1.4136
 7266TIP3   OH221761   1.944   4.913   1.035  0.7458  0.4312 -0.2013
 7266TIP3    H121762   1.998   4.924   0.956  1.7266  1.3520  0.5661
 7266TIP3    H221763   1.854   4.912   1.003  1.1571  0.1368 -1.3968
 7267TIP3   OH221764   2.213   0.241   1.645  0.1583  0.7702  0.2701
 7267TIP3    H121765   2.203   0.160   1.595 -0.3086  1.6175 -1.0535
 7267TIP3    H221766   2.259   0.214   1.724 -1.1023 -1.0249  0.4737
 7268TIP3   OH221767   2.970   3.608   2.918  0.6242 -0.7062 -0.4108
 7268TIP3    H121768   3.028   3.589   2.993  1.8083  0.2050 -1.0679
 7268TIP3    H221769   2.886   3.630   2.958  1.3656  0.2578  0.7015
 7269TIP3   OH221770   1.047   3.835   3.645 -0.2381 -0.2690  0.4025
 7269TIP3    H121771   1.031   3.839   3.550  2.4109  0.5045 -0.1073
 7269TIP3    H221772   1.092   3.917   3.665 -0.9890 -0.2973  2.4121
 7270TIP3   OH221773   6.635   4.371   2.722  0.1716  0.0171  0.2054
 7270TIP3    H121774   6.614   4.300   2.663 -0.4447 -0.1837  0.6597
 7270TIP3    H221775   6.720   4.347   2.759 -1.1728 -1.8264  2.3241
 7271TIP3   OH221776   3.616   2.976   4.660 -0.2009  0.4966 -0.3595
 7271TIP3    H121777   3.639   3.037   4.589 -0.3770  0.7281 -0.2168
 7271TIP3    H221778   3.679   2.996   4.730  1.5886 -1.3646 -1.3222
 7272TIP3   OH221779   5.781   0.757   4.240 -0.3009 -0.5170  0.3773
 7272TIP3    H121780   5.772   0.671   4.198  1.5438 -0.1824 -0.8127
 7272TIP3    H221781   5.784   0.819   4.167  0.4774  0.3457  1.1228
 7273TIP3   OH221782   0.370   3.743   5.268  0.1188  0.5834 -0.5287
 7273TIP3    H121783   0.408   3.805   5.331 -0.0516  1.0520 -0.8826
 7273TIP3    H221784   0.276   3.747   5.285  0.0854  0.6051 -0.7208
 7274TIP3   OH221785   5.196   4.663   1.167 -0.0930  0.3476  0.3505
 7274TIP3    H121786   5.246   4.745   1.166  0.3270  0.0906  0.1254
 7274TIP3    H221787   5.227   4.617   1.245 -0.6039  0.5661  0.6882
 7275TIP3   OH221788   6.560   5.985   5.275  0.1885 -0.2339 -0.0322
 7275TIP3    H121789   6.618   5.951   5.343 -1.2043 -1.8563  0.3906
 7275TIP3    H221790   6.503   6.047   5.320 -1.8768 -2.5500  0.7764
 7276TIP3   OH221791   1.032   5.874   0.431  0.1915  0.3475 -0.2950
 7276TIP3    H121792   1.051   5.945   0.369  0.0201 -0.0363 -0.7935
 7276TIP3    H221793   1.107   5.874   0.491  0.4808  0.5642 -0.6499
 7277TIP3   OH221794   0.832   3.502   5.517  0.4278  0.2489 -0.1251
 7277TIP3    H121795   0.748   3.544   5.499  0.3065  0.0685  0.0143
 7277TIP3    H221796   0.840   3.436   5.448  0.1968 -0.1044  0.1810
 7278TIP3   OH221797   4.979   1.648   1.040 -0.3266  0.0887  0.0384
 7278TIP3    H121798   4.886   1.671   1.047 -0.8854 -1.8910 -0.0495
 7278TIP3    H221799   5.015   1.709   0.977 -0.7606  3.0386  2.4230
 7279TIP3   OH221800   3.429   4.993   0.452 -0.0090  0.2399 -0.5372
 7279TIP3    H121801   3.512   4.972   0.496  0.2120 -2.3152 -1.9684
 7279TIP3    H221802   3.439   5.083   0.422  1.5964  0.5090  0.6575
 7280TIP3   OH221803   5.359   2.691   1.246  0.2044  0.1633  0.4485
 7280TIP3    H121804   5.356   2.711   1.339 -3.6627 -1.4395  0.8585
 7280TIP3    H221805   5.324   2.602   1.239  0.6583  0.0944 -2.5413
 7281TIP3   OH221806   5.206   3.897   2.692 -0.0433 -0.3817 -0.2058
 7281TIP3    H121807   5.198   3.850   2.775 -0.4731 -0.3196 -0.2105
 7281TIP3    H221808   5.244   3.833   2.632 -2.9317 -1.5892 -0.9110
 7282TIP3   OH221809   5.200   4.855   2.099  0.7954  0.3459  0.2771
 7282TIP3    H121810   5.194   4.862   2.004  1.4582 -0.8622  0.1301
 7282TIP3    H221811   5.164   4.769   2.120  0.1657  0.8011  1.1899
 7283TIP3   OH221812   0.438   1.898   1.662 -0.5524  0.6771 -0.3719
 7283TIP3    H121813   0.345   1.895   1.640 -0.5728  2.2381 -0.5969
 7283TIP3    H221814   0.461   1.990   1.656  0.7390  0.4683  0.8476
 7284TIP3   OH221815   5.680   3.259   3.514 -0.4271 -0.1000 -0.3144
 7284TIP3    H121816   5.674   3.312   3.435 -0.6760 -0.0757 -0.2788
 7284TIP3    H221817   5.603   3.203   3.512  0.4398 -1.3328 -0.9745
 7285TIP3   OH221818   6.172   1.226   4.974 -0.4072  0.2751  0.0295
 7285TIP3    H121819   6.258   1.189   4.953 -0.0975  0.7597  0.4349
 7285TIP3    H221820   6.136   1.252   4.889 -1.0430 -1.8177 -0.3833
 7286TIP3   OH221821   6.866   2.305   2.293 -0.1754  0.2427  0.5549
 7286TIP3    H121822   6.876   2.318   2.387 -0.7895  0.6511  0.5688
 7286TIP3    H221823   6.805   2.232   2.285 -0.1118  0.1982  0.4702
 7287TIP3   OH221824   1.524   6.623   1.354  1.0260  0.2042 -0.7296
 7287TIP3    H121825   1.524   6.549   1.293 -0.8539 -1.5950  1.2436
 7287TIP3    H221826   1.508   6.700   1.300  0.0632 -1.2181 -2.5814
 7288TIP3   OH221827   0.153   3.425   1.971  0.3194 -0.0936 -0.1455
 7288TIP3    H121828   0.129   3.365   1.900  0.6788  0.4257 -0.7158
 7288TIP3    H221829   0.069   3.462   2.000  0.2313  0.2878 -0.8470
 7289TIP3   OH221830   0.814   2.680   1.158 -0.0518  0.5249 -0.4084
 7289TIP3    H121831   0.876   2.662   1.228  0.7979 -1.9894 -1.6873
 7289TIP3    H221832   0.728   2.681   1.201  0.6323  1.7325  1.0072
 7290TIP3   OH221833   2.028   1.964   5.560 -0.6236  0.0118  0.4861
 7290TIP3    H121834   2.067   1.880   5.584 -0.3651  0.2988  1.0881
 7290TIP3    H221835   2.089   2.030   5.594 -1.6097  0.4645  1.4104
 7291TIP3   OH221836   6.848   6.198   1.820  0.1634 -0.7139 -0.3398
 7291TIP3    H121837   6.858   6.111   1.858 -0.6635  0.0657  1.8458
 7291TIP3    H221838   6.756   6.221   1.837  0.6824  1.0734  0.3567
 7292TIP3   OH221839   7.140   1.530   3.105 -0.1492  0.0232  0.1164
 7292TIP3    H121840   7.173   1.590   3.172 -0.3085  0.9562 -0.6241
 7292TIP3    H221841   7.167   1.570   3.022 -1.4195 -0.2228 -0.4294
 7293TIP3   OH221842   2.796   5.738   4.134 -0.5137  0.3348  0.6709
 7293TIP3    H121843   2.848   5.686   4.195  0.3685  1.6671  1.1024
 7293TIP3    H221844   2.855   5.810   4.108 -1.2647  0.4239 -0.8628
 7294TIP3   OH221845   4.085   6.705   0.303  0.2843  0.0689 -0.4439
 7294TIP3    H121846   4.092   6.710   0.398  0.5159  0.4137 -0.4791
 7294TIP3    H221847   4.066   6.613   0.285  2.1056 -0.3927 -0.1801
 7295TIP3   OH221848   3.144   1.683   1.099 -0.6066  0.4135  0.0401
 7295TIP3    H121849   3.061   1.662   1.057 -0.6094 -0.0771  0.2912
 7295TIP3    H221850   3.152   1.778   1.089 -1.3691  0.5175  0.3235
 7296TIP3   OH221851   0.990   4.695   0.998  0.5438 -0.8131 -0.4852
 7296TIP3    H121852   1.028   4.737   0.921  0.5571  0.1589  0.0351
 7296TIP3    H221853   0.989   4.763   1.065 -0.4696 -1.3225  0.0520
 7297TIP3   OH221854   4.047   5.212   5.741 -0.0539  0.2056 -0.3659
 7297TIP3    H121855   4.066   5.174   5.827  4.2683  0.7846 -0.8488
 7297TIP3    H221856   4.104   5.289   5.735 -1.7211  1.4095 -3.0303
 7298TIP3   OH221857   5.385   3.167   4.151  0.3716 -0.1054 -0.2598
 7298TIP3    H121858   5.394   3.119   4.233 -0.5527 -1.2797 -0.8272
 7298TIP3    H221859   5.355   3.254   4.177  0.4313 -0.3553  0.6612
 7299TIP3   OH221860   5.952   5.748   2.318  0.0453 -0.0884 -0.7437
 7299TIP3    H121861   5.994   5.665   2.339 -1.3135 -0.4060  0.9172
 7299TIP3    H221862   5.881   5.725   2.258  1.4266  0.3095 -2.6469
 7300TIP3   OH221863   1.020   1.305   5.149  0.1787 -0.2492 -0.0686
 7300TIP3    H121864   0.974   1.261   5.077 -0.5531  0.8832 -0.3075
 7300TIP3    H221865   1.024   1.397   5.123  2.9508 -0.3426 -0.2291
 7301TIP3   OH221866   0.032   4.410   5.825  0.5674  0.0361  0.2886
 7301TIP3    H121867   0.103   4.438   5.768  0.0665  0.8183  0.0408
 7301TIP3    H221868  -0.047   4.448   5.787  0.0276 -0.6678  0.6646
 7302TIP3   OH221869   0.412   0.822   0.630  0.5601  0.0691  0.0792
 7302TIP3    H121870   0.496   0.863   0.651 -0.1879  2.2454 -0.8561
 7302TIP3    H221871   0.390   0.857   0.543 -0.6882 -1.5145 -0.2763
 7303TIP3   OH221872   3.459   2.944   1.970 -0.2683  0.1005  0.1555
 7303TIP3    H121873   3.390   2.910   1.913  0.3085 -2.5676  0.9027
 7303TIP3    H221874   3.412   2.980   2.045 -0.8944 -1.1563  0.3897
 7304TIP3   OH221875   5.116   6.525   4.661  0.3022 -0.8027 -0.1248
 7304TIP3    H121876   5.165   6.592   4.709 -1.1300  0.0394  0.2100
 7304TIP3    H221877   5.088   6.463   4.729  1.6210 -1.7843 -0.4330
 7305TIP3   OH221878   2.829   4.606   4.046  0.0657 -0.1034 -0.0819
 7305TIP3    H121879   2.910   4.656   4.034 -0.9084  1.0203 -2.5727
 7305TIP3    H221880   2.859   4.517   4.064  1.8598  0.3856 -0.4348
 7306TIP3   OH221881   3.525   5.865   5.890 -0.1230 -0.0988  0.5553
 7306TIP3    H121882   3.448   5.809   5.882  0.0161 -0.1950 -0.1378
 7306TIP3    H221883   3.492   5.954   5.878 -0.2563 -0.0651  1.1196
 7307TIP3   OH221884   4.258   3.990   1.240  0.1077  0.2232  0.2610
 7307TIP3    H121885   4.185   4.018   1.184  1.0917  2.2700 -0.1108
 7307TIP3    H221886   4.238   4.027   1.326 -0.5351 -1.4190  0.8418
 7308TIP3   OH221887   2.617   0.993   3.498 -0.1018 -0.2532  0.4102
 7308TIP3    H121888   2.623   1.071   3.443  1.5022 -0.6663 -0.0511
 7308TIP3    H221889   2.523   0.974   3.502 -0.5119  1.6236  0.4566
 7309TIP3   OH221890   0.764   2.357   0.136  0.4826  0.3708 -0.3517
 7309TIP3    H121891   0.808   2.321   0.212 -0.2453  0.8696  0.3164
 7309TIP3    H221892   0.811   2.320   0.061 -0.0178 -1.6754  0.3018
 7310TIP3   OH221893   3.551   0.693   4.362 -0.0560 -0.0981  0.3004
 7310TIP3    H121894   3.590   0.639   4.293 -2.3114 -0.5490 -0.6958
 7310TIP3    H221895   3.460   0.663   4.367 -0.9875  2.6011  0.7586
 7311TIP3   OH221896   6.245   1.606   0.819 -0.2823 -0.5156 -0.2233
 7311TIP3    H121897   6.295   1.637   0.744 -0.7430 -0.0691 -0.3520
 7311TIP3    H221898   6.276   1.660   0.892 -1.2938  0.4871 -0.5043
 7312TIP3   OH221899   0.255   3.859   5.712  0.0323 -0.1337  0.0463
 7312TIP3    H121900   0.336   3.831   5.669 -0.2645 -1.4695  0.3101
 7312TIP3    H221901   0.215   3.921   5.651 -0.0476 -1.4824 -1.3265
 7313TIP3   OH221902   7.118   2.784   2.467 -0.2928 -0.2636 -0.0621
 7313TIP3    H121903   7.090   2.827   2.386 -0.6092  1.1568  0.7634
 7313TIP3    H221904   7.202   2.825   2.487 -0.9792  0.5715  1.1712
 7314TIP3   OH221905   5.755   6.402   2.584  0.1839 -0.0609 -0.2742
 7314TIP3    H121906   5.737   6.315   2.619  1.6636  0.2256  1.3590
 7314TIP3    H221907   5.804   6.386   2.503  2.6876 -0.8547  1.2637
 7315TIP3   OH221908   4.900   0.110   4.793  0.6029  0.3062  0.5943
 7315TIP3    H121909   4.845   0.035   4.772 -0.2449  1.6285 -2.3846
 7315TIP3    H221910   4.840   0.175   4.828  0.7977  0.7040  0.1903
 7316TIP3   OH221911   3.725   2.107   3.580  0.3102  0.4099  0.5863
 7316TIP3    H121912   3.744   2.127   3.488 -1.6107 -0.0827  0.0145
 7316TIP3    H221913   3.693   2.016   3.577  0.6835  0.2293  1.8214
 7317TIP3   OH221914   2.536   4.644   1.183  0.3936 -0.3630 -0.4530
 7317TIP3    H121915   2.553   4.721   1.129 -1.0997  1.3035  1.3025
 7317TIP3    H221916   2.475   4.674   1.250  2.9363 -1.9320  2.9024
 7318TIP3   OH221917   4.425   0.849   4.868 -0.5653  0.1598 -0.0098
 7318TIP3    H121918   4.405   0.800   4.788 -1.7162  1.1180 -0.3362
 7318TIP3    H221919   4.503   0.900   4.846 -1.6042  1.3972 -0.9936
 7319TIP3   OH221920   3.762   0.942   3.595 -0.4531  0.2461  0.5585
 7319TIP3    H121921   3.695   1.009   3.608 -1.8554 -0.7414 -1.1571
 7319TIP3    H221922   3.831   0.965   3.656 -0.4267  3.8197 -0.6046
 7320TIP3   OH221923   0.513   3.533   1.320 -0.9353  0.4541  0.6035
 7320TIP3    H121924   0.502   3.480   1.400 -0.0761 -2.8347 -1.2833
 7320TIP3    H221925   0.604   3.563   1.324 -0.2383 -1.4208  0.0096
 7321TIP3   OH221926   2.530   5.662   3.720 -0.2448  0.5195 -0.5923
 7321TIP3    H121927   2.591   5.736   3.722 -0.5660  0.7850 -0.5032
 7321TIP3    H221928   2.531   5.633   3.629  0.8222 -0.1621 -0.3865
 7322TIP3   OH221929   2.570   5.669   5.001 -0.0172  0.6966  0.7590
 7322TIP3    H121930   2.550   5.576   5.005 -0.9629  0.6624 -2.2190
 7322TIP3    H221931   2.664   5.673   4.980 -0.2523  0.3264 -0.4416
 7323TIP3   OH221932   4.100   4.086   5.878  0.2509  0.0086 -0.0987
 7323TIP3    H121933   4.064   4.053   5.796 -0.2288  1.0364 -0.3103
 7323TIP3    H221934   4.195   4.076   5.868  0.1394 -0.9601 -0.2925
 7324TIP3   OH221935   6.623   1.677   5.594 -0.0831  0.2423 -0.5284
 7324TIP3    H121936   6.536   1.690   5.556 -0.3776  0.2875  0.1607
 7324TIP3    H221937   6.615   1.596   5.644  0.2301  0.3348 -0.3292
 7325TIP3   OH221938   3.642   4.595   3.362 -0.5776  0.4773 -0.1142
 7325TIP3    H121939   3.643   4.690   3.373 -1.8454  0.3637  1.3400
 7325TIP3    H221940   3.733   4.572   3.345 -0.1510  1.8935  0.0934
 7326TIP3   OH221941   2.560   0.384   1.963 -0.0988 -0.1351  0.0135
 7326TIP3    H121942   2.541   0.321   2.032 -0.2575  1.0699  1.1036
 7326TIP3    H221943   2.474   0.415   1.934 -0.0355 -0.6539 -0.7508
 7327TIP3   OH221944   3.939   2.572   1.653  0.4361  0.6297  0.3806
 7327TIP3    H121945   3.865   2.606   1.704  1.4585 -0.3441  2.5845
 7327TIP3    H221946   3.902   2.499   1.603 -0.3659  1.0042  0.4079
 7328TIP3   OH221947   2.968   0.915   5.571 -0.5665  0.5705  0.3449
 7328TIP3    H121948   2.924   0.832   5.590  0.0510 -0.1598 -1.1897
 7328TIP3    H221949   2.956   0.967   5.650 -1.9063 -0.5682  0.9496
 7329TIP3   OH221950   0.628   1.852   4.238  0.3999 -0.9117 -0.1552
 7329TIP3    H121951   0.590   1.862   4.150 -0.9772 -0.0449  0.5116
 7329TIP3    H221952   0.719   1.881   4.227  0.3307 -1.0697 -1.3524
 7330TIP3   OH221953   1.265   6.359   2.081  0.1287 -0.4833 -0.2185
 7330TIP3    H121954   1.343   6.346   2.135  0.4637 -0.1257 -0.6128
 7330TIP3    H221955   1.292   6.421   2.014 -0.9799  0.9680  0.6307
 7331TIP3   OH221956   3.717   0.860   5.170  0.4423  0.0184 -0.3782
 7331TIP3    H121957   3.625   0.840   5.187 -0.0415  1.7124 -0.8445
 7331TIP3    H221958   3.748   0.789   5.114 -0.6930 -0.3349 -0.5628
 7332TIP3   OH221959   6.814   3.291   1.891 -1.0037  0.2646 -0.0370
 7332TIP3    H121960   6.848   3.291   1.801  0.3007  1.5084  0.4121
 7332TIP3    H221961   6.766   3.373   1.898 -1.9292 -0.2828  0.1271
 7333TIP3   OH221962   5.098   0.416   2.069 -0.4125  0.6467  0.2448
 7333TIP3    H121963   5.149   0.445   1.994 -0.5736  0.6355  0.1304
 7333TIP3    H221964   5.162   0.410   2.141 -0.1269 -0.0363 -0.0604
 7334TIP3   OH221965   4.299   5.951   0.031  0.0436  0.3016 -0.7607
 7334TIP3    H121966   4.328   5.872   0.076 -0.3528  0.8506  0.4954
 7334TIP3    H221967   4.327   6.023   0.087 -0.4185  1.0151 -1.4155
 7335TIP3   OH221968   0.415   1.403   2.859  0.8366 -0.3624 -0.5510
 7335TIP3    H121969   0.499   1.438   2.887  1.2543 -1.8318  0.1570
 7335TIP3    H221970   0.363   1.398   2.940 -0.2947  1.3434 -1.1017
 7336TIP3   OH221971   6.983   6.108   1.390  0.4767  0.1790  0.0863
 7336TIP3    H121972   6.974   6.167   1.465  0.5745  0.6528 -0.2688
 7336TIP3    H221973   7.053   6.146   1.338 -0.3723  0.5112 -0.8434
 7337TIP3   OH221974   2.386   4.257   2.563 -0.4856 -0.0997  0.1486
 7337TIP3    H121975   2.472   4.236   2.525 -1.1858 -0.2907 -1.4014
 7337TIP3    H221976   2.365   4.344   2.529 -1.8683 -0.9650 -1.3179
 7338TIP3   OH221977   4.626   1.386   2.429  0.0808 -0.4734 -0.6654
 7338TIP3    H121978   4.578   1.416   2.352  0.8951 -0.3322 -1.1325
 7338TIP3    H221979   4.717   1.408   2.410  0.0366  1.9016  1.4200
 7339TIP3   OH221980   3.003   0.733   4.277 -0.6032 -0.1444 -0.6957
 7339TIP3    H121981   3.001   0.825   4.302 -1.2286 -0.3552  0.0627
 7339TIP3    H221982   2.945   0.689   4.340  2.2431 -1.5871  1.1284
 7340TIP3   OH221983   2.162   0.265   5.602  0.2540  0.5402 -1.0179
 7340TIP3    H121984   2.218   0.341   5.589 -1.4986  2.2781  0.9541
 7340TIP3    H221985   2.201   0.220   5.678  1.2696 -0.6029 -2.1602
 7341TIP3   OH221986   5.581   0.689   3.980 -0.1073  0.2909  0.3906
 7341TIP3    H121987   5.639   0.765   3.979  0.0632  0.1634  0.4067
 7341TIP3    H221988   5.506   0.717   4.033 -1.0433  1.1486 -1.3268
 7342TIP3   OH221989   6.863   6.256   2.521 -0.0356 -0.5906  0.0413
 7342TIP3    H121990   6.937   6.253   2.581 -0.4741 -2.4752  0.5606
 7342TIP3    H221991   6.801   6.193   2.558 -0.4219 -1.6235 -2.2529
 7343TIP3   OH221992   1.460   2.139   2.359 -0.1764 -0.3322 -0.4139
 7343TIP3    H121993   1.456   2.089   2.277  1.0527 -0.7831 -0.2159
 7343TIP3    H221994   1.481   2.073   2.425  0.0239  0.2234  0.0797
 7344TIP3   OH221995   1.776   1.312   2.664  0.3864  0.3065 -0.2527
 7344TIP3    H121996   1.808   1.262   2.589  1.1105  1.2652 -0.6043
 7344TIP3    H221997   1.854   1.331   2.716  0.1231  1.0114 -0.0975
 7345TIP3   OH221998   0.651   6.263   4.656 -0.1238 -0.4433  0.5444
 7345TIP3    H121999   0.605   6.303   4.730 -2.4063  0.4009 -1.2046
 7345TIP3    H222000   0.654   6.170   4.677 -1.0161 -0.2692  1.5521
 7346TIP3   OH222001   3.070   5.148   2.614 -0.3472  0.0897  0.0175
 7346TIP3    H122002   2.989   5.190   2.644 -1.2893 -1.5477 -0.1247
 7346TIP3    H222003   3.042   5.062   2.582  1.7160 -1.4238  2.0027
 7347TIP3   OH222004   1.660   1.926   4.808 -0.3030 -0.5502 -0.6636
 7347TIP3    H122005   1.610   1.895   4.733 -1.0503 -0.9341 -0.0162
 7347TIP3    H222006   1.746   1.948   4.772 -0.2546 -1.8662 -1.4286
 7348TIP3   OH222007   3.958   3.209   3.113  0.3390 -0.1618 -0.1901
 7348TIP3    H122008   3.937   3.242   3.025  0.7848 -0.6222 -0.4726
 7348TIP3    H222009   3.874   3.208   3.159 -0.2069 -1.5505 -1.1600
 7349TIP3   OH222010   4.501   1.722   1.401 -0.1766  0.3091 -0.1564
 7349TIP3    H122011   4.477   1.674   1.322  1.4230 -1.0535  0.1261
 7349TIP3    H222012   4.464   1.669   1.473 -1.9850  1.7545  0.0514
 7350TIP3   OH222013   0.190   6.144   2.516  0.0828  0.2464  0.0536
 7350TIP3    H122014   0.168   6.056   2.486  0.0118  0.5887 -0.9575
 7350TIP3    H222015   0.274   6.163   2.474  0.1865  0.5869  0.4165
 7351TIP3   OH222016   5.018   6.392   5.015  0.1660 -0.2702  0.2759
 7351TIP3    H122017   5.050   6.337   5.086 -0.7355 -0.7637  0.3116
 7351TIP3    H222018   5.029   6.339   4.936  1.2177  0.2965  0.0221
 7352TIP3   OH222019   3.986   0.916   3.373  0.0803 -0.0290  0.3029
 7352TIP3    H122020   3.910   0.928   3.429 -0.8401 -1.7497 -0.5081
 7352TIP3    H222021   4.032   0.841   3.410  0.6069  0.1252 -0.0233
 7353TIP3   OH222022   5.974   4.944   0.738 -0.4405 -0.1896  0.2186
 7353TIP3    H122023   5.893   4.924   0.690 -1.6750 -0.5947  2.3179
 7353TIP3    H222024   5.944   5.000   0.810  1.2677  0.0876  0.7363
 7354TIP3   OH222025   1.105   5.041   2.541  0.1757  0.1456  0.4854
 7354TIP3    H122026   1.055   5.053   2.460 -1.6001 -3.8777  0.7599
 7354TIP3    H222027   1.052   5.085   2.608 -1.4040 -1.2461  0.2357
 7355TIP3   OH222028   6.666   1.902   3.674  0.1308  0.5171  0.0882
 7355TIP3    H122029   6.690   1.933   3.761 -0.0908  2.0840 -0.3678
 7355TIP3    H222030   6.578   1.866   3.685  0.6768 -0.6450  0.7830
 7356TIP3   OH222031   5.162   4.825   4.877 -0.4602 -0.3149  0.6010
 7356TIP3    H122032   5.166   4.731   4.860  0.4344  0.0418 -1.5513
 7356TIP3    H222033   5.213   4.864   4.805 -1.0627  1.8270  1.2705
 7357TIP3   OH222034   2.980   2.959   4.406  0.1021 -0.4336  0.3987
 7357TIP3    H122035   2.963   3.029   4.343  3.8645  1.1465  0.8886
 7357TIP3    H222036   2.929   2.984   4.483  1.0488  1.6744  0.4240
 7358TIP3   OH222037   4.541   3.663   1.926 -0.1377 -0.3858 -0.0155
 7358TIP3    H122038   4.490   3.656   2.006 -0.2037  0.9723  0.0776
 7358TIP3    H222039   4.477   3.650   1.855 -0.2906 -0.3777  0.1217
 7359TIP3   OH222040   1.505   0.478   0.542 -0.2722 -0.3296  0.2254
 7359TIP3    H122041   1.532   0.477   0.450 -0.9103 -1.3829  0.0335
 7359TIP3    H222042   1.441   0.407   0.549 -0.9783  0.3797  1.2630
 7360TIP3   OH222043   6.378   3.380   5.641  0.7039 -0.4444  0.1665
 7360TIP3    H122044   6.331   3.391   5.559  1.5765 -1.6783 -0.5380
 7360TIP3    H222045   6.326   3.427   5.706  0.1708  0.8201 -1.1374
 7361TIP3   OH222046   2.918   5.572   0.647  0.1580 -0.1925  0.1866
 7361TIP3    H122047   2.910   5.551   0.554 -3.5508  1.8582 -0.1558
 7361TIP3    H222048   2.870   5.502   0.692  1.2536 -0.7455  0.5268
 7362TIP3   OH222049   4.068   3.122   1.747 -0.1422  0.2386  0.2199
 7362TIP3    H122050   4.067   3.075   1.830 -0.9398  0.3428  0.2726
 7362TIP3    H222051   3.996   3.085   1.696 -0.7371  1.3202  0.2277
 7363TIP3   OH222052   3.592   6.427   3.837  0.0542 -0.1137 -0.5960
 7363TIP3    H122053   3.591   6.505   3.780  0.7973  0.5047  0.2141
 7363TIP3    H222054   3.629   6.358   3.782 -0.4273  0.1417 -1.2668
 7364TIP3   OH222055   0.679   6.451   2.070 -0.2791 -0.2912  0.0034
 7364TIP3    H122056   0.644   6.372   2.028  0.2847  0.3746 -1.8246
 7364TIP3    H222057   0.730   6.494   2.001  0.0211  1.3070  1.1699
 7365TIP3   OH222058   3.851   1.830   4.158  0.2272 -0.3690 -0.1938
 7365TIP3    H122059   3.912   1.782   4.214 -1.4147 -1.9594  0.3156
 7365TIP3    H222060   3.799   1.882   4.218  1.0167  0.9594 -0.6268
 7366TIP3   OH222061   4.516   2.378   4.568  0.4658  0.3295  0.1287
 7366TIP3    H122062   4.531   2.306   4.506  1.1790  1.1018 -0.6217
 7366TIP3    H222063   4.423   2.400   4.556 -0.1649 -1.4014  1.4255
 7367TIP3   OH222064   5.203   3.894   5.717  0.2671  0.1075 -0.3641
 7367TIP3    H122065   5.128   3.895   5.658 -0.5558 -0.9633  0.6471
 7367TIP3    H222066   5.166   3.908   5.804  1.3191  0.2320  0.0785
 7368TIP3   OH222067   4.550   1.000   0.782 -0.2451 -0.4904  0.1666
 7368TIP3    H122068   4.640   1.007   0.750 -0.2630  0.6390  0.3245
 7368TIP3    H222069   4.555   1.034   0.872 -0.7772 -0.7192  0.2837
 7369TIP3   OH222070   0.137   3.282   5.202  0.3216  0.0790  0.2016
 7369TIP3    H122071   0.105   3.200   5.238  0.2053 -0.1523 -0.4131
 7369TIP3    H222072   0.058   3.334   5.186  0.4429  0.6519  1.3712
 7370TIP3   OH222073   5.208   5.989   4.855  0.3440  0.1268 -0.0890
 7370TIP3    H122074   5.167   5.920   4.803 -1.4220  1.2568 -0.2793
 7370TIP3    H222075   5.146   6.005   4.926  0.5103  1.7964 -0.2894
 7371TIP3   OH222076   2.124   3.774   1.876  0.1251  0.0296  0.2020
 7371TIP3    H122077   2.086   3.777   1.788  0.5461  0.3451  0.0241
 7371TIP3    H222078   2.136   3.681   1.894 -0.4619 -0.0619  0.1484
 7372TIP3   OH222079   5.505   4.272   2.317  0.0709  0.4832  0.5549
 7372TIP3    H122080   5.565   4.197   2.324  0.5505  0.7304 -0.6701
 7372TIP3    H222081   5.419   4.233   2.306  0.5659  0.0007 -2.4443
 7373TIP3   OH222082   0.326   2.661   2.922  0.2445 -0.0730  0.1719
 7373TIP3    H122083   0.327   2.611   3.003  0.6231 -1.0531 -0.4180
 7373TIP3    H222084   0.416   2.658   2.890 -0.1557 -0.8669 -0.9664
 7374TIP3   OH222085   4.319   6.562   3.570 -0.2758 -0.8619 -0.5604
 7374TIP3    H122086   4.231   6.587   3.540 -0.1375 -0.1110 -0.3718
 7374TIP3    H222087   4.367   6.645   3.575  1.0204 -1.4397 -2.4450
 7375TIP3   OH222088   1.274   2.183   4.908  0.2565 -0.5091  0.4676
 7375TIP3    H122089   1.197   2.134   4.938 -0.4447 -0.2330 -0.8024
 7375TIP3    H222090   1.312   2.126   4.841  0.6078 -0.2138  0.4204
 7376TIP3   OH222091   5.012   1.181   1.727  0.2132  0.4461 -0.0772
 7376TIP3    H122092   5.088   1.123   1.730  0.5230  0.8639  0.2064
 7376TIP3    H222093   4.939   1.126   1.756  0.6224  0.3821  0.8699
 7377TIP3   OH222094   1.838   4.242   3.989 -0.4465 -0.1230 -0.0514
 7377TIP3    H122095   1.891   4.294   3.929  1.3636  0.5554  1.9895
 7377TIP3    H222096   1.828   4.158   3.945  2.1676 -0.2005 -0.6810
 7378TIP3   OH222097   4.094   4.360   1.303 -0.1759 -0.6701 -0.3886
 7378TIP3    H122098   4.044   4.279   1.309  0.1999 -0.9466 -0.9523
 7378TIP3    H222099   4.033   4.428   1.331 -0.1591 -1.2639  1.1734
 7379TIP3   OH222100   0.859   3.243   1.830  1.0084  0.4201  0.3755
 7379TIP3    H122101   0.799   3.261   1.758  0.0540  0.3560  1.1264
 7379TIP3    H222102   0.809   3.265   1.909  0.7995 -2.6393  1.2154
 7380TIP3   OH222103   0.740   4.081   0.021 -0.4357  0.0225 -0.4015
 7380TIP3    H122104   0.690   4.028  -0.041 -2.4386  0.3390  0.8573
 7380TIP3    H222105   0.748   4.026   0.099  2.5938 -0.6169 -1.0272
 7381TIP3   OH222106   4.744   2.415   0.736  0.1634 -0.4173 -0.2375
 7381TIP3    H122107   4.752   2.356   0.811 -1.2265  0.1496  0.4021
 7381TIP3    H222108   4.720   2.499   0.774  0.2815  0.1026 -1.2676
 7382TIP3   OH222109   2.992   0.128   1.883  0.6967 -0.0945 -0.4350
 7382TIP3    H122110   3.042   0.199   1.843  1.2831 -0.5983 -0.6215
 7382TIP3    H222111   3.057   0.059   1.899 -0.0100 -0.9432 -1.1177
 7383TIP3   OH222112   2.146   3.774   4.958  0.3612  0.2734 -0.1989
 7383TIP3    H122113   2.163   3.700   4.900  0.3450  0.1441 -0.0385
 7383TIP3    H222114   2.152   3.851   4.901 -0.8173  0.0751 -0.6220
 7384TIP3   OH222115   5.346   0.487   4.598  0.2144 -0.1048 -0.1833
 7384TIP3    H122116   5.431   0.459   4.632  1.1304  1.2859 -1.2326
 7384TIP3    H222117   5.303   0.529   4.673  0.5569 -0.5980  0.2925
 7385TIP3   OH222118   2.832   2.554   2.940 -0.4684  0.0573  0.5858
 7385TIP3    H122119   2.757   2.519   2.892  0.8620 -1.1076 -0.7407
 7385TIP3    H222120   2.858   2.631   2.890 -0.0851 -0.2169  0.3539
 7386TIP3   OH222121   1.161   1.096   3.800 -0.1148  0.1903  0.8900
 7386TIP3    H122122   1.072   1.093   3.765 -0.0080  2.4219  0.2695
 7386TIP3    H222123   1.164   1.026   3.865 -1.8975 -0.7816 -0.0018
 7387TIP3   OH222124   1.682   0.510   0.281 -0.1119 -0.1248  0.4825
 7387TIP3    H122125   1.675   0.588   0.226 -0.7637  0.6000  1.5469
 7387TIP3    H222126   1.713   0.441   0.222 -1.7130  0.3719 -1.0146
 7388TIP3   OH222127   0.793   1.630   0.951 -0.6656 -0.1350 -0.6855
 7388TIP3    H122128   0.754   1.548   0.981  0.6118 -0.0055  1.5633
 7388TIP3    H222129   0.719   1.692   0.949 -1.2527 -0.8064 -0.2476
 7389TIP3   OH222130   1.610   4.143   2.829  0.2903 -0.1936 -0.0801
 7389TIP3    H122131   1.579   4.159   2.739 -1.1373  0.8195  0.5484
 7389TIP3    H222132   1.701   4.174   2.828 -0.6344  2.8695 -0.4327
 7390TIP3   OH222133   2.383   3.882   4.246 -0.1570  0.4305 -0.1103
 7390TIP3    H122134   2.450   3.933   4.292  0.3528  0.4931 -0.8968
 7390TIP3    H222135   2.424   3.858   4.163 -0.8452 -0.1877 -0.2820
 7391TIP3   OH222136   2.082   3.349   3.699 -0.5833  0.1285 -0.5717
 7391TIP3    H122137   2.128   3.420   3.654 -0.8702 -0.0602 -1.1667
 7391TIP3    H222138   2.131   3.270   3.674  1.3962  0.3244  2.1718
 7392TIP3   OH222139   2.427   5.586   4.309 -0.2375  0.0378 -0.3033
 7392TIP3    H122140   2.475   5.613   4.388 -0.3464  0.2635 -0.3145
 7392TIP3    H222141   2.488   5.531   4.261 -0.6218 -1.2633  0.6193
 7393TIP3   OH222142   6.315   0.425   3.066 -0.2308  0.1226 -0.1936
 7393TIP3    H122143   6.329   0.510   3.024  1.6719  0.0318  0.1712
 7393TIP3    H222144   6.279   0.446   3.152 -0.2628  0.5409 -0.3073
 7394TIP3   OH222145   1.869   3.513   4.147  0.3570 -0.0862  0.4108
 7394TIP3    H122146   1.939   3.573   4.173  1.3759  0.1685 -2.5897
 7394TIP3    H222147   1.907   3.459   4.078 -1.4608 -2.1872  0.9445
 7395TIP3   OH222148   2.964   3.050   2.515 -0.6006  0.9861  0.0650
 7395TIP3    H122149   2.944   2.978   2.455  0.5033  0.8607 -0.1851
 7395TIP3    H222150   2.883   3.100   2.522 -1.2128  0.0457 -0.2156
 7396TIP3   OH222151   7.072   1.589   3.671  0.0317  0.2392 -0.1158
 7396TIP3    H122152   7.034   1.505   3.643 -2.0669  0.2977  2.2221
 7396TIP3    H222153   7.013   1.655   3.634  0.8462  0.6468 -0.7243
 7397TIP3   OH222154   5.105   3.489   3.251 -0.7286 -0.2328 -0.1770
 7397TIP3    H122155   5.070   3.431   3.184  0.1919  1.7883 -2.5251
 7397TIP3    H222156   5.034   3.550   3.269 -0.0676  0.9111 -1.3761
 7398TIP3   OH222157   2.574   2.041   3.791  0.2222  0.8940 -0.4396
 7398TIP3    H122158   2.605   2.114   3.738  0.3374  0.5425 -0.8527
 7398TIP3    H222159   2.621   1.965   3.759  1.4120  0.9038  1.1427
 7399TIP3   OH222160   6.666   2.329   3.193 -0.8860  0.4891  0.3007
 7399TIP3    H122161   6.735   2.338   3.259 -1.0286 -1.5744  0.8033
 7399TIP3    H222162   6.620   2.248   3.218 -1.1673 -0.1572 -2.1071
 7400TIP3   OH222163   5.647   1.073   2.466 -0.2641 -0.4130 -0.2171
 7400TIP3    H122164   5.691   1.144   2.514 -1.5039 -0.2710  0.7697
 7400TIP3    H222165   5.638   1.003   2.531 -1.4531 -0.4403 -0.3950
 7401TIP3   OH222166   0.388   6.489   3.077 -0.3607  0.1058 -0.3826
 7401TIP3    H122167   0.434   6.519   3.155  1.4709  0.1732 -1.4438
 7401TIP3    H222168   0.312   6.547   3.070 -0.5867  0.0907  1.3168
 7402TIP3   OH222169   1.878   6.755   3.167 -0.2531 -0.5790  0.1592
 7402TIP3    H122170   1.833   6.743   3.250  0.4748  0.9805  0.8331
 7402TIP3    H222171   1.925   6.838   3.177 -2.4564  1.2968 -2.7929
 7403TIP3   OH222172   2.725   6.752   3.557 -0.2281  0.0398 -1.0126
 7403TIP3    H122173   2.647   6.795   3.524 -0.9324 -1.5485 -1.5156
 7403TIP3    H222174   2.798   6.798   3.515 -0.8947  1.3202 -0.7949
 7404TIP3   OH222175   3.430   5.360   2.154  0.1730  0.2644 -0.2520
 7404TIP3    H122176   3.352   5.397   2.111 -0.5838  0.1204  0.9690
 7404TIP3    H222177   3.445   5.277   2.108  0.5069  0.9797 -1.4750
 7405TIP3   OH222178   0.208   4.511   5.055 -0.1350  0.3731 -0.5131
 7405TIP3    H122179   0.260   4.560   4.991  0.2747  0.3630 -0.1940
 7405TIP3    H222180   0.190   4.427   5.012 -1.0129  0.8654 -1.1400
 7406TIP3   OH222181   4.091   0.823   1.840 -0.4735  0.0540  0.2829
 7406TIP3    H122182   4.071   0.736   1.804 -1.0273 -0.0999  0.9402
 7406TIP3    H222183   4.095   0.809   1.935  0.2020  0.6017  0.3401
 7407TIP3   OH222184   0.871   5.427   2.185  0.3965  0.4095 -0.2444
 7407TIP3    H122185   0.934   5.439   2.113  0.1590  1.4185 -0.3016
 7407TIP3    H222186   0.787   5.454   2.147 -0.4042 -2.2928 -0.6293
 7408TIP3   OH222187   5.156   6.286   0.885  0.1009 -0.5358 -0.2830
 7408TIP3    H122188   5.166   6.319   0.795  1.7075  1.9882  0.6976
 7408TIP3    H222189   5.246   6.285   0.919 -0.6821  1.1497  2.0727
 7409TIP3   OH222190   5.564   5.515   0.930  0.2842 -0.3502  0.5278
 7409TIP3    H122191   5.586   5.603   0.901 -1.1235 -0.1547 -0.0314
 7409TIP3    H222192   5.551   5.465   0.850 -0.2512 -0.7074  0.8293
 7410TIP3   OH222193   4.733   6.183   3.642  0.3499 -0.2840  0.3901
 7410TIP3    H122194   4.752   6.097   3.678 -0.0998 -0.7895 -0.5528
 7410TIP3    H222195   4.819   6.220   3.622  0.7646  0.8014  3.6323
 7411TIP3   OH222196   7.169   2.397   0.368 -0.5599  0.0969 -0.3985
 7411TIP3    H122197   7.247   2.443   0.396 -0.3814 -0.8067  0.6431
 7411TIP3    H222198   7.138   2.446   0.291  0.4771  1.0115 -0.2482
 7412TIP3   OH222199   1.040   5.892   2.427  0.3166  0.5873  0.0619
 7412TIP3    H122200   0.983   5.889   2.504  0.5283  2.2358  0.3219
 7412TIP3    H222201   1.009   5.821   2.371 -1.2748  0.7549  0.6936
 7413TIP3   OH222202   1.400   4.937   5.630 -0.4365 -0.9909  0.1777
 7413TIP3    H122203   1.455   4.961   5.555 -2.7774 -2.5468 -2.2757
 7413TIP3    H222204   1.401   4.841   5.629 -0.0005 -1.0529  2.6538
 7414TIP3   OH222205   7.160   1.732   4.711  0.6901 -0.3885  0.2474
 7414TIP3    H122206   7.175   1.819   4.674  1.5019 -0.9214 -0.7124
 7414TIP3    H222207   7.126   1.750   4.799 -0.6522  0.8990 -0.4831
 7415TIP3   OH222208   4.744   4.213   0.959 -0.3431  0.1241 -0.7578
 7415TIP3    H122209   4.722   4.255   1.043  0.8971 -1.1516  0.2559
 7415TIP3    H222210   4.680   4.143   0.949 -1.2727  1.0515 -1.5393
 7416TIP3   OH222211   6.049   5.820   2.772 -0.4755 -0.1392 -0.1163
 7416TIP3    H122212   6.124   5.863   2.813 -0.8540  0.0658  0.3618
 7416TIP3    H222213   5.974   5.873   2.797 -0.8533 -0.6660 -0.1211
 7417TIP3   OH222214   7.201   2.659   4.499  0.3457 -0.0616 -0.0133
 7417TIP3    H122215   7.134   2.689   4.560 -0.8996 -0.5910 -1.1027
 7417TIP3    H222216   7.243   2.585   4.544 -1.1882 -1.0445 -0.1534
 7418TIP3   OH222217   2.980   2.307   4.948  0.5881 -0.1645 -0.0047
 7418TIP3    H122218   3.057   2.278   4.898 -0.0007 -0.0050 -1.0400
 7418TIP3    H222219   2.909   2.250   4.917 -0.3861  1.6688 -1.3732
 7419TIP3   OH222220   3.748   5.358   1.799 -0.1149 -0.0193  0.0648
 7419TIP3    H122221   3.701   5.386   1.878 -0.2549 -0.6679  0.2128
 7419TIP3    H222222   3.679   5.327   1.741 -0.0254  0.5965 -0.3745
 7420TIP3   OH222223   6.054   3.012   5.599  0.0423 -0.0802 -0.5805
 7420TIP3    H122224   5.979   3.015   5.539  0.0762  0.8815 -0.5973
 7420TIP3    H222225   6.130   2.999   5.543  0.1127  1.1789 -0.8029
 7421TIP3   OH222226   4.424   1.087   5.179 -0.1056  0.2416 -0.1529
 7421TIP3    H122227   4.342   1.068   5.133 -0.4689  1.1029  0.1180
 7421TIP3    H222228   4.407   1.060   5.269 -0.6367  1.8039  0.2420
 7422TIP3   OH222229   6.108   4.218   1.153  0.6158  0.8610  0.0119
 7422TIP3    H122230   6.051   4.167   1.095  1.6795  0.4257 -0.6923
 7422TIP3    H222231   6.195   4.179   1.142  0.7806  0.4243  2.3036
 7423TIP3   OH222232   5.942   0.709   5.362 -0.2945  0.1045 -1.0407
 7423TIP3    H122233   5.911   0.649   5.430  1.6124  0.6292  0.3847
 7423TIP3    H222234   5.872   0.773   5.352 -1.1936 -0.7887 -0.5845
 7424TIP3   OH222235   2.835   5.405   2.432 -0.1767  0.0123  0.3420
 7424TIP3    H122236   2.798   5.318   2.415  0.2561 -0.1884  0.3992
 7424TIP3    H222237   2.919   5.404   2.387 -0.5333  0.7071 -0.3593
 7425TIP3   OH222238   3.290   3.405   5.816  0.7073 -0.1959 -0.3982
 7425TIP3    H122239   3.268   3.376   5.727  1.2235 -2.0669  0.0487
 7425TIP3    H222240   3.286   3.500   5.811 -0.9859 -0.2880 -1.9822
 7426TIP3   OH222241   1.502   4.942   0.512 -0.3797  0.3722 -0.2809
 7426TIP3    H122242   1.510   4.858   0.467 -2.1904  1.1744 -2.2881
 7426TIP3    H222243   1.592   4.966   0.534  0.3269 -1.3027 -1.1697
 7427TIP3   OH222244   5.339   5.604   0.380 -0.3188 -0.3574  0.5462
 7427TIP3    H122245   5.290   5.558   0.312 -1.0536 -0.2928  1.0212
 7427TIP3    H222246   5.350   5.693   0.345  1.2253 -0.8984 -0.4321
 7428TIP3   OH222247   6.199   5.938   4.682  0.0486  0.0251  0.3011
 7428TIP3    H122248   6.257   5.875   4.723  2.4260  0.7483 -1.6496
 7428TIP3    H222249   6.239   6.023   4.702 -1.4332  0.7047  0.4671
 7429TIP3   OH222250   0.126   2.332   2.301 -0.4759 -0.3074  0.6309
 7429TIP3    H122251   0.057   2.383   2.344 -0.7589 -0.9048  0.8987
 7429TIP3    H222252   0.147   2.382   2.222 -2.1059 -0.7338 -0.1282
 7430TIP3   OH222253   1.027   1.964   0.498 -0.2164  0.2745  0.0644
 7430TIP3    H122254   1.089   1.895   0.476  0.9567  1.2759  0.1369
 7430TIP3    H222255   0.981   1.981   0.416  2.1866  2.0383 -1.0211
 7431TIP3   OH222256   0.567   5.579   2.106  0.5318  0.1337 -0.0867
 7431TIP3    H122257   0.605   5.667   2.109  1.0865 -0.0585 -0.9669
 7431TIP3    H222258   0.476   5.594   2.081  0.0849  0.5771  1.6921
 7432TIP3   OH222259   1.474   2.364   2.556 -0.7392  0.5860  0.3625
 7432TIP3    H122260   1.497   2.353   2.648  0.5001 -2.3571 -0.1793
 7432TIP3    H222261   1.491   2.279   2.516 -1.7789  1.5754 -2.5093
 7433TIP3   OH222262   4.085   6.002   1.057  0.3821 -0.5057 -0.2787
 7433TIP3    H122263   3.994   5.979   1.037 -0.1870  0.8660  0.5550
 7433TIP3    H222264   4.114   5.937   1.120  0.3422 -1.5613 -1.3132
 7434TIP3   OH222265   5.370   1.039   5.308  0.3041 -0.2454  0.3329
 7434TIP3    H122266   5.406   0.994   5.384 -0.6290 -1.6017 -0.0026
 7434TIP3    H222267   5.314   1.108   5.344  3.2634  2.0717  0.8760
 7435TIP3   OH222268   3.356   2.566   0.831  0.0617  0.7016 -0.4103
 7435TIP3    H122269   3.418   2.623   0.785 -0.0912  1.4913  0.3290
 7435TIP3    H222270   3.405   2.486   0.848  1.1353  1.5529  0.7457
 7436TIP3   OH222271   0.885   4.860   2.985  0.0522 -0.3502 -0.1348
 7436TIP3    H122272   0.886   4.956   2.982  0.9559 -0.3459 -2.3464
 7436TIP3    H222273   0.977   4.836   2.998 -0.1766 -0.9091  0.4443
 7437TIP3   OH222274   1.943   2.921   5.411 -0.2057  0.1342 -0.5253
 7437TIP3    H122275   1.879   2.958   5.350  0.4205  1.2374 -0.5301
 7437TIP3    H222276   1.940   2.827   5.394 -1.6046  0.1861 -0.7301
 7438TIP3   OH222277   1.409   3.218   4.995  0.4966  0.0483 -0.1813
 7438TIP3    H122278   1.422   3.245   5.086  0.0154 -1.4306  0.3629
 7438TIP3    H222279   1.317   3.236   4.978 -0.1434 -2.1186  0.5685
 7439TIP3   OH222280   6.406   1.318   0.093 -0.5735 -0.2422  0.0265
 7439TIP3    H122281   6.339   1.265   0.135 -0.5602  0.4255  0.9202
 7439TIP3    H222282   6.359   1.395   0.060 -0.6755 -0.9784 -1.6791
 7440TIP3   OH222283   2.820   5.724   1.788  0.4444 -0.3404  0.0831
 7440TIP3    H122284   2.779   5.673   1.718 -0.8085 -0.6106  0.9765
 7440TIP3    H222285   2.779   5.810   1.782  0.6183 -0.2456  0.2359
 7441TIP3   OH222286   6.066   0.204   3.171  0.6246  0.4096  0.2638
 7441TIP3    H122287   6.118   0.238   3.244 -1.9075 -1.8571  3.4474
 7441TIP3    H222288   5.999   0.271   3.155 -0.0637  0.0755  1.5788
 7442TIP3   OH222289   0.149   2.196   5.094  0.2371 -0.2137  0.1748
 7442TIP3    H122290   0.127   2.216   5.185 -0.2951  0.7162 -0.1437
 7442TIP3    H222291   0.237   2.232   5.083 -0.9878  2.8685 -0.6012
 7443TIP3   OH222292   0.956   0.849   5.390  0.1819 -0.2308 -0.1236
 7443TIP3    H122293   1.035   0.810   5.353  0.3444 -0.6365  0.6378
 7443TIP3    H222294   0.947   0.933   5.345  1.9952  0.5992  0.9873
 7444TIP3   OH222295   3.285   0.500   0.595  0.1599 -0.8095 -0.0807
 7444TIP3    H122296   3.368   0.494   0.548 -0.3799 -0.3934 -1.1034
 7444TIP3    H222297   3.307   0.474   0.685  1.1391 -1.9634 -0.6212
 7445TIP3   OH222298   3.537   1.520   0.136  0.6863 -0.8676 -0.0583
 7445TIP3    H122299   3.555   1.428   0.119  0.0544 -0.7985 -1.2301
 7445TIP3    H222300   3.478   1.546   0.064  0.3338  0.2687  0.6217
 7446TIP3   OH222301   1.871   4.945   4.676 -0.1083  0.1211  0.2018
 7446TIP3    H122302   1.778   4.959   4.695  0.1523 -0.6996  2.4501
 7446TIP3    H222303   1.875   4.860   4.633 -0.5186  1.0109 -1.7105
 7447TIP3   OH222304   1.843   4.105   3.559  0.7657 -0.4048  0.3092
 7447TIP3    H122305   1.862   4.082   3.650 -1.5820 -1.4859  0.6154
 7447TIP3    H222306   1.770   4.047   3.535  0.8078  0.4027 -2.0073
 7448TIP3   OH222307   5.963   3.089   3.257  0.1205 -0.2967  0.1370
 7448TIP3    H122308   6.030   3.156   3.247 -0.2377 -0.1143 -1.2161
 7448TIP3    H222309   5.880   3.135   3.244 -0.1490 -0.9171 -0.4321
 7449TIP3   OH222310   4.745   3.119   3.513  0.2671 -0.3592  0.1104
 7449TIP3    H122311   4.831   3.077   3.512  0.5371  0.1898 -0.1035
 7449TIP3    H222312   4.764   3.212   3.517 -0.3027 -0.2622  3.6176
 7450TIP3   OH222313   3.491   4.686   3.024  0.4550 -0.0603 -0.0780
 7450TIP3    H122314   3.585   4.682   3.008  0.5889 -0.3383  0.7441
 7450TIP3    H222315   3.479   4.762   3.081  0.0946  0.3687 -0.7069
 7451TIP3   OH222316   0.422   0.922   4.489  0.1663  0.0931  0.4465
 7451TIP3    H122317   0.444   0.927   4.396  3.7607 -0.3326  1.1017
 7451TIP3    H222318   0.393   0.832   4.502  2.5384 -0.7833  0.1389
 7452TIP3   OH222319   0.152   0.859   3.186 -0.2144 -0.2709  0.8574
 7452TIP3    H122320   0.124   0.768   3.187 -1.1651 -0.0232 -0.4360
 7452TIP3    H222321   0.113   0.896   3.107 -0.7992  1.5583  1.9314
 7453TIP3   OH222322   2.300   2.689   4.431 -0.2105 -0.9278 -0.6812
 7453TIP3    H122323   2.361   2.679   4.504 -0.5468  1.2385 -0.0350
 7453TIP3    H222324   2.353   2.728   4.361 -1.0704  2.7336  0.4867
 7454TIP3   OH222325   1.967   5.462   0.664 -0.2920 -0.1688  0.2171
 7454TIP3    H122326   1.912   5.453   0.586  0.5284  0.5124 -0.4548
 7454TIP3    H222327   1.994   5.372   0.684 -0.8746 -0.4010 -0.0053
 7455TIP3   OH222328   0.689   4.367   3.588 -0.3402 -0.3534  0.2904
 7455TIP3    H122329   0.672   4.394   3.498 -0.0271  0.4181  0.4535
 7455TIP3    H222330   0.618   4.307   3.610 -2.2400  1.9117  0.6010
 7456TIP3   OH222331   2.651   6.480   5.028 -0.1865 -0.0658 -0.3202
 7456TIP3    H122332   2.621   6.556   4.979 -4.3671  0.7326  2.8835
 7456TIP3    H222333   2.696   6.517   5.104 -2.1994 -0.6262  1.2352
 7457TIP3   OH222334   4.730   3.799   3.683  0.3802  0.2354  0.4542
 7457TIP3    H122335   4.684   3.846   3.613  0.6744  0.9393  0.7261
 7457TIP3    H222336   4.788   3.865   3.722  0.6087 -0.2901  1.0133
 7458TIP3   OH222337   1.091   2.718   0.201 -0.0204  0.5538 -0.1518
 7458TIP3    H122338   1.078   2.774   0.124  0.4248  1.0879  0.1475
 7458TIP3    H222339   1.007   2.720   0.246 -0.4506 -0.1938 -0.8920
 7459TIP3   OH222340   6.401   0.097   4.058  0.1969 -0.0805  0.2342
 7459TIP3    H122341   6.341   0.161   4.021 -0.7328 -0.9648  0.1713
 7459TIP3    H222342   6.487   0.139   4.054 -0.2537  0.7873 -0.6565
 7460TIP3   OH222343   6.612   3.589   5.863  1.1328  0.2120 -0.1113
 7460TIP3    H122344   6.544   3.589   5.931  0.8899 -0.5886 -0.3490
 7460TIP3    H222345   6.615   3.499   5.832  2.4440  0.1877  0.0261
 7461TIP3   OH222346   5.283   0.539   0.958  0.4659 -0.5730  0.2757
 7461TIP3    H122347   5.273   0.628   0.993  1.1073 -0.1847 -0.4971
 7461TIP3    H222348   5.374   0.536   0.927  0.2073 -1.2374 -0.4415
 7462TIP3   OH222349   3.448   5.896   3.810  0.1298 -0.4036  0.0838
 7462TIP3    H122350   3.431   5.979   3.855 -1.7669  1.2065 -3.2633
 7462TIP3    H222351   3.543   5.892   3.803  0.3668  0.4546  1.9794
 7463TIP3   OH222352   6.997   1.948   0.037  0.1175  0.2459  0.1945
 7463TIP3    H122353   7.061   2.019   0.043  1.1593 -0.5704 -0.9030
 7463TIP3    H222354   7.042   1.872   0.075  0.7344 -0.9124 -2.5863
 7464TIP3   OH222355   0.359   2.200   1.185  0.4014 -0.6271  0.0823
 7464TIP3    H122356   0.445   2.199   1.143  1.2086  0.4810  1.6203
 7464TIP3    H222357   0.299   2.228   1.116  1.9832  3.2942  0.0427
 7465TIP3   OH222358   1.650   0.909   3.985  0.0509 -0.9308  0.0622
 7465TIP3    H122359   1.649   0.980   3.920 -1.1352 -0.2933  0.7458
 7465TIP3    H222360   1.558   0.890   4.002  0.3529 -1.7771  0.8314
 7466TIP3   OH222361   1.285   1.543   3.960  0.3689 -0.3049 -0.1674
 7466TIP3    H122362   1.377   1.550   3.934  0.1538 -1.3275 -1.2825
 7466TIP3    H222363   1.283   1.468   4.020  0.3920  0.2833  0.5873
 7467TIP3   OH222364   0.115   2.253   1.880  0.0457 -0.0087  0.0988
 7467TIP3    H122365   0.065   2.280   1.803  1.3961 -1.3747 -1.3425
 7467TIP3    H222366   0.168   2.179   1.849 -1.1378 -2.2518  2.9651
 7468TIP3   OH222367   1.732   2.654   0.654 -0.3375  1.1881  0.3055
 7468TIP3    H122368   1.747   2.712   0.729 -0.1851  0.7717  0.6029
 7468TIP3    H222369   1.660   2.598   0.682 -1.3398  2.0603 -0.4702
 7469TIP3   OH222370   7.077   2.947   5.756  0.1355 -0.6488 -0.0999
 7469TIP3    H122371   6.995   2.907   5.782  0.6243 -0.7846  1.3320
 7469TIP3    H222372   7.079   2.939   5.660 -1.4912 -0.6401 -0.1550
 7470TIP3   OH222373   2.649   0.746   1.406 -0.0048  0.0457  0.1810
 7470TIP3    H122374   2.587   0.695   1.353 -0.1365 -0.0323  0.4067
 7470TIP3    H222375   2.665   0.691   1.483 -2.1823  1.4141  1.7407
 7471TIP3   OH222376   5.201   1.489   4.741  0.0299  0.2254  0.2579
 7471TIP3    H122377   5.247   1.543   4.806  1.0524 -2.1039  1.6341
 7471TIP3    H222378   5.202   1.401   4.779 -1.4167 -0.8151 -1.9143
 7472TIP3   OH222379   0.090   5.157   0.611  0.2012 -0.0739  0.3404
 7472TIP3    H122380   0.042   5.218   0.667 -0.5027 -0.3202  0.0301
 7472TIP3    H222381   0.028   5.084   0.598  1.2434 -1.1486  1.2137
 7473TIP3   OH222382   0.500   6.060   2.137 -0.4168 -0.0451  0.2620
 7473TIP3    H122383   0.579   6.009   2.118 -0.0129  1.0426 -1.1444
 7473TIP3    H222384   0.428   6.000   2.118  0.0613 -0.5887  0.1188
 7474TIP3   OH222385   3.034   1.368   2.629 -0.4215  0.4011 -0.3826
 7474TIP3    H122386   2.989   1.411   2.556 -1.4208  1.1382  0.6247
 7474TIP3    H222387   2.966   1.357   2.695  0.5260  0.0190  0.5519
 7475TIP3   OH222388   2.629   1.428   2.498  0.6765 -0.2597  0.1834
 7475TIP3    H122389   2.687   1.364   2.538  0.7863  0.5428  1.3656
 7475TIP3    H222390   2.685   1.504   2.481  0.1801  0.1935  0.5109
 7476TIP3   OH222391   3.814   5.396   2.757  0.2298 -0.1870  0.0585
 7476TIP3    H122392   3.871   5.352   2.820  0.5521 -1.2405 -0.9391
 7476TIP3    H222393   3.736   5.421   2.808  0.1920 -1.6128  0.7338
 7477TIP3   OH222394   2.277   0.448   0.469  0.3671 -0.3488  0.1270
 7477TIP3    H122395   2.194   0.474   0.430  0.2764 -0.6450  0.1167
 7477TIP3    H222396   2.290   0.508   0.542 -0.1202 -0.6403  0.4624
 7478TIP3   OH222397   1.860   3.041   1.950  0.8799 -0.1200 -0.1284
 7478TIP3    H122398   1.850   3.079   2.038 -1.5860 -1.7962  0.4020
 7478TIP3    H222399   1.923   2.970   1.962 -1.1394 -1.8488  0.9090
 7479TIP3   OH222400   1.001   2.417   1.873  0.0078  0.4726 -0.3312
 7479TIP3    H122401   0.939   2.359   1.828  0.7289 -0.7339  0.1948
 7479TIP3    H222402   0.966   2.425   1.961  0.1799  0.4110 -0.2565
 7480TIP3   OH222403   3.948   3.470   2.375  0.3752  0.5180  0.5208
 7480TIP3    H122404   3.975   3.440   2.288 -1.4203  0.7100 -0.1300
 7480TIP3    H222405   3.979   3.561   2.380  1.7820  0.0588  0.7021
 7481TIP3   OH222406   5.659   2.420   3.015 -0.2342 -0.5079  0.4068
 7481TIP3    H122407   5.624   2.461   2.937 -1.8707 -1.8335  0.3960
 7481TIP3    H222408   5.746   2.460   3.027 -2.0202  3.7035  1.0180
 7482TIP3   OH222409   5.676   1.358   0.397 -0.2833 -0.0726 -0.3590
 7482TIP3    H122410   5.643   1.448   0.408 -1.7541 -0.7561  1.3282
 7482TIP3    H222411   5.768   1.370   0.376 -0.6824  1.8592 -1.2742
 7483TIP3   OH222412   6.709   1.963   3.131  0.1483  0.1585 -0.2937
 7483TIP3    H122413   6.717   2.015   3.051  2.0563 -0.2065 -0.3971
 7483TIP3    H222414   6.718   1.873   3.102  1.3270  0.0461  0.3669
 7484TIP3   OH222415   6.180   4.140   1.631  0.0680 -0.3076  0.6242
 7484TIP3    H122416   6.261   4.089   1.641 -0.5558 -1.3712  0.4079
 7484TIP3    H222417   6.156   4.129   1.539  0.0450  0.5844  0.5189
 7485TIP3   OH222418   5.441   4.612   1.827 -0.4110 -0.4693 -0.3613
 7485TIP3    H122419   5.465   4.527   1.789 -2.2822 -2.1400  1.9330
 7485TIP3    H222420   5.522   4.643   1.867  1.0635  0.3441 -3.6263
 7486TIP3   OH222421   6.298   6.414   1.586  0.3447 -0.0063 -0.0635
 7486TIP3    H122422   6.256   6.376   1.663  0.3351  0.1579  0.0126
 7486TIP3    H222423   6.388   6.431   1.614  0.5823 -0.7471 -0.3544
 7487TIP3   OH222424   2.218   0.361   4.127  0.2979  0.1532 -0.4579
 7487TIP3    H122425   2.204   0.346   4.220  1.2891  0.2599 -0.2800
 7487TIP3    H222426   2.311   0.342   4.113 -0.2983 -2.1260 -1.8654
 7488TIP3   OH222427   4.276   4.640   0.582  0.3033 -0.2353 -0.5220
 7488TIP3    H122428   4.304   4.575   0.646  1.4009  1.8206  1.2201
 7488TIP3    H222429   4.184   4.656   0.602  0.8081  0.8949  1.0975
 7489TIP3   OH222430   4.470   6.491   0.630 -0.1091  0.4927 -0.0970
 7489TIP3    H122431   4.424   6.426   0.577 -0.3647 -0.6382  1.4732
 7489TIP3    H222432   4.444   6.575   0.592  0.1014 -0.2775 -2.0589
 7490TIP3   OH222433   2.558   4.658   0.517 -1.0038  0.2096 -0.4178
 7490TIP3    H122434   2.526   4.578   0.559 -0.6472  0.2354 -0.0914
 7490TIP3    H222435   2.629   4.688   0.573 -1.8529  1.3754  0.0851
 7491TIP3   OH222436   1.350   2.789   0.273 -0.1188  0.0395 -0.1591
 7491TIP3    H122437   1.263   2.766   0.239 -0.9745  0.4636  1.6111
 7491TIP3    H222438   1.338   2.793   0.368  1.9940 -0.4673  0.1717
 7492TIP3   OH222439   2.466   0.879   5.534  0.0337  0.3264  0.0883
 7492TIP3    H122440   2.378   0.903   5.504 -1.1592 -0.4692  2.6285
 7492TIP3    H222441   2.525   0.925   5.475 -2.0761  1.0462 -1.6042
 7493TIP3   OH222442   4.913   6.778   3.669 -0.0220 -0.1227 -0.2496
 7493TIP3    H122443   4.973   6.829   3.615  2.0467 -1.2917  0.8078
 7493TIP3    H222444   4.942   6.688   3.658 -1.0708 -0.6317  0.9593
 7494TIP3   OH222445   3.093   0.141   0.457 -0.1550  0.2683 -0.3091
 7494TIP3    H122446   3.119   0.102   0.374 -2.2308 -1.0502 -0.4410
 7494TIP3    H222447   3.019   0.087   0.486  0.2527  0.9217  2.2059
 7495TIP3   OH222448   3.576   5.218   1.081  0.3386  0.2822  0.0556
 7495TIP3    H122449   3.587   5.312   1.100 -0.0116  0.6361 -1.3886
 7495TIP3    H222450   3.481   5.205   1.080  0.2934  0.4536 -2.0623
 7496TIP3   OH222451   5.201   0.172   1.373 -0.0775  0.3362 -0.0480
 7496TIP3    H122452   5.118   0.218   1.367  0.4889  1.7140  1.7459
 7496TIP3    H222453   5.264   0.228   1.328  0.0468 -0.2857 -0.6630
 7497TIP3   OH222454   0.733   2.868   0.104  0.5650  0.5205  0.7193
 7497TIP3    H122455   0.770   2.809   0.170  0.4956  0.3461  0.6042
 7497TIP3    H222456   0.763   2.831   0.020  0.1442  0.3865  0.6263
 7498TIP3   OH222457   1.533   1.183  -0.007  0.1671  0.1770 -0.1531
 7498TIP3    H122458   1.518   1.167   0.086  1.9263  1.6732  0.4454
 7498TIP3    H222459   1.613   1.134  -0.027  0.0960  0.2982 -0.7516
 7499TIP3   OH222460   5.098   1.894   2.468  0.3334  0.5439 -0.0719
 7499TIP3    H122461   5.167   1.865   2.528 -0.4405 -0.5982  0.2996
 7499TIP3    H222462   5.141   1.959   2.412  1.7179 -0.1422  0.1395
 7500TIP3   OH222463   0.232   1.088   5.115  0.1056  0.1204 -0.2111
 7500TIP3    H122464   0.317   1.118   5.147 -0.1673  0.4292  0.2388
 7500TIP3    H222465   0.218   1.138   5.035 -0.4473  1.4078  0.6455
 7501TIP3   OH222466   0.478   2.857   2.420  0.0341  0.0931  0.8707
 7501TIP3    H122467   0.415   2.860   2.348 -1.0995  0.6465  1.8563
 7501TIP3    H222468   0.505   2.948   2.431  1.3073 -0.1872  0.2209
 7502TIP3   OH222469   4.336   4.512   3.449 -0.0986  0.0256  0.2995
 7502TIP3    H122470   4.398   4.539   3.517  2.6489 -1.1851 -1.5870
 7502TIP3    H222471   4.286   4.441   3.489  0.3020  0.4383  1.5884
 7503TIP3   OH222472   2.474   3.372   2.265  0.8215 -0.4215 -0.0154
 7503TIP3    H122473   2.526   3.392   2.343 -2.1196 -0.5289  2.1541
 7503TIP3    H222474   2.484   3.448   2.208  0.7232  1.0702  1.8671
 7504TIP3   OH222475   4.514   3.044   2.198  0.3001  0.4447 -0.2091
 7504TIP3    H122476   4.460   3.071   2.124 -0.4563  2.3229  0.9479
 7504TIP3    H222477   4.604   3.057   2.167  0.0389  0.0372 -1.1872
 7505TIP3   OH222478   3.650   5.619   2.538  0.6364 -0.2267  0.4647
 7505TIP3    H122479   3.581   5.556   2.518 -0.2380  0.5924  0.7982
 7505TIP3    H222480   3.667   5.607   2.632  0.6211 -0.1264  0.4811
 7506TIP3   OH222481   1.018   0.543   4.550  0.4327 -0.1140  0.0134
 7506TIP3    H122482   1.010   0.469   4.610 -0.5318  0.3610  0.4995
 7506TIP3    H222483   0.953   0.606   4.581  0.3296  0.3924 -1.1734
 7507TIP3   OH222484   1.869   0.179   0.254 -0.4834  0.0857  0.2180
 7507TIP3    H122485   1.777   0.163   0.233 -0.0664 -0.6817 -1.1470
 7507TIP3    H222486   1.909   0.199   0.170  0.9502 -1.3736  0.5145
 7508TIP3   OH222487   5.071   5.424   0.744  0.6289  0.2190 -0.1360
 7508TIP3    H122488   5.131   5.485   0.702  2.2860 -0.3386  1.3019
 7508TIP3    H222489   5.061   5.458   0.833  0.5017 -0.8665  0.2751
 7509TIP3   OH222490   1.158   0.203   1.764 -0.3450 -0.1225  0.7308
 7509TIP3    H122491   1.097   0.273   1.741  2.3893  1.5370 -2.4208
 7509TIP3    H222492   1.123   0.125   1.721 -0.8578  0.5118 -0.0294
 7510TIP3   OH222493   4.579   5.134   2.663 -0.3974  0.3227 -0.0574
 7510TIP3    H122494   4.609   5.139   2.753  1.5625  1.0672 -0.6876
 7510TIP3    H222495   4.558   5.224   2.639  2.1728  0.6951 -1.2394
 7511TIP3   OH222496   0.341   5.833   0.910 -0.3836  0.6584 -0.2259
 7511TIP3    H122497   0.326   5.899   0.842 -0.2300  0.9903  0.0545
 7511TIP3    H222498   0.417   5.866   0.957 -0.1137  0.1151 -0.2771
 7512TIP3   OH222499  -0.007   1.586   1.435  0.2079 -0.6043 -0.0278
 7512TIP3    H122500   0.041   1.663   1.406 -1.3468  0.3656 -0.1856
 7512TIP3    H222501  -0.028   1.604   1.527  0.0402 -0.9292 -0.0013
 7513TIP3   OH222502   6.757   4.463   2.129 -0.3832 -0.1668  0.0763
 7513TIP3    H122503   6.833   4.444   2.183 -1.3454 -0.6418  1.2996
 7513TIP3    H222504   6.757   4.393   2.063 -0.3045 -0.7214  0.6600
 7514TIP3   OH222505   1.453   2.302   1.278 -0.0674  0.2939  0.5660
 7514TIP3    H122506   1.394   2.234   1.310  1.2727 -2.1385 -1.6300
 7514TIP3    H222507   1.533   2.291   1.331  0.2792 -0.1692 -0.0282
 7515TIP3   OH222508   5.614   2.221   3.189  0.2028 -0.2488  0.2861
 7515TIP3    H122509   5.628   2.297   3.133  0.5777 -1.1434 -0.8826
 7515TIP3    H222510   5.519   2.210   3.192  0.0675  1.0420  1.5791
 7516TIP3   OH222511   1.725   3.008   3.679 -0.0168 -0.4348 -0.7324
 7516TIP3    H122512   1.712   3.023   3.585  0.6190  1.0802 -0.6021
 7516TIP3    H222513   1.791   2.938   3.682  1.6387  1.0108 -1.4822
 7517TIP3   OH222514   2.467   1.894   0.385 -0.0661 -0.8202 -0.5622
 7517TIP3    H122515   2.442   1.945   0.462  0.3108 -0.2146 -0.8345
 7517TIP3    H222516   2.384   1.867   0.346 -0.2729 -2.1181  0.6896
 7518TIP3   OH222517   1.464   5.762   0.274 -0.3894  0.0907 -0.5661
 7518TIP3    H122518   1.498   5.679   0.307 -1.8158 -0.2508  0.0952
 7518TIP3    H222519   1.477   5.757   0.179  3.9647  1.1841 -0.2456
 7519TIP3   OH222520   2.406   2.157   0.106  0.0430  0.5439  0.0721
 7519TIP3    H122521   2.441   2.220   0.042  1.8052  0.4614  0.9088
 7519TIP3    H222522   2.473   2.152   0.173 -0.5971 -1.3830  0.6083
 7520TIP3   OH222523   6.597   1.888   0.638 -0.3176  0.1171  0.0097
 7520TIP3    H122524   6.559   1.862   0.554 -1.6616  2.3379 -0.1435
 7520TIP3    H222525   6.689   1.861   0.633 -0.6114 -0.6328 -1.7734
 7521TIP3   OH222526   5.830   2.478   4.996 -0.1723  0.6205 -0.0958
 7521TIP3    H122527   5.797   2.494   4.908 -0.4994  1.1012  0.1093
 7521TIP3    H222528   5.755   2.494   5.053  0.0611  0.4063  0.2772
 7522TIP3   OH222529   1.600   6.397   3.493  0.4608  0.6188  0.1848
 7522TIP3    H122530   1.548   6.476   3.508  0.2515  1.0557 -2.3627
 7522TIP3    H222531   1.620   6.364   3.581 -3.0383  1.1118  1.3148
 7523TIP3   OH222532   7.161   2.860   3.568 -0.1108 -0.2219 -0.0600
 7523TIP3    H122533   7.105   2.836   3.495 -0.8853 -1.5597  0.9244
 7523TIP3    H222534   7.107   2.845   3.646  0.7844  0.8768  0.8027
 7524TIP3   OH222535   5.332   0.920   2.529  0.1139 -0.0044 -0.2829
 7524TIP3    H122536   5.324   0.907   2.434 -1.8195 -0.4203 -0.0950
 7524TIP3    H222537   5.423   0.896   2.548  0.3610 -0.5358 -1.9301
 7525TIP3   OH222538   0.188   6.525   4.208 -0.6113 -0.0420 -0.2246
 7525TIP3    H122539   0.211   6.447   4.258 -0.6116 -0.7208 -1.2502
 7525TIP3    H222540   0.188   6.496   4.116 -2.4220  0.6844 -0.5061
 7526TIP3   OH222541   4.438   0.184   2.157  0.3927  0.4567  0.0446
 7526TIP3    H122542   4.489   0.168   2.237 -0.4827  0.4964  0.6186
 7526TIP3    H222543   4.504   0.193   2.088  1.1306 -2.2723  0.2561
 7527TIP3   OH222544   2.093   1.561   0.745  0.1692 -0.2075  0.2072
 7527TIP3    H122545   2.180   1.578   0.782  0.2705 -0.9638  0.3216
 7527TIP3    H222546   2.039   1.537   0.819 -0.5707  1.8048  0.3767
 7528TIP3   OH222547   4.849   4.598   5.770  0.4490  0.7902  0.2157
 7528TIP3    H122548   4.922   4.545   5.739  1.0775  1.1396  1.0650
 7528TIP3    H222549   4.771   4.557   5.732  0.9928 -0.2098  0.1513
 7529TIP3   OH222550   3.947   3.873   0.565 -0.4218 -0.1894 -0.4957
 7529TIP3    H122551   4.039   3.869   0.541 -0.5892 -1.7710 -1.0049
 7529TIP3    H222552   3.928   3.966   0.573  1.4059  0.1475  0.3994
 7530TIP3   OH222553   0.514   1.649   5.717 -0.2156  0.0347 -0.3344
 7530TIP3    H122554   0.507   1.726   5.660  0.4652 -0.5950 -1.3051
 7530TIP3    H222555   0.570   1.588   5.669  0.1559 -0.6414  0.8992
 7531TIP3   OH222556   4.870   0.861   1.027  0.8258  0.4063  0.3781
 7531TIP3    H122557   4.845   0.951   1.049 -2.7462  0.2122 -1.9820
 7531TIP3    H222558   4.862   0.813   1.109 -0.0417  1.7563  1.1277
 7532TIP3   OH222559   3.382   3.857   0.297 -0.3950 -0.0345 -0.2202
 7532TIP3    H122560   3.422   3.812   0.222  1.1566 -0.1492  0.6295
 7532TIP3    H222561   3.417   3.946   0.292 -0.7553  0.1186  0.0283
 7533TIP3   OH222562   6.831   3.600   0.181 -0.0285  0.1583  0.1338
 7533TIP3    H122563   6.766   3.564   0.121 -0.2964 -1.1540  1.1769
 7533TIP3    H222564   6.787   3.603   0.266  1.6288 -2.1211  1.2056
 7534TIP3   OH222565   3.211   0.853   1.652 -0.4104 -0.1075 -0.2267
 7534TIP3    H122566   3.173   0.773   1.687 -0.5215  0.3952  0.8447
 7534TIP3    H222567   3.179   0.858   1.562  0.4147 -1.7721 -0.6391
 7535TIP3   OH222568   2.381   5.787   0.602 -0.1165  0.1071  0.6659
 7535TIP3    H122569   2.368   5.877   0.573  0.5235  0.1963  0.6576
 7535TIP3    H222570   2.465   5.788   0.647  1.8669 -1.3062 -2.6943
 7536TIP3   OH222571   5.853   0.405   4.048 -0.2837 -0.0909  0.4839
 7536TIP3    H122572   5.944   0.430   4.062 -0.2707 -0.0748  0.3717
 7536TIP3    H222573   5.830   0.353   4.125 -0.0898 -0.3477  0.3698
 7537TIP3   OH222574   3.451   4.862   0.220  0.8436 -0.1055  0.2455
 7537TIP3    H122575   3.360   4.836   0.206  0.4181  1.1612  0.5289
 7537TIP3    H222576   3.447   4.929   0.288  1.7546  1.5457 -1.2353
 7538TIP3   OH222577   1.753   2.256   1.097 -0.4494  0.0788 -0.0090
 7538TIP3    H122578   1.730   2.258   1.190 -0.2977  0.4982  0.0206
 7538TIP3    H222579   1.670   2.271   1.051 -1.1728 -3.2777 -0.0572
 7539TIP3   OH222580   3.444   2.115   4.103  0.0674 -0.2504 -0.3875
 7539TIP3    H122581   3.462   2.120   4.196 -0.0738 -2.1725 -0.2190
 7539TIP3    H222582   3.525   2.142   4.061  0.4004 -0.1662  0.3009
 7540TIP3   OH222583   5.940   4.047   3.462  0.5131 -0.3668 -0.1748
 7540TIP3    H122584   5.861   4.100   3.450  0.4479  0.2949  2.4547
 7540TIP3    H222585   5.908   3.957   3.461 -0.2768 -0.1169  0.5795
 7541TIP3   OH222586   1.191   2.345   0.932  0.2684  0.6971  0.5082
 7541TIP3    H122587   1.132   2.421   0.934  2.1068  2.2065  1.2423
 7541TIP3    H222588   1.216   2.332   1.024  1.6976  0.6792  0.1480
 7542TIP3   OH222589   2.387   4.772   2.341  0.5856 -0.0155 -0.4804
 7542TIP3    H122590   2.368   4.864   2.356  2.5462  0.3115  0.1788
 7542TIP3    H222591   2.356   4.756   2.251 -0.5937  1.0154 -0.2858
 7543TIP3   OH222592   7.094   5.181   1.775 -0.2680  0.2694  0.3507
 7543TIP3    H122593   7.035   5.116   1.738 -0.5014  1.0383 -0.6596
 7543TIP3    H222594   7.039   5.232   1.834  0.0860 -0.9022  1.7672
 7544TIP3   OH222595   1.244   3.964   3.346  0.5458 -0.1466  0.0610
 7544TIP3    H122596   1.244   4.054   3.378  2.9316 -0.1504  0.2484
 7544TIP3    H222597   1.158   3.929   3.371  0.0172  1.7072  0.9888
 7545TIP3   OH222598   0.396   0.438   2.802  0.0221  0.4734  0.1410
 7545TIP3    H122599   0.328   0.495   2.838  0.9256  1.7354 -0.0905
 7545TIP3    H222600   0.381   0.437   2.708 -0.1235  0.1455  0.1663
 7546TIP3   OH222601   0.880   4.702   3.383 -0.0495 -0.2610  0.0487
 7546TIP3    H122602   0.890   4.664   3.295 -1.0517  1.3552 -0.8017
 7546TIP3    H222603   0.786   4.699   3.400  0.3225 -3.7260  2.6269
 7547TIP3   OH222604   2.751   3.114   0.796 -0.0866  0.5862 -0.1612
 7547TIP3    H122605   2.812   3.115   0.870  1.0493 -0.7943 -1.0143
 7547TIP3    H222606   2.666   3.096   0.835  0.6827 -1.4246  0.7446
 7548TIP3   OH222607   4.529   0.955   1.598 -0.4128 -0.4840 -0.3146
 7548TIP3    H122608   4.445   0.983   1.633 -0.8555 -0.9638 -0.9962
 7548TIP3    H222609   4.531   0.860   1.612  0.4572 -0.3579  0.6318
 7549TIP3   OH222610   0.077   2.744   1.078  0.0372 -0.1087  0.2447
 7549TIP3    H122611   0.173   2.748   1.078  0.0179  0.5505 -0.5115
 7549TIP3    H222612   0.055   2.697   1.159  1.0087 -0.6314  0.2231
 7550TIP3   OH222613   6.743   0.123   4.463  0.4092  0.0012 -0.0047
 7550TIP3    H122614   6.822   0.089   4.505 -0.0295 -0.8288  0.1716
 7550TIP3    H222615   6.772   0.158   4.380  0.7992 -1.3906 -0.4792
 7551TIP3   OH222616   1.517   2.802   4.806 -0.0182  0.1391 -0.0948
 7551TIP3    H122617   1.584   2.864   4.780  1.4549 -0.5385  1.8940
 7551TIP3    H222618   1.458   2.852   4.862 -0.5238  0.4406 -0.8817
 7552TIP3   OH222619   1.553   5.084   5.442  0.7217  0.0788  0.2297
 7552TIP3    H122620   1.558   5.171   5.402  2.1373 -0.1874 -0.2094
 7552TIP3    H222621   1.636   5.072   5.486  0.8340 -1.3201 -0.2951
 7553TIP3   OH222622   1.207   0.661   5.302  0.9991 -0.3471  0.2995
 7553TIP3    H122623   1.172   0.586   5.253 -0.0328  0.6872 -0.6009
 7553TIP3    H222624   1.259   0.709   5.238  1.6028 -0.2436  0.8547
 7554TIP3   OH222625   0.387   0.930   3.534 -0.2449  0.3278 -0.0862
 7554TIP3    H122626   0.481   0.912   3.529 -0.2986  0.0631 -0.1688
 7554TIP3    H222627   0.381   1.022   3.560  0.0369  0.7622 -1.4939
 7555TIP3   OH222628   5.052   0.993   0.395 -0.0731 -0.8630  0.2527
 7555TIP3    H122629   5.036   1.020   0.304  0.5135  0.7546  0.5866
 7555TIP3    H222630   5.122   0.928   0.389  1.2029  0.4966 -0.3768
 7556TIP3   OH222631   1.721   3.873   3.382 -0.3286  0.5121  0.2516
 7556TIP3    H122632   1.704   3.787   3.343  2.5163 -0.6045  1.2008
 7556TIP3    H222633   1.653   3.930   3.346 -0.5658 -1.4489 -2.7238
 7557TIP3   OH222634   2.133   1.660   4.731 -0.4520  0.4960  0.2330
 7557TIP3    H122635   2.205   1.604   4.760 -0.3574  0.5790  0.1579
 7557TIP3    H222636   2.174   1.724   4.673 -0.7483 -0.1056 -0.6580
 7558TIP3   OH222637   3.988   0.447   0.685  0.1191 -0.3656 -0.1607
 7558TIP3    H122638   3.946   0.402   0.759  0.8500  1.5435  1.5467
 7558TIP3    H222639   4.049   0.508   0.727  1.9631 -0.5094 -2.4485
 7559TIP3   OH222640   5.249   2.448   5.189  0.0505  0.4153  0.2560
 7559TIP3    H122641   5.197   2.404   5.256 -0.0857 -0.8122 -0.5966
 7559TIP3    H222642   5.190   2.451   5.113  0.7006  0.3968 -0.2511
 7560TIP3   OH222643   3.707   3.168   0.256 -0.7621  0.8792 -0.8057
 7560TIP3    H122644   3.771   3.100   0.234 -1.1376  0.4188 -0.4973
 7560TIP3    H222645   3.719   3.235   0.189 -0.8103  0.2249 -1.4848
 7561TIP3   OH222646   3.822   2.111   5.747 -0.1346 -0.1030  0.3392
 7561TIP3    H122647   3.788   2.055   5.817 -0.8258 -0.6737 -0.4349
 7561TIP3    H222648   3.772   2.085   5.670  2.1440 -1.0778 -0.8822
 7562TIP3   OH222649   1.822   3.648   2.354  0.1930  0.4757 -0.1072
 7562TIP3    H122650   1.789   3.558   2.353  1.2011  0.0992 -0.5253
 7562TIP3    H222651   1.850   3.665   2.264  0.4553  1.0455  0.0733
 7563TIP3   OH222652   4.537   2.400   1.202 -0.1408 -0.5553  0.3663
 7563TIP3    H122653   4.475   2.443   1.261  1.8315  0.7039  1.6616
 7563TIP3    H222654   4.541   2.310   1.233  0.8834  0.0900  2.2794
 7564TIP3   OH222655   4.293   5.781   4.319 -0.2231 -0.1565 -0.3863
 7564TIP3    H122656   4.231   5.716   4.353 -0.4672 -0.0848 -0.6948
 7564TIP3    H222657   4.295   5.765   4.225 -0.3568  0.3468 -0.4768
 7565TIP3   OH222658   6.866   6.801   1.723 -0.3209 -0.1673 -0.1480
 7565TIP3    H122659   6.938   6.804   1.787  1.0867  0.1594 -1.6821
 7565TIP3    H222660   6.844   6.708   1.717  1.1267 -0.4976 -0.8550
 7566TIP3   OH222661   5.080   5.131   4.694 -0.5545 -0.1460 -0.3519
 7566TIP3    H122662   4.992   5.133   4.733  0.1013 -2.1864  1.4485
 7566TIP3    H222663   5.077   5.059   4.631 -0.4713  0.5725 -1.2070
 7567TIP3   OH222664   1.675   4.803   4.887  0.1715 -0.2491  0.3267
 7567TIP3    H122665   1.727   4.743   4.834 -0.7025  0.9551 -2.0458
 7567TIP3    H222666   1.587   4.766   4.886 -0.0509  0.2727  0.1183
 7568TIP3   OH222667   5.915   1.488   4.036 -0.3461  0.0532  0.0478
 7568TIP3    H122668   5.931   1.582   4.036 -1.0490  0.1909 -0.7028
 7568TIP3    H222669   5.865   1.472   4.116  0.8577  0.0994  0.8292
 7569TIP3   OH222670   0.498   3.225   1.942  0.6185 -0.3138 -0.2576
 7569TIP3    H122671   0.482   3.179   1.860 -0.1932 -0.4895 -0.0117
 7569TIP3    H222672   0.518   3.315   1.916  0.0769 -0.2989 -0.6337
 7570TIP3   OH222673   0.899   3.053   2.747 -0.2957 -0.3281  0.0057
 7570TIP3    H122674   0.951   3.089   2.819  1.2637  0.4594 -1.4665
 7570TIP3    H222675   0.939   2.968   2.728 -0.2675 -0.2351 -0.3643
 7571TIP3   OH222676   1.964   4.909   0.765 -0.4441 -0.0540  0.4644
 7571TIP3    H122677   1.870   4.910   0.750 -0.6519  0.8209  1.6941
 7571TIP3    H222678   1.996   4.836   0.712 -1.6775  0.2128 -0.6885
 7572TIP3   OH222679   5.002   1.506   4.528  0.6573 -0.3650 -0.1143
 7572TIP3    H122680   5.046   1.590   4.511 -1.9075  1.1328  0.1393
 7572TIP3    H222681   5.045   1.472   4.607  0.8954  1.4034  0.5674
 7573TIP3   OH222682   6.797   6.458   1.342  0.5637  0.7958  0.3264
 7573TIP3    H122683   6.726   6.490   1.286  1.4080  0.7004 -0.8345
 7573TIP3    H222684   6.755   6.394   1.399  0.0195 -0.6946 -1.6126
 7574TIP3   OH222685   4.882   4.374   1.608 -0.1358 -0.3518  0.5416
 7574TIP3    H122686   4.908   4.464   1.625  0.0812 -0.2969 -0.0478
 7574TIP3    H222687   4.921   4.353   1.523 -1.3903 -0.5173 -0.0310
 7575TIP3   OH222688   3.872   4.819   5.730  0.1754  0.2001 -0.4933
 7575TIP3    H122689   3.874   4.737   5.778  0.0938  0.1273 -0.6128
 7575TIP3    H222690   3.790   4.860   5.755 -0.0859 -0.0511 -0.9184
 7576TIP3   OH222691   2.920   1.601   5.170 -0.1656  0.1631 -0.2705
 7576TIP3    H122692   2.992   1.656   5.202 -0.5053  0.4842 -0.0394
 7576TIP3    H222693   2.961   1.540   5.109  0.4009 -0.0604  0.3268
 7577TIP3   OH222694   7.211   3.741   2.980  0.0068  0.2222  0.4263
 7577TIP3    H122695   7.209   3.652   2.945 -1.3916 -0.3806  1.9337
 7577TIP3    H222696   7.129   3.781   2.950  0.1031  0.6288  0.6900
 7578TIP3   OH222697   5.882   6.018   0.772 -0.2217  0.1656  0.0771
 7578TIP3    H122698   5.830   5.991   0.697  1.9915 -0.4773 -1.3020
 7578TIP3    H222699   5.968   6.039   0.736  1.1924 -1.0091  2.5080
 7579TIP3   OH222700   3.971   5.608   2.626  0.5512  0.0866 -0.2073
 7579TIP3    H122701   3.910   5.547   2.668 -0.0418 -0.1477 -1.3670
 7579TIP3    H222702   4.048   5.608   2.683  0.3854 -1.3957  0.0668
 7580TIP3   OH222703   1.636   0.349   2.628  0.3696  0.1864 -0.0446
 7580TIP3    H122704   1.550   0.309   2.635  1.0668 -1.3449  0.2469
 7580TIP3    H222705   1.693   0.279   2.596  1.8042  0.6948  1.2546
 7581TIP3   OH222706   3.478   2.328   0.920  0.6436 -0.2589  0.6170
 7581TIP3    H122707   3.531   2.316   0.841  0.8717  0.2000  0.6965
 7581TIP3    H222708   3.445   2.241   0.940  0.6021 -0.3862  0.0265
 7582TIP3   OH222709   3.792   1.510   4.599 -0.6713 -0.2468 -0.1183
 7582TIP3    H122710   3.745   1.429   4.585  0.1331 -0.5665 -1.0458
 7582TIP3    H222711   3.884   1.488   4.583  0.0628 -0.0014  2.9692
 7583TIP3   OH222712   5.859   4.328   2.105  0.1504 -0.4428  0.2194
 7583TIP3    H122713   5.826   4.246   2.068 -1.0273  0.6607 -1.3338
 7583TIP3    H222714   5.952   4.311   2.123  0.1684 -1.8173 -0.9935
 7584TIP3   OH222715   1.497   5.425   5.689 -0.4749 -0.1130  0.2436
 7584TIP3    H122716   1.411   5.412   5.650 -0.1949  0.9205 -0.7535
 7584TIP3    H222717   1.550   5.463   5.619  0.5472  0.0955  1.1073
 7585TIP3   OH222718   1.002   2.044   4.794 -0.1276 -0.4270  0.3203
 7585TIP3    H122719   1.036   1.972   4.740 -0.1387 -0.3111  0.1580
 7585TIP3    H222720   0.963   2.000   4.870 -0.3116 -0.6048  0.1258
 7586TIP3   OH222721   3.577   5.707   4.285 -0.1804  0.1774  0.3416
 7586TIP3    H122722   3.609   5.785   4.330  0.0770  0.8469 -0.9336
 7586TIP3    H222723   3.518   5.741   4.217  0.9483 -0.5925 -1.0970
 7587TIP3   OH222724   4.939   2.678   5.842  0.0914  0.4242 -0.5503
 7587TIP3    H122725   4.943   2.665   5.937  2.3550  0.6444 -0.5671
 7587TIP3    H222726   4.869   2.742   5.830 -0.2071  0.4301  0.9689
 7588TIP3   OH222727   6.545   2.598   1.648 -0.2947 -0.3326  0.1848
 7588TIP3    H122728   6.558   2.505   1.630 -0.1907 -0.1022 -0.9711
 7588TIP3    H222729   6.510   2.634   1.567 -0.3745  0.6343  0.6340
 7589TIP3   OH222730   2.951   3.247   3.015  0.4905 -0.6507 -0.5160
 7589TIP3    H122731   2.997   3.328   3.036 -0.8497 -0.3194  1.3796
 7589TIP3    H222732   2.992   3.181   3.071  0.3516 -0.8984 -0.7037
 7590TIP3   OH222733   6.521   2.201   2.965  0.2745  0.0463 -0.1368
 7590TIP3    H122734   6.498   2.140   3.035 -1.7985  0.4804 -0.3797
 7590TIP3    H222735   6.531   2.285   3.009  1.9576 -0.1886  0.0194
 7591TIP3   OH222736   5.968   2.511   1.770 -0.2612  0.1983 -0.3599
 7591TIP3    H122737   6.013   2.452   1.830  0.2141  0.4481 -0.4654
 7591TIP3    H222738   5.910   2.453   1.719  0.0611 -0.1519 -0.3373
 7592TIP3   OH222739   3.935   0.984   2.098 -0.6652  0.6049 -0.2432
 7592TIP3    H122740   3.976   0.927   2.163  0.2455  2.3315  0.7558
 7592TIP3    H222741   3.914   0.925   2.025 -0.1551 -1.0714  0.8931
 7593TIP3   OH222742   3.818   4.179   1.232  0.5419 -0.4231 -0.1901
 7593TIP3    H122743   3.748   4.114   1.233 -0.3510  0.5079 -0.0948
 7593TIP3    H222744   3.798   4.235   1.157 -0.2333  1.3024  1.2278
 7594TIP3   OH222745   5.665   1.955   0.952  0.1560  0.9507 -0.1575
 7594TIP3    H122746   5.740   1.941   1.010  0.3329  1.7228 -0.1952
 7594TIP3    H222747   5.676   2.045   0.920 -1.2299  1.3690  0.4908
 7595TIP3   OH222748   1.271   5.574   3.179 -0.3021 -0.6319 -0.0441
 7595TIP3    H122749   1.333   5.646   3.168 -0.5948 -0.6531 -2.2785
 7595TIP3    H222750   1.188   5.617   3.202 -0.1691 -0.3636 -0.0670
 7596TIP3   OH222751   0.605   5.371   5.246  0.2830  0.3598  0.0080
 7596TIP3    H122752   0.571   5.293   5.290  1.8084  0.2980  1.1559
 7596TIP3    H222753   0.527   5.418   5.217 -0.6827 -1.4812 -0.5536
 7597TIP3   OH222754   0.702   1.882   0.426 -0.0030  0.1707  0.0200
 7597TIP3    H122755   0.653   1.958   0.457  0.0290  0.6456 -1.0444
 7597TIP3    H222756   0.707   1.824   0.502 -0.1778  1.1523  0.7994
 7598TIP3   OH222757   3.136   6.186   3.776 -0.1758  0.0088 -0.3809
 7598TIP3    H122758   3.084   6.211   3.700  0.9892 -1.3348 -1.6888
 7598TIP3    H222759   3.215   6.239   3.770  0.6539 -1.2567 -1.0874
 7599TIP3   OH222760   3.175   0.246   2.591 -0.0386  0.3018 -0.8632
 7599TIP3    H122761   3.185   0.152   2.606 -2.1570  0.0591 -0.6790
 7599TIP3    H222762   3.151   0.253   2.499  0.8692  0.7604 -1.0797
 7600TIP3   OH222763   5.819   2.293   2.686  0.3442 -0.0306  0.2136
 7600TIP3    H122764   5.900   2.343   2.689  0.3724  0.0521 -1.1572
 7600TIP3    H222765   5.844   2.204   2.713 -0.2005  1.0785  5.4293
 7601TIP3   OH222766   1.475   0.684   3.220 -0.4334  0.5027 -0.1394
 7601TIP3    H122767   1.554   0.698   3.272  0.1025 -0.3358 -0.7047
 7601TIP3    H222768   1.485   0.745   3.146  2.0324 -2.6467 -2.7441
 7602TIP3   OH222769   2.117   1.394   0.380 -0.0335 -0.0686 -0.0309
 7602TIP3    H122770   2.108   1.306   0.416 -0.5873 -0.0466 -0.1169
 7602TIP3    H222771   2.168   1.442   0.446  1.6170 -0.8632 -0.6657
 7603TIP3   OH222772   6.412   4.354   2.875  0.0920 -0.2203  0.3526
 7603TIP3    H122773   6.436   4.357   2.968  1.0200 -0.0133  0.1141
 7603TIP3    H222774   6.493   4.374   2.828 -0.3369 -0.4469 -0.5116
 7604TIP3   OH222775   1.672   3.530   4.328 -0.2746  0.1152  0.3917
 7604TIP3    H122776   1.584   3.512   4.297  0.1784  0.9073 -1.5056
 7604TIP3    H222777   1.730   3.496   4.259  0.9955 -1.4679  2.1309
 7605TIP3   OH222778   3.575   1.089   3.735  0.3729  0.0461 -0.2092
 7605TIP3    H122779   3.562   1.094   3.830 -1.8552 -1.2543 -0.3557
 7605TIP3    H222780   3.526   1.163   3.700 -0.5570 -0.6252 -0.3956
 7606TIP3   OH222781   4.394   5.960   2.720 -0.2460  0.3262  0.0634
 7606TIP3    H122782   4.388   5.991   2.630 -1.6934  1.6475  0.5779
 7606TIP3    H222783   4.351   6.028   2.772 -1.5606 -1.5016  1.5019
 7607TIP3   OH222784   0.291   4.638   1.291  0.2543 -0.4428  0.0457
 7607TIP3    H122785   0.338   4.567   1.247 -1.4167 -1.3932 -0.3263
 7607TIP3    H222786   0.302   4.621   1.384 -0.6227 -1.5866 -0.0332
 7608TIP3   OH222787   1.940   2.231   5.489 -0.0520  0.1420  0.0903
 7608TIP3    H122788   1.890   2.294   5.542  0.8668  0.8740  0.1084
 7608TIP3    H222789   1.895   2.231   5.405 -0.5670  0.1784  0.3556
 7609TIP3   OH222790   7.152   2.580   3.405 -0.6521  0.2449  0.2702
 7609TIP3    H122791   7.079   2.523   3.429  0.1747 -0.8742  0.1905
 7609TIP3    H222792   7.110   2.656   3.365 -1.8517  0.3180  1.5547
 7610TIP3   OH222793   6.432   4.224   4.045  0.2240 -0.4097 -0.0841
 7610TIP3    H122794   6.378   4.152   4.078  1.6278 -1.1378  0.7230
 7610TIP3    H222795   6.392   4.302   4.082 -1.4754 -0.7038 -1.1693
 7611TIP3   OH222796   3.492   2.054   5.167  0.7250  0.3786 -0.1955
 7611TIP3    H122797   3.454   2.003   5.239  0.1245  0.7195 -0.2653
 7611TIP3    H222798   3.582   2.022   5.160  0.5686 -0.1739  0.2247
 7612TIP3   OH222799   1.111   3.214   5.336  0.1157 -0.5551  0.3229
 7612TIP3    H122800   1.086   3.137   5.284  1.2395 -1.9021  1.7042
 7612TIP3    H222801   1.110   3.183   5.426  0.5006  1.1042  0.9213
 7613TIP3   OH222802   0.728   2.079   3.627 -0.3171  0.5049 -0.4343
 7613TIP3    H122803   0.718   2.144   3.697  0.8567  1.2412 -0.9149
 7613TIP3    H222804   0.815   2.043   3.641 -0.7507 -0.5922 -0.5052
 7614TIP3   OH222805   4.333   3.016   0.097 -0.4082  0.3373  0.0278
 7614TIP3    H122806   4.375   3.101   0.084  0.8059 -0.2122  0.2640
 7614TIP3    H222807   4.351   2.968   0.016 -0.9911  0.2462 -0.0561
 7615TIP3   OH222808   0.727   1.111   2.686  0.4167  0.0291 -0.3441
 7615TIP3    H122809   0.724   1.018   2.709  1.4680 -0.1178 -0.7309
 7615TIP3    H222810   0.636   1.141   2.691 -0.0698 -1.2442 -1.1712
 7616TIP3   OH222811   4.900   1.259   3.167 -0.4911  0.2445  0.0076
 7616TIP3    H122812   4.872   1.196   3.233 -0.4989  0.9824  0.7180
 7616TIP3    H222813   4.961   1.210   3.112 -2.8534 -1.3302 -1.4188
 7617TIP3   OH222814   4.308   3.931   5.630  0.8849  0.0135 -0.1013
 7617TIP3    H122815   4.328   4.025   5.630  1.1528 -0.0406 -0.4880
 7617TIP3    H222816   4.353   3.897   5.707  0.5924  0.2384  0.1767
 7618TIP3   OH222817   1.201   4.222   5.290  0.0925  0.2298  0.0067
 7618TIP3    H122818   1.229   4.166   5.217  1.1952  2.8483 -1.7479
 7618TIP3    H222819   1.105   4.222   5.285  0.1534  0.9441 -1.9832
 7619TIP3   OH222820   2.431   3.798   2.909 -0.3635 -0.1374 -0.7292
 7619TIP3    H122821   2.389   3.745   2.842 -0.9071 -1.1349  0.3711
 7619TIP3    H222822   2.371   3.796   2.984  0.7800 -0.0803  0.2311
 7620TIP3   OH222823   2.622   4.716   2.562  0.4842 -0.4402 -0.2713
 7620TIP3    H122824   2.659   4.736   2.476  1.9425 -1.8083 -0.0102
 7620TIP3    H222825   2.693   4.672   2.609 -0.9260 -1.5635  0.9076
 7621TIP3   OH222826   0.455   2.584   3.652  0.1159 -0.3825 -0.1789
 7621TIP3    H122827   0.420   2.552   3.568  0.8889 -1.5402 -0.0790
 7621TIP3    H222828   0.379   2.583   3.711  0.0740 -2.0133 -0.2003
 7622TIP3   OH222829   1.783   5.624   4.642 -0.2492 -0.5153  0.0402
 7622TIP3    H122830   1.751   5.654   4.557  0.7771 -0.4957 -0.3517
 7622TIP3    H222831   1.715   5.651   4.704 -1.8941 -2.0655 -0.9694
 7623TIP3   OH222832   4.771   0.789   2.965  0.1064  0.1508  0.5494
 7623TIP3    H122833   4.688   0.830   2.987 -0.0920 -1.1840  2.4726
 7623TIP3    H222834   4.822   0.859   2.923 -0.4729  2.2153  3.0430
 7624TIP3   OH222835   5.459   5.068   1.713  0.1970  0.1180  0.0563
 7624TIP3    H122836   5.435   5.077   1.805  1.6076  0.7004  0.4003
 7624TIP3    H222837   5.402   4.998   1.680 -0.2165 -0.2182  1.4100
 7625TIP3   OH222838   4.414   3.441   5.250 -0.4470  0.1713 -0.1445
 7625TIP3    H122839   4.505   3.443   5.220 -0.1891  1.8574  0.6745
 7625TIP3    H222840   4.418   3.400   5.336 -0.5099 -0.0117 -0.2272
 7626TIP3   OH222841   2.392   0.664   5.129 -0.0848  0.0980  0.4155
 7626TIP3    H122842   2.472   0.643   5.080 -0.6786 -1.1723 -0.0563
 7626TIP3    H222843   2.417   0.651   5.221  0.1916 -0.5417  0.2588
 7627TIP3   OH222844   5.855   5.304   3.110 -0.2844 -0.2149  0.1978
 7627TIP3    H122845   5.838   5.384   3.158  0.5554  0.7766 -1.0983
 7627TIP3    H222846   5.907   5.331   3.034  0.1384 -1.9946 -0.2088
 7628TIP3   OH222847   0.696   6.786   2.169 -0.0866 -0.0499  0.4798
 7628TIP3    H122848   0.768   6.789   2.107 -1.3092  0.7137 -0.9878
 7628TIP3    H222849   0.708   6.704   2.217  1.9394  0.2387  0.5647
 7629TIP3   OH222850   3.649   4.475   4.630  0.2922  0.6648  0.3683
 7629TIP3    H122851   3.647   4.523   4.713 -1.3760 -2.9960  2.7054
 7629TIP3    H222852   3.739   4.442   4.624  0.2017  0.2356  1.2194
 7630TIP3   OH222853   3.103   2.200   5.495 -0.3137 -0.3932 -0.1573
 7630TIP3    H122854   3.156   2.214   5.416 -0.0552  0.9278  0.2207
 7630TIP3    H222855   3.074   2.288   5.520  0.1360 -0.7065  1.5791
 7631TIP3   OH222856   6.408   3.948   0.486  0.3311  0.1131 -0.1695
 7631TIP3    H122857   6.324   3.960   0.442 -0.7552 -2.1857  1.0939
 7631TIP3    H222858   6.454   3.884   0.432  1.3186  1.3292 -0.8322
 7632TIP3   OH222859   1.291   4.421   4.617  0.5640 -0.1153 -0.7240
 7632TIP3    H122860   1.324   4.402   4.704 -0.2122  1.3607 -0.0628
 7632TIP3    H222861   1.358   4.477   4.578  0.1698  0.5623 -0.4454
 7633TIP3   OH222862   5.707   5.816   0.679 -0.0992 -0.1396  0.5857
 7633TIP3    H122863   5.622   5.798   0.720  0.2828 -0.6625  1.1755
 7633TIP3    H222864   5.730   5.733   0.636  0.1742 -0.0410  0.5448
 7634TIP3   OH222865   1.849   3.886   1.773 -0.2544 -0.1780  0.1101
 7634TIP3    H122866   1.771   3.833   1.788 -2.3997  2.9159  0.8794
 7634TIP3    H222867   1.844   3.910   1.680  0.8724 -1.4389 -0.3134
 7635TIP3   OH222868   1.833   1.413   2.119  0.3862  0.2656  0.3887
 7635TIP3    H122869   1.883   1.472   2.175  0.3479 -0.9705  1.7969
 7635TIP3    H222870   1.768   1.373   2.177  0.2710 -0.9896 -0.5493
 7636TIP3   OH222871   6.946   0.992   3.854 -0.0923 -0.5394 -0.3765
 7636TIP3    H122872   6.871   1.008   3.912  1.5086  2.0819  1.1552
 7636TIP3    H222873   6.948   1.067   3.795  2.9525  1.1590  1.6113
 7637TIP3   OH222874   1.768   5.633   1.533  0.1744  0.0321  0.3679
 7637TIP3    H122875   1.791   5.629   1.626 -1.0145  0.8614  0.7109
 7637TIP3    H222876   1.684   5.589   1.527  0.8938 -1.3016 -0.5777
 7638TIP3   OH222877   1.229   5.563   1.634 -0.2080  0.1544 -0.8827
 7638TIP3    H122878   1.314   5.592   1.599  0.4086 -1.6347 -0.9760
 7638TIP3    H222879   1.186   5.521   1.559 -1.1867  0.9975 -0.8204
 7639TIP3   OH222880   4.378   5.137   4.341 -0.1477  0.1286 -0.7451
 7639TIP3    H122881   4.451   5.123   4.280  1.3451  0.3337  0.9091
 7639TIP3    H222882   4.382   5.231   4.361 -1.0745  0.2011 -0.8661
 7640TIP3   OH222883   0.247   6.223   2.751  0.0102 -0.3441 -0.6601
 7640TIP3    H122884   0.171   6.173   2.782  0.5860 -1.5421 -1.1187
 7640TIP3    H222885   0.242   6.217   2.655 -0.4091  1.2825 -0.7782
 7641TIP3   OH222886   5.622   6.722   2.917 -0.0470  0.2239 -0.1278
 7641TIP3    H122887   5.559   6.715   2.845 -0.4631 -3.2268  0.3627
 7641TIP3    H222888   5.683   6.650   2.901 -0.1706 -0.6743  2.9189
 7642TIP3   OH222889   1.146   3.158   5.629 -0.3449  0.1711  0.2645
 7642TIP3    H122890   1.145   3.252   5.644  1.1140  0.5310 -1.4731
 7642TIP3    H222891   1.231   3.129   5.664 -1.7591 -0.9678  2.9649
 7643TIP3   OH222892   6.583   2.380   1.939 -0.5483 -0.5806  0.4004
 7643TIP3    H122893   6.661   2.427   1.911 -0.4112 -2.4057 -2.8357
 7643TIP3    H222894   6.596   2.362   2.032  2.9283 -0.8526 -0.0332
 7644TIP3   OH222895   3.919   5.359   1.417 -0.2287  0.3655  0.0099
 7644TIP3    H122896   3.973   5.297   1.367 -0.1302  0.8337 -0.4814
 7644TIP3    H222897   3.960   5.362   1.503  1.6814  2.0387 -0.8540
 7645TIP3   OH222898   4.054   6.564   3.308  0.5265 -0.0128 -0.2580
 7645TIP3    H122899   4.080   6.499   3.243  2.1879 -0.5061  0.8368
 7645TIP3    H222900   4.066   6.648   3.264 -0.1487 -0.3829 -1.1753
 7646TIP3   OH222901   1.135   2.762   5.116 -0.1791  0.1304 -0.0646
 7646TIP3    H122902   1.143   2.690   5.179 -0.1331 -0.2292 -0.4734
 7646TIP3    H222903   1.047   2.751   5.079 -1.4204  2.1279  2.0730
 7647TIP3   OH222904   1.219   3.674   2.457  0.2986  0.4984 -0.1104
 7647TIP3    H122905   1.150   3.728   2.418  0.2115  1.3133  1.1077
 7647TIP3    H222906   1.265   3.733   2.517  1.3620 -0.3232 -0.0836
 7648TIP3   OH222907   1.083   6.646   2.558  0.6042  0.6254  0.2006
 7648TIP3    H122908   1.179   6.653   2.561  0.7884 -1.3668  1.4054
 7648TIP3    H222909   1.067   6.577   2.493  0.0182  0.6596  0.3074
 7649TIP3   OH222910   4.613   6.253   3.990  0.1488  0.1193  0.1507
 7649TIP3    H122911   4.584   6.220   3.904 -0.8474 -0.2938  0.6286
 7649TIP3    H222912   4.707   6.236   3.991 -0.1364 -1.7913 -0.0565
 7650TIP3   OH222913   6.298   1.594   1.171  0.7383  0.1057 -0.3287
 7650TIP3    H122914   6.259   1.634   1.248  0.7730 -1.4409  0.5213
 7650TIP3    H222915   6.386   1.632   1.166  0.3639  1.0205 -0.2703
 7651TIP3   OH222916   6.964   0.424   5.117  0.0877 -0.0432 -0.1833
 7651TIP3    H122917   6.889   0.369   5.142  1.1036 -1.1079  0.6350
 7651TIP3    H222918   7.040   0.370   5.136  1.1001  1.2779 -0.3635
 7652TIP3   OH222919   7.092   3.644   0.155  0.5550 -0.1087  0.0937
 7652TIP3    H122920   6.999   3.622   0.164  0.7913 -0.6127  1.8333
 7652TIP3    H222921   7.093   3.733   0.122 -0.6362  0.7703  2.2354
 7653TIP3   OH222922   4.965   3.040   3.081 -0.2731 -0.4245  0.7908
 7653TIP3    H122923   5.020   2.962   3.072  0.5647  0.3433 -1.8306
 7653TIP3    H222924   4.889   3.022   3.026 -0.5029  0.2375  0.8805
 7654TIP3   OH222925   6.193   1.172   2.792  0.7870 -0.1645  0.5257
 7654TIP3    H122926   6.120   1.233   2.805  0.2702 -0.5297 -0.5575
 7654TIP3    H222927   6.231   1.162   2.879 -0.4265  0.0752  1.1142
 7655TIP3   OH222928   6.275   0.444   5.196  0.1684  0.5110  0.2179
 7655TIP3    H122929   6.296   0.522   5.145  0.4193  0.9191  0.9201
 7655TIP3    H222930   6.247   0.479   5.281  1.6642 -0.1927  1.0290
 7656TIP3   OH222931   1.133   6.231   1.808 -0.1942 -0.2803 -0.4575
 7656TIP3    H122932   1.196   6.275   1.751 -0.8792 -0.2668 -1.2218
 7656TIP3    H222933   1.119   6.146   1.766 -0.1219 -0.5813  0.1210
 7657TIP3   OH222934   0.209   1.109   2.656 -0.1762  0.0225 -0.0330
 7657TIP3    H122935   0.144   1.057   2.609  0.5669  0.0201 -1.0773
 7657TIP3    H222936   0.157   1.172   2.707 -0.9902  0.2000 -1.0608
 7658TIP3   OH222937   5.190   4.030   1.295 -0.1465 -0.2648 -0.0020
 7658TIP3    H122938   5.140   4.043   1.376 -1.9037  1.0792 -1.2342
 7658TIP3    H222939   5.194   3.935   1.285 -2.1614 -0.4409  0.3648
 7659TIP3   OH222940   0.146   4.937   3.454  0.0020  0.2861 -0.1341
 7659TIP3    H122941   0.125   4.870   3.388 -0.1768  0.3244 -0.1169
 7659TIP3    H222942   0.236   4.919   3.478 -0.6111 -1.1419  1.2779
 7660TIP3   OH222943   1.313   4.353   0.424 -0.3689 -0.5917 -0.2492
 7660TIP3    H122944   1.353   4.425   0.374  0.5776 -1.1842 -0.3703
 7660TIP3    H222945   1.297   4.391   0.511  2.1636 -0.7963  0.4036
 7661TIP3   OH222946   5.520   2.966   0.475 -0.1947  0.2296  0.0476
 7661TIP3    H122947   5.538   3.033   0.541  1.1095 -1.2285  1.2827
 7661TIP3    H222948   5.561   2.887   0.511 -0.5606 -0.9196 -1.9446
 7662TIP3   OH222949   2.023   5.044   1.263 -0.7073 -0.2318 -0.3460
 7662TIP3    H122950   1.989   5.019   1.177 -0.8985 -1.3277  0.0280
 7662TIP3    H222951   1.993   4.974   1.322 -0.4669  0.4265  0.5894
 7663TIP3   OH222952   0.885   0.463   1.964 -0.8240  0.1357  0.0368
 7663TIP3    H122953   0.893   0.395   1.896  1.8460  0.4609 -0.0627
 7663TIP3    H222954   0.819   0.428   2.024 -1.0509 -1.5737 -1.1151
 7664TIP3   OH222955   5.110   5.004   3.497  0.0368 -0.1560  0.2020
 7664TIP3    H122956   5.186   5.057   3.519 -0.6407  2.4012 -2.8664
 7664TIP3    H222957   5.148   4.923   3.461  1.2956  0.6532 -0.3701
 7665TIP3   OH222958   6.391   2.946   3.357  0.6562 -0.0661  0.2219
 7665TIP3    H122959   6.365   2.879   3.420  0.5412  0.0045  0.2510
 7665TIP3    H222960   6.453   3.002   3.405  0.8847 -0.2504  0.1436
 7666TIP3   OH222961   4.738   4.581   3.117  0.0268 -0.4828 -0.2976
 7666TIP3    H122962   4.788   4.586   3.199 -1.4551  0.4565  0.5865
 7666TIP3    H222963   4.666   4.642   3.130 -0.2503 -0.3376 -2.3169
 7667TIP3   OH222964   3.766   5.106   2.007  0.3617 -0.4569 -0.2218
 7667TIP3    H122965   3.806   5.042   1.947  2.9006  1.5747 -0.8986
 7667TIP3    H222966   3.772   5.189   1.960 -1.5691  0.5341  1.1830
 7668TIP3   OH222967   3.026   6.687   1.765  0.0544 -0.3053  0.2013
 7668TIP3    H122968   3.023   6.737   1.846  0.3347 -0.9815  0.6447
 7668TIP3    H222969   3.117   6.656   1.760  0.1518  0.0803 -0.5906
 7669TIP3   OH222970   6.326   4.185   2.436  0.0264 -0.2095 -0.3872
 7669TIP3    H122971   6.294   4.242   2.366 -0.9688 -1.9889 -1.4543
 7669TIP3    H222972   6.277   4.104   2.425  1.6018 -1.4006  0.8646
 7670TIP3   OH222973   0.677   5.943   3.271 -0.0053 -0.6757 -0.2446
 7670TIP3    H122974   0.595   5.977   3.236 -0.1536 -1.7012 -0.9346
 7670TIP3    H222975   0.741   6.011   3.253 -0.6842  0.1065  0.2369
 7671TIP3   OH222976   6.901   1.147   2.819  0.4182 -0.0390 -0.2678
 7671TIP3    H122977   6.889   1.236   2.853 -0.3690  0.2899 -1.3690
 7671TIP3    H222978   6.860   1.148   2.733 -1.6114 -2.0492  0.5654
 7672TIP3   OH222979   4.490   0.695   1.633 -0.4793 -0.0069  0.0570
 7672TIP3    H122980   4.438   0.652   1.566 -0.0423  0.0993 -0.3518
 7672TIP3    H222981   4.473   0.645   1.713 -2.5130  1.0119  0.3302
 7673TIP3   OH222982   3.606   0.443   3.334  0.3307 -0.4686  0.5125
 7673TIP3    H122983   3.687   0.493   3.342  0.4274 -0.9112  3.3538
 7673TIP3    H222984   3.621   0.384   3.260  0.7450  2.5516 -2.0091
 7674TIP3   OH222985   6.037   3.474   2.936 -0.4506  0.0157 -0.1968
 7674TIP3    H122986   5.992   3.402   2.892  2.2908 -1.5799 -0.6404
 7674TIP3    H222987   6.055   3.441   3.024  1.2772 -0.1273 -0.5615
 7675TIP3   OH222988   2.840   1.035   3.125  0.4196 -0.0216 -0.3607
 7675TIP3    H122989   2.868   1.052   3.215  2.7367 -1.0850 -0.8210
 7675TIP3    H222990   2.837   0.940   3.118 -1.1747  0.0361 -1.0477
 7676TIP3   OH222991   4.345   3.210   2.063  0.6350  0.1812  0.0406
 7676TIP3    H122992   4.295   3.265   2.003  0.7420 -0.3831 -0.5815
 7676TIP3    H222993   4.431   3.253   2.069  1.4395 -0.9550 -2.0807
 7677TIP3   OH222994   0.386   0.781   5.724 -0.5143 -0.2064 -0.2734
 7677TIP3    H122995   0.382   0.699   5.773 -2.0933  0.8470  1.4985
 7677TIP3    H222996   0.455   0.832   5.768  1.2730 -0.9251 -2.0760
 7678TIP3   OH222997   0.708   6.759   3.626 -0.3307  0.1367  0.1278
 7678TIP3    H122998   0.789   6.791   3.586 -0.8468  0.5331 -0.6157
 7678TIP3    H222999   0.651   6.835   3.630 -0.7672 -0.2016  0.3945
 7679TIP3   OH223000   2.906   4.814   1.258  0.3724 -0.5749 -0.1862
 7679TIP3    H123001   2.907   4.733   1.206  0.1870  0.0112 -1.1101
 7679TIP3    H223002   2.889   4.883   1.195 -0.6627  0.0756  0.7598
 7680TIP3   OH223003   3.734   4.563   2.696 -0.1288 -0.1044  0.1167
 7680TIP3    H123004   3.679   4.490   2.666  0.7200 -0.8198  0.2620
 7680TIP3    H223005   3.672   4.627   2.732 -0.8739 -0.8386  0.1605
 7681TIP3   OH223006   3.964   5.388   1.967  0.0442 -0.7223  0.5690
 7681TIP3    H123007   3.876   5.415   1.940  0.2781  0.6942  1.1077
 7681TIP3    H223008   3.994   5.459   2.025  1.8926 -0.6923 -0.3378
 7682TIP3   OH223009   5.807   1.759   4.037 -0.4089  0.0677 -0.3689
 7682TIP3    H123010   5.781   1.833   4.091 -0.4000 -1.2582  1.5416
 7682TIP3    H223011   5.753   1.686   4.067  0.5806 -1.0514 -1.1888
 7683TIP3   OH223012   0.090   0.417   0.853  0.3801  0.0588 -1.0401
 7683TIP3    H123013   0.063   0.486   0.793  1.5394  0.6799 -0.8666
 7683TIP3    H223014   0.110   0.343   0.796 -3.1689 -1.0436 -1.1084
 7684TIP3   OH223015   6.471   2.106   1.203 -0.6174 -0.4048  0.3768
 7684TIP3    H123016   6.394   2.097   1.258 -0.4451 -2.2978  0.3768
 7684TIP3    H223017   6.542   2.065   1.253 -0.2527 -1.3171 -0.8213
 7685TIP3   OH223018   6.434   0.870   2.214  0.0117 -0.6710 -0.2848
 7685TIP3    H123019   6.520   0.848   2.250 -0.0283 -0.4842 -0.0722
 7685TIP3    H223020   6.426   0.965   2.227 -1.4067 -1.0443  2.3299
 7686TIP3   OH223021   4.970   5.872   0.578 -0.3287  0.4629 -0.4268
 7686TIP3    H123022   4.885   5.914   0.589  0.7784  2.5816  0.7154
 7686TIP3    H223023   4.970   5.841   0.488 -1.6923  1.8652 -0.9588
 7687TIP3   OH223024   0.082   4.578   1.660  0.1764 -0.5268  0.2679
 7687TIP3    H123025   0.156   4.581   1.599 -0.0009 -3.2728 -0.2376
 7687TIP3    H223026   0.117   4.532   1.736 -0.8238 -1.3642  0.2449
 7688TIP3   OH223027   5.914   3.084   1.574  0.1401 -0.2659  1.0914
 7688TIP3    H123028   5.931   3.094   1.667  1.2773  2.7206  0.6688
 7688TIP3    H223029   5.998   3.100   1.532 -0.8115  0.8935 -0.5106
 7689TIP3   OH223030   3.736   2.837   5.688  0.0100  0.7984  0.8580
 7689TIP3    H123031   3.815   2.853   5.636  0.2977 -0.1644  0.9907
 7689TIP3    H223032   3.738   2.905   5.756  0.4029  1.1472  0.5004
 7690TIP3   OH223033   0.992   3.946   2.948  0.2133 -0.1986  0.0100
 7690TIP3    H123034   0.936   4.024   2.945  1.5799  0.7978 -0.1838
 7690TIP3    H223035   1.069   3.974   2.997  0.2182 -1.7882  0.9788
 7691TIP3   OH223036   5.959   5.639   5.522 -0.3566 -0.5138 -0.7624
 7691TIP3    H123037   5.980   5.560   5.473  0.9070 -0.4330 -0.3841
 7691TIP3    H223038   5.956   5.709   5.456 -0.6874 -0.7431 -0.9891
 7692TIP3   OH223039   0.269   3.066   4.092 -0.3061  0.2908  0.4466
 7692TIP3    H123040   0.236   3.134   4.033 -1.0684 -0.3547  0.0922
 7692TIP3    H223041   0.263   3.105   4.179  1.7930  1.6333  0.0591
 7693TIP3   OH223042   6.602   2.345   3.562 -0.2144 -0.4199 -0.2380
 7693TIP3    H123043   6.683   2.376   3.521 -1.0972  0.7857 -1.1487
 7693TIP3    H223044   6.604   2.250   3.551 -0.8941 -0.1457 -4.1921
 7694TIP3   OH223045   1.222   1.720   0.456 -0.3285 -0.0890 -0.1705
 7694TIP3    H123046   1.285   1.682   0.518  0.1742 -0.1412 -0.7014
 7694TIP3    H223047   1.267   1.717   0.372 -0.6315  0.8898 -0.3720
 7695TIP3   OH223048   5.193   2.994   5.739 -0.6962  0.2619 -0.5739
 7695TIP3    H123049   5.153   2.982   5.825 -0.2604 -1.8827 -0.6246
 7695TIP3    H223050   5.265   3.056   5.756  0.3127 -1.2087  0.9698
 7696TIP3   OH223051   4.837   5.972   0.891 -0.1099 -0.5114  0.0224
 7696TIP3    H123052   4.800   6.060   0.885 -0.9315 -0.8892 -0.7325
 7696TIP3    H223053   4.898   5.976   0.964 -2.6212 -0.1999  2.2480
 7697TIP3   OH223054   5.309   5.575   3.336 -0.8399 -0.1357 -0.3186
 7697TIP3    H123055   5.396   5.594   3.299 -0.8986  0.8369  0.0183
 7697TIP3    H223056   5.307   5.479   3.342  0.3229 -0.1707 -0.0796
 7698TIP3   OH223057   2.764   1.334   3.633  0.2468 -0.0139  0.3065
 7698TIP3    H123058   2.771   1.429   3.631 -1.5333  0.1403 -0.0038
 7698TIP3    H223059   2.688   1.314   3.579  0.4519 -1.6016  0.5550
 7699TIP3   OH223060   0.362   2.922   3.860 -0.2775 -0.1814 -0.9446
 7699TIP3    H123061   0.349   2.915   3.954  1.1235 -0.0114 -0.7168
 7699TIP3    H223062   0.279   2.953   3.826 -0.5022  0.6804  0.3497
 7700TIP3   OH223063   3.041   1.959   1.327 -0.5395 -0.1194 -0.1615
 7700TIP3    H123064   3.102   1.948   1.254 -0.9893 -0.1954 -0.5316
 7700TIP3    H223065   3.081   1.911   1.400 -1.1149 -1.8961 -0.9627
 7701TIP3   OH223066   2.356   1.319   5.025  0.5003 -0.2014  0.1217
 7701TIP3    H123067   2.261   1.323   5.017  0.4615 -2.0573 -0.9980
 7701TIP3    H223068   2.376   1.366   5.106 -1.3583  0.2519  0.3437
 7702TIP3   OH223069   0.867   0.268   3.221  0.6167 -0.0646 -0.7514
 7702TIP3    H123070   0.957   0.285   3.195  1.2555 -0.9672  0.7641
 7702TIP3    H223071   0.854   0.323   3.299  0.1127 -0.5287 -0.5032
 7703TIP3   OH223072   5.063   3.183   0.901 -0.0739  0.0279 -0.5105
 7703TIP3    H123073   5.149   3.170   0.941  0.0343  0.7075 -0.4993
 7703TIP3    H223074   5.061   3.120   0.829  0.2508 -0.3066 -0.2325
 7704TIP3   OH223075   2.779   3.847   0.624  0.9031  0.4258 -0.4034
 7704TIP3    H123076   2.843   3.874   0.559  1.2180  0.8409  0.0817
 7704TIP3    H223077   2.767   3.923   0.680 -0.6278  0.6389 -0.9743
 7705TIP3   OH223078   6.370   1.893   5.763 -0.4855 -0.3964  0.0981
 7705TIP3    H123079   6.394   1.870   5.673 -0.1202 -0.8227  0.3032
 7705TIP3    H223080   6.294   1.950   5.754  1.6692  2.5980 -0.7068
 7706TIP3   OH223081   3.573   3.277   0.463 -0.1026 -0.2398 -0.0471
 7706TIP3    H123082   3.616   3.210   0.409 -4.2654 -0.8713 -3.0544
 7706TIP3    H223083   3.564   3.352   0.404 -0.7526  0.8127  1.3297
 7707TIP3   OH223084   5.255   3.577   4.384 -0.7535 -0.2333  0.4295
 7707TIP3    H123085   5.293   3.567   4.471 -0.9087 -1.5942  0.3679
 7707TIP3    H223086   5.279   3.666   4.357  0.2613 -0.1956  1.3858
 7708TIP3   OH223087   5.276   0.188   0.426  0.4678 -0.1750 -0.0446
 7708TIP3    H123088   5.345   0.211   0.364  1.0623 -1.5534  0.0775
 7708TIP3    H223089   5.289   0.248   0.499  0.1995  0.9886 -0.9284
 7709TIP3   OH223090   3.969   0.825   1.040  0.3295 -0.5789  0.1894
 7709TIP3    H123091   3.891   0.854   0.993  1.1886  0.0450 -0.9086
 7709TIP3    H223092   3.955   0.855   1.130  0.3014  1.5630 -0.4795
 7710TIP3   OH223093   5.144   5.246   1.318  0.1553  0.2816 -0.0045
 7710TIP3    H123094   5.212   5.190   1.281 -0.6503 -0.0930 -0.9529
 7710TIP3    H223095   5.066   5.226   1.267 -0.5417  1.1017  0.7095
 7711TIP3   OH223096   1.761   6.320   2.381  0.0395  0.1640  0.5709
 7711TIP3    H123097   1.701   6.394   2.376  2.2158  2.0191  0.1055
 7711TIP3    H223098   1.839   6.349   2.335  1.6368 -1.7830  1.8518
 7712TIP3   OH223099   6.568   6.265   5.029 -0.0625  0.7979  0.5694
 7712TIP3    H123100   6.532   6.297   4.946 -0.8878 -2.3146 -0.4174
 7712TIP3    H223101   6.491   6.254   5.086 -0.1580 -1.1663  0.1607
 7713TIP3   OH223102   4.074   3.739   4.292  0.0482 -0.1356 -0.1691
 7713TIP3    H123103   4.139   3.682   4.252  0.3573 -0.4492  0.7414
 7713TIP3    H223104   3.989   3.700   4.269  0.2220 -0.3290 -0.4759
 7714TIP3   OH223105   1.818   3.428   0.581 -0.3005 -0.4410 -0.0371
 7714TIP3    H123106   1.913   3.422   0.578 -0.3615 -1.6657 -0.1594
 7714TIP3    H223107   1.793   3.462   0.496 -0.0056 -0.7665 -0.2568
 7715TIP3   OH223108   6.478   5.148   2.255 -0.0239 -0.4174 -0.2408
 7715TIP3    H123109   6.548   5.192   2.207  0.4658 -0.2852  0.5782
 7715TIP3    H223110   6.494   5.170   2.347 -1.0701 -0.4867 -0.0282
 7716TIP3   OH223111   6.218   1.024   4.714  0.0765  0.3930 -0.2921
 7716TIP3    H123112   6.296   1.018   4.769 -1.1294 -1.8275  1.3633
 7716TIP3    H223113   6.248   0.999   4.626  1.0181 -2.1989  0.6596
 7717TIP3   OH223114   1.431   4.364   1.607 -0.3035  0.5423 -0.2637
 7717TIP3    H123115   1.393   4.452   1.606  0.4546  0.8837 -0.0818
 7717TIP3    H223116   1.525   4.379   1.617  0.1174 -0.1952 -2.5157
 7718TIP3   OH223117   0.726   3.082   3.411 -0.0298  0.5863  0.0544
 7718TIP3    H123118   0.788   3.038   3.352  1.3142  1.0967  1.0241
 7718TIP3    H223119   0.649   3.025   3.412 -0.0047  0.4555 -2.0026
 7719TIP3   OH223120   3.055   4.114   0.829 -0.1922  0.2960 -0.5894
 7719TIP3    H123121   3.002   4.037   0.849 -0.5200  1.0566  1.7622
 7719TIP3    H223122   3.090   4.142   0.914  2.0296  1.2359 -1.7484
 7720TIP3   OH223123   6.241   6.199   4.802  0.5987  0.0713 -0.1555
 7720TIP3    H123124   6.288   6.140   4.860  1.3237  1.1931  0.4512
 7720TIP3    H223125   6.179   6.244   4.859 -0.5845 -0.7354 -0.7808
 7721TIP3   OH223126   6.711   5.515   1.993 -0.5156 -0.7054  0.1578
 7721TIP3    H123127   6.709   5.608   2.017  0.6675 -0.6267  0.0357
 7721TIP3    H223128   6.735   5.515   1.900  1.8052 -1.1403  0.6831
 7722TIP3   OH223129   6.870   6.335   5.675  0.4407  0.2281 -0.3294
 7722TIP3    H123130   6.832   6.248   5.688  1.0524 -0.3747 -2.2165
 7722TIP3    H223131   6.935   6.343   5.746 -0.7569 -0.1345  0.8505
 7723TIP3   OH223132   1.697   0.511   3.975 -0.4643  0.2810  0.2022
 7723TIP3    H123133   1.669   0.574   3.909 -3.0558  0.0195  0.9494
 7723TIP3    H223134   1.670   0.426   3.940  1.4916 -0.2894 -0.0350
 7724TIP3   OH223135   0.147   0.933   5.334 -0.4259 -0.2457  0.4348
 7724TIP3    H123136   0.213   0.951   5.401  0.5739 -0.3814 -0.4843
 7724TIP3    H223137   0.186   0.964   5.252 -2.3235  1.5265  0.1166
 7725TIP3   OH223138   0.542   1.714   1.018  0.4367 -0.0195 -0.1917
 7725TIP3    H123139   0.502   1.647   1.074  1.6133 -0.7599 -0.1994
 7725TIP3    H223140   0.497   1.706   0.934  0.1748 -0.4027 -0.0171
 7726TIP3   OH223141   2.307   2.250   1.302 -0.4489 -0.1986 -0.1206
 7726TIP3    H123142   2.354   2.334   1.296 -1.1748  0.1979 -0.3972
 7726TIP3    H223143   2.376   2.184   1.307  0.1336  0.4550  0.6870
 7727TIP3   OH223144   4.193   1.151   2.246  0.6387  0.0881 -0.6891
 7727TIP3    H123145   4.140   1.075   2.269 -0.1666  0.5428 -0.9819
 7727TIP3    H223146   4.152   1.224   2.293  1.7192  0.2657  0.0142
 7728TIP3   OH223147   5.015   4.167   1.875  0.2013 -0.2470  0.5295
 7728TIP3    H123148   4.964   4.112   1.934  0.7248  1.8730  3.1850
 7728TIP3    H223149   5.106   4.157   1.906  0.3206  1.9274  1.0950
 7729TIP3   OH223150   6.496   0.329   3.419 -0.5218 -0.1455  0.5870
 7729TIP3    H123151   6.544   0.392   3.365  0.4305 -0.2977  1.2382
 7729TIP3    H223152   6.538   0.334   3.505 -0.5705 -1.5070  0.7070
 7730TIP3   OH223153   3.442   0.474   3.951  0.1957  0.2748 -0.3206
 7730TIP3    H123154   3.526   0.481   3.907 -0.1236  0.8715 -0.8573
 7730TIP3    H223155   3.464   0.461   4.043  0.8707 -0.9606 -0.6351
 7731TIP3   OH223156   1.715   2.218   1.385  0.2288  0.0569 -0.4453
 7731TIP3    H123157   1.793   2.266   1.411 -0.3073  0.5371  0.3187
 7731TIP3    H223158   1.735   2.126   1.402  0.2438  0.2734  0.7711
 7732TIP3   OH223159   4.707   5.487   2.730 -0.1809 -0.3686  0.5089
 7732TIP3    H123160   4.707   5.471   2.636  1.8713  2.2457 -0.0397
 7732TIP3    H223161   4.618   5.516   2.750 -1.2657 -2.9824 -0.1185
 7733TIP3   OH223162   4.299   6.160   1.169 -0.1329 -0.4418  0.3005
 7733TIP3    H123163   4.249   6.242   1.167  0.1222 -0.2908 -0.1431
 7733TIP3    H223164   4.238   6.094   1.137  0.2575 -0.0712 -1.3368
 7734TIP3   OH223165   3.404   3.792   1.003 -0.1247  0.1928 -0.0598
 7734TIP3    H123166   3.363   3.791   0.917  1.4244  1.7340 -0.8601
 7734TIP3    H223167   3.350   3.851   1.055 -0.9493 -0.5899  0.0031
 7735TIP3   OH223168   0.623   3.998   3.346 -0.1850 -0.0000 -0.4548
 7735TIP3    H123169   0.544   4.007   3.293 -0.7570 -1.4407  0.1098
 7735TIP3    H223170   0.682   3.946   3.293 -0.8063 -1.5529  0.3120
 7736TIP3   OH223171   2.670   1.541   5.298 -0.3580 -0.4991 -0.1013
 7736TIP3    H123172   2.701   1.563   5.210 -0.6179 -0.4544 -0.1856
 7736TIP3    H223173   2.683   1.621   5.349  1.3373 -1.0249  0.3496
 7737TIP3   OH223174   0.068   5.749   5.617  0.2402 -0.1975 -0.0150
 7737TIP3    H123175   0.081   5.829   5.566  1.7098 -2.1686 -3.0299
 7737TIP3    H223176  -0.025   5.728   5.606  0.6535 -1.0058 -2.8512
 7738TIP3   OH223177   4.386   3.637   5.640 -0.0666 -0.0114 -0.4058
 7738TIP3    H123178   4.474   3.632   5.602 -0.0398  0.5527 -0.4167
 7738TIP3    H223179   4.328   3.648   5.565 -0.0046  1.2087 -0.2941
 7739TIP3   OH223180   1.129   2.434   1.184 -0.2088  0.3507 -0.2549
 7739TIP3    H123181   1.129   2.392   1.270  0.5635 -0.0541 -0.4358
 7739TIP3    H223182   1.101   2.524   1.201 -0.2545  0.2214  0.3898
 7740TIP3   OH223183   4.629   5.830   2.850  0.5022 -0.2187  0.5002
 7740TIP3    H123184   4.632   5.824   2.945  1.2014  0.6638  0.5494
 7740TIP3    H223185   4.551   5.883   2.831  0.6087 -0.0245  0.6041
 7741TIP3   OH223186   2.819   1.633   2.447 -0.2999  0.2734  0.1453
 7741TIP3    H123187   2.895   1.588   2.409 -1.3534 -1.4767  0.0051
 7741TIP3    H223188   2.808   1.711   2.393  0.3352 -0.3649 -0.9387
 7742TIP3   OH223189   0.109   3.250   1.753 -0.4691 -0.2482 -0.0035
 7742TIP3    H123190   0.112   3.296   1.669 -1.4923 -1.7540 -0.9052
 7742TIP3    H223191   0.163   3.172   1.740  0.2051  0.0106  1.0914
 7743TIP3   OH223192   0.756   6.495   3.448  0.0196  0.6166  0.1498
 7743TIP3    H123193   0.842   6.525   3.418 -0.7349 -1.1051 -4.4997
 7743TIP3    H223194   0.775   6.416   3.498  1.1940 -0.4676 -1.8815
 7744TIP3   OH223195   3.872   0.478   1.951  0.0890 -0.5779  0.6342
 7744TIP3    H123196   3.835   0.477   1.863 -2.3772 -0.6145  1.5790
 7744TIP3    H223197   3.858   0.389   1.983  1.5206 -0.7348  0.8887
 7745TIP3   OH223198   3.116   1.101   4.008 -0.4035  0.5715 -0.1544
 7745TIP3    H123199   3.029   1.140   4.016 -0.6661  0.0530 -0.3883
 7745TIP3    H223200   3.112   1.050   3.927 -0.4552 -0.8456  0.6930
 7746TIP3   OH223201   1.927   3.427   3.328 -0.0828  0.1916 -0.6488
 7746TIP3    H123202   1.931   3.516   3.361 -0.5909  0.3029 -0.8784
 7746TIP3    H223203   1.878   3.434   3.246 -0.3055 -0.3239 -0.5646
 7747TIP3   OH223204   5.774   2.568   1.195 -0.3122 -0.2944 -0.1998
 7747TIP3    H123205   5.695   2.515   1.192  0.0588 -0.8351 -0.4880
 7747TIP3    H223206   5.742   2.658   1.187 -0.9800 -0.4349  0.7607
 7748TIP3   OH223207   3.645   0.403   5.420  0.1270  0.2499  0.0361
 7748TIP3    H123208   3.711   0.471   5.403 -0.2276  0.7043  0.4453
 7748TIP3    H223209   3.695   0.321   5.422  0.5316  0.4741 -0.6512
 7749TIP3   OH223210   3.359   1.963   5.383 -0.5629 -0.1922  0.1723
 7749TIP3    H123211   3.392   1.874   5.397  0.0677  0.2541  1.6140
 7749TIP3    H223212   3.366   2.006   5.468  1.2787  1.9528 -0.9443
 7750TIP3   OH223213   3.226   2.676   4.623 -0.1456 -0.8471  0.7390
 7750TIP3    H123214   3.208   2.762   4.585  1.2890  0.0873  2.0421
 7750TIP3    H223215   3.217   2.615   4.550  0.4673  0.6147 -0.6298
 7751TIP3   OH223216   7.079   4.120   4.025  0.3177 -0.0069  0.1651
 7751TIP3    H123217   7.151   4.059   4.011 -0.6393 -0.6613 -2.4337
 7751TIP3    H223218   7.118   4.191   4.078  2.5758 -0.7927 -0.3152
 7752TIP3   OH223219   1.283   1.188   5.453  0.3518 -0.1810  0.2171
 7752TIP3    H123220   1.371   1.181   5.416 -0.4556  0.5901 -2.0038
 7752TIP3    H223221   1.251   1.098   5.454  0.4655 -0.2579 -0.9225
 7753TIP3   OH223222   4.169   5.427   5.612  0.5469 -0.2807  0.2598
 7753TIP3    H123223   4.201   5.459   5.696 -0.3047  1.5036 -0.0582
 7753TIP3    H223224   4.241   5.444   5.551 -0.4866  2.8535 -0.2647
 7754TIP3   OH223225   3.243   3.688   3.334 -0.0259  0.3057  0.1874
 7754TIP3    H123226   3.270   3.770   3.375 -0.8529  0.8258 -0.2776
 7754TIP3    H223227   3.288   3.620   3.385  0.4790  1.0272  0.7303
 7755TIP3   OH223228   3.801   6.647   3.113  0.8103 -0.0517  0.1487
 7755TIP3    H123229   3.885   6.639   3.157  1.0703  1.2349 -0.0538
 7755TIP3    H223230   3.822   6.649   3.020  0.4881 -0.4131  0.0650
 7756TIP3   OH223231   3.641   5.033   2.615 -0.3649 -0.3746 -0.0720
 7756TIP3    H123232   3.608   5.077   2.693 -1.0196 -0.4696 -0.2935
 7756TIP3    H223233   3.671   5.105   2.559  0.8477 -0.3388  0.5774
 7757TIP3   OH223234   5.753   3.628   1.058 -0.5172  0.3273 -0.0293
 7757TIP3    H123235   5.770   3.722   1.068 -0.2062  0.3074 -0.3339
 7757TIP3    H223236   5.675   3.611   1.112  0.4733  0.4061  1.4630
 7758TIP3   OH223237   3.025   5.156   3.840  0.0008 -0.1056  0.2083
 7758TIP3    H123238   2.997   5.247   3.835  0.5162  0.0213 -0.6011
 7758TIP3    H223239   3.085   5.153   3.914  0.0739  0.2406  0.1618
 7759TIP3   OH223240   2.669   0.593   2.784  0.4004  0.1115  0.1232
 7759TIP3    H123241   2.683   0.524   2.720  1.6734 -0.4130  0.9268
 7759TIP3    H223242   2.672   0.674   2.733  1.7117 -0.2732 -0.4419
 7760TIP3   OH223243   4.232   5.276   3.105 -0.0966 -0.2271  0.2238
 7760TIP3    H123244   4.297   5.347   3.108 -1.2831  0.8864  0.8837
 7760TIP3    H223245   4.280   5.200   3.073  1.3009  0.7989 -0.1931
 7761TIP3   OH223246   4.796   6.228   3.227 -0.7447 -0.5062  0.6365
 7761TIP3    H123247   4.779   6.139   3.259 -1.5676 -1.5492 -2.2851
 7761TIP3    H223248   4.889   6.229   3.207 -1.0991 -1.5567 -1.3374
 7762TIP3   OH223249   5.187   5.717   1.028  0.4619  0.4306 -0.1946
 7762TIP3    H123250   5.107   5.707   0.976  0.8728 -0.4084 -0.6701
 7762TIP3    H223251   5.208   5.629   1.058  1.8018  0.4611 -0.9626
 7763TIP3   OH223252   5.647   5.926   2.285 -0.2592 -0.1524  0.2303
 7763TIP3    H123253   5.595   6.006   2.282 -0.8802 -0.5363  0.5232
 7763TIP3    H223254   5.720   5.946   2.342  0.3695  0.6493 -0.8188
 7764TIP3   OH223255   2.411   2.132   4.442 -0.1682  0.4640 -0.0532
 7764TIP3    H123256   2.426   2.116   4.535  2.9800 -1.4147 -0.7593
 7764TIP3    H223257   2.496   2.159   4.407 -1.7584  3.5367 -2.0450
 7765TIP3   OH223258   0.755   3.302   0.643 -0.3292 -0.0428  0.5642
 7765TIP3    H123259   0.810   3.360   0.696 -2.6788  1.2467  1.7586
 7765TIP3    H223260   0.799   3.217   0.646  1.7052  0.9774  1.2096
 7766TIP3   OH223261   3.861   0.507   3.319 -0.2802 -0.1238 -0.5363
 7766TIP3    H123262   3.899   0.595   3.325  0.1665 -0.1483 -2.3137
 7766TIP3    H223263   3.892   0.473   3.235  2.2736 -3.3099  1.4574
 7767TIP3   OH223264   6.692   2.845   5.688  0.0154 -0.0025 -0.1876
 7767TIP3    H123265   6.710   2.931   5.650  0.5112  0.8123  1.7185
 7767TIP3    H223266   6.596   2.843   5.697 -0.0893 -0.1189 -1.2181
 7768TIP3   OH223267   5.001   5.230   4.953  0.2890 -0.2210 -0.3533
 7768TIP3    H123268   5.041   5.258   5.036 -1.1434 -0.7925  0.5771
 7768TIP3    H223269   5.029   5.295   4.889  2.7152 -0.6198  0.2036
 7769TIP3   OH223270   4.832   2.460   3.905 -0.0005  0.6566 -0.0479
 7769TIP3    H123271   4.807   2.510   3.982 -0.0528  0.8898 -0.2178
 7769TIP3    H223272   4.749   2.445   3.858 -0.1695 -0.5560  0.5714
 7770TIP3   OH223273   0.656   4.200   4.712  0.0906 -0.2452 -0.2909
 7770TIP3    H123274   0.700   4.194   4.627 -1.3072 -0.5305 -1.0204
 7770TIP3    H223275   0.668   4.114   4.753 -0.6892 -0.6805 -0.9553
 7771TIP3   OH223276   3.755   0.687   2.080  0.9383  0.7746 -0.8684
 7771TIP3    H123277   3.681   0.643   2.121  0.4867  1.6078 -0.7665
 7771TIP3    H223278   3.807   0.617   2.042  0.4895  0.1216 -0.2925
 7772TIP3   OH223279   4.312   3.631   1.769 -0.0659 -0.3110 -0.0866
 7772TIP3    H123280   4.329   3.683   1.690  1.0879 -0.2619  0.1805
 7772TIP3    H223281   4.217   3.639   1.782 -0.1588  0.3315 -1.0137
 7773TIP3   OH223282   2.247   5.174   2.653  0.5208 -0.0662 -0.3772
 7773TIP3    H123283   2.312   5.243   2.658  1.6241 -1.1462  1.7410
 7773TIP3    H223284   2.190   5.199   2.581  1.5041  2.4618 -0.3632
 7774TIP3   OH223285   3.581   1.720   4.046 -0.0741 -0.2669  0.1777
 7774TIP3    H123286   3.639   1.765   3.984 -0.5292 -0.6040 -0.5130
 7774TIP3    H223287   3.628   1.640   4.069 -0.7754 -1.1897 -1.3948
 7775TIP3   OH223288   4.132   2.087   0.894 -0.5067 -0.1922 -0.2866
 7775TIP3    H123289   4.201   2.151   0.878  0.4474 -1.2052 -0.3733
 7775TIP3    H223290   4.074   2.129   0.958  0.8895  0.2084  0.7670
 7776TIP3   OH223291   3.214   6.274   1.191 -0.1415 -0.3427  0.3633
 7776TIP3    H123292   3.180   6.221   1.118  0.1285  0.3846 -0.3085
 7776TIP3    H223293   3.257   6.348   1.148 -0.1903  0.2280  1.2775
 7777TIP3   OH223294   4.488   2.876   1.166  0.2751  0.0804 -0.3783
 7777TIP3    H123295   4.467   2.915   1.251 -3.1729 -2.4436  0.1249
 7777TIP3    H223296   4.445   2.933   1.102 -1.6910 -0.8395  0.0663
 7778TIP3   OH223297   2.902   4.721   2.325 -0.1105 -0.3740 -0.3082
 7778TIP3    H123298   2.808   4.716   2.306 -0.0217 -0.5432 -0.7260
 7778TIP3    H223299   2.934   4.632   2.313  0.7332  0.2240 -3.6662
 7779TIP3   OH223300   6.733   6.676   2.207  0.5162  0.7118 -0.0282
 7779TIP3    H123301   6.639   6.664   2.192  0.9786 -1.4022 -1.6908
 7779TIP3    H223302   6.749   6.768   2.183 -0.9087  0.7543 -0.9552
 7780TIP3   OH223303   0.975   4.396   0.520  0.1426 -0.0105 -0.6126
 7780TIP3    H123304   0.964   4.383   0.614 -1.8661  3.9927 -0.0768
 7780TIP3    H223305   1.068   4.416   0.509  0.8722 -2.5939  0.0331
 7781TIP3   OH223306   6.642   5.190   3.273 -0.3933  0.2522 -0.1317
 7781TIP3    H123307   6.620   5.264   3.216 -1.2391  1.5176  1.7197
 7781TIP3    H223308   6.598   5.115   3.234 -3.2862  1.6042  0.2796
 7782TIP3   OH223309   2.161   3.881   4.475 -0.1283 -0.0234 -0.3582
 7782TIP3    H123310   2.088   3.937   4.501 -0.8058 -1.2639  0.5313
 7782TIP3    H223311   2.237   3.919   4.519 -0.6131  0.0961  0.4017
 7783TIP3   OH223312   4.160   6.318   0.833 -0.0993 -0.4915  0.1221
 7783TIP3    H123313   4.192   6.234   0.799  1.0867  0.5504 -1.5340
 7783TIP3    H223314   4.238   6.361   0.868 -0.3145  0.6128 -0.6736
 7784TIP3   OH223315   4.987   5.481   1.827 -0.4734  0.6344  0.4920
 7784TIP3    H123316   5.030   5.561   1.798  0.6659 -0.3564 -0.6539
 7784TIP3    H223317   4.929   5.458   1.755 -1.0550  0.5962  0.9638
 7785TIP3   OH223318   0.707   5.297   2.506  0.3223  0.2397  0.6620
 7785TIP3    H123319   0.620   5.260   2.521  0.7724 -1.1461 -0.0220
 7785TIP3    H223320   0.765   5.245   2.561  1.0061 -0.3045 -0.5380
 7786TIP3   OH223321   6.861   2.586   2.181  0.1012 -0.3205  0.1208
 7786TIP3    H123322   6.946   2.571   2.221 -0.1670  0.2006  0.9259
 7786TIP3    H223323   6.806   2.515   2.213 -0.3893  0.6562  1.5701
 7787TIP3   OH223324   0.937   0.311   1.359  0.2986 -0.2152  0.8163
 7787TIP3    H123325   0.975   0.278   1.277 -1.4739  0.6580 -0.4012
 7787TIP3    H223326   1.011   0.351   1.404  1.4314 -1.2043 -0.0716
 7788TIP3   OH223327   2.532   6.549   5.778  0.3325  0.0779 -0.2952
 7788TIP3    H123328   2.518   6.599   5.697  3.7722 -0.2646 -1.2566
 7788TIP3    H223329   2.499   6.462   5.759  0.5363  0.1736 -1.1287
 7789TIP3   OH223330   3.849   3.288   1.573 -0.5446  0.1886  0.0227
 7789TIP3    H123331   3.810   3.369   1.605  1.4053  0.5400  1.7327
 7789TIP3    H223332   3.833   3.224   1.643  1.1537  0.1338  0.4008
 7790TIP3   OH223333   4.959   3.743   2.877  0.0165  0.1798 -0.2224
 7790TIP3    H123334   5.019   3.684   2.830 -0.5365 -0.1517 -0.5306
 7790TIP3    H223335   5.010   3.774   2.952  0.5044 -0.2582 -0.3598
 7791TIP3   OH223336   1.220   0.405   5.162  0.0053  0.2225  0.2037
 7791TIP3    H123337   1.304   0.394   5.205 -0.3936  1.8520  1.5061
 7791TIP3    H223338   1.240   0.450   5.080  0.4610 -0.0577  0.1595
 7792TIP3   OH223339   1.107   1.644   3.300 -0.2374 -0.1583 -0.2091
 7792TIP3    H123340   1.134   1.676   3.386 -0.2648 -0.0886 -0.2264
 7792TIP3    H223341   1.061   1.562   3.318  0.4412 -0.5457 -0.2222
 7793TIP3   OH223342   0.473   2.996   0.622  0.0631  0.1680  0.1948
 7793TIP3    H123343   0.566   2.997   0.603  0.2343  0.5834  1.0052
 7793TIP3    H223344   0.435   2.936   0.557  1.1438 -1.4163  0.9690
 7794TIP3   OH223345   0.695   4.930   1.085 -0.6156  0.1344 -0.2563
 7794TIP3    H123346   0.672   4.877   1.009 -0.3871 -1.5395  0.7794
 7794TIP3    H223347   0.661   4.879   1.160  0.2920  1.0836  0.8307
 7795TIP3   OH223348   2.911   3.886   0.389 -0.4545 -0.2304  0.2603
 7795TIP3    H123349   3.003   3.880   0.413 -0.0711  4.2246  0.6726
 7795TIP3    H223350   2.903   3.831   0.311  3.1360  1.0269 -1.1958
 7796TIP3   OH223351   6.198   0.506   0.836 -0.3530  0.2049  0.5101
 7796TIP3    H123352   6.289   0.534   0.829 -0.0160 -0.7067  0.9636
 7796TIP3    H223353   6.167   0.501   0.746  0.1437  0.2308  0.3367
 7797TIP3   OH223354   1.563   1.607   0.247  0.0753  0.0434  0.1742
 7797TIP3    H123355   1.592   1.678   0.190  0.2935 -0.2903 -0.1342
 7797TIP3    H223356   1.639   1.587   0.302  1.2304 -2.2505 -2.0435
 7798TIP3   OH223357   6.715   3.426   4.411  0.2675 -0.4296 -0.2453
 7798TIP3    H123358   6.785   3.367   4.438  0.1200 -0.8117 -0.6831
 7798TIP3    H223359   6.750   3.514   4.425  0.3091 -0.6133  0.8859
 7799TIP3   OH223360   6.384   1.461   2.813  0.8143  0.2331 -0.0430
 7799TIP3    H123361   6.411   1.369   2.822 -0.3658 -0.4999 -2.8570
 7799TIP3    H223362   6.312   1.471   2.876  1.3214 -0.5889  0.6926
 7800TIP3   OH223363   5.083   5.778   3.806  0.0980 -0.6233  0.1306
 7800TIP3    H123364   5.166   5.763   3.760  1.3583  0.7021  1.8312
 7800TIP3    H223365   5.032   5.700   3.789  0.1867 -0.0173 -3.9662
 7801TIP3   OH223366   0.796   0.674   4.667 -0.0613 -0.0562 -0.7610
 7801TIP3    H123367   0.789   0.762   4.630 -1.5758 -0.2654 -1.0040
 7801TIP3    H223368   0.814   0.690   4.760  0.9907  0.4799 -1.0338
 7802TIP3   OH223369   4.903   5.645   2.055  0.1647 -0.1638 -0.4904
 7802TIP3    H123370   4.953   5.662   1.976 -0.6191  2.8187 -0.4650
 7802TIP3    H223371   4.926   5.716   2.115 -1.3527 -0.7452  0.8916
 7803TIP3   OH223372   7.071   2.637   5.662  0.0068  0.2665  0.0110
 7803TIP3    H123373   7.049   2.700   5.593  0.1369  0.2846 -0.0136
 7803TIP3    H223374   7.000   2.644   5.725  0.7924  1.5664  0.7924
 7804TIP3   OH223375   1.287   5.049   5.363 -0.4804 -0.1231  0.0669
 7804TIP3    H123376   1.267   5.112   5.293  1.6843 -0.2982 -0.7775
 7804TIP3    H223377   1.369   5.081   5.401 -0.3764 -1.3704  0.9404
 7805TIP3   OH223378   4.219   1.739   1.837  0.1591  0.0656 -0.0861
 7805TIP3    H123379   4.135   1.743   1.791  0.0875  2.0840  0.1542
 7805TIP3    H223380   4.218   1.814   1.895  0.2871 -2.2914  3.2551
 7806TIP3   OH223381   6.061   3.765   0.204 -0.2308  0.4648  0.1419
 7806TIP3    H123382   6.016   3.709   0.141  0.5744  0.5785 -0.5519
 7806TIP3    H223383   6.069   3.711   0.283  2.1872 -1.1715 -1.0980
 7807TIP3   OH223384   4.514   6.313   5.813 -0.1883 -0.3426 -0.2471
 7807TIP3    H123385   4.548   6.245   5.872  0.0813  0.0685  0.0794
 7807TIP3    H223386   4.438   6.349   5.859 -0.0099 -0.0576 -0.1713
 7808TIP3   OH223387   3.015   3.612   2.288 -0.3057 -0.1812  0.5219
 7808TIP3    H123388   3.024   3.523   2.320  0.0017  0.0799  1.1792
 7808TIP3    H223389   3.033   3.606   2.194  0.3978 -0.7003  0.6837
 7809TIP3   OH223390   5.793   3.173   4.109  0.6043  0.0673 -0.1876
 7809TIP3    H123391   5.792   3.137   4.197  0.4910  0.5887  0.0280
 7809TIP3    H223392   5.859   3.121   4.063  1.0857  0.1677  0.3669
 7810TIP3   OH223393   5.088   2.144   1.558  0.1761  0.2862 -0.4055
 7810TIP3    H123394   5.092   2.143   1.462  0.8324  1.2410 -0.3940
 7810TIP3    H223395   5.007   2.096   1.579 -0.0773  0.2424 -1.4384
 7811TIP3   OH223396   0.395   5.652   1.358  0.2162  0.3043  0.3372
 7811TIP3    H123397   0.465   5.628   1.298 -0.2905  0.2958 -0.2624
 7811TIP3    H223398   0.433   5.639   1.446  0.7613 -0.2655  0.0284
 7812TIP3   OH223399   2.325   2.013   1.086 -0.1927 -0.1872  0.0838
 7812TIP3    H123400   2.417   2.028   1.108 -0.3233 -1.3179  1.5525
 7812TIP3    H223401   2.294   1.952   1.153 -1.5385 -1.2412 -1.4338
 7813TIP3   OH223402   3.319   2.550   4.393  0.6888 -0.2672 -0.3494
 7813TIP3    H123403   3.300   2.633   4.350 -1.7741 -1.2281 -1.3057
 7813TIP3    H223404   3.331   2.488   4.322  2.3635 -0.8132  0.3562
 7814TIP3   OH223405   4.261   4.363   4.401  0.2154  0.3636  0.5583
 7814TIP3    H123406   4.353   4.387   4.392  0.4261 -0.4752  0.3870
 7814TIP3    H223407   4.221   4.392   4.319  0.6710 -0.7513 -0.0820
 7815TIP3   OH223408   2.071   1.053   3.545 -0.2354 -0.2428  0.4005
 7815TIP3    H123409   2.047   1.134   3.590  1.3892 -1.0843  3.0250
 7815TIP3    H223410   2.019   0.985   3.588 -0.3528 -0.8015 -0.6080
 7816TIP3   OH223411   6.828   5.133   4.132  0.1152  0.3003 -0.2303
 7816TIP3    H123412   6.790   5.062   4.080  0.4599 -0.2161  0.2051
 7816TIP3    H223413   6.774   5.137   4.211 -1.6814  2.4338 -1.4450
 7817TIP3   OH223414   0.677   0.702   1.423  0.2290  0.1531  0.3272
 7817TIP3    H123415   0.728   0.666   1.351 -2.8247  1.1063 -2.5699
 7817TIP3    H223416   0.707   0.792   1.432 -0.6910  0.6597 -1.2562
 7818TIP3   OH223417   1.491   5.267   2.289  0.2678 -1.3059  0.7752
 7818TIP3    H123418   1.432   5.193   2.308 -0.9510 -0.3428  0.8979
 7818TIP3    H223419   1.442   5.320   2.227  0.1199  0.5779  2.4109
 7819TIP3   OH223420   2.370   5.176   4.938  0.1765  0.0470 -0.2296
 7819TIP3    H123421   2.368   5.092   4.892  1.0784 -0.6401  0.9470
 7819TIP3    H223422   2.431   5.163   5.010  0.1177  1.6349  0.1464
 7820TIP3   OH223423   7.156   0.239   3.483  0.2301  0.0205  0.0219
 7820TIP3    H123424   7.102   0.161   3.481  1.2354 -0.7639  1.6060
 7820TIP3    H223425   7.246   0.206   3.472  0.7099  0.8863  1.1996
 7821TIP3   OH223426   1.279   4.166   1.258  0.4748  0.6108  0.6065
 7821TIP3    H123427   1.257   4.257   1.242 -0.4049  0.0877 -1.4190
 7821TIP3    H223428   1.205   4.117   1.222  0.6787 -0.9085  2.1209
 7822TIP3   OH223429   0.924   4.728   5.781  0.6144 -0.3165  0.4233
 7822TIP3    H123430   0.880   4.669   5.843  1.3607 -0.0659  1.1972
 7822TIP3    H223431   0.971   4.669   5.721  0.0513 -0.5514  0.2019
 7823TIP3   OH223432   5.475   3.070   3.477  0.3010 -0.6137  0.1728
 7823TIP3    H123433   5.441   3.120   3.403 -0.7143  0.4294  1.3196
 7823TIP3    H223434   5.552   3.025   3.441 -0.1888 -0.1752 -1.5202
 7824TIP3   OH223435   2.569   5.944   2.311 -0.3747 -0.3521  0.1904
 7824TIP3    H123436   2.606   5.933   2.223 -0.8382 -1.2296  0.0973
 7824TIP3    H223437   2.531   6.032   2.310  0.2890 -0.0598 -0.2294
 7825TIP3   OH223438   3.315   1.117   1.814  0.0641  0.2150  0.0702
 7825TIP3    H123439   3.403   1.086   1.837  1.2103  2.3156 -1.1821
 7825TIP3    H223440   3.287   1.058   1.744  0.7530 -0.0984  0.0437
 7826TIP3   OH223441   0.860   4.717   2.442  0.4016 -0.0591  0.1885
 7826TIP3    H123442   0.777   4.746   2.479 -0.3581 -0.8674 -0.8235
 7826TIP3    H223443   0.920   4.789   2.458  0.0055 -0.1802  2.5462
 7827TIP3   OH223444   5.226   3.168   4.727  0.4453  0.4903 -0.6748
 7827TIP3    H123445   5.195   3.126   4.647 -1.6025  0.8028 -0.0823
 7827TIP3    H223446   5.263   3.251   4.697  0.6234  0.1668 -1.3850
 7828TIP3   OH223447   1.063   4.547   5.619  0.2502 -0.2366  0.1772
 7828TIP3    H123448   1.141   4.545   5.563  0.4976  0.9755  0.4490
 7828TIP3    H223449   0.995   4.505   5.567  0.1668  1.9016 -1.5378
 7829TIP3   OH223450   6.470   1.403   1.655  0.3674 -0.2109  0.0612
 7829TIP3    H123451   6.391   1.446   1.621  1.4996  2.6720  0.7927
 7829TIP3    H223452   6.528   1.397   1.580  0.4952  0.2697  0.1206
 7830TIP3   OH223453   4.614   4.570   1.673 -0.2848  0.5370  0.3662
 7830TIP3    H123454   4.620   4.614   1.588 -0.2091  0.0228  0.1021
 7830TIP3    H223455   4.699   4.585   1.714 -0.2392  0.5911  0.2523
 7831TIP3   OH223456   1.337   4.936   0.901 -0.2280 -0.0608 -0.1044
 7831TIP3    H123457   1.420   4.978   0.925 -1.7307  1.5318  2.9291
 7831TIP3    H223458   1.359   4.843   0.893  1.5651  0.0096  2.6181
 7832TIP3   OH223459   0.308   0.276   1.265  0.5517  0.4477  0.3650
 7832TIP3    H123460   0.273   0.194   1.299  0.9247  0.8259  1.7377
 7832TIP3    H223461   0.311   0.264   1.171 -1.4166 -0.3106  0.3586
 7833TIP3   OH223462   0.553   1.221   3.157  0.1219  0.1934 -1.0918
 7833TIP3    H123463   0.592   1.300   3.119  0.8362  0.6972  0.5663
 7833TIP3    H223464   0.625   1.159   3.165 -0.2234 -0.2604 -1.4648
 7834TIP3   OH223465   3.890   6.523   5.303 -0.4642 -0.3096  0.4736
 7834TIP3    H123466   3.907   6.443   5.254  0.9679  0.8970 -1.1685
 7834TIP3    H223467   3.973   6.541   5.348 -1.0842 -0.2477  1.6171
 7835TIP3   OH223468   6.563   5.137   5.044 -0.8519  0.1963 -0.3216
 7835TIP3    H123469   6.636   5.125   5.105  1.6823  0.0203 -3.1549
 7835TIP3    H223470   6.486   5.112   5.095  1.3501 -2.7735  1.9560
 7836TIP3   OH223471   4.405   3.194   2.902 -0.0755  0.3687  0.4025
 7836TIP3    H123472   4.365   3.264   2.954  1.2477  1.9556 -0.6303
 7836TIP3    H223473   4.485   3.171   2.949  0.0700  0.3439  0.1428
 7837TIP3   OH223474   1.204   2.640   3.120 -0.3829  0.3004 -0.2158
 7837TIP3    H123475   1.290   2.600   3.131 -0.2418  0.6780  0.0766
 7837TIP3    H223476   1.220   2.721   3.073 -0.2489  1.5762  1.8983
 7838TIP3   OH223477   1.519   4.603   4.606  0.2173 -0.6336 -0.0339
 7838TIP3    H123478   1.596   4.592   4.551  1.1802 -0.3689  1.2376
 7838TIP3    H223479   1.540   4.559   4.688 -0.4361  0.5966  0.8370
 7839TIP3   OH223480   0.647   3.988   5.603  0.6380  0.0025  0.1161
 7839TIP3    H123481   0.645   4.064   5.545  0.3713 -0.0643  0.0372
 7839TIP3    H223482   0.672   4.024   5.688  0.0930  0.2463  0.1787
 7840TIP3   OH223483   3.708   2.647   1.793 -0.2073  0.0096  0.0040
 7840TIP3    H123484   3.729   2.727   1.841 -1.2132  0.8219 -0.8688
 7840TIP3    H223485   3.656   2.676   1.719 -0.6746 -1.4722 -0.2885
 7841TIP3   OH223486   1.619   6.621   4.652  0.4183  0.1894  0.3571
 7841TIP3    H123487   1.662   6.655   4.574  1.7191 -1.2493  0.4138
 7841TIP3    H223488   1.630   6.690   4.717  1.5238  0.3787 -0.0128
 7842TIP3   OH223489   6.231   1.922   4.753  0.1329 -0.3866 -0.5697
 7842TIP3    H123490   6.282   1.884   4.824 -0.3414 -0.5483 -0.3103
 7842TIP3    H223491   6.296   1.959   4.693  0.5184  0.4474  0.3377
 7843TIP3   OH223492   3.727   0.952   1.715 -0.0238 -0.0817  0.4716
 7843TIP3    H123493   3.681   1.010   1.654 -0.8571 -1.7159 -0.5220
 7843TIP3    H223494   3.812   0.994   1.728  0.0984  0.4573 -1.6485
 7844TIP3   OH223495   0.484   6.755   3.045  0.2813 -0.1917 -0.2339
 7844TIP3    H123496   0.398   6.718   3.064 -0.3295  1.4306  0.3714
 7844TIP3    H223497   0.501   6.732   2.953 -0.7615 -0.5834 -0.3377
 7845TIP3   OH223498   4.733   0.209   0.401 -0.4057  0.1256  0.0321
 7845TIP3    H123499   4.716   0.298   0.432  0.6676  0.0455  0.9149
 7845TIP3    H223500   4.824   0.210   0.372 -0.6522 -0.4673 -0.8084
 7846TIP3   OH223501   3.069   5.905   1.935  0.5502 -0.5303  0.0216
 7846TIP3    H123502   3.164   5.913   1.926  0.4592  1.4596  0.2818
 7846TIP3    H223503   3.035   5.924   1.848  0.3801 -1.2028 -0.0614
 7847TIP3   OH223504   3.689   3.810   3.432  0.3033  0.2193 -0.0214
 7847TIP3    H123505   3.607   3.813   3.481  0.5330  0.6807  0.3502
 7847TIP3    H223506   3.698   3.899   3.396  0.4894  0.0849 -0.3078
 7848TIP3   OH223507   3.928   1.213   2.717  0.4308  0.4477 -0.8138
 7848TIP3    H123508   3.875   1.153   2.770  2.1027  0.1736  0.6387
 7848TIP3    H223509   3.903   1.300   2.746  0.8132  0.3165 -0.0730
 7849TIP3   OH223510   0.465   5.469   4.649  0.5792 -0.0470 -0.3958
 7849TIP3    H123511   0.516   5.550   4.641  0.2923  0.3098  1.0633
 7849TIP3    H223512   0.385   5.485   4.599  0.1493  0.9244  0.5517
 7850TIP3   OH223513   1.102   2.274   4.694  0.2858 -0.2410  1.1577
 7850TIP3    H123514   1.080   2.341   4.760 -0.4850  0.1466  0.5369
 7850TIP3    H223515   1.070   2.192   4.731  0.0119 -0.0521  1.3445
 7851TIP3   OH223516   1.206   0.496   3.384 -0.3147  1.4496 -0.1668
 7851TIP3    H123517   1.271   0.483   3.453 -0.2465  1.9875 -0.1226
 7851TIP3    H223518   1.198   0.591   3.377  0.4448  1.4439 -1.5938
 7852TIP3   OH223519   6.452   2.935   1.312 -0.6689 -0.4785  0.0587
 7852TIP3    H123520   6.411   2.895   1.389  0.8185 -0.4906  0.8979
 7852TIP3    H223521   6.506   2.865   1.274  1.6225  0.4785  1.2964
 7853TIP3   OH223522   2.251   5.332   0.046 -0.0056 -0.2905 -0.5585
 7853TIP3    H123523   2.245   5.237   0.042  0.4324 -0.3179 -0.6132
 7853TIP3    H223524   2.202   5.356   0.125  0.6711 -0.6398 -0.0277
 7854TIP3   OH223525   5.177   1.009   2.739  0.0822  0.1651  0.0003
 7854TIP3    H123526   5.098   1.044   2.698 -0.2036 -0.6553 -0.1663
 7854TIP3    H223527   5.222   0.962   2.668 -0.0516 -0.6499  0.4496
 7855TIP3   OH223528   5.615   6.268   4.084 -0.6053 -0.2009 -0.0094
 7855TIP3    H123529   5.686   6.217   4.044 -0.1171 -0.1078  0.7300
 7855TIP3    H223530   5.652   6.355   4.095  0.0784 -0.7392  2.6855
 7856TIP3   OH223531   3.681   4.081   5.333  0.4621  0.1552 -0.0982
 7856TIP3    H123532   3.701   3.987   5.327  0.4487  0.1858 -0.6245
 7856TIP3    H223533   3.766   4.123   5.345  0.5181  0.1162 -0.3539
 7857TIP3   OH223534   2.953   6.666   3.327 -0.6312 -0.5987 -0.0588
 7857TIP3    H123535   2.928   6.707   3.244 -0.9949  0.1979  0.4252
 7857TIP3    H223536   2.958   6.739   3.389  0.6621 -1.0470  0.3896
 7858TIP3   OH223537   6.206   2.409   3.029  0.0417 -0.4482 -0.1258
 7858TIP3    H123538   6.301   2.415   3.039 -0.0185  0.7137 -0.1000
 7858TIP3    H223539   6.187   2.315   3.031  1.1140 -0.6666  0.5430
 7859TIP3   OH223540   0.220   2.236   0.935  0.0069  0.1173  0.1231
 7859TIP3    H123541   0.196   2.145   0.917  0.7137 -0.0031 -0.2283
 7859TIP3    H223542   0.170   2.287   0.871  0.3957 -0.1037 -0.3612
 7860TIP3   OH223543   3.655   4.683   1.390  0.8534 -0.5772  0.6206
 7860TIP3    H123544   3.694   4.731   1.463  3.4275 -0.7696 -0.5387
 7860TIP3    H223545   3.593   4.745   1.351  2.2989  0.9508  0.6517
 7861TIP3   OH223546   0.787   6.539   1.144  0.1218 -0.0566 -0.1979
 7861TIP3    H123547   0.815   6.449   1.160 -1.9737 -0.8625 -0.8445
 7861TIP3    H223548   0.867   6.583   1.115  0.6348 -2.4448 -2.8499
 7862TIP3   OH223549   1.781   1.009   4.349 -0.3605 -0.0657  0.2478
 7862TIP3    H123550   1.780   0.980   4.440 -1.7327 -0.7516  0.0329
 7862TIP3    H223551   1.691   0.996   4.318  0.1248 -0.0325 -1.2671
 7863TIP3   OH223552   6.610   4.193   2.307  0.1832 -0.1651 -0.3566
 7863TIP3    H123553   6.690   4.141   2.300  0.2253 -0.2036  0.3073
 7863TIP3    H223554   6.542   4.130   2.332  0.1333  0.0120 -0.0341
 7864TIP3   OH223555   0.902   2.533   5.014  0.3624 -0.7877  0.2830
 7864TIP3    H123556   0.993   2.508   5.001  0.7103  0.6075 -0.1331
 7864TIP3    H223557   0.891   2.613   4.963 -0.4813  0.3145  2.0763
 7865TIP3   OH223558   2.904   6.066   3.065 -0.3085  0.4173  0.2754
 7865TIP3    H123559   2.993   6.068   3.031  0.2201 -0.0860  1.5333
 7865TIP3    H223560   2.899   6.139   3.126 -1.4790  1.7765 -1.3683
 7866TIP3   OH223561   4.720   2.112   0.935 -0.2412 -0.0725 -0.2193
 7866TIP3    H123562   4.684   2.077   1.016 -0.5780  0.9736  0.1033
 7866TIP3    H223563   4.658   2.086   0.867 -0.8733  0.4910  0.1249
 7867TIP3   OH223564   0.491   0.388   1.429 -0.3798  0.4547 -0.4117
 7867TIP3    H123565   0.423   0.342   1.380 -0.8060  0.7557 -0.1216
 7867TIP3    H223566   0.570   0.379   1.377  0.6842 -4.1930  1.5195
 7868TIP3   OH223567   3.099   5.467   0.208 -0.0417  0.5641  0.1806
 7868TIP3    H123568   3.179   5.504   0.171 -0.8556  0.7209 -1.4829
 7868TIP3    H223569   3.063   5.413   0.139 -1.4137  0.5281  0.8920
 7869TIP3   OH223570   1.032   5.861   5.261 -0.0159  0.2121 -0.1501
 7869TIP3    H123571   0.964   5.886   5.324  1.1146  0.5858  0.9572
 7869TIP3    H223572   0.983   5.828   5.185 -1.4860  1.8546 -0.0021
 7870TIP3   OH223573   0.964   0.127   2.652 -0.2687 -0.3647  0.1480
 7870TIP3    H123574   1.051   0.087   2.654  0.7605  1.7627  2.1407
 7870TIP3    H223575   0.939   0.137   2.744 -2.1157  0.1673 -0.3580
 7871TIP3   OH223576   2.558   3.483   3.736  0.6661 -0.2526 -0.0823
 7871TIP3    H123577   2.636   3.428   3.744  0.2185 -0.5834  3.1816
 7871TIP3    H223578   2.488   3.423   3.712  0.8354 -0.4852  0.0076
 7872TIP3   OH223579   1.616   1.423   1.094 -0.4014 -0.7834 -0.2577
 7872TIP3    H123580   1.655   1.378   1.020 -0.5286  1.4267 -1.7603
 7872TIP3    H223581   1.687   1.474   1.133 -0.3018 -2.0113  1.2802
 7873TIP3   OH223582   3.094   1.271   5.159 -0.1631 -0.5270  0.3459
 7873TIP3    H123583   3.034   1.343   5.137  0.5699  0.3777  1.2081
 7873TIP3    H223584   3.055   1.232   5.237  0.9398  0.8278  1.6346
 7874TIP3   OH223585   6.470   5.522   4.877 -0.0248  0.0147 -0.2428
 7874TIP3    H123586   6.539   5.576   4.837 -0.2975  0.2226 -0.4307
 7874TIP3    H223587   6.476   5.439   4.829  0.8402 -0.3766  0.4939
 7875TIP3   OH223588   6.422   5.444   4.241 -0.2784  0.1185  0.0951
 7875TIP3    H123589   6.497   5.459   4.184 -0.6112 -1.0722 -0.6997
 7875TIP3    H223590   6.346   5.446   4.182 -0.7097 -0.3092  0.6193
 7876TIP3   OH223591   4.597   4.178   4.338 -0.0987 -0.3556 -0.1970
 7876TIP3    H123592   4.603   4.256   4.282  0.1891 -1.4468 -1.7426
 7876TIP3    H223593   4.618   4.210   4.426 -0.4679  1.3937 -0.7139
 7877TIP3   OH223594   3.300   1.328   2.932 -0.4974  0.2040  0.1789
 7877TIP3    H123595   3.374   1.269   2.935 -1.4219 -0.9341  1.6990
 7877TIP3    H223596   3.237   1.285   2.875 -0.3391  0.7932 -0.4669
 7878TIP3   OH223597   3.490   2.445   2.499  0.2396  0.2367 -0.2174
 7878TIP3    H123598   3.570   2.429   2.549 -0.2267  0.5637  0.6382
 7878TIP3    H223599   3.419   2.438   2.562 -0.3800  0.4136 -0.8777
 7879TIP3   OH223600   1.211   2.679   5.818  0.1187  0.4397  0.5770
 7879TIP3    H123601   1.277   2.659   5.884  1.3004  1.8681 -0.1153
 7879TIP3    H223602   1.134   2.703   5.869  0.2458 -0.7721  1.4043
 7880TIP3   OH223603   0.071   4.017   1.562  0.2123  0.1330 -0.3742
 7880TIP3    H123604   0.034   4.039   1.476  0.9449  0.1024 -0.7114
 7880TIP3    H223605   0.089   4.103   1.602 -2.0522  0.1874  0.6411
 7881TIP3   OH223606   2.664   3.683   3.576 -0.5920  0.3341  0.1505
 7881TIP3    H123607   2.755   3.654   3.575 -1.0640 -1.2715 -1.6568
 7881TIP3    H223608   2.618   3.616   3.626 -0.7674  1.3519  1.4136
 7882TIP3   OH223609   5.010   6.036   4.189 -0.1271 -0.1845 -0.1078
 7882TIP3    H123610   5.063   5.964   4.154 -0.3231 -1.0643  1.3453
 7882TIP3    H223611   5.069   6.085   4.246 -0.3368  0.0411 -0.0813
 7883TIP3   OH223612   4.444   6.092   0.600 -0.1525  0.5098 -0.0515
 7883TIP3    H123613   4.374   6.066   0.659 -0.4546  0.0670 -0.5981
 7883TIP3    H223614   4.414   6.174   0.561 -0.8453 -0.2100 -1.0656
 7884TIP3   OH223615   5.738   2.922   0.320  0.3853 -0.3513  0.0431
 7884TIP3    H123616   5.648   2.933   0.352  0.5601 -0.5500  0.6044
 7884TIP3    H223617   5.792   2.964   0.387  0.7090 -0.1770 -0.3251
 7885TIP3   OH223618   1.646   0.875   1.121 -0.0721  0.2765 -0.0740
 7885TIP3    H123619   1.648   0.865   1.026 -0.4674  1.4647 -0.2218
 7885TIP3    H223620   1.592   0.953   1.136 -1.3137 -0.7772  1.1996
 7886TIP3   OH223621   5.944   5.631   4.259 -0.3568 -0.3908  0.3949
 7886TIP3    H123622   6.033   5.662   4.274 -0.1319 -0.0438 -1.4212
 7886TIP3    H223623   5.890   5.682   4.319  0.3227  1.6270 -0.6238
 7887TIP3   OH223624   0.180   2.864   3.246 -0.9253  0.0746 -0.1772
 7887TIP3    H123625   0.139   2.833   3.165 -0.2118 -0.6562 -0.2745
 7887TIP3    H223626   0.200   2.784   3.295  1.6442  0.2873 -0.7663
 7888TIP3   OH223627   5.384   2.447   3.156 -0.3981  0.2359  0.0620
 7888TIP3    H123628   5.360   2.378   3.218  0.8146  0.2415  0.5655
 7888TIP3    H223629   5.403   2.400   3.075  0.8202 -0.0904  0.5173
 7889TIP3   OH223630   2.120   3.981   4.066  0.3378  0.2570  0.1297
 7889TIP3    H123631   2.100   3.970   3.973 -0.9339  1.1340  0.2683
 7889TIP3    H223632   2.157   4.070   4.073  1.1274 -0.0798  0.3699
 7890TIP3   OH223633   4.686   4.346   3.204  0.1655  0.5905 -0.0108
 7890TIP3    H123634   4.738   4.273   3.171 -0.7876  0.1475 -0.5709
 7890TIP3    H223635   4.717   4.422   3.154  1.0713  0.5637  0.4861
 7891TIP3   OH223636   5.570   2.556   3.330  0.3115 -0.0063 -0.0507
 7891TIP3    H123637   5.498   2.598   3.377 -0.2558  0.5589 -1.3730
 7891TIP3    H223638   5.527   2.508   3.259  1.0598 -1.7585  0.6504
 7892TIP3   OH223639   2.619   2.932   4.134 -0.2843 -0.0761 -0.3769
 7892TIP3    H123640   2.567   2.856   4.158 -1.9175  1.3417  0.8084
 7892TIP3    H223641   2.639   2.920   4.041 -0.3592 -1.9861 -0.1809
 7893TIP3   OH223642   1.565   1.158   5.394  0.1701 -0.2487 -0.0638
 7893TIP3    H123643   1.635   1.189   5.452 -0.3511  1.3203 -0.2239
 7893TIP3    H223644   1.611   1.130   5.315  0.6829 -0.0414  0.1535
 7894TIP3   OH223645   5.749   5.057   1.480  0.5333 -0.1238 -0.1616
 7894TIP3    H123646   5.730   4.966   1.503  1.3292 -0.4061 -0.6052
 7894TIP3    H223647   5.807   5.088   1.549  0.6585 -0.1017 -0.2770
 7895TIP3   OH223648   3.867   6.466   2.594 -0.1018 -0.2587 -0.8956
 7895TIP3    H123649   3.814   6.544   2.608  0.0585 -0.4844  1.3056
 7895TIP3    H223650   3.951   6.486   2.635 -0.1693 -1.6750  0.0215
 7896TIP3   OH223651   6.298   4.536   3.824 -0.4266  0.6857 -0.3646
 7896TIP3    H123652   6.390   4.511   3.814 -1.0221 -1.6019 -0.6188
 7896TIP3    H223653   6.292   4.621   3.780  1.9433  1.8740  1.3834
 7897TIP3   OH223654   0.259   1.208   3.591  0.0191  0.1470 -0.3872
 7897TIP3    H123655   0.254   1.183   3.498 -0.6985 -0.2682 -0.2488
 7897TIP3    H223656   0.316   1.284   3.593 -2.8933  2.5854 -1.6986
 7898TIP3   OH223657   1.966   5.138   5.364  0.2172  0.4356  0.0149
 7898TIP3    H123658   2.041   5.123   5.307  0.3513  0.0237  0.2950
 7898TIP3    H223659   1.984   5.086   5.442 -0.5481  0.0014 -0.0822
 7899TIP3   OH223660   4.028   2.229   1.753  0.1039  0.1444 -0.0375
 7899TIP3    H123661   3.998   2.270   1.834  1.4320 -0.9789  1.0647
 7899TIP3    H223662   3.948   2.197   1.711 -0.8078  2.4532 -0.1870
 7900TIP3   OH223663   0.187   1.270   4.877  0.2054  0.1237 -0.0873
 7900TIP3    H123664   0.154   1.354   4.846  0.7157  0.1048 -0.6827
 7900TIP3    H223665   0.141   1.205   4.825 -0.6053 -0.0033  0.7542
 7901TIP3   OH223666   1.774   5.223   5.170  0.1768  0.1021  0.1592
 7901TIP3    H123667   1.834   5.194   5.240  0.7349 -0.5240 -0.5607
 7901TIP3    H223668   1.706   5.156   5.167 -1.0031  1.1775  1.4608
 7902TIP3   OH223669   5.363   4.479   0.284 -0.6446 -0.0088 -0.1624
 7902TIP3    H123670   5.287   4.534   0.261 -0.8521  0.1717  0.8956
 7902TIP3    H223671   5.348   4.455   0.375 -1.0356 -2.6461 -0.8553
 7903TIP3   OH223672   5.101   6.724   1.660 -0.3719 -0.2659  0.0545
 7903TIP3    H123673   5.137   6.702   1.745 -0.5380  1.1273  0.5215
 7903TIP3    H223674   5.152   6.673   1.597  1.2369  0.3328  0.8387
 7904TIP3   OH223675   0.217   5.124   1.349  0.1915  0.4975 -0.5001
 7904TIP3    H123676   0.303   5.128   1.392  0.5124 -0.4859 -1.0222
 7904TIP3    H223677   0.158   5.168   1.410  0.5827 -1.0960  1.1066
 7905TIP3   OH223678   2.115   4.016   1.190 -0.3600 -0.0862  0.3607
 7905TIP3    H123679   2.148   4.020   1.100 -1.0233 -1.2180  0.0503
 7905TIP3    H223680   2.194   4.008   1.244 -0.0489 -1.9080 -0.3126
 7906TIP3   OH223681   1.468   6.082   3.747  0.2658 -0.0952 -0.2846
 7906TIP3    H123682   1.480   6.057   3.655  1.5604  0.8485 -0.3966
 7906TIP3    H223683   1.416   6.161   3.744 -2.5112 -1.7931  0.0001
 7907TIP3   OH223684   0.079   2.218   5.354 -0.1811  0.2538  0.0465
 7907TIP3    H123685   0.026   2.279   5.405  0.9239 -0.2959  1.9207
 7907TIP3    H223686   0.076   2.136   5.403  0.0140 -0.6442 -1.3695
 7908TIP3   OH223687   6.015   2.727   4.008  0.0825  0.4265 -0.4434
 7908TIP3    H123688   5.964   2.688   4.079  2.3874 -1.6678  0.1967
 7908TIP3    H223689   5.978   2.690   3.928 -0.1394 -0.1910 -0.0606
 7909TIP3   OH223690   2.425   0.133   5.224 -0.1688 -0.1666  0.1515
 7909TIP3    H123691   2.385   0.046   5.215  0.8590 -0.8515  1.6732
 7909TIP3    H223692   2.459   0.134   5.314  0.7579  1.4246 -0.1798
 7910TIP3   OH223693   4.545   5.423   1.637  0.1202 -0.4328 -0.3260
 7910TIP3    H123694   4.467   5.462   1.677  0.5640 -0.2070  0.3270
 7910TIP3    H223695   4.511   5.350   1.585 -0.6319  0.2674 -0.8509
 7911TIP3   OH223696   0.825   6.091   4.389 -0.1884  0.2171 -0.5669
 7911TIP3    H123697   0.732   6.091   4.364 -1.3096  0.7358  2.9641
 7911TIP3    H223698   0.836   6.011   4.441  0.5448  1.4537  1.3037
 7912TIP3   OH223699   4.869   1.324   2.083 -0.4669 -0.2529  0.0046
 7912TIP3    H123700   4.904   1.395   2.028 -1.5462 -0.0605 -0.4564
 7912TIP3    H223701   4.919   1.330   2.164  1.7547 -1.0612 -1.2144
 7913TIP3   OH223702   0.337   4.937   5.775 -0.0727 -0.3051 -0.4245
 7913TIP3    H123703   0.273   4.918   5.706  0.4559 -1.4843 -0.6111
 7913TIP3    H223704   0.332   5.032   5.787 -2.0970 -0.4095 -0.1757
 7914TIP3   OH223705   5.813   6.153   5.497  0.0484  0.0592  0.1572
 7914TIP3    H123706   5.844   6.197   5.576  0.0656 -0.5816  0.5128
 7914TIP3    H223707   5.820   6.219   5.429 -0.8913  0.9319  0.8748
 7915TIP3   OH223708   3.423   0.072   5.449  0.2773  0.0371 -0.4392
 7915TIP3    H123709   3.386   0.090   5.363  1.8582  0.5149 -1.0453
 7915TIP3    H223710   3.356   0.018   5.492 -0.6475 -0.0191 -1.8592
 7916TIP3   OH223711   4.799   4.063   1.288  0.1733  0.3259 -0.3571
 7916TIP3    H123712   4.800   3.986   1.230  1.6288 -0.0649  0.1325
 7916TIP3    H223713   4.718   4.055   1.337  0.2629 -0.8971 -0.3604
 7917TIP3   OH223714   0.796   3.276   0.257 -0.0659  0.1440 -0.1924
 7917TIP3    H123715   0.737   3.340   0.296 -0.1104 -0.0639  0.0845
 7917TIP3    H223716   0.753   3.249   0.176 -0.8084 -0.6894  0.4508
 7918TIP3   OH223717   7.033   0.833   5.223  0.0266  0.0035 -0.3006
 7918TIP3    H123718   7.005   0.800   5.308  0.1823 -2.1358 -1.0131
 7918TIP3    H223719   7.007   0.925   5.223 -2.0123 -0.5105  1.1872
 7919TIP3   OH223720   4.035   5.362   1.679 -0.1253  0.3454 -0.2907
 7919TIP3    H123721   4.002   5.380   1.767  1.8308  0.1548  0.5269
 7919TIP3    H223722   4.119   5.318   1.693 -0.6785 -1.5537 -2.2447
 7920TIP3   OH223723   2.046   6.127   0.647  0.1367 -0.3688 -0.1873
 7920TIP3    H123724   2.109   6.096   0.713 -1.6926 -2.5274  0.7183
 7920TIP3    H223725   2.056   6.066   0.574 -0.1088 -0.0242 -0.5100
 7921TIP3   OH223726   5.970   1.000   5.700  0.5533  0.5655  0.0963
 7921TIP3    H123727   5.992   1.036   5.785 -0.1190  1.6934 -0.1849
 7921TIP3    H223728   5.988   1.071   5.638  1.6521 -0.4347 -0.7995
 7922TIP3   OH223729   0.268   6.339   0.397 -0.3364 -0.0807 -0.0012
 7922TIP3    H123730   0.188   6.388   0.415 -0.7459 -1.2024  1.5122
 7922TIP3    H223731   0.276   6.279   0.471  0.8990 -1.2957 -1.0555
 7923TIP3   OH223732   6.099   0.065   5.598 -0.1053 -0.4490 -0.3364
 7923TIP3    H123733   6.161   0.048   5.668  1.0853 -0.1863 -1.2908
 7923TIP3    H223734   6.056  -0.019   5.582  1.5798 -1.2116 -1.1127
 7924TIP3   OH223735   4.643   0.361   4.842  0.3100  0.1595 -0.1754
 7924TIP3    H123736   4.587   0.286   4.818  0.7196 -0.0100 -0.6197
 7924TIP3    H223737   4.629   0.424   4.771  1.5153 -0.3350 -0.8896
 7925TIP3   OH223738   1.032   1.287   4.278  0.0431 -0.1464 -0.2925
 7925TIP3    H123739   1.084   1.248   4.208 -2.6983  1.4717 -3.5170
 7925TIP3    H223740   0.967   1.220   4.300 -1.2434  0.5260 -1.8832
 7926TIP3   OH223741   4.065   5.641   0.043  0.1493 -0.5942 -0.3102
 7926TIP3    H123742   4.053   5.547   0.037  0.0563 -0.5864 -0.2501
 7926TIP3    H223743   3.979   5.675   0.069  0.6418 -0.6632  1.5584
 7927TIP3   OH223744   5.666   5.168   4.981  0.0887  0.0151 -0.1119
 7927TIP3    H123745   5.592   5.223   5.004 -0.7834 -1.7154  1.4891
 7927TIP3    H223746   5.733   5.189   5.046 -0.0204 -0.3336  0.1195
 7928TIP3   OH223747   1.349   5.119   3.702 -0.3437  0.2231 -0.7565
 7928TIP3    H123748   1.265   5.111   3.657 -0.2157  2.9054 -1.6500
 7928TIP3    H223749   1.404   5.168   3.641  1.2110  0.3348  0.6738
 7929TIP3   OH223750   2.212   3.265   2.280 -0.1710  0.3829 -0.3290
 7929TIP3    H123751   2.182   3.245   2.369  2.0675 -2.1205 -0.0065
 7929TIP3    H223752   2.273   3.338   2.291  0.9858 -0.6554  0.4371
 7930TIP3   OH223753   1.893   6.495   0.123  0.1484 -0.0248  0.0211
 7930TIP3    H123754   1.986   6.518   0.115  0.0894 -0.0997 -0.9781
 7930TIP3    H223755   1.867   6.531   0.208  0.4385  2.2805 -0.8095
 7931TIP3   OH223756   2.939   6.159   3.973 -0.5666 -0.3613 -0.0772
 7931TIP3    H123757   3.000   6.171   3.900  0.3098  0.0930  0.7034
 7931TIP3    H223758   2.928   6.246   4.011 -1.1337 -0.5649  0.2413
 7932TIP3   OH223759   3.200   3.187   1.880 -0.3523 -0.1727 -0.3872
 7932TIP3    H123760   3.110   3.216   1.896  0.1270  0.3951  1.4389
 7932TIP3    H223761   3.253   3.266   1.889  0.5370 -0.8419  0.5005
 7933TIP3   OH223762   5.725   5.925   2.603  0.2441  0.2012 -0.5160
 7933TIP3    H123763   5.816   5.933   2.573 -0.1444 -0.8924 -2.1017
 7933TIP3    H223764   5.730   5.875   2.684  1.2343  2.2813  0.8055
 7934TIP3   OH223765   2.894   5.461   5.388  0.4875  0.1467  0.0082
 7934TIP3    H123766   2.929   5.372   5.392 -0.3941 -0.3671 -1.9820
 7934TIP3    H223767   2.817   5.459   5.445  1.7325  0.3236  1.7514
 7935TIP3   OH223768   3.271   0.436   3.743  0.0216 -0.7198 -0.6167
 7935TIP3    H123769   3.316   0.475   3.818 -3.9398  0.8700  1.2124
 7935TIP3    H223770   3.264   0.343   3.766  0.4185 -0.5907  0.0867
 7936TIP3   OH223771   5.008   4.851   0.936 -0.7636 -0.0266  0.2331
 7936TIP3    H123772   5.088   4.877   0.982 -0.9809  0.8545  0.1400
 7936TIP3    H223773   4.953   4.812   1.003 -0.4081 -0.2834  0.3769
 7937TIP3   OH223774   2.649   2.641   4.428  0.2724  0.9368  0.0547
 7937TIP3    H123775   2.664   2.550   4.455  0.8190  1.4612  1.6687
 7937TIP3    H223776   2.617   2.634   4.338 -2.8998 -1.0478  1.1597
 7938TIP3   OH223777   5.247   0.209   2.829  0.2548  0.0760  0.3881
 7938TIP3    H123778   5.280   0.298   2.814  2.0460 -0.7700 -1.0848
 7938TIP3    H223779   5.152   0.216   2.819  0.5327  1.4158 -2.1802
 7939TIP3   OH223780   5.019   5.238   3.411  0.5506  0.0887  0.0146
 7939TIP3    H123781   5.095   5.276   3.367 -0.2981 -0.3950 -1.9977
 7939TIP3    H223782   5.051   5.157   3.449  1.4916  0.8992  1.0328
 7940TIP3   OH223783   5.844   3.412   5.669 -0.3497 -0.0339 -0.7212
 7940TIP3    H123784   5.766   3.362   5.694  0.2298 -0.3860  0.4543
 7940TIP3    H223785   5.917   3.354   5.692  0.2804  0.4397 -1.4724
 7941TIP3   OH223786   1.277   4.020   5.049 -0.2177 -0.0934  0.2474
 7941TIP3    H123787   1.361   4.042   5.009 -0.7558 -0.6214 -1.2938
 7941TIP3    H223788   1.283   3.926   5.066  0.5654  0.3821  2.9443
 7942TIP3   OH223789   5.599   2.249   4.807 -0.1494 -0.4287  0.0239
 7942TIP3    H123790   5.555   2.311   4.865  1.5433  0.3359  0.5641
 7942TIP3    H223791   5.667   2.209   4.862  1.1341 -0.0934 -1.2553
 7943TIP3   OH223792   1.969   5.903   2.549 -0.4493 -0.2111 -0.4958
 7943TIP3    H123793   2.062   5.906   2.568 -0.7441 -0.9954  1.2092
 7943TIP3    H223794   1.963   5.918   2.454  1.2719  1.5725 -0.3821
 7944TIP3   OH223795   2.519   1.817   5.701  0.2239 -0.2078 -0.1021
 7944TIP3    H123796   2.589   1.880   5.719  1.8460 -1.6080 -1.2101
 7944TIP3    H223797   2.438   1.864   5.722  1.3237  2.4180 -1.3219
 7945TIP3   OH223798   3.146   2.059   2.497 -0.0654 -0.4514  0.3037
 7945TIP3    H123799   3.054   2.085   2.505 -0.3529 -0.5867 -1.9171
 7945TIP3    H223800   3.143   1.974   2.454  1.1125  0.0797 -0.8636
 7946TIP3   OH223801   2.528   0.864   4.993 -0.3885  0.2193 -0.2723
 7946TIP3    H123802   2.492   0.933   4.938  0.0517 -0.4573 -1.4563
 7946TIP3    H223803   2.453   0.829   5.040 -0.7872  0.7770 -0.4847
 7947TIP3   OH223804   3.243   5.985   4.989 -0.4525 -0.2760 -0.0529
 7947TIP3    H123805   3.262   5.958   4.899 -2.7241 -0.4173 -0.5641
 7947TIP3    H223806   3.172   6.048   4.980  0.4380  1.0139  1.5727
 7948TIP3   OH223807   4.936   5.375   2.792 -0.3267 -0.3312  0.2609
 7948TIP3    H123808   4.906   5.305   2.850 -2.4342 -0.2670 -0.6719
 7948TIP3    H223809   4.858   5.429   2.777  0.8794  1.3362 -0.2921
 7949TIP3   OH223810   2.799   6.599   5.260  0.0409  0.1152 -0.3037
 7949TIP3    H123811   2.883   6.644   5.266  0.5222 -0.6221 -1.2590
 7949TIP3    H223812   2.801   6.536   5.332  0.7046 -0.5034 -0.8383
 7950TIP3   OH223813   0.424   6.078   3.772 -0.2607 -0.0955  0.0224
 7950TIP3    H123814   0.495   6.142   3.778 -0.0123  0.0715 -2.9404
 7950TIP3    H223815   0.449   6.009   3.833 -0.0571  2.1080  2.5884
 7951TIP3   OH223816   2.609   1.758   1.136  0.6046  0.3831 -0.4026
 7951TIP3    H123817   2.690   1.799   1.166  0.0912  0.8772  0.3631
 7951TIP3    H223818   2.578   1.815   1.066  1.4459 -0.3870 -1.4341
 7952TIP3   OH223819   3.704   4.696   1.861  0.2837  0.0957 -0.4778
 7952TIP3    H123820   3.775   4.635   1.883  0.0764  0.6035  1.8212
 7952TIP3    H223821   3.744   4.783   1.867  0.0011  0.2902 -1.3825
 7953TIP3   OH223822   2.669   5.595   5.559 -0.7188 -0.2474 -0.1544
 7953TIP3    H123823   2.662   5.598   5.654 -2.0330 -1.2210 -0.1976
 7953TIP3    H223824   2.625   5.514   5.533 -0.7237  0.1819 -1.6175
 7954TIP3   OH223825   5.411   6.256   0.237 -0.2542 -0.3400  0.0040
 7954TIP3    H123826   5.499   6.249   0.201  0.2190  0.5651  0.9271
 7954TIP3    H223827   5.353   6.247   0.162  0.7070  2.9653 -1.3379
 7955TIP3   OH223828   3.405   3.849   4.560 -0.4155  0.0680  0.4603
 7955TIP3    H123829   3.423   3.920   4.499  2.5145  0.1939  1.2875
 7955TIP3    H223830   3.347   3.888   4.626  0.9610  1.6941  0.7889
 7956TIP3   OH223831   1.593   4.449   5.714  0.2198 -0.2530  0.0500
 7956TIP3    H123832   1.662   4.513   5.733 -1.6280  1.4951  1.3741
 7956TIP3    H223833   1.628   4.397   5.642  3.2464 -0.0491  1.2121
 7957TIP3   OH223834   2.678   3.837   2.768  0.0562  0.3125  0.4477
 7957TIP3    H123835   2.727   3.900   2.822  0.2924 -0.5844  1.3065
 7957TIP3    H223836   2.589   3.839   2.804  0.1700 -0.1504  0.7723
 7958TIP3   OH223837   6.137   6.397   1.386 -0.2188 -0.0203  0.2518
 7958TIP3    H123838   6.209   6.426   1.441  0.5644  0.8762 -1.1717
 7958TIP3    H223839   6.176   6.385   1.299 -1.9858  1.6994 -0.8649
 7959TIP3   OH223840   5.459   5.752   2.305  0.5800  0.0011  0.1039
 7959TIP3    H123841   5.535   5.808   2.320  0.2759  0.3413  0.3812
 7959TIP3    H223842   5.419   5.787   2.226  0.9578 -0.4531 -0.2965
 7960TIP3   OH223843   0.909   4.852   0.466 -0.1375 -0.5154  0.5759
 7960TIP3    H123844   0.848   4.830   0.396  2.1614 -2.2218 -1.0505
 7960TIP3    H223845   0.941   4.939   0.443  2.1228 -1.8360 -1.8413
 7961TIP3   OH223846   1.036   4.066   1.138 -0.0552  0.4267  0.3506
 7961TIP3    H123847   0.958   4.065   1.193 -1.6413  0.7641 -1.8006
 7961TIP3    H223848   1.045   3.976   1.106 -1.3152  0.9829 -1.6972
 7962TIP3   OH223849   1.321   1.084   0.235 -0.1851 -0.0882 -0.0255
 7962TIP3    H123850   1.303   1.094   0.142  0.6576  1.9162 -0.0151
 7962TIP3    H223851   1.299   0.993   0.254 -1.4824 -0.2182 -1.9158
 7963TIP3   OH223852   1.457   2.614   3.037  0.4343 -0.2880 -0.1490
 7963TIP3    H123853   1.537   2.656   3.007  0.7466 -1.4979 -1.1054
 7963TIP3    H223854   1.461   2.618   3.133  0.2546  2.1342 -0.2002
 7964TIP3   OH223855   1.407   2.592   1.306 -0.2917  0.3584 -0.4821
 7964TIP3    H123856   1.405   2.498   1.285  1.1913  0.6626 -2.1240
 7964TIP3    H223857   1.460   2.597   1.386 -0.5009 -0.1920 -0.3001
 7965TIP3   OH223858   3.754   2.022   5.081  0.0573 -0.1020 -0.1183
 7965TIP3    H123859   3.735   2.087   5.014  0.7200 -0.7806 -0.9793
 7965TIP3    H223860   3.811   1.959   5.038 -2.2082 -2.4149  0.0239
 7966TIP3   OH223861   5.206   4.150   1.567  0.1786  0.1137 -0.6546
 7966TIP3    H123862   5.137   4.208   1.533  0.4621  0.9584  0.1627
 7966TIP3    H223863   5.160   4.092   1.627  0.0911  0.3352 -0.5038
 7967TIP3   OH223864   2.929   3.872   0.897  0.3979 -0.1705 -0.0402
 7967TIP3    H123865   2.846   3.831   0.875  1.4755 -2.8820  0.5372
 7967TIP3    H223866   2.939   3.858   0.991  1.7829 -0.5478 -0.2124
 7968TIP3   OH223867   0.451   3.373   2.224  0.3499 -0.1200 -0.2488
 7968TIP3    H123868   0.535   3.420   2.230 -0.2128  0.8372  0.3222
 7968TIP3    H223869   0.461   3.317   2.147  1.2903  0.4488 -0.5597
 7969TIP3   OH223870   3.045   6.694   5.345 -0.7261  0.1056  0.6071
 7969TIP3    H123871   3.102   6.627   5.309 -1.5199 -0.2769  0.0271
 7969TIP3    H223872   3.097   6.774   5.343 -0.6072  0.0055 -1.0005
 7970TIP3   OH223873   3.528   0.529   0.455 -0.0974 -0.1201  0.1122
 7970TIP3    H123874   3.558   0.619   0.460 -0.1034 -0.1122  0.0093
 7970TIP3    H223875   3.608   0.477   0.449 -0.1198 -0.0318 -1.2104
 7971TIP3   OH223876   6.503   0.604   2.922 -0.2494  0.4670 -0.2669
 7971TIP3    H123877   6.576   0.658   2.954  0.4234 -1.1608  1.1224
 7971TIP3    H223878   6.516   0.601   2.827  0.2035  1.9859 -0.2812
 7972TIP3   OH223879   3.142   3.318   3.332  0.1817  0.5118 -0.4603
 7972TIP3    H123880   3.185   3.289   3.413 -0.1444  1.8547  0.2292
 7972TIP3    H223881   3.097   3.240   3.300  1.0791 -0.2789  0.1460
 7973TIP3   OH223882   3.317   5.696   5.300  0.2492  0.4981 -0.2910
 7973TIP3    H123883   3.375   5.756   5.253  0.2875  0.6216 -0.0892
 7973TIP3    H223884   3.369   5.668   5.376 -0.2248  1.2119  0.3130
 7974TIP3   OH223885   2.799   0.951   2.294 -0.2492  0.0507 -0.3650
 7974TIP3    H123886   2.755   1.012   2.235  0.0656  0.8132  0.1690
 7974TIP3    H223887   2.832   1.006   2.365  0.6712 -0.6408 -0.2376
 7975TIP3   OH223888   4.267   0.881   3.671  0.1149 -1.1532  0.3854
 7975TIP3    H123889   4.220   0.964   3.665  1.1467 -0.6033 -0.4638
 7975TIP3    H223890   4.342   0.892   3.613 -0.5899 -3.2706 -1.0641
 7976TIP3   OH223891   3.328   2.101   4.529  0.3827 -0.4070  0.1678
 7976TIP3    H123892   3.360   2.175   4.582  0.8072 -0.9260  0.6492
 7976TIP3    H223893   3.242   2.130   4.498  1.2219  0.9467 -1.0105
 7977TIP3   OH223894   4.569   1.872   4.190 -0.4261  0.4313  0.2292
 7977TIP3    H123895   4.641   1.879   4.252 -3.0528  0.9367  3.5183
 7977TIP3    H223896   4.571   1.780   4.162 -0.3893 -0.4298  2.8339
 7978TIP3   OH223897   1.208   5.889   0.653 -0.0099 -0.0894 -0.1748
 7978TIP3    H123898   1.226   5.957   0.717  0.9029 -0.2321 -0.2531
 7978TIP3    H223899   1.294   5.851   0.634 -0.6469 -2.2560  0.9768
 7979TIP3   OH223900   0.600   1.204   3.525  0.8402  0.3240  0.3420
 7979TIP3    H123901   0.637   1.122   3.495  0.0362  0.5568 -1.4232
 7979TIP3    H223902   0.587   1.192   3.619  0.4662 -1.6658  0.0777
 7980TIP3   OH223903   5.839   0.078   0.641  0.3734  0.4651 -0.4667
 7980TIP3    H123904   5.784   0.110   0.569 -1.8703 -1.4221  0.2870
 7980TIP3    H223905   5.846  -0.016   0.626  1.9900  0.4045  0.4432
 7981TIP3   OH223906   6.320   4.967   2.461  0.2901 -0.2431  0.3949
 7981TIP3    H123907   6.359   5.054   2.450 -2.2659  1.0714  1.0394
 7981TIP3    H223908   6.289   4.966   2.552  0.6041 -2.0012  0.5232
 7982TIP3   OH223909   0.209   6.701   3.066 -0.1373 -0.1813 -0.3550
 7982TIP3    H123910   0.175   6.754   3.138  1.1069 -0.0443  0.1704
 7982TIP3    H223911   0.163   6.731   2.989 -0.1549  0.9840  0.1005
 7983TIP3   OH223912   5.739   2.799   5.678 -0.3751  0.3207 -0.2871
 7983TIP3    H123913   5.671   2.741   5.711  0.9121 -0.5962  0.8684
 7983TIP3    H223914   5.817   2.776   5.728  0.3748  2.5505 -0.2971
 7984TIP3   OH223915   1.534   6.419   4.148 -0.0755 -0.1955  0.1731
 7984TIP3    H123916   1.453   6.372   4.129  0.5912 -0.7337 -1.5463
 7984TIP3    H223917   1.592   6.397   4.075  2.2462 -1.2377  2.2003
 7985TIP3   OH223918   0.725   0.509   1.618 -0.2695 -0.3266 -0.3303
 7985TIP3    H123919   0.645   0.456   1.622 -0.8484  0.5964  2.1998
 7985TIP3    H223920   0.701   0.584   1.564 -0.5888 -0.8241 -0.9024
 7986TIP3   OH223921   6.627   6.154   0.513  0.2131 -1.1965  0.3680
 7986TIP3    H123922   6.608   6.220   0.446 -0.1974 -0.2734  1.3644
 7986TIP3    H223923   6.553   6.160   0.574 -1.3496 -4.5646 -0.9560
 7987TIP3   OH223924   5.397   3.472   1.540 -0.3925  0.2753 -0.2597
 7987TIP3    H123925   5.473   3.522   1.571  0.8614 -1.1024 -0.9396
 7987TIP3    H223926   5.373   3.417   1.615 -0.4200  0.3724 -0.1965
 7988TIP3   OH223927   1.359   0.814   5.132  0.3317  0.4267  0.3713
 7988TIP3    H123928   1.454   0.804   5.132  0.3165 -1.1809 -3.2686
 7988TIP3    H223929   1.344   0.905   5.105  0.8905  0.2651 -0.5289
 7989TIP3   OH223930   3.159   0.355   4.456 -0.2173 -0.1635 -0.4637
 7989TIP3    H123931   3.171   0.312   4.541 -1.4436 -1.2336 -0.8142
 7989TIP3    H223932   3.242   0.400   4.441  0.7315 -1.5243  0.4278
 7990TIP3   OH223933   6.402   2.011   5.493 -0.3435  0.8111  0.1155
 7990TIP3    H123934   6.340   1.944   5.467  0.2160 -0.7722  2.4979
 7990TIP3    H223935   6.485   1.984   5.454 -0.6233  1.6641 -1.1479
 7991TIP3   OH223936   6.947   3.127   3.823  0.1402 -0.4660 -0.4791
 7991TIP3    H123937   6.930   3.202   3.767 -0.2959 -1.1869 -1.3382
 7991TIP3    H223938   6.867   3.118   3.876  0.5120  0.1529  0.1965
 7992TIP3   OH223939   2.082   6.640   1.992 -0.0952  0.1786 -0.3169
 7992TIP3    H123940   2.032   6.562   2.012  2.3633 -1.6960 -0.9373
 7992TIP3    H223941   2.165   6.607   1.958  1.0947  3.0750 -0.5306
 7993TIP3   OH223942   2.742   1.739   4.961  0.2837  0.2537  0.4374
 7993TIP3    H123943   2.816   1.695   5.003  0.4823 -0.6485 -0.7971
 7993TIP3    H223944   2.771   1.753   4.871 -0.7926  0.5204  0.1251
 7994TIP3   OH223945   6.669   4.899   0.858 -0.0977 -0.0330  0.1038
 7994TIP3    H123946   6.755   4.937   0.837  1.2292 -1.8515  1.8262
 7994TIP3    H223947   6.612   4.975   0.872  1.1104  1.2256 -1.3662
 7995TIP3   OH223948   3.521   2.884   0.050 -0.2436  0.4331 -0.3127
 7995TIP3    H123949   3.432   2.852   0.065 -0.6880  1.6581 -0.1818
 7995TIP3    H223950   3.559   2.891   0.138  2.1473 -5.5382 -0.3881
 7996TIP3   OH223951   4.126   1.344   1.027 -0.8677 -0.1324 -0.0643
 7996TIP3    H123952   4.110   1.338   1.121 -0.3903 -0.6030 -0.0089
 7996TIP3    H223953   4.184   1.270   1.008  1.5272  1.6817 -0.2113
 7997TIP3   OH223954   3.254   5.888   0.474 -0.3357 -0.1164  0.0177
 7997TIP3    H123955   3.200   5.873   0.552  1.0427  1.3273  1.3150
 7997TIP3    H223956   3.302   5.806   0.463 -1.0796 -0.5946  0.2364
 7998TIP3   OH223957   5.880   2.582   2.573 -0.3924 -0.0813 -0.5098
 7998TIP3    H123958   5.928   2.603   2.652 -0.9927 -1.2437  0.1955
 7998TIP3    H223959   5.948   2.565   2.507  0.1001  1.2852 -0.3747
 7999TIP3   OH223960   4.766   2.799   1.879  0.7805  0.9309 -0.2929
 7999TIP3    H123961   4.757   2.856   1.955  3.0754 -0.4752  1.1577
 7999TIP3    H223962   4.734   2.714   1.909  0.8074  0.5736 -1.2369
 8000TIP3   OH223963   6.693   5.493   1.739 -0.1087  0.2006 -0.5400
 8000TIP3    H123964   6.770   5.489   1.682  0.6270  0.0147  0.4237
 8000TIP3    H223965   6.621   5.460   1.685  0.7548 -0.9249 -1.0483
 8001TIP3   OH223966   1.147   5.753   5.505 -0.8678 -0.0292 -0.1016
 8001TIP3    H123967   1.108   5.785   5.586 -0.9536  1.0427 -0.5414
 8001TIP3    H223968   1.097   5.797   5.436 -0.4966 -0.5666 -0.7201
 8002TIP3   OH223969   1.015   4.867   1.677  0.0202 -0.0793 -0.2290
 8002TIP3    H123970   0.967   4.790   1.706 -1.2440  0.5455 -0.5785
 8002TIP3    H223971   1.086   4.877   1.741 -0.1994 -1.1396  0.1934
 8003TIP3   OH223972   3.164   5.433   1.172  0.0940  0.2524  0.1523
 8003TIP3    H123973   3.138   5.520   1.140 -1.2422  0.0247  0.5246
 8003TIP3    H223974   3.244   5.448   1.221  1.3619  0.8412 -1.9813
 8004TIP3   OH223975   2.497   5.860   5.284 -0.7673 -0.2812  0.7843
 8004TIP3    H123976   2.465   5.804   5.355  1.0403 -0.8902  1.1865
 8004TIP3    H223977   2.497   5.803   5.207  1.9992 -1.2784  1.3898
 8005TIP3   OH223978   5.430   5.199   0.229 -0.4763  0.3642 -0.2879
 8005TIP3    H123979   5.365   5.228   0.292  0.0138  1.6697 -0.3536
 8005TIP3    H223980   5.402   5.238   0.146 -0.9092 -1.0273 -0.8283
 8006TIP3   OH223981   7.113   4.881   4.442 -0.0147 -0.4520 -0.0263
 8006TIP3    H123982   7.062   4.849   4.516 -0.1123  0.3568  0.2712
 8006TIP3    H223983   7.106   4.812   4.376 -0.0103 -1.1327  0.6773
 8007TIP3   OH223984   5.505   4.557   2.908 -0.1775 -0.0864  0.0328
 8007TIP3    H123985   5.422   4.514   2.889  1.3280 -2.1738 -2.5891
 8007TIP3    H223986   5.507   4.633   2.850  0.0938 -0.5436 -0.5631
 8008TIP3   OH223987   5.468   0.946   0.396 -0.1086 -0.0579  0.0069
 8008TIP3    H123988   5.504   1.029   0.427 -0.5285  0.3037 -0.4735
 8008TIP3    H223989   5.406   0.970   0.327  0.8714 -0.8452 -1.1892
 8009TIP3   OH223990   1.213   5.049   1.266  0.5335  0.6712  0.3074
 8009TIP3    H123991   1.165   5.108   1.209  0.3818  1.2906  1.0573
 8009TIP3    H223992   1.172   5.059   1.352 -1.6345 -2.9073 -0.1062
 8010TIP3   OH223993   2.861   2.259   1.119 -0.2092 -0.1542  0.4017
 8010TIP3    H123994   2.830   2.220   1.201 -2.8303  1.3854  0.2436
 8010TIP3    H223995   2.893   2.345   1.144  0.9130 -0.4536  0.0538
 8011TIP3   OH223996   6.462   0.084   4.465 -0.2929 -0.0210 -0.0191
 8011TIP3    H123997   6.556   0.095   4.473 -0.1151 -2.0327  1.3371
 8011TIP3    H223998   6.425   0.156   4.517  0.4270  1.1813 -1.1067
 8012TIP3   OH223999   2.690   2.265   1.390 -0.0391 -0.1182 -0.4181
 8012TIP3    H124000   2.715   2.356   1.376  0.0921 -0.0614  0.1402
 8012TIP3    H224001   2.767   2.224   1.429 -0.3494 -0.2707  0.0559
 8013TIP3   OH224002   6.434   4.267   2.059  0.1403 -0.3374  0.0348
 8013TIP3    H124003   6.376   4.332   2.098 -1.5699 -0.6875 -1.7488
 8013TIP3    H224004   6.497   4.247   2.127 -2.5284 -0.8103  2.5668
 8014TIP3   OH224005   2.159   1.943   1.904 -0.0106  0.0151 -0.2303
 8014TIP3    H124006   2.176   1.866   1.959  2.3330  1.2154  0.9056
 8014TIP3    H224007   2.144   1.908   1.817 -2.4146 -1.8862  0.8415
 8015TIP3   OH224008   3.013   4.899   5.198 -0.2857  0.4888 -0.1701
 8015TIP3    H124009   3.021   4.803   5.199 -0.2635  0.4888  0.7551
 8015TIP3    H224010   2.943   4.916   5.136 -0.8972 -0.1886  0.3135
 8016TIP3   OH224011  -0.005   6.263   3.356 -0.2712 -0.1607  0.1694
 8016TIP3    H124012   0.061   6.323   3.391 -0.3877  0.0691  0.0001
 8016TIP3    H224013   0.042   6.211   3.291 -0.2862  0.0909 -0.0439
 8017TIP3   OH224014   2.432   6.312   0.085  0.4758 -0.1393 -0.2438
 8017TIP3    H124015   2.368   6.299   0.015 -0.3762  0.1298  0.4660
 8017TIP3    H224016   2.470   6.398   0.067  0.2283 -0.0508 -0.3584
 8018TIP3   OH224017   5.099   4.401   5.180  0.2420  0.0918  0.2199
 8018TIP3    H124018   5.036   4.338   5.147  1.7151  0.2516 -3.3542
 8018TIP3    H224019   5.055   4.485   5.173 -0.8508 -0.2024  2.6587
 8019TIP3   OH224020   0.211   0.180   2.132  0.1526  0.0208  0.4690
 8019TIP3    H124021   0.139   0.142   2.182  0.7207 -0.1235  1.1905
 8019TIP3    H224022   0.210   0.133   2.049 -0.4613 -0.1161  0.5485
 8020TIP3   OH224023   2.637   4.914   4.805 -0.7090 -0.2243  0.4003
 8020TIP3    H124024   2.614   4.921   4.712 -0.9353 -0.2614  0.4531
 8020TIP3    H224025   2.683   4.830   4.812  0.9911  0.6240 -0.0216
 8021TIP3   OH224026   2.307   6.283   1.840 -0.2791  0.7800  0.0652
 8021TIP3    H124027   2.220   6.246   1.823  0.0954  0.2582 -0.7914
 8021TIP3    H224028   2.318   6.350   1.773  0.1869  0.4738 -0.1707
 8022TIP3   OH224029   0.840   0.614   2.955  0.4642 -0.2360 -0.1675
 8022TIP3    H124030   0.841   0.537   2.898 -0.6487 -1.2271  1.0794
 8022TIP3    H224031   0.748   0.625   2.977  0.7582  0.7409  0.6204
 8023TIP3   OH224032   5.321   4.508   2.293 -0.6137  0.0302  0.2386
 8023TIP3    H124033   5.349   4.421   2.265 -0.8106 -0.3448  1.1726
 8023TIP3    H224034   5.241   4.524   2.243  1.1501  1.1098 -2.4337
 8024TIP3   OH224035   0.180   4.230   0.338 -0.8866  0.2099 -0.4548
 8024TIP3    H124036   0.101   4.256   0.385 -0.6915  3.0238 -1.5027
 8024TIP3    H224037   0.161   4.251   0.246  0.9663  0.6739 -0.7618
 8025TIP3   OH224038   5.683   5.879   1.455 -0.3469  0.2108 -0.4739
 8025TIP3    H124039   5.709   5.948   1.516 -2.1664 -0.1841  0.8160
 8025TIP3    H224040   5.763   5.827   1.442  0.1154  0.3706  1.4847
 8026TIP3   OH224041   5.351   6.527   0.315 -0.1162  0.0805  0.1674
 8026TIP3    H124042   5.381   6.438   0.296  1.5061 -0.0816  2.8582
 8026TIP3    H224043   5.274   6.539   0.260  0.0288 -2.7060 -0.8132
 8027TIP3   OH224044   2.021   4.339   3.202  0.2576  0.9546  0.3932
 8027TIP3    H124045   1.962   4.399   3.247 -1.3588 -1.3183  1.5209
 8027TIP3    H224046   2.035   4.267   3.263  1.7825 -0.0370 -1.0141
 8028TIP3   OH224047   6.761   6.294   3.477 -0.1590  0.3870  0.1208
 8028TIP3    H124048   6.806   6.377   3.458  1.0130 -0.1192  0.5708
 8028TIP3    H224049   6.798   6.232   3.414  1.2050 -0.4807  1.7086
 8029TIP3   OH224050   4.125   6.676   4.302  0.0311 -0.3025  0.5543
 8029TIP3    H124051   4.106   6.755   4.354 -1.0814 -0.3531  0.2634
 8029TIP3    H224052   4.061   6.680   4.230  1.1822 -0.5151 -0.5126
 8030TIP3   OH224053   3.791   6.469   5.572 -0.7380  0.0050  0.2964
 8030TIP3    H124054   3.804   6.494   5.480 -1.2018 -0.3505  0.1293
 8030TIP3    H224055   3.747   6.545   5.611 -0.0049  0.4004  0.3797
 8031TIP3   OH224056   4.176   2.026   2.209  0.0892 -0.1474 -0.2514
 8031TIP3    H124057   4.132   2.031   2.294  1.1631 -0.6897  0.3489
 8031TIP3    H224058   4.175   2.116   2.177 -0.8801 -0.0389  0.0372
 8032TIP3   OH224059   6.705   2.679   3.987 -0.4478  0.0789  0.0390
 8032TIP3    H124060   6.616   2.645   3.998 -0.4541 -0.0283 -0.3196
 8032TIP3    H224061   6.741   2.682   4.076 -0.5104 -0.7051  0.0972
 8033TIP3   OH224062   0.431   2.127   4.322 -0.5738  0.3435  0.5060
 8033TIP3    H124063   0.416   2.132   4.227 -1.5650 -1.5038  0.5358
 8033TIP3    H224064   0.523   2.101   4.330 -0.4452  0.6463  0.0652
 8034TIP3   OH224065   1.445   0.568   1.467 -0.4207  0.7197  0.2625
 8034TIP3    H124066   1.532   0.579   1.428 -0.3665  2.7484  0.8135
 8034TIP3    H224067   1.385   0.603   1.401 -0.7245  0.2762  0.3036
 8035TIP3   OH224068   5.593   1.207   0.132 -0.3769 -0.3009 -0.4868
 8035TIP3    H124069   5.603   1.262   0.210  0.8297 -0.4868 -0.4754
 8035TIP3    H224070   5.501   1.215   0.107 -0.1569  2.0071 -0.7260
 8036TIP3   OH224071   6.450   1.319   2.524  0.3138 -0.1658 -0.6569
 8036TIP3    H124072   6.498   1.301   2.443  0.1365 -0.6088 -0.6652
 8036TIP3    H224073   6.501   1.388   2.567  1.7546 -1.5873  0.0078
 8037TIP3   OH224074   1.535   2.182   4.958  0.5736  0.6746 -0.6032
 8037TIP3    H124075   1.558   2.186   5.051 -0.7603 -2.5864 -0.0245
 8037TIP3    H224076   1.442   2.205   4.956  0.2999 -0.4176 -0.9411
 8038TIP3   OH224077   5.902   6.327   3.286 -0.1415 -0.0886 -0.0220
 8038TIP3    H124078   5.809   6.337   3.265  0.3030  2.8764 -1.0480
 8038TIP3    H224079   5.907   6.330   3.381 -1.1969 -2.2929  0.1665
 8039TIP3   OH224080   2.648   4.729   2.244  0.0348  0.4318 -0.6512
 8039TIP3    H124081   2.651   4.813   2.199 -2.0451  1.5958  1.1730
 8039TIP3    H224082   2.558   4.722   2.276 -0.1615 -2.9510 -1.4889
 8040TIP3   OH224083   4.413   3.000   4.151  0.4261 -0.4666  0.5104
 8040TIP3    H124084   4.475   2.965   4.216  0.1003  0.2172  1.2145
 8040TIP3    H224085   4.466   3.055   4.094  0.9018 -1.9097 -0.4702
 8041TIP3   OH224086   6.388   2.651   5.469 -0.0274  0.3141  0.1681
 8041TIP3    H124087   6.456   2.585   5.454 -0.3852 -0.6926  2.5452
 8041TIP3    H224088   6.422   2.730   5.427  1.7766 -0.6199 -0.2556
 8042TIP3   OH224089   3.691   1.911   4.345 -0.5650  0.4035  0.3018
 8042TIP3    H124090   3.722   1.873   4.427  1.4219 -0.3911 -0.7376
 8042TIP3    H224091   3.619   1.854   4.318 -2.0789  1.3781  2.0123
 8043TIP3   OH224092   0.522   4.367   4.481  0.6275  0.4944 -0.0981
 8043TIP3    H124093   0.615   4.365   4.507  0.9195  1.9417 -0.9292
 8043TIP3    H224094   0.507   4.282   4.440  1.6774  0.3608 -0.2372
 8044TIP3   OH224095   2.143   6.494   0.232  0.3832 -0.0202  0.2662
 8044TIP3    H124096   2.206   6.556   0.195  0.6965 -0.6493 -0.2502
 8044TIP3    H224097   2.110   6.539   0.310  0.1999  1.0344 -0.3926
 8045TIP3   OH224098   1.613   3.724   4.758  0.4398  0.0444 -0.3280
 8045TIP3    H124099   1.585   3.678   4.838  2.3346 -1.9149 -0.7054
 8045TIP3    H224100   1.699   3.759   4.778  0.9150 -0.4100 -1.4695
 8046TIP3   OH224101   6.264   1.103   3.081  0.6529 -0.0929  0.9507
 8046TIP3    H124102   6.320   1.150   3.142  2.2045 -0.2889 -0.2713
 8046TIP3    H224103   6.320   1.034   3.045 -1.0764 -1.8494  1.4565
 8047TIP3   OH224104   1.021   6.664   3.452  0.2912 -0.5941 -0.7016
 8047TIP3    H124105   1.004   6.757   3.433 -0.8726 -0.2047  1.7804
 8047TIP3    H224106   1.062   6.665   3.539 -0.4376 -2.4384 -0.2926
 8048TIP3   OH224107   0.466   1.170   5.230  0.2091 -0.2642 -0.0570
 8048TIP3    H124108   0.512   1.234   5.176  1.2830 -0.0458  1.0656
 8048TIP3    H224109   0.532   1.140   5.293 -0.6921 -1.3394  0.4067
 8049TIP3   OH224110   5.541   4.513   5.623 -0.0036 -0.3362  0.0342
 8049TIP3    H124111   5.602   4.585   5.639  0.1457 -0.1944 -1.0957
 8049TIP3    H224112   5.596   4.440   5.595 -0.3162 -0.2827 -0.7507
 8050TIP3   OH224113   0.054   0.073   2.372  0.0931 -0.0463 -0.0462
 8050TIP3    H124114   0.143   0.066   2.406  0.3343  0.2871 -0.6083
 8050TIP3    H224115   0.025   0.160   2.398 -0.8278 -0.8783  1.9223
 8051TIP3   OH224116   2.511   5.339   3.254  0.1723 -0.2429  0.1481
 8051TIP3    H124117   2.583   5.326   3.316  1.2332 -1.0256 -1.1949
 8051TIP3    H224118   2.526   5.274   3.186 -1.8196 -0.4122 -0.1852
 8052TIP3   OH224119   4.768   4.992   3.866  0.0529 -0.1016  0.3170
 8052TIP3    H124120   4.861   5.007   3.848  0.3821 -0.6567  1.4611
 8052TIP3    H224121   4.722   5.044   3.800  1.1649 -0.7662 -1.0251
 8053TIP3   OH224122   0.297   4.163   2.952 -0.0793 -0.4521  0.5734
 8053TIP3    H124123   0.241   4.198   3.021  1.1798  0.9457  0.9436
 8053TIP3    H224124   0.244   4.168   2.873 -0.9314 -0.4128  1.1325
 8054TIP3   OH224125   5.547   6.304   3.473 -0.2577  0.0474  0.1818
 8054TIP3    H124126   5.579   6.383   3.517  1.5360 -1.6130  2.1402
 8054TIP3    H224127   5.462   6.287   3.512 -0.8569  1.2231 -0.5804
 8055TIP3   OH224128   2.234   5.550   0.726 -0.0681  0.3917  0.2608
 8055TIP3    H124129   2.254   5.616   0.660 -1.7974 -1.1467 -1.9765
 8055TIP3    H224130   2.139   5.542   0.725  0.0642 -2.6412 -0.2461
 8056TIP3   OH224131   1.402   2.475   0.467  0.6091 -0.2443 -0.3698
 8056TIP3    H124132   1.422   2.502   0.378  0.7183  0.1655 -0.2236
 8056TIP3    H224133   1.306   2.473   0.471  0.5874  0.7091 -0.2135
 8057TIP3   OH224134   3.173   5.242   0.361 -0.4291  0.0917 -0.6824
 8057TIP3    H124135   3.096   5.185   0.357 -0.1843 -0.4832  1.3750
 8057TIP3    H224136   3.142   5.326   0.326 -2.0092 -0.1296  0.0725
 8058TIP3   OH224137   6.839   5.856   4.183  0.4910  0.2884 -0.3169
 8058TIP3    H124138   6.844   5.762   4.199  0.5884  0.3552  0.0611
 8058TIP3    H224139   6.869   5.896   4.265 -2.5730  0.6999  0.7302
 8059TIP3   OH224140   1.774   1.095   3.610 -0.1927 -0.7991 -0.0455
 8059TIP3    H124141   1.845   1.030   3.615 -0.6190 -1.3587 -0.9640
 8059TIP3    H224142   1.700   1.047   3.571 -0.7645  0.0305 -0.0074
 8060TIP3   OH224143   1.054   3.459   2.623 -0.2727 -0.7725 -0.1969
 8060TIP3    H124144   0.982   3.481   2.682 -0.3356 -1.0186 -0.1846
 8060TIP3    H224145   1.104   3.541   2.616  0.9965 -1.3021  1.9356
 8061TIP3   OH224146   2.171   3.607   1.145 -0.7827 -0.0505 -0.3944
 8061TIP3    H124147   2.177   3.616   1.240 -0.5264 -0.3504 -0.3795
 8061TIP3    H224148   2.078   3.621   1.125 -1.5770 -3.4258  0.3155
 8062TIP3   OH224149   7.079   4.482   1.997  0.1127 -0.3158 -0.5958
 8062TIP3    H124150   7.051   4.451   2.083 -0.3442 -1.5532 -1.1620
 8062TIP3    H224151   7.022   4.557   1.979 -0.0563 -0.2930  0.0002
 8063TIP3   OH224152   1.342   3.200   0.483  0.4831  0.1477 -0.2425
 8063TIP3    H124153   1.323   3.214   0.390 -0.7168  1.8697  0.2107
 8063TIP3    H224154   1.381   3.283   0.511  2.6534 -1.0148  0.3961
 8064TIP3   OH224155   1.138   1.918   1.495 -0.4140 -1.0972 -0.8927
 8064TIP3    H124156   1.094   1.847   1.542 -1.1354 -0.0954 -0.0189
 8064TIP3    H224157   1.217   1.877   1.458 -0.7895 -2.3357 -0.3679
 8065TIP3   OH224158   4.887   4.623   1.774 -0.1521 -0.1195 -0.0501
 8065TIP3    H124159   4.867   4.711   1.742  0.7938 -0.0066 -0.3613
 8065TIP3    H224160   4.882   4.630   1.869 -1.2049 -0.0120 -0.1056
 8066TIP3   OH224161   2.046   5.029   3.931  0.0140  0.8820 -0.3525
 8066TIP3    H124162   1.968   5.033   3.985  0.0120  0.0217 -0.2822
 8066TIP3    H224163   2.107   4.975   3.980 -0.1989 -0.4062 -1.4475
 8067TIP3   OH224164   1.216   1.858   2.454  0.0403  0.2758  0.3065
 8067TIP3    H124165   1.252   1.886   2.370  0.2109 -1.0247 -0.0730
 8067TIP3    H224166   1.139   1.914   2.467  1.5136  2.3239  0.5982
 8068TIP3   OH224167   6.718   1.657   0.093  0.2593 -0.3308 -0.1539
 8068TIP3    H124168   6.793   1.625   0.143  0.3436 -0.6766 -0.4993
 8068TIP3    H224169   6.648   1.594   0.111  0.0018  0.0628  0.2740
 8069TIP3   OH224170   0.765   6.532   4.811 -0.0240 -0.4973 -0.0328
 8069TIP3    H124171   0.687   6.476   4.808 -1.0062  0.8799 -1.0290
 8069TIP3    H224172   0.813   6.501   4.888 -2.8581  0.3025  2.2249
 8070TIP3   OH224173   0.282   4.900   1.989 -0.3923  0.3532  0.1581
 8070TIP3    H124174   0.368   4.934   1.968  0.5593 -2.1354 -0.3775
 8070TIP3    H224175   0.221   4.970   1.966  1.4013  1.7238 -0.5822
 8071TIP3   OH224176   0.075   4.941   2.645 -0.0724 -0.2972  0.0988
 8071TIP3    H124177   0.009   4.916   2.579 -0.5883 -1.3438  0.9741
 8071TIP3    H224178   0.106   4.857   2.680 -0.0645  0.2398  1.4310
 8072TIP3   OH224179   1.745   5.233   2.781 -0.1157  0.0174 -0.1092
 8072TIP3    H124180   1.722   5.308   2.836  0.1199  0.8332 -1.0936
 8072TIP3    H224181   1.832   5.208   2.809 -0.3901 -0.1989  0.5554
 8073TIP3   OH224182   6.703   5.705   0.599 -0.5884  0.2114  0.6516
 8073TIP3    H124183   6.702   5.709   0.503 -0.3000 -0.2699  0.6228
 8073TIP3    H224184   6.729   5.793   0.627 -2.4908  0.8954  0.3537
 8074TIP3   OH224185   1.166   3.583   0.034  0.3498 -0.0524  0.1473
 8074TIP3    H124186   1.105   3.640  -0.013  1.1689 -0.0424 -0.9321
 8074TIP3    H224187   1.112   3.510   0.064 -0.8682  1.5258  2.1230
 8075TIP3   OH224188   4.100   6.579   2.633  0.6411 -0.5277  0.5448
 8075TIP3    H124189   4.082   6.630   2.554 -0.6998 -0.7092  0.7130
 8075TIP3    H224190   4.162   6.513   2.605 -0.1101 -0.8288 -0.4650
 8076TIP3   OH224191   6.487   2.918   4.773  0.5909  0.0481  0.2673
 8076TIP3    H124192   6.433   2.918   4.694  2.0342  0.7465 -0.7807
 8076TIP3    H224193   6.501   3.011   4.793 -0.3978 -0.1020  1.8492
 8077TIP3   OH224194   4.361   2.555   1.352  0.1113  0.0151  0.2626
 8077TIP3    H124195   4.316   2.640   1.352 -0.1709 -0.1325  0.4495
 8077TIP3    H224196   4.361   2.528   1.444 -0.9145 -0.7715  0.0427
 8078TIP3   OH224197   1.042   1.209   3.175  0.0075  0.4695 -0.1940
 8078TIP3    H124198   1.075   1.142   3.116 -0.0587 -0.8299  1.1786
 8078TIP3    H224199   1.083   1.290   3.145  2.3414 -0.6266 -0.1878
 8079TIP3   OH224200   3.879   0.981   2.832 -0.5595  0.2797 -0.6479
 8079TIP3    H124201   3.815   0.909   2.830 -0.4889  0.1771  0.1762
 8079TIP3    H224202   3.946   0.956   2.769 -1.1275  0.1963 -1.2372
 8080TIP3   OH224203   5.155   6.335   0.615  0.0092 -0.2608 -0.1310
 8080TIP3    H124204   5.109   6.387   0.550  0.9872  0.6802 -0.1055
 8080TIP3    H224205   5.192   6.261   0.566  2.2658  1.3824 -1.0653
 8081TIP3   OH224206   0.998   4.469   2.437  0.5123  0.1296  0.6953
 8081TIP3    H124207   0.959   4.557   2.437  0.1399  0.0273 -1.7184
 8081TIP3    H224208   1.049   4.466   2.356  1.0363 -1.6791  1.0566
 8082TIP3   OH224209   2.641   2.301   0.336 -0.3750 -0.5468 -0.3889
 8082TIP3    H124210   2.671   2.218   0.298  0.8462  0.1611 -1.0266
 8082TIP3    H224211   2.654   2.290   0.430 -1.1320 -1.4176 -0.3670
 8083TIP3   OH224212   6.039   2.285   1.551  0.5999 -0.0341  0.1082
 8083TIP3    H124213   5.965   2.229   1.527  1.9239 -1.5014 -0.7436
 8083TIP3    H224214   6.019   2.369   1.511  0.2442 -0.9350 -1.7233
 8084TIP3   OH224215   6.704   0.504   3.369  0.0894  0.0231 -1.0520
 8084TIP3    H124216   6.764   0.555   3.315  0.2820  1.2468  0.2846
 8084TIP3    H224217   6.761   0.443   3.416  0.0990  0.0297 -1.0548
 8085TIP3   OH224218   6.288   0.800   3.743  0.7339  0.4621  0.4039
 8085TIP3    H124219   6.370   0.836   3.710  0.2311  0.2064 -1.2376
 8085TIP3    H224220   6.237   0.782   3.664 -0.9277  0.6749  1.3804
 8086TIP3   OH224221   5.253   4.174   2.325 -0.3999 -0.0274  0.3399
 8086TIP3    H124222   5.198   4.180   2.247 -0.9432 -0.9830  0.6368
 8086TIP3    H224223   5.210   4.109   2.380 -0.1411  0.7693  1.5362
 8087TIP3   OH224224   1.047   2.041   3.972  0.1607  0.3554 -0.1205
 8087TIP3    H124225   1.019   1.958   4.010 -2.5486  2.0464  1.9604
 8087TIP3    H224226   1.142   2.040   3.979  0.1745 -2.2668  0.4192
 8088TIP3   OH224227   5.690   1.543   0.902 -0.8628  0.3251  0.4595
 8088TIP3    H124228   5.639   1.614   0.941 -0.9675  0.6347 -0.2265
 8088TIP3    H224229   5.766   1.587   0.863 -0.3138 -0.0793  1.0605
 8089TIP3   OH224230   7.024   3.445   1.743  0.0115 -0.1077 -0.3780
 8089TIP3    H124231   7.049   3.353   1.741 -0.2579 -0.1772 -1.7757
 8089TIP3    H224232   7.058   3.480   1.660  0.0046  1.0201  0.0788
 8090TIP3   OH224233   6.329   2.836   1.541  0.0792 -0.5074 -0.1910
 8090TIP3    H124234   6.319   2.836   1.636  1.3343  0.6119 -0.0275
 8090TIP3    H224235   6.243   2.813   1.508 -0.4154 -0.7674  1.2147
 8091TIP3   OH224236   7.192   2.450   4.293 -0.8356  0.2994 -0.1702
 8091TIP3    H124237   7.202   2.493   4.209  0.1893  0.6425  0.1094
 8091TIP3    H224238   7.173   2.521   4.355 -0.4252  0.1996  0.0753
 8092TIP3   OH224239   5.157   3.755   5.144  0.0585 -0.8743 -0.2864
 8092TIP3    H124240   5.228   3.742   5.081  1.2925  0.4057  0.7831
 8092TIP3    H224241   5.090   3.692   5.118  1.2627 -1.5902 -1.7904
 8093TIP3   OH224242   3.931   1.082   3.085 -0.3065  0.2312  0.4004
 8093TIP3    H124243   3.871   1.045   3.149 -1.5347  1.4284 -0.0161
 8093TIP3    H224244   3.934   1.017   3.014 -1.0904  0.1514  0.4380
 8094TIP3   OH224245   3.552   1.165   0.942 -0.2836  0.2812  0.1225
 8094TIP3    H124246   3.459   1.184   0.950 -0.1870  0.1448  2.0196
 8094TIP3    H224247   3.590   1.192   1.025  1.2053 -0.6207 -0.2156
 8095TIP3   OH224248   0.585   2.451   0.882  0.0620 -0.1802  0.3983
 8095TIP3    H124249   0.652   2.507   0.842 -0.2190 -0.0764  0.0594
 8095TIP3    H224250   0.538   2.509   0.942 -0.7668  0.1792 -0.5694
 8096TIP3   OH224251   1.595   3.937   3.756 -0.1206 -0.0449 -0.2939
 8096TIP3    H124252   1.514   3.959   3.710  0.2878  0.0878 -0.9660
 8096TIP3    H224253   1.586   3.978   3.842 -0.5004  0.5001 -0.5849
 8097TIP3   OH224254   5.149   5.149   2.177  0.2085 -0.2462  0.1756
 8097TIP3    H124255   5.118   5.079   2.120 -0.2813 -0.7228  1.0078
 8097TIP3    H224256   5.118   5.230   2.136 -0.7763 -0.6280  0.1466
 8098TIP3   OH224257   5.495   0.198   0.617 -0.2381  0.2442  0.0664
 8098TIP3    H124258   5.537   0.255   0.680  0.0854 -0.0168  0.0909
 8098TIP3    H224259   5.546   0.208   0.537  0.3175 -0.6031  0.2946
 8099TIP3   OH224260   3.754   6.645   5.808 -0.4047 -0.4289  0.1095
 8099TIP3    H124261   3.762   6.699   5.887 -1.2009  0.5945 -0.4687
 8099TIP3    H224262   3.759   6.555   5.839  1.3269 -0.0442  1.0756
 8100TIP3   OH224263   2.372   4.354   0.204 -0.0398 -0.2786 -0.7053
 8100TIP3    H124264   2.297   4.401   0.168 -1.2992 -0.8316  1.0310
 8100TIP3    H224265   2.361   4.264   0.172  0.3683 -0.1750 -1.1396
 8101TIP3   OH224266   1.817   6.761   4.475  0.4777  0.9221  0.1235
 8101TIP3    H124267   1.898   6.721   4.442  0.4866  1.6723 -0.7874
 8101TIP3    H224268   1.769   6.786   4.396 -1.8665 -1.8114  0.5218
 8102TIP3   OH224269   6.180   1.242   0.538 -0.2543 -0.2930 -0.5106
 8102TIP3    H124270   6.103   1.235   0.595 -0.2604  0.0357 -0.4762
 8102TIP3    H224271   6.249   1.196   0.586 -0.6905 -1.5214 -1.0269
 8103TIP3   OH224272   1.873   5.954   5.681  0.1324  0.3491  0.5178
 8103TIP3    H124273   1.901   5.884   5.622 -2.6893  0.4950 -1.1684
 8103TIP3    H224274   1.857   5.910   5.764  0.3576 -0.6124  0.0693
 8104TIP3   OH224275   4.289   0.624   4.083  0.1416 -0.2964 -0.7321
 8104TIP3    H124276   4.296   0.565   4.008 -0.9607 -0.3790 -0.7866
 8104TIP3    H224277   4.195   0.630   4.100  0.3722 -0.4042  0.7364
 8105TIP3   OH224278   2.861   0.376   4.214 -0.3186  0.1477 -0.3948
 8105TIP3    H124279   2.933   0.406   4.159  0.3225 -0.4033  0.1211
 8105TIP3    H224280   2.840   0.288   4.181  0.1996 -0.2673  0.3273
 8106TIP3   OH224281   6.890   5.523   0.993 -0.5050  0.1749 -0.0561
 8106TIP3    H124282   6.838   5.455   1.036 -0.4540  0.5504  0.6164
 8106TIP3    H224283   6.957   5.475   0.945 -1.1214 -0.2909 -0.4631
 8107TIP3   OH224284   3.206   1.733   2.799  0.4170 -0.3254 -0.3069
 8107TIP3    H124285   3.218   1.712   2.707  1.7297  2.2495 -0.8115
 8107TIP3    H224286   3.198   1.829   2.802 -1.5755 -0.4490  2.0809
 8108TIP3   OH224287   1.505   5.131   3.247  0.1583  0.2974 -0.1429
 8108TIP3    H124288   1.560   5.202   3.214 -0.1004 -0.7190 -2.9931
 8108TIP3    H224289   1.416   5.165   3.243 -0.0235 -0.2960 -2.0480
 8109TIP3   OH224290   6.283   3.175   0.098  0.1706 -0.5161 -0.2369
 8109TIP3    H124291   6.299   3.253   0.044 -0.6672  0.5586  1.0066
 8109TIP3    H224292   6.277   3.103   0.035 -2.4852  0.9073 -1.8167
 8110TIP3   OH224293   7.066   6.551   5.526  0.2689 -0.1595 -0.0121
 8110TIP3    H124294   7.005   6.620   5.552  1.2641  0.3080  1.1299
 8110TIP3    H224295   7.091   6.508   5.608 -0.6353 -2.1755 -0.7155
 8111TIP3   OH224296   0.807   4.876   5.485 -0.4224 -0.1037  0.3771
 8111TIP3    H124297   0.793   4.782   5.492 -2.6428  0.1989  1.0837
 8111TIP3    H224298   0.902   4.887   5.482 -0.0558 -2.2737  1.8651
 8112TIP3   OH224299   4.177   4.702   2.336 -0.0599  0.8097  0.0406
 8112TIP3    H124300   4.111   4.632   2.335 -0.0264  0.7395 -2.1427
 8112TIP3    H224301   4.148   4.763   2.268  1.8304  1.0388 -0.6225
 8113TIP3   OH224302   0.522   5.136   2.149 -0.3237 -0.3774 -0.1738
 8113TIP3    H124303   0.483   5.222   2.166  1.8247  0.7105 -0.4129
 8113TIP3    H224304   0.514   5.125   2.054  2.9941  1.5601 -0.8469
 8114TIP3   OH224305   4.855   3.015   2.458 -0.3097 -0.1971  0.1448
 8114TIP3    H124306   4.842   2.999   2.365 -0.1392 -0.6075  0.1912
 8114TIP3    H224307   4.781   2.971   2.501  0.2153 -0.9666  0.2781
 8115TIP3   OH224308   4.747   0.070   1.297  0.2050  0.0952 -0.0825
 8115TIP3    H124309   4.747   0.166   1.295  0.6979  0.1655  1.5666
 8115TIP3    H224310   4.661   0.046   1.261 -0.1514  1.1798 -0.0116
 8116TIP3   OH224311   2.614   2.352   5.009  0.3447  0.0381 -0.1521
 8116TIP3    H124312   2.605   2.260   5.032 -1.3742  0.0211 -0.7222
 8116TIP3    H224313   2.687   2.383   5.062  0.5113 -1.4781  0.5705
 8117TIP3   OH224314   2.900   6.297   1.143  0.0822  0.3281 -0.6829
 8117TIP3    H124315   2.818   6.343   1.126 -0.4593  0.2513  1.4127
 8117TIP3    H224316   2.928   6.329   1.229  1.3299 -0.9493 -0.5687
 8118TIP3   OH224317   5.017   2.807   1.258  0.4312 -0.2499  0.2756
 8118TIP3    H124318   5.069   2.770   1.329  0.1088  0.2018  0.7540
 8118TIP3    H224319   4.964   2.733   1.226  1.1651 -0.6462 -0.0393
 8119TIP3   OH224320   5.004   2.560   2.550 -0.2369 -0.1222  0.0447
 8119TIP3    H124321   5.007   2.549   2.645  0.1028 -0.3120  0.0118
 8119TIP3    H224322   5.062   2.634   2.532 -0.0323 -0.3052 -0.0491
 8120TIP3   OH224323   4.381   5.022   0.023  0.3535 -0.1303  0.8133
 8120TIP3    H124324   4.289   5.044   0.038  0.1920 -0.4066  0.2209
 8120TIP3    H224325   4.388   4.931   0.051  0.2089 -0.4324 -0.1098
 8121TIP3   OH224326   5.113   6.051   3.842 -0.4703 -0.0049  0.0091
 8121TIP3    H124327   5.101   5.957   3.830 -1.7189  0.4277 -3.1152
 8121TIP3    H224328   5.206   6.066   3.827 -0.6544 -0.5305 -1.9011
 8122TIP3   OH224329   2.957   5.394   4.077  0.7425 -0.3707 -0.6535
 8122TIP3    H124330   3.005   5.454   4.133 -0.5492  1.1338 -1.1005
 8122TIP3    H224331   2.939   5.444   3.998 -1.2812 -0.9729 -0.6201
 8123TIP3   OH224332   6.308   4.765   0.405  0.1294  0.1506 -0.1543
 8123TIP3    H124333   6.385   4.728   0.361 -1.3918 -0.6992 -2.2955
 8123TIP3    H224334   6.274   4.829   0.344 -0.7201  0.7217  0.8840
 8124TIP3   OH224335   6.416   0.226   0.891  0.1052  0.0937  0.3925
 8124TIP3    H124336   6.459   0.171   0.957 -1.0541 -0.5932  0.6032
 8124TIP3    H224337   6.328   0.240   0.925 -0.2509  0.4234 -0.6246
 8125TIP3   OH224338   1.346   4.759   5.200  0.1767 -0.4754  0.0818
 8125TIP3    H124339   1.326   4.801   5.117  0.1984 -1.1967 -0.2930
 8125TIP3    H224340   1.282   4.796   5.261  1.3147  1.4306  0.1975
 8126TIP3   OH224341   1.702   2.384   0.491  0.7926  0.3640  0.0224
 8126TIP3    H124342   1.686   2.318   0.559  0.9673 -1.7912 -1.9059
 8126TIP3    H224343   1.685   2.467   0.534 -0.3008 -0.9657  2.3583
 8127TIP3   OH224344   6.161   5.262   0.670  0.0402  0.8873  0.4510
 8127TIP3    H124345   6.132   5.171   0.669 -0.4197  0.9548  2.4622
 8127TIP3    H224346   6.122   5.301   0.592 -0.5436 -0.4034  0.0700
 8128TIP3   OH224347   0.727   1.046   0.477  0.3982 -0.4595  0.0141
 8128TIP3    H124348   0.694   1.012   0.394 -0.1996  0.9164 -0.3471
 8128TIP3    H224349   0.759   1.134   0.456 -1.4204  0.6501  1.5214
 8129TIP3   OH224350   3.614   1.278   0.080  0.4247  0.2705 -0.6536
 8129TIP3    H124351   3.572   1.216   0.021  0.4215 -2.2317  1.7875
 8129TIP3    H224352   3.707   1.255   0.078  0.5403  0.6893 -0.2913
 8130TIP3   OH224353   1.198   3.604   4.481  0.4347  0.2576 -0.0263
 8130TIP3    H124354   1.176   3.575   4.569 -1.4661 -0.2611 -0.6358
 8130TIP3    H224355   1.199   3.699   4.486 -1.0613  0.2791  0.2768
 8131TIP3   OH224356   4.118   3.450   5.404 -0.0618 -0.1283  0.2847
 8131TIP3    H124357   4.144   3.542   5.411 -0.2956  0.1002 -1.5153
 8131TIP3    H224358   4.160   3.408   5.479  2.7700  0.8444 -0.6341
 8132TIP3   OH224359   5.882   1.034   3.266 -0.5204  0.2857 -0.1852
 8132TIP3    H124360   5.880   0.965   3.332 -0.7741 -1.1927 -1.6662
 8132TIP3    H224361   5.804   1.086   3.283 -1.7914 -1.3874 -0.6167
 8133TIP3   OH224362   2.563   5.349   5.470 -0.4942 -0.0315 -0.0605
 8133TIP3    H124363   2.627   5.311   5.410  0.0560  0.8386 -0.0414
 8133TIP3    H224364   2.504   5.277   5.491 -0.3549 -0.4892 -1.1951
 8134TIP3   OH224365   5.170   5.477   2.882  0.3695  0.0977  0.1570
 8134TIP3    H124366   5.084   5.508   2.854  0.4972  0.0680 -0.2722
 8134TIP3    H224367   5.207   5.435   2.805 -0.0631 -1.6987  0.8785
 8135TIP3   OH224368   5.855   6.380   1.930  0.8772  0.0589 -0.1429
 8135TIP3    H124369   5.836   6.313   1.995  1.3516  0.9102  0.9204
 8135TIP3    H224370   5.783   6.374   1.867 -0.8787  0.6822  1.6912
 8136TIP3   OH224371   5.241   0.215   4.584  0.0946 -0.0342 -0.6730
 8136TIP3    H124372   5.316   0.176   4.630  0.0544  0.0698 -0.5175
 8136TIP3    H224373   5.249   0.309   4.600 -0.7398 -0.1221  0.3737
 8137TIP3   OH224374   4.974   1.290   1.262 -0.7431 -0.1592 -0.5713
 8137TIP3    H124375   4.913   1.341   1.209 -1.8007 -1.6034 -0.8234
 8137TIP3    H224376   5.059   1.329   1.245 -1.1875  0.0586 -2.5944
 8138TIP3   OH224377   5.352   4.282   3.786 -0.6727  0.8122  0.5484
 8138TIP3    H124378   5.268   4.259   3.825 -0.9034 -1.0225 -0.9082
 8138TIP3    H224379   5.417   4.250   3.849 -1.0590 -0.2165  0.4468
 8139TIP3   OH224380   6.692   5.275   0.781  0.4811 -0.1402  0.0453
 8139TIP3    H124381   6.759   5.342   0.767  1.7648 -1.5728 -0.9004
 8139TIP3    H224382   6.633   5.285   0.706  0.1910  0.4538  0.3439
 8140TIP3   OH224383   3.794   3.418   1.876 -0.2225  0.6662  0.4780
 8140TIP3    H124384   3.835   3.465   1.803 -1.9563  1.0703 -0.2749
 8140TIP3    H224385   3.798   3.326   1.851 -1.1809  0.8357 -0.3429
 8141TIP3   OH224386   7.181   6.010   5.780  0.2247 -0.3663 -0.1694
 8141TIP3    H124387   7.273   6.018   5.753 -0.3263 -1.7124 -2.8757
 8141TIP3    H224388   7.134   6.066   5.718 -1.0826 -2.8517 -1.5490
 8142TIP3   OH224389   4.722   3.346   2.463  0.3649 -0.1067 -0.6873
 8142TIP3    H124390   4.784   3.402   2.509 -1.3324  0.7309  0.7074
 8142TIP3    H224391   4.714   3.269   2.519 -0.6853  0.3085 -0.2350
 8143TIP3   OH224392   0.393   2.783   0.419  0.2595  0.1499  0.4248
 8143TIP3    H124393   0.347   2.712   0.375 -0.7107 -0.4291  2.2905
 8143TIP3    H224394   0.419   2.842   0.348 -0.6201 -1.0741 -0.9708
 8144TIP3   OH224395   1.043   1.769   0.947  0.1355  0.0170  0.3806
 8144TIP3    H124396   1.008   1.840   0.895  0.7819  0.4852  0.5722
 8144TIP3    H224397   0.974   1.702   0.947  0.8413 -0.8660 -2.7264
 8145TIP3   OH224398   6.933   1.094   5.181  0.3393  0.0547 -0.1199
 8145TIP3    H124399   6.945   1.076   5.088  2.0298 -1.3578  0.3196
 8145TIP3    H224400   6.959   1.185   5.192 -0.5183  0.4294 -1.1288
 8146TIP3   OH224401   5.629   5.534   2.224 -0.4458  0.3717 -0.4634
 8146TIP3    H124402   5.619   5.623   2.258 -0.4719  0.0074  0.5098
 8146TIP3    H224403   5.685   5.490   2.288 -0.4638 -0.3242 -0.9148
 8147TIP3   OH224404   5.118   2.797   5.319 -0.3990  0.5901 -0.2059
 8147TIP3    H124405   5.095   2.780   5.411 -1.3443 -1.8926 -0.8241
 8147TIP3    H224406   5.040   2.840   5.283 -1.0005 -0.6240 -0.3943
 8148TIP3   OH224407   3.582   2.899   2.359 -0.7185  0.0992 -0.4971
 8148TIP3    H124408   3.541   2.818   2.328 -0.9708  1.0562 -2.8602
 8148TIP3    H224409   3.665   2.903   2.312  0.3279  0.1718  1.2639
 8149TIP3   OH224410   0.194   6.607   1.468 -0.2007 -0.5650 -0.3685
 8149TIP3    H124411   0.206   6.550   1.392 -0.4402  0.7279 -1.4195
 8149TIP3    H224412   0.101   6.627   1.469 -0.4126 -1.5620  1.0269
 8150TIP3   OH224413   1.305   0.422   2.454  0.2906 -0.6009  0.3754
 8150TIP3    H124414   1.311   0.367   2.375  1.2202  1.4870 -1.1068
 8150TIP3    H224415   1.211   0.434   2.467  0.0832  0.7598 -1.7944
 8151TIP3   OH224416   0.827   3.973   2.094  0.2722 -0.1726 -0.3107
 8151TIP3    H124417   0.814   4.008   2.182 -2.0555  1.9810 -1.3930
 8151TIP3    H224418   0.782   3.889   2.094  0.4145 -0.2513  0.5935
 8152TIP3   OH224419   6.494   5.840   3.375 -0.2551 -0.3777 -0.4553
 8152TIP3    H124420   6.505   5.915   3.433 -0.3957 -0.3310 -0.4871
 8152TIP3    H224421   6.414   5.797   3.405 -1.3944  0.7161 -1.7708
 8153TIP3   OH224422   6.465   4.560   3.515 -0.3732  0.3107 -0.0660
 8153TIP3    H124423   6.553   4.522   3.520 -1.0457 -1.5183 -1.2836
 8153TIP3    H224424   6.442   4.578   3.606  0.6156 -0.7206  0.4218
 8154TIP3   OH224425   2.477   4.626   1.599 -0.1181  0.1027  0.4185
 8154TIP3    H124426   2.407   4.595   1.542  0.4571 -0.5517  0.0425
 8154TIP3    H224427   2.521   4.694   1.548 -1.4124  1.6356  1.2642
 8155TIP3   OH224428   1.297   4.315   3.775 -0.4715 -0.6237  0.1264
 8155TIP3    H124429   1.386   4.280   3.778  0.3660  1.3971 -0.1724
 8155TIP3    H224430   1.289   4.370   3.852 -0.6092  1.0995 -1.0616
 8156TIP3   OH224431   2.359   3.660   4.528 -0.4053 -0.1412  0.0913
 8156TIP3    H124432   2.272   3.652   4.489  0.0208 -0.2671 -0.8600
 8156TIP3    H224433   2.348   3.624   4.617 -1.7448  1.5366  0.6601
 8157TIP3   OH224434   1.076   0.288   2.310 -0.0000 -0.6266  0.3620
 8157TIP3    H124435   0.984   0.317   2.311  0.6348  1.5499  0.3129
 8157TIP3    H224436   1.072   0.198   2.341 -2.1678 -0.6142  0.3308
 8158TIP3   OH224437   2.875   4.776   4.938 -0.5936 -0.0869  0.1530
 8158TIP3    H124438   2.908   4.839   4.874  0.6453 -1.2935 -0.4679
 8158TIP3    H224439   2.883   4.691   4.895 -2.4309 -0.6836  0.8776
 8159TIP3   OH224440   3.535   2.604   3.375  0.1673  0.0642  0.3639
 8159TIP3    H124441   3.448   2.635   3.349  0.2246  0.1871  0.3168
 8159TIP3    H224442   3.518   2.527   3.428  0.0268  0.1128  0.3903
 8160TIP3   OH224443   6.220   1.509   0.422 -0.3970  0.6633  0.0163
 8160TIP3    H124444   6.202   1.418   0.448  2.1265  0.3817  1.0236
 8160TIP3    H224445   6.189   1.514   0.331  0.0894 -1.4444 -0.3298
 8161TIP3   OH224446   0.848   3.115  -0.004  0.1558 -0.4431  0.4686
 8161TIP3    H124447   0.837   3.033   0.044 -0.9066  0.5882  2.0647
 8161TIP3    H224448   0.760   3.144  -0.024  0.5526 -0.2152 -1.0787
 8162TIP3   OH224449   4.929   4.485   2.940  0.5455 -0.1351 -0.0122
 8162TIP3    H124450   4.933   4.391   2.958  2.9289 -0.1383 -0.2259
 8162TIP3    H224451   4.858   4.517   2.995 -1.1301 -2.2148 -0.8218
 8163TIP3   OH224452   5.639   5.007   2.376  0.8684  0.6130  0.4567
 8163TIP3    H124453   5.641   5.081   2.437  0.2373  1.0675 -0.0588
 8163TIP3    H224454   5.648   5.047   2.290  0.0067  0.1306  0.1394
 8164TIP3   OH224455   3.432   6.755   5.177  0.1700 -0.4916  0.4505
 8164TIP3    H124456   3.485   6.686   5.218  0.1557 -0.2030  0.9630
 8164TIP3    H224457   3.420   6.726   5.087  0.2893 -1.0891  0.6252
 8165TIP3   OH224458   2.129   5.439   0.289 -0.3636 -0.4987 -0.2546
 8165TIP3    H124459   2.185   5.504   0.331  0.1539 -0.3170 -1.1996
 8165TIP3    H224460   2.041   5.459   0.322 -0.0818  0.1200  0.1491
 8166TIP3   OH224461   4.855   2.726   0.467 -0.0233  0.5318 -0.0320
 8166TIP3    H124462   4.799   2.759   0.538 -1.8671 -1.8705 -0.2461
 8166TIP3    H224463   4.895   2.647   0.503 -0.4591 -0.3572 -1.4455
 8167TIP3   OH224464   6.737   3.606   0.488 -0.2330 -0.5678 -0.2590
 8167TIP3    H124465   6.770   3.561   0.566  0.0309 -2.8010 -1.5755
 8167TIP3    H224466   6.653   3.564   0.471 -0.5128  0.2362 -0.9139
 8168TIP3   OH224467   5.454   5.272   3.723 -0.7219  0.0314  0.1217
 8168TIP3    H124468   5.540   5.243   3.753 -0.6853  0.3374  0.3102
 8168TIP3    H224469   5.469   5.360   3.689 -0.9654  0.0901  0.1650
 8169TIP3   OH224470   0.014   1.289   3.146 -0.2138  0.2924 -0.6204
 8169TIP3    H124471  -0.031   1.373   3.141 -1.1427 -0.1957 -0.7756
 8169TIP3    H224472   0.036   1.279   3.239 -0.1492  0.6834 -0.5940
 8170TIP3   OH224473   2.728   6.375   3.086 -0.7392  0.3192 -0.0908
 8170TIP3    H124474   2.808   6.322   3.078 -0.1178  1.0239  1.0411
 8170TIP3    H224475   2.741   6.424   3.168 -1.4768  1.8940 -0.8796
 8171TIP3   OH224476   6.311   2.442   2.515  0.0824  0.4366 -0.2658
 8171TIP3    H124477   6.215   2.447   2.514 -0.1855 -2.9133 -0.9499
 8171TIP3    H224478   6.332   2.397   2.597  0.9414 -0.1754 -0.8009
 8172TIP3   OH224479   0.243   4.104   0.789 -0.4660  0.0292 -0.3662
 8172TIP3    H124480   0.278   4.108   0.700 -0.6292 -0.2744 -0.4428
 8172TIP3    H224481   0.153   4.075   0.778 -0.4156 -0.2340 -0.0848
 8173TIP3   OH224482   2.375   4.205   5.708 -0.5048 -0.1145 -0.6942
 8173TIP3    H124483   2.446   4.163   5.661  0.3210  1.2679 -0.7249
 8173TIP3    H224484   2.300   4.146   5.697  0.4770 -1.3106 -1.1281
 8174TIP3   OH224485   1.214   0.791   5.651  0.0145  0.1451 -1.3092
 8174TIP3    H124486   1.194   0.707   5.609  1.9481 -0.1435 -1.7584
 8174TIP3    H224487   1.177   0.783   5.739 -1.7995 -0.2719 -2.0720
 8175TIP3   OH224488   2.900   1.586   0.070  0.2838  0.1201  0.1992
 8175TIP3    H124489   2.969   1.651   0.073 -0.4938  0.9428  1.1290
 8175TIP3    H224490   2.835   1.621   0.009  1.8704 -1.9500 -2.8844
 8176TIP3   OH224491   4.025   3.752   1.683 -0.1421 -0.4789 -0.5993
 8176TIP3    H124492   3.934   3.780   1.676 -0.1294  1.1820  3.1927
 8176TIP3    H224493   4.075   3.824   1.645 -0.3778 -0.7213 -1.3725
 8177TIP3   OH224494   5.199   2.097   3.986  0.2412 -0.2637  0.1752
 8177TIP3    H124495   5.106   2.076   3.981  0.4400 -0.9883 -0.7701
 8177TIP3    H224496   5.204   2.170   4.048 -0.8305 -0.8934  1.0310
 8178TIP3   OH224497   6.727   2.650   3.221 -0.5464 -0.3838 -0.4474
 8178TIP3    H124498   6.774   2.582   3.269  2.1020  0.2214 -1.9823
 8178TIP3    H224499   6.637   2.616   3.214 -0.2036 -2.0079  1.8930
 8179TIP3   OH224500   2.977   5.052   0.298  0.3244 -0.3985 -0.2793
 8179TIP3    H124501   2.920   5.124   0.270  0.6952  0.5000  1.1869
 8179TIP3    H224502   2.916   4.984   0.328 -0.0597  0.7814  1.8395
 8180TIP3   OH224503   3.344   4.977   2.722 -0.6339 -1.1173 -0.0016
 8180TIP3    H124504   3.303   5.063   2.718 -3.3504 -2.3274 -3.5668
 8180TIP3    H224505   3.328   4.947   2.812 -0.1225  1.7752  1.1563
 8181TIP3   OH224506   3.056   6.072   4.360 -0.1292  0.4061 -0.0096
 8181TIP3    H124507   3.079   6.163   4.339  0.6447  0.0862 -0.6026
 8181TIP3    H224508   3.136   6.023   4.343 -0.7712 -0.5082 -0.4746
 8182TIP3   OH224509   7.100   6.681   3.583  0.4587  0.0874 -0.5827
 8182TIP3    H124510   7.034   6.721   3.526  1.4472  0.2274 -1.6533
 8182TIP3    H224511   7.062   6.687   3.671  0.5206  3.3662 -0.6677
 8183TIP3   OH224512   2.355   0.822   2.351  0.3179  0.0936  0.3072
 8183TIP3    H124513   2.321   0.733   2.339  0.1479  0.3467 -1.3510
 8183TIP3    H224514   2.439   0.810   2.394 -0.1886 -0.7955  1.0808
 8184TIP3   OH224515   6.056   4.824   5.279 -0.6786  0.3260  0.4200
 8184TIP3    H124516   6.131   4.797   5.226 -0.2416  2.0703  0.0849
 8184TIP3    H224517   6.025   4.904   5.238 -3.2376 -0.7336  0.1148
 8185TIP3   OH224518   3.194   3.668   0.054  0.0932  0.1215 -0.2329
 8185TIP3    H124519   3.163   3.745   0.103 -0.0745 -0.5737  0.7861
 8185TIP3    H224520   3.131   3.659  -0.018 -1.0033 -0.1444  0.7231
 8186TIP3   OH224521   2.730   3.556   4.658 -0.4016 -0.1891  0.8832
 8186TIP3    H124522   2.810   3.596   4.690 -0.4011  0.4073  0.1585
 8186TIP3    H224523   2.693   3.621   4.598 -0.1839 -1.4254 -0.6468
 8187TIP3   OH224524   4.938   0.949   3.681 -0.0536 -0.6330 -0.4737
 8187TIP3    H124525   4.939   0.901   3.763 -0.2846 -2.2828 -1.3858
 8187TIP3    H224526   4.878   0.900   3.625  0.8637 -0.1353 -1.9672
 8188TIP3   OH224527   0.697   2.913   4.503 -0.2866  0.3883 -0.0248
 8188TIP3    H124528   0.686   3.001   4.466  1.0366  0.3515 -0.5346
 8188TIP3    H224529   0.738   2.862   4.433  0.5963 -0.1654  0.8733
 8189TIP3   OH224530   7.075   1.855   4.934  0.2234 -0.0756 -0.1206
 8189TIP3    H124531   7.153   1.887   4.979 -0.1699  0.3804  0.2416
 8189TIP3    H224532   7.007   1.853   5.002 -1.0994  3.1257 -1.1906
 8190TIP3   OH224533   5.325   2.633   1.573 -0.2297  0.2917 -0.0206
 8190TIP3    H124534   5.303   2.540   1.562 -1.6709  0.6366 -0.3239
 8190TIP3    H224535   5.247   2.679   1.541  0.3461  1.5988  0.4148
 8191TIP3   OH224536   4.309   0.235   5.019 -0.3485  0.1070  0.0742
 8191TIP3    H124537   4.387   0.196   4.978  0.1426  0.6849  0.4310
 8191TIP3    H224538   4.320   0.329   5.005 -1.1924  0.1727 -0.2169
 8192TIP3   OH224539   3.089   3.974   4.716 -0.0661 -0.0552 -0.8318
 8192TIP3    H124540   3.167   4.011   4.757  0.2805 -0.7147 -0.8744
 8192TIP3    H224541   3.016   4.001   4.773  0.4122 -1.0053  0.2769
 8193TIP3   OH224542   2.031   4.415   2.722  0.2843 -0.2022 -0.0325
 8193TIP3    H124543   1.999   4.384   2.637  2.9634 -0.9283 -0.8765
 8193TIP3    H224544   2.095   4.350   2.749  1.6010  1.4813  1.1562
 8194TIP3   OH224545   5.777   1.648   5.397  0.4035  0.2935 -0.6706
 8194TIP3    H124546   5.756   1.595   5.320  2.0476 -0.9087 -0.3569
 8194TIP3    H224547   5.787   1.737   5.364 -0.1187 -0.0007 -1.6324
 8195TIP3   OH224548   6.055   5.685   5.204  0.8690  0.5715  0.2077
 8195TIP3    H124549   6.010   5.692   5.120  0.1828  3.7023  0.7081
 8195TIP3    H224550   6.046   5.593   5.229  0.1201 -0.2028 -2.5752
 8196TIP3   OH224551   3.746   5.278   0.048  0.8478  0.0853  0.1988
 8196TIP3    H124552   3.675   5.337   0.023  2.1056  1.5280 -0.0975
 8196TIP3    H224553   3.706   5.191   0.049 -0.7060  0.7555 -0.7876
 8197TIP3   OH224554   4.445   4.030   0.184 -0.1337 -0.8457  0.3996
 8197TIP3    H124555   4.516   4.094   0.178  0.5031 -1.5901 -0.4973
 8197TIP3    H224556   4.473   3.958   0.126 -1.3013 -1.4655  0.5654
 8198TIP3   OH224557   3.448   6.155   2.459  0.4810  0.4132 -0.4454
 8198TIP3    H124558   3.522   6.203   2.497  0.1315  1.5790 -1.1666
 8198TIP3    H224559   3.441   6.189   2.370  0.1585 -0.9548 -0.9642
 8199TIP3   OH224560   4.904   1.405   2.359 -0.2491  0.3278 -0.5295
 8199TIP3    H124561   4.920   1.484   2.307 -4.3738  1.5453 -0.3172
 8199TIP3    H224562   4.976   1.403   2.423  2.2297  1.5201 -3.0412
 8200TIP3   OH224563   2.571   3.023   2.774  0.4449 -0.8113 -0.1719
 8200TIP3    H124564   2.600   3.107   2.810 -0.7024 -0.2250 -0.5732
 8200TIP3    H224565   2.511   3.047   2.704  0.9430 -1.9727 -1.0176
 8201TIP3   OH224566   3.214   6.420   0.096  0.0545 -0.2818  0.1811
 8201TIP3    H124567   3.302   6.436   0.062 -1.2267  1.9962 -2.4308
 8201TIP3    H224568   3.172   6.365   0.030 -1.4694  1.4740 -0.4152
 8202TIP3   OH224569   3.446   2.665   2.364  0.3220 -0.5173 -0.0624
 8202TIP3    H124570   3.484   2.578   2.373  0.1219 -0.5440  0.5704
 8202TIP3    H224571   3.397   2.678   2.445  1.0143  0.5158  0.1984
 8203TIP3   OH224572   1.708   3.404   2.348 -0.1926  0.4329 -0.1596
 8203TIP3    H124573   1.754   3.395   2.431  1.0568 -0.0804 -0.8871
 8203TIP3    H224574   1.619   3.432   2.372  0.8851  2.9726  1.1888
 8204TIP3   OH224575   3.733   1.202   2.106  0.0834 -0.2583 -0.4329
 8204TIP3    H124576   3.757   1.283   2.151 -1.1303 -0.9565  1.6064
 8204TIP3    H224577   3.788   1.135   2.146 -1.0134 -0.8910  0.0715
 8205TIP3   OH224578   5.519   5.390   5.109 -0.0042 -0.4871  0.2375
 8205TIP3    H124579   5.470   5.468   5.134  1.3904  0.6183 -0.3465
 8205TIP3    H224580   5.539   5.347   5.192 -0.9569 -0.3550  0.5532
 8206TIP3   OH224581   5.713   5.108   1.191 -0.4929  0.0970 -0.1627
 8206TIP3    H124582   5.661   5.188   1.200  0.2261  0.5292  0.1777
 8206TIP3    H224583   5.736   5.084   1.280  0.5838  0.3673 -0.3578
 8207TIP3   OH224584   2.564   1.832   1.870  0.4343  0.0030 -0.0875
 8207TIP3    H124585   2.571   1.868   1.958  2.5509 -0.5438  0.0230
 8207TIP3    H224586   2.489   1.772   1.874 -0.2778  0.9299  0.9593
 8208TIP3   OH224587   4.853   0.857   1.467 -0.0754  0.1833 -0.4704
 8208TIP3    H124588   4.881   0.945   1.493  0.3073 -0.1713  0.3414
 8208TIP3    H224589   4.777   0.872   1.410  0.2469  1.0537 -0.6828
 8209TIP3   OH224590   1.775   6.232   1.308 -0.2401 -0.4171 -0.2582
 8209TIP3    H124591   1.833   6.244   1.233 -1.7909  1.0716 -1.3196
 8209TIP3    H224592   1.687   6.230   1.269 -0.9390 -3.3640  1.1787
 8210TIP3   OH224593   1.320   2.169   4.202  0.6362  0.7368  0.0559
 8210TIP3    H124594   1.333   2.116   4.123  0.9627 -0.6025  0.9800
 8210TIP3    H224595   1.386   2.238   4.195  1.3525  0.0356 -0.3668
 8211TIP3   OH224596   0.652   1.109   0.991 -0.6141  0.1486 -0.0342
 8211TIP3    H124597   0.677   1.195   0.959 -0.5947  0.0122 -0.3944
 8211TIP3    H224598   0.606   1.069   0.917 -0.5516 -0.1793  0.1032
 8212TIP3   OH224599   4.658   6.531   2.915 -0.4340 -0.2820  0.6700
 8212TIP3    H124600   4.651   6.617   2.873  1.6748 -0.5551 -0.3686
 8212TIP3    H224601   4.599   6.536   2.990  0.8146  2.6459  1.5814
 8213TIP3   OH224602   3.395   6.768   3.652  0.1012  0.3546  0.1541
 8213TIP3    H124603   3.317   6.727   3.690 -0.0043 -0.2413 -0.6885
 8213TIP3    H224604   3.468   6.718   3.689 -0.0429 -0.9511 -1.2346
 8214TIP3   OH224605   4.436   1.815   5.154 -0.5076 -0.5821  0.0809
 8214TIP3    H124606   4.403   1.740   5.105 -0.9677 -0.5590  0.3499
 8214TIP3    H224607   4.446   1.783   5.244  2.0270 -1.1459 -0.3222
 8215TIP3   OH224608   1.658   4.231   0.136 -0.3506  0.1383  0.0502
 8215TIP3    H124609   1.666   4.217   0.231 -1.9481 -0.0656  0.1894
 8215TIP3    H224610   1.747   4.248   0.107  0.4540 -1.6027  1.2996
 8216TIP3   OH224611   2.355   1.567   5.703  0.5526 -0.7088  0.1873
 8216TIP3    H124612   2.424   1.625   5.671  1.1262 -2.0710 -1.1638
 8216TIP3    H224613   2.399   1.505   5.760 -0.1088  0.3311  1.8804
 8217TIP3   OH224614   0.576   3.708   4.132  0.5650  0.3406  0.1148
 8217TIP3    H124615   0.519   3.645   4.087  0.5265 -0.6010  1.4415
 8217TIP3    H224616   0.626   3.748   4.061  2.0186 -2.5977 -0.6766
 8218TIP3   OH224617   7.008   4.524   5.484 -0.1478 -0.0257  0.4738
 8218TIP3    H124618   7.101   4.508   5.472 -0.1056  0.6961 -0.2567
 8218TIP3    H224619   6.967   4.439   5.471  0.3076 -0.1176 -0.4254
 8219TIP3   OH224620   1.895   3.631   1.106  0.0199 -0.5911  0.1014
 8219TIP3    H124621   1.878   3.559   1.046 -0.6739 -0.5802  0.2666
 8219TIP3    H224622   1.849   3.606   1.187 -0.4101  0.1256  0.0919
 8220TIP3   OH224623   2.198   2.075   0.359  0.0405 -0.1213  0.2368
 8220TIP3    H124624   2.143   2.036   0.427  0.3981 -1.4543 -0.2224
 8220TIP3    H224625   2.259   2.131   0.407  0.2314 -0.9801  1.0267
 8221TIP3   OH224626   0.230   1.436   1.345  0.3690  0.3497  0.2050
 8221TIP3    H124627   0.250   1.353   1.388  1.0909  0.5034  0.1783
 8221TIP3    H224628   0.141   1.457   1.373  0.3007 -0.2746  0.4613
 8222TIP3   OH224629   5.825   0.352   5.577  0.0163  0.6243 -0.2859
 8222TIP3    H124630   5.910   0.395   5.588 -0.0892  0.4578  1.3789
 8222TIP3    H224631   5.838   0.292   5.504  0.9463  1.5315 -0.8952
 8223TIP3   OH224632   1.325   4.162   5.549 -0.5323 -0.1061 -0.2323
 8223TIP3    H124633   1.277   4.159   5.466 -0.2802  2.5983 -0.5832
 8223TIP3    H224634   1.266   4.208   5.608  1.2788  2.9389 -0.5601
 8224TIP3   OH224635   6.707   0.864   1.861 -1.3742  0.0171  0.4222
 8224TIP3    H124636   6.653   0.914   1.799 -0.2474 -1.0622 -1.5257
 8224TIP3    H224637   6.722   0.924   1.933 -1.3217  1.9818 -1.1318
 8225TIP3   OH224638   6.186   4.724   1.523 -0.4213 -0.0120 -0.5838
 8225TIP3    H124639   6.216   4.654   1.465 -0.6327 -1.4069  0.9354
 8225TIP3    H224640   6.216   4.804   1.480 -2.7074 -0.7393 -3.9040
 8226TIP3   OH224641   4.193   4.460   2.540  0.0284  0.2423  0.2280
 8226TIP3    H124642   4.127   4.508   2.490 -0.3096  0.1092  0.5440
 8226TIP3    H224643   4.277   4.490   2.504 -0.2117 -0.1305 -0.6820
 8227TIP3   OH224644   1.105   5.249   3.617  0.0726 -0.2328  0.2548
 8227TIP3    H124645   1.021   5.204   3.618 -0.0249 -0.2660 -2.3069
 8227TIP3    H224646   1.082   5.342   3.606  0.3175 -0.2682 -0.7102
 8228TIP3   OH224647   5.350   0.111   3.506  0.1196  0.3371  0.5209
 8228TIP3    H124648   5.344   0.197   3.464  1.9741  0.2892  0.0707
 8228TIP3    H224649   5.418   0.122   3.572 -0.6107 -0.4260  1.4117
 8229TIP3   OH224650   2.947   2.615   4.789 -0.3492  0.3393  0.0316
 8229TIP3    H124651   2.955   2.593   4.882 -0.8461  1.3047  0.3078
 8229TIP3    H224652   2.990   2.542   4.744 -1.1352 -0.7181  0.9578
 8230TIP3   OH224653   0.792   5.846   4.527  0.6540 -0.4644 -0.8763
 8230TIP3    H124654   0.713   5.795   4.513 -0.0934  0.0169  1.2705
 8230TIP3    H224655   0.863   5.788   4.501 -0.3301 -1.2880 -1.8026
 8231TIP3   OH224656   6.585   0.354   1.370 -0.0423 -0.7067 -0.2751
 8231TIP3    H124657   6.619   0.444   1.374 -0.8734 -0.3498 -0.8728
 8231TIP3    H224658   6.626   0.310   1.444  0.2309  0.2212  0.1477
 8232TIP3   OH224659   1.453   3.057   0.107  0.2241 -0.9144 -0.4827
 8232TIP3    H124660   1.440   3.105   0.189 -1.6441  0.9337 -1.7740
 8232TIP3    H224661   1.512   2.985   0.131  1.2203  0.6114  2.0732
 8233TIP3   OH224662   5.163   0.327   0.703  0.8088 -0.2452 -0.9086
 8233TIP3    H124663   5.145   0.375   0.784 -1.6972  0.9025 -2.0200
 8233TIP3    H224664   5.220   0.385   0.652  1.9089 -0.7148 -0.2438
 8234TIP3   OH224665   5.728   0.048   3.392  0.6389 -0.1004  0.0222
 8234TIP3    H124666   5.743   0.000   3.473  1.5609 -1.2020 -0.7741
 8234TIP3    H224667   5.804   0.029   3.337 -0.4243 -0.2162 -1.4914
 8235TIP3   OH224668   4.812   3.621   2.123 -0.9705  0.3646  0.1606
 8235TIP3    H124669   4.854   3.668   2.196  0.0587  0.2206 -0.3219
 8235TIP3    H224670   4.818   3.682   2.049 -0.6440 -0.0791 -0.1817
 8236TIP3   OH224671   4.749   2.078   3.797 -0.1365 -0.2026  0.1667
 8236TIP3    H124672   4.733   1.997   3.846 -1.0067 -1.5027 -2.1218
 8236TIP3    H224673   4.676   2.083   3.735  0.1832  2.0900 -0.0953
 8237TIP3   OH224674   3.490   3.182   5.186 -0.0606  0.5721 -0.2686
 8237TIP3    H124675   3.580   3.197   5.216  0.0876 -0.1533 -0.3287
 8237TIP3    H224676   3.456   3.115   5.246 -0.8864  1.5075  0.3451
 8238TIP3   OH224677   3.821   4.202   3.632 -0.1257  0.0692 -0.6509
 8238TIP3    H124678   3.814   4.186   3.726 -0.6278 -1.5784 -0.9350
 8238TIP3    H224679   3.897   4.259   3.623  0.5561 -0.5873  0.6758
 8239TIP3   OH224680   3.921   1.508   5.018  0.7706  0.1318 -0.2080
 8239TIP3    H124681   3.880   1.428   4.984 -2.2096  0.5082  2.0765
 8239TIP3    H224682   3.920   1.569   4.944 -1.0369 -0.5588 -0.8105
 8240TIP3   OH224683   3.120   1.311   0.668  0.2974  0.6595 -0.8305
 8240TIP3    H124684   3.074   1.298   0.751  1.0081 -0.2626 -0.5642
 8240TIP3    H224685   3.086   1.394   0.635 -1.6262 -0.0475 -0.7227
 8241TIP3   OH224686   1.899   4.206   1.152 -0.6454  0.3406 -0.7367
 8241TIP3    H124687   1.857   4.177   1.071  1.4942 -0.6719 -1.5576
 8241TIP3    H224688   1.967   4.141   1.169 -0.4126  1.0496  1.3757
 8242TIP3   OH224689   1.726   1.292   0.506 -0.2948 -0.1520  0.4679
 8242TIP3    H124690   1.700   1.370   0.554 -0.4299 -1.5795  2.8801
 8242TIP3    H224691   1.739   1.225   0.573  0.7219 -1.9813 -1.4072
 8243TIP3   OH224692   6.089   2.173   3.623 -0.2111  0.6545 -0.2248
 8243TIP3    H124693   6.164   2.228   3.600  0.2825  0.1255  0.0826
 8243TIP3    H224694   6.076   2.116   3.547  1.3307 -0.9964  0.6684
 8244TIP3   OH224695   5.255   3.531   2.086  0.2152  0.5359 -0.6239
 8244TIP3    H124696   5.302   3.525   2.169 -1.4427 -0.2950  0.3198
 8244TIP3    H224697   5.305   3.475   2.027  0.6486  0.0073  0.2161
 8245TIP3   OH224698   0.225   1.744   1.019 -0.4552  0.0792  0.1683
 8245TIP3    H124699   0.266   1.752   0.933 -1.0774  3.5464  0.0532
 8245TIP3    H224700   0.158   1.813   1.020 -2.9260 -2.1475  2.1750
 8246TIP3   OH224701   6.670   4.219   1.525 -0.3982 -0.4589 -0.5877
 8246TIP3    H124702   6.722   4.217   1.445 -0.6916 -0.8953 -0.7722
 8246TIP3    H224703   6.725   4.264   1.588 -0.6653  1.0460 -1.3847
 8247TIP3   OH224704   3.853   3.621   1.396  0.3736  0.0208  0.6126
 8247TIP3    H124705   3.876   3.699   1.346 -1.3529 -0.1009 -0.4405
 8247TIP3    H224706   3.792   3.573   1.340 -0.5609 -0.8097  2.2590
 8248TIP3   OH224707   5.622   3.372   1.397  0.2520  0.5623  0.1317
 8248TIP3    H124708   5.648   3.311   1.328 -1.5259  0.7161 -0.7361
 8248TIP3    H224709   5.548   3.330   1.441 -0.9103  1.9567 -0.3846
 8249TIP3   OH224710   4.253   4.765   3.793 -0.2590  0.3651  0.4762
 8249TIP3    H124711   4.293   4.843   3.833  0.5372  0.0515  0.3101
 8249TIP3    H224712   4.293   4.691   3.839  0.6637 -0.0044 -0.8451
 8250TIP3   OH224713   4.298   1.787   0.060  0.2340  0.0917 -0.1938
 8250TIP3    H124714   4.391   1.796   0.040  0.0640  1.2316 -0.5415
 8250TIP3    H224715   4.258   1.759  -0.023  0.2526 -0.2957 -0.0721
 8251TIP3   OH224716   0.374   5.533   5.220  0.2663 -0.1434  0.5033
 8251TIP3    H124717   0.445   5.581   5.263  0.7277 -0.0594 -0.3209
 8251TIP3    H224718   0.304   5.530   5.284  0.7415  0.4447  1.0564
 8252TIP3   OH224719   1.113   2.131   5.128  0.3392  0.2600 -0.0714
 8252TIP3    H124720   1.085   2.161   5.215 -0.7470  0.4516 -0.4635
 8252TIP3    H224721   1.146   2.042   5.143 -0.1886  0.1504  0.4892
 8253TIP3   OH224722   7.185   3.582   1.540  0.3534 -0.3226 -0.2239
 8253TIP3    H124723   7.180   3.656   1.600 -1.6989 -0.3656 -0.2781
 8253TIP3    H224724   7.207   3.621   1.455 -1.8125  0.4286 -0.4970
 8254TIP3   OH224725   4.665   0.469   4.250  0.5039 -0.5562 -0.3755
 8254TIP3    H124726   4.689   0.550   4.203 -0.0654 -0.3268 -0.2716
 8254TIP3    H224727   4.704   0.399   4.197 -0.0702 -0.2949 -1.1586
 8255TIP3   OH224728   0.025   5.270   4.350 -0.1447 -0.2161  0.3684
 8255TIP3    H124729  -0.011   5.208   4.286  0.1515  0.7634 -0.7614
 8255TIP3    H224730   0.015   5.225   4.434 -2.8692 -0.5267 -0.0250
 8256TIP3   OH224731   6.032   0.098   1.854  0.3692  0.1662 -0.0957
 8256TIP3    H124732   5.980   0.021   1.878 -0.0510  0.5924  0.3708
 8256TIP3    H224733   6.038   0.094   1.759  0.7491 -0.7013 -0.0503
 8257TIP3   OH224734   0.662   3.167   4.387  0.2869 -0.4573 -0.2031
 8257TIP3    H124735   0.592   3.217   4.429  0.4779 -1.7237  1.7481
 8257TIP3    H224736   0.686   3.219   4.311 -1.9294  0.6258 -0.2467
 8258TIP3   OH224737   4.292   5.001   2.650  0.4184  0.0125 -0.4268
 8258TIP3    H124738   4.380   5.015   2.616  0.4787 -0.8956 -0.6611
 8258TIP3    H224739   4.292   4.911   2.681 -0.8031 -0.4364 -1.6143
 8259TIP3   OH224740   2.897   0.061   4.866  0.3759  0.2718  0.2518
 8259TIP3    H124741   2.912   0.003   4.791  0.6557  0.4029  0.2042
 8259TIP3    H224742   2.813   0.102   4.847  0.6360  0.6091 -0.1928
 8260TIP3   OH224743   2.521   6.094   5.151 -0.6755 -0.2531 -0.1933
 8260TIP3    H124744   2.509   6.016   5.206 -1.8757 -0.2963 -0.4886
 8260TIP3    H224745   2.511   6.061   5.061  0.3279 -0.0132 -0.4041
 8261TIP3   OH224746   6.278   6.399   1.129 -0.1488  0.1228 -0.4003
 8261TIP3    H124747   6.368   6.404   1.096  0.3658 -0.3273  0.8479
 8261TIP3    H224748   6.233   6.339   1.070  0.7613 -0.7192 -0.2590
 8262TIP3   OH224749   5.138   2.290   4.168  0.5806  0.3516  0.0874
 8262TIP3    H124750   5.052   2.249   4.181  0.3350  0.6032 -0.6954
 8262TIP3    H224751   5.124   2.382   4.191  0.2811  0.6838 -1.3555
 8263TIP3   OH224752   6.102   6.431   5.783 -0.2382  0.5608 -0.3232
 8263TIP3    H124753   6.179   6.413   5.838 -1.5555  1.0636  1.7945
 8263TIP3    H224754   6.041   6.361   5.804 -0.4230  0.2192 -1.9280
 8264TIP3   OH224755   4.466   0.415   2.371  0.4352 -0.2124  0.4737
 8264TIP3    H124756   4.555   0.383   2.389  0.8985  0.4956 -0.4724
 8264TIP3    H224757   4.472   0.454   2.284 -0.8469 -0.2719  0.3484
 8265TIP3   OH224758   0.709   2.618   5.357 -0.3745 -0.8197 -0.3378
 8265TIP3    H124759   0.763   2.663   5.422 -0.6543 -1.1623  0.1381
 8265TIP3    H224760   0.766   2.550   5.320 -0.5187 -1.2845  0.2763
 8266TIP3   OH224761   3.272   6.685   0.395  0.4734 -0.1568  0.0797
 8266TIP3    H124762   3.217   6.688   0.317 -1.3356 -1.4472  1.2305
 8266TIP3    H224763   3.340   6.750   0.378 -1.6861  1.9575 -1.2208
 8267TIP3   OH224764   0.664   6.448   4.404 -0.1107 -0.0096 -0.5295
 8267TIP3    H124765   0.589   6.391   4.386 -0.9147  1.1808 -1.0903
 8267TIP3    H224766   0.694   6.422   4.491 -0.1032 -1.6388 -0.9850
 8268TIP3   OH224767   0.046   5.899   3.986  0.3159 -0.2187  0.2754
 8268TIP3    H124768  -0.034   5.951   3.988  0.9238  0.7257  0.6598
 8268TIP3    H224769   0.043   5.854   3.902 -1.8863 -2.2674  1.3332
 8269TIP3   OH224770   3.095   4.443   5.622 -0.1049  0.3242 -0.3087
 8269TIP3    H124771   3.021   4.460   5.563 -1.5195 -3.2435  0.1892
 8269TIP3    H224772   3.085   4.508   5.692 -1.6357  1.1471 -1.2250
 8270TIP3   OH224773   3.151   0.665   3.622 -0.4655  0.7144 -0.3271
 8270TIP3    H124774   3.192   0.592   3.668 -1.0659  1.2799  1.1628
 8270TIP3    H224775   3.224   0.714   3.584 -0.0958 -1.2397 -2.3717
 8271TIP3   OH224776   1.819   0.213   1.081  0.6258 -0.6531 -0.3202
 8271TIP3    H124777   1.894   0.266   1.052  0.5063  0.0321  0.5953
 8271TIP3    H224778   1.810   0.232   1.174 -1.7269  0.6046 -0.7140
 8272TIP3   OH224779   0.456   4.093   4.446 -0.4061  0.4135  0.4001
 8272TIP3    H124780   0.517   4.025   4.418 -0.2758  0.4426  0.6147
 8272TIP3    H224781   0.382   4.046   4.483 -1.0837  0.3312 -0.9818
 8273TIP3   OH224782   4.848   6.260   1.626  0.6082 -0.1334 -0.6578
 8273TIP3    H124783   4.891   6.194   1.680  0.3919  0.8942  0.8021
 8273TIP3    H224784   4.888   6.343   1.651 -0.3940  0.5273 -1.1394
 8274TIP3   OH224785   0.783   3.774   3.601 -0.0493  0.1969 -0.5912
 8274TIP3    H124786   0.866   3.767   3.648 -1.6441 -0.8209  2.3786
 8274TIP3    H224787   0.748   3.860   3.627 -1.6394 -0.9911  1.5370
 8275TIP3   OH224788   2.336   2.641   5.363 -0.2353  0.3032  0.4871
 8275TIP3    H124789   2.298   2.702   5.426 -2.0824  1.9430 -2.0382
 8275TIP3    H224790   2.261   2.610   5.311  1.4126  1.3496 -2.8025
 8276TIP3   OH224791   7.206   1.757   2.647  0.0746  0.0729 -0.7683
 8276TIP3    H124792   7.275   1.785   2.586 -1.0635  1.6983 -1.3809
 8276TIP3    H224793   7.127   1.753   2.593 -0.4384 -1.2773  0.0298
 8277TIP3   OH224794   6.210   5.875   2.310  0.3478 -0.2514 -0.3264
 8277TIP3    H124795   6.234   5.832   2.392 -0.5925 -0.1912 -0.0048
 8277TIP3    H224796   6.195   5.802   2.249 -1.6962 -0.4458  0.3455
 8278TIP3   OH224797   6.793   5.105   5.235  0.1884 -0.0847 -0.1850
 8278TIP3    H124798   6.783   5.061   5.319  0.2413  1.6269  0.7771
 8278TIP3    H224799   6.887   5.101   5.217  0.1151 -0.8697 -0.4061
 8279TIP3   OH224800   0.454   5.563   2.583 -0.3095 -0.8608  0.2913
 8279TIP3    H124801   0.519   5.555   2.512 -0.9973 -1.3660 -0.2999
 8279TIP3    H224802   0.384   5.504   2.557 -0.6358 -0.9486  1.3432
 8280TIP3   OH224803   5.871   1.154   1.046 -0.9386 -0.0324 -0.4829
 8280TIP3    H124804   5.839   1.170   0.957 -1.9573  1.2465  0.0728
 8280TIP3    H224805   5.909   1.238   1.073 -0.3187 -0.5140  0.1687
 8281TIP3   OH224806   3.227   6.120   0.320 -0.0957  0.5822  0.7509
 8281TIP3    H124807   3.135   6.137   0.299  0.0443  0.7270  0.2402
 8281TIP3    H224808   3.228   6.032   0.357 -0.2909  0.1464 -0.2669
 8282TIP3   OH224809   5.692   1.841   0.345 -0.7453 -0.0889  0.2702
 8282TIP3    H124810   5.652   1.814   0.428 -2.2109  0.3502 -0.2708
 8282TIP3    H224811   5.726   1.760   0.307  1.4983 -0.0850  2.0570
 8283TIP3   OH224812   5.866   0.804   2.343 -0.6074 -0.2927 -0.0972
 8283TIP3    H124813   5.850   0.795   2.436 -0.2695 -0.1759 -0.0264
 8283TIP3    H224814   5.962   0.802   2.334 -0.6431 -0.7365 -0.4825
 8284TIP3   OH224815   5.627   2.219   1.481 -0.2296 -0.0859  0.4048
 8284TIP3    H124816   5.640   2.312   1.499 -3.3119  0.7036 -0.7354
 8284TIP3    H224817   5.536   2.214   1.452 -0.1895 -3.5032  0.5460
 8285TIP3   OH224818   2.619   3.614   5.471  0.2332  0.1702  0.4397
 8285TIP3    H124819   2.670   3.620   5.551  0.3961  0.3236  0.3249
 8285TIP3    H224820   2.564   3.537   5.483  0.3268  0.1375  0.6575
 8286TIP3   OH224821   0.684   3.532   0.037 -0.2018 -0.3300 -0.1807
 8286TIP3    H124822   0.600   3.488   0.024  0.1213 -1.3880  0.9895
 8286TIP3    H224823   0.747   3.460   0.042  0.5714  0.3650  0.2712
 8287TIP3   OH224824   6.977   1.178   4.686 -0.1011  0.0470 -0.1269
 8287TIP3    H124825   6.960   1.260   4.733 -1.4622 -0.2637 -0.0339
 8287TIP3    H224826   6.898   1.164   4.633  0.7197 -0.4714 -1.2439
 8288TIP3   OH224827   4.984   5.270   4.062  0.1912 -0.3274 -0.1168
 8288TIP3    H124828   4.919   5.201   4.079  0.0203 -0.2107 -0.2901
 8288TIP3    H224829   5.067   5.232   4.090 -0.0135 -0.3184  0.5113
 8289TIP3   OH224830   1.955   4.399   1.975 -0.2967  0.2416 -0.0605
 8289TIP3    H124831   1.993   4.388   2.062  0.7646 -0.9689 -0.6323
 8289TIP3    H224832   1.963   4.492   1.956  0.1710  0.3897  0.8246
 8290TIP3   OH224833   4.383   6.613   2.326 -0.1809 -0.0646 -0.0933
 8290TIP3    H124834   4.425   6.696   2.302  2.1901 -0.6496  1.6967
 8290TIP3    H224835   4.295   6.637   2.353 -0.5526  1.4538 -2.3941
 8291TIP3   OH224836   3.287   4.044   3.900  0.7899  0.2144  0.0209
 8291TIP3    H124837   3.326   4.052   3.812 -3.4045 -1.8323 -2.3272
 8291TIP3    H224838   3.322   3.962   3.934 -0.6613 -1.1777 -1.6836
 8292TIP3   OH224839   2.738   1.626   1.443 -0.5331 -0.4368 -0.0794
 8292TIP3    H124840   2.751   1.711   1.401  0.6479 -0.3329  0.4712
 8292TIP3    H224841   2.685   1.645   1.520  0.0634 -0.1324  0.2606
 8293TIP3   OH224842   6.014   5.328   2.338 -0.1301  0.1025 -0.1038
 8293TIP3    H124843   6.086   5.391   2.343 -0.1452  0.2039 -1.0777
 8293TIP3    H224844   6.056   5.244   2.325 -0.0783 -0.2118  1.7522
 8294TIP3   OH224845   4.088   3.128   0.155 -0.3909 -0.2886  0.3067
 8294TIP3    H124846   4.106   3.131   0.249  0.4738  1.4597  0.1361
 8294TIP3    H224847   4.160   3.077   0.119  0.1090  0.3026  0.4472
 8295TIP3   OH224848   1.168   3.136   4.873 -0.8127 -0.0183 -0.3242
 8295TIP3    H124849   1.077   3.166   4.878 -0.7292  0.3438 -0.9180
 8295TIP3    H224850   1.185   3.126   4.780 -0.3239 -0.3458 -0.2011
 8296TIP3   OH224851   3.277   5.032   3.367 -0.3771 -0.2027 -0.2203
 8296TIP3    H124852   3.220   5.043   3.443 -0.9827 -1.6910 -0.4289
 8296TIP3    H224853   3.233   4.967   3.313  2.4034 -2.9578  0.5509
 8297TIP3   OH224854   4.563   3.766   5.101  0.3558 -0.1842  0.1140
 8297TIP3    H124855   4.564   3.807   5.187  1.0905 -1.2766  0.6597
 8297TIP3    H224856   4.581   3.837   5.040 -1.0764  0.7873  0.7488
 8298TIP3   OH224857   0.460   1.653   1.821  0.3094 -0.2153  0.0306
 8298TIP3    H124858   0.478   1.587   1.754 -0.1240  0.0471 -0.3515
 8298TIP3    H224859   0.437   1.732   1.772 -0.6797 -0.2083  0.4689
 8299TIP3   OH224860   1.438   3.160   4.230 -0.0899  0.1015 -0.1735
 8299TIP3    H124861   1.417   3.235   4.286 -1.4454 -0.1834 -0.2778
 8299TIP3    H224862   1.383   3.172   4.152  0.7754 -0.2250 -0.8514
 8300TIP3   OH224863   1.758   0.460   5.041  0.1674 -0.2054 -0.3861
 8300TIP3    H124864   1.695   0.389   5.030  0.7265 -0.5486 -1.6213
 8300TIP3    H224865   1.744   0.516   4.964 -0.4702  1.2109  0.7151
 8301TIP3   OH224866   1.773   2.419   5.711  0.2960  0.8521  0.1572
 8301TIP3    H124867   1.833   2.469   5.766  0.1792 -1.7627  2.8639
 8301TIP3    H224868   1.734   2.354   5.769 -1.1577 -1.0446 -2.6720
 8302TIP3   OH224869   6.034   2.253   0.868  0.7195 -0.1024  0.1598
 8302TIP3    H124870   6.006   2.328   0.815  2.1431 -0.9501 -1.9562
 8302TIP3    H224871   6.126   2.269   0.886  0.7429 -0.7913  0.7210
 8303TIP3   OH224872   6.382   0.762   1.962  0.2068 -0.0878  0.3816
 8303TIP3    H124873   6.406   0.811   2.041  1.8280  0.7360 -0.5604
 8303TIP3    H224874   6.421   0.812   1.890 -4.2361  1.2459 -1.4306
 8304TIP3   OH224875   4.136   0.868   0.466 -0.1003  0.0792  0.0469
 8304TIP3    H124876   4.213   0.894   0.516 -0.9225 -0.7734  1.8561
 8304TIP3    H224877   4.065   0.867   0.531 -1.2645 -0.8953 -1.1833
 8305TIP3   OH224878   0.014   2.610   4.090  0.3026 -0.0834 -0.5762
 8305TIP3    H124879  -0.055   2.671   4.112  0.4151 -0.4632  0.9177
 8305TIP3    H224880   0.081   2.664   4.047 -0.7690  0.3218 -1.8206
 8306TIP3   OH224881   4.342   0.356   5.760 -0.1329 -0.2327  0.3352
 8306TIP3    H124882   4.352   0.352   5.855 -1.6632 -2.7752  0.4881
 8306TIP3    H224883   4.432   0.351   5.726  0.6548  3.0133  1.5413
 8307TIP3   OH224884   5.231   6.423   4.147 -0.6786 -0.2223 -0.3324
 8307TIP3    H124885   5.198   6.416   4.236 -1.1420 -0.5876 -0.5264
 8307TIP3    H224886   5.303   6.485   4.152 -0.2851 -0.7297  0.4074
 8308TIP3   OH224887   4.713   1.100   2.433 -0.0987  0.1795  0.0649
 8308TIP3    H124888   4.693   1.194   2.427 -1.5068 -0.0753  0.2676
 8308TIP3    H224889   4.636   1.058   2.395 -1.0453 -0.9724  2.9638
 8309TIP3   OH224890   2.104   1.624   1.211 -0.0205 -0.5590  0.2615
 8309TIP3    H124891   2.084   1.704   1.260  0.7252 -1.3415  1.8797
 8309TIP3    H224892   2.199   1.625   1.200  0.0029 -1.2855  0.3893
 8310TIP3   OH224893   2.037   5.194   0.657  0.2741 -0.3303 -0.1269
 8310TIP3    H124894   2.015   5.120   0.713 -3.7483  1.4694  1.0029
 8310TIP3    H224895   2.023   5.162   0.568 -0.9610 -1.0928  0.3231
 8311TIP3   OH224896   2.641   1.889   3.111  0.0770  0.4275 -0.0642
 8311TIP3    H124897   2.714   1.839   3.074  0.1846  0.9019 -0.5104
 8311TIP3    H224898   2.606   1.834   3.181  0.5834  0.0045 -0.1441
 8312TIP3   OH224899   6.048   1.764   2.532 -0.2286  0.5951 -0.0690
 8312TIP3    H124900   5.966   1.725   2.560 -1.1660  3.3165  1.3594
 8312TIP3    H224901   6.115   1.718   2.583 -1.1950  0.3338  1.0038
 8313TIP3   OH224902   1.485   3.565   5.656 -0.4645 -0.0570 -0.0629
 8313TIP3    H124903   1.435   3.636   5.615  1.2767  0.7635 -0.8772
 8313TIP3    H224904   1.498   3.595   5.747  0.0122  0.5416 -0.3208
 8314TIP3   OH224905   3.292   1.537   5.476 -0.2094 -0.2277  0.4550
 8314TIP3    H124906   3.378   1.519   5.514 -0.3703 -2.0123  0.0649
 8314TIP3    H224907   3.235   1.554   5.551 -0.1397 -1.9730  0.9414
 8315TIP3   OH224908   5.259   0.412   3.111  0.5018 -0.4412 -0.5825
 8315TIP3    H124909   5.165   0.405   3.126  0.7382  0.1558  1.4450
 8315TIP3    H224910   5.284   0.327   3.073 -0.6338 -1.1077  0.1112
 8316TIP3   OH224911   6.219   4.196   3.219 -0.4936  0.3920  0.0500
 8316TIP3    H124912   6.188   4.234   3.137 -2.5554 -1.4696 -0.1222
 8316TIP3    H224913   6.246   4.107   3.196  0.0404  0.2458  1.1784
 8317TIP3   OH224914   6.113   3.589   2.501  0.5828 -0.1411  0.1417
 8317TIP3    H124915   6.167   3.556   2.429 -1.8296 -0.8620 -1.4967
 8317TIP3    H224916   6.044   3.640   2.457 -0.9255 -0.5062  1.9467
 8318TIP3   OH224917   3.364   4.522   5.607  0.4478  0.0435  0.6774
 8318TIP3    H124918   3.343   4.591   5.670 -0.4548  0.5523 -0.1582
 8318TIP3    H224919   3.281   4.502   5.564  1.0411 -0.2633 -0.3709
 8319TIP3   OH224920   3.248   3.813   0.780 -0.0856  0.7434  0.0195
 8319TIP3    H124921   3.195   3.876   0.829 -0.8107 -0.5746  1.0114
 8319TIP3    H224922   3.185   3.746   0.752  0.7151  0.2867 -0.7292
 8320TIP3   OH224923   5.946   4.563   3.359  0.7270 -0.2383 -0.1537
 8320TIP3    H124924   5.869   4.540   3.411  1.1305 -0.6860  0.2537
 8320TIP3    H224925   5.949   4.495   3.291  1.1346 -0.6127  0.2290
 8321TIP3   OH224926   0.151   6.414   2.216 -0.4418  0.7256  0.2411
 8321TIP3    H124927   0.082   6.350   2.231  1.7435 -1.9936 -0.4044
 8321TIP3    H224928   0.192   6.387   2.134  0.7769  2.8470  0.0525
 8322TIP3   OH224929   2.789   5.909   4.725  0.0883 -0.1375  0.6094
 8322TIP3    H124930   2.698   5.879   4.728 -0.1032  0.4432  0.6831
 8322TIP3    H224931   2.797   5.968   4.800  0.4210  0.1158  0.3751
 8323TIP3   OH224932   3.014   4.524   4.771 -0.0648 -0.0837  0.3877
 8323TIP3    H124933   3.014   4.515   4.675 -1.1820 -0.5861  0.4100
 8323TIP3    H224934   3.099   4.561   4.792  0.6713 -1.0962 -0.6995
 8324TIP3   OH224935   6.445   5.816   5.814 -0.2040  0.2855  0.0647
 8324TIP3    H124936   6.401   5.897   5.789 -0.1525 -0.2661 -1.9185
 8324TIP3    H224937   6.387   5.747   5.782  0.6194 -0.4599  0.1518
 8325TIP3   OH224938   3.467   1.318   4.300  0.0682 -0.2540  0.3052
 8325TIP3    H124939   3.462   1.223   4.315 -1.6369 -0.4717 -1.2627
 8325TIP3    H224940   3.496   1.326   4.209 -2.1735  0.6047 -0.4040
 8326TIP3   OH224941   1.329   2.901   4.971 -0.5586 -0.3015 -0.5814
 8326TIP3    H124942   1.272   2.843   5.021  1.5813 -1.3671  0.7631
 8326TIP3    H224943   1.281   2.984   4.968 -2.3611 -1.2549  0.0753
 8327TIP3   OH224944   4.332   6.305   0.451  0.3666 -0.0869  0.1201
 8327TIP3    H124945   4.353   6.376   0.390  0.4315  0.6067  0.9281
 8327TIP3    H224946   4.238   6.310   0.462  0.6304  1.7501  2.3402
 8328TIP3   OH224947   2.374   0.549   0.703 -0.6908  0.0592  0.5233
 8328TIP3    H124948   2.459   0.591   0.691 -0.6775 -0.1779 -0.2583
 8328TIP3    H224949   2.394   0.456   0.714 -0.9277 -0.1900 -1.0365
 8329TIP3   OH224950   3.063   4.596   2.629 -0.0862 -0.3812 -0.0117
 8329TIP3    H124951   2.973   4.575   2.650 -0.4745  0.8478 -0.3325
 8329TIP3    H224952   3.100   4.515   2.594 -1.3454 -0.6605 -0.7540
 8330TIP3   OH224953   5.681   2.036   1.988  0.6248 -0.0432  0.4930
 8330TIP3    H124954   5.612   2.080   2.038 -0.5470 -1.8113  0.5037
 8330TIP3    H224955   5.715   1.970   2.049 -1.3779 -2.7965 -1.1968
 8331TIP3   OH224956   3.461   0.967   5.584  0.1379 -0.4054  0.1509
 8331TIP3    H124957   3.507   0.926   5.511  0.6899  0.2535  0.1155
 8331TIP3    H224958   3.504   1.052   5.594  1.4832 -1.2870  2.5782
 8332TIP3   OH224959   5.434   1.459   5.906  0.0712 -0.5059 -0.1641
 8332TIP3    H124960   5.353   1.465   5.856 -0.2747  0.8915  0.5179
 8332TIP3    H224961   5.488   1.531   5.874  0.2258 -0.1792  0.7747
 8333TIP3   OH224962   5.259   5.190   0.831  1.0633  0.4102 -0.4553
 8333TIP3    H124963   5.205   5.123   0.874  0.2712  1.8013  0.8366
 8333TIP3    H224964   5.203   5.268   0.831  2.4423  1.4246 -0.7161
 8334TIP3   OH224965   0.086   2.417   0.719 -0.3890 -0.0812 -0.3739
 8334TIP3    H124966   0.179   2.436   0.712 -0.5412  0.3073 -1.5789
 8334TIP3    H224967   0.045   2.475   0.655 -1.6985  1.3902  1.6643
 8335TIP3   OH224968   5.633  -0.021   5.676 -0.3164 -0.2088 -0.2905
 8335TIP3    H124969   5.697   0.001   5.745 -2.7882  0.7197  1.8820
 8335TIP3    H224970   5.617   0.061   5.631 -0.9727 -0.1109  0.1058
 8336TIP3   OH224971   2.477   4.144   1.895 -0.4980 -0.0718  0.1239
 8336TIP3    H124972   2.462   4.195   1.974 -1.1404  0.7412 -0.5063
 8336TIP3    H224973   2.561   4.174   1.862 -0.1809 -0.4833  0.5347
 8337TIP3   OH224974   2.494   3.183   3.924  0.3524 -0.1690 -0.2769
 8337TIP3    H124975   2.579   3.141   3.935  1.7784  1.7655 -2.8514
 8337TIP3    H224976   2.508   3.274   3.951 -0.9788  0.1397 -0.5397
 8338TIP3   OH224977   0.232   2.548   1.586  0.2087 -0.2990 -0.0435
 8338TIP3    H124978   0.281   2.630   1.585 -0.5033  0.1295 -0.6073
 8338TIP3    H224979   0.263   2.501   1.508 -0.1113 -0.1243 -0.2775
 8339TIP3   OH224980   2.094   1.158   0.522  0.1732 -0.5578 -0.0227
 8339TIP3    H124981   2.016   1.109   0.498  0.4128 -1.6672  1.3334
 8339TIP3    H224982   2.167   1.097   0.506  0.7148  0.2466 -0.6986
 8340TIP3   OH224983   4.405   1.241   3.705  0.1631 -0.2455  0.3428
 8340TIP3    H124984   4.365   1.191   3.634  0.6715 -0.1151 -0.0422
 8340TIP3    H224985   4.440   1.319   3.663  1.3937 -0.6621  0.5423
 8341TIP3   OH224986   6.070   5.020   4.425 -0.0284 -0.0221 -0.0444
 8341TIP3    H124987   5.983   5.053   4.403 -0.5069 -0.4815  1.0781
 8341TIP3    H224988   6.054   4.930   4.455  1.1097 -0.9368 -2.0008
 8342TIP3   OH224989   2.776   2.920   0.532 -0.3111 -0.1666  0.1089
 8342TIP3    H124990   2.703   2.961   0.487 -0.3442 -0.3852 -0.0395
 8342TIP3    H224991   2.765   2.945   0.624  0.9996  2.1557 -0.2708
 8343TIP3   OH224992   3.157   5.407   1.495 -0.1888 -0.2066 -0.2571
 8343TIP3    H124993   3.239   5.434   1.535  1.6035 -0.6449 -3.3236
 8343TIP3    H224994   3.179   5.390   1.403 -3.6614 -0.6267 -1.1675
 8344TIP3   OH224995   1.483   4.051   1.119  0.0746 -0.0453  0.0426
 8344TIP3    H124996   1.411   4.089   1.168  1.0401  2.2874 -0.1999
 8344TIP3    H224997   1.532   3.999   1.183 -1.5247 -1.3246  0.2941
 8345TIP3   OH224998   4.133   2.133   5.213  0.6946 -0.8113 -0.2847
 8345TIP3    H124999   4.225   2.117   5.192  1.0436 -0.0379  0.5902
 8345TIP3    H225000   4.104   2.195   5.147  1.0146 -0.4996 -0.1394
 8346TIP3   OH225001   6.729   1.073   5.398  0.1395 -0.5150 -0.0872
 8346TIP3    H125002   6.648   1.117   5.425  0.2537 -0.6053  0.4090
 8346TIP3    H225003   6.731   1.083   5.303 -0.5194 -0.6231 -0.1138
 8347TIP3   OH225004   0.121   3.830   5.313 -0.0449  0.0904 -0.1518
 8347TIP3    H125005   0.141   3.909   5.262 -3.5176  0.3087 -1.4091
 8347TIP3    H225006   0.057   3.858   5.378 -0.9205 -1.5542 -0.2438
 8348TIP3   OH225007   5.676   4.907   0.313  0.2418  0.1989 -0.0498
 8348TIP3    H125008   5.610   4.921   0.380 -1.5954 -0.3650 -1.6623
 8348TIP3    H225009   5.646   4.830   0.265  2.0371 -0.0330 -0.9028
 8349TIP3   OH225010   1.719   5.387   1.104 -0.4095  0.1395  0.4109
 8349TIP3    H125011   1.727   5.343   1.019 -1.2863  0.0684  0.3571
 8349TIP3    H225012   1.802   5.433   1.115  1.0559 -2.4624  1.0385
 8350TIP3   OH225013   6.498   5.801   4.340 -0.4233  0.3243  0.0623
 8350TIP3    H125014   6.559   5.749   4.393  1.5195  2.1820 -0.2185
 8350TIP3    H225015   6.550   5.829   4.265 -1.1129  3.2648  0.5760
 8351TIP3   OH225016   0.625   0.513   4.860 -0.0758  0.2471 -0.3120
 8351TIP3    H125017   0.598   0.605   4.850  0.8658  0.3233 -3.3009
 8351TIP3    H225018   0.720   0.515   4.849  0.4114 -0.7965  2.9444
 8352TIP3   OH225019   2.872   5.129   3.038 -0.0315 -0.1811 -0.1913
 8352TIP3    H125020   2.897   5.037   3.046  0.3855 -0.1831 -1.3057
 8352TIP3    H225021   2.805   5.142   3.105 -1.1905 -1.6902 -0.9847
 8353TIP3   OH225022   6.494   1.804   3.329  0.7299 -0.0319  0.4360
 8353TIP3    H125023   6.478   1.775   3.419  0.1527  1.7143  0.9307
 8353TIP3    H225024   6.587   1.787   3.315  0.5956 -1.3596  0.9378
 8354TIP3   OH225025   0.465   3.342   0.911 -0.3395  0.4085 -0.4858
 8354TIP3    H125026   0.521   3.265   0.920 -1.7798 -0.8421 -1.6706
 8354TIP3    H225027   0.484   3.375   0.823  1.8074  2.7721  0.7167
 8355TIP3   OH225028   0.735   0.596   0.682  0.5417  0.2786 -0.0365
 8355TIP3    H125029   0.792   0.520   0.671 -0.7544 -1.6176  4.2826
 8355TIP3    H225030   0.647   0.563   0.668  0.0603  1.5884 -0.2767
 8356TIP3   OH225031   5.060   6.281   3.224 -0.6164  0.3442 -0.3857
 8356TIP3    H125032   5.140   6.321   3.260 -1.7783  3.6663 -1.1373
 8356TIP3    H225033   5.069   6.291   3.129 -1.7055  0.3304 -0.5013
 8357TIP3   OH225034   6.394   4.826  -0.026  0.4055 -0.0803 -0.0785
 8357TIP3    H125035   6.376   4.746   0.023  0.6075  0.5538  1.0718
 8357TIP3    H225036   6.476   4.859   0.010 -1.4856  2.6494  2.2794
 8358TIP3   OH225037   2.700   3.106   2.474  0.0436  0.2359 -0.3201
 8358TIP3    H125038   2.623   3.128   2.526  0.0185 -0.9378  0.1864
 8358TIP3    H225039   2.677   3.024   2.430  0.6725  0.3423 -0.8667
 8359TIP3   OH225040   3.056   1.784   3.692 -0.2658  0.3245 -0.1889
 8359TIP3    H125041   3.064   1.701   3.646 -1.1963  0.2385 -0.2009
 8359TIP3    H225042   3.075   1.850   3.625  2.2952  0.1182  0.2153
 8360TIP3   OH225043   1.881   2.831   4.555  0.0337 -0.2391 -0.1264
 8360TIP3    H125044   1.817   2.806   4.488  0.8394  1.1916 -1.4742
 8360TIP3    H225045   1.939   2.893   4.512  1.3166 -0.1872  1.5685
 8361TIP3   OH225046   7.125   0.555   1.531 -0.4202  0.0418 -0.1012
 8361TIP3    H125047   7.153   0.549   1.622  0.0924 -0.5766 -0.2915
 8361TIP3    H225048   7.202   0.527   1.480 -1.4020 -1.8351 -0.6440
 8362TIP3   OH225049   1.860   2.458   5.163 -0.6043  0.2138  0.2096
 8362TIP3    H125050   1.766   2.444   5.177 -0.3941 -0.8163  0.6966
 8362TIP3    H225051   1.872   2.448   5.068 -0.8435 -0.6265  0.2621
 8363TIP3   OH225052   0.525   6.417   4.842  0.4969  0.2648 -0.0922
 8363TIP3    H125053   0.536   6.428   4.936  0.7834  2.6218 -0.3334
 8363TIP3    H225054   0.443   6.462   4.822  0.2003 -0.6130 -0.9238
 8364TIP3   OH225055   4.866   3.646   3.338  0.3529 -0.2301 -0.1574
 8364TIP3    H125056   4.773   3.665   3.351  0.0295 -1.4463 -0.5527
 8364TIP3    H225057   4.911   3.704   3.399 -0.5561  1.5662 -1.0902
 8365TIP3   OH225058   0.416   6.717   2.139 -0.0217  0.4446 -0.0404
 8365TIP3    H125059   0.377   6.804   2.129  0.7208  1.2212  2.8917
 8365TIP3    H225060   0.507   6.729   2.110 -0.3721  0.1490 -1.3138
 8366TIP3   OH225061   0.321   5.810   2.333  0.3208  0.1957  0.1402
 8366TIP3    H125062   0.309   5.791   2.240 -0.5664 -1.8460  0.5997
 8366TIP3    H225063   0.415   5.801   2.347  0.4468  0.3780 -0.5386
 8367TIP3   OH225064   2.134   3.345   0.120 -0.1360  0.1166  0.5868
 8367TIP3    H125065   2.122   3.288   0.196  3.1838  1.0982  2.0073
 8367TIP3    H225066   2.192   3.296   0.062  1.5365  1.3872  1.1334
 8368TIP3   OH225067   1.900   2.914   1.417 -0.3157  0.3381  0.3371
 8368TIP3    H125068   1.874   2.950   1.333  1.2761  0.2084 -0.2369
 8368TIP3    H225069   1.950   2.984   1.459  0.4848 -0.2328  0.3628
 8369TIP3   OH225070   6.292   0.225   1.906 -0.0404  0.5896 -0.0496
 8369TIP3    H125071   6.275   0.302   1.960 -0.8030  0.1719  0.3317
 8369TIP3    H225072   6.206   0.184   1.895  0.4404 -0.5722  0.3196
 8370TIP3   OH225073   5.796   5.733   4.451  0.0174  0.3273  0.1149
 8370TIP3    H125074   5.853   5.720   4.526 -1.3173  0.0999  1.1299
 8370TIP3    H225075   5.747   5.813   4.472 -0.1999  0.3981 -0.6339
 8371TIP3   OH225076   4.372   3.809   1.010  0.1152 -0.0076  0.2732
 8371TIP3    H125077   4.320   3.814   1.090  0.7725 -1.0921  0.7946
 8371TIP3    H225078   4.426   3.887   1.011 -2.3657  1.8558 -0.9459
 8372TIP3   OH225079   1.313   1.616   5.355 -0.4856  0.7525  1.2201
 8372TIP3    H125080   1.219   1.602   5.341 -0.6218  2.7725 -0.4265
 8372TIP3    H225081   1.351   1.614   5.267  1.0440  0.0130  1.8627
 8373TIP3   OH225082   6.157   6.014   5.474  0.0282  0.1275 -0.5599
 8373TIP3    H125083   6.201   6.004   5.558  2.6136 -1.3717 -1.9723
 8373TIP3    H225084   6.066   5.989   5.491  0.5392 -0.4227  1.6976
 8374TIP3   OH225085   6.828   4.785   2.248  0.1921  0.4640 -0.2392
 8374TIP3    H125086   6.860   4.711   2.301  0.5122  0.1491 -0.8657
 8374TIP3    H225087   6.810   4.854   2.312 -0.7458 -0.3734  0.4362
 8375TIP3   OH225088   4.032   3.711   2.427  0.1600 -0.1158  0.0032
 8375TIP3    H125089   4.125   3.735   2.421  0.0386  0.2149 -0.6423
 8375TIP3    H225090   3.986   3.780   2.379 -0.2978 -0.9830 -0.8372
 8376TIP3   OH225091   1.827   0.095   5.702 -0.2652 -0.0534  0.1587
 8376TIP3    H125092   1.808   0.046   5.782  1.7401 -0.7960  0.2539
 8376TIP3    H225093   1.752   0.080   5.646 -1.1724 -0.5261  1.4463
 8377TIP3   OH225094   2.329   0.427   3.808  0.3857  0.1424 -0.6010
 8377TIP3    H125095   2.294   0.346   3.772 -3.4244  1.8823 -1.3646
 8377TIP3    H225096   2.346   0.408   3.900  0.1023 -1.6215 -0.8888
 8378TIP3   OH225097   3.675   0.127   2.518  0.4302 -0.2495  0.0639
 8378TIP3    H125098   3.614   0.127   2.591  0.8967 -1.2781  0.4740
 8378TIP3    H225099   3.713   0.215   2.518 -0.6982  0.2473  0.0881
 8379TIP3   OH225100   3.858   0.129   4.626 -0.4399 -0.0253  0.3495
 8379TIP3    H125101   3.805   0.133   4.706  3.3512  1.0950  3.1039
 8379TIP3    H225102   3.895   0.217   4.618  0.2172 -0.4530 -2.0481
 8380TIP3   OH225103   5.553   6.397   5.334 -0.2029 -0.0950 -0.0200
 8380TIP3    H125104   5.544   6.328   5.400 -1.3640 -0.6780 -0.7476
 8380TIP3    H225105   5.629   6.371   5.282 -0.2927 -0.5268  0.0592
 8381TIP3   OH225106   5.366   3.391   4.635  0.6715 -0.3743 -0.2277
 8381TIP3    H125107   5.367   3.431   4.722  2.1433 -1.4172  0.2613
 8381TIP3    H225108   5.447   3.421   4.593  0.6889 -1.0435 -0.6866
 8382TIP3   OH225109   5.788   5.082   4.437  0.6927  0.6041 -1.1282
 8382TIP3    H125110   5.747   5.153   4.486  0.1764  0.0669 -0.7594
 8382TIP3    H225111   5.769   5.003   4.489  2.9926  0.4276 -0.4465
 8383TIP3   OH225112   2.835   0.973   4.621  0.4608  0.2512  0.5818
 8383TIP3    H125113   2.809   0.898   4.675 -0.7220 -0.5810 -1.0503
 8383TIP3    H225114   2.789   1.048   4.660 -1.7538 -0.6199 -0.1707
 8384TIP3   OH225115   3.213   3.355   2.316 -0.8064  0.2752 -1.0616
 8384TIP3    H125116   3.190   3.341   2.224 -1.7567 -1.8651 -0.5555
 8384TIP3    H225117   3.190   3.273   2.360  0.4627  0.9132  0.9484
 8385TIP3   OH225118   5.353   5.077   1.990 -0.5508  0.3663 -0.3832
 8385TIP3    H125119   5.320   5.057   2.077  3.2214 -0.8458  0.9421
 8385TIP3    H225120   5.391   5.164   1.997  1.9518 -0.6656  0.0367
 8386TIP3   OH225121   5.016   6.090   2.602 -0.9192  0.3230  0.7366
 8386TIP3    H125122   5.097   6.060   2.561 -1.2802 -0.8847  0.8404
 8386TIP3    H225123   5.044   6.133   2.683 -0.3980 -1.2572  1.4569
 8387TIP3   OH225124   5.708   0.797   4.514 -0.0361 -0.0104  0.4659
 8387TIP3    H125125   5.746   0.761   4.434 -0.5470  1.7153 -0.5985
 8387TIP3    H225126   5.777   0.787   4.580  1.3043  0.7070 -0.7877
 8388TIP3   OH225127   2.228   5.559   2.860 -0.4436  0.6963  0.0875
 8388TIP3    H125128   2.199   5.606   2.938 -0.0597  1.1985 -0.0658
 8388TIP3    H225129   2.295   5.499   2.891  0.9457  2.1103 -0.1024
 8389TIP3   OH225130   5.515   6.719   5.811  0.2800  0.1971 -0.1367
 8389TIP3    H125131   5.595   6.764   5.783  0.2086 -0.3077 -1.1976
 8389TIP3    H225132   5.465   6.706   5.731 -0.9397  0.6028  0.5202
 8390TIP3   OH225133   2.953   2.198   1.398  0.0145 -0.3126  0.2825
 8390TIP3    H125134   2.981   2.111   1.369  0.5619 -1.1474  2.9668
 8390TIP3    H225135   3.029   2.254   1.382  0.5036 -0.8743  0.5790
 8391TIP3   OH225136   6.817   3.807   5.478  0.6190  0.3833 -0.2715
 8391TIP3    H125137   6.821   3.807   5.383  0.2962 -0.4895 -0.2961
 8391TIP3    H225138   6.900   3.845   5.506  1.0271 -0.0422 -0.8904
 8392TIP3   OH225139   4.368   5.461   5.267  0.4302 -0.0348  0.3615
 8392TIP3    H125140   4.362   5.556   5.263  2.3539  0.1159  0.3741
 8392TIP3    H225141   4.340   5.432   5.180 -0.3940  0.5142  0.4349
 8393TIP3   OH225142   3.692   3.499   5.033  0.2880  0.4211 -0.0570
 8393TIP3    H125143   3.723   3.491   5.123  0.5566  2.1404  0.0334
 8393TIP3    H225144   3.768   3.480   4.979  0.3114  0.1211  0.0774
 8394TIP3   OH225145   1.247   0.035   2.376  0.6620 -0.3225 -0.4499
 8394TIP3    H125146   1.280  -0.050   2.347 -0.6531 -1.3516  0.9333
 8394TIP3    H225147   1.284   0.098   2.313  2.9097 -1.7042 -0.6108
 8395TIP3   OH225148   6.302   1.864   0.975  0.7882 -0.0995 -0.7370
 8395TIP3    H125149   6.262   1.886   0.891 -1.0944 -1.3367 -0.2214
 8395TIP3    H225150   6.393   1.893   0.967  0.3210  0.9628 -2.7173
 8396TIP3   OH225151   2.962   1.878   0.945  0.0765  0.1830 -0.0958
 8396TIP3    H125152   2.946   1.967   0.912 -1.1194  0.1121  0.2545
 8396TIP3    H225153   2.943   1.821   0.870 -1.3218  0.1035  0.2991
 8397TIP3   OH225154   4.070   5.961   3.544  0.1470 -1.0317  0.6631
 8397TIP3    H125155   4.003   5.933   3.482 -0.9792  0.7196  1.0238
 8397TIP3    H225156   4.119   5.881   3.565 -1.4212 -2.2293 -0.0751
 8398TIP3   OH225157   3.145   1.368   3.205  0.3594 -0.3085 -0.1274
 8398TIP3    H125158   3.090   1.443   3.227 -0.8506 -1.4838  1.0555
 8398TIP3    H225159   3.116   1.342   3.118 -0.2777 -0.3354  0.0934
 8399TIP3   OH225160   0.620   2.095   3.377  0.4793 -0.3129 -0.1145
 8399TIP3    H125161   0.628   2.187   3.350  2.8035 -0.4009  0.0368
 8399TIP3    H225162   0.677   2.089   3.455  0.9448 -2.0221 -0.5581
 8400TIP3   OH225163   3.717   5.620   2.266 -0.5881 -0.1568  0.7618
 8400TIP3    H125164   3.698   5.591   2.355  4.7012  0.9878  2.6454
 8400TIP3    H225165   3.679   5.708   2.262  1.7014  1.1465  3.3655
 8401TIP3   OH225166   6.876   3.301   5.196  0.0531  0.1966 -0.0786
 8401TIP3    H125167   6.797   3.258   5.164  0.2545 -0.6285  0.5217
 8401TIP3    H225168   6.847   3.388   5.223 -0.5156  0.1431 -0.5174
 8402TIP3   OH225169  -0.010   6.062   3.157 -0.0285 -0.2197 -0.2759
 8402TIP3    H125170   0.069   6.013   3.136 -0.7801 -1.8706  0.5814
 8402TIP3    H225171  -0.054   6.073   3.073  2.0642  2.6759 -1.1826
 8403TIP3   OH225172   4.059   5.815   5.320 -0.0234 -0.0819 -0.0420
 8403TIP3    H125173   4.063   5.780   5.231 -1.6513  0.2472 -0.2794
 8403TIP3    H225174   3.996   5.758   5.365  3.4923 -2.6404  2.0905
 8404TIP3   OH225175   0.694   2.004   4.696 -0.4664 -0.3002  0.4087
 8404TIP3    H125176   0.653   1.979   4.778 -2.4332  0.9658 -0.1108
 8404TIP3    H225177   0.734   2.088   4.714  0.1311 -0.5711  0.3638
 8405TIP3   OH225178   2.602   5.391   4.238 -0.4858 -0.1846 -0.1414
 8405TIP3    H125179   2.671   5.396   4.172 -0.5784  1.9477 -0.1623
 8405TIP3    H225180   2.540   5.326   4.203 -0.3052  0.5479 -1.9505
 8406TIP3   OH225181   0.308   6.402   0.788  0.6276  0.1379 -0.1909
 8406TIP3    H125182   0.334   6.493   0.799  1.4454 -0.1667  0.5251
 8406TIP3    H225183   0.220   6.397   0.825  0.0657  0.8759 -1.3446
 8407TIP3   OH225184   0.227   1.538   5.637 -0.4719 -0.5395 -0.0435
 8407TIP3    H125185   0.147   1.491   5.613 -1.9123  2.8693 -2.9467
 8407TIP3    H225186   0.290   1.514   5.569 -1.4949  1.9974 -2.0851
 8408TIP3   OH225187   6.482   3.273   1.147  0.3018 -0.0798  0.0482
 8408TIP3    H125188   6.424   3.204   1.117  1.0508 -0.5568 -0.3455
 8408TIP3    H225189   6.569   3.246   1.117  0.8595  0.1703  1.3635
 8409TIP3   OH225190   1.422   2.733   2.403 -0.1602 -0.4963 -0.2515
 8409TIP3    H125191   1.476   2.658   2.380 -0.5578 -0.8210 -0.1410
 8409TIP3    H225192   1.476   2.809   2.382 -0.7509 -0.7211 -2.9973
 8410TIP3   OH225193   0.893   2.315   4.283  0.3536  0.2277 -0.3494
 8410TIP3    H125194   0.927   2.374   4.215  1.9812  0.6458  0.7729
 8410TIP3    H225195   0.801   2.303   4.259  0.0784  2.7745 -0.9562
 8411TIP3   OH225196   1.555   5.197   5.803 -0.3230 -0.1385  0.6923
 8411TIP3    H125197   1.499   5.140   5.750 -0.0761 -0.0117  0.2883
 8411TIP3    H225198   1.539   5.285   5.769 -1.2945  0.1550  1.8355
 8412TIP3   OH225199   7.189   1.842   0.919 -0.2891  0.3086 -0.2819
 8412TIP3    H125200   7.132   1.802   0.853  0.3463 -1.6818  0.3082
 8412TIP3    H225201   7.260   1.882   0.868 -0.6383  0.1941 -0.8695
 8413TIP3   OH225202   1.376   0.193   3.025  0.3665 -0.3828 -0.8191
 8413TIP3    H125203   1.305   0.247   2.991  1.7356  1.3018 -1.1170
 8413TIP3    H225204   1.333   0.134   3.087 -1.0937  1.7999  0.3883
 8414TIP3   OH225205   2.936   3.815   3.714  0.4627  0.1058 -0.4170
 8414TIP3    H125206   3.029   3.834   3.725  0.5209 -0.3841  0.0022
 8414TIP3    H225207   2.933   3.737   3.659  0.3340 -0.3426  0.2127
 8415TIP3   OH225208   0.535   2.152   2.489  0.1520  0.5027 -0.4097
 8415TIP3    H125209   0.555   2.131   2.580  1.4148  1.4325 -0.4580
 8415TIP3    H225210   0.616   2.133   2.441  0.2956  2.3119 -0.9461
 8416TIP3   OH225211   0.080   3.054   3.438 -0.3374 -0.1741 -0.0277
 8416TIP3    H125212   0.022   2.987   3.476 -0.8191  1.3168  2.0745
 8416TIP3    H225213   0.114   3.014   3.358 -2.2788 -2.0849  0.0055
 8417TIP3   OH225214   6.584   5.654   2.981 -0.2894 -0.5088 -0.1477
 8417TIP3    H125215   6.628   5.709   3.046 -1.3494 -1.4088  1.3914
 8417TIP3    H225216   6.491   5.660   3.004 -0.6485 -1.1811 -1.3515
 8418TIP3   OH225217   3.879   2.551   1.055  0.2552 -0.0962  0.2331
 8418TIP3    H125218   3.941   2.530   1.126  2.2418 -0.8666 -1.6139
 8418TIP3    H225219   3.802   2.499   1.076  0.2440  0.7438  2.5322
 8419TIP3   OH225220   6.378   1.149   0.682  0.2623 -0.0345  0.2460
 8419TIP3    H125221   6.370   1.203   0.760  1.9073  0.8341 -0.1246
 8419TIP3    H225222   6.459   1.100   0.695  0.9822  0.6999 -1.2004
 8420TIP3   OH225223   2.231   3.583   4.785 -0.2612 -0.3015 -0.5652
 8420TIP3    H125224   2.283   3.503   4.794  0.0626 -0.0146  0.2234
 8420TIP3    H225225   2.142   3.552   4.773 -0.1471 -0.7821 -0.1908
 8421TIP3   OH225226   0.190   2.058   2.718 -0.3001 -0.6328 -0.4144
 8421TIP3    H125227   0.214   2.146   2.689  0.0394 -0.3704  0.5915
 8421TIP3    H225228   0.190   2.005   2.639  3.1259 -0.5337 -0.6497
 8422TIP3   OH225229   3.620   2.450   1.138 -0.4455  0.5021  0.0805
 8422TIP3    H125230   3.635   2.358   1.159  0.5612  0.9119  1.2621
 8422TIP3    H225231   3.545   2.449   1.078 -1.2043 -1.0013  0.9911
 8423TIP3   OH225232   4.271   2.756   0.922 -0.0581 -0.1247  0.0219
 8423TIP3    H125233   4.196   2.815   0.921  0.0255 -0.0062  0.3811
 8423TIP3    H225234   4.296   2.751   1.015  1.1986  0.8917 -0.2289
 8424TIP3   OH225235   2.551   4.910   0.163  0.5935  0.0794  0.5233
 8424TIP3    H125236   2.523   4.845   0.099 -0.9719  0.7633  0.4751
 8424TIP3    H225237   2.638   4.880   0.192  0.4475 -1.3196 -0.4171
 8425TIP3   OH225238   2.519   5.205   2.001 -0.1556 -0.0754  0.1293
 8425TIP3    H125239   2.490   5.276   1.944 -0.0738  1.2456  1.6595
 8425TIP3    H225240   2.497   5.125   1.953 -3.8529  0.8560 -0.0069
 8426TIP3   OH225241   0.677   4.790   3.943  0.9798  0.9129  0.5801
 8426TIP3    H125242   0.604   4.764   3.998 -0.2665  0.8660 -1.0056
 8426TIP3    H225243   0.702   4.711   3.896  0.9754  1.2743 -0.0521
 8427TIP3   OH225244   6.479   2.866   5.311 -0.1436  0.2825 -0.1144
 8427TIP3    H125245   6.490   2.846   5.218  1.8377 -0.3840  0.2156
 8427TIP3    H225246   6.487   2.961   5.316  1.9051  0.1785 -0.4320
 8428TIP3   OH225247   2.841   1.945   2.029 -0.6090 -0.6082  0.2605
 8428TIP3    H125248   2.759   1.897   2.043 -0.3199 -0.6125  2.2590
 8428TIP3    H225249   2.898   1.882   1.984 -1.8739 -0.3716 -1.8319
 8429TIP3   OH225250   0.337   3.995   2.364  1.0064 -0.0697  0.0216
 8429TIP3    H125251   0.378   3.918   2.324  0.4721 -0.7015  0.6599
 8429TIP3    H225252   0.248   3.966   2.386  1.5730 -0.1314  2.6055
 8430TIP3   OH225253   2.123   3.450   5.738  0.5643  0.1285  0.2125
 8430TIP3    H125254   2.055   3.470   5.802  0.8143  1.3146  0.1174
 8430TIP3    H225255   2.076   3.432   5.657  0.2622 -1.1026  0.6375
 8431TIP3   OH225256   0.506   1.837   0.171  0.2896  0.3569 -0.7992
 8431TIP3    H125257   0.527   1.929   0.157  1.6323  0.1618 -0.1941
 8431TIP3    H225258   0.456   1.835   0.252 -0.5019  0.6302 -1.2699
 8432TIP3   OH225259   5.235   4.201   3.150 -0.9048 -0.2213 -0.0860
 8432TIP3    H125260   5.304   4.177   3.087 -0.4648  0.6990  0.0349
 8432TIP3    H225261   5.219   4.120   3.199  0.1604 -0.4331 -0.0594
 8433TIP3   OH225262   1.927   5.032   2.607 -0.3175  0.1436 -0.0764
 8433TIP3    H125263   1.966   5.108   2.564  1.1986 -1.0389 -0.8758
 8433TIP3    H225264   1.836   5.032   2.577  0.5255 -0.3112 -2.9643
 8434TIP3   OH225265   1.895   5.339   1.739 -0.4186 -0.0474  0.6049
 8434TIP3    H125266   1.989   5.328   1.756 -0.1573  0.3733 -0.4853
 8434TIP3    H225267   1.880   5.292   1.657 -1.0215  0.4914  0.4010
 8435TIP3   OH225268   1.350   2.274   3.235 -0.1182  0.2303 -0.3133
 8435TIP3    H125269   1.298   2.286   3.315 -1.1118  1.5969 -1.1132
 8435TIP3    H225270   1.440   2.272   3.266 -0.4293  1.5631  0.7976
 8436TIP3   OH225271   0.917   0.319   1.691  0.0992 -0.3293 -0.5116
 8436TIP3    H125272   0.865   0.241   1.711 -0.1562 -0.0676 -0.1430
 8436TIP3    H225273   0.854   0.381   1.654 -0.0947  0.3847  0.9261
 8437TIP3   OH225274   0.399   0.959   3.270 -0.9026  0.0543  0.1517
 8437TIP3    H125275   0.393   0.934   3.362 -1.3174 -0.2732  0.0358
 8437TIP3    H225276   0.320   0.924   3.230 -0.4730 -0.2507 -0.4410
 8438TIP3   OH225277   7.028   4.984   1.583  0.3280  0.8703 -0.4447
 8438TIP3    H125278   7.046   4.950   1.495 -0.0909  0.0050 -0.2065
 8438TIP3    H225279   6.941   5.022   1.576  0.2421  0.6875 -0.3740
 8439TIP3   OH225280   1.184   6.440   4.854  0.0432  0.1976 -0.1576
 8439TIP3    H125281   1.200   6.534   4.842  1.5343  0.0392  0.3791
 8439TIP3    H225282   1.202   6.426   4.947  1.5917 -0.9318 -0.5979
 8440TIP3   OH225283   4.244   3.197   3.500 -0.3467 -0.6198  0.0723
 8440TIP3    H125284   4.303   3.126   3.526  1.7404  1.0845  0.2737
 8440TIP3    H225285   4.202   3.225   3.581  1.9265  0.9921  0.7798
 8441TIP3   OH225286   3.886   3.236   4.118  0.1421 -0.1609 -0.3675
 8441TIP3    H125287   3.945   3.164   4.142 -0.9089 -0.9496 -0.0725
 8441TIP3    H225288   3.943   3.302   4.080  1.2157 -0.9092 -0.1002
 8442TIP3   OH225289   2.553   6.347   1.248  0.0915  0.2311  0.0429
 8442TIP3    H125290   2.522   6.438   1.252  1.9255  1.0168 -1.7278
 8442TIP3    H225291   2.536   6.312   1.335 -1.1609  2.0997  0.6096
 8443TIP3   OH225292   3.342   6.192   1.937  0.0794  0.4017  0.2888
 8443TIP3    H125293   3.263   6.220   1.890  0.4355 -1.3213 -1.4439
 8443TIP3    H225294   3.413   6.204   1.874  1.2257  1.7032  1.7435
 8444TIP3   OH225295   1.217   5.090   5.900 -0.9732  0.2799 -0.1069
 8444TIP3    H125296   1.233   5.122   5.811  1.1394 -1.7555 -0.5523
 8444TIP3    H225297   1.124   5.067   5.900 -1.5087  2.1762 -1.0899
 8445TIP3   OH225298   4.495   2.321   4.065 -0.0552  0.3002 -0.3052
 8445TIP3    H125299   4.472   2.380   4.136  1.3828  1.0716 -0.4374
 8445TIP3    H225300   4.567   2.268   4.099  0.1959  0.2072 -0.9603
 8446TIP3   OH225301   3.250   0.690   2.495 -0.0023 -0.3629 -0.0545
 8446TIP3    H125302   3.200   0.667   2.417 -0.5953 -0.0187  0.2203
 8446TIP3    H225303   3.336   0.717   2.462 -0.5504  0.6937 -0.6667
 8447TIP3   OH225304   4.855   6.467   3.887  0.2364  0.1720 -0.3033
 8447TIP3    H125305   4.881   6.406   3.819  0.4669  0.5832 -0.5905
 8447TIP3    H225306   4.839   6.550   3.840  0.0199  0.3562  0.0885
 8448TIP3   OH225307   3.068   6.368   2.080  0.4730  0.0747 -0.0536
 8448TIP3    H125308   3.076   6.343   1.988 -1.7741  0.2474 -0.3431
 8448TIP3    H225309   3.042   6.288   2.125  0.7500  0.1815  0.3035
 8449TIP3   OH225310   4.842   3.141   1.820 -0.1655 -0.4391 -0.7083
 8449TIP3    H125311   4.810   3.124   1.908  0.9059  0.3815 -0.1496
 8449TIP3    H225312   4.860   3.235   1.818 -0.1333 -0.4521 -1.7862
 8450TIP3   OH225313   0.950   2.135   1.416 -0.2798 -0.2446 -0.1813
 8450TIP3    H125314   0.998   2.055   1.398  0.2455  0.4757 -2.2898
 8450TIP3    H225315   0.944   2.180   1.331 -1.5762  1.3928  0.6924
 8451TIP3   OH225316   1.954   6.481   2.230 -0.0878  0.5762  0.0565
 8451TIP3    H125317   1.983   6.406   2.178 -1.2083 -0.2898  0.6729
 8451TIP3    H225318   2.034   6.512   2.273  0.1298 -1.2505  1.0568
 8452TIP3   OH225319   6.937   2.615   4.948 -0.2470 -0.4899  0.0499
 8452TIP3    H125320   6.949   2.548   5.015 -1.7545  0.2246  1.0916
 8452TIP3    H225321   6.867   2.671   4.982 -1.0193 -0.0549 -2.0925
 8453TIP3   OH225322   4.872   2.029   1.656  0.0689 -0.9698 -0.1651
 8453TIP3    H125323   4.915   2.057   1.737 -0.4179  1.7238 -0.7436
 8453TIP3    H225324   4.873   1.934   1.660  1.0120 -0.9269  2.4926
 8454TIP3   OH225325   0.850   5.443   5.140  0.4874  0.0174 -0.4800
 8454TIP3    H125326   0.763   5.442   5.182  0.6829  1.1097  0.0030
 8454TIP3    H225327   0.911   5.450   5.213  0.8227  2.3049 -0.8988
 8455TIP3   OH225328   3.712   4.314   1.027  0.5262 -0.1789 -0.4456
 8455TIP3    H125329   3.682   4.293   0.939 -3.1697  1.1962  0.2981
 8455TIP3    H225330   3.715   4.409   1.030 -2.0756 -0.0545  1.5471
 8456TIP3   OH225331   4.605   5.916   4.314  0.3974  0.1432  0.2305
 8456TIP3    H125332   4.535   5.946   4.257 -0.7013 -1.7284  0.5193
 8456TIP3    H225333   4.644   5.996   4.349 -2.3840  1.2836  1.0076
 8457TIP3   OH225334   1.559   2.474   1.055 -0.5664 -0.6088  0.0275
 8457TIP3    H125335   1.526   2.440   1.138 -2.1531 -1.1303 -0.7901
 8457TIP3    H225336   1.487   2.524   1.019  0.3035  0.0875 -0.7881
 8458TIP3   OH225337   6.762   2.691   0.415  0.0384 -0.0109  0.1148
 8458TIP3    H125338   6.739   2.762   0.475  0.8575 -1.5218  2.2968
 8458TIP3    H225339   6.699   2.622   0.434 -1.5087  0.4341 -2.8091
 8459TIP3   OH225340   3.706   2.197   0.695  0.0706  0.0301  0.1321
 8459TIP3    H125341   3.763   2.272   0.679 -1.3187  1.5235  1.7543
 8459TIP3    H225342   3.635   2.206   0.632  1.2423 -1.5059 -1.4965
 8460TIP3   OH225343   5.055   5.934   4.529 -0.5856  0.1086  0.2029
 8460TIP3    H125344   5.109   5.865   4.566 -0.0461  0.9665  1.0605
 8460TIP3    H225345   4.965   5.906   4.547 -0.3483  0.4963  2.2294
 8461TIP3   OH225346   0.193   2.704   5.362  0.1585 -0.0824  0.4221
 8461TIP3    H125347   0.138   2.643   5.411  1.4097 -1.2955  0.3780
 8461TIP3    H225348   0.216   2.657   5.281  1.0444  0.4685  0.3336
 8462TIP3   OH225349   2.639   6.209   2.623  0.1408  0.2683  0.0961
 8462TIP3    H125350   2.568   6.204   2.687  1.5432 -0.6778  1.6780
 8462TIP3    H225351   2.699   6.274   2.660 -0.9376  2.9109 -2.4308
 8463TIP3   OH225352   1.949   4.893   4.947  0.4022  0.1538  0.3165
 8463TIP3    H125353   1.926   4.876   5.038 -1.1653  3.1346  0.6017
 8463TIP3    H225354   1.880   4.851   4.896  0.4095 -0.1960  0.5945
 8464TIP3   OH225355   1.314   6.754   2.953 -0.4342  0.2913 -0.0726
 8464TIP3    H125356   1.238   6.735   3.009 -1.1569 -0.4247 -1.2493
 8464TIP3    H225357   1.387   6.766   3.015 -1.4599  0.8604  1.0810
 8465TIP3   OH225358   2.682   0.489   3.866  0.2369  0.5997  0.0587
 8465TIP3    H125359   2.775   0.492   3.842  0.7131  0.8130  1.7738
 8465TIP3    H225360   2.659   0.580   3.881 -0.3604  0.5786 -0.6901
 8466TIP3   OH225361   5.624   6.540   3.581  0.1176 -0.3857  0.2313
 8466TIP3    H125362   5.538   6.579   3.568 -0.9054 -2.0046  1.6829
 8466TIP3    H225363   5.670   6.602   3.638 -0.2958  0.2024 -0.0703
 8467TIP3   OH225364   5.906   0.817   2.600 -0.2375  0.2512  0.1492
 8467TIP3    H125365   5.860   0.845   2.679 -0.7676  2.0117 -0.7572
 8467TIP3    H225366   5.997   0.843   2.615  0.1428 -1.4600  1.0984
 8468TIP3   OH225367   4.796   5.356   4.768 -0.3037  0.1223 -0.1988
 8468TIP3    H125368   4.737   5.331   4.696 -2.6684  0.3561  1.5214
 8468TIP3    H225369   4.768   5.301   4.841  2.5898 -0.7023  0.3898
 8469TIP3   OH225370   5.515   5.394   0.686 -0.0506 -0.1835 -0.4593
 8469TIP3    H125371   5.582   5.330   0.664  1.9547  2.4240 -2.6584
 8469TIP3    H225372   5.443   5.373   0.626  0.1231 -0.9921 -0.4039
 8470TIP3   OH225373   1.698   4.955   3.770 -0.3627  0.3641 -0.4380
 8470TIP3    H125374   1.622   4.897   3.771 -0.1854  0.0692  2.0868
 8470TIP3    H225375   1.674   5.028   3.827  1.5822 -0.3057  1.4097
 8471TIP3   OH225376   6.242   1.524   1.561  0.5683  0.4353  0.9154
 8471TIP3    H125377   6.163   1.558   1.603  0.3063 -1.1048  1.7649
 8471TIP3    H225378   6.257   1.583   1.487 -3.1342 -0.8221 -1.1175
 8472TIP3   OH225379   0.576   1.468   3.738  0.0853  0.1445 -0.1300
 8472TIP3    H125380   0.555   1.428   3.654  0.1958  1.9490 -1.0583
 8472TIP3    H225381   0.668   1.491   3.732 -0.4379  2.3724 -0.4663
 8473TIP3   OH225382   6.846   4.554   5.109  0.1211 -0.3813 -0.0397
 8473TIP3    H125383   6.815   4.584   5.023 -1.1243  1.5256  0.9839
 8473TIP3    H225384   6.941   4.557   5.102  0.0846  1.9891 -0.7149
 8474TIP3   OH225385   5.925   3.640   3.805 -0.1937 -0.3121 -0.0509
 8474TIP3    H125386   5.861   3.641   3.734  0.2536  0.7507 -0.4524
 8474TIP3    H225387   5.925   3.729   3.839  0.2513 -0.5864  0.7015
 8475TIP3   OH225388   5.514   1.158   1.991  0.8759 -0.0654 -0.4733
 8475TIP3    H125389   5.569   1.098   1.941 -0.5115  0.1749 -2.3832
 8475TIP3    H225390   5.556   1.162   2.077  1.5989 -2.9537 -0.5788
 8476TIP3   OH225391   7.102   4.758   0.224  0.8252 -0.6484 -0.3818
 8476TIP3    H125392   7.059   4.842   0.235 -2.2618 -1.4686 -3.9342
 8476TIP3    H225393   7.166   4.773   0.154  1.5192 -0.8820  0.1972
 8477TIP3   OH225394   0.454   4.258   3.726  0.1827 -0.9174  0.4696
 8477TIP3    H125395   0.418   4.343   3.749 -0.0999 -1.4858  2.2701
 8477TIP3    H225396   0.398   4.226   3.655 -2.3569 -1.3732  2.5403
 8478TIP3   OH225397   1.366   3.647   3.011  0.0124  0.1062  0.1070
 8478TIP3    H125398   1.348   3.641   3.105 -3.6970 -1.2171 -0.5244
 8478TIP3    H225399   1.283   3.677   2.973  0.3795 -2.3739 -3.0182
 8479TIP3   OH225400   1.059   3.668   5.285  0.3205  0.8556  0.1802
 8479TIP3    H125401   1.063   3.683   5.380  0.0052 -1.0977  0.5503
 8479TIP3    H225402   0.965   3.671   5.265  0.3465  0.7378  0.0393
 8480TIP3   OH225403   0.951   0.636   1.263 -0.2254  0.6941 -0.3733
 8480TIP3    H125404   0.944   0.692   1.185  0.1346  2.3706  0.7430
 8480TIP3    H225405   1.019   0.573   1.241 -2.2399 -0.8652 -2.5454
 8481TIP3   OH225406   4.977   5.382   4.485 -0.4846  0.0115  0.3786
 8481TIP3    H125407   4.942   5.312   4.429 -0.7829  0.4634 -0.0167
 8481TIP3    H225408   4.985   5.457   4.426 -1.4362  0.6935  1.0777
 8482TIP3   OH225409   1.665   5.147   3.972 -0.0744 -0.3252  0.1867
 8482TIP3    H125410   1.683   5.198   3.893 -1.3058 -0.9915 -0.5661
 8482TIP3    H225411   1.706   5.197   4.043  1.4026  0.0966 -0.9004
 8483TIP3   OH225412   7.106   5.027   3.594 -0.5398 -0.0668  0.4224
 8483TIP3    H125413   7.184   4.994   3.550 -0.7084 -0.3690  0.3476
 8483TIP3    H225414   7.066   5.088   3.532  0.1186  0.7734  0.8106
 8484TIP3   OH225415   3.137   1.544   4.566  0.5281 -0.6245  0.0392
 8484TIP3    H125416   3.083   1.491   4.507 -1.5571  1.6454 -0.2717
 8484TIP3    H225417   3.225   1.537   4.531 -0.3259 -0.8505 -2.2514
 8485TIP3   OH225418   5.505   0.127   1.101 -0.9642  0.5452  0.2700
 8485TIP3    H125419   5.501   0.103   1.194 -3.1525 -1.9329 -0.3454
 8485TIP3    H225420   5.599   0.135   1.083 -0.3540 -1.3634  2.1420
 8486TIP3   OH225421   5.959   3.188   2.914 -0.1889 -0.8752 -0.6939
 8486TIP3    H125422   6.040   3.192   2.965 -1.0341  0.2868  0.6579
 8486TIP3    H225423   5.937   3.095   2.910  0.5983 -1.0998 -0.0712
 8487TIP3   OH225424   7.075   2.276   0.841 -0.0554 -0.0781  0.0265
 8487TIP3    H125425   7.011   2.295   0.773 -0.5195 -1.7441 -0.0409
 8487TIP3    H225426   7.141   2.345   0.832 -0.4441  0.1138 -1.6649
 8488TIP3   OH225427   2.921   6.359   1.454  0.2243 -0.1211  0.4275
 8488TIP3    H125428   2.904   6.401   1.539 -0.5252  0.5133 -0.0168
 8488TIP3    H225429   3.001   6.309   1.467  0.7613  0.8944  1.1906
 8489TIP3   OH225430   3.291   0.958   5.794 -1.0191 -0.0767  0.2655
 8489TIP3    H125431   3.355   0.946   5.724 -0.1839  0.8731  0.8310
 8489TIP3    H225432   3.289   0.873   5.839  0.8729  0.2475  1.0552
 8490TIP3   OH225433   5.188   6.147   0.417  0.5868 -0.0692  0.4788
 8490TIP3    H125434   5.241   6.176   0.342  0.2212 -1.0840 -0.2056
 8490TIP3    H225435   5.242   6.080   0.460  0.2516 -0.4531  0.3142
 8491TIP3   OH225436   0.898   3.471   3.347 -0.0477  0.1342  0.0893
 8491TIP3    H125437   0.867   3.478   3.437 -0.1969 -1.4247  0.1994
 8491TIP3    H225438   0.819   3.460   3.295 -0.0878  2.6802 -0.4779
 8492TIP3   OH225439   2.108   3.419   4.563 -0.1840 -0.7126 -0.2365
 8492TIP3    H125440   2.037   3.356   4.575  1.0118 -1.9484  0.6384
 8492TIP3    H225441   2.186   3.365   4.552  0.5482  0.5970 -1.9057
 8493TIP3   OH225442   7.132   0.165   0.741  0.6368 -0.1746 -0.4184
 8493TIP3    H125443   7.046   0.154   0.700  0.7809  0.8418 -1.0219
 8493TIP3    H225444   7.194   0.167   0.668  1.3218 -1.9048  0.0579
 8494TIP3   OH225445   3.748   2.177   0.990  0.3844  0.0230 -0.0368
 8494TIP3    H125446   3.758   2.170   0.896 -0.2305  0.5403 -0.1480
 8494TIP3    H225447   3.838   2.186   1.024  0.5199  2.4445 -0.8036
 8495TIP3   OH225448   0.366   0.682   2.585 -0.1692  0.6266 -0.2885
 8495TIP3    H125449   0.347   0.728   2.667  0.7635  2.9744 -1.2933
 8495TIP3    H225450   0.307   0.722   2.521 -1.3163 -1.5964 -0.7154
 8496TIP3   OH225451   3.001   1.877   5.543  0.4332 -0.3997  0.2768
 8496TIP3    H125452   3.069   1.876   5.611  0.0401 -0.5332  0.6781
 8496TIP3    H225453   3.037   1.932   5.474  0.0951  1.3330  1.3949
 8497TIP3   OH225454   6.866   2.323   0.159 -0.0639  0.4204 -0.5342
 8497TIP3    H125455   6.811   2.277   0.222  1.1474 -0.0581  0.2208
 8497TIP3    H225456   6.856   2.416   0.180  0.2357  0.2708  0.2954
 8498TIP3   OH225457   2.667   4.996   2.135 -0.5546  0.0725  0.3304
 8498TIP3    H125458   2.694   5.058   2.203 -0.1786  0.9454 -0.5875
 8498TIP3    H225459   2.592   5.038   2.092 -1.0613 -0.6644  0.4786
 8499TIP3   OH225460   5.026   6.704   3.266  0.0771  0.3840 -0.2677
 8499TIP3    H125461   5.119   6.689   3.286  0.0733  0.6392 -0.0421
 8499TIP3    H225462   5.018   6.800   3.264 -0.0498  0.3612 -0.9267
 8500TIP3   OH225463   6.369   4.843   2.764 -0.0594 -0.0219  0.4458
 8500TIP3    H125464   6.280   4.811   2.748 -0.0044  0.1087 -0.1749
 8500TIP3    H225465   6.360   4.905   2.836 -0.4721 -0.0239  0.3987
 8501TIP3   OH225466   3.237   4.061   0.606  0.3449  0.4938 -0.0352
 8501TIP3    H125467   3.189   4.062   0.689  0.1570  3.0780 -0.0899
 8501TIP3    H225468   3.202   3.986   0.559 -0.8204  0.0193  1.5039
 8502TIP3   OH225469   3.878   2.942   0.090  0.2771 -0.1598 -0.1730
 8502TIP3    H125470   3.946   3.008   0.095  0.6514 -0.5325 -0.2585
 8502TIP3    H225471   3.901   2.879   0.158 -1.4939  1.0833  1.6835
 8503TIP3   OH225472   3.934   4.606   4.609 -0.2021  0.5453 -0.2475
 8503TIP3    H125473   3.966   4.622   4.520 -2.5601 -0.6451 -1.3947
 8503TIP3    H225474   3.985   4.531   4.639 -0.9503 -0.5374 -1.5555
 8504TIP3   OH225475   4.145   6.535   5.398 -0.1723  0.2274  0.0086
 8504TIP3    H125476   4.202   6.532   5.321 -0.4190  2.4916 -0.3323
 8504TIP3    H225477   4.204   6.518   5.472  0.3541 -0.4122 -0.5371
 8505TIP3   OH225478   0.556   5.416   4.912  0.0682 -0.5843  0.2617
 8505TIP3    H125479   0.539   5.410   4.818 -0.0086 -1.3446  0.3214
 8505TIP3    H225480   0.633   5.472   4.919  0.0598 -0.5036 -0.2516
 8506TIP3   OH225481   4.474   1.732   2.855 -0.1646 -0.5582 -0.0761
 8506TIP3    H125482   4.502   1.734   2.946 -1.4832  0.6733  0.3397
 8506TIP3    H225483   4.508   1.650   2.821  1.2003 -0.5755  1.2397
 8507TIP3   OH225484   1.915   0.135   5.044  0.2872 -0.0326 -0.0501
 8507TIP3    H125485   1.933   0.204   4.980  0.1995 -0.2900 -0.3500
 8507TIP3    H225486   1.979   0.150   5.113  0.1208  0.4961  0.0008
 8508TIP3   OH225487   5.000   1.035   4.047  0.4696 -0.3270  0.3949
 8508TIP3    H125488   5.001   0.989   4.131 -0.7639  2.0394  1.8143
 8508TIP3    H225489   4.911   1.022   4.013  0.3867  0.2429  0.3809
 8509TIP3   OH225490   4.053   4.657   3.597  0.2394  0.2463 -0.1609
 8509TIP3    H125491   4.031   4.575   3.641  0.4727 -0.1945 -0.8593
 8509TIP3    H225492   4.127   4.692   3.647  1.0839 -0.6947 -0.7135
 8510TIP3   OH225493   3.173   4.880   0.487 -0.7387 -0.0249  0.0133
 8510TIP3    H125494   3.255   4.921   0.458 -0.4317  0.3184  1.2877
 8510TIP3    H225495   3.159   4.808   0.426 -0.3504  0.8890 -1.2057
 8511TIP3   OH225496   1.484   5.727   5.313  0.6503 -0.3598  0.2570
 8511TIP3    H125497   1.399   5.770   5.297  0.2030 -0.9729  0.9203
 8511TIP3    H225498   1.523   5.778   5.384 -0.5332 -1.8551  2.0811
 8512TIP3   OH225499   1.810   1.565   0.385 -0.0744  0.2813 -0.1755
 8512TIP3    H125500   1.854   1.565   0.300  1.8048  2.4074  0.6832
 8512TIP3    H225501   1.855   1.497   0.436  0.1718  0.3726 -0.2697
 8513TIP3   OH225502   4.509   0.570   2.606 -0.4290  0.0463 -0.2849
 8513TIP3    H125503   4.459   0.527   2.675  1.1956 -2.4345 -0.5150
 8513TIP3    H225504   4.511   0.506   2.534 -0.5381  1.8140 -1.9603
 8514TIP3   OH225505   6.614   3.733   3.398 -0.1125  0.1582  0.3417
 8514TIP3    H125506   6.591   3.743   3.306  0.0456 -3.6791 -0.2766
 8514TIP3    H225507   6.531   3.732   3.444 -0.1917  2.1122  0.3383
 8515TIP3   OH225508   3.004   4.919   5.732  0.3216  0.0140 -0.1914
 8515TIP3    H125509   3.034   4.835   5.768  0.5960  0.2393  0.1142
 8515TIP3    H225510   3.042   4.985   5.790  0.1455  0.3540 -0.4571
 8516TIP3   OH225511   1.091   4.221   4.227  0.2512  0.1038 -0.3290
 8516TIP3    H125512   1.013   4.260   4.266  0.9817  1.2451  0.0409
 8516TIP3    H225513   1.059   4.141   4.185 -1.2059  0.8044 -0.6376
 8517TIP3   OH225514   5.356   0.519   0.619  0.2285  0.0017  0.0290
 8517TIP3    H125515   5.398   0.585   0.564 -0.6280  1.1914  0.7655
 8517TIP3    H225516   5.408   0.518   0.700  1.4287 -1.6753 -0.7117
 8518TIP3   OH225517   0.548   2.063   5.634  0.2358  0.4490 -0.7328
 8518TIP3    H125518   0.465   2.049   5.590 -0.3234 -0.6523  0.5978
 8518TIP3    H225519   0.525   2.107   5.716  0.8640 -0.4440 -0.0537
 8519TIP3   OH225520   5.665   1.804   2.810  0.6374  0.4503 -0.2659
 8519TIP3    H125521   5.702   1.891   2.798  0.2598  0.4252 -1.7291
 8519TIP3    H225522   5.725   1.761   2.872  1.0616  1.5854  0.1432
 8520TIP3   OH225523   0.550   6.510   1.296  0.2218  0.0607  0.1975
 8520TIP3    H125524   0.559   6.426   1.341  0.2742  0.1562  0.3666
 8520TIP3    H225525   0.631   6.520   1.246  1.1628  0.9872  1.8290
 8521TIP3   OH225526   4.045   3.349   2.136 -0.5881  0.0717 -0.3101
 8521TIP3    H125527   4.101   3.357   2.059 -1.0613 -1.0971 -0.7970
 8521TIP3    H225528   4.014   3.259   2.133  0.6368 -0.5126  2.1014
 8522TIP3   OH225529   5.683   4.767   1.553 -0.1497  0.1774  0.2579
 8522TIP3    H125530   5.604   4.748   1.502  1.6072 -0.9527 -2.2359
 8522TIP3    H225531   5.735   4.687   1.547  2.1099  1.5900 -0.0339
 8523TIP3   OH225532   0.199   0.211   0.672  0.2592 -0.0889  0.0410
 8523TIP3    H125533   0.203   0.115   0.673 -1.8618 -0.2242  0.1406
 8523TIP3    H225534   0.229   0.234   0.584  2.3755 -0.6792  0.5339
 8524TIP3   OH225535   6.187   0.576   0.299 -0.3935  0.0370  0.0365
 8524TIP3    H125536   6.252   0.549   0.365 -0.0098  1.3592  0.2229
 8524TIP3    H225537   6.186   0.671   0.304  0.7464  0.3049 -2.8952
 8525TIP3   OH225538   1.283   5.500   0.911  0.3896  0.4280  0.1810
 8525TIP3    H125539   1.281   5.405   0.900 -0.1331  0.4305  0.1990
 8525TIP3    H225540   1.316   5.534   0.828  0.3258  0.2424  0.0807
 8526TIP3   OH225541   4.849   1.833   3.951  0.4910  0.5519 -0.0417
 8526TIP3    H125542   4.937   1.810   3.922  0.3325 -2.4537  1.4993
 8526TIP3    H225543   4.853   1.828   4.046 -1.5024 -0.4215  0.0363
 8527TIP3   OH225544   3.550   0.540   2.191  0.2394  0.5413 -0.3339
 8527TIP3    H125545   3.461   0.507   2.180  0.7437 -0.9089 -0.2633
 8527TIP3    H225546   3.567   0.533   2.285  0.8450 -0.3677 -0.4984
 8528TIP3   OH225547   3.942   1.497   0.529  0.5309 -0.3869  0.2529
 8528TIP3    H125548   4.013   1.560   0.544 -1.4731  1.7115  1.6465
 8528TIP3    H225549   3.927   1.500   0.435 -0.3200  2.3113  0.3801
 8529TIP3   OH225550   6.187   1.215   4.497  0.6222 -0.2945  0.4611
 8529TIP3    H125551   6.219   1.296   4.456  1.1647 -1.3980 -1.4037
 8529TIP3    H225552   6.111   1.190   4.445  0.7247 -1.2093  0.7333
 8530TIP3   OH225553   7.058   5.804   4.717  0.0022 -0.1871  0.4156
 8530TIP3    H125554   7.039   5.896   4.736  1.2160  0.1263  0.2183
 8530TIP3    H225555   7.078   5.766   4.803  1.0722  0.1413  0.3315
 8531TIP3   OH225556   6.462   2.470   3.067 -0.4710 -0.0492 -0.2589
 8531TIP3    H125557   6.534   2.417   3.099  0.4430  0.5444 -1.2653
 8531TIP3    H225558   6.442   2.530   3.139 -2.2221 -2.3528  1.2978
 8532TIP3   OH225559   0.768   0.178   5.051  0.0903  0.0189  0.2958
 8532TIP3    H125560   0.699   0.217   5.104  0.7304  1.0801  0.3722
 8532TIP3    H225561   0.728   0.162   4.966 -0.8347 -1.3392  0.9394
 8533TIP3   OH225562   0.587   5.492   2.365 -0.2863 -0.1883 -0.6345
 8533TIP3    H125563   0.644   5.419   2.389 -1.6015 -0.8444  0.6056
 8533TIP3    H225564   0.589   5.492   2.269 -0.7473 -2.2872 -0.7029
 8534TIP3   OH225565   0.172   3.010   1.660 -0.0360 -0.4225 -0.2137
 8534TIP3    H125566   0.142   2.922   1.683 -1.8700  0.3257  0.4256
 8534TIP3    H225567   0.147   3.020   1.568  1.1991 -0.9545 -0.6262
 8535TIP3   OH225568   2.941   5.270   0.056  0.4387  0.0362  0.1358
 8535TIP3    H125569   2.868   5.244   0.113  0.6465  0.1711  0.4680
 8535TIP3    H225570   2.946   5.200  -0.009  0.3208 -0.2242  0.4016
 8536TIP3   OH225571   3.713   5.517   5.166 -0.2238 -0.6149  0.0945
 8536TIP3    H125572   3.732   5.598   5.213  1.4348 -1.3128  0.6985
 8536TIP3    H225573   3.784   5.510   5.102 -1.5199 -0.5441 -1.3835
 8537TIP3   OH225574   0.698   5.863   1.814  0.4541 -0.6991  0.0172
 8537TIP3    H125575   0.718   5.790   1.755 -0.2138 -0.4322 -0.5524
 8537TIP3    H225576   0.719   5.830   1.901 -0.2233 -1.7124 -0.1859
 8538TIP3   OH225577   5.014   3.819   0.156  0.1573 -0.2471  0.0724
 8538TIP3    H125578   4.964   3.740   0.177 -0.1296 -0.4395 -1.2614
 8538TIP3    H225579   4.948   3.885   0.136  0.3803 -0.5665 -1.9353
 8539TIP3   OH225580   5.465   3.678   5.433 -0.7316 -0.3543 -0.9152
 8539TIP3    H125581   5.421   3.598   5.462  3.0177 -2.9410 -1.7087
 8539TIP3    H225582   5.442   3.686   5.340 -1.0008 -0.5969 -0.8689
 8540TIP3   OH225583   4.013   3.257   0.890  0.2073 -0.1931 -0.2202
 8540TIP3    H125584   3.998   3.330   0.950  1.1117 -1.1060  1.1883
 8540TIP3    H225585   3.965   3.281   0.811  1.2229  2.3569 -0.1651
 8541TIP3   OH225586   1.240   4.106   2.388 -0.2929 -0.2396  0.4155
 8541TIP3    H125587   1.323   4.145   2.361 -0.7319  0.5289  0.1414
 8541TIP3    H225588   1.223   4.038   2.323  0.5850 -1.0558  1.0150
 8542TIP3   OH225589   0.029   3.887   3.537  0.0882 -0.1293  0.1434
 8542TIP3    H125590  -0.040   3.953   3.526 -1.4850 -1.3741  1.9146
 8542TIP3    H225591   0.023   3.833   3.458  0.8676  1.2959 -0.9506
 8543TIP3   OH225592   4.188   3.363   0.066 -0.1738 -0.5867 -0.6476
 8543TIP3    H125593   4.133   3.431   0.106  0.8956 -0.4325  0.6392
 8543TIP3    H225594   4.151   3.281   0.097 -0.3934 -0.5297 -0.7554
 8544TIP3   OH225595   3.998   3.778   1.953  0.2338 -0.4209 -0.2323
 8544TIP3    H125596   3.982   3.871   1.938  1.6175  0.0467  1.0206
 8544TIP3    H225597   3.995   3.738   1.866 -0.7144  0.7223 -0.7437
 8545TIP3   OH225598   2.054   2.755   0.471 -0.0076 -0.2299  0.3718
 8545TIP3    H125599   2.125   2.691   0.476  1.7742  1.5071 -1.2298
 8545TIP3    H225600   2.000   2.725   0.398  0.1458 -0.5379  0.3843
 8546TIP3   OH225601   3.336   5.921   3.360 -0.0289 -0.4664  0.0948
 8546TIP3    H125602   3.323   5.872   3.441  0.4678 -0.9563 -0.1129
 8546TIP3    H225603   3.278   5.997   3.368  0.5622 -0.1207  1.2253
 8547TIP3   OH225604   3.508   4.459   5.217  0.6988  0.1910 -0.8168
 8547TIP3    H125605   3.475   4.378   5.255  1.4225 -0.7163 -2.0514
 8547TIP3    H225606   3.594   4.436   5.182  1.3470  1.7476 -0.3433
 8548TIP3   OH225607   5.822   6.040   4.959  0.5052  0.4514  0.5460
 8548TIP3    H125608   5.798   5.953   4.927  0.2602  1.0416 -0.9690
 8548TIP3    H225609   5.739   6.079   4.988  0.2403  0.9743 -0.8477
 8549TIP3   OH225610   6.804   6.518   4.073 -0.3345 -0.6107  0.0680
 8549TIP3    H125611   6.715   6.507   4.108  0.2861  0.3135  2.0973
 8549TIP3    H225612   6.861   6.481   4.141  0.8476 -2.0068 -1.5878
 8550TIP3   OH225613   0.764   3.602   2.542 -0.0395  0.3065 -0.0406
 8550TIP3    H125614   0.673   3.591   2.514  0.0472 -0.8225  0.0715
 8550TIP3    H225615   0.800   3.667   2.482 -0.1748 -1.2304 -1.8793
 8551TIP3   OH225616   6.987   2.428   0.569 -0.1302 -0.7356 -0.0367
 8551TIP3    H125617   7.037   2.426   0.488 -2.6247 -0.4226 -1.7033
 8551TIP3    H225618   7.009   2.512   0.610  0.8731 -0.7347 -0.5800
 8552TIP3   OH225619   0.954   0.934   2.360 -0.2210  0.3465 -0.0524
 8552TIP3    H125620   1.047   0.914   2.373  0.7037  2.7811 -2.0764
 8552TIP3    H225621   0.912   0.848   2.350  2.0424 -0.7910 -0.4341
 8553TIP3   OH225622  -0.003   2.644   1.331  0.1435  0.4012  0.8627
 8553TIP3    H125623   0.027   2.664   1.420  2.5346 -0.6126  0.3837
 8553TIP3    H225624  -0.007   2.548   1.329  1.5282  0.3309 -0.4778
 8554TIP3   OH225625   4.009   0.999   3.769  0.4486 -0.1540 -0.3003
 8554TIP3    H125626   3.994   0.947   3.848 -0.3748 -0.3023 -0.5425
 8554TIP3    H225627   3.990   1.089   3.794 -0.6826 -0.3096 -0.5403
 8555TIP3   OH225628   5.267   0.404   0.098 -0.2753  0.1019  0.5151
 8555TIP3    H125629   5.298   0.463   0.167 -0.5647  0.3372  0.4437
 8555TIP3    H225630   5.174   0.424   0.088 -0.9171 -1.8270  1.9485
 8556TIP3   OH225631   5.384   3.540   3.568  0.2604 -0.6625  0.0182
 8556TIP3    H125632   5.432   3.578   3.494 -0.5372  0.4309  0.0452
 8556TIP3    H225633   5.303   3.507   3.530 -2.0892  3.4894  0.8556
 8557TIP3   OH225634   2.087   3.660   0.356  0.3774 -0.2940 -0.3703
 8557TIP3    H125635   2.091   3.568   0.380 -0.1767 -0.1862  0.1697
 8557TIP3    H225636   2.074   3.660   0.261  1.0008 -0.7542 -0.4584
 8558TIP3   OH225637   0.559   3.194   2.954 -0.2194 -0.3207 -0.0675
 8558TIP3    H125638   0.578   3.101   2.943 -2.5306 -0.6877 -1.6834
 8558TIP3    H225639   0.480   3.195   3.008 -1.2755  0.5916 -1.5924
 8559TIP3   OH225640   2.793   1.548   0.323  0.2250 -0.4244 -0.2416
 8559TIP3    H125641   2.817   1.544   0.230  1.1224  1.4666 -0.1356
 8559TIP3    H225642   2.805   1.458   0.354  1.7142 -0.7291 -1.5382
 8560TIP3   OH225643   3.552   1.548   5.562  0.3663  0.0279  0.0749
 8560TIP3    H125644   3.605   1.588   5.631  1.3085 -3.1825  1.3740
 8560TIP3    H225645   3.616   1.520   5.496 -0.1837  0.0150 -0.4633
 8561TIP3   OH225646   0.161   4.891   5.154 -0.3719 -0.3521 -0.1882
 8561TIP3    H125647   0.119   4.970   5.187 -3.2668 -0.6993 -2.6151
 8561TIP3    H225648   0.251   4.916   5.138 -0.3124  1.3890  2.3498
 8562TIP3   OH225649   6.751   1.388   4.614  0.0029  0.5190  0.1652
 8562TIP3    H125650   6.695   1.466   4.608 -2.4322 -1.0967  0.3513
 8562TIP3    H225651   6.810   1.396   4.539 -1.5093  1.5898 -0.9954
 8563TIP3   OH225652   5.081   2.724   1.503  0.5555 -0.3019  0.0053
 8563TIP3    H125653   5.034   2.798   1.541  0.2738  0.2628 -1.3783
 8563TIP3    H225654   5.022   2.650   1.513  0.4536 -0.1541  0.5569
 8564TIP3   OH225655   4.014   2.246   4.587 -0.5184 -0.1666 -0.4234
 8564TIP3    H125656   4.031   2.170   4.643  0.9905 -1.3401 -2.3328
 8564TIP3    H225657   3.963   2.211   4.514 -0.5959  0.8806 -0.8926
 8565TIP3   OH225658   5.975   3.745   2.909  0.0006  0.3184  0.4722
 8565TIP3    H125659   5.988   3.772   3.000 -0.2865  0.6057  0.4285
 8565TIP3    H225660   5.979   3.649   2.912 -0.1297  0.3213  0.8067
 8566TIP3   OH225661   7.145   3.042   4.176 -0.2615  0.0533 -0.5376
 8566TIP3    H125662   7.216   2.989   4.215  1.1597  1.4868 -1.0606
 8566TIP3    H225663   7.130   3.002   4.090 -1.7748 -1.6872  0.4781
 8567TIP3   OH225664   0.333   3.734   4.446 -0.0221  0.1626 -0.3929
 8567TIP3    H125665   0.324   3.660   4.385  1.3015  0.3084 -0.8005
 8567TIP3    H225666   0.415   3.776   4.420  0.2175  0.6417  1.0574
 8568TIP3   OH225667   0.934   5.358   1.364  0.6047 -0.9800  0.0318
 8568TIP3    H125668   0.931   5.262   1.363  1.0190 -0.9963  0.2300
 8568TIP3    H225669   0.869   5.384   1.298 -0.1441 -1.3795  0.5902
 8569TIP3   OH225670   1.185   1.272   0.416  0.2664 -0.2851  0.1465
 8569TIP3    H125671   1.237   1.327   0.358 -1.4046 -0.5482 -1.7237
 8569TIP3    H225672   1.197   1.183   0.382  0.7194 -0.7127  1.3834
 8570TIP3   OH225673   3.860   3.418   5.257 -0.0179 -0.8394 -0.5056
 8570TIP3    H125674   3.942   3.466   5.268  0.1632 -1.0372 -0.9767
 8570TIP3    H225675   3.884   3.326   5.264 -0.2436 -0.8899 -0.3706
 8571TIP3   OH225676   2.822   2.781   2.382  0.1638 -0.1404 -0.2416
 8571TIP3    H125677   2.800   2.816   2.296 -2.1054 -1.8605 -0.4437
 8571TIP3    H225678   2.903   2.733   2.369 -0.0794 -0.2590 -1.3864
 8572TIP3   OH225679   1.998   1.530   0.983 -0.1679 -0.1757  0.6684
 8572TIP3    H125680   2.006   1.435   0.992  0.5695 -0.0686  1.2608
 8572TIP3    H225681   2.030   1.565   1.066  1.2799  0.6546 -0.1809
 8573TIP3   OH225682   3.048   4.404   1.237  0.0195 -0.9193 -0.4535
 8573TIP3    H125683   3.021   4.485   1.193  0.5722 -0.2083  0.4855
 8573TIP3    H225684   2.973   4.379   1.290  0.4853  0.0093  0.6808
 8574TIP3   OH225685   2.314   2.391   0.652 -0.7775 -0.3054  0.1001
 8574TIP3    H125686   2.219   2.386   0.642 -1.2018  0.9706  2.6772
 8574TIP3    H225687   2.328   2.397   0.746  1.7635  1.2720 -0.2845
 8575TIP3   OH225688   5.685   3.182   3.194 -0.5238 -0.0289 -0.0191
 8575TIP3    H125689   5.690   3.221   3.106  0.5541 -0.1151 -0.0174
 8575TIP3    H225690   5.635   3.245   3.245 -0.3519  0.4812 -0.4661
 8576TIP3   OH225691   5.638   2.466   2.757  0.6797  0.0742 -0.2228
 8576TIP3    H125692   5.625   2.384   2.710  2.0093  0.2856 -1.0177
 8576TIP3    H225693   5.729   2.489   2.741  0.8233  0.8179  1.4396
 8577TIP3   OH225694   1.699   0.459   0.758 -0.1558 -0.0477  0.1635
 8577TIP3    H125695   1.708   0.372   0.719  1.5824  0.6074 -1.0139
 8577TIP3    H225696   1.656   0.512   0.690  1.1830  0.6342 -0.1854
 8578TIP3   OH225697   3.756   2.091   1.649  0.3017 -0.5822 -0.1517
 8578TIP3    H125698   3.735   2.053   1.564 -2.1547 -0.2267  0.2462
 8578TIP3    H225699   3.672   2.110   1.689  1.4136  1.6001  1.3386
 8579TIP3   OH225700   0.632   5.173   1.017 -0.4839 -0.1766  0.4129
 8579TIP3    H125701   0.668   5.092   1.053 -1.0353  0.2776  2.0857
 8579TIP3    H225702   0.537   5.159   1.016 -0.5115  0.0269 -0.3843
 8580TIP3   OH225703   0.342   4.407   0.465  0.0244 -0.5522  0.2873
 8580TIP3    H125704   0.423   4.384   0.420 -0.6380 -1.2007 -0.6217
 8580TIP3    H225705   0.280   4.339   0.439 -1.3318  0.9147 -0.5237
 8581TIP3   OH225706   4.383   6.469   0.905 -0.1625 -0.3027 -0.1457
 8581TIP3    H125707   4.440   6.490   0.979  0.0312  0.0373 -0.3849
 8581TIP3    H225708   4.434   6.495   0.828 -0.8206  0.4312 -0.3471
 8582TIP3   OH225709   0.172   2.138   0.570  0.1967 -0.4366  0.1921
 8582TIP3    H125710   0.099   2.112   0.513 -1.0018 -0.6864  1.7500
 8582TIP3    H225711   0.176   2.233   0.562  0.0626 -0.4743 -0.3427
 8583TIP3   OH225712   6.149   2.015   1.552  0.4414 -0.3270  0.0921
 8583TIP3    H125713   6.090   2.090   1.540  0.8957  0.0470  0.1679
 8583TIP3    H225714   6.090   1.940   1.564 -0.0532  0.2816  1.7993
 8584TIP3   OH225715   4.139   5.032   1.586  0.3657 -0.2003 -0.6996
 8584TIP3    H125716   4.174   5.111   1.627  1.8126  0.5931 -3.2639
 8584TIP3    H225717   4.074   4.999   1.649  1.7297  1.4196  1.7110
 8585TIP3   OH225718   3.446   3.470   4.013  0.6634  0.1655  0.3756
 8585TIP3    H125719   3.369   3.418   3.987 -1.0717  1.7027  2.1191
 8585TIP3    H225720   3.504   3.407   4.056 -0.6864 -0.6524  1.0720
 8586TIP3   OH225721   2.240   3.055   1.026  0.1181  0.0439  0.4823
 8586TIP3    H125722   2.292   3.044   0.946 -1.8774 -1.0350 -0.7445
 8586TIP3    H225723   2.265   2.980   1.080  0.6980  0.1887  0.4280
 8587TIP3   OH225724   0.083   5.998   4.506 -0.2578 -0.2664 -0.5585
 8587TIP3    H125725   0.048   6.073   4.460  2.2292 -0.5840 -3.2488
 8587TIP3    H225726   0.177   6.000   4.488  0.7026 -1.3401  3.3298
 8588TIP3   OH225727   6.767   3.907   2.362  0.0435 -0.0267  0.4099
 8588TIP3    H125728   6.678   3.933   2.338  0.0737 -1.6694 -1.8494
 8588TIP3    H225729   6.758   3.857   2.442 -0.5646  2.6527  2.1519
 8589TIP3   OH225730   6.043   6.196   0.973  0.0487  0.6558 -0.0119
 8589TIP3    H125731   5.982   6.126   0.949  0.1484  0.6000 -0.1056
 8589TIP3    H225732   5.988   6.272   0.991 -0.2154  0.0442  1.9853
 8590TIP3   OH225733   4.264   1.646   4.969  0.1627 -0.1673  0.1745
 8590TIP3    H125734   4.207   1.668   5.043 -2.5151 -2.1147 -1.1161
 8590TIP3    H225735   4.307   1.565   4.995  0.5518  0.0668  0.2607
 8591TIP3   OH225736   5.255   0.362   5.260  0.4725 -0.5113 -0.5740
 8591TIP3    H125737   5.183   0.420   5.284  0.2686 -0.4549 -1.3249
 8591TIP3    H225738   5.215   0.275   5.255  0.7715 -0.7270  0.5209
 8592TIP3   OH225739   3.256   6.520   1.021  0.3675 -0.4377 -0.0295
 8592TIP3    H125740   3.165   6.544   1.038  0.7116  0.5566  0.4632
 8592TIP3    H225741   3.283   6.577   0.949  1.5629  1.6295  1.9568
 8593TIP3   OH225742   3.658   5.596   3.868  0.1220 -0.2494  0.3937
 8593TIP3    H125743   3.659   5.679   3.917  1.9056 -0.7990  1.3748
 8593TIP3    H225744   3.596   5.611   3.796  0.7255  2.0805  0.2954
 8594TIP3   OH225745   5.737   5.750   2.814  0.4568  0.1607  0.2179
 8594TIP3    H125746   5.777   5.717   2.894 -0.5795 -0.2598  0.5723
 8594TIP3    H225747   5.666   5.689   2.795  1.0573 -0.0944 -1.3690
 8595TIP3   OH225748   7.013   1.954   5.576 -0.6738 -0.6676  0.7791
 8595TIP3    H125749   6.951   1.982   5.509  0.1355  1.0652  0.7095
 8595TIP3    H225750   6.977   1.871   5.608 -2.2120 -0.4641 -0.2875
 8596TIP3   OH225751   5.630   2.205   3.467  0.2261  0.1972 -0.1393
 8596TIP3    H125752   5.681   2.238   3.394 -0.5770  1.5247 -0.1293
 8596TIP3    H225753   5.575   2.136   3.428  3.0204 -2.4127  0.1470
 8597TIP3   OH225754   3.280   1.243   2.580  0.4861 -0.0044 -0.7480
 8597TIP3    H125755   3.206   1.286   2.621  0.0843 -1.1206 -0.2814
 8597TIP3    H225756   3.255   1.233   2.488  1.0660  1.7765 -1.1440
 8598TIP3   OH225757   3.254   1.278   1.070  0.2251 -0.6915 -0.4909
 8598TIP3    H125758   3.192   1.339   1.111  1.1924 -0.3644  0.5387
 8598TIP3    H225759   3.269   1.315   0.983  0.6213  0.4456  0.0309
 8599TIP3   OH225760   0.384   1.358   2.087  0.0457 -0.0241  0.5055
 8599TIP3    H125761   0.474   1.385   2.071 -0.3241  0.2007 -1.4191
 8599TIP3    H225762   0.353   1.417   2.156  0.6081  1.6027 -0.5774
 8600TIP3   OH225763   6.416   6.142   4.135 -0.2579 -0.1160  0.6753
 8600TIP3    H125764   6.479   6.070   4.144  2.2550  2.0552  1.8873
 8600TIP3    H225765   6.427   6.173   4.045  2.1636  1.5926  1.4501
 8601TIP3   OH225766   2.135   2.311   3.062  0.1425 -0.3177  0.6313
 8601TIP3    H125767   2.136   2.341   2.972 -2.5767  0.6875  0.8466
 8601TIP3    H225768   2.158   2.388   3.114  1.7079 -0.8922  0.8473
 8602TIP3   OH225769   1.009   3.048   2.460 -0.2044  0.1764  0.4840
 8602TIP3    H125770   1.074   3.047   2.530  0.4192  1.5525 -0.0523
 8602TIP3    H225771   1.025   3.129   2.413 -1.4486 -0.1092 -0.4865
 8603TIP3   OH225772   4.472   5.816   1.864  0.5546  0.1971  0.0142
 8603TIP3    H125773   4.462   5.819   1.959  1.1355  0.4074  0.0727
 8603TIP3    H225774   4.489   5.907   1.839 -0.2689  0.2568 -0.3746
 8604TIP3   OH225775   0.147   2.179   3.174  0.1441 -0.1487 -0.6144
 8604TIP3    H125776   0.124   2.092   3.141 -0.2646 -0.7069  1.0423
 8604TIP3    H225777   0.242   2.176   3.187  0.0485 -0.6051  0.0601
 8605TIP3   OH225778   2.727   3.521   2.744 -0.1485  0.2816  0.7264
 8605TIP3    H125779   2.789   3.478   2.686  0.7589  1.6195  0.6548
 8605TIP3    H225780   2.751   3.614   2.741 -2.7967  1.0320 -0.0855
 8606TIP3   OH225781   0.743   4.145   2.597  0.2290 -0.2127  0.3871
 8606TIP3    H125782   0.648   4.145   2.608 -0.1609  0.4532 -2.3106
 8606TIP3    H225783   0.769   4.237   2.609  0.2776 -0.0945 -0.6037
 8607TIP3   OH225784   0.889   3.941   1.692  0.0362  0.0684 -0.0515
 8607TIP3    H125785   0.917   3.852   1.670 -0.0261  0.3497 -1.3181
 8607TIP3    H225786   0.966   3.981   1.734  0.0742 -0.5592  0.4905
 8608TIP3   OH225787   5.310   2.859   0.813 -0.7003  0.3879  0.2200
 8608TIP3    H125788   5.268   2.866   0.899 -0.9618  1.2176  0.0365
 8608TIP3    H225789   5.384   2.800   0.827 -1.2902 -0.2420  0.7969
 8609TIP3   OH225790   2.193   0.262   2.620  0.3222  0.1165 -0.2269
 8609TIP3    H125791   2.241   0.333   2.661  1.9104 -0.2798 -1.2764
 8609TIP3    H225792   2.101   0.281   2.638  0.8364  0.9317  1.8387
 8610TIP3   OH225793   4.710   3.365   4.002  0.2893  0.3770  0.4241
 8610TIP3    H125794   4.771   3.314   3.949  0.0266 -0.4200  0.8772
 8610TIP3    H225795   4.747   3.453   4.002 -0.0552  0.5860 -1.6463
 8611TIP3   OH225796   1.629   2.823   5.436 -0.1099  0.5217  0.1023
 8611TIP3    H125797   1.610   2.875   5.513  1.9482  0.4176  0.7390
 8611TIP3    H225798   1.576   2.862   5.366 -3.2043 -0.3365  1.8209
 8612TIP3   OH225799   2.065   6.143   2.791  0.4690  0.6345 -0.5671
 8612TIP3    H125800   2.117   6.067   2.766 -0.2195  0.1859 -0.6677
 8612TIP3    H225801   1.978   6.108   2.809 -0.1033  1.5103 -1.4753
 8613TIP3   OH225802   6.579   3.625   1.064 -0.4260  0.0037 -0.5922
 8613TIP3    H125803   6.581   3.720   1.075  0.4943 -0.1225  0.4798
 8613TIP3    H225804   6.510   3.595   1.124  0.7278 -0.1743  0.6887
 8614TIP3   OH225805   4.506   3.933   2.002  0.3079  0.3625  0.5906
 8614TIP3    H125806   4.420   3.931   2.045 -0.1552 -0.7909 -0.3392
 8614TIP3    H225807   4.519   3.844   1.970  1.9771  0.4507  0.9082
 8615TIP3   OH225808   6.253   1.748   1.390 -0.1736  0.2444 -0.6946
 8615TIP3    H125809   6.263   1.842   1.376  0.4839  0.5427  1.5267
 8615TIP3    H225810   6.159   1.733   1.381 -0.1608  0.8803 -2.2188
 8616TIP3   OH225811   0.694   3.291   1.593 -0.0971  0.1568 -0.4023
 8616TIP3    H125812   0.659   3.236   1.523  2.8232  1.5946 -3.2788
 8616TIP3    H225813   0.644   3.373   1.586 -0.5374 -0.0822 -0.0651
 8617TIP3   OH225814   5.503   6.711   3.889 -0.2819  0.7556 -0.0473
 8617TIP3    H125815   5.483   6.621   3.863 -0.6514  1.3738 -2.0931
 8617TIP3    H225816   5.545   6.703   3.975  2.4309 -1.6162 -1.4485
 8618TIP3   OH225817   4.334   1.319   4.648  0.4556  0.1323  0.2885
 8618TIP3    H125818   4.256   1.374   4.638  0.8486  0.8040  0.7557
 8618TIP3    H225819   4.320   1.245   4.590 -0.2162  0.5996 -0.1589
 8619TIP3   OH225820   1.112   0.893   0.516 -0.6786  0.0173 -0.2926
 8619TIP3    H125821   1.189   0.876   0.462 -0.9771  0.3758 -0.8448
 8619TIP3    H225822   1.041   0.846   0.473 -0.4721 -1.7020  1.1394
 8620TIP3   OH225823   0.106   1.228   0.688 -0.1431  0.2875 -0.0507
 8620TIP3    H125824   0.041   1.183   0.634 -0.8947  0.3366  0.7930
 8620TIP3    H225825   0.054   1.280   0.749  0.7004  2.0568 -0.7773
 8621TIP3   OH225826   0.175   3.317   0.852 -0.2186 -0.1144  0.1625
 8621TIP3    H125827   0.135   3.314   0.765 -0.8652 -1.0241  0.4677
 8621TIP3    H225828   0.269   3.317   0.836 -0.3275 -0.9510 -0.5355
 8622TIP3   OH225829   5.202   1.153   5.684 -0.3742 -0.2999 -1.0050
 8622TIP3    H125830   5.210   1.058   5.684 -2.1627 -0.4949  0.0344
 8622TIP3    H225831   5.152   1.173   5.605  0.7900 -0.1021 -1.7198
 8623TIP3   OH225832   6.907   4.034   2.026 -1.0702  0.1950  0.1606
 8623TIP3    H125833   6.923   4.075   2.111 -0.7323 -0.7826  0.5768
 8623TIP3    H225834   6.894   3.941   2.045 -0.2326 -0.1675 -0.9281
 8624TIP3   OH225835   3.511   5.226   1.646 -0.0652 -0.7771  0.1491
 8624TIP3    H125836   3.522   5.149   1.702  0.5430 -1.1628 -0.4919
 8624TIP3    H225837   3.515   5.192   1.557  1.5957  0.1424 -0.1777
 8625TIP3   OH225838   1.901   6.553   4.094  0.3591  0.4233  0.3011
 8625TIP3    H125839   1.925   6.641   4.125 -1.1580  1.0806 -0.2637
 8625TIP3    H225840   1.975   6.525   4.041  0.0813  2.2378 -1.1679
 8626TIP3   OH225841   5.122   1.963   3.655 -0.0431 -0.5686  0.2892
 8626TIP3    H125842   5.163   1.909   3.722 -0.6265 -0.1136  1.0385
 8626TIP3    H225843   5.147   2.053   3.678 -1.0633 -0.3208  0.5060
 8627TIP3   OH225844   1.071   3.934   0.519 -0.1562  0.1561  0.1007
 8627TIP3    H125845   1.068   3.881   0.440  0.6712 -0.3193  0.3737
 8627TIP3    H225846   1.154   3.911   0.561 -0.8178 -0.0136  1.3810
 8628TIP3   OH225847   5.444   1.205   4.861  0.2441 -0.3029  0.3500
 8628TIP3    H125848   5.429   1.227   4.769  2.2366 -1.3367 -0.2891
 8628TIP3    H225849   5.369   1.242   4.907 -1.4578 -0.8376 -1.8250
 8629TIP3   OH225850   7.080   5.289   1.165  0.6806 -0.2563 -0.0801
 8629TIP3    H125851   7.142   5.338   1.110  1.0565 -1.4234 -0.7231
 8629TIP3    H225852   7.105   5.198   1.154 -0.1626 -0.6290  0.9189
 8630TIP3   OH225853   2.263   6.412   0.468 -0.4532  0.8369  0.3085
 8630TIP3    H125854   2.219   6.346   0.415 -0.9830  0.7100  0.8960
 8630TIP3    H225855   2.302   6.472   0.404 -0.9277  0.5891 -0.2172
 8631TIP3   OH225856   6.149   3.306   4.961  0.3202 -0.0971  0.4554
 8631TIP3    H125857   6.231   3.287   5.006  0.6966 -0.1145 -0.2205
 8631TIP3    H225858   6.164   3.391   4.920  0.0851 -0.2022  0.1480
 8632TIP3   OH225859   4.756   5.437   1.119 -0.2073  0.1901 -0.1320
 8632TIP3    H125860   4.683   5.380   1.095 -0.2206  0.2510 -0.2384
 8632TIP3    H225861   4.833   5.390   1.089 -0.1847  0.0075  0.2121
 8633TIP3   OH225862   4.137   1.618   2.708 -0.4111  0.7847  0.3124
 8633TIP3    H125863   4.202   1.571   2.760  0.6833  2.1134  0.1968
 8633TIP3    H225864   4.163   1.710   2.714 -1.8106  1.2601 -0.4219
 8634TIP3   OH225865   4.686   5.837   0.357  0.0827  0.0340  0.4760
 8634TIP3    H125866   4.680   5.877   0.444  0.3389  1.0778  0.0315
 8634TIP3    H225867   4.777   5.850   0.331 -0.0298 -0.1324 -0.0095
 8635TIP3   OH225868   2.197   5.141   5.222  0.0991 -0.0259 -0.1271
 8635TIP3    H125869   2.177   5.151   5.129 -0.2523  1.9705  0.1147
 8635TIP3    H225870   2.290   5.161   5.229 -0.2711  1.7427  0.1607
 8636TIP3   OH225871   7.051   3.175   5.509 -0.0351 -0.0451 -0.6600
 8636TIP3    H125872   7.050   3.171   5.414  0.4797 -1.5210 -0.6332
 8636TIP3    H225873   7.120   3.239   5.530  0.6612 -0.5696 -1.2827
 8637TIP3   OH225874   4.200   0.046   1.354 -0.6672 -0.4616 -0.2371
 8637TIP3    H125875   4.257   0.073   1.282 -1.5809 -0.0999 -0.8361
 8637TIP3    H225876   4.149   0.124   1.375 -0.3004 -0.5118  0.9235
 8638TIP3   OH225877   5.452   6.121   2.298  0.5732  0.2297 -0.2107
 8638TIP3    H125878   5.451   6.209   2.337 -0.1443 -0.1609  0.7022
 8638TIP3    H225879   5.390   6.071   2.351  0.7316 -0.7485 -0.9218
 8639TIP3   OH225880   1.959   4.442   0.264 -0.4081  0.4467  0.1736
 8639TIP3    H125881   1.962   4.389   0.184 -1.1447 -0.6327  0.8338
 8639TIP3    H225882   1.967   4.532   0.233 -0.4165  0.0353 -1.0979
 8640TIP3   OH225883   5.799   3.761   4.082 -0.1832 -0.4336 -0.5877
 8640TIP3    H125884   5.735   3.694   4.106 -1.0575  0.0034 -1.6023
 8640TIP3    H225885   5.764   3.842   4.120 -0.5069 -0.1085 -1.5485
 8641TIP3   OH225886   2.414   0.557   3.351 -0.8060 -0.1277  0.3568
 8641TIP3    H125887   2.376   0.586   3.434 -0.2323 -0.5883  0.7827
 8641TIP3    H225888   2.503   0.531   3.373 -0.9763 -1.2236 -0.2184
 8642TIP3   OH225889   6.524   3.211   4.730  0.4616  0.2870 -0.3832
 8642TIP3    H125890   6.477   3.294   4.740  0.1242  0.1662 -0.9305
 8642TIP3    H225891   6.577   3.222   4.651  0.7848  0.1526 -0.1860
 8643TIP3   OH225892   4.034   1.489   3.421  0.3118 -0.0553 -0.3565
 8643TIP3    H125893   4.129   1.500   3.433  0.4045  0.3019 -1.3587
 8643TIP3    H225894   4.019   1.395   3.433  0.6313  0.0318  0.8305
 8644TIP3   OH225895   6.841   2.288   4.175  0.1398  0.3200 -0.2665
 8644TIP3    H125896   6.790   2.357   4.215  0.8104  0.3218  0.6201
 8644TIP3    H225897   6.848   2.313   4.082 -2.0035 -0.0311 -0.5686
 8645TIP3   OH225898   5.109   1.685   1.926  0.1511  0.0417 -0.4304
 8645TIP3    H125899   5.082   1.599   1.894  1.3162  0.2759 -2.2054
 8645TIP3    H225900   5.064   1.747   1.869  0.3707  0.5584 -0.0457
 8646TIP3   OH225901   1.653   0.436   3.690 -0.0138 -0.0085  0.0146
 8646TIP3    H125902   1.703   0.401   3.616 -1.3892  0.2808 -1.0882
 8646TIP3    H225903   1.649   0.362   3.751 -1.7864 -1.4901 -1.7274
 8647TIP3   OH225904   2.163   0.783   5.095  0.1326  0.6044 -0.5223
 8647TIP3    H125905   2.232   0.718   5.105  0.1851  0.4242 -1.9243
 8647TIP3    H225906   2.209   0.867   5.092  0.2358  0.5319 -0.8892
 8648TIP3   OH225907   1.610   6.358   1.859 -0.2494  0.4138  0.1167
 8648TIP3    H125908   1.670   6.293   1.895  1.2523  0.5955 -1.9286
 8648TIP3    H225909   1.613   6.431   1.921 -1.1588 -0.9791  1.8908
 8649TIP3   OH225910   4.361   2.652   1.999 -0.3908 -0.5828  0.2635
 8649TIP3    H125911   4.350   2.740   1.963 -1.4016  0.6697  3.3107
 8649TIP3    H225912   4.455   2.643   2.012 -0.3555  0.4514  0.8062
 8650TIP3   OH225913   4.441   4.294   0.011  0.1705 -0.1413 -0.4159
 8650TIP3    H125914   4.393   4.250   0.081 -1.6809  1.4310 -0.6315
 8650TIP3    H225915   4.533   4.283   0.036 -0.3154 -1.8315  0.8773
 8651TIP3   OH225916   2.858   1.565   1.764  0.3109 -0.7195 -0.3836
 8651TIP3    H125917   2.821   1.478   1.779  0.5727 -0.9600 -1.0971
 8651TIP3    H225918   2.820   1.593   1.681 -0.4551  0.2282  0.2706
 8652TIP3   OH225919   6.278   0.276   0.032  0.4907  0.1232 -0.4340
 8652TIP3    H125920   6.265   0.197   0.083 -0.0884  0.4183 -0.1112
 8652TIP3    H225921   6.349   0.323   0.077  0.3775  0.1045 -0.2348
 8653TIP3   OH225922   3.570   1.113   0.356 -0.4139  0.2876  0.4921
 8653TIP3    H125923   3.654   1.158   0.342 -0.4981  0.0246 -1.0478
 8653TIP3    H225924   3.516   1.140   0.281 -1.2208 -0.6327  0.7256
 8654TIP3   OH225925   1.036   6.310   2.577 -0.7259  0.1161  0.5476
 8654TIP3    H125926   0.952   6.289   2.536 -0.4040  0.4102 -0.2813
 8654TIP3    H225927   1.064   6.228   2.618 -1.3382 -0.0225  0.6964
 8655TIP3   OH225928   2.123   3.615   0.088 -0.6240 -0.7031  0.0273
 8655TIP3    H125929   2.157   3.612  -0.001 -2.1164  0.0232 -0.6029
 8655TIP3    H225930   2.120   3.523   0.116 -1.5598 -1.0906 -1.2599
 8656TIP3   OH225931   5.029   3.836   0.915  0.7824 -0.7938 -0.0155
 8656TIP3    H125932   4.948   3.842   0.965  0.6210 -1.8070 -0.1458
 8656TIP3    H225933   5.078   3.915   0.941 -0.3710  0.0109 -0.2017
 8657TIP3   OH225934   3.067   4.156   1.573 -0.6215  0.2263  0.0347
 8657TIP3    H125935   2.987   4.156   1.625 -1.5333  3.4663 -1.1307
 8657TIP3    H225936   3.106   4.242   1.587  2.0059 -0.7637 -0.4830
 8658TIP3   OH225937   5.674   3.487   2.665  0.3579 -0.6536 -0.6273
 8658TIP3    H125938   5.651   3.433   2.589 -0.3945  1.3443 -1.9078
 8658TIP3    H225939   5.629   3.570   2.650  0.7378  0.0606  1.7022
 8659TIP3   OH225940   6.233   1.479   3.292 -0.2402  0.2858 -0.4038
 8659TIP3    H125941   6.327   1.489   3.277 -0.6403  1.3832 -2.6693
 8659TIP3    H225942   6.223   1.388   3.321  1.3693 -0.4214 -1.8546
 8660TIP3   OH225943   1.117   0.394   3.149 -0.4141 -0.2074 -0.3947
 8660TIP3    H125944   1.113   0.475   3.098  1.7925 -0.4259 -0.9900
 8660TIP3    H225945   1.140   0.423   3.237 -1.0389 -0.0982 -0.2591
 8661TIP3   OH225946   3.748   1.061   5.378 -0.8505  0.1195  0.2076
 8661TIP3    H125947   3.711   1.130   5.322 -0.1839 -1.1564 -1.9226
 8661TIP3    H225948   3.733   0.980   5.330  0.4407 -0.9678  1.5335
 8662TIP3   OH225949   7.018   1.168   1.713 -0.6373  0.4883 -0.2354
 8662TIP3    H125950   7.086   1.115   1.755 -0.5189 -1.0180 -2.1747
 8662TIP3    H225951   6.936   1.130   1.744 -0.5669  0.2356 -0.3577
 8663TIP3   OH225952   2.205   2.486   5.008 -0.2020 -0.5161  0.1144
 8663TIP3    H125953   2.187   2.437   4.927  0.6344 -1.1904  0.3176
 8663TIP3    H225954   2.244   2.421   5.067  3.0256  0.7739 -0.3519
 8664TIP3   OH225955   7.028   5.464   4.336  0.8206 -0.4500 -0.4317
 8664TIP3    H125956   7.094   5.395   4.345  0.2176 -1.0399 -0.5112
 8664TIP3    H225957   7.049   5.526   4.405  2.4140  0.1739 -1.4036
 8665TIP3   OH225958   3.167   3.037   5.056 -0.6563 -0.0679  0.7308
 8665TIP3    H125959   3.117   3.118   5.057 -0.7021 -0.0977  0.8567
 8665TIP3    H225960   3.102   2.968   5.069 -0.5011 -0.0631  1.5795
 8666TIP3   OH225961   1.868   6.329   4.285 -0.2135  0.1535 -0.3926
 8666TIP3    H125962   1.820   6.253   4.254 -0.6892  0.4002 -0.2767
 8666TIP3    H225963   1.800   6.389   4.316  0.2009  0.1694  0.5425
 8667TIP3   OH225964   5.508   6.216   4.703  0.0137 -0.3923 -0.4222
 8667TIP3    H125965   5.434   6.264   4.739  0.6771 -0.5532  1.2410
 8667TIP3    H225966   5.503   6.231   4.608 -1.6924  0.1973 -0.2691
 8668TIP3   OH225967   3.015   4.799   4.004  0.2160 -0.3909  0.0409
 8668TIP3    H125968   3.096   4.841   3.975 -0.3311 -0.0235 -1.0238
 8668TIP3    H225969   2.946   4.844   3.956 -0.6975 -0.2733  1.4008
 8669TIP3   OH225970   4.561   0.116   4.695 -0.0418  0.3842 -0.5189
 8669TIP3    H125971   4.524   0.175   4.630  1.2564 -0.2797 -1.9199
 8669TIP3    H225972   4.494   0.048   4.706 -0.8596  1.2287 -0.0708
 8670TIP3   OH225973   3.497   4.990   5.049  0.5898 -0.1478  0.5454
 8670TIP3    H125974   3.582   4.962   5.013  0.6361  0.5924  0.0527
 8670TIP3    H225975   3.495   4.953   5.137  0.7468 -1.4939  0.0078
 8671TIP3   OH225976   3.793   1.782   0.888 -0.3667 -0.1747  0.4196
 8671TIP3    H125977   3.884   1.812   0.882 -0.8452  1.9736  2.5982
 8671TIP3    H225978   3.773   1.751   0.799  2.1374  0.2535 -0.3861
 8672TIP3   OH225979   3.121   2.011   4.191  0.2924  0.3029 -0.1530
 8672TIP3    H125980   3.176   1.934   4.176 -2.0506 -1.4582 -0.2773
 8672TIP3    H225981   3.136   2.067   4.115  1.4343 -0.3975 -0.4587
 8673TIP3   OH225982   6.105   1.915   3.052  0.2797  0.0401 -0.4712
 8673TIP3    H125983   6.154   1.878   2.978  0.0513 -0.4550 -0.3802
 8673TIP3    H225984   6.117   1.851   3.123  0.4673  0.4928 -0.0859
 8674TIP3   OH225985   7.120   2.122   3.941  0.9898 -0.3659 -0.5684
 8674TIP3    H125986   7.154   2.196   3.891  1.9926  1.3763  2.3805
 8674TIP3    H225987   7.035   2.104   3.903  0.4266  2.7460 -1.0829
 8675TIP3   OH225988   4.729   4.711   4.312  0.2410 -0.2889  0.0953
 8675TIP3    H125989   4.817   4.714   4.274  0.4484  2.6980  0.5388
 8675TIP3    H225990   4.743   4.721   4.406 -0.5407 -1.5495  0.3775
 8676TIP3   OH225991   1.046   4.937   2.114  0.4750  0.5882 -0.2156
 8676TIP3    H125992   1.058   4.845   2.090 -1.0535  0.9186 -2.6425
 8676TIP3    H225993   0.961   4.939   2.159  1.2290  0.6366  1.2644
 8677TIP3   OH225994   1.967   1.586   5.486  0.3357 -0.5640 -0.3254
 8677TIP3    H125995   2.003   1.642   5.555 -0.5421 -0.1096 -0.2177
 8677TIP3    H225996   1.912   1.523   5.532  0.3384 -0.7300 -0.5486
 8678TIP3   OH225997   5.057   2.716   2.119  0.1771  0.7495 -0.0139
 8678TIP3    H125998   5.095   2.687   2.036  2.2671  0.4051  0.9872
 8678TIP3    H225999   5.013   2.639   2.154 -0.8260  0.9305 -0.8335
 8679TIP3   OH226000   5.100   3.123   3.330 -0.3387 -0.0115  0.1757
 8679TIP3    H126001   5.094   3.083   3.243  0.9387 -0.9943  0.5018
 8679TIP3    H226002   5.052   3.062   3.387  0.2911 -0.2820  0.4242
 8680TIP3   OH226003   1.460   4.584   4.038 -0.2666 -0.3156  0.0648
 8680TIP3    H126004   1.486   4.516   4.100 -0.1589 -0.2223  0.1216
 8680TIP3    H226005   1.534   4.591   3.978 -0.6559 -0.8937 -0.4874
 8681TIP3   OH226006   5.098   6.266   5.235 -1.0077  0.5059 -0.0147
 8681TIP3    H126007   5.102   6.291   5.328 -0.2159 -0.0882  0.1230
 8681TIP3    H226008   5.012   6.224   5.226 -1.7956  2.0347  0.0504
 8682TIP3   OH226009   5.097   6.020   0.786 -0.2221  0.0027 -0.3264
 8682TIP3    H126010   5.026   6.035   0.848 -0.8437 -1.1300 -0.7398
 8682TIP3    H226011   5.058   5.967   0.717  1.7078 -3.3060  0.8723
 8683TIP3   OH226012   5.149   0.916   0.706 -0.1642  0.2574  0.3324
 8683TIP3    H126013   5.152   0.904   0.801  1.8230 -0.1439  0.2761
 8683TIP3    H226014   5.089   0.989   0.692 -0.7502  0.0965  1.8629
 8684TIP3   OH226015   1.191   3.342   3.096  0.0360 -0.2447 -0.6318
 8684TIP3    H126016   1.212   3.417   3.041 -0.6445  0.6951  0.3509
 8684TIP3    H226017   1.275   3.295   3.105  0.8612  1.2988  0.0774
 8685TIP3   OH226018   4.274   1.562   3.137  0.1937 -0.0329  0.2467
 8685TIP3    H126019   4.217   1.638   3.125 -1.6928 -1.1050  1.6637
 8685TIP3    H226020   4.271   1.516   3.053  1.2938  1.3847 -0.5960
 8686TIP3   OH226021   6.158   0.832   2.247  0.3363 -0.4813  0.5378
 8686TIP3    H126022   6.252   0.843   2.238  0.1244  0.5214 -0.7530
 8686TIP3    H226023   6.122   0.860   2.163 -1.1388 -0.5274  1.1146
 8687TIP3   OH226024   6.004   0.584   4.319  0.0552  0.5540  0.0216
 8687TIP3    H126025   5.976   0.540   4.399 -0.7285  0.6331 -0.2034
 8687TIP3    H226026   5.942   0.655   4.308  0.2652  0.6505 -0.5704
 8688TIP3   OH226027   1.790   3.586   2.844 -0.4208 -0.0829  0.0751
 8688TIP3    H126028   1.770   3.591   2.937 -1.6765  0.6662 -0.2037
 8688TIP3    H226029   1.710   3.618   2.801 -0.3445 -1.6144 -1.2946
 8689TIP3   OH226030   3.533   5.404   2.413 -0.4135  0.2985 -0.4293
 8689TIP3    H126031   3.500   5.386   2.325  2.6644 -1.0888 -1.4266
 8689TIP3    H226032   3.587   5.328   2.435  0.0547  1.2578  2.0911
 8690TIP3   OH226033   0.404   1.999   3.481 -0.3485  0.5960 -0.0703
 8690TIP3    H126034   0.380   2.084   3.518  0.8977  0.7394  0.4774
 8690TIP3    H226035   0.485   2.016   3.433 -0.9893  0.0410 -1.3939
 8691TIP3   OH226036   0.349   1.256   3.335 -0.4577 -0.2357  0.6120
 8691TIP3    H126037   0.378   1.342   3.365 -1.5293  1.4098 -2.6080
 8691TIP3    H226038   0.426   1.217   3.295 -0.5640  0.3873 -0.2267
 8692TIP3   OH226039   6.465   1.672   3.608 -0.2637  0.0423 -0.1958
 8692TIP3    H126040   6.370   1.671   3.595 -0.1055 -2.9072 -2.1824
 8692TIP3    H226041   6.477   1.700   3.699 -2.9652  1.1660 -0.1116
 8693TIP3   OH226042   4.001   3.814   4.532  0.3016 -0.1043 -0.0125
 8693TIP3    H126043   4.042   3.757   4.597  0.6958  0.8155  0.5753
 8693TIP3    H226044   4.031   3.781   4.448 -0.4461 -1.4992  0.2510
 8694TIP3   OH226045   6.129   4.036   3.917 -0.6414 -0.1271  0.4780
 8694TIP3    H126046   6.173   4.113   3.883  1.4399 -0.4155  2.2270
 8694TIP3    H226047   6.042   4.066   3.943 -0.1764  1.4197  0.3206
 8695TIP3   OH226048   0.385   6.284   4.119  0.2233 -0.3572 -0.3900
 8695TIP3    H126049   0.325   6.257   4.049  0.1013 -0.8302 -0.1104
 8695TIP3    H226050   0.329   6.293   4.196  0.4263 -0.2599 -0.2540
 8696TIP3   OH226051   4.481   5.555   4.999  0.0808 -0.2871  0.4896
 8696TIP3    H126052   4.574   5.566   4.980  0.9821 -2.8572  2.8013
 8696TIP3    H226053   4.464   5.615   5.071  0.4083 -1.0184  1.1870
 8697TIP3   OH226054   3.529   1.285   2.659 -0.0156 -0.2914  0.5109
 8697TIP3    H126055   3.438   1.256   2.655 -0.0776 -0.4602  2.2685
 8697TIP3    H226056   3.536   1.352   2.591 -1.9281  0.9202  1.4223
 8698TIP3   OH226057   6.832   5.497   0.370  0.3999  0.4882 -0.0431
 8698TIP3    H126058   6.828   5.492   0.275 -0.1103 -0.5782  0.0173
 8698TIP3    H226059   6.771   5.567   0.394  0.0995  0.3730 -0.4702
 8699TIP3   OH226060   6.723   6.061   2.132 -0.3236  0.2258 -0.7964
 8699TIP3    H126061   6.746   6.076   2.040 -0.1451  0.3098 -0.7399
 8699TIP3    H226062   6.641   6.108   2.144  0.2329  1.1897 -0.6208
 8700TIP3   OH226063   1.896   6.112   1.556 -0.2752 -0.3193 -0.4900
 8700TIP3    H126064   1.843   6.183   1.521  0.9916  0.2890 -1.2274
 8700TIP3    H226065   1.850   6.032   1.530 -0.5517  0.1814 -1.5642
 8701TIP3   OH226066   1.026   2.853   1.670 -0.7276 -0.2534 -0.5417
 8701TIP3    H126067   1.106   2.857   1.618 -0.4587  1.9930 -0.0793
 8701TIP3    H226068   1.036   2.777   1.726  1.0064 -0.1075 -0.6158
 8702TIP3   OH226069   0.040   5.258   1.548 -1.0229 -0.2214  0.4314
 8702TIP3    H126070  -0.017   5.226   1.617  0.3438  0.8303  2.1278
 8702TIP3    H226071   0.009   5.347   1.530  0.3556  0.5807  1.7815
 8703TIP3   OH226072   6.975   5.298   2.604 -0.3838  0.7845 -0.3466
 8703TIP3    H126073   6.964   5.295   2.699  0.1183 -2.6121 -0.2457
 8703TIP3    H226074   7.012   5.384   2.586  1.8274  0.6692  2.8519
 8704TIP3   OH226075   5.741   0.184   3.882  0.3799 -0.1604 -0.1457
 8704TIP3    H126076   5.770   0.259   3.934  1.9392 -2.8026  3.1605
 8704TIP3    H226077   5.813   0.167   3.821  1.3402 -0.6335  1.0863
 8705TIP3   OH226078   3.265   0.350   2.979 -0.3718  0.0073 -0.0035
 8705TIP3    H126079   3.175   0.367   3.008 -0.0678  0.1588  0.8834
 8705TIP3    H226080   3.271   0.255   2.974  0.0829 -0.1446  2.2404
 8706TIP3   OH226081   6.981   2.971   1.616  0.0546  0.4822  0.0362
 8706TIP3    H126082   6.997   2.984   1.522 -2.8038 -0.3271 -0.6525
 8706TIP3    H226083   6.994   3.057   1.654  0.2536  1.0695 -1.2919
 8707TIP3   OH226084   6.758   4.217   4.626  0.5303 -0.2335  0.0838
 8707TIP3    H126085   6.684   4.160   4.606 -0.0247  0.6097 -0.2931
 8707TIP3    H226086   6.747   4.293   4.568  1.2878  0.2376  0.5384
 8708TIP3   OH226087   4.358   3.274   0.330 -0.4183 -0.1802 -0.2154
 8708TIP3    H126088   4.286   3.232   0.376 -0.4243 -0.4053 -0.4291
 8708TIP3    H226089   4.340   3.368   0.337 -1.3812 -0.2657 -1.3026
 8709TIP3   OH226090   5.434   2.836   0.013  0.0399 -0.5268  0.6766
 8709TIP3    H126091   5.367   2.768   0.021 -0.4959 -0.0316  0.4728
 8709TIP3    H226092   5.385   2.917   0.004  0.6767 -0.0194  1.6459
 8710TIP3   OH226093   2.070   3.155   4.948 -0.0316  0.1794 -0.5808
 8710TIP3    H126094   2.075   3.137   4.854  0.1701 -0.6497 -0.4174
 8710TIP3    H226095   2.161   3.151   4.978  0.0784  1.8475 -0.5819
 8711TIP3   OH226096   0.687   0.027   3.545 -0.5083  0.3553  0.2691
 8711TIP3    H126097   0.752   0.023   3.474 -1.3299 -0.3200 -0.4717
 8711TIP3    H226098   0.617   0.082   3.510 -0.9168  0.0196  0.5572
 8712TIP3   OH226099   5.476   1.349   2.857  0.1860 -0.4392  0.2013
 8712TIP3    H126100   5.444   1.347   2.947  0.1311 -0.1736  0.1907
 8712TIP3    H226101   5.474   1.442   2.833 -0.2615 -0.5503 -0.2328
 8713TIP3   OH226102   6.540   0.275   2.197 -0.0559  0.1393  0.0613
 8713TIP3    H126103   6.521   0.329   2.120  0.7287  1.7123  0.9081
 8713TIP3    H226104   6.570   0.191   2.161 -0.2823  0.6239 -1.3346
 8714TIP3   OH226105   6.337   0.963   4.462 -0.0885 -0.6157  0.0108
 8714TIP3    H126106   6.279   0.895   4.428 -0.1851  0.5602 -2.3593
 8714TIP3    H226107   6.321   1.039   4.406  2.9655  0.0739 -0.0929
 8715TIP3   OH226108   5.488   1.612   2.738 -0.0529 -0.1646  0.0422
 8715TIP3    H126109   5.424   1.654   2.681  0.0821  1.3986  0.9915
 8715TIP3    H226110   5.546   1.682   2.766  0.1502 -0.9544  1.7542
 8716TIP3   OH226111   3.105   2.309   4.379  0.2237 -0.5357  0.0762
 8716TIP3    H126112   3.089   2.215   4.372 -1.2017 -0.2948 -0.4312
 8716TIP3    H226113   3.172   2.327   4.313  0.1236 -1.1217 -0.1940
 8717TIP3   OH226114   6.871   5.723   5.354  0.5817 -0.1335  0.6668
 8717TIP3    H126115   6.909   5.784   5.290 -2.2716  0.5895 -0.4913
 8717TIP3    H226116   6.809   5.671   5.304  1.1508 -2.3749  2.1396
 8718TIP3   OH226117   0.227   0.183   3.531 -0.3094  0.4388 -0.3218
 8718TIP3    H126118   0.242   0.151   3.443  0.7223 -0.6270  0.2120
 8718TIP3    H226119   0.239   0.278   3.525 -0.5737  0.4197 -1.3683
 8719TIP3   OH226120   4.645   0.143   1.973 -0.3173 -0.3478  0.0204
 8719TIP3    H126121   4.716   0.079   1.980 -0.3288 -0.4808 -0.9977
 8719TIP3    H226122   4.577   0.097   1.923 -1.2908 -0.3591  1.2828
 8720TIP3   OH226123   5.052   1.426   3.514  0.2112 -0.9215 -0.2853
 8720TIP3    H126124   5.060   1.333   3.536  0.5135 -0.8986 -0.3077
 8720TIP3    H226125   4.980   1.457   3.570 -0.9149 -1.5125 -1.3484
 8721TIP3   OH226126   0.072   3.851   1.048  0.1138 -0.0504  0.0212
 8721TIP3    H126127   0.106   3.799   0.975 -0.1036  2.6650 -2.1626
 8721TIP3    H226128  -0.023   3.845   1.040  0.0839  0.8888 -0.4495
 8722TIP3   OH226129   1.721   0.792   0.558 -0.0270  0.2463 -0.2953
 8722TIP3    H126130   1.660   0.743   0.504 -1.2483  2.0633 -0.6472
 8722TIP3    H226131   1.806   0.777   0.518 -0.4845 -0.7968 -0.9314
 8723TIP3   OH226132   4.083   5.367   3.725  0.4384 -0.4009  0.1099
 8723TIP3    H126133   4.123   5.287   3.760  0.1121  0.1208  1.7912
 8723TIP3    H226134   4.150   5.435   3.737  0.3544 -0.2258 -0.3863
 8724TIP3   OH226135   6.778   5.644   2.780  0.2370 -0.3511  1.1539
 8724TIP3    H126136   6.727   5.664   2.858 -0.7735 -0.9385  0.6655
 8724TIP3    H226137   6.825   5.725   2.761 -2.2866  1.0187  0.3026
 8725TIP3   OH226138   7.002   0.192   3.848  0.0188  0.1674 -0.1779
 8725TIP3    H126139   7.082   0.223   3.890  0.4024 -0.8388 -0.1349
 8725TIP3    H226140   7.028   0.110   3.805 -0.7768  0.2825 -0.9128
 8726TIP3   OH226141   3.189   5.123   2.280  0.4530  0.8893  0.2875
 8726TIP3    H126142   3.256   5.139   2.213  0.8474  1.4826  0.8130
 8726TIP3    H226143   3.152   5.037   2.257 -0.8749  1.9618 -1.9224
 8727TIP3   OH226144   6.785   2.675   2.952  0.0637  0.4365  0.1126
 8727TIP3    H126145   6.778   2.581   2.934  0.1515  0.3451  0.5353
 8727TIP3    H226146   6.770   2.682   3.046 -1.3013  0.9935 -0.1269
 8728TIP3   OH226147   3.829   6.711   5.065  0.4971 -0.6791 -0.1831
 8728TIP3    H126148   3.819   6.772   5.138  0.6189 -0.8514 -0.0210
 8728TIP3    H226149   3.923   6.692   5.063  0.4876 -0.7086 -0.3571
 8729TIP3   OH226150   1.505   2.495   0.723  0.3706  0.3549  0.3030
 8729TIP3    H126151   1.503   2.405   0.757  1.8719  0.1958  0.0438
 8729TIP3    H226152   1.468   2.488   0.635  1.3747 -0.2091 -0.0924
 8730TIP3   OH226153   5.028   0.175   3.392  0.1439  0.1154  0.3057
 8730TIP3    H126154   5.028   0.271   3.395  1.8208  0.2009 -0.9215
 8730TIP3    H226155   4.938   0.150   3.415  0.0275  1.8958  2.1211
 8731TIP3   OH226156   5.076   6.094   3.450  0.6165  0.5944 -0.3582
 8731TIP3    H126157   5.139   6.026   3.475 -1.0405 -1.3473 -1.1691
 8731TIP3    H226158   5.118   6.139   3.376  1.7295  0.4362  0.1508
 8732TIP3   OH226159   1.914   4.680   4.150  0.7020 -0.0945 -0.7011
 8732TIP3    H126160   1.824   4.649   4.151  1.2995 -1.9759 -1.1043
 8732TIP3    H226161   1.908   4.772   4.177 -1.1687 -0.5264  0.5215
 8733TIP3   OH226162   1.719   1.475   5.584  0.0713  0.5017  0.3063
 8733TIP3    H126163   1.719   1.382   5.603  4.1760  0.1136 -0.7227
 8733TIP3    H226164   1.679   1.482   5.497  1.5949 -0.6717 -0.5448
 8734TIP3   OH226165   3.359   0.808   2.071 -0.3526 -0.6598 -0.1867
 8734TIP3    H126166   3.304   0.885   2.064  0.4728 -0.1021 -0.7198
 8734TIP3    H226167   3.336   0.754   1.995  0.0610 -0.2713 -0.5924
 8735TIP3   OH226168   6.181   0.491   4.920 -0.0179 -0.0901  0.4955
 8735TIP3    H126169   6.243   0.557   4.952  0.5577 -0.5787  0.3976
 8735TIP3    H226170   6.200   0.483   4.827  0.9160 -1.4522  0.7831
 8736TIP3   OH226171   1.667   5.168   2.070  0.3065 -0.0729 -0.4188
 8736TIP3    H126172   1.738   5.105   2.077  1.2283  0.7366 -1.7983
 8736TIP3    H226173   1.655   5.202   2.158  1.8544 -0.0190 -0.2076
 8737TIP3   OH226174   2.781   2.292   5.857  0.0724  0.4514 -0.2748
 8737TIP3    H126175   2.723   2.218   5.842 -1.8830  1.9271 -0.3516
 8737TIP3    H226176   2.787   2.336   5.773 -0.2810  1.3892  0.1736
 8738TIP3   OH226177   5.999   1.078   3.011 -0.8532 -0.0921 -0.2893
 8738TIP3    H126178   6.088   1.079   3.045 -0.5313 -1.9107 -0.9633
 8738TIP3    H226179   5.943   1.076   3.089 -0.3023  0.6270  0.1309
 8739TIP3   OH226180   0.119   6.752   2.174  0.1128  0.0623  0.0265
 8739TIP3    H126181   0.041   6.737   2.228 -0.4357  0.2984 -0.6881
 8739TIP3    H226182   0.139   6.666   2.137 -0.3746  0.1826 -0.5324
 8740TIP3   OH226183   1.147   5.329   2.272 -0.4712 -0.6713 -0.3353
 8740TIP3    H126184   1.095   5.259   2.312 -0.3091 -0.7484 -0.2572
 8740TIP3    H226185   1.166   5.389   2.345 -0.4481 -0.6442 -0.3634
 8741TIP3   OH226186   2.234   5.214   3.827 -0.0667 -0.2109 -0.1410
 8741TIP3    H126187   2.161   5.257   3.783  0.4096  0.7396 -0.0453
 8741TIP3    H226188   2.195   5.139   3.872 -0.6562 -0.8722 -1.6894
 8742TIP3   OH226189   5.488   1.745   5.736 -0.1743 -0.3799  0.2480
 8742TIP3    H126190   5.453   1.799   5.665 -0.9371 -0.1195  0.8165
 8742TIP3    H226191   5.579   1.775   5.746  0.0025 -0.5575 -0.7450
 8743TIP3   OH226192   4.717   1.392   3.966 -0.3478  0.6468 -0.5588
 8743TIP3    H126193   4.744   1.334   4.037 -1.0073 -0.0938 -0.8997
 8743TIP3    H226194   4.728   1.339   3.887  2.0879  2.0263 -1.2434
 8744TIP3   OH226195   2.913   4.822   1.787  0.2273 -0.0261  0.0519
 8744TIP3    H126196   2.924   4.746   1.729  2.1766 -0.7034  1.1957
 8744TIP3    H226197   2.902   4.784   1.874 -1.2103  0.9982  0.3320
 8745TIP3   OH226198   4.623   1.802   0.806  0.2449  0.4179  0.1640
 8745TIP3    H126199   4.662   1.786   0.892  1.7583  0.2816 -0.5062
 8745TIP3    H226200   4.561   1.873   0.821 -1.3308 -1.2079  1.8122
 8746TIP3   OH226201   6.583   1.465   5.052 -0.4343  0.5858 -0.0208
 8746TIP3    H126202   6.604   1.555   5.024  1.1197  0.1774 -0.2954
 8746TIP3    H226203   6.593   1.413   4.973  1.6181 -0.2300  0.7015
 8747TIP3   OH226204   3.767   5.901   1.605  0.6844  0.3554 -0.4315
 8747TIP3    H126205   3.860   5.883   1.620  0.3993 -0.1283  0.8756
 8747TIP3    H226206   3.721   5.840   1.662 -0.4699 -0.0103 -1.6952
 8748TIP3   OH226207   2.033   3.812   3.024 -0.2931 -0.1362  0.2314
 8748TIP3    H126208   2.120   3.803   3.063  0.7666 -0.7693 -2.1503
 8748TIP3    H226209   2.036   3.895   2.977 -1.5191  0.5700  1.3300
 8749TIP3   OH226210   5.599   1.881   3.361 -0.4434 -0.4265 -0.0213
 8749TIP3    H126211   5.520   1.832   3.337 -1.2554  0.4167  0.8538
 8749TIP3    H226212   5.632   1.916   3.278 -1.8668  0.4939 -0.2254
 8750TIP3   OH226213   4.667   0.911   2.684 -0.3727  0.6161  1.1953
 8750TIP3    H126214   4.596   0.848   2.677  0.1275  0.1650 -0.1677
 8750TIP3    H226215   4.645   0.980   2.621  0.6512  0.1816  0.3217
 8751TIP3   OH226216   0.875   3.303   4.497  0.0995 -0.0102  0.3152
 8751TIP3    H126217   0.826   3.319   4.578 -0.6883  1.0902 -0.3463
 8751TIP3    H226218   0.815   3.253   4.442  1.0457 -1.7455  0.7993
 8752TIP3   OH226219   1.751   4.482   0.446  0.1301 -0.5589  0.2638
 8752TIP3    H126220   1.731   4.394   0.414 -1.3034 -0.4296  0.7204
 8752TIP3    H226221   1.846   4.485   0.450  0.2233 -2.8852  2.3693
 8753TIP3   OH226222   6.648   1.979   1.340 -0.4639  0.1298  0.0556
 8753TIP3    H126223   6.684   1.906   1.291  0.3152  1.0467 -0.7884
 8753TIP3    H226224   6.605   1.939   1.416  1.5604 -1.0824  0.6357
 8754TIP3   OH226225   5.512   3.598   1.173  0.0017  0.5663  0.3254
 8754TIP3    H126226   5.446   3.529   1.179 -0.0980  0.7775  2.5763
 8754TIP3    H226227   5.462   3.677   1.155  0.0162  0.2650 -1.2138
 8755TIP3   OH226228   3.089   5.034   1.737 -0.3231  0.2332 -0.5053
 8755TIP3    H126229   3.045   4.949   1.739  1.5946 -0.8128 -0.6530
 8755TIP3    H226230   3.102   5.056   1.829 -0.6097  0.2596 -0.4699
 8756TIP3   OH226231   1.397   1.811   5.538 -0.2676 -0.2681  0.2660
 8756TIP3    H126232   1.395   1.739   5.476 -0.8187  0.3058 -0.4087
 8756TIP3    H226233   1.471   1.793   5.595  1.0805 -0.1314 -1.3865
 8757TIP3   OH226234   1.933   1.168   2.917  0.4673 -0.0834  0.0840
 8757TIP3    H126235   2.010   1.214   2.883  0.1812  0.0518 -0.3901
 8757TIP3    H226236   1.944   1.078   2.888  0.4363 -0.0584 -0.0064
 8758TIP3   OH226237   2.141   3.527   1.973  0.3586  0.9186 -0.5059
 8758TIP3    H126238   2.164   3.556   2.061  1.7664  1.8630 -1.1602
 8758TIP3    H226239   2.126   3.433   1.981  1.4847  0.8185  0.5404
 8759TIP3   OH226240   0.834   2.181   5.098 -0.4083  0.3831  0.4104
 8759TIP3    H126241   0.786   2.099   5.103  0.5512 -0.2540 -0.4898
 8759TIP3    H226242   0.925   2.155   5.086 -0.3859  1.5199 -2.9937
 8760TIP3   OH226243   6.032   1.738   3.859 -0.1156 -0.2708 -0.4084
 8760TIP3    H126244   6.005   1.732   3.767  0.0427 -1.4210 -0.4047
 8760TIP3    H226245   5.954   1.765   3.906 -0.7012 -1.4194 -0.6774
 8761TIP3   OH226246   3.708   2.875   1.935 -0.0616  0.0119  0.4667
 8761TIP3    H126247   3.620   2.909   1.956 -0.1141 -0.4188  0.9504
 8761TIP3    H226248   3.758   2.887   2.015  0.8917  2.0177 -0.3560
 8762TIP3   OH226249   2.831   6.776   5.532 -0.1281 -0.3829 -0.7262
 8762TIP3    H126250   2.902   6.739   5.480 -0.0468  1.2685 -1.8861
 8762TIP3    H226251   2.872   6.846   5.582 -0.7771  0.0417 -0.7809
 8763TIP3   OH226252   0.908   6.021   0.640 -0.2949  0.6945 -0.0143
 8763TIP3    H126253   0.919   6.116   0.639 -0.9494  0.7792  0.3383
 8763TIP3    H226254   0.942   5.992   0.555 -1.5375  1.4223 -0.7946
 8764TIP3   OH226255   2.943   5.095   0.611  0.0087  0.0860 -0.2798
 8764TIP3    H126256   2.959   5.028   0.677  0.3183  0.9486  0.5363
 8764TIP3    H226257   2.971   5.054   0.528 -0.7950 -1.1548  0.0344
 8765TIP3   OH226258   0.696   5.006   4.419  0.4625 -0.2165 -0.0655
 8765TIP3    H126259   0.616   4.954   4.410  1.4922 -2.0737  0.9831
 8765TIP3    H226260   0.757   4.949   4.466  1.5861  2.0395  1.3817
 8766TIP3   OH226261   1.536   2.240   0.083  0.1741  0.1413 -0.1832
 8766TIP3    H126262   1.503   2.330   0.088  1.5296  0.5915  1.6508
 8766TIP3    H226263   1.462   2.189   0.051 -1.2036  1.6257  0.5256
 8767TIP3   OH226264   1.860   1.524   5.231 -0.2214  0.4246 -0.0077
 8767TIP3    H126265   1.824   1.606   5.196  2.5686  0.8718 -2.1929
 8767TIP3    H226266   1.908   1.550   5.310  0.2834  0.8508 -0.4483
 8768TIP3   OH226267   0.467   2.103   4.035  0.7480 -0.3106  0.3706
 8768TIP3    H126268   0.480   2.188   3.993  1.1828  1.0824  3.1198
 8768TIP3    H226269   0.553   2.062   4.033  0.7072 -0.3834 -0.2771
 8769TIP3   OH226270   0.434   0.345   4.966 -0.1813 -0.6231  0.3792
 8769TIP3    H126271   0.487   0.389   4.899  1.0132 -0.0203  1.6688
 8769TIP3    H226272   0.391   0.416   5.014 -0.2023 -0.9822  0.9046
 8770TIP3   OH226273   5.070   3.367   1.324 -0.2241 -0.5807  0.1755
 8770TIP3    H126274   5.056   3.392   1.416 -0.7137 -1.0073  0.2253
 8770TIP3    H226275   4.998   3.408   1.277  0.6588  0.5676 -0.1978
 8771TIP3   OH226276   4.735   3.535   3.649  0.8522 -0.1370  0.1225
 8771TIP3    H126277   4.714   3.628   3.650  0.0898 -0.2997 -0.1469
 8771TIP3    H226278   4.816   3.528   3.700  1.3275  0.7659 -0.4871
 8772TIP3   OH226279   3.492   5.710   4.844  0.1224  0.2913  0.7201
 8772TIP3    H126280   3.418   5.740   4.791 -0.6261 -1.8018  0.5062
 8772TIP3    H226281   3.570   5.736   4.795 -0.4751  1.6030  0.4355
 8773TIP3   OH226282   0.178   1.975   0.791 -0.0663 -0.2348  0.4132
 8773TIP3    H126283   0.228   1.912   0.738  1.3867 -1.6404  3.2072
 8773TIP3    H226284   0.165   2.050   0.734 -2.1182 -3.0750 -3.2334
 8774TIP3   OH226285   2.989   6.089   0.540 -0.1647  0.8215  0.1743
 8774TIP3    H126286   3.050   6.142   0.591  1.9771  0.2342 -1.6087
 8774TIP3    H226287   2.995   6.001   0.577 -1.1072  1.0740  0.9529
 8775TIP3   OH226288   4.673   3.151   2.656 -0.1052  0.1896 -0.1038
 8775TIP3    H126289   4.626   3.180   2.735  1.4524  0.7074  0.6728
 8775TIP3    H226290   4.624   3.075   2.627 -0.3689 -0.4199  1.7578
 8776TIP3   OH226291   6.350   3.595   0.545 -0.0801  0.3261 -0.0899
 8776TIP3    H126292   6.379   3.640   0.625 -1.3395  0.9255  0.0557
 8776TIP3    H226293   6.378   3.653   0.474  0.4750  0.1126 -0.0462
 8777TIP3   OH226294   2.565   2.999   4.710  0.3237  0.5351  0.6426
 8777TIP3    H126295   2.591   2.907   4.722  0.8575  0.9259  2.9230
 8777TIP3    H226296   2.529   3.002   4.621 -3.4495 -2.7624  1.7782
 8778TIP3   OH226297   3.105   2.712   5.714 -0.0368 -0.0177  0.4027
 8778TIP3    H126298   3.097   2.704   5.619 -1.2084  0.0114  0.4864
 8778TIP3    H226299   3.096   2.806   5.732  0.8525  0.0650  0.5053
 8779TIP3   OH226300   2.514   0.325   1.544  0.5979 -0.0061 -0.2219
 8779TIP3    H126301   2.442   0.354   1.488  1.1665 -0.1600 -1.0615
 8779TIP3    H226302   2.496   0.232   1.560 -0.1049  0.2840  0.7073
 8780TIP3   OH226303   6.063   2.304   0.315 -0.1616  0.6216 -0.2544
 8780TIP3    H126304   5.972   2.277   0.328  0.4062 -0.3749  2.2752
 8780TIP3    H226305   6.102   2.299   0.403  2.4449  0.5832 -1.3280
 8781TIP3   OH226306   3.335   2.902   2.530 -0.2761 -0.0693  0.2257
 8781TIP3    H126307   3.416   2.952   2.537  1.4161 -2.4362 -1.0246
 8781TIP3    H226308   3.347   2.829   2.590 -1.4219 -0.5761 -0.1284
 8782TIP3   OH226309   2.402   0.947   5.792 -0.3554  0.7450 -0.1454
 8782TIP3    H126310   2.443   0.923   5.709 -0.9592  0.8294 -0.4792
 8782TIP3    H226311   2.384   1.041   5.783 -0.7496  0.6780 -0.0686
 8783TIP3   OH226312   0.801   0.062   1.412  0.3458  0.0089 -0.1628
 8783TIP3    H126313   0.810  -0.034   1.411 -1.2132 -0.2138 -2.5353
 8783TIP3    H226314   0.890   0.095   1.410  1.1093 -1.2224  3.9442
 8784TIP3   OH226315   3.900   0.391   5.799  0.5860 -0.0433 -0.1439
 8784TIP3    H126316   3.885   0.439   5.881 -1.6268 -0.5009 -0.2056
 8784TIP3    H226317   3.887   0.457   5.731  0.0688 -0.1659 -0.1681
 8785TIP3   OH226318   2.416   3.154   2.576 -0.0834  0.1329  0.4335
 8785TIP3    H126319   2.339   3.103   2.550  0.7261 -0.9186 -0.0193
 8785TIP3    H226320   2.382   3.241   2.597 -1.1801  0.1973 -1.3996
 8786TIP3   OH226321   5.665   1.718   2.338 -0.1753  0.1595  0.3959
 8786TIP3    H126322   5.590   1.776   2.342 -0.5295 -0.1972 -0.7403
 8786TIP3    H226323   5.635   1.642   2.288  0.0881 -1.3047  2.3706
 8787TIP3   OH226324   6.307   4.995   3.014  0.5905  0.5922  0.6202
 8787TIP3    H126325   6.332   4.917   3.062  1.2028 -0.0090 -0.6102
 8787TIP3    H226326   6.377   5.058   3.032  0.9529  0.2795  0.3094
 8788TIP3   OH226327   3.394   6.123   0.096 -0.2132 -0.4838 -0.1763
 8788TIP3    H126328   3.379   6.092   0.185  0.1233 -0.0645  0.0324
 8788TIP3    H226329   3.368   6.215   0.098  0.3176 -0.3237 -0.3656
 8789TIP3   OH226330   4.259   0.141   5.474 -0.0227  0.0152 -0.2843
 8789TIP3    H126331   4.197   0.200   5.517  1.1574  0.7232  0.4906
 8789TIP3    H226332   4.292   0.191   5.400  0.9216  0.3114  0.3287
 8790TIP3   OH226333   6.143   5.366   0.108  0.4729  0.1397  0.4898
 8790TIP3    H126334   6.133   5.393   0.199  0.0731 -0.1311  0.5326
 8790TIP3    H226335   6.155   5.271   0.113 -1.4554 -0.1702  0.1701
 8791TIP3   OH226336   4.757   0.124   0.818  0.9106  0.8434  0.2224
 8791TIP3    H126337   4.770   0.218   0.807 -0.2866  1.0685  0.5585
 8791TIP3    H226338   4.842   0.085   0.799  0.8600  1.7882 -2.2754
 8792TIP3   OH226339   2.671   1.218   1.131  0.1887  0.0623 -0.8483
 8792TIP3    H126340   2.673   1.263   1.216  2.1043 -0.8456 -0.3491
 8792TIP3    H226341   2.682   1.289   1.067  0.5549  0.5784 -0.2310
 8793TIP3   OH226342   2.052   6.341   2.563 -0.0927  0.0641  0.4745
 8793TIP3    H126343   2.064   6.306   2.651  1.0207  1.8363  1.0828
 8793TIP3    H226344   1.968   6.387   2.566  0.0210  0.2613  0.6676
 8794TIP3   OH226345   6.924   2.461   1.425  0.1719  0.2251  0.0161
 8794TIP3    H126346   6.906   2.510   1.505 -1.6989 -1.3425  0.6511
 8794TIP3    H226347   6.838   2.431   1.395  1.0644 -1.2927 -1.2146
 8795TIP3   OH226348   3.611   5.020   5.713 -0.5365 -0.1779  0.4956
 8795TIP3    H126349   3.584   4.947   5.769  0.1025 -0.4253  0.4954
 8795TIP3    H226350   3.613   4.983   5.625 -0.0397 -0.2118  0.5182
 8796TIP3   OH226351   0.176   1.867   2.460 -0.2051 -0.1434 -0.3773
 8796TIP3    H126352   0.181   1.918   2.379 -0.0405 -0.1554 -0.3741
 8796TIP3    H226353   0.265   1.838   2.476 -0.4193 -1.0411 -0.7667
 8797TIP3   OH226354   6.448   3.331   2.819 -0.4481  0.4380 -0.2955
 8797TIP3    H126355   6.509   3.296   2.753  1.3463  1.8895  0.5052
 8797TIP3    H226356   6.373   3.361   2.768 -0.5180 -1.3608 -1.3299
 8798TIP3   OH226357   0.853   5.416   4.844  0.1959 -0.4305  0.4346
 8798TIP3    H126358   0.878   5.506   4.825 -1.5363  0.1695  0.7956
 8798TIP3    H226359   0.854   5.410   4.940 -1.1655 -0.3146  0.4721
 8799TIP3   OH226360   2.209   0.286   2.334  0.1560  0.4079  0.1831
 8799TIP3    H126361   2.152   0.363   2.325 -1.3237 -0.7423 -0.7691
 8799TIP3    H226362   2.202   0.261   2.426  1.1687  1.7511  0.6655
 8800TIP3   OH226363   1.546   2.699   5.733 -0.3736  0.0387  0.1542
 8800TIP3    H126364   1.517   2.714   5.823  0.1566 -1.3660  0.5776
 8800TIP3    H226365   1.472   2.654   5.692 -0.1738 -0.3546  0.2219
 8801TIP3   OH226366   3.550   0.180   1.422 -0.6882 -0.0988 -0.2274
 8801TIP3    H126367   3.580   0.269   1.407 -0.5964  0.0607  0.8007
 8801TIP3    H226368   3.498   0.186   1.502 -1.1348 -0.8715 -0.4494
 8802TIP3   OH226369   2.325   2.985   5.845 -0.0978  0.0905 -0.1817
 8802TIP3    H126370   2.232   2.987   5.866 -0.2150 -1.0980 -0.5234
 8802TIP3    H226371   2.335   3.050   5.776 -0.3384  1.4895  1.0631
 8803TIP3   OH226372   3.254   1.555   4.975  0.0502  0.0456  0.1812
 8803TIP3    H126373   3.299   1.566   5.059  0.6754  0.0388 -0.1529
 8803TIP3    H226374   3.318   1.582   4.909 -0.1821 -0.6532 -0.3370
 8804TIP3   OH226375   5.456   2.716   2.989 -0.6479  0.4860  0.1696
 8804TIP3    H126376   5.412   2.798   2.968 -0.8814  0.2570 -0.2694
 8804TIP3    H226377   5.438   2.702   3.082 -0.9206  0.7459  0.1588
 8805TIP3   OH226378   2.757   3.650   3.111 -0.3018  0.2145 -0.1343
 8805TIP3    H126379   2.703   3.718   3.150  1.1659  1.5114 -0.2464
 8805TIP3    H226380   2.847   3.672   3.138  0.5271 -0.0586 -2.4673
 8806TIP3   OH226381   5.969   2.620   4.334 -0.1730  0.3349  0.4756
 8806TIP3    H126382   5.942   2.549   4.276  1.7128  0.7504 -1.0215
 8806TIP3    H226383   5.977   2.578   4.420 -0.8304 -0.8444 -0.0150
 8807TIP3   OH226384   7.164   3.586   3.701 -0.0582  0.8476  0.1793
 8807TIP3    H126385   7.168   3.517   3.635 -0.3543  0.7748  0.2350
 8807TIP3    H226386   7.153   3.540   3.784  2.0192  0.8519  0.5006
 8808TIP3   OH226387   6.784   0.892   4.113 -0.0258 -0.1156  0.0548
 8808TIP3    H126388   6.821   0.812   4.076  0.2135  0.8443 -1.9087
 8808TIP3    H226389   6.784   0.877   4.207  0.6901 -2.1242 -0.2145
 8809TIP3   OH226390   2.200   3.997   4.822 -0.7917  0.3613 -0.1244
 8809TIP3    H126391   2.269   3.960   4.766  1.2729  0.9575  1.8417
 8809TIP3    H226392   2.231   4.085   4.843 -2.8074  1.1282 -0.1330
 8810TIP3   OH226393   5.831   2.618   3.805  0.4593 -0.8769 -0.3162
 8810TIP3    H126394   5.796   2.594   3.719  1.9336 -2.4969 -0.5064
 8810TIP3    H226395   5.824   2.538   3.858  2.9857 -1.0421 -0.1144
 8811TIP3   OH226396   0.163   5.167   2.499 -0.5430  0.2716  0.7532
 8811TIP3    H126397   0.110   5.160   2.420  1.7047  0.8266 -0.9064
 8811TIP3    H226398   0.147   5.085   2.546 -1.2945 -0.4615 -0.7114
 8812TIP3   OH226399   3.729   0.769   3.828  0.5276 -0.4514 -0.2796
 8812TIP3    H126400   3.747   0.807   3.742 -1.8747  1.3396 -0.1103
 8812TIP3    H226401   3.741   0.675   3.816 -1.7637 -0.5092 -3.2142
 8813TIP3   OH226402   4.792   2.405   3.409  0.2883 -0.5466  0.3883
 8813TIP3    H126403   4.797   2.390   3.504 -2.0798  0.8780  0.8175
 8813TIP3    H226404   4.854   2.477   3.393  0.1760 -0.3081  0.9933
 8814TIP3   OH226405   4.550   6.021   5.094 -0.0008  0.0219 -0.0412
 8814TIP3    H126406   4.592   6.011   5.008 -0.7423 -0.1970 -0.3894
 8814TIP3    H226407   4.612   5.983   5.156  0.1835 -0.5879 -0.5814
 8815TIP3   OH226408   6.368   2.689   4.974 -0.0540  0.4257 -0.0065
 8815TIP3    H126409   6.353   2.782   4.995  0.5053 -0.1995  3.7925
 8815TIP3    H226410   6.434   2.690   4.905 -0.1371  2.8440 -0.1284
 8816TIP3   OH226411   3.890   5.667   4.727  0.4889 -0.2520 -0.0996
 8816TIP3    H126412   3.927   5.583   4.699  1.0859  0.0047 -0.1181
 8816TIP3    H226413   3.943   5.732   4.680 -1.4114  0.1139 -1.8495
 8817TIP3   OH226414   3.700   5.945   2.854  0.1664 -0.0976  0.1936
 8817TIP3    H126415   3.608   5.968   2.841  0.9071  1.8537 -2.4594
 8817TIP3    H226416   3.740   5.954   2.768  3.4108  1.9073  1.6978
 8818TIP3   OH226417   3.583   4.366   5.614  0.3213 -0.5323 -0.8345
 8818TIP3    H126418   3.506   4.418   5.634  0.9829  0.5926 -1.1440
 8818TIP3    H226419   3.654   4.430   5.604  0.8324 -1.3317 -2.8342
 8819TIP3   OH226420   5.806   5.721   3.101 -0.2788 -0.3281  0.7183
 8819TIP3    H126421   5.829   5.811   3.125  1.2264 -0.2685 -0.7424
 8819TIP3    H226422   5.845   5.667   3.170  0.6659  0.0374  0.4850
 8820TIP3   OH226423   0.573   2.931   2.816 -0.1991 -0.0587  0.3389
 8820TIP3    H126424   0.578   2.835   2.813 -1.6959 -0.2126  1.3841
 8820TIP3    H226425   0.599   2.959   2.728 -1.3715 -1.5418 -0.5415
 8821TIP3   OH226426   6.987   0.643   1.289 -0.0849 -0.0591 -1.0210
 8821TIP3    H126427   7.054   0.610   1.348 -0.2142  0.2983 -0.6661
 8821TIP3    H226428   7.033   0.706   1.233  0.0258 -0.3565 -1.2679
 8822TIP3   OH226429   1.427   5.773   3.776 -0.5843 -0.2770 -0.2314
 8822TIP3    H126430   1.479   5.853   3.783  1.1648 -1.2922 -0.8250
 8822TIP3    H226431   1.463   5.716   3.843 -1.1883 -0.8926 -0.4197
 8823TIP3   OH226432   2.428   3.792   4.937  0.0789  0.4703  0.1481
 8823TIP3    H126433   2.369   3.724   4.904  0.1478 -0.4602  1.8473
 8823TIP3    H226434   2.381   3.831   5.010  0.8393  0.9102  0.4129
 8824TIP3   OH226435   1.705   1.147   5.159 -0.4945 -0.3201 -0.2804
 8824TIP3    H126436   1.767   1.074   5.154 -0.3190 -0.0974 -2.1449
 8824TIP3    H226437   1.747   1.210   5.218  0.8049 -0.4409 -1.0329
 8825TIP3   OH226438   1.300   1.178   1.495 -0.3841  0.4216 -0.4742
 8825TIP3    H126439   1.222   1.175   1.549 -0.2909  1.1403 -0.2830
 8825TIP3    H226440   1.279   1.240   1.425  0.1078  0.8410 -0.2590
 8826TIP3   OH226441   6.223   5.901   5.240  0.0451 -0.3140 -0.2183
 8826TIP3    H126442   6.162   5.828   5.249 -1.1958  0.6034 -0.7711
 8826TIP3    H226443   6.211   5.952   5.321  0.6138 -0.5157 -0.0067
 8827TIP3   OH226444   0.988   0.689   0.374 -0.0544 -0.0082 -0.3468
 8827TIP3    H126445   0.987   0.614   0.315  0.4109  0.5278 -1.0551
 8827TIP3    H226446   1.018   0.654   0.458 -0.9701 -0.8276 -0.3485
 8828TIP3   OH226447   2.207   5.035   0.274 -0.7611 -0.7858  0.2311
 8828TIP3    H126448   2.285   4.997   0.314 -0.0730  2.3679  2.2261
 8828TIP3    H226449   2.229   5.042   0.181  0.1323 -2.5163  0.2687
 8829TIP3   OH226450   0.370   3.056   3.124  0.0368  0.4622 -0.0577
 8829TIP3    H126451   0.449   3.003   3.111 -1.1202 -1.3093 -0.1889
 8829TIP3    H226452   0.322   3.010   3.193 -0.4455  2.0623  0.7053
 8830TIP3   OH226453   3.214   1.685   3.229 -0.0271  0.1576 -0.4798
 8830TIP3    H126454   3.247   1.766   3.190 -0.0569 -0.0397 -0.9208
 8830TIP3    H226455   3.193   1.630   3.154 -1.6751  0.3983 -0.2346
 8831TIP3   OH226456   4.318   2.118   5.595  0.3289 -0.7778  0.1739
 8831TIP3    H126457   4.390   2.123   5.532  0.8535 -1.9988  0.6403
 8831TIP3    H226458   4.338   2.186   5.660 -0.0811  0.3156 -0.8080
 8832TIP3   OH226459   0.367   1.529   1.144 -0.2407  0.1101  0.4130
 8832TIP3    H126460   0.307   1.491   1.208  1.3426 -0.5843  1.5404
 8832TIP3    H226461   0.313   1.588   1.092 -1.4736  1.1112  2.7169
 8833TIP3   OH226462   0.688   1.440   3.405 -0.5145 -0.2514  0.2029
 8833TIP3    H126463   0.688   1.435   3.310 -0.5961 -0.7997  0.2257
 8833TIP3    H226464   0.639   1.362   3.433 -0.6367 -0.0077  0.6853
 8834TIP3   OH226465   2.623   4.363   3.943  0.4294 -0.1102 -0.0987
 8834TIP3    H126466   2.666   4.414   4.012  1.7564 -0.1234 -0.8877
 8834TIP3    H226467   2.642   4.272   3.965  1.4907 -0.0899 -0.8536
 8835TIP3   OH226468   0.689   1.658   0.609 -0.7016 -0.3487 -0.1349
 8835TIP3    H126469   0.728   1.602   0.676 -1.4026 -0.0253  0.5556
 8835TIP3    H226470   0.602   1.678   0.642 -0.8276  0.3345 -0.8532
 8836TIP3   OH226471   2.674   0.498   3.432 -0.0028 -0.6268  0.2768
 8836TIP3    H126472   2.768   0.481   3.430  0.2283  0.3830  1.3425
 8836TIP3    H226473   2.662   0.559   3.505 -1.4388 -0.4267 -0.0908
 8837TIP3   OH226474   2.639   0.383   2.938  0.0898 -0.4217  0.0061
 8837TIP3    H126475   2.662   0.471   2.908  2.1818 -1.2043 -0.8470
 8837TIP3    H226476   2.618   0.394   3.031 -1.2282  1.1883 -0.4271
 8838TIP3   OH226477   5.474   5.877   5.888  0.7144  0.0366 -0.1071
 8838TIP3    H126478   5.526   5.877   5.808 -0.3376 -0.6090 -0.8058
 8838TIP3    H226479   5.476   5.968   5.918 -0.3693  0.6966 -1.8737
 8839TIP3   OH226480   0.107   0.761   5.654  0.0552  0.3449  0.1252
 8839TIP3    H126481   0.203   0.756   5.660 -0.0674 -2.4890  1.0169
 8839TIP3    H226482   0.076   0.710   5.729 -2.1318 -0.9900 -1.5900
 8840TIP3   OH226483   2.631   5.932   1.441  0.5054 -0.1001  0.3784
 8840TIP3    H126484   2.677   5.990   1.381 -0.4639  1.5651  1.1960
 8840TIP3    H226485   2.700   5.888   1.490  1.3024 -0.9942 -1.4347
 8841TIP3   OH226486   1.648   3.809   0.429 -0.0561  0.1761 -1.2658
 8841TIP3    H126487   1.614   3.736   0.377  0.7426 -0.5229 -0.8142
 8841TIP3    H226488   1.689   3.768   0.505 -1.2844  1.1891 -0.0115
 8842TIP3   OH226489   5.998   5.933   1.647  0.1622 -0.1336  0.1480
 8842TIP3    H126490   6.052   6.004   1.611 -2.6668  0.9940 -2.2831
 8842TIP3    H226491   6.030   5.855   1.602 -0.6791  0.6535 -1.9607
 8843TIP3   OH226492   2.532   5.951   4.911 -0.6182 -0.0263 -0.2278
 8843TIP3    H126493   2.481   5.982   4.836 -0.5844  1.0031  0.1593
 8843TIP3    H226494   2.494   5.866   4.932 -1.2025  0.0642 -0.8729
 8844TIP3   OH226495   1.394   3.613   5.200  0.0745 -0.6634 -0.4219
 8844TIP3    H126496   1.337   3.664   5.142 -2.7363 -1.0855  1.7129
 8844TIP3    H226497   1.440   3.679   5.252 -1.0204 -0.2469  0.0601
 8845TIP3   OH226498   1.175   0.148   5.726  0.3104  0.1766 -0.2284
 8845TIP3    H126499   1.195   0.058   5.751 -1.8252 -0.2310  0.2105
 8845TIP3    H226500   1.224   0.162   5.645  1.5884 -0.9530  0.3070
 8846TIP3   OH226501   2.343   4.221   5.125  0.1322  0.1783 -0.4471
 8846TIP3    H126502   2.382   4.137   5.147  1.4159  0.2294 -2.2924
 8846TIP3    H226503   2.249   4.205   5.125  0.2685 -0.7527  1.0872
 8847TIP3   OH226504   4.931   4.959   4.938 -0.2893  0.2789  0.4149
 8847TIP3    H126505   5.003   4.898   4.921 -0.1670  0.6120 -0.2711
 8847TIP3    H226506   4.974   5.044   4.947 -0.7078  0.7232 -1.4327
 8848TIP3   OH226507   5.716   6.118   5.909 -0.4655 -0.1376  0.4813
 8848TIP3    H126508   5.697   6.025   5.898 -0.4128 -0.1551  0.5360
 8848TIP3    H226509   5.674   6.160   5.834  1.9373 -0.5355 -1.2149
 8849TIP3   OH226510   4.486   6.510   0.323 -0.1213 -0.2393 -0.5573
 8849TIP3    H126511   4.577   6.488   0.343  0.3333 -0.3344 -2.5041
 8849TIP3    H226512   4.484   6.514   0.227 -2.0145  0.4495 -0.5097
 8850TIP3   OH226513   6.459   2.150   3.211  0.6209  0.2818  0.0333
 8850TIP3    H126514   6.385   2.173   3.266  0.5206  1.6262 -0.6395
 8850TIP3    H226515   6.507   2.084   3.262 -1.1881 -0.8754  0.3279
 8851TIP3   OH226516   1.509   3.355   0.996  0.0802 -0.1289 -0.1180
 8851TIP3    H126517   1.584   3.373   1.053  0.4031 -0.8316 -0.3091
 8851TIP3    H226518   1.548   3.335   0.911 -0.4496  2.4704 -1.0617
 8852TIP3   OH226519   0.960   1.821   2.680 -0.0675  0.1959 -0.1616
 8852TIP3    H126520   0.960   1.760   2.754  0.7265 -0.3390 -0.5813
 8852TIP3    H226521   0.998   1.901   2.715 -0.8085  0.3532  0.3094
 8853TIP3   OH226522   4.773   3.928   2.022 -0.3100 -0.0918  0.2115
 8853TIP3    H126523   4.792   3.950   2.113  1.2156 -1.6052  0.3245
 8853TIP3    H226524   4.678   3.940   2.013 -0.6067 -0.6071  2.2159
 8854TIP3   OH226525   0.182   2.466   2.055 -0.1781 -0.5952  0.0400
 8854TIP3    H126526   0.151   2.396   1.997  1.2512 -0.6397 -0.7091
 8854TIP3    H226527   0.277   2.465   2.047 -0.0757  1.0137  0.5105
 8855TIP3   OH226528   3.040   0.854   5.066 -0.0262 -0.4445  0.2844
 8855TIP3    H126529   2.982   0.831   4.993  0.3885 -1.7694  0.3498
 8855TIP3    H226530   3.128   0.838   5.033  0.3677  1.7120  0.1367
 8856TIP3   OH226531   2.347   1.574   2.794 -0.1845 -0.8418 -0.1726
 8856TIP3    H126532   2.350   1.496   2.739 -1.7365 -1.6919  0.8590
 8856TIP3    H226533   2.375   1.544   2.880 -0.8665 -0.3024  0.2560
 8857TIP3   OH226534   5.344   3.474   4.159 -0.6181  0.3842 -0.2010
 8857TIP3    H126535   5.309   3.509   4.241 -1.5320 -0.5562 -0.1701
 8857TIP3    H226536   5.436   3.501   4.159 -0.9285  1.5073  0.5045
 8858TIP3   OH226537   0.574   5.018   3.813 -0.8087 -0.2950 -0.4273
 8858TIP3    H126538   0.630   5.024   3.891 -2.2970  0.6446  0.6139
 8858TIP3    H226539   0.551   4.925   3.808  0.0860 -0.5361 -0.3493
 8859TIP3   OH226540   2.530   3.024   4.427  0.0359  0.9374 -0.3368
 8859TIP3    H126541   2.599   3.062   4.372 -0.1440  0.1737 -1.1055
 8859TIP3    H226542   2.484   2.963   4.369  0.2386 -0.3659  0.8207
 8860TIP3   OH226543   6.933   6.278   1.107  0.4216 -0.0154 -0.0666
 8860TIP3    H126544   6.904   6.299   1.196  0.3154 -1.0254  0.1536
 8860TIP3    H226545   6.891   6.194   1.087  0.0450  0.4415 -1.2696
 8861TIP3   OH226546   3.541   1.212   0.602  0.6189 -0.2731 -0.1556
 8861TIP3    H126547   3.547   1.147   0.532  0.1707  0.6588 -1.0858
 8861TIP3    H226548   3.632   1.234   0.622  0.7808  1.1722 -2.1315
 8862TIP3   OH226549   6.660   0.771   3.621  0.2157 -0.2463  0.4844
 8862TIP3    H126550   6.751   0.788   3.597 -0.5630  1.5480 -1.4949
 8862TIP3    H226551   6.630   0.706   3.557  0.3743 -1.7210  1.8479
 8863TIP3   OH226552   2.864   6.061   3.595 -0.4239 -0.3685 -0.1167
 8863TIP3    H126553   2.788   6.089   3.544 -2.4607 -2.1603  1.6968
 8863TIP3    H226554   2.910   6.001   3.537 -0.4151  0.6697 -1.2221
 8864TIP3   OH226555   0.257   0.666   4.447 -0.0408 -0.0823 -0.3168
 8864TIP3    H126556   0.185   0.704   4.397  0.2337 -1.4491 -1.8229
 8864TIP3    H226557   0.317   0.632   4.381  2.6525  2.0731  0.8150
 8865TIP3   OH226558   3.642   2.969   3.925  0.1127 -0.1318  0.4118
 8865TIP3    H126559   3.618   2.956   3.833 -0.0030  0.1036  0.4076
 8865TIP3    H226560   3.725   3.015   3.922 -0.9158  1.8247  0.4008
 8866TIP3   OH226561   3.757   5.949   3.681 -0.0837 -0.0881 -0.5921
 8866TIP3    H126562   3.848   5.940   3.707  0.1190  2.7307 -0.0674
 8866TIP3    H226563   3.759   5.946   3.585  0.5734  0.0698 -0.5876
 8867TIP3   OH226564   1.202   1.124   3.406 -0.3809  0.0441  0.1961
 8867TIP3    H126565   1.268   1.190   3.385  0.1035 -0.2668  0.6897
 8867TIP3    H226566   1.158   1.106   3.323  1.1592 -0.8103 -0.4870
 8868TIP3   OH226567   1.131   0.613   0.755  0.4209 -0.3410 -0.2753
 8868TIP3    H126568   1.074   0.564   0.696 -0.0094 -1.4798  1.0178
 8868TIP3    H226569   1.097   0.593   0.842  2.1706 -0.2153  0.4720
 8869TIP3   OH226570   3.408   5.839   2.243  0.1957 -0.3248 -0.3533
 8869TIP3    H126571   3.498   5.852   2.272  0.3207 -0.7588 -0.5409
 8869TIP3    H226572   3.355   5.884   2.309  0.4869 -1.0756  0.4272
 8870TIP3   OH226573   3.559   0.712   5.479 -0.0618 -0.0269  0.0500
 8870TIP3    H126574   3.515   0.636   5.517 -0.3881  0.3687  0.4699
 8870TIP3    H226575   3.542   0.704   5.385 -1.5954  0.4596  0.2560
 8871TIP3   OH226576   5.857   3.403   3.979  0.0571 -0.1901  0.5601
 8871TIP3    H126577   5.886   3.373   3.892 -1.1425  1.0372 -0.3088
 8871TIP3    H226578   5.841   3.322   4.028 -0.2209 -0.9219 -0.6957
 8872TIP3   OH226579   7.064   4.330   0.158  0.0182  0.5083 -0.1213
 8872TIP3    H126580   7.083   4.400   0.220  0.2218  0.9445 -0.6633
 8872TIP3    H226581   7.036   4.256   0.212 -2.8661  1.8111  0.3832
 8873TIP3   OH226582   2.590   3.852   0.417  0.4898  0.5620  0.2754
 8873TIP3    H126583   2.636   3.851   0.500 -1.0942  1.1279  1.1990
 8873TIP3    H226584   2.507   3.896   0.435  0.1185  0.7600 -1.6152
 8874TIP3   OH226585   3.009   3.983   2.572  0.2105 -0.4871  0.2119
 8874TIP3    H126586   3.011   3.968   2.477  1.4910  0.0620  0.1396
 8874TIP3    H226587   2.991   3.897   2.609  1.1172 -0.9918 -0.4700
 8875TIP3   OH226588   3.561   1.365   1.416  0.3518 -0.2805  0.5022
 8875TIP3    H126589   3.588   1.389   1.328 -0.9386  0.5256  0.3109
 8875TIP3    H226590   3.487   1.306   1.403 -0.5686  0.7334  1.0483
 8876TIP3   OH226591   6.538   5.380   3.086  0.1732 -0.3061 -0.4052
 8876TIP3    H126592   6.503   5.396   2.998  0.1258 -0.4401 -0.4100
 8876TIP3    H226593   6.606   5.447   3.097  0.7838 -0.8311 -0.8856
 8877TIP3   OH226594   4.048   5.219   0.730  0.6095  0.3331  0.4252
 8877TIP3    H126595   4.009   5.282   0.669  0.2874 -0.3212 -0.0525
 8877TIP3    H226596   4.016   5.247   0.816 -1.0087 -0.2171  0.0530
 8878TIP3   OH226597   3.515   2.350   5.226  0.7256 -0.0393 -0.4938
 8878TIP3    H126598   3.488   2.259   5.232 -0.8955  0.4609  0.6405
 8878TIP3    H226599   3.510   2.371   5.132  2.0355 -1.3224 -0.8908
 8879TIP3   OH226600   1.643   5.645   0.832 -0.1414 -0.3347  0.2460
 8879TIP3    H126601   1.589   5.714   0.869 -2.6323 -2.1087  0.1724
 8879TIP3    H226602   1.732   5.667   0.859 -0.8493  2.6927  0.4314
 8880TIP3   OH226603   1.999   1.566   0.160 -0.1157  0.4124 -0.0375
 8880TIP3    H126604   2.005   1.523   0.075  0.0509  0.3850 -0.0129
 8880TIP3    H226605   2.049   1.509   0.219 -1.7350 -0.5341  0.4721
 8881TIP3   OH226606   6.205   2.458   3.326 -0.1258 -0.0771  0.0622
 8881TIP3    H126607   6.155   2.399   3.269  0.0606  1.0212 -1.2709
 8881TIP3    H226608   6.147   2.533   3.340  0.5895  0.5651 -0.3363
 8882TIP3   OH226609   6.513   6.650   0.165 -0.1063  0.1305  0.1168
 8882TIP3    H126610   6.485   6.741   0.168  0.1075  0.2996 -1.6813
 8882TIP3    H226611   6.435   6.601   0.139  0.1356  0.0121 -0.4055
 8883TIP3   OH226612   5.968   5.245   5.729 -0.1575  0.2659  0.0878
 8883TIP3    H126613   6.020   5.173   5.765 -1.8557 -1.1009 -0.0916
 8883TIP3    H226614   6.022   5.323   5.745  2.3767 -1.1609 -0.9823
 8884TIP3   OH226615   0.607   3.726   0.681 -0.1633  0.6449  0.3150
 8884TIP3    H126616   0.547   3.788   0.640 -0.5178  0.0187 -0.1370
 8884TIP3    H226617   0.675   3.711   0.615 -0.7966 -0.4546 -0.1176
 8885TIP3   OH226618   5.941   2.155   4.437  0.0886  0.5117  0.2358
 8885TIP3    H126619   5.916   2.069   4.403 -0.5388 -0.1417  2.1990
 8885TIP3    H226620   5.860   2.191   4.473  0.9627  0.4466  2.4139
 8886TIP3   OH226621   6.184   3.236   0.624 -0.5045 -0.0561 -0.1625
 8886TIP3    H126622   6.257   3.270   0.573  2.1793 -3.4567  1.0369
 8886TIP3    H226623   6.168   3.302   0.691  2.0876  0.4682  0.0297
 8887TIP3   OH226624   3.643   0.599   0.758  0.3522  0.0698  0.4774
 8887TIP3    H126625   3.685   0.555   0.685 -0.1641  0.7124 -0.2172
 8887TIP3    H226626   3.550   0.597   0.738  0.1436 -0.2725  1.4115
 8888TIP3   OH226627   1.320   4.599   1.060 -0.1803 -0.4186 -0.3202
 8888TIP3    H126628   1.368   4.519   1.081  1.2632  0.9289  1.9546
 8888TIP3    H226629   1.229   4.580   1.083 -0.1829 -1.9413 -1.4960
 8889TIP3   OH226630   0.318   1.199   4.549  0.7985 -0.0165 -0.1362
 8889TIP3    H126631   0.259   1.137   4.591  0.1313  1.0773  0.6017
 8889TIP3    H226632   0.260   1.266   4.512  1.4370 -0.3354 -1.8078
 8890TIP3   OH226633   2.231   0.924   5.432  0.2554 -0.0528  0.1378
 8890TIP3    H126634   2.187   0.970   5.503 -0.2285  0.7884 -0.6831
 8890TIP3    H226635   2.162   0.870   5.392  0.5844 -0.7232  0.4525
 8891TIP3   OH226636   2.661   3.846   0.149 -0.3208 -0.1673  0.6061
 8891TIP3    H126637   2.634   3.858   0.240  1.1928  0.1550  1.0479
 8891TIP3    H226638   2.689   3.754   0.144 -0.4983 -0.2128  0.4369
 8892TIP3   OH226639   3.789   3.177   5.090  0.1738  0.6279 -0.5256
 8892TIP3    H126640   3.784   3.268   5.061  0.7197  0.8618  0.1003
 8892TIP3    H226641   3.780   3.126   5.009 -3.2914  1.1206 -0.6040
 8893TIP3   OH226642   2.088   5.611   5.004 -0.1783 -0.2387  0.3066
 8893TIP3    H126643   2.048   5.574   5.083  1.5206  1.1233  1.9149
 8893TIP3    H226644   2.107   5.536   4.949 -2.9207 -1.1044  0.3737
 8894TIP3   OH226645   7.103   6.371   4.132  0.1319  0.5083  0.2300
 8894TIP3    H126646   7.170   6.411   4.077 -0.0353  0.7953  0.2303
 8894TIP3    H226647   7.091   6.283   4.096  1.1108  0.1442  0.7508
 8895TIP3   OH226648   1.527   3.724   4.481 -0.6308  0.3395  0.1625
 8895TIP3    H126649   1.537   3.693   4.571  0.7137  0.3330  0.0279
 8895TIP3    H226650   1.556   3.650   4.427 -1.2023  0.4277 -0.2743
 8896TIP3   OH226651   2.774   4.126   4.248  0.1321 -0.6632 -0.5105
 8896TIP3    H126652   2.851   4.177   4.273  0.9524 -1.2948 -1.6806
 8896TIP3    H226653   2.754   4.154   4.159 -2.1190  0.7957  0.3570
 8897TIP3   OH226654   3.281   1.419   1.684  0.3029 -0.3963  0.3626
 8897TIP3    H126655   3.247   1.358   1.618 -0.1266 -0.0861  0.3004
 8897TIP3    H226656   3.364   1.379   1.711  0.0690 -0.9678  0.2606
 8898TIP3   OH226657   4.150   6.177   5.887  0.0702 -0.3172  0.3915
 8898TIP3    H126658   4.095   6.216   5.818  1.7875  0.2808 -0.7175
 8898TIP3    H226659   4.220   6.242   5.900  1.3130 -1.6733  0.6909
 8899TIP3   OH226660   6.485   1.779   2.155 -0.2314 -0.2126 -0.4623
 8899TIP3    H126661   6.424   1.706   2.144  0.7980 -1.0645 -0.7096
 8899TIP3    H226662   6.548   1.769   2.083 -0.7012  1.5940 -1.1967
 8900TIP3   OH226663   4.781   5.482   5.035 -0.6122 -0.5805  0.0211
 8900TIP3    H126664   4.777   5.405   5.091  2.9839 -0.4038  0.7569
 8900TIP3    H226665   4.817   5.451   4.952 -0.4065  0.0886 -0.1537
 8901TIP3   OH226666   3.547   3.555   0.339 -0.0086 -0.0301 -0.0234
 8901TIP3    H126667   3.508   3.579   0.423 -1.3606 -1.0449 -0.3353
 8901TIP3    H226668   3.570   3.639   0.299  0.5356  0.4696  1.2874
 8902TIP3   OH226669   0.283   5.874   0.465 -0.0992  0.6062  0.0935
 8902TIP3    H126670   0.190   5.888   0.484 -0.6061 -0.2807 -1.5593
 8902TIP3    H226671   0.291   5.781   0.448  1.2254  0.5768  0.7333
 8903TIP3   OH226672   4.662   1.269   5.229 -0.1785  0.2252 -0.6827
 8903TIP3    H126673   4.569   1.289   5.218  0.0511  1.3709 -0.6941
 8903TIP3    H226674   4.675   1.187   5.182 -1.2187 -0.0574 -0.5156
 8904TIP3   OH226675   4.643   2.390   0.480 -0.1068 -0.8141  0.1002
 8904TIP3    H126676   4.548   2.381   0.487  0.0383 -1.9297  1.1027
 8904TIP3    H226677   4.671   2.423   0.566  0.4128 -0.5528 -0.1647
 8905TIP3   OH226678   0.685   4.000   3.736 -0.2479  0.7963 -0.2109
 8905TIP3    H126679   0.745   4.049   3.680  0.8356  0.2275  0.4178
 8905TIP3    H226680   0.665   4.059   3.808 -0.3351  0.9354 -0.3482
 8906TIP3   OH226681   0.939   0.157   4.085  0.1375  0.0703  0.3151
 8906TIP3    H126682   0.964   0.066   4.097 -0.4627 -0.1633 -0.1565
 8906TIP3    H226683   1.021   0.206   4.094  0.6846 -0.6315 -0.6752
 8907TIP3   OH226684   5.295   3.400   2.315 -0.0545  0.0933  0.2007
 8907TIP3    H126685   5.391   3.407   2.306  0.3389 -3.1157  0.5263
 8907TIP3    H226686   5.270   3.474   2.370  1.9024  2.2426 -1.6285
 8908TIP3   OH226687   2.294   5.585   2.594  0.1114  0.4741  0.0070
 8908TIP3    H126688   2.262   5.592   2.684 -0.0654  0.6119 -0.0647
 8908TIP3    H226689   2.335   5.499   2.590 -3.2092 -1.2497 -0.8101
 8909TIP3   OH226690   6.673   6.265   1.506 -0.4040 -0.2111 -0.2144
 8909TIP3    H126691   6.607   6.283   1.440 -1.2786 -0.8341  0.4693
 8909TIP3    H226692   6.680   6.169   1.509 -1.4896 -0.2927  1.6062
 8910TIP3   OH226693   6.363   5.161   4.297  0.3187  0.6299  0.1865
 8910TIP3    H126694   6.370   5.247   4.254 -0.5396 -0.9334 -3.4071
 8910TIP3    H226695   6.269   5.148   4.308  0.3949 -0.2702 -0.2188
 8911TIP3   OH226696   0.860   1.049   5.083 -0.7298  0.2235 -0.1544
 8911TIP3    H126697   0.948   1.063   5.117 -0.7685  0.5668 -0.1898
 8911TIP3    H226698   0.842   0.957   5.100 -1.2538  0.6762  1.9093
 8912TIP3   OH226699   7.098   2.884   5.490  0.2885 -0.2399  0.4769
 8912TIP3    H126700   7.115   2.978   5.480 -0.1597  0.0032  1.7977
 8912TIP3    H226701   7.098   2.850   5.401  1.3055  0.8652  0.0309
 8913TIP3   OH226702   4.383   5.052   0.424  0.2488  0.1371  0.7668
 8913TIP3    H126703   4.458   5.047   0.364  0.4729  0.3927  1.0198
 8913TIP3    H226704   4.323   4.985   0.393  0.9957 -0.7288  1.1347
 8914TIP3   OH226705   0.817   3.566   1.353  0.5078  0.3879 -0.1385
 8914TIP3    H126706   0.851   3.642   1.401  1.3415  0.3412 -0.6327
 8914TIP3    H226707   0.887   3.544   1.291  0.5329 -1.1651  0.4068
 8915TIP3   OH226708   5.049   0.483   2.779 -0.2367 -0.1447  0.2004
 8915TIP3    H126709   5.023   0.392   2.794  1.2075 -0.5415  0.4664
 8915TIP3    H226710   5.067   0.517   2.866 -0.2051  0.2166  0.0519
 8916TIP3   OH226711   0.922   3.032   4.169 -0.4149 -0.2043  0.3444
 8916TIP3    H126712   0.902   3.111   4.220 -0.9045 -0.0593 -0.0572
 8916TIP3    H226713   0.891   3.053   4.080  0.1368 -0.5712  0.0655
 8917TIP3   OH226714   3.973   3.487   1.051 -0.0478 -0.5404 -0.1224
 8917TIP3    H126715   3.891   3.533   1.068 -0.2754 -0.9986  0.0342
 8917TIP3    H226716   4.030   3.553   1.011  0.0330  0.1948  1.1437
 8918TIP3   OH226717   7.179   6.717   4.241 -0.3593 -0.1406 -0.3809
 8918TIP3    H126718   7.212   6.627   4.241 -0.6641 -0.2564  0.4855
 8918TIP3    H226719   7.149   6.732   4.330 -1.5177  0.3837 -0.8436
 8919TIP3   OH226720   1.317   6.204   1.246 -0.0636  0.2042 -0.0298
 8919TIP3    H126721   1.335   6.279   1.304  1.0250 -0.1548  0.1268
 8919TIP3    H226722   1.239   6.163   1.282  0.2087  0.3868  0.7859
 8920TIP3   OH226723   5.772   6.341   1.603  0.8886  0.3790  0.0461
 8920TIP3    H126724   5.731   6.287   1.671 -0.6715  1.0954 -0.2735
 8920TIP3    H226725   5.840   6.285   1.566 -1.3536 -1.8669 -1.0182
 8921TIP3   OH226726   1.857   0.270   1.359 -0.7783  0.1534  0.0737
 8921TIP3    H126727   1.949   0.273   1.331 -0.8666  0.5461 -0.1814
 8921TIP3    H226728   1.862   0.251   1.453 -0.4412  0.0269  0.0344
 8922TIP3   OH226729   6.494   2.626   0.729  0.9509  0.6933 -0.1061
 8922TIP3    H126730   6.547   2.603   0.806  0.2335 -1.7034 -0.2516
 8922TIP3    H226731   6.408   2.648   0.766  0.3253 -1.3735 -0.2003
 8923TIP3   OH226732   3.824   6.340   4.753  0.1341 -0.6762 -0.3913
 8923TIP3    H126733   3.798   6.414   4.809  1.0959  0.1467 -0.9912
 8923TIP3    H226734   3.787   6.263   4.796  0.1844  0.0203  0.9525
 8924TIP3   OH226735   4.157   0.574   2.893 -0.1759  0.1895 -0.7565
 8924TIP3    H126736   4.190   0.663   2.904  0.5124 -0.2574  1.1850
 8924TIP3    H226737   4.236   0.520   2.885 -0.5460 -0.4193 -0.3220
 8925TIP3   OH226738   1.976   0.857   1.598 -0.0173  0.8145  0.0216
 8925TIP3    H126739   2.064   0.869   1.563 -0.1158  0.5375 -0.3210
 8925TIP3    H226740   1.944   0.777   1.557  0.4648 -0.4716  1.9821
 8926TIP3   OH226741   6.797   0.295   2.866  0.3097 -0.7443 -0.0647
 8926TIP3    H126742   6.786   0.380   2.824  3.0787 -1.1803 -2.0285
 8926TIP3    H226743   6.768   0.232   2.800  0.3215 -1.3697  0.5182
 8927TIP3   OH226744   5.325   5.643   1.977  0.0790 -0.4805 -0.0296
 8927TIP3    H126745   5.307   5.724   1.928  1.7199  0.0579  0.1941
 8927TIP3    H226746   5.414   5.619   1.951  0.6493 -0.6967  1.9711
 8928TIP3   OH226747   6.025   1.942   4.255 -0.2135 -0.6525  0.5584
 8928TIP3    H126748   6.005   1.855   4.291  0.3661 -0.9044  0.2843
 8928TIP3    H226749   6.120   1.950   4.263 -0.1771 -0.3449 -0.0808
 8929TIP3   OH226750   5.216   2.073   5.270  0.1137  0.1006  0.4728
 8929TIP3    H126751   5.142   2.048   5.216 -0.7081  0.8643  1.2199
 8929TIP3    H226752   5.202   2.165   5.290  0.9329  0.0952  1.1481
 8930TIP3   OH226753   6.978   1.096   5.890  0.2297 -0.0601  0.6201
 8930TIP3    H126754   7.065   1.065   5.865  1.2683  2.3502  1.0256
 8930TIP3    H226755   6.935   1.115   5.806  0.0882 -1.1498  0.4234
 8931TIP3   OH226756   3.814   4.698   2.986  0.2165 -0.1479 -0.4899
 8931TIP3    H126757   3.853   4.626   2.936  1.6091  0.4168 -0.2782
 8931TIP3    H226758   3.868   4.704   3.065 -0.8398  0.1395  0.2264
 8932TIP3   OH226759   2.572   0.351   0.285  0.5548 -0.5236 -0.5405
 8932TIP3    H126760   2.547   0.384   0.199  0.7533 -0.6838 -0.6623
 8932TIP3    H226761   2.663   0.381   0.297  0.8567 -1.3063 -0.8021
 8933TIP3   OH226762   6.815   1.154   2.560  0.0135  0.0446 -0.4201
 8933TIP3    H126763   6.806   1.163   2.465 -0.5105  0.3749 -0.3437
 8933TIP3    H226764   6.727   1.132   2.590 -0.6086  3.0892  0.3212
 8934TIP3   OH226765   2.155   2.557  -0.028  0.3747  0.4988  0.2085
 8934TIP3    H126766   2.194   2.514   0.048  0.1375 -0.3157 -0.1197
 8934TIP3    H226767   2.067   2.582   0.000 -0.0285 -0.5826 -0.0579
 8935TIP3   OH226768   6.821   2.013   2.338 -0.2601 -1.0532 -0.3824
 8935TIP3    H126769   6.815   1.974   2.251 -0.5643 -2.1370  0.1109
 8935TIP3    H226770   6.904   1.980   2.373  0.7279  0.7598 -0.8983
 8936TIP3   OH226771   4.501   4.830   5.475 -0.3542  0.0961  0.7413
 8936TIP3    H126772   4.573   4.844   5.537 -0.1312  0.6780  0.3571
 8936TIP3    H226773   4.509   4.902   5.412 -0.1119 -0.9147 -0.4191
 8937TIP3   OH226774   5.976   5.766   0.401  0.0166 -0.0600 -0.0400
 8937TIP3    H126775   5.983   5.861   0.403 -0.9294  0.0133  0.3398
 8937TIP3    H226776   5.890   5.749   0.363  1.3004 -0.8486 -2.8618
 8938TIP3   OH226777   6.065   3.257   0.282 -0.0370  0.4241  0.0324
 8938TIP3    H126778   6.143   3.251   0.227 -0.8836 -0.6844 -1.0984
 8938TIP3    H226779   6.008   3.187   0.251 -1.7395  1.5619  0.4680
 8939TIP3   OH226780   4.988   5.233   0.575 -0.2605  1.0086 -0.0754
 8939TIP3    H126781   5.037   5.301   0.622  1.0907  0.6582 -0.9438
 8939TIP3    H226782   4.979   5.162   0.639 -1.2105  1.7593  0.6611
 8940TIP3   OH226783   4.043   0.665   5.879  0.1247 -0.0278  0.1773
 8940TIP3    H126784   4.014   0.682   5.789 -0.2446 -0.2030  0.2594
 8940TIP3    H226785   3.962   0.646   5.926  0.4238 -1.0969  0.2824
 8941TIP3   OH226786   6.108   0.346   5.639  0.0476 -0.1877  0.1408
 8941TIP3    H126787   6.140   0.374   5.725 -0.6238  2.0640 -0.2644
 8941TIP3    H226788   6.101   0.251   5.645  1.8238 -0.2625  1.9315
 8942TIP3   OH226789   5.110   0.699   3.716 -0.5448  0.4299  0.2190
 8942TIP3    H126790   5.085   0.612   3.746  0.1202 -0.1059 -0.6946
 8942TIP3    H226791   5.027   0.745   3.705 -0.9601 -0.3239  0.0524
 8943TIP3   OH226792   6.462   5.762   2.720 -0.5318 -0.8411 -0.1879
 8943TIP3    H126793   6.405   5.687   2.731 -1.3014 -0.1336  0.8329
 8943TIP3    H226794   6.546   5.734   2.757 -0.6308 -1.4001 -0.3826
 8944TIP3   OH226795   6.762   0.231   5.185  0.1978 -0.6846 -0.2097
 8944TIP3    H126796   6.752   0.182   5.266 -0.7834  0.4477  0.3756
 8944TIP3    H226797   6.675   0.265   5.166  1.0754  1.9940  0.1614
 8945TIP3   OH226798   4.920   5.621   0.973 -0.3260  0.0591 -0.4717
 8945TIP3    H126799   4.844   5.659   1.018  0.4620  0.4631  0.5459
 8945TIP3    H226800   4.933   5.537   1.015 -0.0269  0.1230 -0.4328
 8946TIP3   OH226801   4.806   4.044   2.589  0.7214 -0.4796  0.8312
 8946TIP3    H126802   4.745   4.090   2.647 -1.1402 -0.7656 -0.8130
 8946TIP3    H226803   4.852   4.115   2.543 -0.8590 -0.2123 -0.4001
 8947TIP3   OH226804   6.494   3.045   0.313  0.5091  0.4702 -0.0192
 8947TIP3    H126805   6.444   3.096   0.250 -0.4911 -0.8763 -0.3621
 8947TIP3    H226806   6.583   3.043   0.278  0.4711  1.5754 -0.2188
 8948TIP3   OH226807   6.239   0.171   2.957  0.5251  0.5229  0.0419
 8948TIP3    H126808   6.261   0.259   2.986  1.8744  0.3698 -0.4374
 8948TIP3    H226809   6.150   0.156   2.990  0.3314  1.9917  0.2582
 8949TIP3   OH226810   2.155   1.970   1.613 -0.3674 -0.4235  0.2227
 8949TIP3    H126811   2.117   2.018   1.539  0.4543 -0.8573 -0.4947
 8949TIP3    H226812   2.239   1.939   1.581  0.8052  0.8467  1.9031
 8950TIP3   OH226813   5.163   6.723   5.489 -0.6965  0.4881  0.4826
 8950TIP3    H126814   5.172   6.806   5.535  0.0723  0.7188 -0.0738
 8950TIP3    H226815   5.095   6.739   5.423 -0.3317  0.7661  0.1739
 8951TIP3   OH226816   0.084   2.503   3.630  0.5806 -0.0873 -0.5376
 8951TIP3    H126817   0.010   2.547   3.590  0.5527  1.2765  0.9512
 8951TIP3    H226818   0.047   2.455   3.704  0.5310 -3.1126 -2.3469
 8952TIP3   OH226819   2.778   1.337   0.499 -0.5045 -0.0635 -0.2884
 8952TIP3    H126820   2.684   1.316   0.506 -0.1931 -1.6752 -0.5381
 8952TIP3    H226821   2.821   1.252   0.493  0.9690  0.6650 -0.4681
 8953TIP3   OH226822   5.331   0.651   2.734  0.1667 -0.3086 -0.1061
 8953TIP3    H126823   5.298   0.720   2.791  2.2854 -0.1836  1.0633
 8953TIP3    H226824   5.333   0.691   2.647 -1.1514  0.1875  0.0688
 8954TIP3   OH226825   3.939   1.483   0.264  0.2623  0.4276 -0.2479
 8954TIP3    H126826   3.912   1.434   0.186  1.0181 -0.1147 -0.1771
 8954TIP3    H226827   3.974   1.565   0.228  0.3775  0.2857 -0.4653
 8955TIP3   OH226828   1.320   0.721   1.259  0.4150  0.2595 -0.1364
 8955TIP3    H126829   1.275   0.762   1.185  0.8934  1.8517  0.4333
 8955TIP3    H226830   1.313   0.784   1.330  0.8689 -0.8090  0.8974
 8956TIP3   OH226831   6.504   4.847   1.216  0.4427 -0.7077 -0.1824
 8956TIP3    H126832   6.483   4.917   1.155 -0.3873 -2.1681 -1.6237
 8956TIP3    H226833   6.594   4.866   1.243  0.3448  0.7267 -0.7829
 8957TIP3   OH226834   3.438   6.724   5.870 -0.3724 -0.6653  0.3703
 8957TIP3    H126835   3.529   6.693   5.876 -0.1028  0.0105 -0.0455
 8957TIP3    H226836   3.385   6.645   5.877  0.2488 -1.0559  0.7457
 8958TIP3   OH226837   7.116   6.062   1.051 -0.3908  0.2458 -0.2148
 8958TIP3    H126838   7.125   6.136   1.110 -0.4249  2.3216 -2.6690
 8958TIP3    H226839   7.172   5.994   1.089  1.3438  2.2533  1.0130
 8959TIP3   OH226840   7.211   1.557   1.041  0.1661  0.0269  0.2923
 8959TIP3    H126841   7.155   1.607   1.100 -0.8595 -0.1742 -0.4825
 8959TIP3    H226842   7.241   1.621   0.977  0.4427  0.0376  0.4312
 8960TIP3   OH226843   0.455   1.056   2.927  0.0574  0.3404  0.4441
 8960TIP3    H126844   0.501   1.073   3.009  0.2588 -0.7931  0.5813
 8960TIP3    H226845   0.362   1.067   2.950  0.0357 -1.0734  1.1236
 8961TIP3   OH226846   0.716   1.982   4.000  0.6673 -0.5218  0.0739
 8961TIP3    H126847   0.706   1.923   3.926  2.4629 -2.0929  0.9733
 8961TIP3    H226848   0.808   1.973   4.025  0.2612  0.3830  2.1236
 8962TIP3   OH226849   5.708   4.865   1.094 -0.5974  0.0120  0.2135
 8962TIP3    H126850   5.727   4.950   1.134  0.2274  0.2535 -0.6598
 8962TIP3    H226851   5.641   4.885   1.029 -2.7574 -0.5594  2.1384
 8963TIP3   OH226852   5.239   1.472   3.042  0.5453 -0.0188  0.6133
 8963TIP3    H126853   5.172   1.464   3.110  0.2334 -0.9498  0.2128
 8963TIP3    H226854   5.274   1.560   3.053 -1.2729  0.7756  0.3452
 8964TIP3   OH226855   3.954   3.317   3.417 -0.0261  0.1160 -0.1313
 8964TIP3    H126856   3.870   3.326   3.372  0.1350 -0.4777 -0.5787
 8964TIP3    H226857   3.934   3.271   3.498 -0.1025 -0.2731 -0.3677
 8965TIP3   OH226858   2.388   3.470   5.790 -0.2232  0.0740  0.5966
 8965TIP3    H126859   2.423   3.419   5.716  0.6084 -1.4613  1.9917
 8965TIP3    H226860   2.294   3.475   5.772 -0.0062 -0.0377 -0.7054
 8966TIP3   OH226861   3.287   4.179   5.141 -0.1885  1.2292 -0.1155
 8966TIP3    H126862   3.334   4.216   5.216 -0.9631  1.3612  0.3170
 8966TIP3    H226863   3.303   4.085   5.146  1.0233  1.3920 -0.6800
 8967TIP3   OH226864   6.012   2.642   3.282 -0.2814  0.5102 -0.2348
 8967TIP3    H126865   6.027   2.705   3.212 -1.0669  0.9575 -0.0099
 8967TIP3    H226866   5.991   2.695   3.359  1.3157  0.0649  0.5705
 8968TIP3   OH226867   5.652   4.092   0.435 -0.5301 -0.2068 -0.2798
 8968TIP3    H126868   5.664   4.158   0.504 -1.0119  1.2556 -1.5170
 8968TIP3    H226869   5.664   4.142   0.353 -0.4820 -1.7687 -1.2572
 8969TIP3   OH226870   5.082   2.153   5.598  0.7702 -0.4740  0.3111
 8969TIP3    H126871   5.097   2.209   5.675  0.5009  0.0514 -0.0167
 8969TIP3    H226872   5.137   2.076   5.614  0.2220 -0.6738  1.3478
 8970TIP3   OH226873   2.233   4.632   0.544 -0.1029  0.5513  0.2123
 8970TIP3    H126874   2.165   4.698   0.527  0.8010  1.2071 -0.9613
 8970TIP3    H226875   2.211   4.560   0.485  0.7224  1.1504 -0.8600
 8971TIP3   OH226876   6.534   3.752   3.791  0.0743 -0.5965  0.3934
 8971TIP3    H126877   6.552   3.843   3.771  1.0564 -0.6349  1.0164
 8971TIP3    H226878   6.441   3.750   3.816 -0.2640  0.0090 -0.7661
 8972TIP3   OH226879   0.457   2.593   4.780 -0.3320  0.6120 -0.0849
 8972TIP3    H126880   0.399   2.535   4.730 -0.9704  1.4479 -0.3467
 8972TIP3    H226881   0.406   2.617   4.858  0.8228 -1.0493  1.2589
 8973TIP3   OH226882   0.602   4.839   5.817 -0.3433  0.0443  0.5091
 8973TIP3    H126883   0.566   4.812   5.901 -1.3953 -0.1752  0.0036
 8973TIP3    H226884   0.526   4.867   5.766 -0.0185 -1.8798 -1.1303
 8974TIP3   OH226885   1.730   3.592   5.441 -0.1746  0.3506  0.2174
 8974TIP3    H126886   1.748   3.659   5.506 -1.2985 -0.0495  0.9543
 8974TIP3    H226887   1.638   3.603   5.418 -0.6597 -1.5338  1.0860
 8975TIP3   OH226888   4.214   1.236   0.053 -0.7988  0.3671 -0.0300
 8975TIP3    H126889   4.290   1.227   0.110 -1.1081 -1.4030  0.1722
 8975TIP3    H226890   4.150   1.175   0.089 -2.6771  2.4071  0.3018
 8976TIP3   OH226891   6.577   5.194   1.475 -0.2617 -0.7098 -0.2565
 8976TIP3    H126892   6.532   5.178   1.393 -1.0286  0.5600 -0.1018
 8976TIP3    H226893   6.538   5.131   1.536 -0.0475 -1.3060 -0.7200
 8977TIP3   OH226894   0.629   1.463   1.970 -0.0487  0.5403 -0.5284
 8977TIP3    H126895   0.581   1.525   1.914  2.8750  2.5534 -1.0151
 8977TIP3    H226896   0.690   1.517   2.019  0.2423 -1.6468  1.7213
 8978TIP3   OH226897   1.633   2.706   0.247  0.3068  0.1682 -0.2358
 8978TIP3    H126898   1.655   2.718   0.155 -0.4029 -2.5795 -0.8432
 8978TIP3    H226899   1.544   2.740   0.255  0.8564  1.7136 -0.1571
 8979TIP3   OH226900   5.631   2.999   2.352 -0.1839  0.3497  0.2566
 8979TIP3    H126901   5.607   3.039   2.435  0.7191  1.3516  0.0648
 8979TIP3    H226902   5.553   3.006   2.298 -0.5921  0.2356  0.8254
 8980TIP3   OH226903   0.417   0.956   4.201  0.5982  0.2979 -0.9814
 8980TIP3    H126904   0.442   0.951   4.109  0.4958 -1.1994 -0.9504
 8980TIP3    H226905   0.343   0.896   4.209  0.1669  0.9246 -0.0488
 8981TIP3   OH226906   1.804   1.660   4.012  0.5305 -0.0209 -0.6838
 8981TIP3    H126907   1.838   1.648   4.101  1.7298 -0.3174 -1.1616
 8981TIP3    H226908   1.867   1.613   3.956 -0.5622 -0.4002 -1.6303
 8982TIP3   OH226909   5.847   1.947   1.155 -0.4615  0.1991 -0.1853
 8982TIP3    H126910   5.831   2.030   1.200  0.8109 -0.0052  0.7069
 8982TIP3    H226911   5.942   1.938   1.154 -0.5686 -1.1395 -0.4570
 8983TIP3   OH226912   2.229   5.929   4.259  0.4017 -0.2178  0.4798
 8983TIP3    H126913   2.284   6.006   4.258  2.4792 -1.6251  0.7396
 8983TIP3    H226914   2.285   5.858   4.228 -1.3906 -1.6708  0.3326
 8984TIP3   OH226915   6.770   3.992   5.794  1.1396  0.0534  0.1718
 8984TIP3    H126916   6.792   3.997   5.887  0.4363  1.0336  0.3045
 8984TIP3    H226917   6.703   3.924   5.789  1.0918  0.0810  0.4016
 8985TIP3   OH226918   6.406   2.556   2.798 -0.1045  0.3503 -0.4207
 8985TIP3    H126919   6.428   2.555   2.891 -1.4904  0.2392 -0.0640
 8985TIP3    H226920   6.355   2.475   2.784 -0.2484  0.5592 -1.1815
 8986TIP3   OH226921   4.307   3.570   4.199  0.1902 -0.1122 -0.1941
 8986TIP3    H126922   4.355   3.489   4.186 -1.2464 -1.0656  0.1476
 8986TIP3    H226923   4.303   3.611   4.113  0.8278 -0.4543 -0.3865
 8987TIP3   OH226924   0.726   2.519   3.586 -0.8120 -0.5016 -0.6295
 8987TIP3    H126925   0.722   2.614   3.596 -0.0716 -0.4697 -0.5958
 8987TIP3    H226926   0.671   2.485   3.657 -2.1487 -0.0795 -1.4330
 8988TIP3   OH226927   3.620   6.388   1.088 -0.6867  0.2173 -0.0514
 8988TIP3    H126928   3.552   6.420   1.147 -1.1853  2.8026 -1.8576
 8988TIP3    H226929   3.694   6.446   1.104 -0.0003 -0.5650 -0.3404
 8989TIP3   OH226930   6.642   1.477   1.461  0.2312 -0.2924 -0.4844
 8989TIP3    H126931   6.624   1.507   1.373 -0.3441 -2.4552 -1.1817
 8989TIP3    H226932   6.718   1.419   1.452 -0.0393 -0.8033  0.3690
 8990TIP3   OH226933   2.614   0.135   0.494 -0.6010 -0.5976 -0.3902
 8990TIP3    H126934   2.559   0.172   0.425 -1.5934 -0.7795  0.2724
 8990TIP3    H226935   2.605   0.196   0.567 -0.6501 -1.1028  0.0326
 8991TIP3   OH226936   4.581   4.155   2.749  0.1715 -0.3654 -0.2404
 8991TIP3    H126937   4.567   4.242   2.785  0.6890  0.6374 -2.2802
 8991TIP3    H226938   4.493   4.120   2.737 -0.0653  0.1138  0.0596
 8992TIP3   OH226939   5.785   6.437   0.743 -0.3302  0.4250  0.1325
 8992TIP3    H126940   5.767   6.375   0.813  0.0545 -1.7914 -1.6475
 8992TIP3    H226941   5.818   6.515   0.789 -1.1629 -0.5013  2.4581
 8993TIP3   OH226942   2.496   1.180   0.563  0.1740  0.0203 -0.2384
 8993TIP3    H126943   2.514   1.094   0.524 -1.1147 -0.2983 -0.1958
 8993TIP3    H226944   2.475   1.236   0.488 -0.8476 -0.2115 -0.1457
 8994TIP3   OH226945   6.579   0.283   3.971 -0.2357  0.5583  0.0298
 8994TIP3    H126946   6.554   0.369   3.936 -3.4158 -0.1598  0.1993
 8994TIP3    H226947   6.588   0.298   4.065  1.7836  1.1428 -0.2007
 8995TIP3   OH226948   0.597   2.579   1.349 -0.1224  0.1598  0.8083
 8995TIP3    H126949   0.555   2.497   1.373  2.8001 -1.2860  1.4991
 8995TIP3    H226950   0.643   2.606   1.428  2.2613  0.2040 -0.5043
 8996TIP3   OH226951   5.252   6.602   3.490  0.4766 -0.4618 -0.2694
 8996TIP3    H126952   5.262   6.693   3.462  2.0759 -0.7496 -0.7475
 8996TIP3    H226953   5.176   6.602   3.548  1.1175  1.3964  0.6399
 8997TIP3   OH226954   5.152   0.669   2.421 -0.4046 -0.0553  0.4231
 8997TIP3    H126955   5.072   0.718   2.402 -0.1867  0.3839  0.6279
 8997TIP3    H226956   5.219   0.713   2.369 -0.4098 -0.8069 -0.2357
 8998TIP3   OH226957   5.087   2.372   5.385  0.2127  0.0770 -0.7123
 8998TIP3    H126958   5.021   2.441   5.374  0.7289  0.9459  1.2422
 8998TIP3    H226959   5.047   2.311   5.446  1.5870  1.2061  1.4222
 8999TIP3   OH226960   1.230   3.265   2.659  0.1348  0.4419  0.0843
 8999TIP3    H126961   1.153   3.323   2.657 -0.9865 -0.9776  0.3886
 8999TIP3    H226962   1.297   3.315   2.706 -1.5268  0.6811  2.3751
 9000TIP3   OH226963   4.592   4.493   5.696 -0.5574 -0.2124  0.5862
 9000TIP3    H126964   4.498   4.510   5.699 -0.4960 -0.0139  1.7554
 9000TIP3    H226965   4.620   4.527   5.611 -1.3345  0.8324  0.7267
 9001TIP3   OH226966   5.421   5.947   4.689 -0.8166  0.5874 -0.3578
 9001TIP3    H126967   5.371   5.952   4.771  2.9275  0.6829  2.1805
 9001TIP3    H226968   5.473   6.028   4.688  2.0557 -1.1029 -0.6556
 9002TIP3   OH226969   3.093   1.814   4.648  0.1372  0.4718  0.6685
 9002TIP3    H126970   3.102   1.728   4.608  0.4429  0.2092  1.2848
 9002TIP3    H226971   3.107   1.798   4.742  2.4232  1.5068  0.5805
 9003TIP3   OH226972   3.851   3.360   0.698  0.4991 -0.1643 -0.6171
 9003TIP3    H126973   3.834   3.368   0.604 -0.7208 -1.7127 -0.5678
 9003TIP3    H226974   3.836   3.448   0.733 -1.3833 -0.0744 -1.5431
 9004TIP3   OH226975   1.716   3.197   4.804 -0.2116 -0.7046 -0.1598
 9004TIP3    H126976   1.624   3.170   4.809 -0.3307 -0.4764 -0.9693
 9004TIP3    H226977   1.764   3.116   4.787 -0.2708 -0.8167  0.2131
 9005TIP3   OH226978   0.647   1.470   3.133  0.1489  0.0888  0.3896
 9005TIP3    H126979   0.666   1.474   3.040  1.8178  1.0746  0.7204
 9005TIP3    H226980   0.607   1.554   3.153  1.1863  0.5101  0.7982
 9006TIP3   OH226981   1.746   4.165   3.222 -0.2629 -0.0182 -0.3275
 9006TIP3    H126982   1.684   4.105   3.263  1.8793 -0.2311  2.8718
 9006TIP3    H226983   1.695   4.245   3.209 -1.4981 -0.4779  1.3180
 9007TIP3   OH226984   4.820   5.446   1.613  0.4950  0.3416  0.4939
 9007TIP3    H126985   4.725   5.439   1.622  0.3675  1.3330  0.0556
 9007TIP3    H226986   4.833   5.496   1.532  1.3846  0.3322  0.6199
 9008TIP3   OH226987   3.640   6.734   1.278  0.0063  0.1374 -0.7744
 9008TIP3    H126988   3.636   6.706   1.186 -0.6586 -0.9819 -0.4346
 9008TIP3    H226989   3.688   6.816   1.277  2.6481 -1.2970 -1.8027
 9009TIP3   OH226990   6.873   2.927   4.465  0.4737  0.1005 -0.2030
 9009TIP3    H126991   6.787   2.884   4.461  0.2224  0.6917 -1.8120
 9009TIP3    H226992   6.903   2.911   4.554 -1.4618  0.1690  0.5232
 9010TIP3   OH226993   4.128   3.010   0.937  0.0365 -0.0281 -0.0664
 9010TIP3    H126994   4.050   2.962   0.965 -0.7699  1.0823 -0.3164
 9010TIP3    H226995   4.096   3.098   0.917  1.3463  0.4339 -0.2621
 9011TIP3   OH226996   0.469   3.228   0.249  0.4662  0.5792  0.1564
 9011TIP3    H126997   0.521   3.148   0.260  0.5604  0.7290  0.8204
 9011TIP3    H226998   0.459   3.237   0.154 -0.5767 -0.8814  0.1020
 9012TIP3   OH226999   6.056   2.918   0.148  0.1013  0.4488 -0.1960
 9012TIP3    H127000   6.007   2.993   0.113  1.3994  0.8614 -1.1965
 9012TIP3    H227001   6.080   2.944   0.237 -0.6066  0.6597 -0.0620
 9013TIP3   OH227002   1.139   4.918   4.311  0.6514 -0.2347  0.5330
 9013TIP3    H127003   1.187   4.885   4.235 -0.9733 -1.2211 -0.1224
 9013TIP3    H227004   1.133   4.842   4.369 -1.1056 -0.4944  0.0654
 9014TIP3   OH227005   4.707   6.318   5.038  0.7269  0.2693  0.5584
 9014TIP3    H127006   4.765   6.249   5.070  1.8277  0.7094 -0.4274
 9014TIP3    H227007   4.748   6.350   4.958  0.5305  2.4051  1.2321
 9015TIP3   OH227008   3.243   1.764   0.397 -0.4000  0.3594  0.3090
 9015TIP3    H127009   3.326   1.790   0.438 -0.4229  0.9064  0.0266
 9015TIP3    H227010   3.230   1.830   0.329 -0.8198 -0.0160  0.0292
 9016TIP3   OH227011   3.049   4.464   2.020 -1.2079  0.0063 -0.0313
 9016TIP3    H127012   3.139   4.493   2.034 -1.6219  1.4466 -0.2004
 9016TIP3    H227013   3.019   4.437   2.107 -0.2250 -1.7773 -0.1850
 9017TIP3   OH227014   1.874   2.279   3.240 -0.1743  0.1212 -0.1133
 9017TIP3    H127015   1.944   2.343   3.230 -0.5720  0.3957 -1.2538
 9017TIP3    H227016   1.878   2.226   3.160 -0.7529 -0.3735  0.1745
 9018TIP3   OH227017   0.871   6.695   0.577 -0.3723  0.0757 -0.4222
 9018TIP3    H127018   0.877   6.756   0.504 -0.7291  0.7451  0.0923
 9018TIP3    H227019   0.961   6.667   0.593 -0.2176  0.3886 -0.7372
 9019TIP3   OH227020   3.721   4.099   3.399  0.2551  0.2864 -0.4835
 9019TIP3    H127021   3.628   4.120   3.400  0.3764  0.8168 -0.3142
 9019TIP3    H227022   3.756   4.137   3.480  0.4290 -0.8068 -0.0225
 9020TIP3   OH227023   0.329   3.729   1.247  0.0884 -0.1754  0.5142
 9020TIP3    H127024   0.368   3.649   1.282  0.7949 -0.1720 -0.2216
 9020TIP3    H227025   0.354   3.729   1.154 -2.0768 -0.4101 -0.1197
 9021TIP3   OH227026   4.422   6.676   4.198 -0.1132 -0.1032 -0.6452
 9021TIP3    H127027   4.330   6.679   4.225  0.2350  1.5235  0.5044
 9021TIP3    H227028   4.430   6.746   4.133  0.7079  1.0942  0.7004
 9022TIP3   OH227029   4.605   3.921   2.403 -0.8639 -0.0839 -0.6350
 9022TIP3    H127030   4.686   3.961   2.434 -0.7912 -2.6472  3.0078
 9022TIP3    H227031   4.634   3.852   2.344 -0.2678 -1.3137  1.0314
 9023TIP3   OH227032   3.537   5.236   4.568  0.0619 -0.3074 -0.1180
 9023TIP3    H127033   3.459   5.193   4.533  0.1733 -1.6743  1.2002
 9023TIP3    H227034   3.537   5.214   4.661  1.2318  0.9186  0.2088
 9024TIP3   OH227035   3.850   3.181   1.114  0.2118  0.0533  0.3149
 9024TIP3    H127036   3.905   3.202   1.039 -0.0563 -1.0078 -0.2066
 9024TIP3    H227037   3.761   3.201   1.085  0.0962 -0.4659  0.3084
 9025TIP3   OH227038   2.616   2.183   2.360 -0.7853  0.4983 -0.1248
 9025TIP3    H127039   2.551   2.113   2.369  0.0624 -0.2882  0.1190
 9025TIP3    H227040   2.569   2.255   2.320 -1.1001 -1.1251 -2.9610
 9026TIP3   OH227041   5.850   3.915   3.740  0.0598 -0.0004  0.1070
 9026TIP3    H127042   5.905   3.940   3.665 -0.2429 -1.0932 -0.5019
 9026TIP3    H227043   5.859   3.987   3.802  0.4927  0.8214 -0.8934
 9027TIP3   OH227044   4.190   3.654   0.885 -0.0521  0.1840  0.5182
 9027TIP3    H127045   4.227   3.616   0.805  2.9888  2.1800  0.8141
 9027TIP3    H227046   4.260   3.708   0.920 -1.9305  0.8570  3.5845
 9028TIP3   OH227047   0.542   4.557   5.875 -0.2881  0.9139  0.5123
 9028TIP3    H127048   0.513   4.484   5.929  0.9371  0.0659  0.0625
 9028TIP3    H227049   0.526   4.529   5.785  1.0498  0.7882  0.2930
 9029TIP3   OH227050   5.421   5.684   2.774 -0.3668 -0.3939  0.3209
 9029TIP3    H127051   5.366   5.651   2.845 -1.3382  1.3837  0.4530
 9029TIP3    H227052   5.483   5.613   2.757 -1.3860 -1.6521  1.5691
 9030TIP3   OH227053   3.740   1.887   3.925 -0.4776  0.1515 -0.2476
 9030TIP3    H127054   3.779   1.870   4.011  0.0118  0.5374 -0.3917
 9030TIP3    H227055   3.801   1.948   3.883 -2.1505  2.2632  0.2336
 9031TIP3   OH227056   2.477   5.154   5.215  0.2709  0.5359 -0.4297
 9031TIP3    H127057   2.551   5.094   5.210 -0.3869 -0.2755 -0.5337
 9031TIP3    H227058   2.513   5.238   5.187  1.7030  0.6686  1.5969
 9032TIP3   OH227059   6.307   0.077   4.863  0.2300  0.4125  0.4574
 9032TIP3    H127060   6.326  -0.004   4.911  2.1460 -0.6296 -1.8328
 9032TIP3    H227061   6.223   0.106   4.896 -1.0765 -3.1326  0.6321
 9033TIP3   OH227062   4.068   2.118   3.481 -0.3828  0.2127 -0.3631
 9033TIP3    H127063   4.084   2.177   3.555  0.1570  0.0492 -0.3465
 9033TIP3    H227064   3.973   2.117   3.472 -0.3577  2.5602 -1.5778
 9034TIP3   OH227065   2.340   5.140   1.160  0.1156 -0.4155  0.1226
 9034TIP3    H127066   2.351   5.202   1.232 -0.5546 -0.4720  0.2812
 9034TIP3    H227067   2.247   5.147   1.136  0.4538  0.0527 -1.1419
 9035TIP3   OH227068   3.594   3.166   2.829  0.0275 -0.0764  0.6233
 9035TIP3    H127069   3.639   3.106   2.769 -0.7197  0.4028 -0.4551
 9035TIP3    H227070   3.621   3.138   2.916  1.1646 -0.7833  0.0666
 9036TIP3   OH227071   4.289   0.281   0.553 -0.2707 -0.5010  0.3798
 9036TIP3    H127072   4.364   0.221   0.548  0.4847  0.4117  0.3684
 9036TIP3    H227073   4.284   0.320   0.466 -0.1776  0.1163  0.6475
 9037TIP3   OH227074   2.350   2.215   3.553  0.6162 -0.2162 -0.4722
 9037TIP3    H127075   2.256   2.212   3.568  0.4384  0.0605 -1.4733
 9037TIP3    H227076   2.364   2.300   3.510  1.3434 -0.1856 -0.1862
 9038TIP3   OH227077   3.449   2.857   4.080  0.2624 -0.3055  0.3979
 9038TIP3    H127078   3.413   2.938   4.118  1.2059  0.9160 -1.2000
 9038TIP3    H227079   3.529   2.885   4.036  0.8628 -2.2261  0.1947
 9039TIP3   OH227080   6.681   2.492   1.052 -0.2513 -0.1575 -0.4169
 9039TIP3    H127081   6.774   2.471   1.056 -0.2380  0.1092  1.7906
 9039TIP3    H227082   6.640   2.412   1.020  0.6140 -0.7194 -0.1520
 9040TIP3   OH227083   4.663   0.576   5.474  0.3030  0.2268 -0.0251
 9040TIP3    H127084   4.594   0.634   5.506  1.1105 -0.0238  2.3865
 9040TIP3    H227085   4.655   0.497   5.527  1.3406 -0.5390 -0.9472
 9041TIP3   OH227086   6.039   3.519   0.336 -0.4206  0.0657  0.3432
 9041TIP3    H127087   5.955   3.516   0.290 -0.2892 -1.8273  0.1535
 9041TIP3    H227088   6.078   3.433   0.321  0.3537 -0.0715  2.6740
 9042TIP3   OH227089   5.230   3.838   2.966 -0.2361 -0.4165  0.2196
 9042TIP3    H127090   5.305   3.897   2.954 -0.0642 -0.6387  0.1858
 9042TIP3    H227091   5.270   3.751   2.973 -0.5370 -0.6043 -0.3944
 9043TIP3   OH227092   6.215   1.155   0.235 -0.4142 -0.3538 -0.3389
 9043TIP3    H127093   6.122   1.140   0.220 -0.6247 -0.6010  1.0855
 9043TIP3    H227094   6.225   1.154   0.330  0.5003  2.9682 -0.2746
 9044TIP3   OH227095   6.783   1.525   1.181  0.2751 -0.4980  0.4027
 9044TIP3    H127096   6.724   1.490   1.115 -0.7733  1.5453  0.2073
 9044TIP3    H227097   6.836   1.449   1.207 -0.7801 -1.8426 -1.1428
 9045TIP3   OH227098   6.485   6.744   4.632 -0.4572  0.4850 -0.0518
 9045TIP3    H127099   6.435   6.721   4.710 -0.5042  0.5517 -0.0626
 9045TIP3    H227100   6.574   6.758   4.664 -0.1863 -0.7687 -0.2014
 9046TIP3   OH227101   0.382   5.638  -0.000  0.1223 -0.1155 -0.6063
 9046TIP3    H127102   0.414   5.597   0.081 -2.4126 -1.3111 -0.1211
 9046TIP3    H227103   0.291   5.660   0.019  0.1921  1.9080 -2.3356
 9047TIP3   OH227104   4.305   3.401   0.951  0.3776  0.0606  0.2163
 9047TIP3    H127105   4.236   3.465   0.933 -0.4277 -1.1548 -1.2602
 9047TIP3    H227106   4.264   3.338   1.011 -0.3619 -1.4629 -1.7808
 9048TIP3   OH227107   5.424   0.073   2.981 -0.4451  0.4409  0.1117
 9048TIP3    H127108   5.367   0.129   2.928 -0.4672  3.4711  3.0176
 9048TIP3    H227109   5.383   0.071   3.067  2.6407  0.8781  1.7196
 9049TIP3   OH227110   2.507   0.621   1.169  0.6752 -0.1219  0.3271
 9049TIP3    H127111   2.532   0.530   1.155 -1.2476 -0.6243 -0.2161
 9049TIP3    H227112   2.521   0.663   1.084  1.7221  0.1548  0.6226
 9050TIP3   OH227113   4.673   4.946   2.950  0.5128 -0.8349  0.1793
 9050TIP3    H127114   4.729   4.908   2.882  0.1364 -2.0762  0.5402
 9050TIP3    H227115   4.727   5.015   2.989  1.3164 -1.1634 -0.3214
 9051TIP3   OH227116   2.717   4.438   4.375 -0.3352  0.1677 -0.0069
 9051TIP3    H127117   2.788   4.395   4.327 -0.2189  2.0731 -1.6662
 9051TIP3    H227118   2.640   4.427   4.319 -1.3142 -1.3623  1.4991
 9052TIP3   OH227119   3.978   0.297   5.542  0.3578  0.0435  0.0302
 9052TIP3    H127120   4.017   0.382   5.522  0.8741 -0.0662  0.5516
 9052TIP3    H227121   3.952   0.303   5.633 -0.9300  0.1359 -0.3287
 9053TIP3   OH227122   1.731   0.589   5.313 -0.0509 -1.0451  0.0516
 9053TIP3    H127123   1.747   0.530   5.239 -1.4264 -0.7788 -0.4820
 9053TIP3    H227124   1.714   0.531   5.387  1.0313 -1.3087  0.1173
 9054TIP3   OH227125   5.290   0.026   5.028  0.5909 -0.0313  0.1407
 9054TIP3    H127126   5.240   0.056   5.104 -0.5563  0.3799 -0.7421
 9054TIP3    H227127   5.379   0.057   5.044 -0.1158  2.2082  0.2152
 9055TIP3   OH227128   1.809   3.428   3.083 -0.6182  0.0004 -0.4166
 9055TIP3    H127129   1.896   3.429   3.043 -1.2022  0.6176 -1.7410
 9055TIP3    H227130   1.758   3.368   3.028 -0.3802 -2.5494  1.9257
 9056TIP3   OH227131   6.269   1.684   4.014  0.1463 -0.0202 -0.3710
 9056TIP3    H127132   6.186   1.703   3.971  0.3211  1.0995 -0.2449
 9056TIP3    H227133   6.277   1.751   4.082 -0.0614 -1.6480  1.3461
 9057TIP3   OH227134   3.373   0.831   4.700 -0.0500  0.1275  0.4595
 9057TIP3    H127135   3.363   0.873   4.615  1.3384 -1.6548 -0.6710
 9057TIP3    H227136   3.446   0.770   4.688  0.6424  0.2968  3.1458
 9058TIP3   OH227137   7.087   5.802   3.324  0.2652 -0.2716 -0.1833
 9058TIP3    H127138   7.181   5.782   3.322  0.1033 -1.1085  0.0670
 9058TIP3    H227139   7.068   5.837   3.237  0.7222 -0.5025 -0.3811
 9059TIP3   OH227140   1.529   4.220   2.580  0.1774 -0.3706  0.4153
 9059TIP3    H127141   1.472   4.296   2.576 -2.3410 -2.2136 -1.5177
 9059TIP3    H227142   1.595   4.236   2.512  0.6640  0.7450  1.1191
 9060TIP3   OH227143   5.771   2.356   4.605 -1.0066  0.5744  0.4566
 9060TIP3    H127144   5.727   2.439   4.588 -0.8892  0.0873 -2.6615
 9060TIP3    H227145   5.713   2.310   4.666 -1.9794  2.1865  0.7921
 9061TIP3   OH227146   2.704   6.197   5.319 -0.0029  0.5711 -0.0144
 9061TIP3    H127147   2.645   6.169   5.249 -0.2664  1.7928 -0.2993
 9061TIP3    H227148   2.787   6.212   5.276 -0.5035  2.6149 -0.3435
 9062TIP3   OH227149   5.812   4.241   2.514  0.4717 -0.2708  0.4422
 9062TIP3    H127150   5.722   4.265   2.494 -0.8854 -2.5954  3.1522
 9062TIP3    H227151   5.864   4.315   2.481 -2.4947  1.8231  0.0667
 9063TIP3   OH227152   4.794   3.661   3.985 -0.0531  0.6389  0.5029
 9063TIP3    H127153   4.724   3.725   3.976  0.1283  0.7376 -0.2403
 9063TIP3    H227154   4.870   3.701   3.943  0.9268  1.2132  2.6585
 9064TIP3   OH227155   4.530   5.664   0.621  0.0003 -0.1336 -0.4466
 9064TIP3    H127156   4.560   5.609   0.549  1.6428 -0.9610  0.8018
 9064TIP3    H227157   4.607   5.713   0.648  0.9148 -3.2805  3.7031
 9065TIP3   OH227158   5.358   1.228   0.683  0.3085  0.4660 -0.5435
 9065TIP3    H127159   5.420   1.157   0.665 -0.1361  0.2564 -1.2805
 9065TIP3    H227160   5.413   1.306   0.693  0.8120 -0.0128  0.4515
 9066TIP3   OH227161   4.840   0.809   3.451 -0.2041  0.5491 -0.1568
 9066TIP3    H127162   4.788   0.728   3.446 -0.9492  1.0722 -1.1355
 9066TIP3    H227163   4.878   0.819   3.364 -1.5391  2.1552 -0.6097
 9067TIP3   OH227164   0.038   4.718   0.857 -0.1837 -0.5144 -0.0007
 9067TIP3    H127165   0.084   4.715   0.773 -0.0645  2.8088 -0.2127
 9067TIP3    H227166   0.076   4.648   0.909  2.0153 -0.6512 -1.6675
 9068TIP3   OH227167   0.615   3.099   0.944 -0.3803  0.0291 -0.7030
 9068TIP3    H127168   0.676   3.034   0.978 -0.8512 -0.2982 -0.4712
 9068TIP3    H227169   0.537   3.049   0.920 -0.1451  0.2917 -2.0562
 9069TIP3   OH227170   5.439   3.942   2.155 -0.3515  0.2552  0.3930
 9069TIP3    H127171   5.455   3.903   2.241  0.2066  0.2049  0.2653
 9069TIP3    H227172   5.473   3.878   2.093  0.4483  0.8763  0.1757
 9070TIP3   OH227173   6.284   2.503   0.379 -0.2728  0.1618 -0.2816
 9070TIP3    H127174   6.251   2.461   0.299 -1.1879 -1.3879  0.8535
 9070TIP3    H227175   6.256   2.594   0.372  0.7866  0.3978 -2.3034
 9071TIP3   OH227176   2.254   6.792   3.701  0.4868  0.0915  0.1508
 9071TIP3    H127177   2.160   6.778   3.704  0.5862 -0.5980  0.0973
 9071TIP3    H227178   2.288   6.751   3.780  0.6244  1.3706  0.7867
 9072TIP3   OH227179   3.278   2.278   2.927 -0.0650 -0.0912  0.0074
 9072TIP3    H127180   3.326   2.293   3.008  0.5370  0.3924 -0.4346
 9072TIP3    H227181   3.188   2.305   2.947 -0.0765 -0.6169  0.7134
 9073TIP3   OH227182   0.522   6.108   0.807 -0.4122 -0.2666 -0.4078
 9073TIP3    H127183   0.519   6.012   0.809  0.2097 -0.3834 -2.4701
 9073TIP3    H227184   0.445   6.132   0.756 -1.9558  0.5476  2.1070
 9074TIP3   OH227185   4.383   5.277   4.932  0.2516 -0.3509  0.4587
 9074TIP3    H127186   4.396   5.371   4.920  3.8373 -0.7827 -0.2518
 9074TIP3    H227187   4.363   5.244   4.844  0.4496 -0.4118  0.4357
 9075TIP3   OH227188   0.784   0.144   2.278  0.5920 -0.2350  0.2468
 9075TIP3    H127189   0.843   0.108   2.211 -0.8235  1.6597 -2.2023
 9075TIP3    H227190   0.698   0.107   2.257 -0.1118  1.3477  0.1811
 9076TIP3   OH227191   2.465   2.083   1.737  0.0448 -0.0344 -0.1451
 9076TIP3    H127192   2.370   2.089   1.753 -0.0280  0.7865 -0.7963
 9076TIP3    H227193   2.495   2.014   1.796 -1.1159 -1.0142 -0.6527
 9077TIP3   OH227194   3.439   2.111   5.602  0.5514 -0.2363 -0.1781
 9077TIP3    H127195   3.487   2.094   5.683 -0.6036  0.1675  0.6205
 9077TIP3    H227196   3.381   2.184   5.623  0.7082  0.3123 -1.5814
 9078TIP3   OH227197   3.590   4.372   3.555  1.0904 -0.1527 -0.0475
 9078TIP3    H127198   3.667   4.327   3.590  1.1742 -0.4859 -0.6582
 9078TIP3    H227199   3.626   4.443   3.503  0.9700  0.1059  0.2200
 9079TIP3   OH227200   2.707   6.659   2.062 -0.0451  0.1766 -0.1283
 9079TIP3    H127201   2.699   6.603   2.139 -0.2280  0.3791 -0.0023
 9079TIP3    H227202   2.800   6.681   2.058  0.6334 -2.4696 -1.7958
 9080TIP3   OH227203   2.472   4.469   2.108  0.0819  0.0335 -0.3362
 9080TIP3    H127204   2.482   4.529   2.035  0.4579 -0.7365 -0.9392
 9080TIP3    H227205   2.414   4.514   2.169 -0.6299  0.4861 -1.3253
 9081TIP3   OH227206   0.141   1.551   4.814  0.4440 -0.3985 -0.3470
 9081TIP3    H127207   0.063   1.591   4.777 -0.0161  0.7859  1.7549
 9081TIP3    H227208   0.214   1.586   4.762 -0.3244 -0.9676 -1.8673
 9082TIP3   OH227209   2.808   3.325   5.552 -0.4264 -0.4304  0.2987
 9082TIP3    H127210   2.741   3.262   5.525  0.5680 -1.0530 -0.8423
 9082TIP3    H227211   2.760   3.395   5.596 -1.7560 -1.0970 -0.0507
 9083TIP3   OH227212   5.519   2.078   2.231 -0.1541  0.3908  0.7770
 9083TIP3    H127213   5.465   2.153   2.255 -3.7384 -1.9397  0.8565
 9083TIP3    H227214   5.488   2.007   2.287  0.9104 -1.8853 -1.3085
 9084TIP3   OH227215   2.475   0.386   4.735 -0.4446  0.1519 -0.1820
 9084TIP3    H127216   2.522   0.452   4.786 -0.4045  0.1819 -0.2574
 9084TIP3    H227217   2.495   0.408   4.644 -1.2484  0.6442 -0.2498
 9085TIP3   OH227218   3.174   5.067   3.616  0.1472  0.2247 -1.0544
 9085TIP3    H127219   3.091   5.092   3.656 -0.5133 -2.4648 -0.5758
 9085TIP3    H227220   3.240   5.117   3.665 -0.8150 -1.2105  1.9618
 9086TIP3   OH227221   0.003   1.035   1.216 -0.6639  0.4454 -0.7031
 9086TIP3    H127222  -0.009   1.097   1.144 -0.7738  0.6972 -0.4716
 9086TIP3    H227223   0.038   1.088   1.287 -0.8931  0.2708 -0.4573
 9087TIP3   OH227224   5.616   1.722   3.618 -0.4461 -0.0292  0.1857
 9087TIP3    H127225   5.711   1.730   3.623 -0.2223 -1.9343 -0.2380
 9087TIP3    H227226   5.590   1.781   3.547  0.2916  1.1742  0.8877
 9088TIP3   OH227227   7.057   4.326   1.757  0.4990  0.3493 -0.1492
 9088TIP3    H127228   7.067   4.340   1.851 -1.0277 -1.0132  0.2514
 9088TIP3    H227229   6.989   4.388   1.730 -1.6257 -1.6332  0.3852
 9089TIP3   OH227230   3.186   4.898   0.162 -0.2993 -0.2445 -0.3881
 9089TIP3    H127231   3.125   4.953   0.212  0.8827  0.3832  0.3989
 9089TIP3    H227232   3.147   4.811   0.166 -1.3118  0.1963 -0.1790
 9090TIP3   OH227233   0.153   5.121   3.691 -0.2330 -0.4173 -0.4200
 9090TIP3    H127234   0.163   5.061   3.617 -2.0629  1.9257 -2.7923
 9090TIP3    H227235   0.067   5.099   3.728 -0.3545 -0.0978 -0.5047
 9091TIP3   OH227236   6.913   0.349   0.893 -0.0288  0.1616 -0.1113
 9091TIP3    H127237   6.929   0.284   0.825  0.5458  2.1721 -1.9968
 9091TIP3    H227238   6.986   0.411   0.886  0.3604  0.1547  2.7519
 9092TIP3   OH227239   7.030   0.608   0.912 -0.7575  0.1142 -0.1360
 9092TIP3    H127240   7.094   0.638   0.848 -1.1125  0.9142 -0.1329
 9092TIP3    H227241   7.026   0.679   0.977 -0.9987 -0.3193  0.3357
 9093TIP3   OH227242   3.174   6.274   0.684  0.2331  0.0747  0.0104
 9093TIP3    H127243   3.146   6.359   0.649 -0.7314 -1.2858 -2.7839
 9093TIP3    H227244   3.269   6.272   0.668 -0.2311 -0.6472 -3.0401
 9094TIP3   OH227245   6.047   4.697   0.442 -0.0072 -0.6413 -0.0847
 9094TIP3    H127246   6.000   4.764   0.391  0.9329 -0.2031 -0.4065
 9094TIP3    H227247   6.137   4.729   0.445  0.5933 -2.1672 -0.7156
 9095TIP3   OH227248   2.625   1.362   4.429 -0.2228 -1.0269  0.5812
 9095TIP3    H127249   2.545   1.327   4.390  0.8911 -0.7585 -2.1407
 9095TIP3    H227250   2.676   1.285   4.454 -1.0831 -1.1993  1.9084
 9096TIP3   OH227251   4.243   3.929   3.310 -0.4193 -0.5990  0.0883
 9096TIP3    H127252   4.152   3.958   3.308 -0.3559 -0.4160 -0.0939
 9096TIP3    H227253   4.237   3.833   3.311 -0.6342 -0.5876  1.1320
 9097TIP3   OH227254   5.634   4.626   5.051  0.7033 -0.6789  0.5823
 9097TIP3    H127255   5.724   4.593   5.053  0.9637  0.0561  1.1312
 9097TIP3    H227256   5.632   4.697   5.114 -0.3169 -0.7970  0.7123
 9098TIP3   OH227257   0.774   5.310   0.401 -0.0249 -0.1785 -0.1368
 9098TIP3    H127258   0.830   5.345   0.332 -0.2410  1.1755  0.3441
 9098TIP3    H227259   0.835   5.292   0.474 -0.0084 -0.1786 -0.1506
 9099TIP3   OH227260   1.692   3.154   3.022  0.0682  0.1524  0.3619
 9099TIP3    H127261   1.666   3.097   2.950 -0.8694  1.9873 -0.8340
 9099TIP3    H227262   1.781   3.127   3.043  0.1708 -0.7949 -1.1235
 9100TIP3   OH227263   3.663   0.798   0.969  0.1052  0.4195  0.0200
 9100TIP3    H127264   3.666   0.727   0.904  0.3100  0.0958  0.3817
 9100TIP3    H227265   3.633   0.874   0.919 -3.3815 -0.6126  0.2359
 9101TIP3   OH227266   2.399   1.313   2.692 -0.3824  0.3218  0.1860
 9101TIP3    H127267   2.356   1.287   2.610 -1.3257  1.9562  0.1121
 9101TIP3    H227268   2.492   1.305   2.673 -0.5885 -1.3724 -0.3200
 9102TIP3   OH227269   0.680   1.916   5.447 -0.3131  0.2691  0.4326
 9102TIP3    H127270   0.730   1.871   5.516 -0.3036 -0.9938 -0.3686
 9102TIP3    H227271   0.608   1.959   5.494  1.1875  1.7028  1.5592
 9103TIP3   OH227272   0.182   6.770   5.019  0.5116  0.3099 -1.3112
 9103TIP3    H127273   0.187   6.864   5.035 -0.0862  0.4592 -1.9260
 9103TIP3    H227274   0.093   6.746   5.044  1.1628 -0.4190  0.3926
 9104TIP3   OH227275   7.139   5.961   1.614  0.2678 -0.4140  0.3608
 9104TIP3    H127276   7.117   5.871   1.590  0.4741 -0.2474 -0.4722
 9104TIP3    H227277   7.231   5.971   1.590  0.0372  0.2519 -0.2666
 9105TIP3   OH227278   1.051   1.253   4.816  0.0014 -0.1868 -0.7429
 9105TIP3    H127279   0.967   1.224   4.850  0.6682  1.7164  3.0624
 9105TIP3    H227280   1.030   1.325   4.757 -1.0695 -0.6259 -0.9110
 9106TIP3   OH227281   4.410   2.087   5.158  0.1967 -0.4122 -0.4226
 9106TIP3    H127282   4.497   2.123   5.140 -0.1269  0.4817 -0.2486
 9106TIP3    H227283   4.408   2.004   5.110  1.3348 -0.7098  0.0187
 9107TIP3   OH227284   1.873   4.327   4.686 -0.0604 -0.5381 -0.1034
 9107TIP3    H127285   1.897   4.251   4.739  1.0252 -0.4998 -0.5175
 9107TIP3    H227286   1.956   4.356   4.647 -0.4160  1.0285  0.2747
 9108TIP3   OH227287   2.506   6.292   4.578 -0.2476 -0.3622 -0.2111
 9108TIP3    H127288   2.537   6.207   4.546  0.2156 -0.2954  0.0612
 9108TIP3    H227289   2.529   6.292   4.671  0.5432  0.4206 -0.3990
 9109TIP3   OH227290   5.789   1.818   2.121 -0.5184  0.3432 -0.8830
 9109TIP3    H127291   5.787   1.778   2.208 -1.6965  0.7271 -0.7178
 9109TIP3    H227292   5.720   1.773   2.072 -3.4402  3.4618 -0.0473
 9110TIP3   OH227293   4.992   0.368   0.097 -0.2594 -0.2893 -0.0539
 9110TIP3    H127294   5.008   0.404   0.010 -0.1472 -0.6250 -0.1770
 9110TIP3    H227295   4.898   0.377   0.110 -0.0712  1.1144  0.4100
 9111TIP3   OH227296   4.304   1.845   5.542  0.2151 -0.6755 -0.0910
 9111TIP3    H127297   4.320   1.935   5.570 -0.3687 -1.3301  2.6274
 9111TIP3    H227298   4.247   1.854   5.466  1.6896  1.2493 -1.0842
 9112TIP3   OH227299   1.460   2.463   3.711  0.4538 -0.6626 -0.3163
 9112TIP3    H127300   1.396   2.527   3.742  0.3932 -0.2998 -1.1719
 9112TIP3    H227301   1.428   2.379   3.744  1.0153 -0.1739  1.5894
 9113TIP3   OH227302   1.422   0.003   1.709  0.0706  0.0262 -0.3538
 9113TIP3    H127303   1.375   0.086   1.712  0.4846  0.3370 -1.6115
 9113TIP3    H227304   1.435  -0.013   1.615  0.7551 -1.0219 -0.0954
 9114TIP3   OH227305   7.117   2.956   2.827  0.1967  0.2733 -0.2201
 9114TIP3    H127306   7.048   2.904   2.786  0.6236 -0.5322  0.0685
 9114TIP3    H227307   7.070   3.025   2.874 -0.3945 -0.0430 -0.3426
 9115TIP3   OH227308   6.981   5.337   5.470  0.4475  0.1550  0.1761
 9115TIP3    H127309   6.969   5.305   5.381  1.1354  0.1933  0.0672
 9115TIP3    H227310   6.893   5.337   5.507  0.1090  0.4621 -0.6100
 9116TIP3   OH227311   5.637   2.768   1.093  0.3783 -0.2273 -0.1334
 9116TIP3    H127312   5.633   2.851   1.046  0.6931 -0.1566 -0.0403
 9116TIP3    H227313   5.553   2.763   1.140 -1.5109 -1.9420 -3.3904
 9117TIP3   OH227314   2.217   6.507   0.714 -0.1709 -0.0887  0.0535
 9117TIP3    H127315   2.225   6.473   0.625 -0.6301 -2.4543  0.8321
 9117TIP3    H227316   2.307   6.522   0.742 -0.0249  0.7764 -0.8039
 9118TIP3   OH227317   5.878   3.063   0.549 -0.4075 -0.9974 -0.8703
 9118TIP3    H127318   5.873   3.063   0.644 -0.7876 -1.0057 -0.8919
 9118TIP3    H227319   5.867   3.154   0.524 -2.3133 -1.2375 -1.0148
 9119TIP3   OH227320   3.942   2.980   5.197  0.2383  0.5336 -0.5041
 9119TIP3    H127321   3.879   3.030   5.145 -1.1417  0.6898  1.2298
 9119TIP3    H227322   4.012   3.042   5.217  0.0730  0.8709 -0.9724
 9120TIP3   OH227323   1.441   4.454   1.952  0.1099 -0.2918  1.0053
 9120TIP3    H127324   1.428   4.367   1.915 -0.3320 -0.2576  1.0714
 9120TIP3    H227325   1.498   4.499   1.889  0.7308 -0.7809  1.2139
 9121TIP3   OH227326   3.052   3.878   2.295  0.1306  0.0084 -0.1820
 9121TIP3    H127327   3.037   3.784   2.289 -2.1359  0.3081 -0.0300
 9121TIP3    H227328   3.133   3.893   2.246  0.6574 -2.0317  0.0032
 9122TIP3   OH227329   4.447   4.835   5.817 -0.6813  0.2776 -0.0707
 9122TIP3    H127330   4.525   4.812   5.767  0.1138  0.4335  1.0656
 9122TIP3    H227331   4.378   4.840   5.752  0.0824 -0.6749 -0.9862
 9123TIP3   OH227332   3.225   2.482   3.230 -0.0560  0.0500  0.2541
 9123TIP3    H127333   3.298   2.426   3.205 -0.1887  0.4359 -1.1009
 9123TIP3    H227334   3.259   2.571   3.224 -0.5951  0.2296 -0.2975
 9124TIP3   OH227335   0.412   2.421   5.117  0.3172  0.0105  0.0548
 9124TIP3    H127336   0.423   2.352   5.182 -0.2381  1.3308  1.6013
 9124TIP3    H227337   0.499   2.433   5.079  1.3302  1.0189  2.4794
 9125TIP3   OH227338   6.733   4.383   5.690 -0.2475  0.0441 -0.3222
 9125TIP3    H127339   6.785   4.455   5.727  0.1553 -1.3805  2.0811
 9125TIP3    H227340   6.796   4.311   5.680 -0.5833  0.0258 -2.9656
 9126TIP3   OH227341   6.996   0.655   0.074  0.1074  0.1593  0.1948
 9126TIP3    H127342   6.924   0.591   0.073 -0.0774  0.3509  0.6440
 9126TIP3    H227343   7.024   0.661  -0.017 -0.2470 -0.1434  0.0604
 9127TIP3   OH227344   5.588   5.595   4.295  0.4955  0.2151  0.0921
 9127TIP3    H127345   5.672   5.632   4.322  0.5043 -1.1851  2.2420
 9127TIP3    H227346   5.522   5.648   4.340  0.2677  0.5892 -0.6699
 9128TIP3   OH227347   1.900   6.484   4.887 -0.4285  0.6117  0.4010
 9128TIP3    H127348   1.897   6.397   4.846 -2.2968  0.8664 -0.1013
 9128TIP3    H227349   1.872   6.468   4.977  0.6603  0.4939  0.7238
 9129TIP3   OH227350   2.987   3.238   5.090 -0.0472 -0.9141  0.0755
 9129TIP3    H127351   2.958   3.295   5.161  1.9875 -0.3432  0.5193
 9129TIP3    H227352   2.977   3.291   5.011  2.1579  0.2869  0.5219
 9130TIP3   OH227353   2.370   2.498   1.638  0.0922  0.0195 -0.3395
 9130TIP3    H127354   2.344   2.524   1.727 -1.3606 -1.3276 -0.3093
 9130TIP3    H227355   2.453   2.452   1.650  0.6501  1.1238  0.1169
 9131TIP3   OH227356   6.101   2.832   1.402  0.0265 -0.3898 -0.4357
 9131TIP3    H127357   6.134   2.920   1.417 -0.1342 -0.1160 -1.5754
 9131TIP3    H227358   6.027   2.844   1.342 -0.0132 -1.2913 -0.5820
 9132TIP3   OH227359   1.126   3.129   4.587  0.0553  0.3742 -0.1252
 9132TIP3    H127360   1.046   3.082   4.612  1.0685 -0.2849  2.1575
 9132TIP3    H227361   1.184   3.062   4.551 -0.5891  0.9632 -2.4234
 9133TIP3   OH227362   2.779   4.202   2.849 -0.2763  0.1614  0.0313
 9133TIP3    H127363   2.770   4.190   2.943 -0.5690  0.9636  0.1160
 9133TIP3    H227364   2.872   4.188   2.831  0.5112  3.2747  0.9886
 9134TIP3   OH227365   6.325   3.476   0.959 -0.3551 -0.1322 -0.4621
 9134TIP3    H127366   6.414   3.508   0.949 -0.2967 -0.4032 -0.8130
 9134TIP3    H227367   6.331   3.413   1.031 -0.4622  0.5946  0.2026
 9135TIP3   OH227368   2.219   0.739   5.755  0.5319 -0.0951 -0.0109
 9135TIP3    H127369   2.142   0.779   5.796  1.6232 -0.0038  2.0806
 9135TIP3    H227370   2.273   0.814   5.728  0.4702 -0.1643 -0.3312
 9136TIP3   OH227371   4.028   5.444   5.094 -0.3301  0.1940  0.1923
 9136TIP3    H127372   4.080   5.524   5.102 -0.9712  0.4757  2.1641
 9136TIP3    H227373   4.055   5.391   5.169 -1.1599 -0.6841 -0.1110
 9137TIP3   OH227374   1.532   2.302   2.830 -0.1943 -1.0044  0.0594
 9137TIP3    H127375   1.594   2.237   2.864 -0.5796 -1.8811 -0.8654
 9137TIP3    H227376   1.460   2.302   2.893  1.6808  1.7360  2.4739
 9138TIP3   OH227377   0.334   0.320   0.999  0.6779 -0.0410  0.2148
 9138TIP3    H127378   0.250   0.340   0.959  0.8501 -0.1619 -0.2098
 9138TIP3    H227379   0.375   0.406   1.013  1.4664 -0.0557 -1.7116
 9139TIP3   OH227380   0.388   0.661   1.427 -0.4277  0.2271 -0.4564
 9139TIP3    H127381   0.483   0.668   1.416 -0.1679 -2.1558 -0.2335
 9139TIP3    H227382   0.371   0.567   1.427 -2.4033  0.4556  2.5420
 9140TIP3   OH227383   0.315   3.230   0.601  0.4568 -0.3407 -0.0502
 9140TIP3    H127384   0.355   3.301   0.552  1.8637  0.7081  2.4476
 9140TIP3    H227385   0.376   3.157   0.592 -0.2790 -0.8276 -1.4194
 9141TIP3   OH227386   4.837   0.762   2.402  0.1505 -0.0125 -0.2856
 9141TIP3    H127387   4.888   0.806   2.334  1.3396 -0.6638  0.1633
 9141TIP3    H227388   4.845   0.818   2.479  1.3451 -0.7872  0.1751
 9142TIP3   OH227389   5.020   6.723   0.503 -0.2695 -0.0336  0.2036
 9142TIP3    H127390   5.050   6.781   0.434 -1.3780 -0.2240 -0.4589
 9142TIP3    H227391   5.039   6.635   0.470 -1.0669 -0.1346  0.0094
 9143TIP3   OH227392   4.134   2.183   3.189  0.1745  0.1840  0.2888
 9143TIP3    H127393   4.159   2.110   3.246 -1.6702 -0.9771 -0.2997
 9143TIP3    H227394   4.042   2.198   3.209 -0.3493  0.1703 -1.8725
 9144TIP3   OH227395   3.241   3.467   4.902  0.4385  0.3087 -0.0666
 9144TIP3    H127396   3.312   3.518   4.943 -0.1569  0.4788  0.7670
 9144TIP3    H227397   3.195   3.531   4.848 -0.3033  0.6875  0.9730
 9145TIP3   OH227398   3.204   3.576   1.656  0.0123 -0.4027  0.6538
 9145TIP3    H127399   3.161   3.555   1.573 -1.1702  1.6248  0.6939
 9145TIP3    H227400   3.218   3.670   1.653 -0.0803 -0.2726  2.7662
 9146TIP3   OH227401   1.305   2.099   0.002 -0.4913  0.1260  0.6658
 9146TIP3    H127402   1.312   2.014  -0.042  0.6679  0.6189 -0.1619
 9146TIP3    H227403   1.234   2.088   0.065 -0.8180 -1.2418  0.0903
 9147TIP3   OH227404   0.658   4.426   2.499  0.8896  0.4759  0.3781
 9147TIP3    H127405   0.611   4.379   2.431 -0.8726  2.1522  0.3548
 9147TIP3    H227406   0.748   4.430   2.467  1.2314 -2.9431  0.4862
 9148TIP3   OH227407   5.268   5.357   1.831 -0.3011 -0.3277  0.0460
 9148TIP3    H127408   5.248   5.430   1.772 -1.3662 -1.1040 -0.6061
 9148TIP3    H227409   5.215   5.374   1.909 -0.1298 -0.1259  0.1188
 9149TIP3   OH227410   2.566   0.595   4.945  0.3488 -0.3289  0.1774
 9149TIP3    H127411   2.562   0.690   4.933  2.2577  0.2019  2.7777
 9149TIP3    H227412   2.656   0.572   4.923 -0.0690 -1.5644 -0.3364
 9150TIP3   OH227413   5.127   4.555   4.810 -0.2893  0.1309  0.5651
 9150TIP3    H127414   5.099   4.523   4.724  0.7709 -1.7591  0.8747
 9150TIP3    H227415   5.159   4.477   4.855 -0.1375  1.2209  2.4112
 9151TIP3   OH227416   0.780   6.736   2.526 -0.3169  0.4380 -0.3087
 9151TIP3    H127417   0.870   6.702   2.527 -0.6863 -0.5559  0.4071
 9151TIP3    H227418   0.728   6.663   2.493 -0.9862  0.7079  0.1446
 9152TIP3   OH227419   2.191   4.016   0.911  0.2309 -0.3988 -0.6928
 9152TIP3    H127420   2.147   4.063   0.841 -0.9961  0.8129  0.7992
 9152TIP3    H227421   2.159   3.926   0.904  0.8709 -0.5379 -2.2231
 9153TIP3   OH227422   1.781   3.092   3.404  0.2657 -0.4047 -0.6328
 9153TIP3    H127423   1.870   3.087   3.369  0.3202  2.3865 -1.0452
 9153TIP3    H227424   1.744   3.172   3.367 -1.1961  0.3985  2.2527
 9154TIP3   OH227425   4.398   4.578   5.408 -0.2933  0.5311 -0.0567
 9154TIP3    H127426   4.461   4.645   5.435  0.2752  0.4006 -1.0283
 9154TIP3    H227427   4.329   4.628   5.364  0.4436  0.4405 -1.3534
 9155TIP3   OH227428   6.763   4.489   0.163 -0.4039  0.1071 -0.2298
 9155TIP3    H127429   6.703   4.422   0.129  0.2634 -0.0532 -1.1105
 9155TIP3    H227430   6.793   4.536   0.086  0.4068  0.3626  0.2305
 9156TIP3   OH227431   3.957   0.757   0.114  0.2175  0.0025 -0.2877
 9156TIP3    H127432   3.865   0.772   0.138  0.7980  0.7579  1.7323
 9156TIP3    H227433   3.953   0.699   0.039 -1.9094 -0.3959  0.0573
 9157TIP3   OH227434   2.022   0.462   0.354 -0.3731 -0.0567 -0.1606
 9157TIP3    H127435   1.959   0.391   0.345 -0.0060 -0.6071  1.3525
 9157TIP3    H227436   2.011   0.514   0.274 -2.1544 -0.5913 -0.3024
 9158TIP3   OH227437   6.736   2.790   5.088 -0.7714 -0.1350 -0.3564
 9158TIP3    H127438   6.691   2.725   5.141 -1.1975 -0.2521 -0.8489
 9158TIP3    H227439   6.778   2.849   5.151 -2.3222  0.4802  0.1530
 9159TIP3   OH227440   0.947   3.811   0.015  0.1308  0.2362  0.7337
 9159TIP3    H127441   0.926   3.855  -0.067 -2.8254 -0.0474  1.2431
 9159TIP3    H227442   0.965   3.882   0.077 -0.7149  0.5707  0.5955
 9160TIP3   OH227443   3.571   3.228   0.765  0.1380 -0.9200 -0.3000
 9160TIP3    H127444   3.544   3.282   0.691  0.2407 -1.0378 -0.4234
 9160TIP3    H227445   3.664   3.212   0.751  0.4679  0.1369  0.5307
 9161TIP3   OH227446   1.868   1.923   5.028 -0.4898  0.2734 -0.9177
 9161TIP3    H127447   1.780   1.891   5.009 -0.9392 -0.1211  1.5280
 9161TIP3    H227448   1.861   2.018   5.020 -1.7888  0.4330  1.4686
 9162TIP3   OH227449   1.835   6.418   2.731 -0.5192 -0.1731  0.0418
 9162TIP3    H127450   1.757   6.367   2.751 -0.5210 -0.2960 -0.2845
 9162TIP3    H227451   1.891   6.407   2.808  0.2370 -2.0999 -0.7257
 9163TIP3   OH227452   2.078   5.804   3.896  0.7303 -0.2170 -0.2058
 9163TIP3    H127453   2.172   5.819   3.886  0.4329  1.6627 -0.5855
 9163TIP3    H227454   2.068   5.775   3.987  1.4161  2.7356  0.9397
 9164TIP3   OH227455   4.560   0.659   0.925 -0.4237  0.1494 -0.2811
 9164TIP3    H127456   4.622   0.614   0.867 -0.5218  0.3867 -0.5720
 9164TIP3    H227457   4.504   0.710   0.866 -0.3365  0.6261  0.0419
 9165TIP3   OH227458   5.975   4.683   2.127  0.7862  0.4342 -0.1172
 9165TIP3    H127459   5.983   4.601   2.078 -0.0731 -0.2987  0.9267
 9165TIP3    H227460   6.015   4.664   2.211 -0.4438  0.7060  0.5474
 9166TIP3   OH227461   2.066   3.466   2.991  0.1774  0.3490 -0.0152
 9166TIP3    H127462   2.151   3.436   3.023 -0.7131 -0.2171  2.0237
 9166TIP3    H227463   2.064   3.560   3.012  0.5894  0.5375 -0.7923
 9167TIP3   OH227464   5.337   0.974   5.036  0.1311  0.5118 -0.4146
 9167TIP3    H127465   5.291   0.894   5.065 -1.7155  1.3581 -0.8496
 9167TIP3    H227466   5.347   1.026   5.116  0.3813  0.3035 -0.3092
 9168TIP3   OH227467   3.470   2.494   1.877  0.1082 -0.1431 -0.2236
 9168TIP3    H127468   3.563   2.494   1.897 -0.3462 -0.7231  2.2293
 9168TIP3    H227469   3.431   2.437   1.943 -2.0477  0.4739 -0.8799
 9169TIP3   OH227470   4.860   1.139   5.782  0.0909 -0.0009 -0.4403
 9169TIP3    H127471   4.919   1.148   5.708 -0.0063 -0.6492 -0.6001
 9169TIP3    H227472   4.784   1.091   5.747  0.8022 -1.9077  0.4683
 9170TIP3   OH227473   1.540   5.626   2.255 -0.1610 -0.6310 -0.1906
 9170TIP3    H127474   1.465   5.677   2.284  0.0481 -0.2808 -0.2582
 9170TIP3    H227475   1.518   5.600   2.166 -0.6966 -1.5002  0.1909
 9171TIP3   OH227476   6.597   4.676   5.255 -0.0525  0.0872 -0.5251
 9171TIP3    H127477   6.678   4.632   5.228 -0.4691 -1.4210  0.5265
 9171TIP3    H227478   6.578   4.639   5.342 -0.7242  1.9989  0.1987
 9172TIP3   OH227479   7.130   2.013   2.841  0.8390 -0.4822 -0.1747
 9172TIP3    H127480   7.210   2.008   2.788 -0.1850  0.1808 -1.8736
 9172TIP3    H227481   7.102   2.105   2.833 -0.6458 -0.9340 -0.4894
 9173TIP3   OH227482   2.526   4.124   3.715  0.3330  0.2714  0.5519
 9173TIP3    H127483   2.614   4.088   3.707 -0.6139 -2.1508  0.1036
 9173TIP3    H227484   2.538   4.211   3.753  2.8844 -0.0209  0.5478
 9174TIP3   OH227485   2.023   3.841   2.421 -0.1457  0.3318  0.1059
 9174TIP3    H127486   1.946   3.789   2.396  0.7561 -1.3206  0.6087
 9174TIP3    H227487   2.097   3.785   2.399  1.0317  2.4739 -1.7324
 9175TIP3   OH227488   1.552   5.505   0.260  0.5008  0.0395 -0.2398
 9175TIP3    H127489   1.608   5.490   0.183  0.9647  1.2689 -0.1609
 9175TIP3    H227490   1.570   5.430   0.317 -0.6169 -1.4523 -1.7324
 9176TIP3   OH227491   2.322   0.427   1.398 -0.1329  0.2254 -0.0910
 9176TIP3    H127492   2.308   0.500   1.337  0.9474  0.3642 -0.1915
 9176TIP3    H227493   2.284   0.458   1.481 -1.5763  0.0485 -0.6556
 9177TIP3   OH227494   3.731   3.445   4.722 -0.6352 -0.1497 -0.6435
 9177TIP3    H127495   3.810   3.436   4.668 -0.8129  0.0206 -0.9319
 9177TIP3    H227496   3.700   3.534   4.706 -0.9126 -0.2300 -0.5635
 9178TIP3   OH227497   3.513   5.134   4.191  0.5329 -0.3181  0.2619
 9178TIP3    H127498   3.457   5.080   4.246  0.8177 -0.6105  0.2717
 9178TIP3    H227499   3.510   5.221   4.231  0.6890 -0.5143  0.7093
 9179TIP3   OH227500   4.748   3.415   5.445 -0.4867 -0.3976 -0.1621
 9179TIP3    H127501   4.658   3.385   5.453 -0.7405  0.4811  0.3594
 9179TIP3    H227502   4.754   3.491   5.502  0.2073  0.4223 -1.2782
 9180TIP3   OH227503   0.842   5.731   4.105  0.2625  0.2652  0.4987
 9180TIP3    H127504   0.839   5.716   4.010 -2.2826 -1.2030  0.7239
 9180TIP3    H227505   0.839   5.827   4.113  1.5396  0.4647 -0.8854
 9181TIP3   OH227506   0.075   6.712   4.780 -0.2238 -0.4446 -0.0178
 9181TIP3    H127507   0.136   6.753   4.719 -1.2323 -0.1752 -0.8607
 9181TIP3    H227508   0.113   6.730   4.867  0.0900  1.0517 -0.4342
 9182TIP3   OH227509   5.480   3.401   1.990  0.0071 -0.4471 -0.2450
 9182TIP3    H127510   5.460   3.367   1.903  0.2520 -1.1403 -0.0361
 9182TIP3    H227511   5.538   3.336   2.029  0.1025 -0.0211  0.3444
 9183TIP3   OH227512   0.786   3.640   5.237  0.0011  0.0721 -0.1652
 9183TIP3    H127513   0.718   3.583   5.274 -0.3684  0.1535 -0.7119
 9183TIP3    H227514   0.752   3.728   5.246  0.3963  0.1794  0.3076
 9184TIP3   OH227515   4.727   2.669   2.891  1.0652 -0.0946 -0.4211
 9184TIP3    H127516   4.778   2.701   2.965  0.9423  1.2393 -0.8918
 9184TIP3    H227517   4.667   2.604   2.929  0.5127  1.0727  0.7831
 9185TIP3   OH227518   6.233   2.092   1.817 -0.0304  0.2670 -0.0181
 9185TIP3    H127519   6.163   2.062   1.874 -0.7181  0.3946 -0.7788
 9185TIP3    H227520   6.191   2.108   1.733  0.7120  1.3608 -0.2093
 9186TIP3   OH227521   5.846   3.115   4.398  0.0994  0.1148  0.6450
 9186TIP3    H127522   5.768   3.071   4.433 -0.8437  1.0017 -0.2567
 9186TIP3    H227523   5.920   3.069   4.438 -0.8842 -0.7602  1.5172
 9187TIP3   OH227524   6.890   3.116   1.251 -0.5863  0.1760  0.4706
 9187TIP3    H127525   6.907   3.199   1.295 -2.0329  0.6108  0.2855
 9187TIP3    H227526   6.969   3.064   1.264  0.0862  1.3399  1.1526
 9188TIP3   OH227527   4.633   4.730   1.436  0.3169 -0.2531  1.1471
 9188TIP3    H127528   4.602   4.818   1.458  0.9739 -0.2978  2.3781
 9188TIP3    H227529   4.727   4.741   1.423  0.0307 -0.3141 -1.3787
 9189TIP3   OH227530   3.174   1.694   5.273  0.4236 -0.0614 -0.2982
 9189TIP3    H127531   3.257   1.679   5.227  0.9302  3.8443 -0.9769
 9189TIP3    H227532   3.196   1.680   5.365  0.9511 -2.0693 -0.6720
 9190TIP3   OH227533   0.158   6.496   2.716  0.5529  0.6624 -0.0225
 9190TIP3    H127534   0.202   6.414   2.734 -0.1434  0.4623  0.8381
 9190TIP3    H227535   0.096   6.475   2.645 -1.7966 -0.3801  2.1668
 9191TIP3   OH227536   3.507   2.033   5.849 -0.0758 -0.1256 -0.1614
 9191TIP3    H127537   3.599   2.021   5.872 -0.6235 -1.6485  1.4082
 9191TIP3    H227538   3.460   1.965   5.897 -2.0526  0.6776 -0.8211
 9192TIP3   OH227539   4.668   6.253   0.956  0.2616 -0.2775  0.3053
 9192TIP3    H127540   4.624   6.321   1.008  0.8020  0.2311  0.1075
 9192TIP3    H227541   4.758   6.253   0.989  0.2113 -1.0608  0.4583
 9193TIP3   OH227542   3.290   3.172   1.043  0.3899  0.0969  0.5548
 9193TIP3    H127543   3.242   3.251   1.018  2.5490  0.7159 -2.0821
 9193TIP3    H227544   3.251   3.103   0.989 -0.5101 -0.3987  1.7863
 9194TIP3   OH227545   3.704   6.368   2.909 -0.5228  0.1513 -0.5173
 9194TIP3    H127546   3.659   6.423   2.973  1.1826  1.5381 -0.4392
 9194TIP3    H227547   3.756   6.307   2.961 -0.4556  0.1473 -0.5887
 9195TIP3   OH227548   2.357   1.502   2.450  0.7706 -0.2269  0.6676
 9195TIP3    H127549   2.446   1.474   2.472  1.8840  1.8457 -0.8426
 9195TIP3    H227550   2.357   1.597   2.465 -0.5751  0.1228 -1.1717
 9196TIP3   OH227551   2.088   2.538   1.222  0.0227 -0.0462  0.0399
 9196TIP3    H127552   2.163   2.589   1.253  0.1756 -0.0886 -0.2523
 9196TIP3    H227553   2.014   2.598   1.230  0.4146  0.6992 -1.5490
 9197TIP3   OH227554   6.303   4.927   1.410  0.4450  0.3676 -0.5234
 9197TIP3    H127555   6.361   4.955   1.481  0.5551 -1.4694  0.1476
 9197TIP3    H227556   6.362   4.895   1.342  0.2608 -0.1673 -0.4317
 9198TIP3   OH227557   1.826   6.735   0.015  0.6100 -0.0831  0.0900
 9198TIP3    H127558   1.763   6.752   0.086 -1.1443 -1.9896 -0.9134
 9198TIP3    H227559   1.858   6.647   0.032 -0.2854 -0.8002 -1.7734
 9199TIP3   OH227560   6.933   4.778   0.558  0.7116 -0.0697  0.0425
 9199TIP3    H127561   6.850   4.823   0.544  1.3001  0.5680 -1.7656
 9199TIP3    H227562   6.909   4.698   0.605 -1.1095 -0.4708 -1.4164
 9200TIP3   OH227563  -0.006   6.491   1.875  0.0708 -0.8801 -0.1078
 9200TIP3    H127564  -0.017   6.507   1.782  0.3213 -3.3620 -0.6248
 9200TIP3    H227565   0.088   6.504   1.891  0.1787 -1.2985 -0.3945
 9201TIP3   OH227566   6.888   2.076   5.355  0.7994 -0.4851 -0.1037
 9201TIP3    H127567   6.799   2.047   5.373  0.4882  1.2507  1.3328
 9201TIP3    H227568   6.899   2.061   5.261 -1.1235 -0.4040 -0.3799
 9202TIP3   OH227569   4.129   0.911   2.734 -0.2962  0.1495  0.5450
 9202TIP3    H127570   4.121   0.824   2.695 -2.4728  0.7277 -0.4566
 9202TIP3    H227571   4.163   0.966   2.664  1.4103  0.1006  1.2767
 9203TIP3   OH227572   4.818   1.389   5.451  0.1408  0.1007 -0.6682
 9203TIP3    H127573   4.780   1.346   5.374 -0.3325  0.4081 -0.6053
 9203TIP3    H227574   4.877   1.455   5.415 -0.1201  0.2792 -0.7656
 9204TIP3   OH227575   3.718   6.582   0.514  0.4281 -0.3448 -0.0700
 9204TIP3    H127576   3.702   6.646   0.444 -1.6496  1.0350  1.5436
 9204TIP3    H227577   3.698   6.630   0.595  2.9718 -1.8085  1.5307
 9205TIP3   OH227578   6.743   4.699   4.365  0.1986  0.3877  0.6040
 9205TIP3    H127579   6.667   4.737   4.408 -1.6479 -2.2188 -0.1564
 9205TIP3    H227580   6.798   4.666   4.436 -0.7353 -0.1267  1.1000
 9206TIP3   OH227581   5.169   6.557   0.083  0.2164  0.0723 -0.1895
 9206TIP3    H127582   5.261   6.554   0.055  0.3930 -1.1158  0.4339
 9206TIP3    H227583   5.137   6.641   0.051  1.0092 -0.2614 -2.0132
 9207TIP3   OH227584   6.898   4.566   4.163 -0.1632  0.2610  0.2548
 9207TIP3    H127585   6.857   4.482   4.186 -0.9959  1.0195  1.6925
 9207TIP3    H227586   6.840   4.632   4.202  1.3993  1.4414  0.6657
 9208TIP3   OH227587   6.507   1.518   1.902 -0.0885  0.2597 -0.0862
 9208TIP3    H127588   6.480   1.488   1.815 -0.6078  1.8571 -0.5030
 9208TIP3    H227589   6.426   1.521   1.953  0.0379  0.4642  0.1070
 9209TIP3   OH227590   0.675   0.808   3.945 -0.1435  0.0224 -0.2943
 9209TIP3    H127591   0.677   0.766   4.030 -0.7086  0.4014 -0.0851
 9209TIP3    H227592   0.593   0.778   3.905 -0.8727  1.3951  0.1187
 9210TIP3   OH227593   0.175   3.493   4.296 -0.1424 -0.3223 -0.0645
 9210TIP3    H127594   0.130   3.414   4.267 -2.3400  0.2111  1.6608
 9210TIP3    H227595   0.155   3.500   4.389  2.5279  0.6736  0.5301
 9211TIP3   OH227596   1.350   4.896   3.847 -0.1019 -0.0530  0.3544
 9211TIP3    H127597   1.401   4.836   3.793 -1.0219 -0.6736  0.1423
 9211TIP3    H227598   1.352   4.979   3.799 -1.3170 -0.7164 -0.9330
 9212TIP3   OH227599   6.195   4.481   3.365 -0.2115 -0.2724 -0.5405
 9212TIP3    H127600   6.191   4.399   3.415 -2.5596 -1.1216 -1.9441
 9212TIP3    H227601   6.106   4.516   3.370  0.0737  0.7906 -2.2213
 9213TIP3   OH227602   7.175   6.427   3.657 -0.1581  0.9944  0.2074
 9213TIP3    H127603   7.159   6.521   3.653 -2.1638  0.6803 -0.1562
 9213TIP3    H227604   7.268   6.418   3.637 -0.0641  2.8378 -0.4055
 9214TIP3   OH227605   4.182   2.030   1.891 -0.1162 -0.3497  0.1164
 9214TIP3    H127606   4.117   2.091   1.856 -0.1371  0.4840  1.5518
 9214TIP3    H227607   4.141   1.994   1.970  0.5293 -1.0527  0.1435
 9215TIP3   OH227608   4.529   5.058   5.309  0.3713  0.4871 -0.2159
 9215TIP3    H127609   4.441   5.096   5.313  0.2355  0.2088 -0.5286
 9215TIP3    H227610   4.573   5.105   5.239  0.7094  1.1119  0.4048
 9216TIP3   OH227611   4.750   2.553   4.526 -0.2804 -0.0216  0.6977
 9216TIP3    H127612   4.686   2.483   4.515 -2.2443  1.8369 -0.4054
 9216TIP3    H227613   4.716   2.607   4.596  0.1806  0.8739  0.2555
 9217TIP3   OH227614   2.231   5.479   3.974 -0.1134  0.7113  0.4248
 9217TIP3    H127615   2.264   5.550   4.030  0.2788  1.0325 -0.2076
 9217TIP3    H227616   2.167   5.433   4.029 -1.0574  2.1095  0.5577
 9218TIP3   OH227617   3.063   0.951   0.226 -0.3303 -0.0710 -0.0914
 9218TIP3    H127618   3.097   0.997   0.149  0.9395 -0.2715  0.3299
 9218TIP3    H227619   3.081   1.010   0.299 -0.6402 -0.3102  0.1820
 9219TIP3   OH227620   6.275   0.401   1.553  0.3752 -0.3536 -0.1376
 9219TIP3    H127621   6.310   0.399   1.463  0.5653  1.7219 -0.1673
 9219TIP3    H227622   6.351   0.424   1.607 -0.2291  1.0175  0.1900
 9220TIP3   OH227623   4.873   2.521   4.801 -0.3407 -0.0587  0.0733
 9220TIP3    H127624   4.910   2.520   4.713 -0.5671  2.2218 -0.1251
 9220TIP3    H227625   4.831   2.607   4.808 -0.3707 -0.2033  2.3904
 9221TIP3   OH227626   4.705   1.349   0.030  0.9331 -0.0699 -0.6974
 9221TIP3    H127627   4.646   1.410   0.073  0.9299  1.1282 -2.3410
 9221TIP3    H227628   4.717   1.278   0.094  1.1558  1.7404  1.3710
 9222TIP3   OH227629   4.271   1.996   1.572 -0.0312  0.0530  0.5306
 9222TIP3    H127630   4.272   2.090   1.553 -1.6750 -0.4276 -2.5703
 9222TIP3    H227631   4.194   1.984   1.629 -0.7797  0.4216 -0.3775
 9223TIP3   OH227632   5.988   5.177   3.809 -0.7504  0.0101  0.4597
 9223TIP3    H127633   5.984   5.153   3.902  0.7912  2.1614  1.1653
 9223TIP3    H227634   6.075   5.214   3.797 -1.7130  1.9492 -1.2557
 9224TIP3   OH227635   7.096   3.523   2.006  0.3181 -0.3081 -0.5331
 9224TIP3    H127636   7.114   3.617   1.997  0.4705 -0.3424 -0.5905
 9224TIP3    H227637   7.041   3.502   1.930  1.4340 -0.5538 -1.2949
 9225TIP3   OH227638   0.155   0.465   4.598  0.0742  0.8961 -0.3746
 9225TIP3    H127639   0.162   0.560   4.598  0.9342  0.8484 -1.1804
 9225TIP3    H227640   0.230   0.435   4.651  0.3019  0.6534 -0.8242
 9226TIP3   OH227641   0.266   0.170   3.860  0.6960  0.4600 -0.9769
 9226TIP3    H127642   0.348   0.140   3.820  0.5908 -1.2270 -0.0272
 9226TIP3    H227643   0.221   0.089   3.885  0.0615  1.4029  1.1674
 9227TIP3   OH227644   2.358   2.125   0.589  0.4784  0.4034  0.3486
 9227TIP3    H127645   2.347   2.219   0.606 -3.3821  0.0501  0.6064
 9227TIP3    H227646   2.335   2.083   0.672  1.8930 -0.8548  0.1518
 9228TIP3   OH227647   1.215   4.810   1.857 -0.3281 -0.3914  0.5453
 9228TIP3    H127648   1.302   4.810   1.817 -1.1758  0.0294 -1.4447
 9228TIP3    H227649   1.190   4.718   1.861 -0.0527 -0.4694  0.4857
 9229TIP3   OH227650   1.535   6.364   4.710 -0.1147 -0.2579  0.5816
 9229TIP3    H127651   1.569   6.450   4.687  0.5111 -0.6109  0.1496
 9229TIP3    H227652   1.577   6.304   4.648 -1.7494 -0.6868 -0.1767
 9230TIP3   OH227653   0.964   3.861   1.374  0.0770  0.1819 -0.3369
 9230TIP3    H127654   0.922   3.916   1.308 -0.3675 -0.0797 -0.2680
 9230TIP3    H227655   0.982   3.921   1.447  1.9635  0.8357 -1.2752
 9231TIP3   OH227656   6.121   1.971   1.149 -0.3659 -0.4532 -0.5537
 9231TIP3    H127657   6.112   2.062   1.121 -0.0039 -0.6049 -1.1979
 9231TIP3    H227658   6.202   1.941   1.106  0.2319 -0.6970  0.6943
 9232TIP3   OH227659   5.083   4.299   5.852 -0.5142 -0.1194 -0.6875
 9232TIP3    H127660   5.017   4.300   5.782 -0.8017  0.4962 -0.4162
 9232TIP3    H227661   5.161   4.339   5.812 -0.0658 -1.4786 -1.2207
 9233TIP3   OH227662   1.256   1.611   2.065  0.4851  0.3005  0.1334
 9233TIP3    H127663   1.224   1.603   2.155  0.4572 -1.1312  0.0207
 9233TIP3    H227664   1.209   1.687   2.029 -0.5743  0.0203  0.8834
 9234TIP3   OH227665   6.675   1.022   2.092 -0.2310  0.2449 -0.2322
 9234TIP3    H127666   6.644   1.090   2.153  1.1640 -1.7255  2.9121
 9234TIP3    H227667   6.763   1.001   2.123 -0.3740 -2.5393 -1.4883
 9235TIP3   OH227668   0.089   4.385   3.923  0.4711  0.1341 -0.0425
 9235TIP3    H127669   0.141   4.444   3.977  0.5339  0.4720 -0.4671
 9235TIP3    H227670  -0.002   4.407   3.943  0.4152  2.3103 -2.1842
 9236TIP3   OH227671   6.898   0.407   4.667  0.5679 -0.1733  0.1143
 9236TIP3    H127672   6.866   0.461   4.739 -1.7574 -2.1655  0.7073
 9236TIP3    H227673   6.893   0.463   4.590  0.5476  1.1573  1.0420
 9237TIP3   OH227674   5.971   6.670   5.810  0.5989  0.3671 -0.4562
 9237TIP3    H127675   6.021   6.594   5.779 -2.2701 -0.2689 -4.2995
 9237TIP3    H227676   5.912   6.634   5.876  2.4911  0.3889  1.3511
 9238TIP3   OH227677   2.727   4.674   4.704 -0.0457 -0.4117 -0.0686
 9238TIP3    H127678   2.814   4.667   4.663  0.8858 -1.0823  1.9063
 9238TIP3    H227679   2.666   4.673   4.630  1.5249 -1.8574 -1.4364
 9239TIP3   OH227680   0.024   4.536   3.002  0.3186  0.0778  0.1253
 9239TIP3    H127681  -0.065   4.519   3.032  0.0317 -0.7934 -1.1240
 9239TIP3    H227682   0.068   4.575   3.077 -0.8181 -0.4461  1.0965
 9240TIP3   OH227683   2.883   3.441   5.281 -0.3125  0.0328  0.0516
 9240TIP3    H127684   2.861   3.535   5.283 -3.1636 -0.4487 -2.1187
 9240TIP3    H227685   2.879   3.414   5.373 -0.7606  1.7675  0.5924
 9241TIP3   OH227686   0.748   5.116   1.353  0.0056  0.0855 -0.3006
 9241TIP3    H127687   0.686   5.188   1.340  2.2856  1.9149 -2.2404
 9241TIP3    H227688   0.695   5.044   1.385 -3.0793  1.5398 -1.6534
 9242TIP3   OH227689   0.455   0.071   3.349 -0.0887 -0.2530 -0.4592
 9242TIP3    H127690   0.483   0.136   3.413 -1.0687 -0.6364  0.3851
 9242TIP3    H227691   0.511   0.087   3.273  2.1580 -0.7348  0.9926
 9243TIP3   OH227692   1.700   1.278   3.411 -0.5299  0.5459 -0.4015
 9243TIP3    H127693   1.730   1.215   3.477  1.8765  0.9784 -1.0042
 9243TIP3    H227694   1.720   1.237   3.327 -1.8197  0.8089 -0.8519
 9244TIP3   OH227695   3.889   5.025   2.231  0.1924  0.4232 -0.3780
 9244TIP3    H127696   3.834   5.054   2.158 -0.5726  0.5571  0.2400
 9244TIP3    H227697   3.918   5.106   2.272  0.0979  0.3422 -0.1511
 9245TIP3   OH227698   6.775   6.184   2.828  0.0553  0.1639 -0.1107
 9245TIP3    H127699   6.682   6.195   2.809 -0.3909  0.5807  2.0517
 9245TIP3    H227700   6.812   6.272   2.818  0.5510 -0.2493 -2.3563
 9246TIP3   OH227701   5.398   6.614   5.566 -0.5804 -0.0588  0.2155
 9246TIP3    H127702   5.333   6.650   5.505  0.0035  0.0256 -0.3658
 9246TIP3    H227703   5.457   6.562   5.511 -0.8781 -1.1783  0.9101
 9247TIP3   OH227704   4.495   5.802   3.365  0.7265 -0.0289 -0.7269
 9247TIP3    H127705   4.521   5.722   3.410 -0.0376 -0.1082 -0.4021
 9247TIP3    H227706   4.517   5.872   3.427  0.0479 -0.1074 -0.3874
 9248TIP3   OH227707   2.249   6.116   2.149  0.1973 -0.1595 -0.2782
 9248TIP3    H127708   2.290   6.201   2.131  0.2231 -0.2638 -0.7359
 9248TIP3    H227709   2.225   6.120   2.241  0.3354  0.2884 -0.2574
 9249TIP3   OH227710   3.377   0.943   0.025 -0.5676 -0.1284  0.4221
 9249TIP3    H127711   3.340   0.856   0.012 -0.8670  0.0240  0.2447
 9249TIP3    H227712   3.316   0.988   0.084  0.9211 -0.9063  2.7121
 9250TIP3   OH227713   4.776   1.355   4.567 -0.4636  0.4440 -0.5837
 9250TIP3    H127714   4.817   1.272   4.588  0.5268  1.4069  1.5335
 9250TIP3    H227715   4.846   1.408   4.530 -0.7676  0.7767 -0.6885
 9251TIP3   OH227716   1.339   2.010   0.884  0.4449  0.0484  0.6741
 9251TIP3    H127717   1.398   1.957   0.937  3.8871  2.3285 -0.4966
 9251TIP3    H227718   1.346   1.974   0.796  2.8707  2.2163 -0.1487
 9252TIP3   OH227719   5.904   2.718   0.282 -0.1445  0.7349 -0.5354
 9252TIP3    H127720   5.954   2.773   0.222 -0.3249  1.3511 -0.1278
 9252TIP3    H227721   5.820   2.763   0.293 -0.3389  0.3248 -0.2795
 9253TIP3   OH227722   0.543   4.389   2.757 -0.0731 -0.3465 -0.1719
 9253TIP3    H127723   0.567   4.448   2.686  0.8454 -1.5979 -0.9368
 9253TIP3    H227724   0.447   4.386   2.754 -0.1520  1.1843 -0.0083
 9254TIP3   OH227725   6.511   3.477   0.215 -0.8875  0.2154  0.0194
 9254TIP3    H127726   6.581   3.412   0.207 -0.6239  0.2410  1.7318
 9254TIP3    H227727   6.505   3.517   0.128  0.3381 -0.6875 -0.5085
 9255TIP3   OH227728   4.523   5.546   5.835 -0.5509  0.0471  0.2664
 9255TIP3    H127729   4.574   5.566   5.757  0.6863 -0.9901  0.7771
 9255TIP3    H227730   4.459   5.617   5.841 -2.6939 -1.3092 -3.3454
 9256TIP3   OH227731   1.164   3.432   5.122  0.0941  0.7103 -0.2338
 9256TIP3    H127732   1.163   3.355   5.178 -0.0710  0.0411 -1.1358
 9256TIP3    H227733   1.163   3.506   5.182 -0.2707  0.0111  0.6333
 9257TIP3   OH227734   5.117   3.069   4.471  0.3034 -0.7552  0.7333
 9257TIP3    H127735   5.021   3.075   4.474  0.3589  0.2961  0.7446
 9257TIP3    H227736   5.134   2.979   4.442 -0.6663 -1.3440  1.8690
 9258TIP3   OH227737   4.811   5.991   4.942 -0.1646 -0.1887 -0.1017
 9258TIP3    H127738   4.802   6.010   4.849  4.3181  0.2118 -0.6930
 9258TIP3    H227739   4.834   5.899   4.946 -0.3400 -0.2089  0.6373
 9259TIP3   OH227740   2.183   6.133   1.484  0.1494 -0.3326 -0.1397
 9259TIP3    H127741   2.103   6.117   1.534  0.1889 -1.2413 -0.3647
 9259TIP3    H227742   2.172   6.222   1.450  0.2786  0.4479  1.7596
 9260TIP3   OH227743   3.828   1.844   0.223 -0.5843 -0.4652  0.2195
 9260TIP3    H127744   3.879   1.925   0.222 -1.6105  0.2102  0.6214
 9260TIP3    H227745   3.857   1.798   0.301 -0.5861 -0.0856  0.4465
 9261TIP3   OH227746   0.935   6.531   0.242  0.1177  0.6372 -0.6663
 9261TIP3    H127747   0.860   6.591   0.242  0.2627  0.8209 -0.4000
 9261TIP3    H227748   1.011   6.588   0.232  0.2611  0.5062 -0.3386
 9262TIP3   OH227749   2.237   6.668   5.369  0.2011 -0.3251  0.1483
 9262TIP3    H127750   2.317   6.618   5.382 -0.4470 -0.8554  2.5366
 9262TIP3    H227751   2.167   6.603   5.373 -0.4184  0.1660 -1.6250
 9263TIP3   OH227752   3.673   3.927   0.908 -0.1196 -0.0177 -0.5338
 9263TIP3    H127753   3.655   3.851   0.852  0.9455 -0.7476  0.0674
 9263TIP3    H227754   3.677   4.001   0.848 -1.5148 -0.3806 -1.0908
 9264TIP3   OH227755   1.728   5.937   1.940 -0.9464 -0.0163 -0.5242
 9264TIP3    H127756   1.743   5.936   1.845  1.4311  0.6504 -0.2139
 9264TIP3    H227757   1.776   5.861   1.972  0.0714  0.9537  0.3343
 9265TIP3   OH227758   6.299   1.407   5.414 -0.3576  0.0911  0.2848
 9265TIP3    H127759   6.385   1.445   5.427 -0.2446 -0.6113  1.8483
 9265TIP3    H227760   6.313   1.312   5.418 -0.8480 -0.1264 -1.9990
 9266TIP3   OH227761   5.779   4.818   0.062 -0.3918 -0.1396  0.2491
 9266TIP3    H127762   5.691   4.779   0.066  0.9227 -3.4421  0.8020
 9266TIP3    H227763   5.836   4.744   0.040  2.4973  1.4081  1.9355
 9267TIP3   OH227764   6.223   6.236   2.076 -0.1977  0.0135  0.3488
 9267TIP3    H127765   6.271   6.297   2.020  0.7877 -0.7741  0.2955
 9267TIP3    H227766   6.280   6.223   2.152  0.9134 -2.8052 -0.8113
 9268TIP3   OH227767   3.417   3.046   1.698 -0.2047 -0.2637  0.1938
 9268TIP3    H127768   3.478   3.119   1.694  0.4002 -0.6796  1.2382
 9268TIP3    H227769   3.342   3.080   1.747 -0.2472 -0.1253  0.0326
 9269TIP3   OH227770   0.502   0.634   2.065  0.1508 -0.0267 -0.1566
 9269TIP3    H127771   0.526   0.724   2.090  0.1037 -0.4205  1.4189
 9269TIP3    H227772   0.517   0.631   1.970  0.5529  1.5159 -0.1763
 9270TIP3   OH227773   6.246   4.854   4.751 -0.5680  0.2765 -0.2537
 9270TIP3    H127774   6.297   4.916   4.699 -1.2708  1.2045  0.1548
 9270TIP3    H227775   6.228   4.782   4.690  0.2117  0.4792 -0.7445
 9271TIP3   OH227776   4.978   1.657   2.913  0.6874 -0.2313 -0.5685
 9271TIP3    H127777   4.927   1.705   2.848  0.8743  0.9033  0.0915
 9271TIP3    H227778   5.037   1.723   2.950  0.9262 -0.9667  0.3863
 9272TIP3   OH227779   2.790   6.044   4.990 -0.4664  0.5862 -0.0730
 9272TIP3    H127780   2.855   5.990   5.034  0.1024  0.7526 -0.6838
 9272TIP3    H227781   2.705   6.009   5.017 -0.1369 -1.6348 -1.6508
 9273TIP3   OH227782   6.394   5.860   1.700 -0.2209  0.7091 -0.2539
 9273TIP3    H127783   6.457   5.851   1.771 -0.4960  0.6992 -0.0065
 9273TIP3    H227784   6.412   5.787   1.641 -1.5035 -0.6905  0.9986
 9274TIP3   OH227785   2.003   4.675   2.001  0.0964 -0.4343 -0.5962
 9274TIP3    H127786   2.001   4.747   1.938 -0.6605 -0.8295 -1.0404
 9274TIP3    H227787   2.004   4.719   2.087 -0.9392  0.1210 -0.8458
 9275TIP3   OH227788   0.777   3.159   3.683  0.3400  0.0091 -0.5909
 9275TIP3    H127789   0.756   3.163   3.589  0.6435 -1.3826 -0.7351
 9275TIP3    H227790   0.692   3.168   3.726  0.1286  0.0924 -1.0112
 9276TIP3   OH227791   2.687   6.768   3.858 -0.2426  0.7959 -0.1844
 9276TIP3    H127792   2.722   6.754   3.770 -0.2856 -1.1201  0.0473
 9276TIP3    H227793   2.593   6.758   3.848 -0.1572 -0.8023  0.2475
 9277TIP3   OH227794   5.502   0.215   4.400  0.7834 -0.1666  0.3002
 9277TIP3    H127795   5.412   0.199   4.370  1.0707 -0.7808 -0.2629
 9277TIP3    H227796   5.496   0.294   4.454 -0.2719 -0.7565  1.0876
 9278TIP3   OH227797   2.614   2.242   5.381 -0.2356 -0.5968 -0.4720
 9278TIP3    H127798   2.523   2.212   5.375 -0.3740  0.1014 -4.1874
 9278TIP3    H227799   2.664   2.162   5.398 -1.4190 -1.1330  0.6737
 9279TIP3   OH227800   3.019   3.038   0.648  0.1562 -0.1014  0.2167
 9279TIP3    H127801   2.987   3.128   0.647 -1.0276 -0.5003 -0.2656
 9279TIP3    H227802   2.968   2.994   0.580  0.3605 -1.2513  0.7816
 9280TIP3   OH227803   0.008   0.277   5.044  0.2601 -0.3360  0.4084
 9280TIP3    H127804  -0.019   0.241   5.129  1.9629  0.2549  1.2386
 9280TIP3    H227805   0.037   0.201   4.994 -2.2360 -0.9167 -0.3104
 9281TIP3   OH227806   5.788   3.924   1.034 -0.1374 -0.0131  0.4377
 9281TIP3    H127807   5.731   4.001   1.035  1.0325  0.9020 -0.4332
 9281TIP3    H227808   5.845   3.937   0.958  0.1393 -1.7158  0.3083
 9282TIP3   OH227809   3.607   4.208   4.913 -0.4977 -0.6278  0.1701
 9282TIP3    H127810   3.562   4.164   4.986 -0.6289  0.0468  0.5015
 9282TIP3    H227811   3.662   4.274   4.955 -0.1374 -0.6173 -0.3128
 9283TIP3   OH227812   4.574   3.810   3.989  0.2791  0.2211 -0.6315
 9283TIP3    H127813   4.485   3.845   4.000 -0.8875 -2.3860 -1.1133
 9283TIP3    H227814   4.592   3.818   3.896  0.3763  0.3582 -0.6011
 9284TIP3   OH227815   5.600   1.102   5.164 -0.1615  0.7038  0.0844
 9284TIP3    H127816   5.510   1.077   5.188 -0.5242  1.7871 -0.0781
 9284TIP3    H227817   5.610   1.070   5.074  0.8400 -2.4393  1.1737
 9285TIP3   OH227818   2.147   6.132   2.420  0.2769 -0.1741 -0.0470
 9285TIP3    H127819   2.066   6.085   2.401  0.0819  0.0616  0.1967
 9285TIP3    H227820   2.118   6.216   2.456  0.6316 -0.6813  1.5046
 9286TIP3   OH227821   3.211   3.330   3.940 -0.8102 -0.0916 -0.3753
 9286TIP3    H127822   3.134   3.283   3.907  0.1663 -1.5379 -0.6906
 9286TIP3    H227823   3.280   3.313   3.875 -0.1379  0.9732  0.0239
 9287TIP3   OH227824   4.383   4.416   2.926 -0.2507 -0.3916  0.3982
 9287TIP3    H127825   4.450   4.469   2.883 -1.4637  0.1421 -0.9202
 9287TIP3    H227826   4.412   4.410   3.017  1.0603  0.6652  0.0881
 9288TIP3   OH227827   1.992   0.048   0.852  0.0708 -0.5259  0.1091
 9288TIP3    H127828   1.985   0.088   0.765 -1.6211 -1.5182 -0.2463
 9288TIP3    H227829   2.002   0.122   0.912  1.6654  0.1568 -0.9360
 9289TIP3   OH227830   7.181   0.131   1.018  0.2465 -0.5741  0.1762
 9289TIP3    H127831   7.184   0.225   1.034  1.2483 -0.6423  0.4445
 9289TIP3    H227832   7.176   0.123   0.923 -2.4456 -0.2321  0.1910
 9290TIP3   OH227833   2.875   2.084   5.156 -0.7579 -0.0963 -0.0517
 9290TIP3    H127834   2.944   2.043   5.209 -2.0352 -0.3797  1.4658
 9290TIP3    H227835   2.878   2.037   5.073  0.4780 -0.5036  0.2069
 9291TIP3   OH227836   4.833   3.686   4.271 -0.4579  0.0948 -0.0838
 9291TIP3    H127837   4.922   3.714   4.249 -0.6505  0.3176 -0.6112
 9291TIP3    H227838   4.790   3.678   4.186 -0.5155 -1.4438  0.0710
 9292TIP3   OH227839   4.424   5.386   4.375  0.3663 -0.7753  0.3750
 9292TIP3    H127840   4.333   5.369   4.397  0.8206 -1.8614  1.5979
 9292TIP3    H227841   4.421   5.431   4.290 -1.2635 -1.4145  0.0573
 9293TIP3   OH227842   2.916   2.446   3.562 -0.0931 -0.0163 -0.0752
 9293TIP3    H127843   3.010   2.465   3.559 -0.0253 -0.5117 -1.9414
 9293TIP3    H227844   2.908   2.380   3.632  1.0615 -0.5317 -0.3946
 9294TIP3   OH227845   2.936   3.129   2.096  0.2585 -0.8748  0.3401
 9294TIP3    H127846   2.915   3.038   2.117 -1.6184 -0.7089 -0.6582
 9294TIP3    H227847   2.937   3.133   2.001  0.0160  0.2032  0.3629
 9295TIP3   OH227848   1.572   3.524   2.130  0.4837  0.5623  0.7158
 9295TIP3    H127849   1.484   3.488   2.113  0.8347  0.9985 -2.6335
 9295TIP3    H227850   1.618   3.453   2.174 -0.0866 -1.7240 -2.0500
 9296TIP3   OH227851   3.659   6.681   0.252 -0.1449 -0.0630  0.4908
 9296TIP3    H127852   3.745   6.716   0.231 -0.1242  0.0705  0.7974
 9296TIP3    H227853   3.624   6.650   0.168  0.5174 -0.8219  0.4922
 9297TIP3   OH227854   1.823   1.276   5.381 -0.1008 -0.6769  0.1387
 9297TIP3    H127855   1.791   1.366   5.379  2.4516  0.3272 -1.3070
 9297TIP3    H227856   1.806   1.246   5.470 -0.8747  1.2893  0.7010
 9298TIP3   OH227857   2.204   2.632   3.557 -0.1995  0.3212  0.0866
 9298TIP3    H127858   2.198   2.602   3.648 -1.3879 -0.2427 -0.1546
 9298TIP3    H227859   2.284   2.590   3.524 -0.1785 -0.1044  0.6488
 9299TIP3   OH227860   1.438   4.016   4.021 -0.8403  0.2576  0.7302
 9299TIP3    H127861   1.438   3.939   4.078 -0.9011  0.8558  1.5415
 9299TIP3    H227862   1.345   4.035   4.007 -0.8292 -0.0715  0.1671
 9300TIP3   OH227863   6.981   3.875   2.945  0.0300  0.3583 -0.1076
 9300TIP3    H127864   7.048   3.933   2.983  1.1302 -2.6618  3.0777
 9300TIP3    H227865   6.899   3.909   2.980  0.6155  0.3091  1.4179
 9301TIP3   OH227866   2.886   4.436   3.280  0.4408  0.2221  0.3038
 9301TIP3    H127867   2.796   4.468   3.284  0.4757  0.5084 -0.9342
 9301TIP3    H227868   2.921   4.473   3.199  1.4976 -0.3477  0.4849
 9302TIP3   OH227869   4.125   0.162   2.760 -0.0452  0.0302  0.3448
 9302TIP3    H127870   4.151   0.101   2.829  0.3940  1.0630  1.1305
 9302TIP3    H227871   4.030   0.165   2.766 -0.3193 -2.5455 -1.4682
 9303TIP3   OH227872   0.500   3.924   1.951 -0.0659 -0.2142 -0.3243
 9303TIP3    H127873   0.488   3.947   1.859 -1.0777  0.4721 -0.0457
 9303TIP3    H227874   0.548   3.842   1.950 -0.3984 -0.4051 -1.4772
 9304TIP3   OH227875   4.919   2.136   1.932 -0.1642 -0.0190  0.1917
 9304TIP3    H127876   4.888   2.081   2.003 -0.3629  0.9382  0.8575
 9304TIP3    H227877   4.968   2.206   1.975 -0.4243  0.6611 -0.5904
 9305TIP3   OH227878   2.534   6.631   1.628 -0.0452 -0.3132  0.3281
 9305TIP3    H127879   2.472   6.691   1.668 -0.5104  1.7108 -3.0332
 9305TIP3    H227880   2.614   6.681   1.618  1.1555 -1.8539  1.6361
 9306TIP3   OH227881   6.055   1.939   0.156 -0.0445 -0.0614  0.3866
 9306TIP3    H127882   6.031   1.958   0.247 -0.0798  0.0318  0.3583
 9306TIP3    H227883   6.012   1.855   0.137 -1.0629  0.5094  0.0688
 9307TIP3   OH227884   2.806   3.715   2.434  0.1869  0.7181  0.3421
 9307TIP3    H127885   2.847   3.765   2.504 -0.8788  1.2585  0.5945
 9307TIP3    H227886   2.880   3.674   2.388  0.9505  1.0254  1.2553
 9308TIP3   OH227887   6.867   1.791   1.040 -0.1015  0.0808  0.5293
 9308TIP3    H127888   6.909   1.730   1.101 -0.7252 -2.1070 -1.0906
 9308TIP3    H227889   6.924   1.790   0.963 -0.3278  1.3276  0.3211
 9309TIP3   OH227890   6.678   4.621   1.797 -0.4565 -0.3932 -0.1554
 9309TIP3    H127891   6.680   4.668   1.880 -1.4454  1.8312 -1.2986
 9309TIP3    H227892   6.593   4.576   1.797 -0.7986  0.2381 -0.2592
 9310TIP3   OH227893   1.196   3.768   5.070 -0.2762  0.0406  0.3530
 9310TIP3    H127894   1.142   3.735   5.141 -1.4067  1.5756  0.2508
 9310TIP3    H227895   1.163   3.724   4.991 -0.0976 -0.4349  0.5393
 9311TIP3   OH227896   5.271   0.980   0.203  0.1475 -0.3824  0.0246
 9311TIP3    H127897   5.192   1.025   0.173  1.0924  2.3943  1.3511
 9311TIP3    H227898   5.289   0.915   0.135 -1.4080  1.1678 -1.9975
 9312TIP3   OH227899   3.790   0.794   2.629 -0.0448  0.7492  0.0835
 9312TIP3    H127900   3.796   0.842   2.547 -2.1197  1.5889  0.3769
 9312TIP3    H227901   3.697   0.778   2.641  0.2227  0.5652  2.2456
 9313TIP3   OH227902   3.275   0.791   0.804  0.2098 -0.4119 -0.6551
 9313TIP3    H127903   3.282   0.832   0.717 -1.4555  0.1726 -0.5360
 9313TIP3    H227904   3.265   0.864   0.864 -2.6258 -0.9085 -0.4163
 9314TIP3   OH227905   6.005   5.593   2.623  0.0601 -0.2809  0.1254
 9314TIP3    H127906   6.080   5.601   2.564 -0.3545 -0.7574 -0.4779
 9314TIP3    H227907   6.003   5.676   2.670  1.6819 -0.6965  1.0269
 9315TIP3   OH227908   5.875   4.100   0.780  0.1952  0.6056  0.6507
 9315TIP3    H127909   5.892   4.194   0.779  1.5091  0.3804  0.5084
 9315TIP3    H227910   5.782   4.092   0.757 -0.1170  1.8993  1.3849
 9316TIP3   OH227911   3.179   3.932   2.901 -0.6010 -0.1374  0.6727
 9316TIP3    H127912   3.213   3.875   2.832 -2.4936 -1.0043  0.4014
 9316TIP3    H227913   3.175   4.019   2.860 -0.3006 -0.3496  0.1792
 9317TIP3   OH227914   7.075   3.456   3.918  0.1266 -0.3127  0.3874
 9317TIP3    H127915   7.067   3.447   4.013  0.6551  0.2590  0.4889
 9317TIP3    H227916   6.986   3.439   3.885 -0.0834 -0.4021  0.9919
 9318TIP3   OH227917   1.112   5.558   3.965 -0.3149  0.9647  0.2541
 9318TIP3    H127918   1.085   5.635   3.915 -1.4660  0.2743 -0.2109
 9318TIP3    H227919   1.079   5.484   3.914  0.5551  0.1634  0.8283
 9319TIP3   OH227920   7.122   3.495   1.177  0.1279 -0.7267  0.1630
 9319TIP3    H127921   7.147   3.584   1.201 -0.7624 -0.7787  1.4165
 9319TIP3    H227922   7.109   3.498   1.083 -1.5837  0.9387  0.3880
 9320TIP3   OH227923   3.431   1.507   0.776  0.0957  0.1255  0.4535
 9320TIP3    H127924   3.462   1.482   0.689 -1.5013 -1.2122  0.2269
 9320TIP3    H227925   3.341   1.537   0.762  0.1304  0.8191  1.5265
 9321TIP3   OH227926   5.536   2.084   5.110 -0.0680  0.2483  0.0057
 9321TIP3    H127927   5.507   2.161   5.159  0.3102  0.2220  0.2784
 9321TIP3    H227928   5.619   2.111   5.071  0.0093  0.0158  0.0087
 9322TIP3   OH227929   1.545   6.382   5.784 -0.0539 -0.5221  0.0592
 9322TIP3    H127930   1.522   6.289   5.778  0.2521 -0.5315 -1.5201
 9322TIP3    H227931   1.633   6.386   5.745  0.4075  0.2764  1.1478
 9323TIP3   OH227932   0.574   6.688   2.763 -0.2125 -0.6587  0.1372
 9323TIP3    H127933   0.655   6.681   2.712  0.6465 -0.5322  1.4409
 9323TIP3    H227934   0.508   6.713   2.699  1.0750  0.7226 -0.7096
 9324TIP3   OH227935   6.051   6.513   3.112 -0.1750  0.0561  0.2212
 9324TIP3    H127936   6.007   6.436   3.147  1.5536 -1.0938  0.0099
 9324TIP3    H227937   5.980   6.572   3.086 -1.5290 -0.9863  1.4016
 9325TIP3   OH227938   2.865   3.691   1.663 -0.2258  0.3002  0.4267
 9325TIP3    H127939   2.926   3.743   1.715 -1.2689  1.3318  0.6578
 9325TIP3    H227940   2.783   3.739   1.668 -1.2807 -1.4644  0.7710
 9326TIP3   OH227941   4.873   4.520   0.862 -0.4259 -0.1082  0.2837
 9326TIP3    H127942   4.859   4.453   0.795 -0.4138 -1.9462  2.0264
 9326TIP3    H227943   4.787   4.558   0.877 -0.6341 -0.4547 -0.0182
 9327TIP3   OH227944   4.908   5.192   3.114 -0.0203 -0.3145 -0.2142
 9327TIP3    H127945   4.948   5.274   3.142 -1.4127  0.1434  0.5416
 9327TIP3    H227946   4.972   5.153   3.054  1.3546  0.5528  0.6358
 9328TIP3   OH227947   1.379   1.412   1.919 -0.2956  0.0305 -0.3625
 9328TIP3    H127948   1.355   1.490   1.970  0.7031 -0.5837  1.1340
 9328TIP3    H227949   1.352   1.432   1.830 -2.9131  0.8103  0.5379
 9329TIP3   OH227950   3.266   4.396   1.408  0.1214  0.1719 -0.7303
 9329TIP3    H127951   3.201   4.405   1.338 -0.0305 -0.2967 -0.6491
 9329TIP3    H227952   3.266   4.482   1.450 -1.1519 -0.1001 -0.1179
 9330TIP3   OH227953   5.487   3.136   2.101 -0.4942 -0.0577  0.0663
 9330TIP3    H127954   5.488   3.080   2.023  0.8341 -0.1480  0.1221
 9330TIP3    H227955   5.395   3.145   2.123 -1.0173  0.8244 -2.1315
 9331TIP3   OH227956   4.419   3.133   5.339 -0.2112 -0.6820  0.3108
 9331TIP3    H127957   4.488   3.168   5.396  0.8734 -1.8042 -0.2509
 9331TIP3    H227958   4.456   3.139   5.251 -1.5161  0.2196 -0.1937
 9332TIP3   OH227959   0.510   2.200   4.835  0.5254 -0.4484 -0.0656
 9332TIP3    H127960   0.484   2.217   4.744  0.4469  0.9176  0.1957
 9332TIP3    H227961   0.570   2.271   4.857 -0.1354 -0.2624  1.2223
 9333TIP3   OH227962   4.890   3.532   0.192  0.8074 -0.2635  0.3696
 9333TIP3    H127963   4.858   3.444   0.174 -0.1392  0.0709  0.3791
 9333TIP3    H227964   4.940   3.523   0.273  0.8425 -0.8212  0.2873
 9334TIP3   OH227965   5.930   3.203   2.240 -0.3967 -0.0842 -0.1570
 9334TIP3    H127966   5.975   3.180   2.321 -1.3655 -0.7465  0.2032
 9334TIP3    H227967   5.976   3.282   2.209 -0.2123  0.3585  1.1886
 9335TIP3   OH227968   0.199   1.240   5.548  0.3671 -0.1373  0.5918
 9335TIP3    H127969   0.137   1.273   5.484  0.2874 -1.9785 -0.3423
 9335TIP3    H227970   0.202   1.145   5.533  0.7621 -0.5727  2.9478
 9336TIP3   OH227971   2.097   3.593   1.436 -0.5481 -0.4000  0.0537
 9336TIP3    H127972   2.056   3.572   1.519 -1.8296 -0.2129 -0.5116
 9336TIP3    H227973   2.058   3.531   1.374  0.3749 -0.5212 -0.4157
 9337TIP3   OH227974   3.415   5.155   0.769 -0.2512  0.1870 -0.9647
 9337TIP3    H127975   3.497   5.172   0.816 -2.2240  1.8539  2.2164
 9337TIP3    H227976   3.416   5.060   0.754  0.7842 -0.4461  2.2285
 9338TIP3   OH227977   6.210   4.843   0.737  0.0416 -0.2970 -0.0095
 9338TIP3    H127978   6.128   4.881   0.706 -0.6180 -2.5492 -1.2440
 9338TIP3    H227979   6.204   4.850   0.833 -1.6569 -0.4734 -0.0581
 9339TIP3   OH227980   2.333   5.841   0.250  0.0059  0.1048 -0.1895
 9339TIP3    H127981   2.331   5.747   0.265  0.1153  0.1361  0.0336
 9339TIP3    H227982   2.296   5.853   0.163  0.6160 -0.2029 -0.4948
 9340TIP3   OH227983   5.868   3.134   0.824 -0.6885 -0.1326 -0.2733
 9340TIP3    H127984   5.964   3.130   0.823 -0.7125 -1.7171 -0.0252
 9340TIP3    H227985   5.848   3.223   0.853  0.6976  0.3266 -0.6235
 9341TIP3   OH227986   5.962   6.062   1.305  0.1846  0.0269 -0.2996
 9341TIP3    H127987   5.983   6.117   1.380 -1.2849 -0.3269  0.4070
 9341TIP3    H227988   6.045   6.019   1.282  1.0846  1.6286 -0.1406
 9342TIP3   OH227989   5.778   0.254   1.878 -0.3039 -0.7411  0.5790
 9342TIP3    H127990   5.727   0.173   1.881 -0.3659 -0.8131 -1.2030
 9342TIP3    H227991   5.817   0.254   1.791 -0.2068  1.0873  0.5801
 9343TIP3   OH227992   5.729   0.468   4.557 -0.0592 -0.1048  0.0021
 9343TIP3    H127993   5.809   0.514   4.582 -0.8732  0.7370  1.2136
 9343TIP3    H227994   5.706   0.418   4.636 -2.1920  1.8560  0.7389
 9344TIP3   OH227995   1.968   5.585   2.279 -0.7627 -0.4857  0.0419
 9344TIP3    H127996   1.986   5.507   2.227  0.3795 -0.7328  0.7605
 9344TIP3    H227997   2.054   5.616   2.307 -1.0224  2.0558 -1.6306
 9345TIP3   OH227998   5.528   0.219   1.627 -0.0982 -0.0291 -0.1136
 9345TIP3    H127999   5.507   0.210   1.720 -0.9839 -0.4206 -0.3365
 9345TIP3    H228000   5.623   0.226   1.624  0.0716 -1.6279  0.6967
 9346TIP3   OH228001   6.681   6.642   0.569 -0.1926  0.2080  0.1267
 9346TIP3    H128002   6.658   6.735   0.575 -2.3882 -0.1626 -1.3123
 9346TIP3    H228003   6.730   6.635   0.487  1.6614  0.3418  1.1761
 9347TIP3   OH228004   6.052   0.188   4.140  0.1377  0.1889 -0.0696
 9347TIP3    H128005   6.115   0.129   4.182 -0.5262 -1.0076 -0.7052
 9347TIP3    H228006   5.975   0.185   4.197  1.6358  4.1510  2.5114
 9348TIP3   OH228007   2.023   4.263   2.469  0.0804  0.0259 -0.2681
 9348TIP3    H128008   2.097   4.219   2.511  1.3130  0.8041 -1.5016
 9348TIP3    H228009   1.958   4.194   2.455 -0.0361 -0.4086  2.0647
 9349TIP3   OH228010   0.520   1.151   5.657  0.3245 -0.0867 -0.4541
 9349TIP3    H128011   0.460   1.220   5.685 -0.9923 -1.3002 -0.1497
 9349TIP3    H228012   0.546   1.108   5.738  0.0630 -0.7912 -0.7419
 9350TIP3   OH228013   5.694   4.697   3.950  0.2625 -0.3269  0.4169
 9350TIP3    H128014   5.625   4.652   3.901  0.9760 -1.1748  0.1726
 9350TIP3    H228015   5.673   4.679   4.042  1.4632 -2.6538  0.3042
 9351TIP3   OH228016   6.514   3.380   1.417 -0.6433 -0.0737 -0.3436
 9351TIP3    H128017   6.517   3.339   1.331  1.7664  2.2124 -1.5025
 9351TIP3    H228018   6.567   3.322   1.472  1.1861  0.4184 -1.4850
 9352TIP3   OH228019   0.080   5.571   1.542 -0.0842 -0.0941 -0.0877
 9352TIP3    H128020   0.128   5.546   1.463 -1.8891  0.4680 -1.4285
 9352TIP3    H228021   0.004   5.619   1.510 -0.6441  0.5476  2.0365
 9353TIP3   OH228022   1.027   3.950   5.730  0.2870  0.0772  0.3404
 9353TIP3    H128023   1.034   3.997   5.647  1.3334  0.3006  0.5360
 9353TIP3    H228024   0.957   3.886   5.716  1.3142 -0.7884 -1.1515
 9354TIP3   OH228025   0.460   4.878   4.752 -0.1617 -0.3454 -0.0176
 9354TIP3    H128026   0.457   4.957   4.699 -0.8360  0.0055  0.5349
 9354TIP3    H228027   0.547   4.879   4.792  0.2315 -0.4497 -0.8462
 9355TIP3   OH228028   5.423   3.671   5.063 -0.6209 -0.2201 -0.1114
 9355TIP3    H128029   5.388   3.742   5.117  0.6603  0.0979  0.3308
 9355TIP3    H228030   5.506   3.648   5.104  0.9776  0.8215 -2.5810
 9356TIP3   OH228031   0.829   2.233   5.914  0.2528 -0.2040  0.3140
 9356TIP3    H128032   0.882   2.301   5.872  0.2410 -0.6818 -0.5121
 9356TIP3    H228033   0.819   2.166   5.846 -1.8890  0.1259  0.2586
 9357TIP3   OH228034   5.607   3.641   4.295  0.2223  0.2452 -0.3336
 9357TIP3    H128035   5.658   3.565   4.266  1.9389  1.3634 -0.4078
 9357TIP3    H228036   5.574   3.616   4.382  3.6764  0.5859  1.2469
 9358TIP3   OH228037   0.658   3.485   2.075 -0.3945 -0.4764  0.1448
 9358TIP3    H128038   0.675   3.541   1.999  0.0712  0.5008  0.9424
 9358TIP3    H228039   0.716   3.518   2.143 -2.2662  0.0618  1.5884
 9359TIP3   OH228040   0.919   2.875   3.649  0.7119  0.2583 -0.3125
 9359TIP3    H128041   0.942   2.820   3.575  0.9298  0.6459 -0.5356
 9359TIP3    H228042   0.824   2.876   3.651  0.7029 -0.3160 -0.1611
 9360TIP3   OH228043   1.045   4.379   5.847 -0.1723 -0.0149 -0.5066
 9360TIP3    H128044   1.104   4.306   5.833  0.0741 -0.1480  1.0885
 9360TIP3    H228045   1.053   4.432   5.767  0.3697 -1.1980 -1.2625
 9361TIP3   OH228046   1.631   5.769   4.466 -0.1495 -0.2559  0.2863
 9361TIP3    H128047   1.546   5.755   4.424 -0.7172  0.8320  1.0182
 9361TIP3    H228048   1.610   5.780   4.559  0.9067 -0.9933  0.6229
 9362TIP3   OH228049   5.676   6.219   2.950 -0.1545 -0.1745 -0.1657
 9362TIP3    H128050   5.764   6.224   2.913  0.3497  1.2875  1.1340
 9362TIP3    H228051   5.619   6.260   2.885  0.3309  0.0401 -0.4530
 9363TIP3   OH228052   4.981   1.101   1.460  0.4896 -0.0581 -0.1317
 9363TIP3    H128053   4.951   1.155   1.533 -0.1355  0.1722 -0.5624
 9363TIP3    H228054   4.997   1.162   1.389 -1.1579 -0.5304 -0.9366
 9364TIP3   OH228055   0.785   1.978   2.036 -0.6568  0.4283 -0.8467
 9364TIP3    H128056   0.722   2.016   1.974 -0.5254 -1.4773 -2.2293
 9364TIP3    H228057   0.759   1.887   2.044  0.3524  0.2457  0.6575
 9365TIP3   OH228058   2.275   1.622   3.388 -0.1788 -0.1703 -0.0487
 9365TIP3    H128059   2.214   1.608   3.316 -1.1985 -0.3493  0.8085
 9365TIP3    H228060   2.297   1.534   3.419  0.0358 -0.0925  0.0209
 9366TIP3   OH228061   1.481   3.818   4.200 -0.2439  0.1208 -0.2842
 9366TIP3    H128062   1.414   3.749   4.191  0.4043 -0.3927 -1.3053
 9366TIP3    H228063   1.497   3.823   4.294 -0.0275 -1.4062 -0.2169
 9367TIP3   OH228064   5.978   6.154   4.180  0.1117  0.3192  0.0650
 9367TIP3    H128065   6.009   6.064   4.192 -2.1034 -0.2428  2.5202
 9367TIP3    H228066   5.939   6.155   4.093  1.0684 -0.7651 -0.4014
 9368TIP3   OH228067   3.894   4.515   4.927 -0.1624  0.2838 -0.2522
 9368TIP3    H128068   3.956   4.588   4.920  0.0494 -0.0375 -2.5864
 9368TIP3    H228069   3.811   4.552   4.897  0.0217 -0.4597 -1.7843
 9369TIP3   OH228070   2.868   4.196   3.136 -0.4443 -0.3520  0.3784
 9369TIP3    H128071   2.941   4.246   3.172 -0.5333  0.4883 -0.5553
 9369TIP3    H228072   2.793   4.220   3.190  0.0161 -1.4835  1.5587
 9370TIP3   OH228073   1.321   5.348   3.313  0.3276 -0.0322 -0.0255
 9370TIP3    H128074   1.317   5.421   3.250 -0.8195  1.9426  2.1529
 9370TIP3    H228075   1.240   5.299   3.297 -0.9036  1.5481  1.0211
 9371TIP3   OH228076   7.084   5.991   2.583  0.2868  0.1120 -0.7129
 9371TIP3    H128077   7.167   6.023   2.617  0.0544 -0.7684  0.7833
 9371TIP3    H228078   7.106   5.910   2.538  0.4475  0.7288 -1.7697
 9372TIP3   OH228079   4.955   6.739   4.002 -0.6370  0.1117 -0.4415
 9372TIP3    H128080   4.873   6.749   4.049 -0.1804 -0.2127  0.4500
 9372TIP3    H228081   4.983   6.650   4.021  0.8525  0.7925  0.8592
 9373TIP3   OH228082   4.197   0.590   2.344 -0.2591 -0.2388  0.2529
 9373TIP3    H128083   4.118   0.536   2.346 -0.0065 -0.7392 -1.6786
 9373TIP3    H228084   4.253   0.548   2.279 -0.1014  2.4114 -1.4763
 9374TIP3   OH228085   5.075   4.464   4.532 -0.1309 -0.2538 -0.2129
 9374TIP3    H128086   5.165   4.472   4.502  0.3831 -1.0188  1.0344
 9374TIP3    H228087   5.037   4.397   4.477 -0.0647  0.3359 -0.9934
 9375TIP3   OH228088   6.091   2.578   5.036  0.1221  0.1635 -0.1685
 9375TIP3    H128089   6.110   2.636   4.962 -1.7294  2.0118  0.7480
 9375TIP3    H228090   6.003   2.546   5.020  0.6154 -1.4039  0.0370
 9376TIP3   OH228091   4.866   2.552   5.419 -0.0870  0.2010 -0.1310
 9376TIP3    H128092   4.837   2.608   5.347  1.2346 -2.4898 -2.9790
 9376TIP3    H228093   4.797   2.485   5.427  0.9857 -1.0341 -0.7961
 9377TIP3   OH228094   3.435   6.509   1.233 -0.7090  0.1104  0.0405
 9377TIP3    H128095   3.491   6.584   1.253  0.7280 -0.7949 -0.4513
 9377TIP3    H228096   3.374   6.542   1.167 -1.3277  1.3375  1.1708
 9378TIP3   OH228097   7.147   3.751   4.680 -0.1105 -0.2167  0.1429
 9378TIP3    H128098   7.124   3.681   4.741  0.1158 -0.0276  0.4444
 9378TIP3    H228099   7.063   3.787   4.651 -0.2155 -0.2808  0.3726
 9379TIP3   OH228100   0.601   4.786   0.876  0.1585  0.0261 -1.0735
 9379TIP3    H128101   0.637   4.777   0.788 -0.7731  0.1287 -1.4668
 9379TIP3    H228102   0.508   4.805   0.863  0.1257  0.6034 -0.0772
 9380TIP3   OH228103   0.458   0.188   2.269  0.2629 -0.6292  0.4035
 9380TIP3    H128104   0.465   0.282   2.287  1.9143 -0.4969 -0.6397
 9380TIP3    H228105   0.382   0.180   2.212  1.3756  0.4380 -1.3310
 9381TIP3   OH228106   0.282   2.181  -0.012  0.0778 -0.4813 -0.5070
 9381TIP3    H128107   0.229   2.256   0.015  0.8664 -0.6268  1.6356
 9381TIP3    H228108   0.241   2.106   0.030  0.7090 -0.9003 -0.6242
 9382TIP3   OH228109   1.812   4.859   2.822 -0.4200  0.1611  0.1679
 9382TIP3    H128110   1.790   4.895   2.908 -1.3422  0.4596 -0.1723
 9382TIP3    H228111   1.787   4.929   2.761 -4.1645 -1.6637 -0.6833
 9383TIP3   OH228112   4.152   6.145   2.779 -0.4455  0.5109 -0.2177
 9383TIP3    H128113   4.104   6.206   2.834 -1.1654 -0.4854  0.2913
 9383TIP3    H228114   4.241   6.181   2.775 -0.5334  0.9249  1.0937
 9384TIP3   OH228115   7.195   6.598   0.981 -0.0955  0.5389 -0.3980
 9384TIP3    H128116   7.257   6.619   0.911 -0.7122 -0.4398 -1.2647
 9384TIP3    H228117   7.123   6.553   0.937  0.0704 -1.2462  1.0151
 9385TIP3   OH228118   3.801   6.759   4.210 -0.7850  0.4720  0.1161
 9385TIP3    H128119   3.760   6.683   4.169  0.5458 -0.4756  0.4711
 9385TIP3    H228120   3.875   6.781   4.153  0.4407 -0.1963  1.3673
 9386TIP3   OH228121   5.082   4.609   2.183  0.1975  0.1667  0.0120
 9386TIP3    H128122   5.111   4.580   2.097  0.2892 -1.9867  0.7040
 9386TIP3    H228123   4.988   4.588   2.185  0.4800 -1.1913  0.9015
 9387TIP3   OH228124   5.373   2.129   1.385 -0.0936  0.5882 -0.6073
 9387TIP3    H128125   5.304   2.151   1.322 -1.3412  1.3277  0.9345
 9387TIP3    H228126   5.331   2.068   1.446 -0.0818  2.5464  1.5034
 9388TIP3   OH228127   4.426   4.693   2.490  0.2061  0.0125  0.4136
 9388TIP3    H128128   4.395   4.683   2.580 -1.3229 -0.0486 -0.0940
 9388TIP3    H228129   4.346   4.705   2.439  0.9705 -1.0909 -1.0876
 9389TIP3   OH228130   5.067   6.420   0.362 -0.0096 -0.3107 -0.3110
 9389TIP3    H128131   5.048   6.327   0.348 -0.4293 -0.1418 -0.8963
 9389TIP3    H228132   5.043   6.463   0.280  1.7708  0.1091 -0.6615
 9390TIP3   OH228133   5.820   3.373   4.995 -0.6867  0.4563 -0.2803
 9390TIP3    H128134   5.729   3.360   5.023  0.0509 -0.5029  1.9020
 9390TIP3    H228135   5.814   3.437   4.924 -2.9472  1.5210  0.7451
 9391TIP3   OH228136   0.481   0.456   4.645 -0.1328  0.5719 -0.4720
 9391TIP3    H128137   0.534   0.476   4.568 -1.7597  0.3565 -1.7101
 9391TIP3    H228138   0.541   0.466   4.719  1.9831 -1.0032 -1.8642
 9392TIP3   OH228139   5.656   6.665   0.182  0.2699  0.7553  0.2865
 9392TIP3    H128140   5.678   6.709   0.100 -1.7684  1.8091  0.2252
 9392TIP3    H228141   5.660   6.572   0.162  0.0674  1.0007 -0.9564
 9393TIP3   OH228142   2.747   2.461   5.622 -0.0184  0.0636  0.4822
 9393TIP3    H128143   2.723   2.419   5.539 -1.1779 -1.3900  1.5060
 9393TIP3    H228144   2.673   2.517   5.644 -1.0971 -1.8395  1.9668
 9394TIP3   OH228145   3.857   5.851   4.273  0.1357 -0.5952 -0.1368
 9394TIP3    H128146   3.932   5.895   4.232 -0.2675  0.8602  0.6186
 9394TIP3    H228147   3.804   5.922   4.308 -2.3001 -1.4960 -1.7512
 9395TIP3   OH228148   1.078   6.707   3.082 -0.2553 -0.2322 -0.0415
 9395TIP3    H128149   1.017   6.637   3.107 -1.5685  0.8411 -0.0870
 9395TIP3    H228150   1.110   6.741   3.166 -2.5617  1.5581  0.2518
 9396TIP3   OH228151   6.556   3.929   1.023  0.0555 -0.0161  0.7129
 9396TIP3    H128152   6.524   3.934   0.933  0.3418 -0.9086  0.5495
 9396TIP3    H228153   6.637   3.979   1.023 -1.0901  1.9412  1.0396
 9397TIP3   OH228154   4.338   1.193   4.384 -0.3395  0.5077 -0.3594
 9397TIP3    H128155   4.419   1.244   4.394  0.3773 -0.8659  1.3575
 9397TIP3    H228156   4.285   1.245   4.324  2.1485  1.0253 -2.3018
 9398TIP3   OH228157   2.962   6.195   5.586  0.0604 -0.3249 -0.4744
 9398TIP3    H128158   3.026   6.174   5.518  0.9339 -0.9177  0.4945
 9398TIP3    H228159   2.883   6.147   5.561  0.9627 -2.0729 -0.1012
 9399TIP3   OH228160   3.880   4.240   0.062  0.1623 -0.0545 -0.3796
 9399TIP3    H128161   3.969   4.206   0.070 -0.3198 -1.2512  0.2582
 9399TIP3    H228162   3.876   4.278  -0.025  1.2512 -0.0995 -0.4664
 9400TIP3   OH228163   2.996   6.295   5.229 -0.5917  0.0193 -0.0590
 9400TIP3    H128164   3.036   6.224   5.279 -0.0667  0.2302 -0.1779
 9400TIP3    H228165   3.062   6.364   5.227 -1.1032  0.5290  0.0781
 9401TIP3   OH228166   6.545   1.195   3.193 -0.5533  0.0893  0.3782
 9401TIP3    H128167   6.607   1.243   3.247  0.2765  0.2240 -0.6582
 9401TIP3    H228168   6.550   1.105   3.225 -0.5789  0.2925  0.9672
 9402TIP3   OH228169   0.202   3.883   3.074 -0.0077 -0.3091  0.3555
 9402TIP3    H128170   0.136   3.820   3.044  0.7954 -0.7123 -0.6336
 9402TIP3    H228171   0.229   3.929   2.995 -2.1915  2.9688  1.3175
 9403TIP3   OH228172   2.849   0.205   5.201  0.1028  0.3524 -0.4366
 9403TIP3    H128173   2.788   0.234   5.133  1.8222 -0.1853 -2.3412
 9403TIP3    H228174   2.803   0.134   5.246 -0.6091 -0.2310 -2.0048
 9404TIP3   OH228175   6.764   1.611   3.762 -0.8830  0.2950 -0.1495
 9404TIP3    H128176   6.748   1.595   3.855 -0.4949  0.7496  0.0040
 9404TIP3    H228177   6.787   1.704   3.758  1.2769 -0.1867 -0.3729
 9405TIP3   OH228178   3.184   3.832   0.451  0.5870 -0.1405  0.6573
 9405TIP3    H128179   3.174   3.739   0.470 -0.9217 -0.3564 -0.9932
 9405TIP3    H228180   3.242   3.835   0.375 -0.8012  0.1337 -0.4194
 9406TIP3   OH228181   0.566   5.301   4.005 -0.3408  0.0779  0.0935
 9406TIP3    H128182   0.607   5.338   3.927  0.6100  0.2461  0.6512
 9406TIP3    H228183   0.640   5.268   4.057 -1.0979 -2.5130 -0.3155
 9407TIP3   OH228184   5.491   3.558   0.278  0.2897 -0.0095  0.3594
 9407TIP3    H128185   5.463   3.475   0.317 -1.8669  0.7024  0.4668
 9407TIP3    H228186   5.429   3.573   0.206  1.6405  0.7429 -0.7051
 9408TIP3   OH228187   1.481   2.790   2.103 -0.3553 -0.2897  0.2915
 9408TIP3    H128188   1.492   2.815   2.012  1.3973 -0.8739  0.2970
 9408TIP3    H228189   1.392   2.756   2.108 -0.7745  0.5573 -0.9905
 9409TIP3   OH228190   6.181   3.467   5.862  0.0370  0.1781 -0.4769
 9409TIP3    H128191   6.140   3.393   5.817 -1.6856  1.0028 -0.3473
 9409TIP3    H228192   6.175   3.445   5.955  1.9939 -0.7126 -0.5071
 9410TIP3   OH228193   0.616   0.981   1.469 -0.3982 -0.1389  0.2261
 9410TIP3    H128194   0.603   0.985   1.374  3.4523  1.1604 -0.4218
 9410TIP3    H228195   0.584   1.065   1.501 -1.2390 -0.3776  0.0441
 9411TIP3   OH228196   2.578   1.153   5.586 -0.4101 -0.7209  0.2956
 9411TIP3    H128197   2.553   1.104   5.507  0.1559 -0.3869 -0.0947
 9411TIP3    H228198   2.495   1.190   5.618 -0.8126 -1.7610  0.4886
 9412TIP3   OH228199   0.760   3.364   3.943  0.5505  0.6807  0.0014
 9412TIP3    H128200   0.851   3.351   3.916  1.4265  1.6134  2.2511
 9412TIP3    H228201   0.715   3.391   3.864  1.5850 -2.3609 -1.8121
 9413TIP3   OH228202   2.768   3.746   2.058  0.0597 -0.6100 -0.2674
 9413TIP3    H128203   2.718   3.827   2.072  0.5182 -0.2753 -0.5431
 9413TIP3    H228204   2.834   3.770   1.993 -0.4298 -1.4776 -1.1101
 9414TIP3   OH228205   5.358   5.854   0.135  0.0339 -0.2698 -0.6139
 9414TIP3    H128206   5.314   5.784   0.087 -0.5869 -0.4638  0.2101
 9414TIP3    H228207   5.331   5.934   0.091 -0.7676 -0.4240 -0.4224
 9415TIP3   OH228208   1.502   5.214   3.498  0.4918  0.1973  0.1302
 9415TIP3    H128209   1.509   5.162   3.419  1.6486 -0.2724  0.5179
 9415TIP3    H228210   1.434   5.279   3.479  1.4883  0.7736 -1.6279
 9416TIP3   OH228211   3.448   0.145   0.177  0.0018  0.3931  0.5578
 9416TIP3    H128212   3.422   0.161   0.268 -1.2539 -1.4002  0.5939
 9416TIP3    H228213   3.381   0.190   0.125  0.4020  0.9544  0.5241
 9417TIP3   OH228214   6.825   6.577   4.960  0.1713  0.2539  0.1166
 9417TIP3    H128215   6.805   6.556   4.868  0.4624 -0.0883  0.1268
 9417TIP3    H228216   6.884   6.652   4.955  0.0748  0.3248  0.0295
 9418TIP3   OH228217   5.039   1.525   4.070 -0.5385  0.0217 -0.4509
 9418TIP3    H128218   5.044   1.458   4.139 -0.8219 -0.8092 -1.2252
 9418TIP3    H228219   5.030   1.607   4.118 -0.6777 -0.5390  0.5132
 9419TIP3   OH228220   2.367   4.447   3.877  0.2841 -0.0913 -0.2893
 9419TIP3    H128221   2.459   4.438   3.902 -0.5681  0.0306  3.5431
 9419TIP3    H228222   2.360   4.535   3.841  1.3095  0.8528  1.6714
 9420TIP3   OH228223   4.603   0.036   3.227  0.5670  0.0250  0.4504
 9420TIP3    H128224   4.609   0.101   3.157 -1.4116  0.7870  0.9251
 9420TIP3    H228225   4.691   0.034   3.265  0.8415  1.9963  0.0428
 9421TIP3   OH228226   0.170   5.469   5.643  0.2057  0.1772 -0.2095
 9421TIP3    H128227   0.245   5.452   5.585  0.7884  0.0467  0.5679
 9421TIP3    H228228   0.160   5.564   5.642  0.1329  0.1656 -0.6262
 9422TIP3   OH228229   3.185   4.379   1.730  0.1402  0.7101  0.0819
 9422TIP3    H128230   3.248   4.314   1.700  0.3165  1.2772 -0.8005
 9422TIP3    H228231   3.226   4.419   1.807  0.3682  0.3281  0.1618
 9423TIP3   OH228232   0.691   4.960   2.549 -0.0417 -0.3230  0.8166
 9423TIP3    H128233   0.632   4.915   2.610 -0.2406 -0.4274  0.5478
 9423TIP3    H228234   0.651   4.947   2.463 -2.2639  3.5854  1.0180
 9424TIP3   OH228235   2.970   3.658   4.747  0.6000  0.2229 -0.0716
 9424TIP3    H128236   2.970   3.694   4.835  0.7400 -0.7214  0.3209
 9424TIP3    H228237   3.060   3.672   4.715  0.6349  0.2693  0.0469
 9425TIP3   OH228238   4.963   3.984   1.526 -0.4966  0.4674 -0.2679
 9425TIP3    H128239   4.931   4.031   1.449  0.8310 -1.5501 -2.1961
 9425TIP3    H228240   4.994   3.901   1.491  1.5799  0.0657  2.2473
 9426TIP3   OH228241   5.035   6.488   5.634  0.4891  0.3943  0.1078
 9426TIP3    H128242   5.066   6.561   5.581  1.6428  0.2463  0.5649
 9426TIP3    H228243   4.971   6.528   5.693  1.4010  1.1162  0.6253
 9427TIP3   OH228244   1.103   1.755   4.401  0.2127  0.2290  0.2696
 9427TIP3    H128245   1.053   1.680   4.367  1.1857 -0.2297 -0.1871
 9427TIP3    H228246   1.185   1.752   4.352  0.7695  0.8431  1.1626
 9428TIP3   OH228247   4.572   3.656   3.337  0.2833  0.3749 -0.5545
 9428TIP3    H128248   4.529   3.571   3.341  0.6942  0.2011  1.5832
 9428TIP3    H228249   4.565   3.683   3.246 -0.5636 -1.5775 -1.1091
 9429TIP3   OH228250   5.005   2.132   1.046  0.2783  0.2150 -0.3069
 9429TIP3    H128251   4.918   2.096   1.030 -0.6133  1.4494  1.4603
 9429TIP3    H228252   5.006   2.215   0.998  0.5019  0.1844 -0.3563
 9430TIP3   OH228253   4.654   4.787   5.224  0.1103  0.3178  0.0526
 9430TIP3    H128254   4.636   4.722   5.156  0.6839 -0.1121  0.2992
 9430TIP3    H228255   4.611   4.866   5.193 -1.9276 -0.5661  0.5009
 9431TIP3   OH228256   3.650   5.001   0.057 -0.1195 -0.5578  0.0767
 9431TIP3    H128257   3.616   4.987  -0.031  0.6573  0.4818 -0.4131
 9431TIP3    H228258   3.587   4.958   0.115 -1.9730  0.8331 -0.8163
 9432TIP3   OH228259   5.487   2.846   1.507  0.1438 -0.2193  0.0113
 9432TIP3    H128260   5.477   2.752   1.521 -0.7548 -0.2300 -0.6467
 9432TIP3    H228261   5.429   2.887   1.571 -0.3234 -0.1459 -0.4555
 9433TIP3   OH228262   4.821   5.214   0.147 -0.1324 -0.4194  0.4800
 9433TIP3    H128263   4.834   5.192   0.055 -1.1504 -0.9293  0.4556
 9433TIP3    H228264   4.842   5.307   0.152  1.1245 -0.6516 -0.0164
 9434TIP3   OH228265   6.516   2.056   1.948  0.3785 -0.2832 -0.2496
 9434TIP3    H128266   6.458   1.982   1.962 -0.3535  0.1547 -0.9085
 9434TIP3    H228267   6.580   2.025   1.884  0.1527 -0.3978 -0.4225
 9435TIP3   OH228268   2.771   5.191   4.089 -0.1147 -0.4982  0.0142
 9435TIP3    H128269   2.859   5.229   4.088 -0.0697 -0.5015  1.5563
 9435TIP3    H228270   2.728   5.229   4.012  0.2706  1.8718  0.8923
 9436TIP3   OH228271   0.942   4.880   1.197 -0.4139  0.1786 -0.1083
 9436TIP3    H128272   0.998   4.954   1.223  0.1668 -0.3620  0.1895
 9436TIP3    H228273   0.858   4.921   1.176  0.1849  1.0426 -0.9050
 9437TIP3   OH228274   5.288   2.384   4.578 -0.1596 -0.0201 -0.3256
 9437TIP3    H128275   5.195   2.405   4.574 -0.0355  0.5067 -0.5152
 9437TIP3    H228276   5.327   2.457   4.627  0.0626 -0.5448  0.2835
 9438TIP3   OH228277   4.525   3.746   4.256 -0.2692 -0.0547  0.1820
 9438TIP3    H128278   4.457   3.679   4.251 -0.2625 -0.0489  0.0064
 9438TIP3    H228279   4.545   3.767   4.165  0.4587 -0.5548  0.2118
 9439TIP3   OH228280   1.883   3.842   4.281 -0.1363 -0.2894 -1.0494
 9439TIP3    H128281   1.874   3.765   4.338  3.1717  0.5910  0.9381
 9439TIP3    H228282   1.910   3.912   4.340  0.3874  1.5234 -3.3034
 9440TIP3   OH228283   3.746   4.354   5.118  0.0104 -0.0129  0.3371
 9440TIP3    H128284   3.811   4.298   5.160  0.4502  0.7669  0.7202
 9440TIP3    H228285   3.797   4.422   5.073 -0.5227  0.3788  0.3079
 9441TIP3   OH228286   4.507   1.089   4.143  0.0346  0.2487  0.0230
 9441TIP3    H128287   4.428   1.036   4.159 -0.1211  0.8420  1.3844
 9441TIP3    H228288   4.509   1.150   4.217  1.7899  0.2366  0.0047
 9442TIP3   OH228289   1.291   5.161   5.097 -0.1922 -0.0066  0.0127
 9442TIP3    H128290   1.243   5.091   5.053 -0.6437 -0.1395  0.6822
 9442TIP3    H228291   1.381   5.129   5.104  0.4054  0.8531 -2.5703
 9443TIP3   OH228292   1.494   5.865   0.867 -0.4404 -0.6972  0.5717
 9443TIP3    H128293   1.533   5.947   0.897  0.1300 -1.2040  1.2336
 9443TIP3    H228294   1.491   5.874   0.771 -0.2494  0.0328  0.6301
 9444TIP3   OH228295   0.507   5.601   1.592  0.2409  0.2359  0.1957
 9444TIP3    H128296   0.571   5.604   1.521  0.9292 -3.2889  0.4880
 9444TIP3    H228297   0.560   5.591   1.671 -0.6254 -0.7346  0.6649
 9445TIP3   OH228298   0.103   4.780   0.045  0.5103  0.5362 -0.2190
 9445TIP3    H128299   0.089   4.855  -0.013  0.0101 -0.5366 -1.5369
 9445TIP3    H228300   0.050   4.710   0.007  1.2431 -0.5995  0.7732
 9446TIP3   OH228301   0.830   3.322   5.310 -0.6492  0.1565 -0.6613
 9446TIP3    H128302   0.921   3.293   5.307 -0.3857  0.9984 -2.4936
 9446TIP3    H228303   0.792   3.291   5.228 -1.6759  0.8201 -0.4581
 9447TIP3   OH228304   0.649   3.644   3.028  0.1951  0.0132  0.3879
 9447TIP3    H128305   0.668   3.564   3.077 -0.1072  0.5030  1.3281
 9447TIP3    H228306   0.563   3.629   2.989  0.6371 -0.5599 -0.3972
 9448TIP3   OH228307   4.422   1.238   1.881 -0.1143 -0.1748  0.2662
 9448TIP3    H128308   4.469   1.284   1.950  0.5895 -0.1732 -0.2052
 9448TIP3    H228309   4.400   1.306   1.817 -2.3048  0.1483  1.2783
 9449TIP3   OH228310   6.705   0.552   0.941 -0.3516  0.2796  0.2410
 9449TIP3    H128311   6.711   0.625   0.879  0.0566  1.3476  1.4910
 9449TIP3    H228312   6.767   0.487   0.909 -1.9457 -0.3105 -1.8542
 9450TIP3   OH228313   2.820   4.324   0.967  0.1210 -0.2108 -0.6430
 9450TIP3    H128314   2.745   4.298   0.914 -0.4121 -0.7053  0.3362
 9450TIP3    H228315   2.896   4.301   0.913 -0.4066 -0.0235 -1.4966
 9451TIP3   OH228316   4.446   1.158   5.799 -0.5256  0.2683  0.0183
 9451TIP3    H128317   4.517   1.223   5.806  0.1213 -0.5129  1.1574
 9451TIP3    H228318   4.387   1.194   5.734  0.8911  0.9879 -0.9320
 9452TIP3   OH228319   4.960   4.091   0.586  0.0854  0.1209  0.6418
 9452TIP3    H128320   5.049   4.099   0.619 -0.5231  1.8258  2.0391
 9452TIP3    H228321   4.907   4.142   0.647 -1.7107  0.0215 -0.7416
 9453TIP3   OH228322   6.436   4.360   3.297  0.3893 -0.3502  0.4667
 9453TIP3    H128323   6.401   4.435   3.345  1.3680 -1.9634  3.9906
 9453TIP3    H228324   6.360   4.305   3.279  0.2495 -0.9109  2.5502
 9454TIP3   OH228325   2.475   5.816   2.544 -0.0842 -0.4194  0.8134
 9454TIP3    H128326   2.496   5.859   2.461 -1.7675 -0.7379  0.1716
 9454TIP3    H228327   2.457   5.725   2.520  1.1249 -0.9455  1.8153
 9455TIP3   OH228328   4.898   5.006   0.754 -0.5861 -0.0415  0.0896
 9455TIP3    H128329   4.939   4.941   0.812 -1.6733  0.1193  1.0787
 9455TIP3    H228330   4.831   4.957   0.707  0.3908 -0.2024 -1.1842
 9456TIP3   OH228331   3.753   5.255   2.494 -0.2856 -0.5012  0.2233
 9456TIP3    H128332   3.776   5.278   2.584  1.0885 -1.9828  0.3026
 9456TIP3    H228333   3.829   5.282   2.442 -0.4619 -0.9407 -0.2777
 9457TIP3   OH228334   3.454   1.284   2.185 -0.0038 -0.7241  0.2112
 9457TIP3    H128335   3.510   1.360   2.174  1.0226 -1.5167 -0.1725
 9457TIP3    H228336   3.447   1.246   2.097 -1.4434 -0.4397  0.1830
 9458TIP3   OH228337   6.063   4.391   5.220 -0.1429 -0.3477 -0.3349
 9458TIP3    H128338   5.973   4.358   5.223 -0.2624 -0.0895 -0.8597
 9458TIP3    H228339   6.054   4.483   5.195  0.2971 -0.4709 -0.9703
 9459TIP3   OH228340   6.724   6.679   4.367 -0.2010 -0.7402  0.3389
 9459TIP3    H128341   6.766   6.595   4.349 -0.7471 -0.8498 -0.5189
 9459TIP3    H228342   6.631   6.658   4.374 -0.5277 -0.0276 -1.4070
 9460TIP3   OH228343   7.160   3.966   5.509  0.1390  0.0438  0.0918
 9460TIP3    H128344   7.198   4.039   5.558  2.6275 -1.2458  0.2190
 9460TIP3    H228345   7.120   3.911   5.575  0.8627 -0.1809  0.3529
 9461TIP3   OH228346   2.064   1.915   3.344 -0.9527  0.3977 -0.3502
 9461TIP3    H128347   2.096   1.863   3.419 -1.2351 -0.5465 -0.8676
 9461TIP3    H228348   1.973   1.933   3.365 -0.8230  0.7866 -0.1167
 9462TIP3   OH228349   1.875   1.245   3.964 -0.1067 -0.2562 -0.1877
 9462TIP3    H128350   1.945   1.221   3.903 -0.1203  0.2656 -0.4186
 9462TIP3    H228351   1.880   1.180   4.034  1.5442  0.5898  0.5319
 9463TIP3   OH228352   1.436   6.067   3.262  0.3781  1.0349  0.6043
 9463TIP3    H128353   1.456   6.130   3.192  0.5508  0.8971  0.5289
 9463TIP3    H228354   1.371   6.112   3.316 -1.8341  0.0939 -1.1517
 9464TIP3   OH228355   3.206   6.538   3.058  0.0935  0.3457 -0.3697
 9464TIP3    H128356   3.234   6.626   3.034 -0.2517  0.1824 -1.4110
 9464TIP3    H228357   3.285   6.484   3.052  0.0290  0.3255 -1.0543
 9465TIP3   OH228358   2.282   2.599   3.247  0.6360 -0.5475  0.4239
 9465TIP3    H128359   2.331   2.537   3.193  1.7005  0.8965 -0.3240
 9465TIP3    H228360   2.272   2.676   3.192 -0.7488 -0.0733  1.3016
 9466TIP3   OH228361   0.587   1.833   2.956  0.3672  0.1220 -0.4255
 9466TIP3    H128362   0.529   1.827   3.032 -1.8064  0.1768 -1.9923
 9466TIP3    H228363   0.671   1.863   2.992 -1.0446  1.7464  1.7250
 9467TIP3   OH228364   2.879   5.881   5.170  0.2647 -0.2535  0.0801
 9467TIP3    H128365   2.966   5.860   5.205  0.1950 -0.1719  0.3091
 9467TIP3    H228366   2.823   5.885   5.247  0.5400  2.1088  0.2564
 9468TIP3   OH228367   3.889   4.781   3.422 -0.5417 -0.0905 -0.1971
 9468TIP3    H128368   3.955   4.746   3.482 -1.0833  2.1247  1.8255
 9468TIP3    H228369   3.939   4.809   3.345  0.2653 -2.2711 -0.5483
 9469TIP3   OH228370   3.546   6.186   4.799  0.1927 -0.1173  0.0037
 9469TIP3    H128371   3.605   6.153   4.866 -0.1737 -0.1855  0.2908
 9469TIP3    H228372   3.560   6.128   4.724  0.7216  0.0605 -0.0394
 9470TIP3   OH228373   6.181   0.543  -0.015 -0.4396  0.1371 -0.3355
 9470TIP3    H128374   6.202   0.450  -0.024  0.3761  0.4013 -1.4855
 9470TIP3    H228375   6.189   0.560   0.079  0.6845 -0.6847 -0.2493
 9471TIP3   OH228376   2.399   4.714   3.824 -0.7765 -0.3282  0.5441
 9471TIP3    H128377   2.476   4.746   3.873 -1.3065  0.7581  0.6935
 9471TIP3    H228378   2.381   4.783   3.760 -1.3387 -0.8037  0.1822
 9472TIP3   OH228379   5.018   3.731   2.300 -0.1350 -0.0241 -0.8001
 9472TIP3    H128380   4.984   3.741   2.389  1.7667 -0.5751  0.0416
 9472TIP3    H228381   5.076   3.655   2.305  0.0044 -0.0783 -2.5296
 9473TIP3   OH228382   6.641   6.362   0.917  0.5198 -0.7241  0.4672
 9473TIP3    H128383   6.661   6.432   0.855  0.8767 -0.5664  0.7570
 9473TIP3    H228384   6.637   6.406   1.002 -1.9421 -0.5753  0.3497
 9474TIP3   OH228385   5.968   5.063   5.198 -0.6718 -0.2913  0.2152
 9474TIP3    H128386   6.001   5.138   5.149 -2.2838 -0.0370 -0.5514
 9474TIP3    H228387   5.898   5.098   5.252 -0.9779 -1.1206  0.3749
 9475TIP3   OH228388   1.285   0.542   0.167 -0.1999  0.0838  0.2228
 9475TIP3    H128389   1.299   0.622   0.115  0.9745 -0.2707 -0.0319
 9475TIP3    H228390   1.208   0.502   0.126 -0.2233  0.5948 -0.2646
 9476TIP3   OH228391   0.034   2.627   0.554  0.5661 -0.1874  0.2054
 9476TIP3    H128392   0.040   2.694   0.622 -1.4270  1.4992 -1.1421
 9476TIP3    H228393   0.007   2.675   0.476  0.6341 -2.3628 -1.2291
 9477TIP3   OH228394   6.491   0.661   3.392  0.0998  0.8830  1.0566
 9477TIP3    H128395   6.409   0.623   3.423 -0.9532 -1.1993 -3.4478
 9477TIP3    H228396   6.556   0.591   3.403  0.1273  0.7834  0.3022
 9478TIP3   OH228397   3.037   5.752   1.444 -0.3941  0.2746 -0.0294
 9478TIP3    H128398   3.123   5.736   1.404  0.1455 -0.1944  1.2584
 9478TIP3    H228399   2.976   5.703   1.389  0.1223  0.7767 -1.0794
 9479TIP3   OH228400   4.493   3.400   2.307 -0.6875  0.1293  0.5220
 9479TIP3    H128401   4.555   3.406   2.379 -2.0903 -0.2720  1.8271
 9479TIP3    H228402   4.440   3.322   2.328 -0.7045 -0.3811 -1.2963
 9480TIP3   OH228403   5.547   2.853   5.452  0.4683  0.2302  0.5530
 9480TIP3    H128404   5.478   2.788   5.464 -1.1366  2.0091  1.3882
 9480TIP3    H228405   5.622   2.817   5.500 -1.4065  0.4260  3.9381
 9481TIP3   OH228406   1.201   4.515   0.085 -0.1677 -0.1045  0.0783
 9481TIP3    H128407   1.264   4.540   0.152  1.2756  2.5755 -2.0350
 9481TIP3    H228408   1.122   4.492   0.133  1.0755  0.7282  2.6956
 9482TIP3   OH228409   3.416   5.065   2.431 -0.8980 -0.5434  0.9530
 9482TIP3    H128410   3.464   5.141   2.465  0.7280 -1.0231 -0.1318
 9482TIP3    H228411   3.328   5.097   2.415 -0.5128  0.8426  1.4531
 9483TIP3   OH228412   7.172   6.549   5.793 -0.2767  0.3418  0.0020
 9483TIP3    H128413   7.120   6.508   5.862 -0.4974  0.2916 -0.1933
 9483TIP3    H228414   7.256   6.505   5.797  0.6447  2.1096  1.9899
 9484TIP3   OH228415   0.591   2.289   1.456 -0.1359 -0.2619  0.1498
 9484TIP3    H128416   0.683   2.294   1.483 -0.2190  1.6521  0.2342
 9484TIP3    H228417   0.594   2.251   1.368  0.7114 -0.3993  0.2265
 9485TIP3   OH228418   1.475   2.242   0.823 -0.3949  0.3179 -0.2451
 9485TIP3    H128419   1.467   2.156   0.782  0.8331 -0.5863  1.2939
 9485TIP3    H228420   1.409   2.243   0.892  0.5203  0.0106  0.6650
 9486TIP3   OH228421   5.920   2.680   0.631  0.6851 -0.9648 -0.4378
 9486TIP3    H128422   5.826   2.686   0.613  0.5100  0.2780  0.6947
 9486TIP3    H228423   5.961   2.738   0.567  0.6832 -1.5127 -0.9369
 9487TIP3   OH228424   6.382   4.882   4.221 -0.3396  0.3366  0.3699
 9487TIP3    H128425   6.309   4.865   4.161  0.9571  1.4355 -1.6306
 9487TIP3    H228426   6.355   4.961   4.269 -0.1542  1.2739 -1.0025
 9488TIP3   OH228427   3.865   4.263   4.649  0.0187 -0.2228 -0.2551
 9488TIP3    H128428   3.859   4.229   4.739 -1.0591 -1.1661 -0.6673
 9488TIP3    H228429   3.943   4.222   4.613 -1.3564 -2.5431 -0.8107
 9489TIP3   OH228430   1.195   1.407   1.687  0.2484 -0.0102 -0.0554
 9489TIP3    H128431   1.187   1.314   1.711  0.8795 -0.1140 -0.2384
 9489TIP3    H228432   1.146   1.415   1.605  1.1446 -0.4273 -0.6437
 9490TIP3   OH228433   2.074   4.406   0.768  0.5277 -0.3865  0.1741
 9490TIP3    H128434   2.117   4.476   0.720  1.3453  0.0473  1.4873
 9490TIP3    H228435   2.091   4.425   0.860  0.5040 -2.1447  0.5863
 9491TIP3   OH228436   5.098   3.105   0.181 -0.0440  0.0770 -0.2930
 9491TIP3    H128437   5.189   3.081   0.194 -0.1805  0.0406  0.7330
 9491TIP3    H228438   5.079   3.084   0.090  0.4831 -1.5547 -0.0626
 9492TIP3   OH228439   5.460   4.315   0.683 -0.4598 -0.1392  0.0885
 9492TIP3    H128440   5.415   4.385   0.731 -0.2472  0.2277 -0.2391
 9492TIP3    H228441   5.402   4.297   0.609 -1.2980 -1.4156  1.0046
 9493TIP3   OH228442   4.960   0.049   0.060  0.0476 -0.8403 -0.0257
 9493TIP3    H128443   4.992   0.125   0.013  2.3993 -1.9223 -0.3208
 9493TIP3    H228444   4.866   0.065   0.071  0.4497  2.0314 -0.1124
 9494TIP3   OH228445   1.633   6.668   2.640 -0.5443 -0.3395 -0.0364
 9494TIP3    H128446   1.679   6.748   2.664 -0.5032  0.5534 -2.8325
 9494TIP3    H228447   1.647   6.609   2.715  1.5910  1.3267  0.9670
 9495TIP3   OH228448   1.324   3.703   0.408  0.1170  0.2655 -0.0944
 9495TIP3    H128449   1.232   3.694   0.382  0.0692 -1.4456  0.5224
 9495TIP3    H228450   1.324   3.772   0.474 -0.1072  2.9887 -2.7147
 9496TIP3   OH228451   0.584   0.696   0.253 -0.3863 -0.2324  0.4724
 9496TIP3    H128452   0.507   0.704   0.197 -1.7665 -0.5840  2.2199
 9496TIP3    H228453   0.572   0.612   0.298  1.4345 -0.6723  0.2252
 9497TIP3   OH228454   5.647   0.510   4.314 -0.4019  0.0792  0.1177
 9497TIP3    H128455   5.577   0.574   4.315 -2.4225 -2.0001  0.5744
 9497TIP3    H228456   5.677   0.506   4.405  0.1271  0.7410 -0.0187
 9498TIP3   OH228457   1.617   4.473   4.815  0.5078 -0.2857  0.1224
 9498TIP3    H128458   1.649   4.387   4.842  0.4891 -0.0655  0.8599
 9498TIP3    H228459   1.686   4.534   4.842  0.3084 -0.0162  0.0327
 9499TIP3   OH228460   4.939   0.783   3.198 -0.3261 -0.0390  0.0481
 9499TIP3    H128461   4.855   0.769   3.154 -0.1711  2.4449 -1.2850
 9499TIP3    H228462   5.004   0.748   3.137 -0.3000  0.0878  0.0021
 9500TIP3   OH228463   0.896   6.637   5.566  0.3047 -0.0657 -0.2875
 9500TIP3    H128464   0.967   6.587   5.526  0.0912  0.3126 -1.1577
 9500TIP3    H228465   0.880   6.592   5.649 -0.2417 -1.7731 -1.2695
 9501TIP3   OH228466   0.355   5.662   1.888 -0.2167 -0.2107  0.6054
 9501TIP3    H128467   0.266   5.631   1.869 -0.3272  0.5421 -0.1196
 9501TIP3    H228468   0.408   5.630   1.816 -0.3164  1.1697 -0.1196
 9502TIP3   OH228469   0.744   5.255   4.316 -0.1586 -0.6166  0.0665
 9502TIP3    H128470   0.725   5.169   4.354  3.2187 -0.6982  1.8739
 9502TIP3    H228471   0.834   5.249   4.285 -0.2495  1.9128 -0.9236
 9503TIP3   OH228472   2.430   1.870   2.903 -0.2337 -0.4364 -0.6742
 9503TIP3    H128473   2.483   1.927   2.959 -2.7263  0.5719  0.7956
 9503TIP3    H228474   2.402   1.799   2.961 -1.1416 -0.5129 -1.1927
 9504TIP3   OH228475   3.543   5.528   4.622  0.5703 -0.0067 -0.6872
 9504TIP3    H128476   3.463   5.572   4.650  0.8539 -0.1008  0.3117
 9504TIP3    H228477   3.534   5.439   4.656 -0.2692 -0.9385 -3.1858
 9505TIP3   OH228478   7.033   4.817   4.769 -0.1629  0.2336  0.6766
 9505TIP3    H128479   7.085   4.778   4.839 -0.7133  1.6991  1.9797
 9505TIP3    H228480   6.965   4.866   4.815 -0.5945  1.1790 -0.8986
 9506TIP3   OH228481   2.395   4.307   1.292  0.7780 -0.1384  0.0901
 9506TIP3    H128482   2.487   4.326   1.273  1.4229 -0.8059  2.2012
 9506TIP3    H228483   2.380   4.220   1.254  0.3720  0.8128 -2.0355
 9507TIP3   OH228484   4.562   3.460   0.946 -0.2149  0.2151 -0.1391
 9507TIP3    H128485   4.613   3.379   0.953 -0.0636 -0.1317 -3.7594
 9507TIP3    H228486   4.471   3.431   0.938  0.0217  0.0892 -3.7986
 9508TIP3   OH228487   5.560   0.900   5.514  0.0604  0.0619  0.5922
 9508TIP3    H128488   5.599   0.936   5.594 -3.2970  2.0500  1.5633
 9508TIP3    H228489   5.522   0.817   5.542  0.3803 -0.0846  0.5963
 9509TIP3   OH228490   4.590   5.633   0.129 -0.1621  0.3992 -0.0731
 9509TIP3    H128491   4.521   5.568   0.133  1.7352 -1.8147  4.6018
 9509TIP3    H228492   4.586   5.677   0.214  1.6926  3.0655 -1.2231
 9510TIP3   OH228493   3.698   1.390   2.992  0.5308 -0.0065 -0.2317
 9510TIP3    H128494   3.771   1.375   2.932 -0.2591  0.2810 -1.3015
 9510TIP3    H228495   3.645   1.311   2.986  0.2226  0.1981 -0.2537
 9511TIP3   OH228496   0.719   4.237   1.898 -0.2852 -0.0853 -0.0286
 9511TIP3    H128497   0.624   4.233   1.906 -0.4329  0.1080 -1.4347
 9511TIP3    H228498   0.751   4.176   1.964 -1.4891 -2.1812 -1.2653
 9512TIP3   OH228499   2.254   3.437   3.268  0.2685  0.3351  0.0317
 9512TIP3    H128500   2.167   3.441   3.308 -0.5853  0.2939 -1.7556
 9512TIP3    H228501   2.307   3.495   3.323 -0.5566 -0.5466  1.8566
 9513TIP3   OH228502   5.944   1.320   5.706  0.1171 -0.4415  0.1093
 9513TIP3    H128503   6.035   1.300   5.727  1.2236  3.2014 -0.4625
 9513TIP3    H228504   5.902   1.332   5.790  0.6127 -0.4556  0.3646
 9514TIP3   OH228505   2.958   4.301   5.387  0.0695 -0.4125 -0.2463
 9514TIP3    H128506   2.865   4.312   5.367 -0.2644 -2.1309  0.2081
 9514TIP3    H228507   2.963   4.218   5.434  1.6013  0.5086  1.3792
 9515TIP3   OH228508   5.228   4.500   2.836  0.0619 -0.0037  0.2159
 9515TIP3    H128509   5.140   4.481   2.869  0.4965 -1.1092  0.8177
 9515TIP3    H228510   5.232   4.456   2.751 -0.2256  0.7314 -0.1855
 9516TIP3   OH228511   7.020   5.628   5.573 -0.1523  0.4924  0.1584
 9516TIP3    H128512   6.970   5.661   5.498  2.3929  1.5002 -1.2559
 9516TIP3    H228513   7.021   5.533   5.562 -1.5890  0.4528  0.1796
 9517TIP3   OH228514   1.108   2.217   0.647 -0.3109 -0.1991  0.1279
 9517TIP3    H128515   1.101   2.221   0.742 -1.4604  0.4189  0.0324
 9517TIP3    H228516   1.077   2.129   0.624  1.1463 -0.8036  0.3994
 9518TIP3   OH228517   2.981   1.303   0.915  0.3561 -0.0607 -0.3831
 9518TIP3    H128518   2.892   1.285   0.884  0.8688  0.5630 -2.3470
 9518TIP3    H228519   3.001   1.230   0.974 -0.7332 -1.2790 -1.4521
 9519TIP3   OH228520   6.574   3.919   0.718  0.2669 -0.1721 -0.0963
 9519TIP3    H128521   6.520   3.959   0.650  0.7242 -1.8670 -1.5256
 9519TIP3    H228522   6.651   3.887   0.672  1.4674  0.2286  1.5455
 9520TIP3   OH228523   3.806   6.611   1.072  0.5059  0.3633  0.3177
 9520TIP3    H128524   3.874   6.543   1.074 -1.1594 -1.3843  0.4451
 9520TIP3    H228525   3.821   6.658   0.991  1.3029 -0.6031 -0.1136
 9521TIP3   OH228526   4.673   6.624   2.238  0.2572 -0.4114  0.3070
 9521TIP3    H128527   4.656   6.558   2.305  2.0475 -1.4372 -0.1781
 9521TIP3    H228528   4.718   6.694   2.284 -2.5501  1.0482  1.0358
 9522TIP3   OH228529   4.653   4.217   0.176  0.4380 -0.2423  0.2872
 9522TIP3    H128530   4.739   4.199   0.215 -0.3435 -1.4797  1.5347
 9522TIP3    H228531   4.641   4.311   0.189  1.9185  0.1106 -0.6088
 9523TIP3   OH228532   3.738   1.619   1.397  0.1893  0.0187  0.1880
 9523TIP3    H128533   3.681   1.610   1.474  1.6573 -0.5010  1.2582
 9523TIP3    H228534   3.702   1.558   1.333 -2.0830  1.6729 -0.2355
 9524TIP3   OH228535   5.495   4.778   2.742  0.0514  0.3569  0.1618
 9524TIP3    H128536   5.521   4.747   2.655 -1.1822 -0.4952  0.0660
 9524TIP3    H228537   5.412   4.823   2.727  0.1926  0.8395  0.8039
 9525TIP3   OH228538   1.569   5.968   5.677 -0.0506 -0.1393  0.1752
 9525TIP3    H128539   1.615   6.004   5.752  2.4194 -0.8901 -0.8853
 9525TIP3    H228540   1.524   5.891   5.711 -0.2867  0.4281  1.1822
 9526TIP3   OH228541   2.016   3.111   1.582 -0.0978  0.4998 -0.2580
 9526TIP3    H128542   2.058   3.196   1.594 -0.9240  1.1869 -1.9147
 9526TIP3    H228543   2.077   3.049   1.622  0.3913  1.8706  1.2497
 9527TIP3   OH228544   5.288   0.396   2.267  0.4300  0.2609  0.0773
 9527TIP3    H128545   5.383   0.403   2.252  0.4055  1.1563  0.2419
 9527TIP3    H228546   5.279   0.412   2.361 -0.1154  3.3936 -0.3821
 9528TIP3   OH228547   4.823   0.064   5.162 -0.6706  0.4830  0.1693
 9528TIP3    H128548   4.844  -0.002   5.228 -0.5073  0.8394  0.4808
 9528TIP3    H228549   4.895   0.060   5.100  0.5669  1.9692  1.4421
 9529TIP3   OH228550   0.833   4.785   4.559 -0.4948  0.1785 -0.2677
 9529TIP3    H128551   0.837   4.724   4.633 -1.4944  1.7492  1.1769
 9529TIP3    H228552   0.800   4.732   4.486 -0.3787 -1.2171  0.6435
 9530TIP3   OH228553   0.647   0.083   4.801  0.2238 -0.1977 -0.0638
 9530TIP3    H128554   0.575   0.025   4.824 -0.9401  0.4923 -1.7260
 9530TIP3    H228555   0.709   0.027   4.755 -0.8378 -0.2226 -1.5628
 9531TIP3   OH228556   5.437   5.000   3.308 -0.3220 -0.5436  0.0365
 9531TIP3    H128557   5.408   4.984   3.397  3.1579  2.3707  1.9728
 9531TIP3    H228558   5.511   4.941   3.295 -0.0993 -0.1625 -0.4977
 9532TIP3   OH228559   6.228   4.301   2.677 -0.3739 -0.0675  0.6335
 9532TIP3    H128560   6.273   4.277   2.596 -1.1303  4.0123 -1.2348
 9532TIP3    H228561   6.294   4.350   2.727 -1.0429  0.9730  0.5306
 9533TIP3   OH228562   3.965   3.983   3.320  0.3168  0.1287  0.1191
 9533TIP3    H128563   3.998   4.001   3.408 -1.4504  0.2459  0.7889
 9533TIP3    H228564   3.881   4.029   3.315 -1.4503 -2.8611 -0.2445
 9534TIP3   OH228565   4.656   2.388   5.433  0.6796 -0.5166 -0.5942
 9534TIP3    H128566   4.613   2.385   5.347 -2.7309  2.4855  0.7292
 9534TIP3    H228567   4.624   2.310   5.478 -0.6696 -0.1582 -0.8621
 9535TIP3   OH228568   3.391   2.758   3.704 -0.3070  0.7908  0.0948
 9535TIP3    H128569   3.480   2.787   3.684 -0.7024  1.1295 -1.3458
 9535TIP3    H228570   3.399   2.663   3.714  0.0084  0.6171 -1.5082
 9536TIP3   OH228571   7.024   4.904   5.140 -0.4903  0.1621  0.3307
 9536TIP3    H128572   7.095   4.855   5.099  0.2330  2.4553 -1.3224
 9536TIP3    H228573   6.997   4.849   5.214  0.9445 -2.1789 -0.7725
 9537TIP3   OH228574   4.914   6.303   2.470 -0.3814 -0.2843 -0.0322
 9537TIP3    H128575   4.943   6.231   2.525  0.4757 -0.0705 -0.1852
 9537TIP3    H228576   4.818   6.296   2.468 -0.3998 -0.4875  1.2105
 9538TIP3   OH228577   2.492   2.941   2.359 -0.3013 -0.1855 -0.0597
 9538TIP3    H128578   2.489   2.850   2.388  0.3937 -0.2289 -0.1204
 9538TIP3    H228579   2.411   2.979   2.393  0.3186 -0.3197  1.6192
 9539TIP3   OH228580   6.499   4.669   1.509  0.5170 -0.6045  0.0248
 9539TIP3    H128581   6.518   4.588   1.460  2.0002 -0.2656  0.0056
 9539TIP3    H228582   6.561   4.733   1.474 -1.0927  0.7601 -0.4333
 9540TIP3   OH228583   6.220   5.975   4.249 -0.5091 -0.0980  0.0910
 9540TIP3    H128584   6.291   6.034   4.224  0.4616 -1.4388 -0.4336
 9540TIP3    H228585   6.243   5.891   4.209 -3.3261 -0.1751 -1.6291
 9541TIP3   OH228586   0.331   1.450   5.373 -0.4390 -0.2742 -0.0828
 9541TIP3    H128587   0.319   1.487   5.286 -1.6495 -0.1847  0.1051
 9541TIP3    H228588   0.272   1.375   5.376  0.3855 -0.9225  0.2971
 9542TIP3   OH228589   4.246   3.641   5.094  0.0548 -0.1371  0.0535
 9542TIP3    H128590   4.253   3.554   5.134  0.6052 -1.1117 -2.0207
 9542TIP3    H228591   4.334   3.677   5.100  0.6978 -1.1951 -2.1010
 9543TIP3   OH228592   2.188   1.949   4.053  0.3528 -0.2233  0.1135
 9543TIP3    H128593   2.147   2.010   3.992  0.9826 -0.0723 -0.1653
 9543TIP3    H228594   2.172   1.863   4.015 -1.6441 -0.3667  1.1528
 9544TIP3   OH228595   6.804   5.297   1.229  0.4189  0.1659  0.2318
 9544TIP3    H128596   6.770   5.207   1.232  0.5899  0.1169  0.6953
 9544TIP3    H228597   6.899   5.287   1.235  0.3944  0.4229  1.1329
 9545TIP3   OH228598   4.149   1.093   0.740  0.2576 -0.4502  0.1624
 9545TIP3    H128599   4.177   1.159   0.676 -1.0235 -0.0058  0.0324
 9545TIP3    H228600   4.073   1.052   0.699 -1.2131  0.5213  1.8018
 9546TIP3   OH228601   2.093   1.245   5.295  0.1278  0.3039  0.2951
 9546TIP3    H128602   2.125   1.304   5.363  1.9582  0.1732 -0.4077
 9546TIP3    H228603   1.998   1.256   5.297  0.1704  0.7497  2.4488
 9547TIP3   OH228604   0.447   3.653   4.830 -0.2037 -0.1723 -0.0977
 9547TIP3    H128605   0.490   3.704   4.760 -0.2348 -1.3569 -1.0118
 9547TIP3    H228606   0.519   3.604   4.871 -0.5566 -1.9012 -1.4113
 9548TIP3   OH228607   5.286   2.372   1.877  0.2933  0.6383  0.8744
 9548TIP3    H128608   5.298   2.376   1.971  1.5131  0.8872  0.7146
 9548TIP3    H228609   5.373   2.357   1.841  0.1995  2.6920 -0.3489
 9549TIP3   OH228610   3.107   0.360   4.096 -0.3604  0.1684 -0.0377
 9549TIP3    H128611   3.150   0.337   4.014 -0.5483 -0.9651  0.1727
 9549TIP3    H228612   3.161   0.318   4.164 -0.4970  0.6674  0.3899
 9550TIP3   OH228613   5.040   3.418   4.353  0.3685 -0.4488 -0.1596
 9550TIP3    H128614   5.119   3.471   4.363  0.1422  0.0915 -1.0767
 9550TIP3    H228615   5.044   3.385   4.263 -0.2708 -0.7050 -0.1041
 9551TIP3   OH228616   4.124   4.405   5.833 -0.4675  0.1082  0.1668
 9551TIP3    H128617   4.193   4.436   5.774 -1.6979 -1.5849 -2.3376
 9551TIP3    H228618   4.161   4.325   5.872 -0.0494  0.6705  0.9692
 9552TIP3   OH228619   0.546   2.358   2.943 -0.0214  0.0214 -0.1528
 9552TIP3    H128620   0.609   2.331   3.010 -1.8443  1.1431  2.1351
 9552TIP3    H228621   0.483   2.286   2.938  0.1744 -0.1172 -0.8095
 9553TIP3   OH228622   6.961   2.233   1.565  0.3031  0.7536  0.1420
 9553TIP3    H128623   6.943   2.327   1.567 -0.5285  0.5986  2.1972
 9553TIP3    H228624   6.898   2.198   1.502  1.0511  1.6151 -1.1301
 9554TIP3   OH228625   0.192   3.054   0.278  0.2036  0.1827  0.1053
 9554TIP3    H128626   0.135   3.105   0.221 -1.7585 -2.2531 -0.2975
 9554TIP3    H228627   0.262   3.022   0.220 -1.0823 -1.2447 -0.7140
 9555TIP3   OH228628   5.271   1.484   0.509  0.3097 -0.1027 -0.1914
 9555TIP3    H128629   5.360   1.475   0.543  0.0001 -1.1698  0.3894
 9555TIP3    H228630   5.236   1.395   0.509 -0.5411  0.2140 -1.0262
 9556TIP3   OH228631   6.637   3.925   0.145  0.2703 -0.8788  0.9078
 9556TIP3    H128632   6.573   3.970   0.090  0.6320  0.6044  1.6474
 9556TIP3    H228633   6.719   3.931   0.096  0.6536  0.6889  1.6745
 9557TIP3   OH228634   5.879   0.855   5.013 -0.9072  0.1825  0.0115
 9557TIP3    H128635   5.933   0.934   5.011  0.4918 -0.7313  0.0799
 9557TIP3    H228636   5.877   0.830   5.106  0.1252 -0.7902 -0.2001
 9558TIP3   OH228637   3.700   1.859   1.854  0.2824  0.1480  0.2416
 9558TIP3    H128638   3.729   1.768   1.845 -1.9494 -0.6435  0.4249
 9558TIP3    H228639   3.653   1.877   1.773 -0.3558  0.7246  0.7311
 9559TIP3   OH228640   4.855   2.898   2.210 -0.0250 -0.3625 -0.3596
 9559TIP3    H128641   4.926   2.836   2.192  0.6242 -0.0807  1.1505
 9559TIP3    H228642   4.882   2.979   2.165  1.6136  0.3512  1.7554
 9560TIP3   OH228643   4.912   1.257   5.031  0.4980  0.3576  0.6773
 9560TIP3    H128644   4.904   1.323   5.100  1.0865 -0.9119  2.0059
 9560TIP3    H228645   4.823   1.225   5.018  0.1671  1.5135 -0.1337
 9561TIP3   OH228646   3.364   0.882   1.157  0.1653 -0.0991  0.0162
 9561TIP3    H128647   3.302   0.925   1.098  3.8049  1.9163 -2.8400
 9561TIP3    H228648   3.391   0.952   1.217 -0.1475 -0.8918  1.1021
 9562TIP3   OH228649   5.336   5.143   1.165  0.1167 -0.2769 -0.5182
 9562TIP3    H128650   5.360   5.229   1.132 -0.5947  0.6332  1.1747
 9562TIP3    H228651   5.402   5.123   1.231  0.7287 -1.4164 -1.4444
 9563TIP3   OH228652   6.642   2.951   0.843 -0.6108 -0.0615  0.3110
 9563TIP3    H128653   6.610   2.935   0.754  0.4040  0.1727 -0.1107
 9563TIP3    H228654   6.669   2.865   0.875  0.3166  0.0418 -0.1445
 9564TIP3   OH228655   4.215   3.875   0.512 -0.4325 -0.6010  0.1464
 9564TIP3    H128656   4.301   3.918   0.511 -0.2878 -0.8781  0.6837
 9564TIP3    H228657   4.196   3.860   0.419  0.5083 -1.3426  0.0525
 9565TIP3   OH228658   4.710   6.703   0.516 -0.1036 -0.6317  0.0255
 9565TIP3    H128659   4.773   6.775   0.517 -0.1969 -0.5119  1.9282
 9565TIP3    H228660   4.629   6.741   0.481  0.6181 -0.5753 -1.6415
 9566TIP3   OH228661   4.123   6.666   2.376  0.4322  0.1617 -0.4896
 9566TIP3    H128662   4.054   6.601   2.360 -1.0119  1.1553  1.3045
 9566TIP3    H228663   4.076   6.748   2.390  1.9530  0.8516  0.9218
 9567TIP3   OH228664   0.010   0.300   5.541 -0.0599  0.1858  0.1553
 9567TIP3    H128665   0.098   0.274   5.568  0.1956  0.4368 -0.4214
 9567TIP3    H228666   0.014   0.396   5.536 -0.4109  0.2072  0.2768
 9568TIP3   OH228667   4.719   3.893   0.258  0.4134  0.4257  0.7230
 9568TIP3    H128668   4.765   3.955   0.200  0.0036  0.2921  0.2495
 9568TIP3    H228669   4.734   3.927   0.346  1.0830  0.6093  0.5452
 9569TIP3   OH228670   4.738   5.790   1.741 -0.2740  0.9627  0.2034
 9569TIP3    H128671   4.735   5.748   1.655 -0.0711  1.4950 -0.0720
 9569TIP3    H228672   4.646   5.796   1.768 -0.3322  0.7100  0.0661
 9570TIP3   OH228673   2.059   4.819   0.444  0.2175  0.1634 -0.0335
 9570TIP3    H128674   2.088   4.901   0.403 -1.1731  0.7275  0.0285
 9570TIP3    H228675   1.999   4.780   0.380 -0.2578 -0.0591  0.5349
 9571TIP3   OH228676   1.377   1.866   3.678 -0.1699 -0.2375 -0.1803
 9571TIP3    H128677   1.451   1.923   3.657 -0.1993 -0.1227  0.0289
 9571TIP3    H228678   1.350   1.892   3.766 -2.0950  1.4732 -1.1950
 9572TIP3   OH228679   5.493   4.555   3.828 -0.5844  0.0311  0.3677
 9572TIP3    H128680   5.509   4.577   3.736  2.1558 -2.9621 -0.0530
 9572TIP3    H228681   5.455   4.467   3.825 -0.1834 -0.2356  2.1279
 9573TIP3   OH228682   4.780   5.743   0.754  0.7980  0.5271 -0.0708
 9573TIP3    H128683   4.827   5.694   0.822 -0.3760  0.0080  0.3961
 9573TIP3    H228684   4.799   5.835   0.773  0.1233  0.4178  1.2695
 9574TIP3   OH228685   4.492   3.748   3.077  0.2207 -0.7307  0.0966
 9574TIP3    H128686   4.443   3.686   3.024  0.0808  0.6418 -1.4553
 9574TIP3    H228687   4.563   3.778   3.020 -0.4535  1.4482  0.2889
 9575TIP3   OH228688   4.204   1.965   4.416 -0.1360  0.2413  0.1269
 9575TIP3    H128689   4.152   1.996   4.342 -0.9539 -0.5691  0.3345
 9575TIP3    H228690   4.295   1.984   4.392 -0.4283  0.4419 -0.8607
 9576TIP3   OH228691   3.450   4.437   0.014  0.3178 -0.6989 -0.3331
 9576TIP3    H128692   3.390   4.499   0.056  0.2677  0.1458 -1.5998
 9576TIP3    H228693   3.403   4.353   0.016 -0.5113 -0.2511 -0.4503
 9577TIP3   OH228694   0.675   3.487   3.672  0.4935  0.6399 -0.2285
 9577TIP3    H128695   0.703   3.570   3.634 -1.3818  0.7343 -1.5440
 9577TIP3    H228696   0.671   3.426   3.598  1.2704 -0.4781  0.6219
 9578TIP3   OH228697   2.841   4.077   1.706 -0.1508  0.0408  1.1235
 9578TIP3    H128698   2.791   4.151   1.741 -0.5197 -0.1417  0.9848
 9578TIP3    H228699   2.775   4.020   1.667  0.1982 -0.0586  0.6713
 9579TIP3   OH228700   2.644   4.239   3.302 -0.1588  0.2509 -0.6640
 9579TIP3    H128701   2.558   4.199   3.309  0.2990 -0.6943 -0.1680
 9579TIP3    H228702   2.629   4.333   3.312 -1.0694  0.0555 -0.1114
 9580TIP3   OH228703   0.244   1.692   2.153 -0.2972 -0.1038 -0.2505
 9580TIP3    H128704   0.284   1.624   2.208 -0.0769 -2.1946 -2.8124
 9580TIP3    H228705   0.301   1.769   2.166  0.3824 -0.8455  1.5309
 9581TIP3   OH228706   0.840   0.738   5.047  0.0620  0.2362  0.0240
 9581TIP3    H128707   0.758   0.783   5.024 -0.6202 -1.9981 -2.2905
 9581TIP3    H228708   0.813   0.667   5.105  0.4682 -0.1536 -0.2639
 9582TIP3   OH228709   1.547   3.691   2.778  0.7489  0.0345  0.1553
 9582TIP3    H128710   1.530   3.779   2.742 -1.6343 -0.1583  0.6814
 9582TIP3    H228711   1.496   3.688   2.858  1.4776 -1.5782  0.5911
 9583TIP3   OH228712   3.166   2.787   4.306  0.1581 -0.5234 -0.6089
 9583TIP3    H128713   3.243   2.843   4.292 -1.1780  1.3589 -0.7333
 9583TIP3    H228714   3.093   2.848   4.317 -1.9043 -2.2075 -3.5714
 9584TIP3   OH228715   5.085   1.833   0.861 -0.3673 -0.3752 -0.1224
 9584TIP3    H128716   5.077   1.926   0.880 -0.3202 -0.3928 -0.0177
 9584TIP3    H228717   5.097   1.829   0.766 -1.0535 -0.3141 -0.2156
 9585TIP3   OH228718   3.970   6.253   4.204  0.2740  0.1734  0.0152
 9585TIP3    H128719   3.911   6.318   4.242  0.6390  0.4117  0.1847
 9585TIP3    H228720   4.058   6.285   4.226  0.4883  0.1783 -0.7932
 9586TIP3   OH228721   0.874   1.440   5.612 -0.3387 -0.5438  0.3796
 9586TIP3    H128722   0.873   1.370   5.678  2.2912 -0.0026  1.1453
 9586TIP3    H228723   0.935   1.408   5.546 -2.2346 -0.6683 -1.3808
 9587TIP3   OH228724   5.358   2.942   1.719 -0.4681  0.0835 -0.0607
 9587TIP3    H128725   5.276   2.913   1.758 -0.8122  0.4863 -0.4711
 9587TIP3    H228726   5.333   3.017   1.665  0.1147 -0.0032 -0.4567
 9588TIP3   OH228727   5.600   4.751   2.482 -0.1345  0.6573  0.2938
 9588TIP3    H128728   5.608   4.829   2.426 -2.4134  0.0804 -0.9584
 9588TIP3    H228729   5.687   4.710   2.478  0.3168  1.6699 -1.2981
 9589TIP3   OH228730   3.234   3.385   5.558 -0.0644  0.2529 -0.1537
 9589TIP3    H128731   3.154   3.386   5.505 -0.1277 -0.3501 -0.0805
 9589TIP3    H228732   3.297   3.338   5.503 -0.4802 -1.4776  0.7814
 9590TIP3   OH228733   3.775   0.240   0.507  0.3755 -0.2997 -0.4939
 9590TIP3    H128734   3.849   0.181   0.522  0.5749  0.1205  0.1991
 9590TIP3    H228735   3.810   0.328   0.520  0.3668  0.0867 -2.6396
 9591TIP3   OH228736   6.697   5.713   5.697  0.1022  0.7089 -0.4092
 9591TIP3    H128737   6.782   5.711   5.742  0.2415  0.2482 -0.6827
 9591TIP3    H228738   6.642   5.770   5.751  0.7179  1.3652 -0.4630
 9592TIP3   OH228739   6.112   3.146   0.971  0.5768 -0.8513  1.2409
 9592TIP3    H128740   6.111   3.221   0.912 -0.2840 -2.6813 -1.2356
 9592TIP3    H228741   6.205   3.125   0.980  0.7180 -0.6004  0.4558
 9593TIP3   OH228742   5.594   0.534   5.493  0.1460  0.4714  0.6537
 9593TIP3    H128743   5.615   0.531   5.400  0.2105  0.2911  0.6734
 9593TIP3    H228744   5.678   0.516   5.537  0.2441  1.1538  0.7576
 9594TIP3   OH228745   5.160   3.973   0.325  0.1241  0.1680 -0.6448
 9594TIP3    H128746   5.087   4.034   0.340  1.8661  2.3065 -0.4227
 9594TIP3    H228747   5.120   3.899   0.278 -2.2022  1.1741 -0.3853
 9595TIP3   OH228748   3.763   2.680   4.334 -0.8598  0.2907 -0.0087
 9595TIP3    H128749   3.843   2.657   4.381 -0.7862  1.3809  0.4407
 9595TIP3    H228750   3.710   2.600   4.336  0.7859 -0.9198 -1.5882
 9596TIP3   OH228751   4.684   5.447   2.443 -0.3968 -0.4482 -0.4872
 9596TIP3    H128752   4.768   5.401   2.443 -0.1748 -0.0425 -0.3190
 9596TIP3    H228753   4.629   5.396   2.383  0.2652 -0.1665 -1.3508
 9597TIP3   OH228754   2.752   5.236   0.236  0.8390  0.1962 -0.0987
 9597TIP3    H128755   2.709   5.244   0.321  0.5099 -1.0115 -0.1314
 9597TIP3    H228756   2.680   5.228   0.174  1.0642 -0.8650 -0.2555
 9598TIP3   OH228757   4.018   1.810   2.067 -0.0315 -0.1068  0.0210
 9598TIP3    H128758   3.963   1.886   2.046 -1.7288 -1.4030 -0.4352
 9598TIP3    H228759   3.965   1.757   2.126  0.7342 -1.4075 -0.4151
 9599TIP3   OH228760   4.544   4.713   1.966  0.4880 -0.4262 -0.1982
 9599TIP3    H128761   4.528   4.680   1.877  1.6552 -0.1253 -0.5436
 9599TIP3    H228762   4.511   4.803   1.964  1.8730  0.1103 -0.8312
 9600TIP3   OH228763   3.266   3.936   3.478  0.3403 -0.5076 -0.7208
 9600TIP3    H128764   3.333   4.004   3.481  0.7654 -0.8272 -2.1299
 9600TIP3    H228765   3.257   3.907   3.569  1.4164  0.2152 -0.3638
 9601TIP3   OH228766   4.106   1.753   5.154  0.0610 -0.3419 -0.0397
 9601TIP3    H128767   4.026   1.799   5.130  0.1188 -1.5781 -3.0308
 9601TIP3    H228768   4.136   1.797   5.234 -2.5094  1.4295  0.0755
 9602TIP3   OH228769   1.329   3.887   0.625  0.1044  0.2006  0.2169
 9602TIP3    H128770   1.387   3.960   0.605  0.7428  0.0917  1.5621
 9602TIP3    H228771   1.351   3.862   0.715 -2.3269  0.4404  0.9761
 9603TIP3   OH228772   6.500   3.598   5.157  0.2161  0.3345  0.2597
 9603TIP3    H128773   6.461   3.679   5.123  0.6683  0.9744  1.2286
 9603TIP3    H228774   6.471   3.593   5.248 -0.7087 -1.1938 -0.0848
 9604TIP3   OH228775   0.541   2.309   4.539 -0.1935 -0.0205 -0.3322
 9604TIP3    H128776   0.449   2.286   4.533 -0.1027 -0.2883 -0.7376
 9604TIP3    H228777   0.588   2.232   4.506  0.0949  0.9568 -2.3767
 9605TIP3   OH228778   4.990   1.528   5.250  0.1926 -0.0826  0.2032
 9605TIP3    H128779   5.054   1.599   5.256  0.2131 -0.2007  2.6917
 9605TIP3    H228780   4.920   1.562   5.195  1.4127  0.8358 -0.8280
 9606TIP3   OH228781   5.885   3.927   2.240 -0.8145 -0.1172 -0.8168
 9606TIP3    H128782   5.856   3.986   2.171 -0.9120 -1.7744 -2.2656
 9606TIP3    H228783   5.883   3.840   2.200  1.7377 -0.8527  0.4262
 9607TIP3   OH228784   3.809   1.809   5.321  0.5028 -0.2636 -0.1426
 9607TIP3    H128785   3.837   1.808   5.413 -0.8175  0.5050  0.2884
 9607TIP3    H228786   3.795   1.901   5.301  0.0946 -0.4883 -0.9082
 9608TIP3   OH228787   0.280   1.368   3.100 -0.0245 -0.0148  0.3332
 9608TIP3    H128788   0.189   1.338   3.111 -0.5993  1.6503  0.3262
 9608TIP3    H228789   0.327   1.328   3.174 -0.7021 -1.0397  0.2390
 9609TIP3   OH228790   5.992   0.874   0.217  0.8608 -0.3126  0.3520
 9609TIP3    H128791   6.010   0.842   0.129  0.7926 -0.4100  0.3723
 9609TIP3    H228792   5.903   0.844   0.236  0.8164 -0.1555  0.3930
 9610TIP3   OH228793   2.250   5.086   1.525 -0.0682  0.1610 -0.2293
 9610TIP3    H128794   2.168   5.134   1.517 -1.1451 -1.0350  2.4929
 9610TIP3    H228795   2.223   4.994   1.533  1.6354 -0.3934 -0.4306
 9611TIP3   OH228796   4.602   4.255   1.211  0.0001 -0.4298  0.3690
 9611TIP3    H128797   4.631   4.296   1.293  0.2466  0.3168 -0.0858
 9611TIP3    H228798   4.510   4.280   1.203 -0.0700 -0.6428  0.4989
 9612TIP3   OH228799   4.728   2.762   2.611 -0.6572  0.2673  0.3248
 9612TIP3    H128800   4.779   2.714   2.676 -1.1512  0.3730  0.7947
 9612TIP3    H228801   4.673   2.821   2.662 -1.1994  0.2054 -0.1780
 9613TIP3   OH228802   3.610   1.790   3.121 -0.4586  0.3873  0.2504
 9613TIP3    H128803   3.678   1.724   3.124  0.2561  0.9530 -1.9100
 9613TIP3    H228804   3.540   1.751   3.070 -0.7093  0.7140  0.3366
 9614TIP3   OH228805   4.958   6.021   2.998  0.7273 -0.3530  0.1589
 9614TIP3    H128806   4.997   5.934   2.995  1.4078 -0.0589  0.1711
 9614TIP3    H228807   5.025   6.079   2.961  0.7437  0.3128  1.1716
 9615TIP3   OH228808   4.815   6.478   4.343 -0.7165 -0.1783  0.4931
 9615TIP3    H128809   4.849   6.415   4.407  0.5465 -0.0417 -0.0108
 9615TIP3    H228810   4.877   6.472   4.269 -0.8794  1.2626  0.2253
 9616TIP3   OH228811   5.782   5.029   4.178 -0.0981  0.0645 -0.0569
 9616TIP3    H128812   5.692   5.007   4.157 -0.8719  1.5491  1.4447
 9616TIP3    H228813   5.779   5.054   4.271  1.6500  1.1840 -0.2579
 9617TIP3   OH228814   5.291   4.970   3.058  0.0216 -0.3151  0.1463
 9617TIP3    H128815   5.326   4.995   3.143 -1.0462 -0.5694  0.6670
 9617TIP3    H228816   5.285   4.875   3.061 -0.9585 -0.2679  0.1837
 9618TIP3   OH228817   5.970   6.066   5.192 -0.4440  0.1908  0.1236
 9618TIP3    H128818   6.040   6.002   5.198 -0.4065  0.2730  0.6360
 9618TIP3    H228819   5.923   6.044   5.112 -0.0640 -0.0999 -0.0179
 9619TIP3   OH228820   6.281   2.351   1.691  0.4139  0.3640  0.1804
 9619TIP3    H128821   6.203   2.399   1.665  0.7503  0.7827 -0.0792
 9619TIP3    H228822   6.296   2.288   1.620  2.7520  3.1498 -2.0533
 9620TIP3   OH228823   5.944   1.557   4.636 -0.3115  0.2253  0.5235
 9620TIP3    H128824   5.989   1.614   4.699  0.0452 -0.1997  0.6582
 9620TIP3    H228825   5.968   1.468   4.663  0.6662  0.0555 -0.8122
 9621TIP3   OH228826   0.100   4.551   2.107 -0.1146 -0.6076  0.0579
 9621TIP3    H128827   0.010   4.532   2.082  0.0839 -1.9490  0.2631
 9621TIP3    H228828   0.092   4.614   2.179 -0.8488 -0.0900 -0.4690
 9622TIP3   OH228829   2.331   1.154   2.479 -0.3106  0.3863  0.4071
 9622TIP3    H128830   2.396   1.087   2.500 -1.2320 -0.4107  0.7390
 9622TIP3    H228831   2.360   1.189   2.395  1.0091  0.6220  0.9253
 9623TIP3   OH228832   3.057   1.884   1.654  0.0767 -0.5737 -0.0033
 9623TIP3    H128833   2.971   1.923   1.642  0.7225  0.4810 -1.5203
 9623TIP3    H228834   3.056   1.849   1.743 -1.7628 -0.2336  0.1353
 9624TIP3   OH228835   1.835   3.860   0.978 -0.6390  0.7744  0.1102
 9624TIP3    H128836   1.843   3.771   1.010 -1.9502  0.0737 -1.4168
 9624TIP3    H228837   1.917   3.876   0.930 -0.4702  0.3502  0.2559
 9625TIP3   OH228838   3.839   3.472   5.747 -0.6272  0.5381  0.2040
 9625TIP3    H128839   3.760   3.476   5.693 -0.5913 -0.4445  0.0579
 9625TIP3    H228840   3.883   3.391   5.719 -1.1606 -0.6060  2.4383
 9626TIP3   OH228841   6.123   1.739   1.776 -0.2527 -0.1275  0.3693
 9626TIP3    H128842   6.092   1.782   1.696  0.9576 -1.4065 -0.8401
 9626TIP3    H228843   6.111   1.805   1.845 -0.4675  1.3392 -1.0171
 9627TIP3   OH228844   0.216   5.438   2.458 -0.1390  0.3820  0.7595
 9627TIP3    H128845   0.214   5.454   2.363  0.1490 -0.2241  0.6467
 9627TIP3    H228846   0.186   5.348   2.467 -1.3588  0.8315  1.3527
 9628TIP3   OH228847   4.293   5.949   5.817  0.0412 -0.0248 -0.5056
 9628TIP3    H128848   4.293   5.935   5.723  1.4372  2.7150 -1.0151
 9628TIP3    H228849   4.227   6.017   5.831 -0.5300 -0.7662  0.6024
 9629TIP3   OH228850   2.750   6.474   3.343 -0.3861  0.3539 -0.0551
 9629TIP3    H128851   2.827   6.527   3.325 -0.5922  1.0669  1.0407
 9629TIP3    H228852   2.753   6.458   3.438 -0.4194 -1.4819 -0.3289
 9630TIP3   OH228853   0.199   4.569   3.574 -0.1618  0.3328  0.5978
 9630TIP3    H128854   0.106   4.563   3.553 -0.0763  1.5418 -0.2116
 9630TIP3    H228855   0.238   4.491   3.533 -0.5547  0.7894 -0.7039
 9631TIP3   OH228856   3.586   1.203   5.583 -0.1295  0.3062  0.0997
 9631TIP3    H128857   3.629   1.150   5.516  1.8488 -0.3031  1.7647
 9631TIP3    H228858   3.576   1.289   5.542 -0.6393 -0.4990 -1.5773
 9632TIP3   OH228859   2.374   1.254   0.846 -0.2027 -1.0101  0.4470
 9632TIP3    H128860   2.416   1.239   0.761 -0.0110 -1.4790  0.6218
 9632TIP3    H228861   2.381   1.170   0.891 -0.4702 -0.8144  0.8558
 9633TIP3   OH228862   1.531   6.093   4.287 -0.3547 -0.7108  0.4086
 9633TIP3    H128863   1.530   6.077   4.192 -1.2021 -0.7823  0.4270
 9633TIP3    H228864   1.617   6.061   4.315  0.6094  0.8178 -0.5938
 9634TIP3   OH228865   1.004   2.659   4.117 -0.4162 -0.2584  0.2481
 9634TIP3    H128866   1.046   2.599   4.180  0.9673  2.0260  1.6774
 9634TIP3    H228867   1.077   2.699   4.071 -1.1245  1.7992  0.8092
 9635TIP3   OH228868   0.298   4.281   0.973  0.3664 -0.2258  0.1826
 9635TIP3    H128869   0.367   4.335   0.935 -1.1316  1.2427 -0.6245
 9635TIP3    H228870   0.285   4.210   0.911 -0.5635  0.9387 -1.0189
 9636TIP3   OH228871   4.874   5.739   4.967  0.2818 -0.2746 -0.2618
 9636TIP3    H128872   4.850   5.657   5.011  3.4251 -1.1006  0.1448
 9636TIP3    H228873   4.893   5.712   4.877  2.1928 -0.2374  0.0894
 9637TIP3   OH228874   0.854   6.115   3.861 -0.5245 -0.4024 -0.0887
 9637TIP3    H128875   0.886   6.070   3.939 -1.0334  0.3144  0.5453
 9637TIP3    H228876   0.794   6.181   3.894 -3.0518 -1.9458 -1.2465
 9638TIP3   OH228877   2.521   5.586   4.569  0.1360 -0.2135 -0.6255
 9638TIP3    H128878   2.470   5.558   4.645 -0.5536 -0.3103 -1.1129
 9638TIP3    H228879   2.611   5.591   4.601  0.0421 -1.4165 -0.0971
 9639TIP3   OH228880   6.401   0.890   5.473  0.2971  0.2270  0.2515
 9639TIP3    H128881   6.385   0.798   5.452  0.6563  0.2266 -0.0202
 9639TIP3    H228882   6.467   0.889   5.542  0.4348  0.2880  0.1205
 9640TIP3   OH228883   0.309   3.600   3.481 -0.2218  0.9038 -0.1025
 9640TIP3    H128884   0.404   3.595   3.490 -0.1442  0.9440 -0.8683
 9640TIP3    H228885   0.294   3.644   3.397 -0.9224  2.6658  0.8781
 9641TIP3   OH228886   3.087   6.516   0.552  0.1163  0.3197  0.1004
 9641TIP3    H128887   3.157   6.568   0.511  0.8753  0.1707  1.1646
 9641TIP3    H228888   3.033   6.581   0.597  0.9338  0.2340  1.2392
 9642TIP3   OH228889   2.865   5.640   4.957 -0.2023 -0.0844  0.3309
 9642TIP3    H128890   2.901   5.722   4.990 -2.8770  0.9233  1.0206
 9642TIP3    H228891   2.892   5.574   5.020 -0.7863  0.8847  1.6328
 9643TIP3   OH228892   2.597   5.133   2.901  0.8071  0.1946 -0.1882
 9643TIP3    H128893   2.557   5.057   2.858  1.7628 -0.4314  0.0000
 9643TIP3    H228894   2.629   5.099   2.985 -0.5560  1.2763  0.8227
 9644TIP3   OH228895   4.791   0.996   1.803  0.1142  0.0182 -0.1772
 9644TIP3    H128896   4.736   0.997   1.881  0.8772  0.3266  0.3657
 9644TIP3    H228897   4.729   1.004   1.730 -0.7186 -1.3731  0.3165
 9645TIP3   OH228898   5.772   1.779   1.805  0.4696  0.1627  0.1884
 9645TIP3    H128899   5.822   1.840   1.860  0.7212 -0.3257  0.5034
 9645TIP3    H228900   5.710   1.738   1.865 -0.3065  0.7405 -0.1934
 9646TIP3   OH228901   5.922   5.667   4.964  0.0113  0.2683 -0.1995
 9646TIP3    H128902   5.840   5.715   4.954 -0.9260 -0.4883  2.8929
 9646TIP3    H228903   5.898   5.575   4.954  0.0591 -0.0891  2.3319
 9647TIP3   OH228904   5.411   2.646   2.239 -0.7042 -0.2246 -0.4676
 9647TIP3    H128905   5.356   2.724   2.245  1.0329  1.1478 -1.2464
 9647TIP3    H228906   5.491   2.669   2.286  0.1868 -1.2047 -1.4196
 9648TIP3   OH228907   5.081   2.910   1.821  0.1371  0.4056 -0.1230
 9648TIP3    H128908   5.092   2.816   1.831 -0.8312  0.1797 -1.0145
 9648TIP3    H228909   4.987   2.923   1.812  0.0211  1.7363  2.3132
 9649TIP3   OH228910   4.310   4.620   4.651 -0.0653  0.6387 -0.3591
 9649TIP3    H128911   4.248   4.558   4.612 -0.5512  1.4402 -0.8745
 9649TIP3    H228912   4.258   4.698   4.668  0.8227  1.3561 -0.8766
 9650TIP3   OH228913   4.629   4.662   1.147 -0.5907 -0.3320  0.0079
 9650TIP3    H128914   4.634   4.723   1.220  0.0413 -0.5814  0.1804
 9650TIP3    H228915   4.557   4.603   1.170 -0.9461  0.1082  0.0239
 9651TIP3   OH228916   2.930   5.044   1.988 -0.2118 -0.0543  0.3013
 9651TIP3    H128917   2.850   5.005   1.954  1.2986 -2.2362 -0.9481
 9651TIP3    H228918   2.900   5.112   2.048 -2.9732  0.1270 -1.1581
 9652TIP3   OH228919   2.303   1.663   0.875 -0.2468 -0.6677  0.5195
 9652TIP3    H128920   2.395   1.659   0.851 -0.3358  1.2647 -0.2578
 9652TIP3    H228921   2.294   1.597   0.945  1.9017 -0.2447  1.2654
 9653TIP3   OH228922   1.411   0.063   3.668  0.1027  0.3073 -0.2871
 9653TIP3    H128923   1.368   0.042   3.585  0.9774 -0.0166 -0.6718
 9653TIP3    H228924   1.457  -0.017   3.693  0.6634  0.7033 -0.0089
 9654TIP3   OH228925   3.554   3.715   5.532 -0.2931 -0.3711 -0.1616
 9654TIP3    H128926   3.474   3.730   5.481  0.1037  0.3919 -0.5689
 9654TIP3    H228927   3.604   3.652   5.480 -0.4955 -0.6307 -0.0450
 9655TIP3   OH228928   4.501   2.004   2.776  0.2068 -0.1528  0.0047
 9655TIP3    H128929   4.471   1.913   2.782 -3.6841  0.8838 -0.4321
 9655TIP3    H228930   4.489   2.038   2.865  0.2722  0.2617 -0.1472
 9656TIP3   OH228931   2.084   0.935   2.824  0.1554 -0.9273  0.1336
 9656TIP3    H128932   2.077   0.844   2.853  2.1195 -1.0411  0.4137
 9656TIP3    H228933   2.157   0.970   2.875  0.6837  0.2306 -1.3554
 9657TIP3   OH228934   0.477   0.969   4.746 -0.1113 -0.2393  0.3991
 9657TIP3    H128935   0.547   1.033   4.760 -1.3574  1.5052 -0.8024
 9657TIP3    H228936   0.474   0.958   4.651 -0.8647 -0.9865  0.4975
 9658TIP3   OH228937   1.583   6.236   1.122 -0.2184  0.1350  0.1695
 9658TIP3    H128938   1.608   6.173   1.054 -0.5460 -0.9699  1.0529
 9658TIP3    H228939   1.492   6.214   1.143 -0.1729  0.5759  0.8484
 9659TIP3   OH228940   6.183   0.423   3.312 -0.4296  0.4622  0.0853
 9659TIP3    H128941   6.117   0.489   3.292 -1.2210 -0.1128  0.7646
 9659TIP3    H228942   6.233   0.461   3.385 -0.9009  0.3065  0.4947
 9660TIP3   OH228943   6.725   4.477   3.524  0.1438  0.0622  0.6299
 9660TIP3    H128944   6.777   4.408   3.484 -0.6197  0.1197 -0.4837
 9660TIP3    H228945   6.781   4.511   3.595  1.6613  0.1983 -0.5876
 9661TIP3   OH228946   3.007   2.879   2.758 -0.1777 -0.1900 -0.0901
 9661TIP3    H128947   2.916   2.850   2.765 -0.4146  0.5367 -0.0580
 9661TIP3    H228948   3.007   2.939   2.684  0.5627 -1.2282 -0.9554
 9662TIP3   OH228949   4.971   3.999   3.592 -0.0907 -0.5469  0.1668
 9662TIP3    H128950   4.931   3.988   3.679  0.0053 -1.0954  0.1469
 9662TIP3    H228951   4.897   4.021   3.535 -0.1217  0.0291  0.4272
 9663TIP3   OH228952   2.944   1.117   0.487 -0.0804 -0.3397  0.2855
 9663TIP3    H128953   3.014   1.169   0.527 -1.0227  0.8434  0.4392
 9663TIP3    H228954   2.937   1.040   0.543  1.7060 -0.9646 -0.2549
 9664TIP3   OH228955   1.144   6.675   0.573 -0.2416  0.8520 -0.1770
 9664TIP3    H128956   1.137   6.759   0.619 -0.9165  1.2860 -1.0401
 9664TIP3    H228957   1.238   6.656   0.573 -0.3636 -0.4896  3.6393
 9665TIP3   OH228958   4.798   2.035   5.609  0.0741  0.1519 -0.0184
 9665TIP3    H128959   4.891   2.055   5.599 -0.3431  2.0416 -0.4067
 9665TIP3    H228960   4.789   1.944   5.579  1.4932  0.5158 -1.6631
 9666TIP3   OH228961   2.719   3.582   0.152 -0.1127 -0.5116 -0.4239
 9666TIP3    H128962   2.792   3.571   0.213  0.1834 -1.5977 -0.9339
 9666TIP3    H228963   2.726   3.507   0.093 -0.6303  0.2818 -1.5424
 9667TIP3   OH228964   6.968   0.088   2.356 -0.1180 -0.1134 -0.3632
 9667TIP3    H128965   7.051   0.053   2.389 -1.0317  0.0510  2.2866
 9667TIP3    H228966   6.988   0.116   2.266  2.6526 -0.1838  0.1502
 9668TIP3   OH228967   3.455   3.191   2.555  0.9321  0.5292 -0.3386
 9668TIP3    H128968   3.540   3.166   2.591  1.2581  3.1828  0.9468
 9668TIP3    H228969   3.472   3.273   2.509 -0.9986  1.2916  0.2279
 9669TIP3   OH228970   4.830   0.033   1.761 -0.2879  0.2872  0.0012
 9669TIP3    H128971   4.753   0.068   1.716 -1.7157 -1.6801  0.8010
 9669TIP3    H228972   4.899   0.098   1.743 -1.7869  1.5193 -1.7195
 9670TIP3   OH228973   6.767   5.045   1.137  0.2440  0.3010 -0.3064
 9670TIP3    H128974   6.800   4.982   1.201 -1.6627  0.9643  1.4479
 9670TIP3    H228975   6.774   4.999   1.053  1.7836 -1.0316  0.4906
 9671TIP3   OH228976   3.708   3.419   2.798  0.2330  0.1919  1.0119
 9671TIP3    H128977   3.634   3.359   2.806  0.2259 -0.2491 -1.4933
 9671TIP3    H228978   3.758   3.407   2.879 -0.7157 -1.9112  1.3483
 9672TIP3   OH228979   1.014   3.281   3.871 -0.0365 -0.2315 -0.3058
 9672TIP3    H128980   1.037   3.337   3.797 -0.5518 -1.1147 -1.1467
 9672TIP3    H228981   1.068   3.314   3.943  0.7582  0.3935 -1.1637
 9673TIP3   OH228982   2.695   1.262   3.035  0.2228 -0.6356 -0.2423
 9673TIP3    H128983   2.608   1.226   3.016  0.2385 -0.6629 -0.2621
 9673TIP3    H228984   2.744   1.188   3.071  0.4447 -0.7876 -0.8515
 9674TIP3   OH228985   5.971   0.417   3.500 -0.5987 -0.4728  0.2353
 9674TIP3    H128986   6.044   0.384   3.447  0.1210  1.7092 -0.2311
 9674TIP3    H228987   5.963   0.353   3.571  3.2566  0.2250  1.5679
 9675TIP3   OH228988   0.583   6.010   4.273  0.5083 -0.5797 -0.1349
 9675TIP3    H128989   0.575   5.923   4.313  0.1352 -1.4358 -1.9530
 9675TIP3    H228990   0.584   5.992   4.178 -0.8313  1.4760 -0.5960
 9676TIP3   OH228991   4.280   2.830   0.339  0.0390 -0.0870  0.1324
 9676TIP3    H128992   4.325   2.910   0.365 -0.0949  0.1124 -0.2332
 9676TIP3    H228993   4.345   2.781   0.289  0.4464 -0.6911  1.2338
 9677TIP3   OH228994   6.828   0.612   2.242  0.0895  0.2993  0.0188
 9677TIP3    H128995   6.770   0.621   2.166  1.8808  0.1697 -1.4209
 9677TIP3    H228996   6.796   0.678   2.304 -1.0895  0.7867 -1.0535
 9678TIP3   OH228997   1.274   5.171   5.630  0.3539 -0.2822 -0.0155
 9678TIP3    H128998   1.193   5.149   5.584 -0.1686 -0.7700  1.1258
 9678TIP3    H228999   1.328   5.092   5.623  0.2733 -0.3573  0.2160
 9679TIP3   OH229000   3.882   3.668   3.255 -0.1599 -0.6250 -0.2679
 9679TIP3    H129001   3.859   3.757   3.283  0.9170  0.5868 -2.8332
 9679TIP3    H229002   3.973   3.656   3.282 -0.1709 -0.7689 -0.2915
 9680TIP3   OH229003   3.682   3.947   4.330 -0.8524  0.0010 -0.5761
 9680TIP3    H129004   3.724   4.010   4.272  2.5622 -1.3818  0.1654
 9680TIP3    H229005   3.666   3.870   4.275  0.0347 -0.3985 -0.2901
 9681TIP3   OH229006   2.365   0.293   2.890  0.5498  0.2366  0.1415
 9681TIP3    H129007   2.458   0.294   2.914  0.6879 -0.3080 -0.3483
 9681TIP3    H229008   2.349   0.377   2.847  0.3882  1.0799  1.7729
 9682TIP3   OH229009   4.710   4.589   5.437 -0.5806  0.3427  0.0139
 9682TIP3    H129010   4.672   4.638   5.364  0.1411  2.3774  0.9512
 9682TIP3    H229011   4.803   4.585   5.416 -0.5637 -0.2633  0.1837
 9683TIP3   OH229012   0.809   3.948   4.726  0.2406 -0.8711  0.0264
 9683TIP3    H129013   0.869   3.948   4.652 -0.5354 -0.1416 -0.6192
 9683TIP3    H229014   0.740   3.886   4.700  0.6640 -1.6589  0.7352
 9684TIP3   OH229015   0.460   6.243   1.601 -0.3094  0.2763  0.1997
 9684TIP3    H129016   0.472   6.252   1.506  0.2578  0.0646  0.2508
 9684TIP3    H229017   0.480   6.152   1.620 -1.0448  0.1527  0.4410
 9685TIP3   OH229018   0.702   1.812   1.639  0.3251  0.7675  0.2782
 9685TIP3    H129019   0.704   1.855   1.554  2.1433  1.7222  0.7412
 9685TIP3    H229020   0.614   1.830   1.673 -0.1535  1.0541 -1.0401
 9686TIP3   OH229021   4.805   1.732   2.174  0.2343 -0.0291 -0.0720
 9686TIP3    H129022   4.809   1.827   2.165 -0.5005  0.1321  1.1229
 9686TIP3    H229023   4.890   1.707   2.210  0.3144  0.2153 -0.0945
 9687TIP3   OH229024   1.439   6.756   0.258  0.4608 -0.1811  0.5099
 9687TIP3    H129025   1.442   6.790   0.347  1.9077  0.9272  0.0911
 9687TIP3    H229026   1.488   6.674   0.262 -0.7974 -0.9258  1.0160
 9688TIP3   OH229027   2.714   1.948   0.550 -0.2454  0.0416  0.0169
 9688TIP3    H129028   2.728   2.020   0.489 -4.1057  0.8040 -0.2202
 9688TIP3    H229029   2.760   1.975   0.629 -0.0681  1.9302 -0.6773
 9689TIP3   OH229030   3.250   4.043   1.868 -0.2351  0.6967  0.1949
 9689TIP3    H129031   3.169   4.093   1.872 -0.0458  0.9884  0.4165
 9689TIP3    H229032   3.283   4.059   1.779 -1.2754 -0.7884 -0.5016
 9690TIP3   OH229033   4.485   1.830   3.271 -0.3592 -0.6172 -0.0200
 9690TIP3    H129034   4.529   1.909   3.240 -0.8346 -0.6744 -0.8716
 9690TIP3    H229035   4.504   1.765   3.203 -0.4196 -1.0799  0.4091
 9691TIP3   OH229036   6.950   5.650   2.237  0.2358 -0.0258 -0.2191
 9691TIP3    H129037   6.986   5.722   2.185  1.0819 -1.9986 -2.5822
 9691TIP3    H229038   6.857   5.649   2.215 -0.4792  2.1698  2.2574
 9692TIP3   OH229039   4.939   3.522   1.139  0.3960 -0.5616 -0.2859
 9692TIP3    H129040   4.942   3.475   1.055 -0.6149  0.1521 -0.7440
 9692TIP3    H229041   4.847   3.547   1.149  0.6854  0.2354  0.5578
 9693TIP3   OH229042   6.662   0.784   0.095  0.0736  0.2679 -0.0689
 9693TIP3    H129043   6.728   0.846   0.064 -0.9046  1.3351 -0.0651
 9693TIP3    H229044   6.593   0.786   0.029 -0.0803 -0.6568  0.0432
 9694TIP3   OH229045   3.072   2.396   4.670  0.0958 -0.3318  0.3679
 9694TIP3    H129046   3.083   2.301   4.672 -1.0362 -0.4766  0.6362
 9694TIP3    H229047   3.068   2.418   4.577  1.9187 -0.3227  0.2588
 9695TIP3   OH229048   5.422   1.861   2.385  0.2141  0.1366  1.0331
 9695TIP3    H129049   5.376   1.784   2.350  0.0672 -0.1268  1.7793
 9695TIP3    H229050   5.377   1.879   2.468  2.0897 -0.7821  2.3173
 9696TIP3   OH229051   5.146   1.733   4.523 -0.5365  0.3779  0.5217
 9696TIP3    H129052   5.176   1.767   4.607  1.3321  2.0430 -0.7056
 9696TIP3    H229053   5.106   1.809   4.480 -0.9833 -0.3114 -0.3172
 9697TIP3   OH229054   4.866   3.369   2.219  0.0753 -0.3919 -0.4484
 9697TIP3    H129055   4.836   3.366   2.310 -1.0401  1.4335 -0.7091
 9697TIP3    H229056   4.835   3.453   2.186  0.7913 -0.8451 -2.4213
 9698TIP3   OH229057   5.372   0.801   4.141 -0.4383  0.1591  0.1047
 9698TIP3    H129058   5.395   0.763   4.226 -2.2285 -0.0377  0.5400
 9698TIP3    H229059   5.352   0.892   4.160  1.0899  0.6443 -0.4701
 9699TIP3   OH229060   5.109   0.979   0.962  0.2613 -0.0432  0.0369
 9699TIP3    H129061   5.153   0.910   1.012 -0.2613 -2.3033 -2.4308
 9699TIP3    H229062   5.017   0.973   0.990  0.3799  0.3641  0.5379
 9700TIP3   OH229063   2.672   1.804   2.641 -0.2548 -0.1185  0.0330
 9700TIP3    H129064   2.752   1.758   2.615 -0.4837 -0.0021 -0.9219
 9700TIP3    H229065   2.627   1.742   2.699 -0.2575 -0.8566 -0.7316
 9701TIP3   OH229066   2.417   2.775   2.084 -0.2259 -0.0720 -0.3117
 9701TIP3    H129067   2.427   2.867   2.059  2.2040 -0.1759  0.0781
 9701TIP3    H229068   2.374   2.779   2.169  2.3454  0.9484  1.0678
 9702TIP3   OH229069   1.329   1.940   5.257  0.5880 -0.3434  0.2724
 9702TIP3    H129070   1.275   1.898   5.190  0.9523 -0.2371 -0.0932
 9702TIP3    H229071   1.327   1.880   5.331 -0.4550 -0.1022  0.4542
 9703TIP3   OH229072   1.572   1.992   5.885  0.2132  0.4231 -0.1733
 9703TIP3    H129073   1.497   1.936   5.907 -0.3035  1.3522  0.4700
 9703TIP3    H229074   1.554   2.020   5.795  0.4165 -0.3336 -0.4598
 9704TIP3   OH229075   2.068   0.674   3.503  0.3570 -0.1629  0.0589
 9704TIP3    H129076   2.150   0.644   3.542  0.3604  0.5828  0.6495
 9704TIP3    H229077   2.070   0.639   3.413  1.5655  0.2727 -0.1077
 9705TIP3   OH229078   3.363   0.713   2.934 -0.2493  0.2635  0.1170
 9705TIP3    H129079   3.342   0.703   3.027  2.1612 -2.1696  0.5283
 9705TIP3    H229080   3.282   0.690   2.889 -1.2043  0.6040  1.5924
 9706TIP3   OH229081   4.993   5.564   4.278 -0.4048  0.3215  0.2583
 9706TIP3    H129082   5.051   5.635   4.253 -1.2927  1.3262  0.9604
 9706TIP3    H229083   4.905   5.596   4.256 -0.7009 -1.5511 -1.7409
 9707TIP3   OH229084   1.103   5.301   4.477  0.0988 -0.0634  0.3378
 9707TIP3    H129085   1.154   5.316   4.556 -0.5518  0.4556  0.6723
 9707TIP3    H229086   1.165   5.262   4.415  0.9211  0.6512  0.6914
 9708TIP3   OH229087   3.910   2.115   4.365 -0.1905  0.4680 -0.1176
 9708TIP3    H129088   3.844   2.047   4.350  1.1242 -1.0818  0.8692
 9708TIP3    H229089   3.973   2.104   4.293  0.1153  0.5280  0.1398
 9709TIP3   OH229090   6.242   5.757   4.068 -0.0480 -0.0393  0.2927
 9709TIP3    H129091   6.300   5.701   4.016 -1.7025 -0.5122 -1.1662
 9709TIP3    H229092   6.238   5.715   4.154  1.0523 -0.4889  0.1374
 9710TIP3   OH229093   2.071   2.985   4.101 -0.3606  0.3675 -0.4022
 9710TIP3    H129094   2.041   2.898   4.126  0.8760 -0.3316 -1.2679
 9710TIP3    H229095   2.022   3.006   4.021 -1.3149  0.8728  0.2925
 9711TIP3   OH229096   5.034   5.451   0.034  0.4713  0.1758 -0.1406
 9711TIP3    H129097   5.005   5.482  -0.052 -1.3273 -0.8795  0.0402
 9711TIP3    H229098   4.970   5.487   0.096  1.3664  0.3744  0.6996
 9712TIP3   OH229099   2.324   4.032   3.551 -0.3985  0.1338  1.0685
 9712TIP3    H129100   2.378   4.075   3.618  1.9509 -0.9985  0.0102
 9712TIP3    H229101   2.336   4.085   3.472  0.1992 -0.8207  0.4992
 9713TIP3   OH229102   2.655   5.408   3.925 -0.0687  0.4082 -0.8961
 9713TIP3    H129103   2.667   5.501   3.907  1.3247  0.1605 -1.3942
 9713TIP3    H229104   2.589   5.380   3.861  0.1308  0.8825 -1.3169
 9714TIP3   OH229105   4.895   1.771   2.662 -0.0112 -0.6421 -0.0550
 9714TIP3    H129106   4.833   1.842   2.642 -1.0568 -1.4870  0.0754
 9714TIP3    H229107   4.968   1.784   2.601  0.1580  0.9593  0.4559
 9715TIP3   OH229108   1.020   5.716   3.202 -0.8118  0.0461  0.1513
 9715TIP3    H129109   1.047   5.768   3.126 -0.8298  1.2554  0.9458
 9715TIP3    H229110   0.930   5.690   3.183 -0.6285 -0.1490 -0.4861
 9716TIP3   OH229111   5.598   1.671   0.541  0.3776  0.4935  0.1051
 9716TIP3    H129112   5.665   1.699   0.603  1.1915 -0.7373 -0.1745
 9716TIP3    H229113   5.515   1.699   0.580  1.0473  2.1295  0.4048
 9717TIP3   OH229114   3.440   0.626   1.232  0.0429 -0.4614 -0.2136
 9717TIP3    H129115   3.406   0.699   1.180 -1.5440  0.9390  2.5893
 9717TIP3    H229116   3.532   0.647   1.245  0.3422 -0.5730 -1.9251
 9718TIP3   OH229117   3.543   5.324   5.274  0.1983 -0.8982 -0.2476
 9718TIP3    H129118   3.554   5.335   5.368 -1.2140 -0.8410 -0.0619
 9718TIP3    H229119   3.591   5.398   5.235  1.4891 -1.3963  0.3668
 9719TIP3   OH229120   3.739   2.560   4.716 -0.6699 -0.1504  0.7142
 9719TIP3    H129121   3.785   2.626   4.768 -1.5017  2.3080 -1.4529
 9719TIP3    H229122   3.665   2.607   4.677  0.6940 -1.3261 -3.8608
 9720TIP3   OH229123   0.833   0.751   2.055  0.3953  0.0110  0.0707
 9720TIP3    H129124   0.854   0.659   2.035 -2.7399 -0.3231 -2.3677
 9720TIP3    H229125   0.776   0.746   2.132  0.7078 -0.0089  0.3041
 9721TIP3   OH229126   4.838   2.683   3.174  0.2336 -0.7385 -0.6971
 9721TIP3    H129127   4.855   2.710   3.264 -0.8253  1.7187 -1.1634
 9721TIP3    H229128   4.923   2.691   3.130  0.4750 -0.6771 -0.2238
 9722TIP3   OH229129   6.241   1.341   3.723 -0.0447  0.1971  0.2780
 9722TIP3    H129130   6.303   1.384   3.782  0.2949  1.3316 -0.8644
 9722TIP3    H229131   6.292   1.321   3.644 -0.6726 -0.6163  0.0581
 9723TIP3   OH229132   4.019   1.387   4.234  0.1054  0.1233  0.0506
 9723TIP3    H129133   4.040   1.478   4.255 -0.2811  0.0013  1.0439
 9723TIP3    H229134   4.104   1.345   4.220  0.3402  0.4390  0.4943
 9724TIP3   OH229135   1.983   5.241   5.777  0.1356 -0.2583  0.4681
 9724TIP3    H129136   2.052   5.286   5.825  2.0960 -0.7364 -1.7203
 9724TIP3    H229137   1.945   5.180   5.841  1.7264  0.0264  1.7519
 9725TIP3   OH229138   3.219   3.779   3.732  0.1014 -0.3656  0.4162
 9725TIP3    H129139   3.237   3.696   3.687 -2.6370 -1.2155  0.7014
 9725TIP3    H229140   3.235   3.760   3.824 -1.1717 -0.8246  0.5595
 9726TIP3   OH229141   1.600   1.791   1.413  0.0637 -0.1574  0.3636
 9726TIP3    H129142   1.656   1.715   1.396  0.0384  0.3223 -2.2973
 9726TIP3    H229143   1.662   1.863   1.428  0.1807  0.0254 -0.8841
 9727TIP3   OH229144   4.788   5.838   0.043  0.0054 -0.2137  0.0893
 9727TIP3    H129145   4.727   5.888  -0.011 -0.1738 -0.3917  0.1217
 9727TIP3    H229146   4.745   5.753   0.054 -0.2197 -0.0025  0.9681
 9728TIP3   OH229147   2.801   6.734   0.166  0.0397 -0.3353  0.9774
 9728TIP3    H129148   2.797   6.683   0.247 -0.6868  0.3874  1.4097
 9728TIP3    H229149   2.720   6.784   0.165  0.4717  0.3759  0.2633
 9729TIP3   OH229150   2.769   2.547   4.056  0.7405  0.1571  0.1709
 9729TIP3    H129151   2.681   2.535   4.092  0.4923 -0.9537 -0.7658
 9729TIP3    H229152   2.808   2.614   4.111 -0.7389  0.7620  0.5254
 9730TIP3   OH229153   1.157   3.560   0.947 -0.1785  0.1386 -0.1809
 9730TIP3    H129154   1.103   3.533   0.874  0.0648 -0.9350  0.0211
 9730TIP3    H229155   1.105   3.541   1.025 -1.0554  2.6682 -0.0806
 9731TIP3   OH229156   6.993   5.710   1.549 -0.6249  0.5303  0.2901
 9731TIP3    H129157   6.955   5.634   1.505  0.2714 -0.5246  1.2711
 9731TIP3    H229158   6.917   5.762   1.577 -1.2256  0.5098 -1.2176
 9732TIP3   OH229159   5.156   3.377   3.491 -0.1230 -0.2174 -0.3301
 9732TIP3    H129160   5.181   3.291   3.523 -0.2345 -0.1868 -0.1565
 9732TIP3    H229161   5.162   3.371   3.396  0.7256 -0.1531 -0.2882
 9733TIP3   OH229162   5.802   1.699   2.592  0.1105 -0.3351 -0.2560
 9733TIP3    H129163   5.753   1.744   2.660  1.0176  2.3925 -1.2522
 9733TIP3    H229164   5.740   1.688   2.520  0.2807  0.8526 -0.5995
 9734TIP3   OH229165   2.458   0.857   2.870 -0.0816  0.3019  0.5322
 9734TIP3    H129166   2.413   0.792   2.924 -1.6004 -0.3416 -1.4157
 9734TIP3    H229167   2.406   0.937   2.880 -0.0400  0.3417  0.4257
 9735TIP3   OH229168   0.658   5.314   0.779  0.5807 -0.3397  0.4844
 9735TIP3    H129169   0.648   5.231   0.732  1.5453 -1.1496  1.6470
 9735TIP3    H229170   0.680   5.289   0.868  1.1561  1.1684  0.8045
 9736TIP3   OH229171   1.297   2.486   4.384 -0.0205  0.1941  0.3830
 9736TIP3    H129172   1.306   2.436   4.465  0.8598  0.2981  0.3548
 9736TIP3    H229173   1.374   2.463   4.332 -0.9575 -0.4774 -0.7739
 9737TIP3   OH229174   6.498   0.800   4.217  0.6358  0.2114  0.5970
 9737TIP3    H129175   6.428   0.801   4.282  0.4157  0.3366  0.3590
 9737TIP3    H229176   6.575   0.833   4.264  0.5160  0.1563  0.8344
 9738TIP3   OH229177   3.884   2.042   2.002 -0.3647 -0.1687 -0.2081
 9738TIP3    H129178   3.873   2.093   2.082  1.7020 -0.8277  0.5514
 9738TIP3    H229179   3.797   2.006   1.984 -0.7786 -0.3989  2.0131
 9739TIP3   OH229180   0.565   3.543   5.479  0.0390 -0.1462 -0.1446
 9739TIP3    H129181   0.511   3.501   5.546 -0.2245 -0.9471 -0.8438
 9739TIP3    H229182   0.521   3.521   5.397  0.8352  0.1130 -0.6421
 9740TIP3   OH229183   3.292   1.476   2.335 -0.1318 -0.1329  0.2175
 9740TIP3    H129184   3.281   1.546   2.270 -3.7729 -2.0171 -1.4960
 9740TIP3    H229185   3.362   1.421   2.299  1.4705  1.5134  0.6450
 9741TIP3   OH229186   0.881   3.827   2.429 -0.4549  0.2133  0.6147
 9741TIP3    H129187   0.834   3.906   2.401  1.1584  0.7914 -0.6546
 9741TIP3    H229188   0.922   3.852   2.512  1.1650  1.2455 -0.4380
 9742TIP3   OH229189   6.007   3.744   1.764  0.2264 -0.0221  0.5930
 9742TIP3    H129190   5.938   3.747   1.697  1.5797  0.3455 -0.8413
 9742TIP3    H229191   6.082   3.786   1.722  1.7646 -1.6688  1.5995
 9743TIP3   OH229192   1.723   0.699   4.160 -0.6499  0.0901  0.6312
 9743TIP3    H129193   1.696   0.617   4.120  0.7550  0.9683 -2.3647
 9743TIP3    H229194   1.707   0.766   4.093 -2.1905  2.4383  3.1016
 9744TIP3   OH229195   2.775   5.648   4.665 -0.4400  0.1621  0.6118
 9744TIP3    H129196   2.787   5.743   4.671 -0.4646  0.4867 -2.8929
 9744TIP3    H229197   2.804   5.615   4.751  0.0599  3.2450  1.7451
 9745TIP3   OH229198   1.811   5.234   3.366  0.5559 -0.6441 -0.1552
 9745TIP3    H129199   1.739   5.269   3.417 -0.1936  0.1668 -1.6968
 9745TIP3    H229200   1.799   5.271   3.279  1.5011 -2.3420 -1.0625
 9746TIP3   OH229201   3.430   4.717   5.111 -0.3393 -0.0737  0.6074
 9746TIP3    H129202   3.429   4.778   5.184  0.8325 -0.3066  0.8310
 9746TIP3    H229203   3.483   4.643   5.142 -1.2487 -0.9524  0.1376
 9747TIP3   OH229204   0.066   5.263   0.118 -0.5280 -0.4820  0.3960
 9747TIP3    H129205   0.013   5.281   0.196  0.9857  1.1064  1.1265
 9747TIP3    H229206   0.118   5.186   0.141 -1.0827 -0.8582  0.4113
 9748TIP3   OH229207   3.738   4.075   0.237 -0.4122  0.3350 -0.4054
 9748TIP3    H129208   3.644   4.091   0.231 -0.8132 -1.5728  0.3899
 9748TIP3    H229209   3.768   4.076   0.146 -0.8331  2.6440 -0.6027
 9749TIP3   OH229210   1.968   0.335   3.979 -0.5464 -0.3060  0.2215
 9749TIP3    H129211   1.945   0.419   3.940  1.0661  1.2512  2.3768
 9749TIP3    H229212   2.051   0.351   4.023  1.3473 -3.8590 -1.6625
   7.20876   6.79649   5.88592   0.00000   0.00000  -2.40293   0.00000  -2.40293  -3.39824
