Title t= 373.00000 step= 186500
19942
    1ASP      N    1   2.126   2.276   2.979
    1ASP    HT1    2   2.137   2.360   2.918
    1ASP    HT2    3   2.142   2.191   2.921
    1ASP    HT3    4   2.192   2.282   3.059
    1ASP     CA    5   1.987   2.293   3.012
    1ASP     HA    6   1.974   2.389   3.060
    1ASP     CB    7   1.898   2.282   2.884
    1ASP    HB1    8   1.797   2.305   2.926
    1ASP    HB2    9   1.902   2.181   2.838
    1ASP     CG   10   1.925   2.392   2.784
    1ASP    OD1   11   1.844   2.419   2.693
    1ASP    OD2   12   2.037   2.457   2.789
    1ASP      C   13   1.935   2.192   3.116
    1ASP      O   14   1.968   2.075   3.120
    2ALA      N   15   1.845   2.241   3.197
    2ALA     HN   16   1.809   2.334   3.204
    2ALA     CA   17   1.759   2.159   3.281
    2ALA     HA   18   1.819   2.106   3.354
    2ALA     CB   19   1.648   2.246   3.351
    2ALA    HB1   20   1.704   2.305   3.426
    2ALA    HB2   21   1.579   2.183   3.412
    2ALA    HB3   22   1.598   2.319   3.284
    2ALA      C   23   1.689   2.047   3.201
    2ALA      O   24   1.647   2.076   3.093
    3ASP      N   25   1.682   1.926   3.253
    3ASP     HN   26   1.710   1.907   3.347
    3ASP     CA   27   1.598   1.819   3.196
    3ASP     HA   28   1.628   1.814   3.093
    3ASP     CB   29   1.628   1.680   3.265
    3ASP    HB1   30   1.567   1.602   3.216
    3ASP    HB2   31   1.598   1.681   3.372
    3ASP     CG   32   1.774   1.639   3.262
    3ASP    OD1   33   1.842   1.676   3.163
    3ASP    OD2   34   1.816   1.559   3.351
    3ASP      C   35   1.445   1.845   3.204
    3ASP      O   36   1.392   1.866   3.315
    4GLY      N   37   1.377   1.845   3.085
    4GLY     HN   38   1.430   1.828   3.003
    4GLY     CA   39   1.231   1.897   3.061
    4GLY    HA1   40   1.207   1.895   2.956
    4GLY    HA2   41   1.225   1.997   3.101
    4GLY      C   42   1.115   1.819   3.121
    4GLY      O   43   1.140   1.738   3.213
    5PRO      N   44   0.988   1.847   3.074
    5PRO     CD   45   0.958   1.961   2.984
    5PRO    HD1   46   0.985   1.938   2.879
    5PRO    HD2   47   1.012   2.054   3.011
    5PRO     CA   48   0.871   1.794   3.138
    5PRO     HA   49   0.890   1.764   3.241
    5PRO     CB   50   0.777   1.915   3.148
    5PRO    HB1   51   0.809   1.997   3.215
    5PRO    HB2   52   0.668   1.894   3.161
    5PRO     CG   53   0.803   1.969   3.003
    5PRO    HG1   54   0.749   1.912   2.924
    5PRO    HG2   55   0.767   2.074   2.996
    5PRO      C   56   0.816   1.679   3.070
    5PRO      O   57   0.713   1.623   3.119
    6GLY      N   58   0.875   1.639   2.954
    6GLY     HN   59   0.956   1.686   2.921
    6GLY     CA   60   0.835   1.533   2.865
    6GLY    HA1   61   0.923   1.510   2.806
    6GLY    HA2   62   0.762   1.584   2.804
    6GLY      C   63   0.786   1.399   2.921
    6GLY      O   64   0.823   1.350   3.032
    7ASP      N   65   0.701   1.323   2.834
    7ASP     HN   66   0.667   1.351   2.745
    7ASP     CA   67   0.649   1.197   2.877
    7ASP     HA   68   0.610   1.205   2.978
    7ASP     CB   69   0.528   1.157   2.795
    7ASP    HB1   70   0.561   1.147   2.689
    7ASP    HB2   71   0.445   1.230   2.809
    7ASP     CG   72   0.456   1.027   2.831
    7ASP    OD1   73   0.374   0.978   2.753
    7ASP    OD2   74   0.478   0.984   2.947
    7ASP      C   75   0.755   1.085   2.875
    7ASP      O   76   0.804   1.051   2.769
    8PRO      N   77   0.799   1.020   2.982
    8PRO     CD   78   0.774   1.060   3.119
    8PRO    HD1   79   0.665   1.077   3.132
    8PRO    HD2   80   0.834   1.151   3.138
    8PRO     CA   81   0.907   0.913   2.972
    8PRO     HA   82   0.982   0.944   2.900
    8PRO     CB   83   0.949   0.896   3.120
    8PRO    HB1   84   1.036   0.959   3.149
    8PRO    HB2   85   0.963   0.787   3.138
    8PRO     CG   86   0.829   0.946   3.204
    8PRO    HG1   87   0.748   0.871   3.208
    8PRO    HG2   88   0.864   0.964   3.308
    8PRO      C   89   0.855   0.796   2.904
    8PRO      O   90   0.934   0.706   2.867
    9ASP      N   91   0.722   0.781   2.892
    9ASP     HN   92   0.673   0.861   2.926
    9ASP     CA   93   0.650   0.667   2.830
    9ASP     HA   94   0.710   0.580   2.852
    9ASP     CB   95   0.513   0.665   2.897
    9ASP    HB1   96   0.452   0.589   2.843
    9ASP    HB2   97   0.455   0.760   2.893
    9ASP     CG   98   0.513   0.608   3.030
    9ASP    OD1   99   0.424   0.644   3.114
    9ASP    OD2  100   0.603   0.524   3.065
    9ASP      C  101   0.621   0.678   2.679
    9ASP      O  102   0.572   0.588   2.613
   10ALA      N  103   0.657   0.794   2.619
   10ALA     HN  104   0.704   0.863   2.674
   10ALA     CA  105   0.662   0.825   2.479
   10ALA     HA  106   0.563   0.811   2.438
   10ALA     CB  107   0.691   0.970   2.466
   10ALA    HB1  108   0.786   1.006   2.510
   10ALA    HB2  109   0.613   1.033   2.514
   10ALA    HB3  110   0.703   0.985   2.357
   10ALA      C  111   0.770   0.743   2.402
   10ALA      O  112   0.876   0.712   2.449
   11GLY      N  113   0.734   0.710   2.277
   11GLY     HN  114   0.643   0.727   2.241
   11GLY     CA  115   0.806   0.627   2.182
   11GLY    HA1  116   0.828   0.530   2.225
   11GLY    HA2  117   0.892   0.686   2.152
   11GLY      C  118   0.720   0.615   2.061
   11GLY    OT1  119   0.751   0.652   1.942
   11GLY    OT2  120   0.616   0.548   2.081
   12LIT    LIT  121   3.413   5.867   0.282
   13LIT    LIT  122   1.730   2.942   2.404
   14LIT    LIT  123   5.253   3.329   2.512
   15LIT    LIT  124   5.866   0.964   3.212
   16LIT    LIT  125   4.324   5.138   4.171
   17LIT    LIT  126   1.900   1.228   0.718
   18LIT    LIT  127   2.054   0.220   5.131
   19LIT    LIT  128   5.487   5.166   1.904
   20LIT    LIT  129   3.666   1.422   2.849
   21LIT    LIT  130   3.027   0.321   1.085
   22LIT    LIT  131   5.933   3.894   0.537
   23LIT    LIT  132   3.246   3.029   2.021
   24LIT    LIT  133   4.686   4.180   2.159
   25LIT    LIT  134   4.784   3.237   5.044
   26LIT    LIT  135   3.312   0.941   2.409
   27LIT    LIT  136   0.858   1.094   3.609
   28LIT    LIT  137   1.843   1.033   4.106
   29LIT    LIT  138   2.623   3.984   0.537
   30LIT    LIT  139   2.592   3.617   3.599
   31LIT    LIT  140   4.309   1.574   4.347
   32LIT    LIT  141   5.068   5.580   1.430
   33LIT    LIT  142   5.941   1.609   0.735
   34CLA    CLA  143   3.070   3.385   3.353
   35CLA    CLA  144   2.063   1.940   4.935
   36CLA    CLA  145   5.211   1.114   2.508
   37CLA    CLA  146   5.098   3.803   1.361
   38CLA    CLA  147   5.302   2.836   3.939
   39CLA    CLA  148   4.843   4.720   3.614
   40CLA    CLA  149   5.676   4.023   0.797
   41CLA    CLA  150   6.274   4.183   0.108
   42CLA    CLA  151   5.650   3.369   1.039
   43CLA    CLA  152   5.616   0.652   4.591
   44CLA    CLA  153   3.157   3.486   0.113
   45CLA    CLA  154   4.597   2.607   4.750
   46CLA    CLA  155   3.954   3.175   0.002
   47CLA    CLA  156   5.628   5.972   1.655
   48CLA    CLA  157   3.608   4.798   3.227
   49CLA    CLA  158   3.043   1.415   5.149
   50CLA    CLA  159   2.185   1.614   0.795
   51CLA    CLA  160   2.218   4.563   2.394
   52TIP3   OH2  161   3.597   2.990   1.300
   52TIP3    H1  162   3.658   3.045   1.252
   52TIP3    H2  163   3.605   3.019   1.391
   53TIP3   OH2  164   5.132   2.069   2.692
   53TIP3    H1  165   5.055   2.012   2.695
   53TIP3    H2  166   5.148   2.093   2.783
   54TIP3   OH2  167   2.029   0.218   2.954
   54TIP3    H1  168   1.982   0.272   3.018
   54TIP3    H2  169   1.997   0.129   2.969
   55TIP3   OH2  170   3.925   2.205   2.912
   55TIP3    H1  171   3.981   2.182   2.986
   55TIP3    H2  172   3.901   2.296   2.927
   56TIP3   OH2  173   5.602   5.359   0.061
   56TIP3    H1  174   5.512   5.360   0.094
   56TIP3    H2  175   5.593   5.387  -0.031
   57TIP3   OH2  176   1.619   3.886   2.369
   57TIP3    H1  177   1.573   3.803   2.360
   57TIP3    H2  178   1.678   3.890   2.294
   58TIP3   OH2  179   1.127   5.343   1.019
   58TIP3    H1  180   1.114   5.351   1.114
   58TIP3    H2  181   1.168   5.426   0.994
   59TIP3   OH2  182   0.176   5.922   4.282
   59TIP3    H1  183   0.230   5.961   4.351
   59TIP3    H2  184   0.086   5.944   4.307
   60TIP3   OH2  185   2.344   5.650   2.983
   60TIP3    H1  186   2.306   5.717   2.926
   60TIP3    H2  187   2.271   5.591   3.002
   61TIP3   OH2  188   2.362   4.059   2.362
   61TIP3    H1  189   2.434   4.047   2.300
   61TIP3    H2  190   2.390   4.131   2.418
   62TIP3   OH2  191   3.462   4.953   0.417
   62TIP3    H1  192   3.444   4.895   0.491
   62TIP3    H2  193   3.412   4.916   0.344
   63TIP3   OH2  194   2.449   2.956   2.966
   63TIP3    H1  195   2.428   3.044   2.936
   63TIP3    H2  196   2.532   2.965   3.013
   64TIP3   OH2  197   0.770   2.929   1.011
   64TIP3    H1  198   0.788   3.022   1.027
   64TIP3    H2  199   0.856   2.887   1.018
   65TIP3   OH2  200   3.323   1.690   2.996
   65TIP3    H1  201   3.248   1.648   2.955
   65TIP3    H2  202   3.305   1.784   2.988
   66TIP3   OH2  203   4.541   5.455   2.796
   66TIP3    H1  204   4.585   5.539   2.805
   66TIP3    H2  205   4.599   5.402   2.742
   67TIP3   OH2  206   2.728  -0.015   0.481
   67TIP3    H1  207   2.745   0.072   0.443
   67TIP3    H2  208   2.750  -0.005   0.573
   68TIP3   OH2  209   0.575   5.799   3.376
   68TIP3    H1  210   0.511   5.864   3.346
   68TIP3    H2  211   0.554   5.720   3.326
   69TIP3   OH2  212   0.044   4.274   3.073
   69TIP3    H1  213   0.051   4.180   3.088
   69TIP3    H2  214   0.072   4.286   2.982
   70TIP3   OH2  215   6.091   1.997   0.557
   70TIP3    H1  216   6.111   2.091   0.555
   70TIP3    H2  217   5.996   1.992   0.553
   71TIP3   OH2  218   3.392   1.731   4.253
   71TIP3    H1  219   3.423   1.646   4.284
   71TIP3    H2  220   3.453   1.794   4.291
   72TIP3   OH2  221   4.905   3.897   2.524
   72TIP3    H1  222   4.935   3.812   2.493
   72TIP3    H2  223   4.814   3.903   2.495
   73TIP3   OH2  224   0.337   0.532   1.706
   73TIP3    H1  225   0.410   0.594   1.704
   73TIP3    H2  226   0.343   0.491   1.792
   74TIP3   OH2  227   3.051   0.437   1.713
   74TIP3    H1  228   3.082   0.484   1.790
   74TIP3    H2  229   3.101   0.355   1.713
   75TIP3   OH2  230   0.182   0.563   2.984
   75TIP3    H1  231   0.256   0.593   3.038
   75TIP3    H2  232   0.139   0.643   2.955
   76TIP3   OH2  233   4.574   5.164   3.693
   76TIP3    H1  234   4.625   5.122   3.624
   76TIP3    H2  235   4.618   5.248   3.707
   77TIP3   OH2  236   2.702   2.743   3.445
   77TIP3    H1  237   2.752   2.778   3.519
   77TIP3    H2  238   2.674   2.656   3.473
   78TIP3   OH2  239   0.251   5.936   1.882
   78TIP3    H1  240   0.251   6.023   1.840
   78TIP3    H2  241   0.178   5.890   1.841
   79TIP3   OH2  242   4.537   4.679   1.509
   79TIP3    H1  243   4.536   4.587   1.533
   79TIP3    H2  244   4.579   4.682   1.423
   80TIP3   OH2  245   3.307   2.280   4.072
   80TIP3    H1  246   3.227   2.232   4.096
   80TIP3    H2  247   3.378   2.231   4.112
   81TIP3   OH2  248   3.117   2.336   0.835
   81TIP3    H1  249   3.171   2.304   0.907
   81TIP3    H2  250   3.075   2.415   0.870
   82TIP3   OH2  251   4.817   0.600   1.048
   82TIP3    H1  252   4.813   0.505   1.052
   82TIP3    H2  253   4.820   0.620   0.954
   83TIP3   OH2  254   4.212   1.325   3.019
   83TIP3    H1  255   4.147   1.271   3.064
   83TIP3    H2  256   4.186   1.322   2.927
   84TIP3   OH2  257   3.093   3.471   0.421
   84TIP3    H1  258   3.047   3.388   0.428
   84TIP3    H2  259   3.103   3.486   0.327
   85TIP3   OH2  260   2.261   3.823   2.063
   85TIP3    H1  261   2.226   3.790   2.146
   85TIP3    H2  262   2.184   3.836   2.008
   86TIP3   OH2  263   5.445   2.945   1.339
   86TIP3    H1  264   5.461   3.026   1.386
   86TIP3    H2  265   5.525   2.928   1.290
   87TIP3   OH2  266   2.343   5.020   2.447
   87TIP3    H1  267   2.359   4.940   2.398
   87TIP3    H2  268   2.427   5.066   2.445
   88TIP3   OH2  269   3.718   1.941   3.582
   88TIP3    H1  270   3.767   1.911   3.505
   88TIP3    H2  271   3.755   1.892   3.655
   89TIP3   OH2  272   4.705   0.319   4.141
   89TIP3    H1  273   4.692   0.338   4.048
   89TIP3    H2  274   4.655   0.388   4.186
   90TIP3   OH2  275   4.639   1.652   0.349
   90TIP3    H1  276   4.659   1.709   0.275
   90TIP3    H2  277   4.621   1.567   0.309
   91TIP3   OH2  278   0.490   2.557   0.627
   91TIP3    H1  279   0.572   2.576   0.674
   91TIP3    H2  280   0.430   2.528   0.695
   92TIP3   OH2  281   4.394   4.619   0.984
   92TIP3    H1  282   4.347   4.550   0.938
   92TIP3    H2  283   4.365   4.700   0.943
   93TIP3   OH2  284   5.191   2.464   1.170
   93TIP3    H1  285   5.209   2.375   1.203
   93TIP3    H2  286   5.261   2.518   1.208
   94TIP3   OH2  287   3.381   1.242   0.362
   94TIP3    H1  288   3.387   1.279   0.274
   94TIP3    H2  289   3.453   1.179   0.367
   95TIP3   OH2  290   5.761   1.564   2.024
   95TIP3    H1  291   5.676   1.556   2.068
   95TIP3    H2  292   5.739   1.564   1.930
   96TIP3   OH2  293   1.159   0.365   0.736
   96TIP3    H1  294   1.222   0.436   0.720
   96TIP3    H2  295   1.119   0.388   0.820
   97TIP3   OH2  296   2.990   0.976   1.843
   97TIP3    H1  297   2.954   0.887   1.832
   97TIP3    H2  298   2.913   1.032   1.845
   98TIP3   OH2  299   4.206   2.614   0.078
   98TIP3    H1  300   4.158   2.621   0.161
   98TIP3    H2  301   4.140   2.584   0.016
   99TIP3   OH2  302   4.359   4.798   1.811
   99TIP3    H1  303   4.411   4.859   1.760
   99TIP3    H2  304   4.315   4.743   1.746
  100TIP3   OH2  305   2.906   3.172   3.737
  100TIP3    H1  306   3.000   3.155   3.744
  100TIP3    H2  307   2.873   3.105   3.677
  101TIP3   OH2  308   4.955   5.171   0.474
  101TIP3    H1  309   4.940   5.259   0.510
  101TIP3    H2  310   4.867   5.139   0.452
  102TIP3   OH2  311   5.026   2.495   5.031
  102TIP3    H1  312   4.946   2.457   5.066
  102TIP3    H2  313   5.075   2.522   5.109
  103TIP3   OH2  314   3.419   5.735   0.133
  103TIP3    H1  315   3.347   5.675   0.151
  103TIP3    H2  316   3.477   5.685   0.075
  104TIP3   OH2  317   3.096   0.641   1.927
  104TIP3    H1  318   3.074   0.581   1.998
  104TIP3    H2  319   3.139   0.715   1.970
  105TIP3   OH2  320   6.029   5.029   1.576
  105TIP3    H1  321   5.949   5.066   1.539
  105TIP3    H2  322   6.000   4.985   1.656
  106TIP3   OH2  323   0.816   2.652   4.231
  106TIP3    H1  324   0.850   2.591   4.296
  106TIP3    H2  325   0.886   2.716   4.218
  107TIP3   OH2  326   4.118   3.760   4.070
  107TIP3    H1  327   4.123   3.843   4.023
  107TIP3    H2  328   4.053   3.776   4.139
  108TIP3   OH2  329   2.078   2.590   0.084
  108TIP3    H1  330   2.151   2.531   0.068
  108TIP3    H2  331   2.016   2.571   0.013
  109TIP3   OH2  332   4.001   1.372   1.330
  109TIP3    H1  333   3.924   1.387   1.276
  109TIP3    H2  334   4.004   1.446   1.390
  110TIP3   OH2  335   6.303   0.661   3.229
  110TIP3    H1  336   6.330   0.571   3.211
  110TIP3    H2  337   6.385   0.711   3.230
  111TIP3   OH2  338   0.098   0.167   2.986
  111TIP3    H1  339   0.180   0.133   3.022
  111TIP3    H2  340   0.119   0.187   2.895
  112TIP3   OH2  341   0.764   3.688   2.196
  112TIP3    H1  342   0.848   3.659   2.230
  112TIP3    H2  343   0.710   3.703   2.274
  113TIP3   OH2  344   1.099   5.272   2.039
  113TIP3    H1  345   1.054   5.326   2.104
  113TIP3    H2  346   1.184   5.314   2.028
  114TIP3   OH2  347   1.946   1.319   1.423
  114TIP3    H1  348   1.998   1.397   1.403
  114TIP3    H2  349   1.866   1.353   1.462
  115TIP3   OH2  350   4.037   4.842   1.754
  115TIP3    H1  351   3.991   4.821   1.836
  115TIP3    H2  352   4.129   4.829   1.775
  116TIP3   OH2  353   0.320   1.970   4.432
  116TIP3    H1  354   0.233   1.954   4.396
  116TIP3    H2  355   0.335   1.896   4.491
  117TIP3   OH2  356   2.710   0.688   0.953
  117TIP3    H1  357   2.668   0.683   0.867
  117TIP3    H2  358   2.735   0.780   0.962
  118TIP3   OH2  359   1.275   4.675   4.819
  118TIP3    H1  360   1.180   4.684   4.813
  118TIP3    H2  361   1.290   4.626   4.900
  119TIP3   OH2  362   4.775   4.469   1.907
  119TIP3    H1  363   4.683   4.481   1.884
  119TIP3    H2  364   4.822   4.478   1.824
  120TIP3   OH2  365   4.344   1.679   0.418
  120TIP3    H1  366   4.437   1.687   0.395
  120TIP3    H2  367   4.304   1.639   0.340
  121TIP3   OH2  368   5.783   5.789   0.220
  121TIP3    H1  369   5.798   5.869   0.169
  121TIP3    H2  370   5.796   5.816   0.311
  122TIP3   OH2  371   0.372   2.472   2.210
  122TIP3    H1  372   0.296   2.441   2.258
  122TIP3    H2  373   0.353   2.451   2.118
  123TIP3   OH2  374   3.646   5.206   3.688
  123TIP3    H1  375   3.639   5.112   3.674
  123TIP3    H2  376   3.560   5.241   3.664
  124TIP3   OH2  377   2.602   5.379   3.734
  124TIP3    H1  378   2.536   5.314   3.760
  124TIP3    H2  379   2.677   5.361   3.790
  125TIP3   OH2  380   2.409   1.725   2.302
  125TIP3    H1  381   2.340   1.659   2.289
  125TIP3    H2  382   2.381   1.774   2.379
  126TIP3   OH2  383   3.096   2.986   4.028
  126TIP3    H1  384   3.136   2.916   4.081
  126TIP3    H2  385   3.128   2.970   3.939
  127TIP3   OH2  386   2.722   3.474   2.277
  127TIP3    H1  387   2.757   3.542   2.219
  127TIP3    H2  388   2.795   3.412   2.287
  128TIP3   OH2  389   1.334   4.664   0.880
  128TIP3    H1  390   1.317   4.729   0.813
  128TIP3    H2  391   1.411   4.617   0.849
  129TIP3   OH2  392   5.148   2.915   5.039
  129TIP3    H1  393   5.241   2.908   5.018
  129TIP3    H2  394   5.107   2.845   4.988
  130TIP3   OH2  395   3.140   5.697   1.928
  130TIP3    H1  396   3.193   5.626   1.892
  130TIP3    H2  397   3.203   5.750   1.978
  131TIP3   OH2  398   4.344   4.604   3.107
  131TIP3    H1  399   4.367   4.696   3.094
  131TIP3    H2  400   4.420   4.567   3.153
  132TIP3   OH2  401   5.836   2.987   1.413
  132TIP3    H1  402   5.885   2.950   1.486
  132TIP3    H2  403   5.831   2.917   1.349
  133TIP3   OH2  404   5.344   4.204   2.040
  133TIP3    H1  405   5.293   4.139   1.992
  133TIP3    H2  406   5.349   4.279   1.980
  134TIP3   OH2  407   0.174   4.857   1.615
  134TIP3    H1  408   0.168   4.789   1.548
  134TIP3    H2  409   0.136   4.816   1.693
  135TIP3   OH2  410   4.227   3.593   3.705
  135TIP3    H1  411   4.234   3.579   3.800
  135TIP3    H2  412   4.203   3.685   3.696
  136TIP3   OH2  413   3.803   1.521   2.997
  136TIP3    H1  414   3.806   1.613   3.023
  136TIP3    H2  415   3.859   1.476   3.061
  137TIP3   OH2  416   2.653   1.360   2.296
  137TIP3    H1  417   2.731   1.317   2.261
  137TIP3    H2  418   2.661   1.451   2.269
  138TIP3   OH2  419   1.524   5.344   3.864
  138TIP3    H1  420   1.506   5.395   3.943
  138TIP3    H2  421   1.580   5.272   3.895
  139TIP3   OH2  422   2.108   1.862   2.296
  139TIP3    H1  423   2.099   1.927   2.366
  139TIP3    H2  424   2.023   1.819   2.293
  140TIP3   OH2  425   4.830   4.785   4.716
  140TIP3    H1  426   4.870   4.786   4.629
  140TIP3    H2  427   4.871   4.858   4.763
  141TIP3   OH2  428   1.414   2.222   4.414
  141TIP3    H1  429   1.504   2.191   4.403
  141TIP3    H2  430   1.395   2.270   4.333
  142TIP3   OH2  431   2.146   3.538   0.343
  142TIP3    H1  432   2.185   3.526   0.256
  142TIP3    H2  433   2.131   3.450   0.375
  143TIP3   OH2  434   4.569   5.345   1.849
  143TIP3    H1  435   4.524   5.394   1.918
  143TIP3    H2  436   4.620   5.280   1.896
  144TIP3   OH2  437   4.746   5.108   1.943
  144TIP3    H1  438   4.823   5.055   1.921
  144TIP3    H2  439   4.758   5.131   2.035
  145TIP3   OH2  440   1.273   0.121   0.824
  145TIP3    H1  441   1.329   0.088   0.754
  145TIP3    H2  442   1.238   0.204   0.791
  146TIP3   OH2  443   5.531   5.824   4.601
  146TIP3    H1  444   5.522   5.919   4.604
  146TIP3    H2  445   5.450   5.793   4.561
  147TIP3   OH2  446   4.263   3.697   3.075
  147TIP3    H1  447   4.348   3.675   3.037
  147TIP3    H2  448   4.211   3.617   3.067
  148TIP3   OH2  449   1.620   1.114   1.804
  148TIP3    H1  450   1.619   1.021   1.825
  148TIP3    H2  451   1.665   1.155   1.877
  149TIP3   OH2  452   6.043   4.538   3.464
  149TIP3    H1  453   6.022   4.573   3.551
  149TIP3    H2  454   6.138   4.544   3.458
  150TIP3   OH2  455   0.386   5.210   4.793
  150TIP3    H1  456   0.309   5.169   4.752
  150TIP3    H2  457   0.374   5.195   4.886
  151TIP3   OH2  458   1.864   0.110   1.892
  151TIP3    H1  459   1.822   0.155   1.966
  151TIP3    H2  460   1.881   0.022   1.924
  152TIP3   OH2  461   3.620   3.593   3.494
  152TIP3    H1  462   3.567   3.657   3.540
  152TIP3    H2  463   3.637   3.632   3.409
  153TIP3   OH2  464   0.604   5.165   2.981
  153TIP3    H1  465   0.571   5.194   2.896
  153TIP3    H2  466   0.651   5.242   3.015
  154TIP3   OH2  467   0.585   4.120   1.346
  154TIP3    H1  468   0.526   4.079   1.284
  154TIP3    H2  469   0.559   4.085   1.431
  155TIP3   OH2  470   4.217   2.709   4.388
  155TIP3    H1  471   4.228   2.714   4.483
  155TIP3    H2  472   4.236   2.798   4.357
  156TIP3   OH2  473   2.781   1.105   3.063
  156TIP3    H1  474   2.702   1.056   3.040
  156TIP3    H2  475   2.786   1.099   3.158
  157TIP3   OH2  476   0.457   0.246   4.537
  157TIP3    H1  477   0.444   0.211   4.449
  157TIP3    H2  478   0.535   0.201   4.570
  158TIP3   OH2  479   2.631   0.622   0.672
  158TIP3    H1  480   2.675   0.617   0.586
  158TIP3    H2  481   2.538   0.619   0.651
  159TIP3   OH2  482   1.452   5.176   0.115
  159TIP3    H1  483   1.470   5.136   0.030
  159TIP3    H2  484   1.359   5.197   0.113
  160TIP3   OH2  485   4.960   1.607   4.150
  160TIP3    H1  486   4.971   1.700   4.128
  160TIP3    H2  487   5.049   1.571   4.147
  161TIP3   OH2  488   2.649   3.317   2.932
  161TIP3    H1  489   2.687   3.289   3.016
  161TIP3    H2  490   2.561   3.279   2.932
  162TIP3   OH2  491   0.261   4.247   3.385
  162TIP3    H1  492   0.197   4.179   3.360
  162TIP3    H2  493   0.221   4.291   3.460
  163TIP3   OH2  494   4.099   4.170   1.767
  163TIP3    H1  495   4.041   4.235   1.726
  163TIP3    H2  496   4.177   4.169   1.712
  164TIP3   OH2  497   2.899   5.125   2.889
  164TIP3    H1  498   2.919   5.119   2.796
  164TIP3    H2  499   2.909   5.035   2.921
  165TIP3   OH2  500   4.774   1.649   0.100
  165TIP3    H1  501   4.789   1.555   0.106
  165TIP3    H2  502   4.691   1.657   0.052
  166TIP3   OH2  503   4.962   3.242   0.045
  166TIP3    H1  504   4.999   3.156   0.068
  166TIP3    H2  505   5.039   3.296   0.027
  167TIP3   OH2  506   0.041   5.046   4.421
  167TIP3    H1  507   0.020   5.063   4.513
  167TIP3    H2  508  -0.016   5.106   4.373
  168TIP3   OH2  509   6.000   0.387   0.565
  168TIP3    H1  510   5.999   0.453   0.496
  168TIP3    H2  511   5.999   0.438   0.646
  169TIP3   OH2  512   2.809   5.891   2.151
  169TIP3    H1  513   2.878   5.864   2.211
  169TIP3    H2  514   2.731   5.846   2.183
  170TIP3   OH2  515   3.972   0.776   4.036
  170TIP3    H1  516   3.878   0.768   4.019
  170TIP3    H2  517   4.009   0.692   4.006
  171TIP3   OH2  518   4.976   3.250   3.788
  171TIP3    H1  519   4.912   3.179   3.788
  171TIP3    H2  520   5.040   3.223   3.722
  172TIP3   OH2  521   6.274   5.432   0.699
  172TIP3    H1  522   6.327   5.411   0.777
  172TIP3    H2  523   6.280   5.527   0.692
  173TIP3   OH2  524   2.621   2.513   4.449
  173TIP3    H1  525   2.626   2.432   4.397
  173TIP3    H2  526   2.647   2.582   4.388
  174TIP3   OH2  527   3.167   5.052   4.556
  174TIP3    H1  528   3.124   5.130   4.592
  174TIP3    H2  529   3.147   4.983   4.619
  175TIP3   OH2  530   1.970   3.615   2.876
  175TIP3    H1  531   1.968   3.699   2.831
  175TIP3    H2  532   2.063   3.593   2.882
  176TIP3   OH2  533   4.299   3.404   5.114
  176TIP3    H1  534   4.302   3.400   5.018
  176TIP3    H2  535   4.284   3.314   5.141
  177TIP3   OH2  536   5.191   3.843   2.539
  177TIP3    H1  537   5.210   3.860   2.447
  177TIP3    H2  538   5.131   3.769   2.539
  178TIP3   OH2  539   3.064   5.585   4.860
  178TIP3    H1  540   3.026   5.530   4.792
  178TIP3    H2  541   3.046   5.674   4.831
  179TIP3   OH2  542   2.185   1.988   1.676
  179TIP3    H1  543   2.246   2.020   1.743
  179TIP3    H2  544   2.175   2.061   1.616
  180TIP3   OH2  545   4.270   1.448   0.861
  180TIP3    H1  546   4.226   1.372   0.824
  180TIP3    H2  547   4.246   1.446   0.954
  181TIP3   OH2  548   5.451   5.426   2.580
  181TIP3    H1  549   5.505   5.354   2.547
  181TIP3    H2  550   5.510   5.477   2.636
  182TIP3   OH2  551   1.326   0.752   4.548
  182TIP3    H1  552   1.302   0.816   4.614
  182TIP3    H2  553   1.356   0.676   4.598
  183TIP3   OH2  554   4.213   2.653   1.008
  183TIP3    H1  555   4.262   2.709   1.068
  183TIP3    H2  556   4.186   2.711   0.937
  184TIP3   OH2  557   2.659   5.081   4.744
  184TIP3    H1  558   2.611   5.009   4.704
  184TIP3    H2  559   2.717   5.113   4.675
  185TIP3   OH2  560   0.404   4.909   3.425
  185TIP3    H1  561   0.427   4.979   3.364
  185TIP3    H2  562   0.423   4.946   3.512
  186TIP3   OH2  563   3.271   2.879   1.028
  186TIP3    H1  564   3.311   2.858   1.113
  186TIP3    H2  565   3.343   2.868   0.965
  187TIP3   OH2  566   6.256   0.341   1.446
  187TIP3    H1  567   6.243   0.248   1.426
  187TIP3    H2  568   6.351   0.354   1.442
  188TIP3   OH2  569   3.466   4.659   2.119
  188TIP3    H1  570   3.379   4.622   2.135
  188TIP3    H2  571   3.464   4.745   2.162
  189TIP3   OH2  572   0.873   5.199   1.521
  189TIP3    H1  573   0.779   5.210   1.535
  189TIP3    H2  574   0.900   5.137   1.589
  190TIP3   OH2  575   3.874   3.284   2.709
  190TIP3    H1  576   3.947   3.230   2.678
  190TIP3    H2  577   3.916   3.366   2.737
  191TIP3   OH2  578   3.886   4.234   4.714
  191TIP3    H1  579   3.929   4.195   4.638
  191TIP3    H2  580   3.933   4.316   4.729
  192TIP3   OH2  581   5.008   5.489   1.590
  192TIP3    H1  582   5.061   5.410   1.602
  192TIP3    H2  583   4.941   5.483   1.659
  193TIP3   OH2  584   0.895   3.893   0.582
  193TIP3    H1  585   0.910   3.953   0.655
  193TIP3    H2  586   0.965   3.829   0.588
  194TIP3   OH2  587   1.824   1.261   3.605
  194TIP3    H1  588   1.858   1.176   3.576
  194TIP3    H2  589   1.900   1.304   3.644
  195TIP3   OH2  590   3.019   1.220   2.081
  195TIP3    H1  591   2.987   1.233   2.170
  195TIP3    H2  592   2.940   1.210   2.028
  196TIP3   OH2  593   5.913   4.609   1.581
  196TIP3    H1  594   5.915   4.520   1.547
  196TIP3    H2  595   5.923   4.664   1.503
  197TIP3   OH2  596   0.566   3.722   1.776
  197TIP3    H1  597   0.537   3.683   1.694
  197TIP3    H2  598   0.524   3.808   1.778
  198TIP3   OH2  599   3.543   1.831   2.890
  198TIP3    H1  600   3.490   1.781   2.952
  198TIP3    H2  601   3.632   1.799   2.903
  199TIP3   OH2  602   0.546   1.305   2.470
  199TIP3    H1  603   0.543   1.337   2.379
  199TIP3    H2  604   0.640   1.304   2.491
  200TIP3   OH2  605   5.521   3.477   0.527
  200TIP3    H1  606   5.509   3.450   0.436
  200TIP3    H2  607   5.609   3.516   0.529
  201TIP3   OH2  608   0.412   1.203   0.421
  201TIP3    H1  609   0.495   1.163   0.444
  201TIP3    H2  610   0.432   1.296   0.409
  202TIP3   OH2  611   1.761   3.224   3.141
  202TIP3    H1  612   1.684   3.273   3.172
  202TIP3    H2  613   1.725   3.155   3.086
  203TIP3   OH2  614   1.374   4.782   4.188
  203TIP3    H1  615   1.350   4.758   4.099
  203TIP3    H2  616   1.402   4.699   4.228
  204TIP3   OH2  617   5.878   1.061   4.987
  204TIP3    H1  618   5.876   1.141   4.934
  204TIP3    H2  619   5.787   1.031   4.989
  205TIP3   OH2  620   5.462   3.114   0.366
  205TIP3    H1  621   5.372   3.080   0.362
  205TIP3    H2  622   5.480   3.121   0.460
  206TIP3   OH2  623   0.385   4.104   3.797
  206TIP3    H1  624   0.379   4.052   3.717
  206TIP3    H2  625   0.472   4.143   3.793
  207TIP3   OH2  626   2.210   3.763   4.443
  207TIP3    H1  627   2.242   3.691   4.498
  207TIP3    H2  628   2.150   3.721   4.381
  208TIP3   OH2  629   4.288   2.814   0.415
  208TIP3    H1  630   4.373   2.808   0.371
  208TIP3    H2  631   4.308   2.849   0.502
  209TIP3   OH2  632   3.407   1.014   2.246
  209TIP3    H1  633   3.501   1.033   2.255
  209TIP3    H2  634   3.378   1.072   2.175
  210TIP3   OH2  635   4.050   0.856   3.059
  210TIP3    H1  636   4.056   0.764   3.034
  210TIP3    H2  637   4.001   0.855   3.141
  211TIP3   OH2  638   5.615   5.737   3.362
  211TIP3    H1  639   5.661   5.819   3.343
  211TIP3    H2  640   5.655   5.705   3.442
  212TIP3   OH2  641   5.330   5.165   1.205
  212TIP3    H1  642   5.306   5.076   1.178
  212TIP3    H2  643   5.336   5.214   1.123
  213TIP3   OH2  644   2.789   3.283   4.848
  213TIP3    H1  645   2.715   3.272   4.789
  213TIP3    H2  646   2.758   3.251   4.933
  214TIP3   OH2  647   1.081   2.232   4.600
  214TIP3    H1  648   1.113   2.313   4.642
  214TIP3    H2  649   1.077   2.253   4.507
  215TIP3   OH2  650   2.131   5.012   1.775
  215TIP3    H1  651   2.082   4.937   1.808
  215TIP3    H2  652   2.079   5.046   1.703
  216TIP3   OH2  653   5.851   5.619   3.213
  216TIP3    H1  654   5.796   5.560   3.264
  216TIP3    H2  655   5.837   5.705   3.254
  217TIP3   OH2  656   2.858   3.409   0.648
  217TIP3    H1  657   2.811   3.439   0.726
  217TIP3    H2  658   2.850   3.482   0.586
  218TIP3   OH2  659   3.592   3.304   5.014
  218TIP3    H1  660   3.639   3.236   5.062
  218TIP3    H2  661   3.500   3.279   5.020
  219TIP3   OH2  662   5.145   3.079   4.077
  219TIP3    H1  663   5.219   3.030   4.042
  219TIP3    H2  664   5.161   3.083   4.171
  220TIP3   OH2  665   1.682   3.368   1.775
  220TIP3    H1  666   1.613   3.373   1.708
  220TIP3    H2  667   1.763   3.368   1.725
  221TIP3   OH2  668   1.964   4.825   2.826
  221TIP3    H1  669   1.903   4.800   2.895
  221TIP3    H2  670   1.995   4.912   2.851
  222TIP3   OH2  671   5.244   1.690   4.995
  222TIP3    H1  672   5.200   1.664   5.076
  222TIP3    H2  673   5.330   1.647   4.999
  223TIP3   OH2  674   2.914   1.959   2.773
  223TIP3    H1  675   2.990   1.970   2.717
  223TIP3    H2  676   2.880   1.872   2.751
  224TIP3   OH2  677   2.167   1.830   0.455
  224TIP3    H1  678   2.261   1.826   0.471
  224TIP3    H2  679   2.147   1.749   0.408
  225TIP3   OH2  680   4.022   4.551   4.427
  225TIP3    H1  681   3.930   4.540   4.406
  225TIP3    H2  682   4.064   4.473   4.392
  226TIP3   OH2  683   1.426   3.900   2.897
  226TIP3    H1  684   1.477   3.980   2.882
  226TIP3    H2  685   1.446   3.845   2.821
  227TIP3   OH2  686   6.258   3.899   1.459
  227TIP3    H1  687   6.335   3.855   1.494
  227TIP3    H2  688   6.198   3.827   1.438
  228TIP3   OH2  689   5.361   2.907   2.261
  228TIP3    H1  690   5.430   2.893   2.196
  228TIP3    H2  691   5.313   2.824   2.263
  229TIP3   OH2  692   1.646   2.816   1.812
  229TIP3    H1  693   1.623   2.871   1.737
  229TIP3    H2  694   1.669   2.877   1.881
  230TIP3   OH2  695   3.077   2.487   4.073
  230TIP3    H1  696   3.005   2.431   4.045
  230TIP3    H2  697   3.156   2.434   4.060
  231TIP3   OH2  698   4.284   4.443   2.089
  231TIP3    H1  699   4.302   4.352   2.112
  231TIP3    H2  700   4.189   4.450   2.093
  232TIP3   OH2  701   5.742   0.900   2.540
  232TIP3    H1  702   5.802   0.838   2.582
  232TIP3    H2  703   5.695   0.941   2.613
  233TIP3   OH2  704   2.745   1.703   4.855
  233TIP3    H1  705   2.747   1.659   4.940
  233TIP3    H2  706   2.746   1.796   4.876
  234TIP3   OH2  707   2.949   5.828   2.970
  234TIP3    H1  708   2.879   5.868   3.021
  234TIP3    H2  709   2.909   5.749   2.932
  235TIP3   OH2  710   4.934   0.632   3.053
  235TIP3    H1  711   4.982   0.551   3.035
  235TIP3    H2  712   4.854   0.604   3.098
  236TIP3   OH2  713   1.741   4.919   4.068
  236TIP3    H1  714   1.755   4.888   4.157
  236TIP3    H2  715   1.728   4.840   4.016
  237TIP3   OH2  716   1.675   4.522   4.876
  237TIP3    H1  717   1.600   4.512   4.819
  237TIP3    H2  718   1.659   4.461   4.948
  238TIP3   OH2  719   6.037   0.571   0.329
  238TIP3    H1  720   5.973   0.641   0.342
  238TIP3    H2  721   6.072   0.586   0.241
  239TIP3   OH2  722   6.150   1.100   4.726
  239TIP3    H1  723   6.163   1.194   4.740
  239TIP3    H2  724   6.140   1.064   4.814
  240TIP3   OH2  725   4.080   3.095   3.439
  240TIP3    H1  726   4.046   3.142   3.515
  240TIP3    H2  727   4.002   3.064   3.393
  241TIP3   OH2  728   0.129   0.518   3.917
  241TIP3    H1  729   0.085   0.457   3.976
  241TIP3    H2  730   0.166   0.585   3.975
  242TIP3   OH2  731   2.918   0.397   4.138
  242TIP3    H1  732   3.010   0.401   4.164
  242TIP3    H2  733   2.904   0.477   4.087
  243TIP3   OH2  734   1.189   0.591   4.151
  243TIP3    H1  735   1.195   0.516   4.092
  243TIP3    H2  736   1.125   0.650   4.110
  244TIP3   OH2  737   1.558   3.891   4.005
  244TIP3    H1  738   1.607   3.814   3.974
  244TIP3    H2  739   1.589   3.962   3.949
  245TIP3   OH2  740   1.613   5.583   2.090
  245TIP3    H1  741   1.698   5.556   2.057
  245TIP3    H2  742   1.631   5.620   2.177
  246TIP3   OH2  743   1.222   0.809   5.092
  246TIP3    H1  744   1.233   0.729   5.143
  246TIP3    H2  745   1.283   0.799   5.019
  247TIP3   OH2  746   3.921   5.863   2.903
  247TIP3    H1  747   3.911   5.952   2.869
  247TIP3    H2  748   3.841   5.818   2.874
  248TIP3   OH2  749   5.267   5.835   3.171
  248TIP3    H1  750   5.241   5.856   3.261
  248TIP3    H2  751   5.326   5.760   3.180
  249TIP3   OH2  752   5.381   2.634   3.262
  249TIP3    H1  753   5.466   2.660   3.296
  249TIP3    H2  754   5.344   2.715   3.227
  250TIP3   OH2  755   3.161   3.873   3.682
  250TIP3    H1  756   3.226   3.912   3.740
  250TIP3    H2  757   3.077   3.889   3.725
  251TIP3   OH2  758   2.585   5.867   1.619
  251TIP3    H1  759   2.609   5.868   1.526
  251TIP3    H2  760   2.515   5.802   1.625
  252TIP3   OH2  761   5.611   3.228   2.560
  252TIP3    H1  762   5.634   3.283   2.484
  252TIP3    H2  763   5.542   3.171   2.527
  253TIP3   OH2  764   6.208   1.552   3.383
  253TIP3    H1  765   6.215   1.585   3.472
  253TIP3    H2  766   6.144   1.608   3.341
  254TIP3   OH2  767   1.455   0.441   1.911
  254TIP3    H1  768   1.396   0.422   1.984
  254TIP3    H2  769   1.495   0.356   1.890
  255TIP3   OH2  770   3.623   1.211   1.909
  255TIP3    H1  771   3.647   1.203   1.816
  255TIP3    H2  772   3.565   1.287   1.913
  256TIP3   OH2  773   2.087   1.287   1.045
  256TIP3    H1  774   2.070   1.214   1.105
  256TIP3    H2  775   2.014   1.347   1.059
  257TIP3   OH2  776   4.242   1.982   2.492
  257TIP3    H1  777   4.237   1.947   2.403
  257TIP3    H2  778   4.214   1.909   2.547
  258TIP3   OH2  779   4.203   3.129   5.138
  258TIP3    H1  780   4.261   3.053   5.146
  258TIP3    H2  781   4.140   3.118   5.209
  259TIP3   OH2  782   5.385   3.640   1.328
  259TIP3    H1  783   5.374   3.552   1.366
  259TIP3    H2  784   5.300   3.682   1.341
  260TIP3   OH2  785   5.634   0.827   1.191
  260TIP3    H1  786   5.573   0.804   1.261
  260TIP3    H2  787   5.715   0.783   1.215
  261TIP3   OH2  788   2.217   0.823   3.353
  261TIP3    H1  789   2.207   0.898   3.412
  261TIP3    H2  790   2.128   0.803   3.324
  262TIP3   OH2  791   4.596   1.485   1.213
  262TIP3    H1  792   4.567   1.522   1.297
  262TIP3    H2  793   4.618   1.561   1.160
  263TIP3   OH2  794   0.074   3.763   3.260
  263TIP3    H1  795   0.013   3.739   3.189
  263TIP3    H2  796   0.131   3.829   3.221
  264TIP3   OH2  797   3.480   1.706   1.541
  264TIP3    H1  798   3.480   1.644   1.469
  264TIP3    H2  799   3.387   1.726   1.556
  265TIP3   OH2  800   3.247   1.332   2.174
  265TIP3    H1  801   3.184   1.285   2.120
  265TIP3    H2  802   3.221   1.313   2.264
  266TIP3   OH2  803   4.745   4.792   4.162
  266TIP3    H1  804   4.733   4.709   4.209
  266TIP3    H2  805   4.715   4.773   4.073
  267TIP3   OH2  806   4.918   1.557   1.294
  267TIP3    H1  807   4.918   1.640   1.247
  267TIP3    H2  808   4.921   1.490   1.226
  268TIP3   OH2  809   1.200   4.958   2.868
  268TIP3    H1  810   1.156   4.901   2.930
  268TIP3    H2  811   1.276   4.991   2.916
  269TIP3   OH2  812   2.641   4.002   1.102
  269TIP3    H1  813   2.694   4.031   1.176
  269TIP3    H2  814   2.596   4.081   1.071
  270TIP3   OH2  815   2.313   5.461   0.933
  270TIP3    H1  816   2.388   5.405   0.915
  270TIP3    H2  817   2.257   5.410   0.991
  271TIP3   OH2  818   5.264   0.452   5.117
  271TIP3    H1  819   5.238   0.452   5.209
  271TIP3    H2  820   5.274   0.359   5.095
  272TIP3   OH2  821   0.312   1.473   3.778
  272TIP3    H1  822   0.369   1.401   3.750
  272TIP3    H2  823   0.223   1.441   3.761
  273TIP3   OH2  824   5.724   5.186   4.517
  273TIP3    H1  825   5.679   5.162   4.598
  273TIP3    H2  826   5.800   5.236   4.545
  274TIP3   OH2  827   6.041   5.097   4.023
  274TIP3    H1  828   6.097   5.167   3.989
  274TIP3    H2  829   5.956   5.139   4.037
  275TIP3   OH2  830   2.676   1.748   1.035
  275TIP3    H1  831   2.585   1.720   1.048
  275TIP3    H2  832   2.705   1.701   0.957
  276TIP3   OH2  833   1.735   2.225   2.570
  276TIP3    H1  834   1.788   2.287   2.619
  276TIP3    H2  835   1.659   2.275   2.541
  277TIP3   OH2  836   1.767   0.111   1.282
  277TIP3    H1  837   1.707   0.069   1.343
  277TIP3    H2  838   1.799   0.040   1.226
  278TIP3   OH2  839   2.808   1.276   2.611
  278TIP3    H1  840   2.755   1.346   2.573
  278TIP3    H2  841   2.762   1.252   2.691
  279TIP3   OH2  842   2.763   2.011   4.577
  279TIP3    H1  843   2.837   2.069   4.594
  279TIP3    H2  844   2.687   2.056   4.614
  280TIP3   OH2  845   3.401   4.863   2.319
  280TIP3    H1  846   3.420   4.897   2.406
  280TIP3    H2  847   3.308   4.839   2.322
  281TIP3   OH2  848   4.446   2.590   1.909
  281TIP3    H1  849   4.455   2.680   1.938
  281TIP3    H2  850   4.496   2.539   1.974
  282TIP3   OH2  851   3.303   5.709   3.973
  282TIP3    H1  852   3.210   5.705   3.995
  282TIP3    H2  853   3.326   5.801   3.987
  283TIP3   OH2  854   3.256   4.255   0.710
  283TIP3    H1  855   3.171   4.226   0.678
  283TIP3    H2  856   3.255   4.234   0.803
  284TIP3   OH2  857   5.376   2.730   4.490
  284TIP3    H1  858   5.286   2.751   4.463
  284TIP3    H2  859   5.429   2.797   4.448
  285TIP3   OH2  860   0.567   3.170   3.314
  285TIP3    H1  861   0.526   3.185   3.229
  285TIP3    H2  862   0.498   3.129   3.367
  286TIP3   OH2  863   0.142   2.156   3.769
  286TIP3    H1  864   0.122   2.116   3.853
  286TIP3    H2  865   0.058   2.163   3.724
  287TIP3   OH2  866   2.472   2.431   0.596
  287TIP3    H1  867   2.514   2.403   0.515
  287TIP3    H2  868   2.519   2.511   0.620
  288TIP3   OH2  869   4.892   0.301   1.037
  288TIP3    H1  870   4.952   0.347   0.979
  288TIP3    H2  871   4.947   0.273   1.110
  289TIP3   OH2  872   2.234   1.499   2.342
  289TIP3    H1  873   2.142   1.491   2.316
  289TIP3    H2  874   2.232   1.495   2.437
  290TIP3   OH2  875   0.048   2.874   0.418
  290TIP3    H1  876   0.025   2.882   0.510
  290TIP3    H2  877   0.127   2.820   0.418
  291TIP3   OH2  878   2.129   2.529   3.710
  291TIP3    H1  879   2.119   2.464   3.639
  291TIP3    H2  880   2.192   2.490   3.770
  292TIP3   OH2  881   0.720   1.435   1.937
  292TIP3    H1  882   0.752   1.393   2.017
  292TIP3    H2  883   0.690   1.363   1.882
  293TIP3   OH2  884   5.574   5.321   4.985
  293TIP3    H1  885   5.549   5.251   5.046
  293TIP3    H2  886   5.656   5.290   4.946
  294TIP3   OH2  887   1.516   1.906   1.674
  294TIP3    H1  888   1.534   1.892   1.581
  294TIP3    H2  889   1.601   1.895   1.717
  295TIP3   OH2  890   2.900   1.329   0.902
  295TIP3    H1  891   2.905   1.279   0.983
  295TIP3    H2  892   2.958   1.404   0.917
  296TIP3   OH2  893   1.947   0.731   3.423
  296TIP3    H1  894   1.913   0.644   3.400
  296TIP3    H2  895   1.914   0.789   3.355
  297TIP3   OH2  896   0.794   4.358   2.721
  297TIP3    H1  897   0.804   4.380   2.629
  297TIP3    H2  898   0.746   4.432   2.759
  298TIP3   OH2  899   2.895   3.896   3.015
  298TIP3    H1  900   2.915   3.867   3.103
  298TIP3    H2  901   2.971   3.868   2.963
  299TIP3   OH2  902   6.219   3.488   3.603
  299TIP3    H1  903   6.263   3.481   3.518
  299TIP3    H2  904   6.178   3.403   3.616
  300TIP3   OH2  905   3.265   1.969   2.999
  300TIP3    H1  906   3.283   2.005   2.912
  300TIP3    H2  907   3.181   2.007   3.024
  301TIP3   OH2  908   0.677   4.342   0.131
  301TIP3    H1  909   0.672   4.392   0.213
  301TIP3    H2  910   0.588   4.308   0.119
  302TIP3   OH2  911   0.938  -0.012   1.280
  302TIP3    H1  912   0.929   0.075   1.320
  302TIP3    H2  913   1.013  -0.003   1.222
  303TIP3   OH2  914   1.761   1.669   4.278
  303TIP3    H1  915   1.684   1.618   4.253
  303TIP3    H2  916   1.755   1.675   4.374
  304TIP3   OH2  917   5.312   3.273   3.972
  304TIP3    H1  918   5.239   3.215   3.995
  304TIP3    H2  919   5.341   3.243   3.886
  305TIP3   OH2  920   0.146   5.697   4.589
  305TIP3    H1  921   0.140   5.791   4.607
  305TIP3    H2  922   0.234   5.685   4.553
  306TIP3   OH2  923   3.394   5.394  -0.036
  306TIP3    H1  924   3.450   5.318  -0.049
  306TIP3    H2  925   3.421   5.429   0.050
  307TIP3   OH2  926   3.958   3.779   1.698
  307TIP3    H1  927   3.886   3.801   1.757
  307TIP3    H2  928   4.021   3.731   1.753
  308TIP3   OH2  929   4.524   1.569   1.544
  308TIP3    H1  930   4.447   1.626   1.548
  308TIP3    H2  931   4.490   1.481   1.557
  309TIP3   OH2  932   6.129   2.012   4.310
  309TIP3    H1  933   6.145   1.971   4.225
  309TIP3    H2  934   6.073   2.087   4.289
  310TIP3   OH2  935   1.506   2.588   4.027
  310TIP3    H1  936   1.531   2.664   3.974
  310TIP3    H2  937   1.541   2.513   3.980
  311TIP3   OH2  938   0.794   1.463   3.808
  311TIP3    H1  939   0.700   1.474   3.820
  311TIP3    H2  940   0.832   1.545   3.840
  312TIP3   OH2  941   1.007   5.587   4.941
  312TIP3    H1  942   0.976   5.627   4.860
  312TIP3    H2  943   0.933   5.536   4.973
  313TIP3   OH2  944   0.358   0.448   1.155
  313TIP3    H1  945   0.293   0.456   1.086
  313TIP3    H2  946   0.366   0.536   1.191
  314TIP3   OH2  947   2.182   3.877   3.385
  314TIP3    H1  948   2.251   3.825   3.345
  314TIP3    H2  949   2.149   3.823   3.457
  315TIP3   OH2  950   5.868   5.845   2.371
  315TIP3    H1  951   5.779   5.864   2.401
  315TIP3    H2  952   5.871   5.881   2.282
  316TIP3   OH2  953   3.877   1.832   3.362
  316TIP3    H1  954   3.906   1.741   3.350
  316TIP3    H2  955   3.947   1.884   3.322
  317TIP3   OH2  956   6.287   1.036   3.388
  317TIP3    H1  957   6.213   1.056   3.331
  317TIP3    H2  958   6.268   1.082   3.470
  318TIP3   OH2  959   0.702   5.718   4.477
  318TIP3    H1  960   0.694   5.638   4.528
  318TIP3    H2  961   0.722   5.688   4.388
  319TIP3   OH2  962   4.026   4.482   4.718
  319TIP3    H1  963   3.991   4.554   4.771
  319TIP3    H2  964   4.034   4.519   4.630
  320TIP3   OH2  965   2.139   3.676   3.577
  320TIP3    H1  966   2.172   3.588   3.560
  320TIP3    H2  967   2.044   3.666   3.584
  321TIP3   OH2  968   4.246   1.098   0.982
  321TIP3    H1  969   4.229   1.037   1.054
  321TIP3    H2  970   4.261   1.041   0.906
  322TIP3   OH2  971   6.322   2.161   0.428
  322TIP3    H1  972   6.342   2.182   0.519
  322TIP3    H2  973   6.318   2.066   0.424
  323TIP3   OH2  974   3.416   2.065   2.447
  323TIP3    H1  975   3.441   2.058   2.539
  323TIP3    H2  976   3.448   2.151   2.419
  324TIP3   OH2  977   4.977   0.509   4.144
  324TIP3    H1  978   5.023   0.593   4.140
  324TIP3    H2  979   4.911   0.521   4.212
  325TIP3   OH2  980   4.105   3.959   1.295
  325TIP3    H1  981   4.023   3.925   1.328
  325TIP3    H2  982   4.166   3.953   1.369
  326TIP3   OH2  983   1.397   2.248   1.221
  326TIP3    H1  984   1.426   2.243   1.130
  326TIP3    H2  985   1.397   2.158   1.252
  327TIP3   OH2  986   3.141   0.887   2.328
  327TIP3    H1  987   3.056   0.846   2.346
  327TIP3    H2  988   3.140   0.904   2.234
  328TIP3   OH2  989   5.567   4.821   0.324
  328TIP3    H1  990   5.640   4.875   0.354
  328TIP3    H2  991   5.594   4.731   0.339
  329TIP3   OH2  992   4.073   5.765   4.225
  329TIP3    H1  993   4.052   5.816   4.146
  329TIP3    H2  994   4.168   5.771   4.232
  330TIP3   OH2  995   3.682   5.089   4.431
  330TIP3    H1  996   3.596   5.068   4.396
  330TIP3    H2  997   3.713   5.007   4.468
  331TIP3   OH2  998   5.999   1.999   2.392
  331TIP3    H1  999   6.001   1.910   2.427
  331TIP3    H2 1000   5.906   2.017   2.377
  332TIP3   OH2 1001   0.348   3.680   2.770
  332TIP3    H1 1002   0.434   3.722   2.771
  332TIP3    H2 1003   0.290   3.744   2.732
  333TIP3   OH2 1004   2.616   5.089   2.416
  333TIP3    H1 1005   2.677   5.160   2.432
  333TIP3    H2 1006   2.638   5.057   2.328
  334TIP3   OH2 1007   2.184   1.742   3.951
  334TIP3    H1 1008   2.229   1.764   3.869
  334TIP3    H2 1009   2.093   1.726   3.926
  335TIP3   OH2 1010   2.374   3.978   1.846
  335TIP3    H1 1011   2.348   3.926   1.922
  335TIP3    H2 1012   2.371   3.918   1.772
  336TIP3   OH2 1013   1.763   5.456   1.856
  336TIP3    H1 1014   1.785   5.481   1.766
  336TIP3    H2 1015   1.684   5.403   1.848
  337TIP3   OH2 1016   1.414   1.096   3.650
  337TIP3    H1 1017   1.491   1.103   3.594
  337TIP3    H2 1018   1.347   1.146   3.604
  338TIP3   OH2 1019   4.244   0.358   1.866
  338TIP3    H1 1020   4.272   0.267   1.858
  338TIP3    H2 1021   4.258   0.396   1.780
  339TIP3   OH2 1022   2.287   5.453   3.654
  339TIP3    H1 1023   2.312   5.480   3.566
  339TIP3    H2 1024   2.205   5.501   3.671
  340TIP3   OH2 1025   6.113   5.182   0.327
  340TIP3    H1 1026   6.081   5.178   0.417
  340TIP3    H2 1027   6.107   5.092   0.295
  341TIP3   OH2 1028   4.330   1.828   1.122
  341TIP3    H1 1029   4.276   1.752   1.146
  341TIP3    H2 1030   4.318   1.837   1.028
  342TIP3   OH2 1031   1.199   4.543   1.253
  342TIP3    H1 1032   1.247   4.461   1.260
  342TIP3    H2 1033   1.195   4.577   1.342
  343TIP3   OH2 1034   1.179   2.050   0.674
  343TIP3    H1 1035   1.185   2.033   0.768
  343TIP3    H2 1036   1.195   1.965   0.633
  344TIP3   OH2 1037   0.606   4.660   3.026
  344TIP3    H1 1038   0.684   4.716   3.033
  344TIP3    H2 1039   0.621   4.590   3.090
  345TIP3   OH2 1040   0.940   2.552   5.053
  345TIP3    H1 1041   0.885   2.626   5.081
  345TIP3    H2 1042   1.006   2.592   4.997
  346TIP3   OH2 1043   1.660   4.240   3.621
  346TIP3    H1 1044   1.664   4.314   3.560
  346TIP3    H2 1045   1.715   4.173   3.580
  347TIP3   OH2 1046   5.084   0.912  -0.020
  347TIP3    H1 1047   5.050   0.984   0.033
  347TIP3    H2 1048   5.068   0.834   0.033
  348TIP3   OH2 1049   5.737   5.182   2.825
  348TIP3    H1 1050   5.808   5.179   2.760
  348TIP3    H2 1051   5.671   5.122   2.791
  349TIP3   OH2 1052   0.257   4.513   1.688
  349TIP3    H1 1053   0.231   4.583   1.747
  349TIP3    H2 1054   0.182   4.501   1.630
  350TIP3   OH2 1055   0.816   3.792   4.445
  350TIP3    H1 1056   0.858   3.813   4.528
  350TIP3    H2 1057   0.828   3.871   4.392
  351TIP3   OH2 1058   1.749   5.768   1.707
  351TIP3    H1 1059   1.681   5.783   1.773
  351TIP3    H2 1060   1.830   5.764   1.758
  352TIP3   OH2 1061   3.159   5.914   4.314
  352TIP3    H1 1062   3.125   5.854   4.380
  352TIP3    H2 1063   3.254   5.908   4.322
  353TIP3   OH2 1064   3.863   5.716   4.586
  353TIP3    H1 1065   3.782   5.719   4.535
  353TIP3    H2 1066   3.839   5.666   4.665
  354TIP3   OH2 1067   3.644   3.602   2.173
  354TIP3    H1 1068   3.606   3.564   2.252
  354TIP3    H2 1069   3.582   3.670   2.146
  355TIP3   OH2 1070   3.263   0.523   0.207
  355TIP3    H1 1071   3.354   0.499   0.189
  355TIP3    H2 1072   3.247   0.600   0.153
  356TIP3   OH2 1073   6.127   5.711   2.734
  356TIP3    H1 1074   6.206   5.677   2.775
  356TIP3    H2 1075   6.085   5.635   2.694
  357TIP3   OH2 1076   4.316   3.544   4.293
  357TIP3    H1 1077   4.313   3.630   4.251
  357TIP3    H2 1078   4.279   3.484   4.227
  358TIP3   OH2 1079   5.754   4.933   3.993
  358TIP3    H1 1080   5.691   4.931   3.921
  358TIP3    H2 1081   5.832   4.974   3.954
  359TIP3   OH2 1082   4.489   2.890   4.710
  359TIP3    H1 1083   4.542   2.912   4.634
  359TIP3    H2 1084   4.540   2.825   4.758
  360TIP3   OH2 1085   5.605   2.675   3.376
  360TIP3    H1 1086   5.646   2.648   3.458
  360TIP3    H2 1087   5.676   2.714   3.325
  361TIP3   OH2 1088   6.228   5.704   2.104
  361TIP3    H1 1089   6.289   5.765   2.145
  361TIP3    H2 1090   6.236   5.624   2.155
  362TIP3   OH2 1091   2.154   4.781   4.271
  362TIP3    H1 1092   2.182   4.800   4.361
  362TIP3    H2 1093   2.231   4.798   4.217
  363TIP3   OH2 1094   5.706   2.349   3.253
  363TIP3    H1 1095   5.759   2.301   3.190
  363TIP3    H2 1096   5.676   2.283   3.315
  364TIP3   OH2 1097   3.203   0.622   1.342
  364TIP3    H1 1098   3.281   0.613   1.287
  364TIP3    H2 1099   3.234   0.601   1.430
  365TIP3   OH2 1100   2.374   1.945   2.550
  365TIP3    H1 1101   2.282   1.948   2.525
  365TIP3    H2 1102   2.419   1.993   2.480
  366TIP3   OH2 1103   4.008   3.459   0.388
  366TIP3    H1 1104   3.965   3.478   0.305
  366TIP3    H2 1105   4.049   3.373   0.375
  367TIP3   OH2 1106   4.871   0.197   3.393
  367TIP3    H1 1107   4.963   0.181   3.413
  367TIP3    H2 1108   4.834   0.111   3.378
  368TIP3   OH2 1109   1.684   5.199   4.061
  368TIP3    H1 1110   1.717   5.109   4.066
  368TIP3    H2 1111   1.664   5.222   4.152
  369TIP3   OH2 1112   1.726   2.045   1.879
  369TIP3    H1 1113   1.699   2.120   1.826
  369TIP3    H2 1114   1.644   2.010   1.915
  370TIP3   OH2 1115   4.193   0.047   4.387
  370TIP3    H1 1116   4.242   0.123   4.355
  370TIP3    H2 1117   4.111   0.083   4.419
  371TIP3   OH2 1118   5.992   2.656   2.491
  371TIP3    H1 1119   6.066   2.596   2.496
  371TIP3    H2 1120   6.017   2.729   2.548
  372TIP3   OH2 1121   4.562   2.967   0.888
  372TIP3    H1 1122   4.566   2.905   0.816
  372TIP3    H2 1123   4.620   2.931   0.955
  373TIP3   OH2 1124   0.038   5.021   2.533
  373TIP3    H1 1125   0.086   5.100   2.557
  373TIP3    H2 1126   0.001   4.989   2.615
  374TIP3   OH2 1127   0.974   3.088   1.505
  374TIP3    H1 1128   0.890   3.073   1.461
  374TIP3    H2 1129   0.951   3.105   1.596
  375TIP3   OH2 1130   2.057   0.096   2.666
  375TIP3    H1 1131   1.975   0.074   2.708
  375TIP3    H2 1132   2.031   0.133   2.581
  376TIP3   OH2 1133   5.879   0.280   1.826
  376TIP3    H1 1134   5.968   0.253   1.807
  376TIP3    H2 1135   5.844   0.310   1.742
  377TIP3   OH2 1136   1.374   5.406   4.745
  377TIP3    H1 1137   1.408   5.317   4.740
  377TIP3    H2 1138   1.282   5.395   4.770
  378TIP3   OH2 1139   1.733   2.381   4.090
  378TIP3    H1 1140   1.759   2.415   4.005
  378TIP3    H2 1141   1.765   2.447   4.153
  379TIP3   OH2 1142   2.994   0.603   3.499
  379TIP3    H1 1143   3.046   0.673   3.459
  379TIP3    H2 1144   2.960   0.641   3.579
  380TIP3   OH2 1145   1.029   2.264   3.191
  380TIP3    H1 1146   1.037   2.356   3.215
  380TIP3    H2 1147   1.086   2.218   3.252
  381TIP3   OH2 1148   2.240   4.781   3.712
  381TIP3    H1 1149   2.290   4.831   3.648
  381TIP3    H2 1150   2.179   4.845   3.750
  382TIP3   OH2 1151   3.354   4.317   4.804
  382TIP3    H1 1152   3.415   4.313   4.878
  382TIP3    H2 1153   3.330   4.410   4.798
  383TIP3   OH2 1154   0.289   1.867   2.310
  383TIP3    H1 1155   0.258   1.908   2.229
  383TIP3    H2 1156   0.296   1.774   2.289
  384TIP3   OH2 1157   3.718   1.569   2.726
  384TIP3    H1 1158   3.656   1.606   2.663
  384TIP3    H2 1159   3.790   1.632   2.729
  385TIP3   OH2 1160   4.235   2.484   1.770
  385TIP3    H1 1161   4.320   2.517   1.799
  385TIP3    H2 1162   4.176   2.503   1.843
  386TIP3   OH2 1163   4.027   5.615   3.594
  386TIP3    H1 1164   3.966   5.543   3.604
  386TIP3    H2 1165   4.045   5.643   3.684
  387TIP3   OH2 1166   4.090   1.903   4.062
  387TIP3    H1 1167   4.072   1.810   4.076
  387TIP3    H2 1168   4.068   1.919   3.971
  388TIP3   OH2 1169   3.192   2.423   3.438
  388TIP3    H1 1170   3.212   2.514   3.461
  388TIP3    H2 1171   3.239   2.371   3.504
  389TIP3   OH2 1172   1.053   0.819   4.412
  389TIP3    H1 1173   1.099   0.737   4.431
  389TIP3    H2 1174   0.974   0.792   4.365
  390TIP3   OH2 1175   3.289   2.689   2.734
  390TIP3    H1 1176   3.258   2.730   2.815
  390TIP3    H2 1177   3.246   2.738   2.664
  391TIP3   OH2 1178   2.607   5.779   2.898
  391TIP3    H1 1179   2.529   5.729   2.920
  391TIP3    H2 1180   2.671   5.713   2.872
  392TIP3   OH2 1181   3.099   5.052   3.599
  392TIP3    H1 1182   3.193   5.046   3.588
  392TIP3    H2 1183   3.086   5.118   3.667
  393TIP3   OH2 1184   0.931   2.819   5.058
  393TIP3    H1 1185   1.014   2.860   5.082
  393TIP3    H2 1186   0.864   2.880   5.088
  394TIP3   OH2 1187   2.740   2.514   3.878
  394TIP3    H1 1188   2.748   2.570   3.801
  394TIP3    H2 1189   2.684   2.442   3.848
  395TIP3   OH2 1190   0.670   2.311  -0.015
  395TIP3    H1 1191   0.739   2.250   0.013
  395TIP3    H2 1192   0.612   2.318   0.061
  396TIP3   OH2 1193   1.818   3.668   1.958
  396TIP3    H1 1194   1.778   3.699   1.876
  396TIP3    H2 1195   1.777   3.722   2.026
  397TIP3   OH2 1196   2.009   4.628   3.857
  397TIP3    H1 1197   1.998   4.638   3.952
  397TIP3    H2 1198   2.076   4.693   3.834
  398TIP3   OH2 1199   4.490   1.378   0.235
  398TIP3    H1 1200   4.570   1.326   0.223
  398TIP3    H2 1201   4.449   1.342   0.313
  399TIP3   OH2 1202   1.765   1.129   5.091
  399TIP3    H1 1203   1.791   1.067   5.023
  399TIP3    H2 1204   1.672   1.146   5.073
  400TIP3   OH2 1205   4.504   3.685   1.543
  400TIP3    H1 1206   4.564   3.615   1.571
  400TIP3    H2 1207   4.417   3.648   1.553
  401TIP3   OH2 1208   0.272   0.899   0.415
  401TIP3    H1 1209   0.190   0.902   0.366
  401TIP3    H2 1210   0.312   0.984   0.400
  402TIP3   OH2 1211   6.336   1.201   0.050
  402TIP3    H1 1212   6.305   1.223  -0.038
  402TIP3    H2 1213   6.413   1.257   0.062
  403TIP3   OH2 1214   3.425   1.019   3.938
  403TIP3    H1 1215   3.492   1.083   3.913
  403TIP3    H2 1216   3.455   0.937   3.898
  404TIP3   OH2 1217   2.093   1.001   2.329
  404TIP3    H1 1218   2.176   0.969   2.293
  404TIP3    H2 1219   2.100   0.987   2.423
  405TIP3   OH2 1220   2.067   5.748   1.687
  405TIP3    H1 1221   2.108   5.726   1.604
  405TIP3    H2 1222   2.038   5.839   1.676
  406TIP3   OH2 1223   3.377   2.386   2.925
  406TIP3    H1 1224   3.397   2.378   3.018
  406TIP3    H2 1225   3.289   2.424   2.923
  407TIP3   OH2 1226   5.350   4.369   0.328
  407TIP3    H1 1227   5.312   4.457   0.328
  407TIP3    H2 1228   5.279   4.312   0.297
  408TIP3   OH2 1229   4.545   1.697   0.658
  408TIP3    H1 1230   4.489   1.624   0.630
  408TIP3    H2 1231   4.572   1.673   0.746
  409TIP3   OH2 1232   4.293   0.925   3.167
  409TIP3    H1 1233   4.199   0.921   3.147
  409TIP3    H2 1234   4.297   0.928   3.262
  410TIP3   OH2 1235   5.853   0.664   1.290
  410TIP3    H1 1236   5.849   0.613   1.371
  410TIP3    H2 1237   5.930   0.719   1.300
  411TIP3   OH2 1238   5.211   2.558   3.443
  411TIP3    H1 1239   5.277   2.579   3.509
  411TIP3    H2 1240   5.253   2.579   3.360
  412TIP3   OH2 1241   4.050   5.614   3.319
  412TIP3    H1 1242   4.047   5.519   3.306
  412TIP3    H2 1243   4.041   5.625   3.414
  413TIP3   OH2 1244   0.465   4.908   2.423
  413TIP3    H1 1245   0.399   4.859   2.473
  413TIP3    H2 1246   0.473   4.860   2.341
  414TIP3   OH2 1247   4.218   3.168   4.318
  414TIP3    H1 1248   4.213   3.073   4.307
  414TIP3    H2 1249   4.187   3.185   4.407
  415TIP3   OH2 1250   1.740   5.108   4.744
  415TIP3    H1 1251   1.823   5.146   4.714
  415TIP3    H2 1252   1.732   5.026   4.695
  416TIP3   OH2 1253   5.591   2.989   0.834
  416TIP3    H1 1254   5.683   2.982   0.861
  416TIP3    H2 1255   5.594   2.992   0.739
  417TIP3   OH2 1256   2.639   0.432   0.252
  417TIP3    H1 1257   2.653   0.523   0.278
  417TIP3    H2 1258   2.547   0.428   0.226
  418TIP3   OH2 1259   5.371   5.971   1.029
  418TIP3    H1 1260   5.295   5.939   0.980
  418TIP3    H2 1261   5.399   6.049   0.982
  419TIP3   OH2 1262   0.342   4.178   2.343
  419TIP3    H1 1263   0.354   4.115   2.415
  419TIP3    H2 1264   0.268   4.142   2.293
  420TIP3   OH2 1265   2.247   1.148   0.489
  420TIP3    H1 1266   2.310   1.170   0.558
  420TIP3    H2 1267   2.291   1.080   0.438
  421TIP3   OH2 1268   5.913   2.175   3.490
  421TIP3    H1 1269   5.861   2.231   3.547
  421TIP3    H2 1270   5.883   2.086   3.509
  422TIP3   OH2 1271   5.453   1.648   1.598
  422TIP3    H1 1272   5.488   1.673   1.683
  422TIP3    H2 1273   5.359   1.667   1.604
  423TIP3   OH2 1274   4.749   4.734   0.038
  423TIP3    H1 1275   4.806   4.776  -0.026
  423TIP3    H2 1276   4.797   4.656   0.066
  424TIP3   OH2 1277   4.113   2.965   4.911
  424TIP3    H1 1278   4.086   2.903   4.979
  424TIP3    H2 1279   4.184   3.016   4.952
  425TIP3   OH2 1280   4.675   5.854  -0.004
  425TIP3    H1 1281   4.699   5.936   0.040
  425TIP3    H2 1282   4.620   5.808   0.059
  426TIP3   OH2 1283   3.832   5.217   3.962
  426TIP3    H1 1284   3.757   5.255   4.008
  426TIP3    H2 1285   3.793   5.152   3.903
  427TIP3   OH2 1286   4.511   4.822   2.722
  427TIP3    H1 1287   4.552   4.760   2.662
  427TIP3    H2 1288   4.461   4.881   2.666
  428TIP3   OH2 1289   0.557   5.732   2.614
  428TIP3    H1 1290   0.632   5.791   2.601
  428TIP3    H2 1291   0.480   5.787   2.599
  429TIP3   OH2 1292  -0.004   5.714   0.662
  429TIP3    H1 1293  -0.015   5.808   0.678
  429TIP3    H2 1294   0.070   5.709   0.601
  430TIP3   OH2 1295   5.191   3.108   0.273
  430TIP3    H1 1296   5.106   3.131   0.310
  430TIP3    H2 1297   5.218   3.185   0.223
  431TIP3   OH2 1298   0.611   3.289   4.627
  431TIP3    H1 1299   0.536   3.241   4.594
  431TIP3    H2 1300   0.573   3.364   4.673
  432TIP3   OH2 1301   6.186   4.227   2.867
  432TIP3    H1 1302   6.171   4.299   2.805
  432TIP3    H2 1303   6.226   4.269   2.943
  433TIP3   OH2 1304   5.224   0.095   1.000
  433TIP3    H1 1305   5.244   0.118   0.909
  433TIP3    H2 1306   5.309   0.099   1.045
  434TIP3   OH2 1307   1.483   0.213   3.132
  434TIP3    H1 1308   1.528   0.193   3.214
  434TIP3    H2 1309   1.416   0.144   3.123
  435TIP3   OH2 1310   3.960   1.238   3.155
  435TIP3    H1 1311   3.904   1.239   3.077
  435TIP3    H2 1312   3.931   1.161   3.204
  436TIP3   OH2 1313   1.384   5.973   3.549
  436TIP3    H1 1314   1.319   5.924   3.499
  436TIP3    H2 1315   1.465   5.923   3.539
  437TIP3   OH2 1316   3.143   2.514   2.991
  437TIP3    H1 1317   3.058   2.551   2.968
  437TIP3    H2 1318   3.202   2.589   2.993
  438TIP3   OH2 1319   3.878   2.439   2.694
  438TIP3    H1 1320   3.807   2.467   2.636
  438TIP3    H2 1321   3.925   2.372   2.643
  439TIP3   OH2 1322   1.215   1.217   2.801
  439TIP3    H1 1323   1.139   1.220   2.742
  439TIP3    H2 1324   1.182   1.247   2.885
  440TIP3   OH2 1325   1.558   1.202   0.953
  440TIP3    H1 1326   1.648   1.173   0.938
  440TIP3    H2 1327   1.507   1.156   0.887
  441TIP3   OH2 1328   2.884   1.018   4.694
  441TIP3    H1 1329   2.834   0.980   4.622
  441TIP3    H2 1330   2.901   1.108   4.667
  442TIP3   OH2 1331   2.917   3.427   3.607
  442TIP3    H1 1332   2.922   3.336   3.635
  442TIP3    H2 1333   2.976   3.432   3.532
  443TIP3   OH2 1334   6.030   5.329   4.566
  443TIP3    H1 1335   5.966   5.381   4.615
  443TIP3    H2 1336   6.114   5.350   4.606
  444TIP3   OH2 1337   2.959   3.108   1.752
  444TIP3    H1 1338   2.884   3.074   1.703
  444TIP3    H2 1339   3.034   3.060   1.717
  445TIP3   OH2 1340   2.706   1.895   0.125
  445TIP3    H1 1341   2.680   1.804   0.110
  445TIP3    H2 1342   2.649   1.924   0.197
  446TIP3   OH2 1343   2.042   1.386   4.700
  446TIP3    H1 1344   2.085   1.465   4.731
  446TIP3    H2 1345   2.070   1.318   4.761
  447TIP3   OH2 1346   5.043   5.121   2.712
  447TIP3    H1 1347   5.053   5.166   2.796
  447TIP3    H2 1348   5.028   5.191   2.649
  448TIP3   OH2 1349   1.621   3.237   2.715
  448TIP3    H1 1350   1.569   3.205   2.789
  448TIP3    H2 1351   1.680   3.302   2.754
  449TIP3   OH2 1352   5.296   4.457   1.577
  449TIP3    H1 1353   5.293   4.405   1.497
  449TIP3    H2 1354   5.379   4.505   1.572
  450TIP3   OH2 1355   6.014   4.019   0.055
  450TIP3    H1 1356   5.948   4.085   0.076
  450TIP3    H2 1357   6.097   4.066   0.055
  451TIP3   OH2 1358   5.581   5.951   3.018
  451TIP3    H1 1359   5.545   5.890   2.954
  451TIP3    H2 1360   5.521   5.947   3.092
  452TIP3   OH2 1361   1.706   2.323   0.437
  452TIP3    H1 1362   1.660   2.243   0.412
  452TIP3    H2 1363   1.784   2.325   0.381
  453TIP3   OH2 1364   4.523   2.852   1.976
  453TIP3    H1 1365   4.569   2.911   1.918
  453TIP3    H2 1366   4.473   2.910   2.034
  454TIP3   OH2 1367   5.533   2.735   0.938
  454TIP3    H1 1368   5.544   2.807   0.877
  454TIP3    H2 1369   5.564   2.658   0.890
  455TIP3   OH2 1370   5.904   4.088   4.625
  455TIP3    H1 1371   5.968   4.039   4.573
  455TIP3    H2 1372   5.848   4.131   4.560
  456TIP3   OH2 1373   5.748   3.903   4.246
  456TIP3    H1 1374   5.789   3.973   4.297
  456TIP3    H2 1375   5.814   3.878   4.181
  457TIP3   OH2 1376   5.164   2.535   0.824
  457TIP3    H1 1377   5.081   2.513   0.865
  457TIP3    H2 1378   5.191   2.616   0.865
  458TIP3   OH2 1379   2.432   2.365   2.138
  458TIP3    H1 1380   2.459   2.286   2.091
  458TIP3    H2 1381   2.347   2.342   2.175
  459TIP3   OH2 1382   5.654   4.499   4.362
  459TIP3    H1 1383   5.559   4.504   4.356
  459TIP3    H2 1384   5.676   4.555   4.436
  460TIP3   OH2 1385   0.362   5.295   1.149
  460TIP3    H1 1386   0.337   5.300   1.057
  460TIP3    H2 1387   0.294   5.346   1.195
  461TIP3   OH2 1388   3.051   1.442   4.429
  461TIP3    H1 1389   2.987   1.500   4.472
  461TIP3    H2 1390   3.026   1.442   4.337
  462TIP3   OH2 1391   0.946   3.892   4.667
  462TIP3    H1 1392   1.041   3.903   4.672
  462TIP3    H2 1393   0.915   3.916   4.754
  463TIP3   OH2 1394   2.669   4.083   0.383
  463TIP3    H1 1395   2.704   4.080   0.294
  463TIP3    H2 1396   2.692   4.170   0.415
  464TIP3   OH2 1397   1.113   2.215   3.857
  464TIP3    H1 1398   1.061   2.188   3.932
  464TIP3    H2 1399   1.082   2.303   3.836
  465TIP3   OH2 1400   5.339   3.777   0.526
  465TIP3    H1 1401   5.408   3.741   0.583
  465TIP3    H2 1402   5.363   3.869   0.515
  466TIP3   OH2 1403   6.309   4.090   2.456
  466TIP3    H1 1404   6.355   4.132   2.383
  466TIP3    H2 1405   6.372   4.091   2.528
  467TIP3   OH2 1406   3.214   4.489   4.364
  467TIP3    H1 1407   3.262   4.509   4.444
  467TIP3    H2 1408   3.282   4.482   4.297
  468TIP3   OH2 1409   5.970   3.916   0.733
  468TIP3    H1 1410   5.889   3.951   0.770
  468TIP3    H2 1411   6.035   3.985   0.745
  469TIP3   OH2 1412   2.417   5.539   3.875
  469TIP3    H1 1413   2.452   5.476   3.938
  469TIP3    H2 1414   2.370   5.486   3.811
  470TIP3   OH2 1415   4.713   4.199   1.972
  470TIP3    H1 1416   4.763   4.277   1.945
  470TIP3    H2 1417   4.710   4.145   1.893
  471TIP3   OH2 1418   6.095   4.242   0.368
  471TIP3    H1 1419   6.128   4.231   0.278
  471TIP3    H2 1420   6.173   4.260   0.420
  472TIP3   OH2 1421   4.916   0.707   4.414
  472TIP3    H1 1422   4.959   0.667   4.489
  472TIP3    H2 1423   4.893   0.796   4.444
  473TIP3   OH2 1424   0.897   4.201   4.616
  473TIP3    H1 1425   0.868   4.111   4.602
  473TIP3    H2 1426   0.992   4.195   4.628
  474TIP3   OH2 1427   2.492   4.360   2.967
  474TIP3    H1 1428   2.402   4.386   2.985
  474TIP3    H2 1429   2.503   4.375   2.873
  475TIP3   OH2 1430   1.245   3.554   1.711
  475TIP3    H1 1431   1.313   3.552   1.778
  475TIP3    H2 1432   1.165   3.529   1.757
  476TIP3   OH2 1433   3.107   4.274   0.976
  476TIP3    H1 1434   3.122   4.180   0.988
  476TIP3    H2 1435   3.181   4.316   1.020
  477TIP3   OH2 1436   5.927   5.430   1.318
  477TIP3    H1 1437   5.889   5.394   1.238
  477TIP3    H2 1438   5.854   5.434   1.380
  478TIP3   OH2 1439   3.254   3.433   0.647
  478TIP3    H1 1440   3.182   3.455   0.588
  478TIP3    H2 1441   3.333   3.453   0.598
  479TIP3   OH2 1442   3.601   2.789   4.529
  479TIP3    H1 1443   3.528   2.815   4.586
  479TIP3    H2 1444   3.634   2.708   4.568
  480TIP3   OH2 1445   4.943   0.474   0.340
  480TIP3    H1 1446   4.876   0.467   0.272
  480TIP3    H2 1447   4.986   0.389   0.341
  481TIP3   OH2 1448   0.601   5.243   1.577
  481TIP3    H1 1449   0.641   5.311   1.632
  481TIP3    H2 1450   0.558   5.185   1.640
  482TIP3   OH2 1451   2.375   1.857   3.096
  482TIP3    H1 1452   2.446   1.897   3.045
  482TIP3    H2 1453   2.307   1.838   3.032
  483TIP3   OH2 1454   0.273   0.370   1.936
  483TIP3    H1 1455   0.193   0.323   1.913
  483TIP3    H2 1456   0.264   0.388   2.029
  484TIP3   OH2 1457   5.670   0.214   4.152
  484TIP3    H1 1458   5.745   0.194   4.096
  484TIP3    H2 1459   5.643   0.302   4.125
  485TIP3   OH2 1460   2.270   5.634   0.737
  485TIP3    H1 1461   2.276   5.572   0.809
  485TIP3    H2 1462   2.215   5.591   0.672
  486TIP3   OH2 1463   1.554   3.329   0.865
  486TIP3    H1 1464   1.515   3.346   0.779
  486TIP3    H2 1465   1.643   3.362   0.858
  487TIP3   OH2 1466   2.041   1.272   2.315
  487TIP3    H1 1467   2.077   1.190   2.351
  487TIP3    H2 1468   2.036   1.256   2.221
  488TIP3   OH2 1469   3.320   4.785   0.234
  488TIP3    H1 1470   3.377   4.815   0.164
  488TIP3    H2 1471   3.342   4.693   0.246
  489TIP3   OH2 1472   1.341   5.546   5.059
  489TIP3    H1 1473   1.327   5.632   5.019
  489TIP3    H2 1474   1.326   5.560   5.152
  490TIP3   OH2 1475   1.051   3.856   3.535
  490TIP3    H1 1476   0.965   3.820   3.514
  490TIP3    H2 1477   1.112   3.802   3.484
  491TIP3   OH2 1478   2.242   3.096   1.362
  491TIP3    H1 1479   2.186   3.094   1.285
  491TIP3    H2 1480   2.275   3.186   1.365
  492TIP3   OH2 1481   1.917   4.874   1.225
  492TIP3    H1 1482   1.972   4.811   1.179
  492TIP3    H2 1483   1.847   4.894   1.163
  493TIP3   OH2 1484   2.870   5.089   0.442
  493TIP3    H1 1485   2.911   5.035   0.375
  493TIP3    H2 1486   2.931   5.162   0.455
  494TIP3   OH2 1487   1.860   5.498   1.553
  494TIP3    H1 1488   1.835   5.590   1.545
  494TIP3    H2 1489   1.790   5.450   1.509
  495TIP3   OH2 1490   3.031   1.445   4.841
  495TIP3    H1 1491   3.038   1.540   4.836
  495TIP3    H2 1492   3.041   1.425   4.934
  496TIP3   OH2 1493   1.786   1.108   4.694
  496TIP3    H1 1494   1.700   1.133   4.727
  496TIP3    H2 1495   1.787   1.013   4.699
  497TIP3   OH2 1496   1.925   1.600   3.598
  497TIP3    H1 1497   1.887   1.573   3.514
  497TIP3    H2 1498   1.935   1.695   3.591
  498TIP3   OH2 1499   2.827   4.788   4.067
  498TIP3    H1 1500   2.906   4.790   4.122
  498TIP3    H2 1501   2.759   4.754   4.126
  499TIP3   OH2 1502   1.111   2.736   3.682
  499TIP3    H1 1503   1.134   2.649   3.713
  499TIP3    H2 1504   1.089   2.724   3.589
  500TIP3   OH2 1505   5.650   2.976   0.546
  500TIP3    H1 1506   5.732   2.946   0.584
  500TIP3    H2 1507   5.666   2.976   0.451
  501TIP3   OH2 1508   0.416   5.651   4.546
  501TIP3    H1 1509   0.502   5.677   4.577
  501TIP3    H2 1510   0.425   5.644   4.451
  502TIP3   OH2 1511   3.878   1.793   2.700
  502TIP3    H1 1512   3.933   1.792   2.778
  502TIP3    H2 1513   3.933   1.833   2.632
  503TIP3   OH2 1514   4.115   2.006   0.003
  503TIP3    H1 1515   4.093   2.095  -0.025
  503TIP3    H2 1516   4.032   1.970   0.036
  504TIP3   OH2 1517   1.062   0.097   0.587
  504TIP3    H1 1518   1.132   0.047   0.545
  504TIP3    H2 1519   1.099   0.121   0.673
  505TIP3   OH2 1520   1.561   0.187   1.842
  505TIP3    H1 1521   1.503   0.124   1.799
  505TIP3    H2 1522   1.648   0.168   1.807
  506TIP3   OH2 1523   0.371   3.102   4.584
  506TIP3    H1 1524   0.408   3.024   4.626
  506TIP3    H2 1525   0.337   3.071   4.501
  507TIP3   OH2 1526   4.294   3.954   2.776
  507TIP3    H1 1527   4.342   4.032   2.801
  507TIP3    H2 1528   4.358   3.899   2.731
  508TIP3   OH2 1529   0.043   0.489   1.738
  508TIP3    H1 1530   0.127   0.531   1.719
  508TIP3    H2 1531   0.066   0.401   1.767
  509TIP3   OH2 1532   2.025   0.299   0.696
  509TIP3    H1 1533   1.933   0.285   0.675
  509TIP3    H2 1534   2.073   0.240   0.637
  510TIP3   OH2 1535   6.326   0.562   0.375
  510TIP3    H1 1536   6.231   0.566   0.365
  510TIP3    H2 1537   6.342   0.584   0.467
  511TIP3   OH2 1538   2.220   0.739   4.251
  511TIP3    H1 1539   2.289   0.804   4.264
  511TIP3    H2 1540   2.159   0.781   4.190
  512TIP3   OH2 1541   2.461   2.031   4.578
  512TIP3    H1 1542   2.447   2.010   4.485
  512TIP3    H2 1543   2.373   2.030   4.616
  513TIP3   OH2 1544   1.914   0.209   2.421
  513TIP3    H1 1545   1.855   0.149   2.466
  513TIP3    H2 1546   1.980   0.152   2.382
  514TIP3   OH2 1547   3.639   2.787   2.861
  514TIP3    H1 1548   3.583   2.713   2.838
  514TIP3    H2 1549   3.605   2.817   2.946
  515TIP3   OH2 1550   4.559   3.314   1.345
  515TIP3    H1 1551   4.639   3.362   1.368
  515TIP3    H2 1552   4.588   3.223   1.335
  516TIP3   OH2 1553   2.470   2.104   2.349
  516TIP3    H1 1554   2.392   2.156   2.332
  516TIP3    H2 1555   2.510   2.092   2.264
  517TIP3   OH2 1556   3.123   0.253   1.230
  517TIP3    H1 1557   3.209   0.272   1.269
  517TIP3    H2 1558   3.086   0.186   1.287
  518TIP3   OH2 1559   4.079   5.707   3.842
  518TIP3    H1 1560   4.170   5.693   3.867
  518TIP3    H2 1561   4.044   5.763   3.911
  519TIP3   OH2 1562   5.703   1.595   1.229
  519TIP3    H1 1563   5.654   1.621   1.151
  519TIP3    H2 1564   5.740   1.510   1.208
  520TIP3   OH2 1565   0.424   5.564   0.206
  520TIP3    H1 1566   0.405   5.527   0.292
  520TIP3    H2 1567   0.507   5.609   0.217
  521TIP3   OH2 1568   1.856   2.988   0.343
  521TIP3    H1 1569   1.948   2.962   0.341
  521TIP3    H2 1570   1.809   2.907   0.363
  522TIP3   OH2 1571   5.413   4.395   4.024
  522TIP3    H1 1572   5.381   4.449   3.952
  522TIP3    H2 1573   5.336   4.347   4.055
  523TIP3   OH2 1574   1.791   0.328   3.995
  523TIP3    H1 1575   1.716   0.305   3.941
  523TIP3    H2 1576   1.843   0.248   3.999
  524TIP3   OH2 1577   5.909   2.379   2.506
  524TIP3    H1 1578   5.953   2.463   2.517
  524TIP3    H2 1579   5.955   2.336   2.433
  525TIP3   OH2 1580   0.028   1.012   0.311
  525TIP3    H1 1581   0.034   1.076   0.240
  525TIP3    H2 1582   0.019   0.928   0.266
  526TIP3   OH2 1583   3.771   3.995   4.183
  526TIP3    H1 1584   3.724   3.911   4.181
  526TIP3    H2 1585   3.762   4.025   4.273
  527TIP3   OH2 1586   3.562   2.008   2.681
  527TIP3    H1 1587   3.563   1.946   2.754
  527TIP3    H2 1588   3.650   2.045   2.680
  528TIP3   OH2 1589   4.612   5.809   2.004
  528TIP3    H1 1590   4.543   5.876   2.012
  528TIP3    H2 1591   4.565   5.726   2.009
  529TIP3   OH2 1592   0.158   2.461   1.012
  529TIP3    H1 1593   0.114   2.546   1.015
  529TIP3    H2 1594   0.168   2.442   0.918
  530TIP3   OH2 1595   2.691   3.616   4.888
  530TIP3    H1 1596   2.752   3.609   4.814
  530TIP3    H2 1597   2.741   3.660   4.957
  531TIP3   OH2 1598   4.621   3.639   4.013
  531TIP3    H1 1599   4.543   3.693   4.022
  531TIP3    H2 1600   4.589   3.549   4.006
  532TIP3   OH2 1601   4.498   5.472   2.114
  532TIP3    H1 1602   4.464   5.534   2.179
  532TIP3    H2 1603   4.443   5.395   2.125
  533TIP3   OH2 1604   2.509   2.939   1.323
  533TIP3    H1 1605   2.420   2.943   1.289
  533TIP3    H2 1606   2.523   3.026   1.362
  534TIP3   OH2 1607   0.340   4.024   4.907
  534TIP3    H1 1608   0.274   4.052   4.844
  534TIP3    H2 1609   0.375   4.106   4.943
  535TIP3   OH2 1610   4.089   5.375   4.289
  535TIP3    H1 1611   4.054   5.391   4.202
  535TIP3    H2 1612   4.012   5.363   4.344
  536TIP3   OH2 1613   2.418   4.924   0.449
  536TIP3    H1 1614   2.357   4.888   0.385
  536TIP3    H2 1615   2.465   4.992   0.402
  537TIP3   OH2 1616   4.560   4.399   1.520
  537TIP3    H1 1617   4.579   4.365   1.432
  537TIP3    H2 1618   4.482   4.352   1.548
  538TIP3   OH2 1619   5.928   5.510   0.206
  538TIP3    H1 1620   5.937   5.495   0.300
  538TIP3    H2 1621   5.929   5.606   0.197
  539TIP3   OH2 1622   2.781   0.636   0.415
  539TIP3    H1 1623   2.849   0.626   0.349
  539TIP3    H2 1624   2.769   0.730   0.424
  540TIP3   OH2 1625   4.724   5.735   3.848
  540TIP3    H1 1626   4.738   5.811   3.791
  540TIP3    H2 1627   4.752   5.765   3.934
  541TIP3   OH2 1628   4.973   4.920   1.738
  541TIP3    H1 1629   5.043   4.873   1.694
  541TIP3    H2 1630   4.893   4.876   1.711
  542TIP3   OH2 1631   2.888   2.104   0.844
  542TIP3    H1 1632   2.851   2.179   0.892
  542TIP3    H2 1633   2.966   2.140   0.801
  543TIP3   OH2 1634   3.903   2.075   3.809
  543TIP3    H1 1635   3.974   2.029   3.764
  543TIP3    H2 1636   3.838   2.007   3.828
  544TIP3   OH2 1637   0.237   0.995   0.003
  544TIP3    H1 1638   0.250   1.068   0.063
  544TIP3    H2 1639   0.306   1.004  -0.062
  545TIP3   OH2 1640   0.435   4.950   0.797
  545TIP3    H1 1641   0.466   4.967   0.886
  545TIP3    H2 1642   0.394   5.032   0.770
  546TIP3   OH2 1643   0.510   3.631   3.649
  546TIP3    H1 1644   0.484   3.705   3.593
  546TIP3    H2 1645   0.591   3.599   3.609
  547TIP3   OH2 1646   3.321   0.923   3.240
  547TIP3    H1 1647   3.360   1.009   3.256
  547TIP3    H2 1648   3.263   0.937   3.165
  548TIP3   OH2 1649   1.401   4.035   5.034
  548TIP3    H1 1650   1.380   3.945   5.010
  548TIP3    H2 1651   1.386   4.039   5.128
  549TIP3   OH2 1652   5.474   3.246   1.694
  549TIP3    H1 1653   5.532   3.213   1.626
  549TIP3    H2 1654   5.468   3.340   1.677
  550TIP3   OH2 1655   1.549   2.668   2.170
  550TIP3    H1 1656   1.583   2.724   2.101
  550TIP3    H2 1657   1.544   2.581   2.131
  551TIP3   OH2 1658   2.216   4.442   5.102
  551TIP3    H1 1659   2.303   4.431   5.139
  551TIP3    H2 1660   2.177   4.514   5.152
  552TIP3   OH2 1661   2.631   4.239   4.441
  552TIP3    H1 1662   2.568   4.227   4.369
  552TIP3    H2 1663   2.590   4.194   4.516
  553TIP3   OH2 1664   0.130   3.338   0.324
  553TIP3    H1 1665   0.176   3.403   0.271
  553TIP3    H2 1666   0.057   3.386   0.363
  554TIP3   OH2 1667   0.343   1.027   1.016
  554TIP3    H1 1668   0.254   1.059   1.032
  554TIP3    H2 1669   0.333   0.933   1.004
  555TIP3   OH2 1670   3.174   4.153   1.498
  555TIP3    H1 1671   3.257   4.200   1.500
  555TIP3    H2 1672   3.129   4.188   1.420
  556TIP3   OH2 1673   0.595   3.641   4.579
  556TIP3    H1 1674   0.653   3.621   4.653
  556TIP3    H2 1675   0.653   3.680   4.513
  557TIP3   OH2 1676   6.031   1.201   0.589
  557TIP3    H1 1677   6.097   1.135   0.608
  557TIP3    H2 1678   6.076   1.265   0.534
  558TIP3   OH2 1679   4.367   3.329   3.729
  558TIP3    H1 1680   4.304   3.266   3.764
  558TIP3    H2 1681   4.323   3.367   3.653
  559TIP3   OH2 1682   4.843   1.497   4.592
  559TIP3    H1 1683   4.789   1.563   4.548
  559TIP3    H2 1684   4.787   1.420   4.598
  560TIP3   OH2 1685   5.720   5.423   3.396
  560TIP3    H1 1686   5.764   5.338   3.397
  560TIP3    H2 1687   5.768   5.477   3.459
  561TIP3   OH2 1688   2.236   4.983   0.093
  561TIP3    H1 1689   2.326   4.950   0.095
  561TIP3    H2 1690   2.215   4.991   0.000
  562TIP3   OH2 1691   1.330   1.434   2.692
  562TIP3    H1 1692   1.417   1.459   2.724
  562TIP3    H2 1693   1.297   1.373   2.759
  563TIP3   OH2 1694   0.775   3.126   1.316
  563TIP3    H1 1695   0.811   3.143   1.229
  563TIP3    H2 1696   0.680   3.125   1.303
  564TIP3   OH2 1697   1.849   2.326   2.004
  564TIP3    H1 1698   1.821   2.310   1.914
  564TIP3    H2 1699   1.867   2.239   2.040
  565TIP3   OH2 1700   0.030   1.338   0.425
  565TIP3    H1 1701   0.098   1.401   0.449
  565TIP3    H2 1702   0.076   1.269   0.377
  566TIP3   OH2 1703   3.005   1.767   1.327
  566TIP3    H1 1704   2.947   1.833   1.366
  566TIP3    H2 1705   3.052   1.814   1.258
  567TIP3   OH2 1706   0.311   5.716   2.273
  567TIP3    H1 1707   0.369   5.774   2.224
  567TIP3    H2 1708   0.351   5.629   2.262
  568TIP3   OH2 1709   2.419   4.253   2.581
  568TIP3    H1 1710   2.460   4.206   2.653
  568TIP3    H2 1711   2.377   4.329   2.621
  569TIP3   OH2 1712   2.252   5.907   0.699
  569TIP3    H1 1713   2.250   5.815   0.726
  569TIP3    H2 1714   2.263   5.955   0.780
  570TIP3   OH2 1715   1.217   5.403   4.385
  570TIP3    H1 1716   1.193   5.372   4.298
  570TIP3    H2 1717   1.241   5.324   4.433
  571TIP3   OH2 1718   6.213   5.613   1.675
  571TIP3    H1 1719   6.120   5.622   1.694
  571TIP3    H2 1720   6.220   5.530   1.628
  572TIP3   OH2 1721   5.111   5.195   0.231
  572TIP3    H1 1722   5.072   5.191   0.144
  572TIP3    H2 1723   5.041   5.166   0.290
  573TIP3   OH2 1724   0.873   5.774   0.975
  573TIP3    H1 1725   0.918   5.772   0.891
  573TIP3    H2 1726   0.798   5.831   0.962
  574TIP3   OH2 1727   0.963   0.329   4.151
  574TIP3    H1 1728   0.877   0.303   4.182
  574TIP3    H2 1729   0.947   0.375   4.069
  575TIP3   OH2 1730   5.290   3.858   2.959
  575TIP3    H1 1731   5.215   3.915   2.977
  575TIP3    H2 1732   5.339   3.905   2.890
  576TIP3   OH2 1733   0.927   2.958   2.953
  576TIP3    H1 1734   0.892   3.047   2.947
  576TIP3    H2 1735   1.011   2.967   2.998
  577TIP3   OH2 1736   2.252   0.816   0.567
  577TIP3    H1 1737   2.206   0.889   0.526
  577TIP3    H2 1738   2.341   0.822   0.532
  578TIP3   OH2 1739   0.958   0.967   4.729
  578TIP3    H1 1740   0.873   0.924   4.721
  578TIP3    H2 1741   0.984   0.986   4.639
  579TIP3   OH2 1742   1.585   2.957   0.879
  579TIP3    H1 1743   1.625   2.998   0.956
  579TIP3    H2 1744   1.654   2.958   0.813
  580TIP3   OH2 1745   1.561   4.800   4.444
  580TIP3    H1 1746   1.614   4.727   4.413
  580TIP3    H2 1747   1.624   4.872   4.456
  581TIP3   OH2 1748   3.279   5.659   3.697
  581TIP3    H1 1749   3.265   5.691   3.786
  581TIP3    H2 1750   3.318   5.572   3.708
  582TIP3   OH2 1751   5.200   3.208   2.385
  582TIP3    H1 1752   5.227   3.199   2.294
  582TIP3    H2 1753   5.182   3.118   2.413
  583TIP3   OH2 1754   0.576   1.144   0.870
  583TIP3    H1 1755   0.495   1.103   0.901
  583TIP3    H2 1756   0.552   1.233   0.847
  584TIP3   OH2 1757   2.077   1.623   1.093
  584TIP3    H1 1758   1.989   1.589   1.106
  584TIP3    H2 1759   2.095   1.609   1.000
  585TIP3   OH2 1760   3.781   0.491   4.754
  585TIP3    H1 1761   3.739   0.577   4.743
  585TIP3    H2 1762   3.782   0.478   4.849
  586TIP3   OH2 1763   3.357   1.047   1.699
  586TIP3    H1 1764   3.355   1.046   1.603
  586TIP3    H2 1765   3.299   1.119   1.723
  587TIP3   OH2 1766   3.276   2.401   2.504
  587TIP3    H1 1767   3.243   2.350   2.430
  587TIP3    H2 1768   3.325   2.338   2.557
  588TIP3   OH2 1769   2.725   2.407   0.160
  588TIP3    H1 1770   2.689   2.424   0.073
  588TIP3    H2 1771   2.772   2.324   0.150
  589TIP3   OH2 1772   5.361   4.479   4.559
  589TIP3    H1 1773   5.367   4.501   4.466
  589TIP3    H2 1774   5.282   4.524   4.590
  590TIP3   OH2 1775   0.176   1.198   4.388
  590TIP3    H1 1776   0.243   1.266   4.386
  590TIP3    H2 1777   0.165   1.178   4.481
  591TIP3   OH2 1778   3.374   3.682   0.789
  591TIP3    H1 1779   3.347   3.594   0.763
  591TIP3    H2 1780   3.462   3.691   0.754
  592TIP3   OH2 1781   5.519   1.622   2.579
  592TIP3    H1 1782   5.572   1.552   2.542
  592TIP3    H2 1783   5.570   1.702   2.563
  593TIP3   OH2 1784   3.169   2.672   1.527
  593TIP3    H1 1785   3.100   2.607   1.512
  593TIP3    H2 1786   3.247   2.634   1.486
  594TIP3   OH2 1787   2.020   1.164   4.508
  594TIP3    H1 1788   2.047   1.241   4.557
  594TIP3    H2 1789   1.995   1.100   4.574
  595TIP3   OH2 1790   0.552   2.345   2.404
  595TIP3    H1 1791   0.490   2.282   2.440
  595TIP3    H2 1792   0.517   2.367   2.318
  596TIP3   OH2 1793   2.417   4.803   2.292
  596TIP3    H1 1794   2.350   4.738   2.310
  596TIP3    H2 1795   2.499   4.759   2.314
  597TIP3   OH2 1796   6.043   2.700   0.329
  597TIP3    H1 1797   6.122   2.720   0.280
  597TIP3    H2 1798   5.994   2.782   0.333
  598TIP3   OH2 1799   3.045   4.111   1.968
  598TIP3    H1 1800   2.968   4.137   2.017
  598TIP3    H2 1801   3.095   4.055   2.030
  599TIP3   OH2 1802   4.018   1.780   4.658
  599TIP3    H1 1803   4.052   1.815   4.740
  599TIP3    H2 1804   3.970   1.853   4.618
  600TIP3   OH2 1805   3.042   3.590   2.269
  600TIP3    H1 1806   3.122   3.644   2.271
  600TIP3    H2 1807   3.006   3.604   2.182
  601TIP3   OH2 1808   5.709   3.742   3.252
  601TIP3    H1 1809   5.764   3.804   3.204
  601TIP3    H2 1810   5.620   3.761   3.224
  602TIP3   OH2 1811   0.911   5.533   2.631
  602TIP3    H1 1812   0.931   5.584   2.709
  602TIP3    H2 1813   0.996   5.510   2.595
  603TIP3   OH2 1814   4.638   5.601   4.169
  603TIP3    H1 1815   4.677   5.684   4.141
  603TIP3    H2 1816   4.679   5.535   4.114
  604TIP3   OH2 1817   0.202   1.973   0.885
  604TIP3    H1 1818   0.173   1.898   0.937
  604TIP3    H2 1819   0.190   2.048   0.943
  605TIP3   OH2 1820   3.829   1.082   2.046
  605TIP3    H1 1821   3.912   1.128   2.034
  605TIP3    H2 1822   3.774   1.113   1.974
  606TIP3   OH2 1823   6.144   1.676   3.655
  606TIP3    H1 1824   6.082   1.652   3.723
  606TIP3    H2 1825   6.230   1.666   3.695
  607TIP3   OH2 1826   5.681   2.314   0.137
  607TIP3    H1 1827   5.719   2.395   0.170
  607TIP3    H2 1828   5.714   2.307   0.047
  608TIP3   OH2 1829   4.561   2.788   3.103
  608TIP3    H1 1830   4.511   2.766   3.025
  608TIP3    H2 1831   4.617   2.711   3.118
  609TIP3   OH2 1832   2.751   3.172   0.758
  609TIP3    H1 1833   2.785   3.245   0.705
  609TIP3    H2 1834   2.809   3.168   0.834
  610TIP3   OH2 1835   1.328   4.940   4.849
  610TIP3    H1 1836   1.339   4.849   4.822
  610TIP3    H2 1837   1.321   4.936   4.944
  611TIP3   OH2 1838   4.923   0.834   1.915
  611TIP3    H1 1839   4.976   0.755   1.919
  611TIP3    H2 1840   4.933   0.866   1.826
  612TIP3   OH2 1841   6.238   1.898   2.768
  612TIP3    H1 1842   6.146   1.875   2.776
  612TIP3    H2 1843   6.247   1.935   2.680
  613TIP3   OH2 1844   3.693   2.988   0.423
  613TIP3    H1 1845   3.765   3.043   0.392
  613TIP3    H2 1846   3.614   3.041   0.408
  614TIP3   OH2 1847   0.405   3.918   3.029
  614TIP3    H1 1848   0.452   3.916   3.112
  614TIP3    H2 1849   0.472   3.897   2.964
  615TIP3   OH2 1850   1.932   1.644   2.360
  615TIP3    H1 1851   1.908   1.570   2.415
  615TIP3    H2 1852   1.876   1.637   2.283
  616TIP3   OH2 1853   3.318   5.435   1.953
  616TIP3    H1 1854   3.386   5.412   2.017
  616TIP3    H2 1855   3.271   5.353   1.938
  617TIP3   OH2 1856   3.544   0.038   0.226
  617TIP3    H1 1857   3.559  -0.057   0.233
  617TIP3    H2 1858   3.481   0.047   0.155
  618TIP3   OH2 1859   1.686   1.489   0.285
  618TIP3    H1 1860   1.742   1.478   0.208
  618TIP3    H2 1861   1.640   1.406   0.294
  619TIP3   OH2 1862   3.960   4.389   3.405
  619TIP3    H1 1863   4.050   4.370   3.377
  619TIP3    H2 1864   3.920   4.431   3.328
  620TIP3   OH2 1865   0.199   4.276   2.815
  620TIP3    H1 1866   0.259   4.347   2.795
  620TIP3    H2 1867   0.248   4.196   2.794
  621TIP3   OH2 1868   3.019   2.598   4.464
  621TIP3    H1 1869   2.982   2.518   4.500
  621TIP3    H2 1870   3.061   2.570   4.382
  622TIP3   OH2 1871   3.581   4.359   2.835
  622TIP3    H1 1872   3.633   4.361   2.916
  622TIP3    H2 1873   3.610   4.437   2.787
  623TIP3   OH2 1874   2.016   2.258   0.847
  623TIP3    H1 1875   2.014   2.329   0.784
  623TIP3    H2 1876   2.107   2.257   0.879
  624TIP3   OH2 1877   4.014   5.387   0.040
  624TIP3    H1 1878   4.010   5.297   0.008
  624TIP3    H2 1879   4.101   5.395   0.080
  625TIP3   OH2 1880   5.168   4.627   2.290
  625TIP3    H1 1881   5.245   4.669   2.329
  625TIP3    H2 1882   5.119   4.594   2.364
  626TIP3   OH2 1883   2.407   5.255   3.982
  626TIP3    H1 1884   2.356   5.180   3.952
  626TIP3    H2 1885   2.498   5.231   3.964
  627TIP3   OH2 1886   5.056   5.806   2.355
  627TIP3    H1 1887   5.107   5.870   2.305
  627TIP3    H2 1888   4.970   5.805   2.312
  628TIP3   OH2 1889   3.122   1.220   4.177
  628TIP3    H1 1890   3.054   1.226   4.244
  628TIP3    H2 1891   3.157   1.131   4.186
  629TIP3   OH2 1892   5.955   0.742  -0.013
  629TIP3    H1 1893   5.974   0.835  -0.018
  629TIP3    H2 1894   6.039   0.700   0.005
  630TIP3   OH2 1895   2.409   2.577   1.732
  630TIP3    H1 1896   2.401   2.514   1.661
  630TIP3    H2 1897   2.446   2.655   1.691
  631TIP3   OH2 1898   2.274   2.696   2.447
  631TIP3    H1 1899   2.260   2.606   2.477
  631TIP3    H2 1900   2.367   2.712   2.460
  632TIP3   OH2 1901   0.148   2.937   1.724
  632TIP3    H1 1902   0.132   2.897   1.638
  632TIP3    H2 1903   0.206   3.011   1.706
  633TIP3   OH2 1904   2.744   5.683   4.591
  633TIP3    H1 1905   2.703   5.650   4.671
  633TIP3    H2 1906   2.693   5.761   4.568
  634TIP3   OH2 1907   3.512   3.227   0.370
  634TIP3    H1 1908   3.492   3.192   0.283
  634TIP3    H2 1909   3.484   3.319   0.365
  635TIP3   OH2 1910   0.742   1.841   3.786
  635TIP3    H1 1911   0.745   1.777   3.856
  635TIP3    H2 1912   0.667   1.814   3.732
  636TIP3   OH2 1913   5.130   3.853   3.971
  636TIP3    H1 1914   5.190   3.786   3.938
  636TIP3    H2 1915   5.123   3.916   3.900
  637TIP3   OH2 1916   0.375   1.146   4.745
  637TIP3    H1 1917   0.316   1.097   4.802
  637TIP3    H2 1918   0.414   1.080   4.688
  638TIP3   OH2 1919   5.792   4.588   2.410
  638TIP3    H1 1920   5.828   4.529   2.477
  638TIP3    H2 1921   5.841   4.669   2.421
  639TIP3   OH2 1922   3.570   0.420   1.053
  639TIP3    H1 1923   3.632   0.347   1.059
  639TIP3    H2 1924   3.625   0.498   1.046
  640TIP3   OH2 1925   5.150   0.412   2.257
  640TIP3    H1 1926   5.110   0.341   2.307
  640TIP3    H2 1927   5.076   0.455   2.213
  641TIP3   OH2 1928   1.584   2.522   2.748
  641TIP3    H1 1929   1.581   2.487   2.838
  641TIP3    H2 1930   1.676   2.516   2.723
  642TIP3   OH2 1931   5.736   0.207   4.403
  642TIP3    H1 1932   5.667   0.263   4.438
  642TIP3    H2 1933   5.718   0.203   4.309
  643TIP3   OH2 1934   5.657   1.666   4.503
  643TIP3    H1 1935   5.696   1.743   4.462
  643TIP3    H2 1936   5.723   1.635   4.565
  644TIP3   OH2 1937   0.152   3.699   2.442
  644TIP3    H1 1938   0.063   3.664   2.434
  644TIP3    H2 1939   0.154   3.740   2.528
  645TIP3   OH2 1940   4.380   1.269   4.054
  645TIP3    H1 1941   4.338   1.207   4.113
  645TIP3    H2 1942   4.473   1.247   4.059
  646TIP3   OH2 1943   3.487   4.015   4.578
  646TIP3    H1 1944   3.505   4.107   4.557
  646TIP3    H2 1945   3.420   3.988   4.516
  647TIP3   OH2 1946   5.424   0.989   3.526
  647TIP3    H1 1947   5.385   0.918   3.476
  647TIP3    H2 1948   5.489   1.027   3.468
  648TIP3   OH2 1949   1.267   1.566   3.755
  648TIP3    H1 1950   1.241   1.652   3.789
  648TIP3    H2 1951   1.207   1.504   3.797
  649TIP3   OH2 1952   3.765   1.875   4.766
  649TIP3    H1 1953   3.767   1.964   4.729
  649TIP3    H2 1954   3.829   1.878   4.837
  650TIP3   OH2 1955   2.555   1.370   1.410
  650TIP3    H1 1956   2.604   1.329   1.339
  650TIP3    H2 1957   2.533   1.457   1.376
  651TIP3   OH2 1958   3.779   5.323   5.094
  651TIP3    H1 1959   3.702   5.379   5.109
  651TIP3    H2 1960   3.774   5.301   5.001
  652TIP3   OH2 1961   4.158   4.912   1.041
  652TIP3    H1 1962   4.066   4.893   1.024
  652TIP3    H2 1963   4.160   4.940   1.133
  653TIP3   OH2 1964   3.531   4.476   4.215
  653TIP3    H1 1965   3.577   4.495   4.297
  653TIP3    H2 1966   3.567   4.539   4.152
  654TIP3   OH2 1967   2.432   0.067   0.311
  654TIP3    H1 1968   2.526   0.070   0.328
  654TIP3    H2 1969   2.402   0.157   0.321
  655TIP3   OH2 1970   1.225   3.138   1.650
  655TIP3    H1 1971   1.197   3.218   1.696
  655TIP3    H2 1972   1.152   3.117   1.592
  656TIP3   OH2 1973   3.506   1.609   1.038
  656TIP3    H1 1974   3.514   1.575   0.949
  656TIP3    H2 1975   3.596   1.615   1.069
  657TIP3   OH2 1976   6.236   1.238   1.009
  657TIP3    H1 1977   6.172   1.185   0.961
  657TIP3    H2 1978   6.303   1.258   0.944
  658TIP3   OH2 1979   1.771   4.031   0.486
  658TIP3    H1 1980   1.752   4.031   0.580
  658TIP3    H2 1981   1.821   3.951   0.471
  659TIP3   OH2 1982   2.131   3.210   2.594
  659TIP3    H1 1983   2.141   3.115   2.590
  659TIP3    H2 1984   2.077   3.232   2.519
  660TIP3   OH2 1985   1.660   5.961   2.979
  660TIP3    H1 1986   1.669   5.866   2.981
  660TIP3    H2 1987   1.719   5.989   2.909
  661TIP3   OH2 1988   4.482   3.158   4.783
  661TIP3    H1 1989   4.474   3.063   4.783
  661TIP3    H2 1990   4.560   3.176   4.730
  662TIP3   OH2 1991   0.470   3.365   0.710
  662TIP3    H1 1992   0.525   3.435   0.743
  662TIP3    H2 1993   0.387   3.408   0.688
  663TIP3   OH2 1994   5.517   1.736   2.933
  663TIP3    H1 1995   5.471   1.810   2.894
  663TIP3    H2 1996   5.484   1.659   2.886
  664TIP3   OH2 1997   1.050   4.549   3.527
  664TIP3    H1 1998   1.051   4.638   3.564
  664TIP3    H2 1999   0.990   4.555   3.452
  665TIP3   OH2 2000   5.165   4.596   2.022
  665TIP3    H1 2001   5.187   4.611   2.113
  665TIP3    H2 2002   5.070   4.608   2.018
  666TIP3   OH2 2003   5.964   3.099   4.539
  666TIP3    H1 2004   5.932   3.017   4.577
  666TIP3    H2 2005   6.033   3.072   4.479
  667TIP3   OH2 2006   0.494   1.906   0.947
  667TIP3    H1 2007   0.571   1.897   1.003
  667TIP3    H2 2008   0.450   1.985   0.979
  668TIP3   OH2 2009   5.003   1.307   3.947
  668TIP3    H1 2010   5.006   1.324   4.041
  668TIP3    H2 2011   5.089   1.271   3.925
  669TIP3   OH2 2012   1.771   3.727   0.394
  669TIP3    H1 2013   1.776   3.775   0.312
  669TIP3    H2 2014   1.792   3.637   0.371
  670TIP3   OH2 2015   5.692   3.801   3.825
  670TIP3    H1 2016   5.627   3.871   3.818
  670TIP3    H2 2017   5.693   3.762   3.737
  671TIP3   OH2 2018   3.854   2.935   4.454
  671TIP3    H1 2019   3.778   2.897   4.498
  671TIP3    H2 2020   3.843   3.030   4.464
  672TIP3   OH2 2021   0.989   3.362   0.237
  672TIP3    H1 2022   0.976   3.437   0.294
  672TIP3    H2 2023   1.055   3.309   0.282
  673TIP3   OH2 2024   6.085   2.758   1.907
  673TIP3    H1 2025   6.086   2.774   2.001
  673TIP3    H2 2026   6.014   2.695   1.894
  674TIP3   OH2 2027  -0.005   1.625   0.676
  674TIP3    H1 2028   0.027   1.578   0.752
  674TIP3    H2 2029   0.056   1.601   0.605
  675TIP3   OH2 2030   6.087   0.696   3.973
  675TIP3    H1 2031   6.146   0.742   4.033
  675TIP3    H2 2032   6.040   0.766   3.928
  676TIP3   OH2 2033   0.912   4.243  -0.007
  676TIP3    H1 2034   0.949   4.166   0.035
  676TIP3    H2 2035   0.835   4.265   0.046
  677TIP3   OH2 2036   1.806   2.652   3.606
  677TIP3    H1 2037   1.717   2.639   3.572
  677TIP3    H2 2038   1.835   2.734   3.565
  678TIP3   OH2 2039   5.532   1.484   2.171
  678TIP3    H1 2040   5.586   1.468   2.248
  678TIP3    H2 2041   5.456   1.427   2.183
  679TIP3   OH2 2042   0.916   4.816   4.365
  679TIP3    H1 2043   0.995   4.865   4.387
  679TIP3    H2 2044   0.898   4.840   4.274
  680TIP3   OH2 2045   2.159   0.970   3.580
  680TIP3    H1 2046   2.205   1.054   3.589
  680TIP3    H2 2047   2.215   0.907   3.625
  681TIP3   OH2 2048   1.748   1.604   2.907
  681TIP3    H1 2049   1.794   1.633   2.985
  681TIP3    H2 2050   1.817   1.584   2.844
  682TIP3   OH2 2051   1.754   2.002   0.623
  682TIP3    H1 2052   1.750   2.094   0.597
  682TIP3    H2 2053   1.839   1.991   0.664
  683TIP3   OH2 2054   0.920   4.024   4.928
  683TIP3    H1 2055   0.920   4.104   4.980
  683TIP3    H2 2056   0.880   3.958   4.984
  684TIP3   OH2 2057   5.263   2.735   2.934
  684TIP3    H1 2058   5.348   2.754   2.974
  684TIP3    H2 2059   5.226   2.821   2.913
  685TIP3   OH2 2060   2.085   0.808   1.154
  685TIP3    H1 2061   2.046   0.740   1.099
  685TIP3    H2 2062   2.130   0.866   1.092
  686TIP3   OH2 2063   6.018   2.007   0.125
  686TIP3    H1 2064   6.045   2.067   0.194
  686TIP3    H2 2065   6.042   2.051   0.043
  687TIP3   OH2 2066   5.844   5.180   3.484
  687TIP3    H1 2067   5.837   5.146   3.573
  687TIP3    H2 2068   5.808   5.111   3.428
  688TIP3   OH2 2069   5.459   4.172   2.485
  688TIP3    H1 2070   5.549   4.196   2.507
  688TIP3    H2 2071   5.465   4.132   2.398
  689TIP3   OH2 2072   0.783   0.220   1.939
  689TIP3    H1 2073   0.705   0.275   1.940
  689TIP3    H2 2074   0.750   0.131   1.923
  690TIP3   OH2 2075   3.751   3.261   2.473
  690TIP3    H1 2076   3.793   3.256   2.559
  690TIP3    H2 2077   3.657   3.251   2.491
  691TIP3   OH2 2078   3.725   2.646   2.088
  691TIP3    H1 2079   3.767   2.729   2.110
  691TIP3    H2 2080   3.745   2.589   2.163
  692TIP3   OH2 2081   1.377   4.719   3.441
  692TIP3    H1 2082   1.373   4.631   3.478
  692TIP3    H2 2083   1.286   4.741   3.421
  693TIP3   OH2 2084   2.281   1.911   0.817
  693TIP3    H1 2085   2.287   1.917   0.912
  693TIP3    H2 2086   2.260   1.819   0.800
  694TIP3   OH2 2087   0.423   0.130   4.284
  694TIP3    H1 2088   0.488   0.145   4.215
  694TIP3    H2 2089   0.435   0.039   4.310
  695TIP3   OH2 2090   3.772   5.986   3.740
  695TIP3    H1 2091   3.777   5.959   3.649
  695TIP3    H2 2092   3.859   6.020   3.760
  696TIP3   OH2 2093   1.780   2.843   4.122
  696TIP3    H1 2094   1.759   2.797   4.041
  696TIP3    H2 2095   1.874   2.862   4.115
  697TIP3   OH2 2096   0.059   3.687   1.894
  697TIP3    H1 2097   0.029   3.686   1.985
  697TIP3    H2 2098   0.154   3.676   1.899
  698TIP3   OH2 2099   2.302   5.392   2.659
  698TIP3    H1 2100   2.240   5.335   2.614
  698TIP3    H2 2101   2.327   5.457   2.592
  699TIP3   OH2 2102   5.320   2.215   4.524
  699TIP3    H1 2103   5.287   2.186   4.609
  699TIP3    H2 2104   5.410   2.243   4.542
  700TIP3   OH2 2105   4.293   5.877   0.402
  700TIP3    H1 2106   4.231   5.948   0.418
  700TIP3    H2 2107   4.239   5.799   0.398
  701TIP3   OH2 2108   0.510   2.898   4.089
  701TIP3    H1 2109   0.525   2.833   4.157
  701TIP3    H2 2110   0.472   2.850   4.016
  702TIP3   OH2 2111   2.437   0.210   2.487
  702TIP3    H1 2112   2.429   0.176   2.397
  702TIP3    H2 2113   2.474   0.298   2.476
  703TIP3   OH2 2114   4.776   5.354   2.646
  703TIP3    H1 2115   4.814   5.385   2.728
  703TIP3    H2 2116   4.835   5.385   2.578
  704TIP3   OH2 2117   6.016   0.215   3.492
  704TIP3    H1 2118   6.035   0.147   3.427
  704TIP3    H2 2119   6.037   0.297   3.448
  705TIP3   OH2 2120   0.510   0.032   2.205
  705TIP3    H1 2121   0.481  -0.059   2.203
  705TIP3    H2 2122   0.444   0.080   2.155
  706TIP3   OH2 2123   1.367   5.395   2.594
  706TIP3    H1 2124   1.416   5.313   2.596
  706TIP3    H2 2125   1.376   5.432   2.682
  707TIP3   OH2 2126   3.473   1.277   4.124
  707TIP3    H1 2127   3.435   1.362   4.143
  707TIP3    H2 2128   3.412   1.236   4.063
  708TIP3   OH2 2129   4.567   0.998   1.245
  708TIP3    H1 2130   4.476   0.984   1.272
  708TIP3    H2 2131   4.566   1.082   1.199
  709TIP3   OH2 2132   3.572   0.765   4.954
  709TIP3    H1 2133   3.490   0.804   4.923
  709TIP3    H2 2134   3.612   0.728   4.876
  710TIP3   OH2 2135   5.162   3.706   4.605
  710TIP3    H1 2136   5.097   3.647   4.568
  710TIP3    H2 2137   5.231   3.710   4.539
  711TIP3   OH2 2138   1.864   4.330   2.895
  711TIP3    H1 2139   1.935   4.393   2.905
  711TIP3    H2 2140   1.811   4.340   2.974
  712TIP3   OH2 2141   5.622   4.704   2.636
  712TIP3    H1 2142   5.706   4.689   2.681
  712TIP3    H2 2143   5.646   4.712   2.544
  713TIP3   OH2 2144   1.018   1.816   0.588
  713TIP3    H1 2145   0.939   1.847   0.633
  713TIP3    H2 2146   1.062   1.761   0.653
  714TIP3   OH2 2147   0.322   1.490   0.104
  714TIP3    H1 2148   0.416   1.471   0.108
  714TIP3    H2 2149   0.317   1.585   0.116
  715TIP3   OH2 2150   2.888   1.184   4.315
  715TIP3    H1 2151   2.834   1.255   4.352
  715TIP3    H2 2152   2.840   1.104   4.336
  716TIP3   OH2 2153   1.615   0.564   4.913
  716TIP3    H1 2154   1.549   0.568   4.983
  716TIP3    H2 2155   1.659   0.480   4.926
  717TIP3   OH2 2156   1.936   3.561   2.248
  717TIP3    H1 2157   1.854   3.511   2.244
  717TIP3    H2 2158   2.002   3.502   2.214
  718TIP3   OH2 2159   1.306   1.069   4.064
  718TIP3    H1 2160   1.322   0.995   4.122
  718TIP3    H2 2161   1.214   1.091   4.078
  719TIP3   OH2 2162   5.725   1.303   0.122
  719TIP3    H1 2163   5.755   1.318   0.212
  719TIP3    H2 2164   5.647   1.248   0.131
  720TIP3   OH2 2165   3.453   3.938   2.430
  720TIP3    H1 2166   3.536   3.961   2.387
  720TIP3    H2 2167   3.402   4.019   2.428
  721TIP3   OH2 2168   2.150   4.952   0.699
  721TIP3    H1 2169   2.203   4.893   0.753
  721TIP3    H2 2170   2.127   4.900   0.622
  722TIP3   OH2 2171   5.392   1.372   5.109
  722TIP3    H1 2172   5.397   1.453   5.159
  722TIP3    H2 2173   5.317   1.325   5.147
  723TIP3   OH2 2174   4.792   2.037   3.077
  723TIP3    H1 2175   4.816   1.965   3.019
  723TIP3    H2 2176   4.705   2.063   3.048
  724TIP3   OH2 2177   1.607   4.185   2.694
  724TIP3    H1 2178   1.643   4.269   2.720
  724TIP3    H2 2179   1.629   4.176   2.601
  725TIP3   OH2 2180   0.220   5.732   4.904
  725TIP3    H1 2181   0.124   5.730   4.900
  725TIP3    H2 2182   0.247   5.647   4.868
  726TIP3   OH2 2183   4.368   5.982   4.369
  726TIP3    H1 2184   4.404   6.043   4.434
  726TIP3    H2 2185   4.379   5.896   4.408
  727TIP3   OH2 2186   4.496   2.390   5.104
  727TIP3    H1 2187   4.590   2.372   5.102
  727TIP3    H2 2188   4.462   2.337   5.176
  728TIP3   OH2 2189   4.906   0.317   2.763
  728TIP3    H1 2190   4.914   0.229   2.799
  728TIP3    H2 2191   4.873   0.370   2.835
  729TIP3   OH2 2192   4.061   0.145   0.304
  729TIP3    H1 2193   4.094   0.065   0.261
  729TIP3    H2 2194   4.140   0.190   0.334
  730TIP3   OH2 2195   6.222   5.294   3.967
  730TIP3    H1 2196   6.261   5.365   4.018
  730TIP3    H2 2197   6.162   5.338   3.907
  731TIP3   OH2 2198   3.950   1.698   0.468
  731TIP3    H1 2199   3.881   1.756   0.503
  731TIP3    H2 2200   3.923   1.681   0.378
  732TIP3   OH2 2201   6.184   1.148   4.152
  732TIP3    H1 2202   6.135   1.132   4.071
  732TIP3    H2 2203   6.122   1.126   4.222
  733TIP3   OH2 2204   3.478   3.512   2.422
  733TIP3    H1 2205   3.570   3.495   2.444
  733TIP3    H2 2206   3.431   3.497   2.503
  734TIP3   OH2 2207   1.509   2.628   5.183
  734TIP3    H1 2208   1.478   2.621   5.092
  734TIP3    H2 2209   1.558   2.547   5.197
  735TIP3   OH2 2210   1.495   4.021   2.006
  735TIP3    H1 2211   1.464   3.938   2.041
  735TIP3    H2 2212   1.480   4.015   1.911
  736TIP3   OH2 2213   1.613   2.409   2.081
  736TIP3    H1 2214   1.701   2.383   2.052
  736TIP3    H2 2215   1.572   2.327   2.109
  737TIP3   OH2 2216   5.260   2.212   1.278
  737TIP3    H1 2217   5.249   2.117   1.276
  737TIP3    H2 2218   5.355   2.225   1.282
  738TIP3   OH2 2219   1.814   3.762   4.015
  738TIP3    H1 2220   1.853   3.701   3.953
  738TIP3    H2 2221   1.864   3.843   4.003
  739TIP3   OH2 2222   3.705   3.240   1.789
  739TIP3    H1 2223   3.620   3.281   1.774
  739TIP3    H2 2224   3.768   3.301   1.751
  740TIP3   OH2 2225   6.058   5.336   2.852
  740TIP3    H1 2226   6.146   5.343   2.890
  740TIP3    H2 2227   6.003   5.391   2.908
  741TIP3   OH2 2228   1.507   5.793   2.344
  741TIP3    H1 2229   1.472   5.704   2.343
  741TIP3    H2 2230   1.601   5.781   2.356
  742TIP3   OH2 2231   0.982   4.687   4.847
  742TIP3    H1 2232   0.949   4.753   4.786
  742TIP3    H2 2233   0.928   4.610   4.831
  743TIP3   OH2 2234   5.931   2.596   0.553
  743TIP3    H1 2235   5.881   2.514   0.551
  743TIP3    H2 2236   5.941   2.621   0.461
  744TIP3   OH2 2237   5.535   3.848   1.506
  744TIP3    H1 2238   5.461   3.905   1.527
  744TIP3    H2 2239   5.497   3.780   1.451
  745TIP3   OH2 2240   1.082   4.824   3.619
  745TIP3    H1 2241   1.007   4.880   3.640
  745TIP3    H2 2242   1.157   4.867   3.660
  746TIP3   OH2 2243   5.394   1.681   0.987
  746TIP3    H1 2244   5.357   1.594   1.003
  746TIP3    H2 2245   5.381   1.728   1.069
  747TIP3   OH2 2246   5.627   1.473   1.470
  747TIP3    H1 2247   5.648   1.515   1.387
  747TIP3    H2 2248   5.570   1.536   1.515
  748TIP3   OH2 2249   5.944   5.508   0.789
  748TIP3    H1 2250   6.014   5.477   0.847
  748TIP3    H2 2251   5.988   5.563   0.724
  749TIP3   OH2 2252   3.770   3.895   2.387
  749TIP3    H1 2253   3.806   3.931   2.468
  749TIP3    H2 2254   3.793   3.802   2.391
  750TIP3   OH2 2255   0.417   0.201   0.414
  750TIP3    H1 2256   0.464   0.217   0.332
  750TIP3    H2 2257   0.328   0.176   0.386
  751TIP3   OH2 2258   5.118   5.606   2.947
  751TIP3    H1 2259   5.073   5.641   3.024
  751TIP3    H2 2260   5.138   5.683   2.894
  752TIP3   OH2 2261   2.182   3.720   2.286
  752TIP3    H1 2262   2.250   3.726   2.354
  752TIP3    H2 2263   2.100   3.722   2.335
  753TIP3   OH2 2264   3.198   1.723   0.758
  753TIP3    H1 2265   3.279   1.699   0.713
  753TIP3    H2 2266   3.218   1.805   0.802
  754TIP3   OH2 2267   5.342   5.526   5.066
  754TIP3    H1 2268   5.256   5.488   5.080
  754TIP3    H2 2269   5.404   5.457   5.092
  755TIP3   OH2 2270   0.802   5.404   0.357
  755TIP3    H1 2271   0.720   5.356   0.366
  755TIP3    H2 2272   0.861   5.363   0.420
  756TIP3   OH2 2273   2.979   2.708   2.715
  756TIP3    H1 2274   3.036   2.755   2.654
  756TIP3    H2 2275   2.926   2.776   2.755
  757TIP3   OH2 2276   3.643   1.755   0.595
  757TIP3    H1 2277   3.629   1.844   0.629
  757TIP3    H2 2278   3.578   1.745   0.526
  758TIP3   OH2 2279   4.115   5.327   3.063
  758TIP3    H1 2280   4.056   5.395   3.029
  758TIP3    H2 2281   4.176   5.310   2.991
  759TIP3   OH2 2282   6.042   5.034   2.818
  759TIP3    H1 2283   5.993   4.993   2.746
  759TIP3    H2 2284   6.029   5.128   2.806
  760TIP3   OH2 2285   2.360   2.530   4.596
  760TIP3    H1 2286   2.430   2.547   4.533
  760TIP3    H2 2287   2.342   2.437   4.588
  761TIP3   OH2 2288   6.066   1.698   0.591
  761TIP3    H1 2289   6.072   1.749   0.510
  761TIP3    H2 2290   6.147   1.646   0.592
  762TIP3   OH2 2291   2.872   1.942   3.559
  762TIP3    H1 2292   2.859   1.973   3.649
  762TIP3    H2 2293   2.864   1.847   3.565
  763TIP3   OH2 2294   2.504   3.727   2.153
  763TIP3    H1 2295   2.546   3.797   2.204
  763TIP3    H2 2296   2.422   3.766   2.122
  764TIP3   OH2 2297   0.711   3.396   3.752
  764TIP3    H1 2298   0.688   3.487   3.774
  764TIP3    H2 2299   0.708   3.393   3.656
  765TIP3   OH2 2300   0.213   3.856   0.688
  765TIP3    H1 2301   0.275   3.818   0.626
  765TIP3    H2 2302   0.128   3.819   0.664
  766TIP3   OH2 2303   5.874   3.115   2.507
  766TIP3    H1 2304   5.909   3.106   2.596
  766TIP3    H2 2305   5.781   3.134   2.519
  767TIP3   OH2 2306   6.359   2.532   2.005
  767TIP3    H1 2307   6.401   2.604   1.959
  767TIP3    H2 2308   6.272   2.564   2.028
  768TIP3   OH2 2309   0.945   2.140   2.691
  768TIP3    H1 2310   0.908   2.172   2.610
  768TIP3    H2 2311   0.898   2.187   2.760
  769TIP3   OH2 2312   1.883   0.810   0.368
  769TIP3    H1 2313   1.871   0.823   0.274
  769TIP3    H2 2314   1.821   0.740   0.390
  770TIP3   OH2 2315   0.333   2.326   3.167
  770TIP3    H1 2316   0.307   2.293   3.254
  770TIP3    H2 2317   0.337   2.421   3.179
  771TIP3   OH2 2318   1.978   2.888   4.855
  771TIP3    H1 2319   1.950   2.829   4.925
  771TIP3    H2 2320   2.051   2.843   4.813
  772TIP3   OH2 2321   5.681   3.993   2.691
  772TIP3    H1 2322   5.587   3.976   2.694
  772TIP3    H2 2323   5.693   4.072   2.743
  773TIP3   OH2 2324   5.755   1.246   2.928
  773TIP3    H1 2325   5.831   1.192   2.907
  773TIP3    H2 2326   5.787   1.336   2.925
  774TIP3   OH2 2327   0.041   3.032   4.485
  774TIP3    H1 2328   0.127   3.034   4.443
  774TIP3    H2 2329   0.039   2.950   4.533
  775TIP3   OH2 2330   1.784   4.493   3.741
  775TIP3    H1 2331   1.807   4.401   3.754
  775TIP3    H2 2332   1.856   4.542   3.779
  776TIP3   OH2 2333   0.775   0.189   0.427
  776TIP3    H1 2334   0.856   0.234   0.452
  776TIP3    H2 2335   0.788   0.168   0.334
  777TIP3   OH2 2336   1.801   5.472   4.439
  777TIP3    H1 2337   1.734   5.537   4.456
  777TIP3    H2 2338   1.868   5.519   4.390
  778TIP3   OH2 2339   5.318   0.197   0.727
  778TIP3    H1 2340   5.335   0.284   0.691
  778TIP3    H2 2341   5.392   0.144   0.696
  779TIP3   OH2 2342   2.417   5.251   0.001
  779TIP3    H1 2343   2.330   5.292   0.001
  779TIP3    H2 2344   2.431   5.226   0.093
  780TIP3   OH2 2345   1.540   0.772   3.503
  780TIP3    H1 2346   1.454   0.812   3.508
  780TIP3    H2 2347   1.549   0.743   3.412
  781TIP3   OH2 2348   0.060   3.076   0.230
  781TIP3    H1 2349   0.086   3.148   0.287
  781TIP3    H2 2350   0.050   3.001   0.289
  782TIP3   OH2 2351   5.137   5.455   1.296
  782TIP3    H1 2352   5.210   5.495   1.249
  782TIP3    H2 2353   5.128   5.369   1.255
  783TIP3   OH2 2354   5.158   0.203   3.398
  783TIP3    H1 2355   5.200   0.120   3.376
  783TIP3    H2 2356   5.208   0.269   3.350
  784TIP3   OH2 2357   0.123   3.647   0.484
  784TIP3    H1 2358   0.046   3.590   0.485
  784TIP3    H2 2359   0.095   3.724   0.435
  785TIP3   OH2 2360   4.987   2.376   1.700
  785TIP3    H1 2361   4.896   2.345   1.691
  785TIP3    H2 2362   5.032   2.339   1.624
  786TIP3   OH2 2363   5.984   1.724   4.739
  786TIP3    H1 2364   6.014   1.657   4.800
  786TIP3    H2 2365   5.932   1.784   4.792
  787TIP3   OH2 2366   2.746   1.668   0.441
  787TIP3    H1 2367   2.694   1.740   0.406
  787TIP3    H2 2368   2.807   1.710   0.503
  788TIP3   OH2 2369   4.739   2.856   3.720
  788TIP3    H1 2370   4.823   2.879   3.760
  788TIP3    H2 2371   4.733   2.761   3.729
  789TIP3   OH2 2372   1.821   4.990   0.380
  789TIP3    H1 2373   1.783   4.971   0.466
  789TIP3    H2 2374   1.866   5.073   0.392
  790TIP3   OH2 2375   4.559   2.923   1.542
  790TIP3    H1 2376   4.559   2.836   1.583
  790TIP3    H2 2377   4.579   2.906   1.450
  791TIP3   OH2 2378   5.727   0.248   1.537
  791TIP3    H1 2379   5.749   0.291   1.455
  791TIP3    H2 2380   5.723   0.155   1.515
  792TIP3   OH2 2381   4.146   5.245   1.217
  792TIP3    H1 2382   4.223   5.262   1.163
  792TIP3    H2 2383   4.159   5.156   1.250
  793TIP3   OH2 2384   0.884   3.599   0.396
  793TIP3    H1 2385   0.857   3.690   0.381
  793TIP3    H2 2386   0.810   3.547   0.367
  794TIP3   OH2 2387   4.037   3.748   0.953
  794TIP3    H1 2388   4.022   3.726   0.861
  794TIP3    H2 2389   4.105   3.815   0.950
  795TIP3   OH2 2390   2.793   0.962   0.890
  795TIP3    H1 2391   2.781   1.036   0.949
  795TIP3    H2 2392   2.871   0.985   0.839
  796TIP3   OH2 2393   4.926   5.133   3.772
  796TIP3    H1 2394   4.889   5.096   3.852
  796TIP3    H2 2395   4.893   5.223   3.770
  797TIP3   OH2 2396   2.699   4.889   4.326
  797TIP3    H1 2397   2.769   4.841   4.371
  797TIP3    H2 2398   2.626   4.828   4.323
  798TIP3   OH2 2399   4.879   5.021   4.008
  798TIP3    H1 2400   4.932   5.070   4.070
  798TIP3    H2 2401   4.822   4.967   4.063
  799TIP3   OH2 2402   6.080   0.265   3.015
  799TIP3    H1 2403   6.166   0.305   3.000
  799TIP3    H2 2404   6.100   0.176   3.044
  800TIP3   OH2 2405   3.406   0.260   4.116
  800TIP3    H1 2406   3.428   0.174   4.152
  800TIP3    H2 2407   3.404   0.247   4.021
  801TIP3   OH2 2408   1.780   2.584   1.399
  801TIP3    H1 2409   1.797   2.596   1.306
  801TIP3    H2 2410   1.822   2.500   1.421
  802TIP3   OH2 2411   1.911   2.920   2.541
  802TIP3    H1 2412   1.913   2.838   2.589
  802TIP3    H2 2413   1.878   2.984   2.604
  803TIP3   OH2 2414   5.429   0.274   2.428
  803TIP3    H1 2415   5.471   0.203   2.380
  803TIP3    H2 2416   5.398   0.334   2.360
  804TIP3   OH2 2417   2.574   3.307   0.047
  804TIP3    H1 2418   2.610   3.286   0.134
  804TIP3    H2 2419   2.640   3.366   0.009
  805TIP3   OH2 2420   3.608   0.688   4.671
  805TIP3    H1 2421   3.540   0.622   4.680
  805TIP3    H2 2422   3.571   0.754   4.612
  806TIP3   OH2 2423   3.245   1.686   1.099
  806TIP3    H1 2424   3.336   1.658   1.088
  806TIP3    H2 2425   3.245   1.778   1.073
  807TIP3   OH2 2426   4.759   1.386   1.892
  807TIP3    H1 2427   4.763   1.325   1.966
  807TIP3    H2 2428   4.728   1.333   1.819
  808TIP3   OH2 2429   0.701   1.955   0.609
  808TIP3    H1 2430   0.612   1.977   0.636
  808TIP3    H2 2431   0.748   1.943   0.692
  809TIP3   OH2 2432   0.611   5.893   2.876
  809TIP3    H1 2433   0.617   5.907   2.781
  809TIP3    H2 2434   0.664   5.815   2.892
  810TIP3   OH2 2435   1.721   5.259   2.681
  810TIP3    H1 2436   1.730   5.185   2.740
  810TIP3    H2 2437   1.684   5.222   2.601
  811TIP3   OH2 2438   4.715   4.923   0.952
  811TIP3    H1 2439   4.654   4.850   0.945
  811TIP3    H2 2440   4.675   4.993   0.902
  812TIP3   OH2 2441   1.813   1.299   4.346
  812TIP3    H1 2442   1.719   1.286   4.335
  812TIP3    H2 2443   1.841   1.226   4.401
  813TIP3   OH2 2444   4.791   3.838   4.724
  813TIP3    H1 2445   4.771   3.823   4.632
  813TIP3    H2 2446   4.862   3.902   4.723
  814TIP3   OH2 2447   0.542   2.463   5.015
  814TIP3    H1 2448   0.470   2.447   4.954
  814TIP3    H2 2449   0.589   2.537   4.977
  815TIP3   OH2 2450   4.025   5.283   2.665
  815TIP3    H1 2451   4.031   5.200   2.617
  815TIP3    H2 2452   4.114   5.299   2.696
  816TIP3   OH2 2453   5.720   4.867   5.106
  816TIP3    H1 2454   5.779   4.918   5.051
  816TIP3    H2 2455   5.774   4.841   5.181
  817TIP3   OH2 2456   5.483   4.628   4.773
  817TIP3    H1 2457   5.481   4.637   4.677
  817TIP3    H2 2458   5.436   4.547   4.790
  818TIP3   OH2 2459   4.850   3.564   0.812
  818TIP3    H1 2460   4.842   3.471   0.832
  818TIP3    H2 2461   4.936   3.589   0.848
  819TIP3   OH2 2462   0.922   1.277   4.829
  819TIP3    H1 2463   0.932   1.267   4.734
  819TIP3    H2 2464   0.839   1.235   4.849
  820TIP3   OH2 2465   6.331   1.053   2.822
  820TIP3    H1 2466   6.301   1.112   2.753
  820TIP3    H2 2467   6.360   1.111   2.892
  821TIP3   OH2 2468   0.735   1.733   1.835
  821TIP3    H1 2469   0.754   1.787   1.758
  821TIP3    H2 2470   0.802   1.664   1.832
  822TIP3   OH2 2471   3.145   1.353   0.262
  822TIP3    H1 2472   3.221   1.307   0.299
  822TIP3    H2 2473   3.082   1.356   0.334
  823TIP3   OH2 2474   2.775   1.298   1.588
  823TIP3    H1 2475   2.708   1.315   1.521
  823TIP3    H2 2476   2.839   1.242   1.543
  824TIP3   OH2 2477   5.626   2.496   0.859
  824TIP3    H1 2478   5.552   2.442   0.887
  824TIP3    H2 2479   5.629   2.484   0.764
  825TIP3   OH2 2480   3.804   4.889   4.754
  825TIP3    H1 2481   3.723   4.939   4.757
  825TIP3    H2 2482   3.836   4.901   4.664
  826TIP3   OH2 2483   0.459   5.158   4.068
  826TIP3    H1 2484   0.413   5.077   4.045
  826TIP3    H2 2485   0.393   5.210   4.115
  827TIP3   OH2 2486   2.714   4.172   1.741
  827TIP3    H1 2487   2.808   4.177   1.725
  827TIP3    H2 2488   2.674   4.207   1.661
  828TIP3   OH2 2489   2.732   4.299   3.091
  828TIP3    H1 2490   2.756   4.391   3.079
  828TIP3    H2 2491   2.646   4.291   3.049
  829TIP3   OH2 2492   5.465   1.025   3.051
  829TIP3    H1 2493   5.443   0.936   3.079
  829TIP3    H2 2494   5.395   1.079   3.087
  830TIP3   OH2 2495   2.309   4.889   3.015
  830TIP3    H1 2496   2.284   4.972   3.055
  830TIP3    H2 2497   2.312   4.827   3.088
  831TIP3   OH2 2498   1.494   3.035   4.709
  831TIP3    H1 2499   1.467   2.949   4.674
  831TIP3    H2 2500   1.556   3.068   4.644
  832TIP3   OH2 2501   2.987   0.934   4.167
  832TIP3    H1 2502   2.918   0.988   4.129
  832TIP3    H2 2503   2.960   0.844   4.149
  833TIP3   OH2 2504   1.660   0.605   3.904
  833TIP3    H1 2505   1.589   0.584   3.965
  833TIP3    H2 2506   1.633   0.564   3.821
  834TIP3   OH2 2507   5.050   3.356   1.231
  834TIP3    H1 2508   5.114   3.354   1.302
  834TIP3    H2 2509   5.074   3.284   1.174
  835TIP3   OH2 2510   1.252   4.472   2.735
  835TIP3    H1 2511   1.281   4.433   2.653
  835TIP3    H2 2512   1.237   4.564   2.714
  836TIP3   OH2 2513   4.122   0.324   4.299
  836TIP3    H1 2514   4.073   0.333   4.381
  836TIP3    H2 2515   4.056   0.304   4.233
  837TIP3   OH2 2516   0.275   5.325   1.680
  837TIP3    H1 2517   0.313   5.376   1.608
  837TIP3    H2 2518   0.228   5.254   1.636
  838TIP3   OH2 2519   0.852   1.180   3.785
  838TIP3    H1 2520   0.915   1.161   3.854
  838TIP3    H2 2521   0.830   1.273   3.797
  839TIP3   OH2 2522   6.063   2.103   1.774
  839TIP3    H1 2523   6.086   2.057   1.693
  839TIP3    H2 2524   6.111   2.186   1.768
  840TIP3   OH2 2525   6.355   4.589   5.029
  840TIP3    H1 2526   6.358   4.554   4.940
  840TIP3    H2 2527   6.280   4.648   5.029
  841TIP3   OH2 2528   3.744   2.642   1.266
  841TIP3    H1 2529   3.796   2.722   1.269
  841TIP3    H2 2530   3.706   2.634   1.353
  842TIP3   OH2 2531   3.471   3.393   1.740
  842TIP3    H1 2532   3.406   3.368   1.675
  842TIP3    H2 2533   3.506   3.476   1.707
  843TIP3   OH2 2534   5.564   0.350   0.986
  843TIP3    H1 2535   5.567   0.369   0.892
  843TIP3    H2 2536   5.473   0.330   1.003
  844TIP3   OH2 2537   3.585   1.270   4.699
  844TIP3    H1 2538   3.616   1.231   4.781
  844TIP3    H2 2539   3.490   1.277   4.711
  845TIP3   OH2 2540   1.622   2.705   4.429
  845TIP3    H1 2541   1.689   2.723   4.495
  845TIP3    H2 2542   1.653   2.625   4.386
  846TIP3   OH2 2543   1.938   2.144   5.180
  846TIP3    H1 2544   2.029   2.157   5.206
  846TIP3    H2 2545   1.927   2.049   5.177
  847TIP3   OH2 2546   3.897   1.835   2.381
  847TIP3    H1 2547   3.899   1.915   2.329
  847TIP3    H2 2548   3.825   1.784   2.343
  848TIP3   OH2 2549   2.398   4.854   4.178
  848TIP3    H1 2550   2.453   4.896   4.244
  848TIP3    H2 2551   2.459   4.831   4.107
  849TIP3   OH2 2552   0.517   0.302   3.148
  849TIP3    H1 2553   0.424   0.317   3.164
  849TIP3    H2 2554   0.551   0.388   3.122
  850TIP3   OH2 2555   2.926   3.272   2.252
  850TIP3    H1 2556   2.951   3.287   2.161
  850TIP3    H2 2557   3.004   3.298   2.302
  851TIP3   OH2 2558   3.681   5.778   2.825
  851TIP3    H1 2559   3.617   5.847   2.844
  851TIP3    H2 2560   3.666   5.755   2.734
  852TIP3   OH2 2561   1.275   4.896   5.111
  852TIP3    H1 2562   1.248   4.941   5.191
  852TIP3    H2 2563   1.301   4.809   5.139
  853TIP3   OH2 2564   6.197   2.570   3.044
  853TIP3    H1 2565   6.135   2.518   2.993
  853TIP3    H2 2566   6.281   2.526   3.033
  854TIP3   OH2 2567   1.937   4.055   2.147
  854TIP3    H1 2568   1.856   4.093   2.114
  854TIP3    H2 2569   1.985   4.128   2.186
  855TIP3   OH2 2570   3.181   5.181   0.997
  855TIP3    H1 2571   3.245   5.201   1.065
  855TIP3    H2 2572   3.176   5.086   0.997
  856TIP3   OH2 2573   1.636   5.503   2.667
  856TIP3    H1 2574   1.596   5.508   2.580
  856TIP3    H2 2575   1.660   5.411   2.677
  857TIP3   OH2 2576   0.372   4.019   3.512
  857TIP3    H1 2577   0.344   4.098   3.465
  857TIP3    H2 2578   0.301   3.957   3.498
  858TIP3   OH2 2579   0.322   5.118   2.311
  858TIP3    H1 2580   0.365   5.138   2.228
  858TIP3    H2 2581   0.374   5.047   2.349
  859TIP3   OH2 2582   1.431   4.730   2.304
  859TIP3    H1 2583   1.507   4.780   2.334
  859TIP3    H2 2584   1.453   4.639   2.324
  860TIP3   OH2 2585   3.699   4.362   3.085
  860TIP3    H1 2586   3.672   4.294   3.147
  860TIP3    H2 2587   3.782   4.394   3.119
  861TIP3   OH2 2588   5.318   3.721   0.257
  861TIP3    H1 2589   5.277   3.805   0.237
  861TIP3    H2 2590   5.359   3.734   0.343
  862TIP3   OH2 2591   0.430   4.883   5.136
  862TIP3    H1 2592   0.356   4.852   5.084
  862TIP3    H2 2593   0.400   4.880   5.226
  863TIP3   OH2 2594   2.901   1.168   0.688
  863TIP3    H1 2595   2.883   1.233   0.755
  863TIP3    H2 2596   2.996   1.157   0.689
  864TIP3   OH2 2597   3.675   1.450   3.961
  864TIP3    H1 2598   3.671   1.534   4.007
  864TIP3    H2 2599   3.591   1.408   3.980
  865TIP3   OH2 2600   1.191   1.626   0.678
  865TIP3    H1 2601   1.169   1.587   0.763
  865TIP3    H2 2602   1.168   1.558   0.614
  866TIP3   OH2 2603   5.001   4.033   0.876
  866TIP3    H1 2604   5.085   4.014   0.834
  866TIP3    H2 2605   4.997   3.974   0.951
  867TIP3   OH2 2606   1.976   5.506   2.593
  867TIP3    H1 2607   2.018   5.480   2.511
  867TIP3    H2 2608   1.905   5.443   2.605
  868TIP3   OH2 2609   2.969   3.256  -0.043
  868TIP3    H1 2610   3.003   3.342  -0.017
  868TIP3    H2 2611   2.890   3.245   0.010
  869TIP3   OH2 2612   1.014   1.334   1.108
  869TIP3    H1 2613   1.104   1.359   1.127
  869TIP3    H2 2614   1.018   1.290   1.023
  870TIP3   OH2 2615   1.046   1.105   4.489
  870TIP3    H1 2616   1.063   1.017   4.455
  870TIP3    H2 2617   0.975   1.138   4.435
  871TIP3   OH2 2618   3.991   4.668   4.042
  871TIP3    H1 2619   3.955   4.587   4.008
  871TIP3    H2 2620   3.978   4.732   3.971
  872TIP3   OH2 2621   4.850   5.948   1.934
  872TIP3    H1 2622   4.878   5.863   1.967
  872TIP3    H2 2623   4.765   5.964   1.976
  873TIP3   OH2 2624   0.561   3.739   3.188
  873TIP3    H1 2625   0.625   3.674   3.217
  873TIP3    H2 2626   0.479   3.690   3.178
  874TIP3   OH2 2627   4.802   2.783   3.359
  874TIP3    H1 2628   4.740   2.807   3.427
  874TIP3    H2 2629   4.801   2.687   3.358
  875TIP3   OH2 2630   1.603   1.420   4.863
  875TIP3    H1 2631   1.650   1.451   4.785
  875TIP3    H2 2632   1.610   1.492   4.925
  876TIP3   OH2 2633   0.207   0.117   4.622
  876TIP3    H1 2634   0.279   0.178   4.608
  876TIP3    H2 2635   0.190   0.121   4.716
  877TIP3   OH2 2636   1.670   4.077   4.986
  877TIP3    H1 2637   1.654   4.046   4.897
  877TIP3    H2 2638   1.588   4.060   5.033
  878TIP3   OH2 2639   2.875   0.411   0.090
  878TIP3    H1 2640   2.819   0.464   0.034
  878TIP3    H2 2641   2.814   0.363   0.146
  879TIP3   OH2 2642   4.777   0.475   0.797
  879TIP3    H1 2643   4.747   0.387   0.774
  879TIP3    H2 2644   4.708   0.534   0.766
  880TIP3   OH2 2645   2.317   5.972   0.284
  880TIP3    H1 2646   2.379   5.922   0.231
  880TIP3    H2 2647   2.286   5.909   0.349
  881TIP3   OH2 2648   4.082   2.629   2.784
  881TIP3    H1 2649   4.022   2.592   2.718
  881TIP3    H2 2650   4.086   2.561   2.852
  882TIP3   OH2 2651   3.227   3.013   4.676
  882TIP3    H1 2652   3.298   3.077   4.671
  882TIP3    H2 2653   3.149   3.065   4.696
  883TIP3   OH2 2654   1.083   3.867   1.286
  883TIP3    H1 2655   0.989   3.882   1.297
  883TIP3    H2 2656   1.091   3.822   1.202
  884TIP3   OH2 2657   5.856   4.230   0.120
  884TIP3    H1 2658   5.917   4.302   0.130
  884TIP3    H2 2659   5.772   4.265   0.148
  885TIP3   OH2 2660   4.211   2.802   0.739
  885TIP3    H1 2661   4.275   2.851   0.688
  885TIP3    H2 2662   4.165   2.869   0.790
  886TIP3   OH2 2663   5.049   1.493   4.787
  886TIP3    H1 2664   4.985   1.485   4.717
  886TIP3    H2 2665   5.009   1.552   4.850
  887TIP3   OH2 2666   1.341   1.106   5.060
  887TIP3    H1 2667   1.340   1.028   5.116
  887TIP3    H2 2668   1.255   1.108   5.020
  888TIP3   OH2 2669   1.813   3.563   0.077
  888TIP3    H1 2670   1.794   3.574  -0.016
  888TIP3    H2 2671   1.731   3.588   0.121
  889TIP3   OH2 2672   5.971   5.902   0.417
  889TIP3    H1 2673   6.029   5.919   0.343
  889TIP3    H2 2674   5.966   5.985   0.464
  890TIP3   OH2 2675   3.786   1.697   0.230
  890TIP3    H1 2676   3.733   1.744   0.295
  890TIP3    H2 2677   3.746   1.611   0.225
  891TIP3   OH2 2678   3.824   4.662   0.132
  891TIP3    H1 2679   3.765   4.700   0.197
  891TIP3    H2 2680   3.844   4.575   0.167
  892TIP3   OH2 2681   5.849   0.882   2.250
  892TIP3    H1 2682   5.762   0.871   2.211
  892TIP3    H2 2683   5.836   0.867   2.343
  893TIP3   OH2 2684   0.129   5.043   5.084
  893TIP3    H1 2685   0.063   5.019   5.150
  893TIP3    H2 2686   0.109   4.986   5.009
  894TIP3   OH2 2687   4.023   1.483   0.050
  894TIP3    H1 2688   4.032   1.562  -0.004
  894TIP3    H2 2689   3.935   1.452   0.032
  895TIP3   OH2 2690   2.659   5.210   1.492
  895TIP3    H1 2691   2.701   5.217   1.406
  895TIP3    H2 2692   2.701   5.279   1.544
  896TIP3   OH2 2693   3.754   0.075   4.279
  896TIP3    H1 2694   3.821   0.134   4.243
  896TIP3    H2 2695   3.691   0.134   4.322
  897TIP3   OH2 2696   6.116   4.850   3.865
  897TIP3    H1 2697   6.134   4.892   3.781
  897TIP3    H2 2698   6.127   4.919   3.930
  898TIP3   OH2 2699   3.936   2.492   2.991
  898TIP3    H1 2700   3.877   2.489   3.065
  898TIP3    H2 2701   3.881   2.517   2.916
  899TIP3   OH2 2702   4.415   0.743   0.249
  899TIP3    H1 2703   4.372   0.745   0.163
  899TIP3    H2 2704   4.355   0.692   0.304
  900TIP3   OH2 2705   4.023   4.182   0.132
  900TIP3    H1 2706   3.971   4.124   0.076
  900TIP3    H2 2707   4.082   4.227   0.071
  901TIP3   OH2 2708   4.779   3.398   0.177
  901TIP3    H1 2709   4.832   3.379   0.099
  901TIP3    H2 2710   4.838   3.446   0.234
  902TIP3   OH2 2711   4.252   5.704   1.493
  902TIP3    H1 2712   4.286   5.615   1.483
  902TIP3    H2 2713   4.261   5.743   1.406
  903TIP3   OH2 2714   1.551   2.919   4.265
  903TIP3    H1 2715   1.525   2.865   4.340
  903TIP3    H2 2716   1.634   2.882   4.235
  904TIP3   OH2 2717   3.440   0.714   0.598
  904TIP3    H1 2718   3.395   0.731   0.515
  904TIP3    H2 2719   3.467   0.623   0.592
  905TIP3   OH2 2720   0.881   5.681   1.675
  905TIP3    H1 2721   0.917   5.701   1.589
  905TIP3    H2 2722   0.951   5.635   1.720
  906TIP3   OH2 2723   1.370   0.128   3.499
  906TIP3    H1 2724   1.276   0.147   3.491
  906TIP3    H2 2725   1.391   0.148   3.590
  907TIP3   OH2 2726   0.996   2.860   0.401
  907TIP3    H1 2727   0.965   2.948   0.422
  907TIP3    H2 2728   0.917   2.806   0.402
  908TIP3   OH2 2729   2.460   1.585   3.896
  908TIP3    H1 2730   2.411   1.519   3.945
  908TIP3    H2 2731   2.492   1.539   3.819
  909TIP3   OH2 2732   5.228   3.961   4.239
  909TIP3    H1 2733   5.189   3.957   4.152
  909TIP3    H2 2734   5.216   3.872   4.274
  910TIP3   OH2 2735   2.690   4.032   4.211
  910TIP3    H1 2736   2.616   4.074   4.255
  910TIP3    H2 2737   2.765   4.051   4.268
  911TIP3   OH2 2738   2.549   0.272   1.257
  911TIP3    H1 2739   2.568   0.344   1.197
  911TIP3    H2 2740   2.456   0.281   1.276
  912TIP3   OH2 2741   1.817   5.071   1.906
  912TIP3    H1 2742   1.815   5.031   1.820
  912TIP3    H2 2743   1.876   5.146   1.897
  913TIP3   OH2 2744   5.255   3.612   3.051
  913TIP3    H1 2745   5.281   3.687   2.997
  913TIP3    H2 2746   5.302   3.624   3.133
  914TIP3   OH2 2747   2.468   2.549   5.073
  914TIP3    H1 2748   2.416   2.469   5.084
  914TIP3    H2 2749   2.452   2.599   5.152
  915TIP3   OH2 2750   5.649   1.111   3.444
  915TIP3    H1 2751   5.650   1.189   3.388
  915TIP3    H2 2752   5.740   1.083   3.447
  916TIP3   OH2 2753   5.097   2.099   2.144
  916TIP3    H1 2754   5.086   2.136   2.056
  916TIP3    H2 2755   5.186   2.124   2.169
  917TIP3   OH2 2756   0.762   3.350   4.869
  917TIP3    H1 2757   0.773   3.273   4.813
  917TIP3    H2 2758   0.667   3.357   4.882
  918TIP3   OH2 2759   3.396   2.692   0.031
  918TIP3    H1 2760   3.421   2.615   0.082
  918TIP3    H2 2761   3.319   2.664  -0.020
  919TIP3   OH2 2762   1.439   3.202   2.916
  919TIP3    H1 2763   1.404   3.291   2.921
  919TIP3    H2 2764   1.492   3.192   2.995
  920TIP3   OH2 2765   2.016   5.830   4.087
  920TIP3    H1 2766   1.995   5.911   4.134
  920TIP3    H2 2767   2.001   5.760   4.150
  921TIP3   OH2 2768   5.844   1.171   3.754
  921TIP3    H1 2769   5.765   1.224   3.768
  921TIP3    H2 2770   5.813   1.094   3.706
  922TIP3   OH2 2771   0.259   2.430   1.946
  922TIP3    H1 2772   0.284   2.486   1.872
  922TIP3    H2 2773   0.168   2.453   1.963
  923TIP3   OH2 2774   3.707   4.446   1.762
  923TIP3    H1 2775   3.759   4.510   1.712
  923TIP3    H2 2776   3.683   4.380   1.698
  924TIP3   OH2 2777   2.098   2.901   2.840
  924TIP3    H1 2778   2.086   2.908   2.745
  924TIP3    H2 2779   2.164   2.832   2.850
  925TIP3   OH2 2780   2.099   5.406   0.632
  925TIP3    H1 2781   2.097   5.324   0.582
  925TIP3    H2 2782   2.070   5.381   0.720
  926TIP3   OH2 2783   1.260   2.403   3.438
  926TIP3    H1 2784   1.326   2.377   3.503
  926TIP3    H2 2785   1.181   2.420   3.489
  927TIP3   OH2 2786   3.691   1.930   0.970
  927TIP3    H1 2787   3.720   1.840   0.951
  927TIP3    H2 2788   3.722   1.946   1.060
  928TIP3   OH2 2789   3.232   5.165   0.271
  928TIP3    H1 2790   3.162   5.180   0.208
  928TIP3    H2 2791   3.225   5.072   0.293
  929TIP3   OH2 2792   1.320   0.612   0.697
  929TIP3    H1 2793   1.337   0.661   0.778
  929TIP3    H2 2794   1.294   0.679   0.634
  930TIP3   OH2 2795   2.577   3.514   3.768
  930TIP3    H1 2796   2.530   3.542   3.847
  930TIP3    H2 2797   2.639   3.448   3.800
  931TIP3   OH2 2798   1.818   4.870   2.098
  931TIP3    H1 2799   1.907   4.876   2.133
  931TIP3    H2 2800   1.815   4.934   2.027
  932TIP3   OH2 2801   0.364   3.978   1.702
  932TIP3    H1 2802   0.330   4.054   1.750
  932TIP3    H2 2803   0.291   3.952   1.645
  933TIP3   OH2 2804   3.969   4.646   1.267
  933TIP3    H1 2805   3.963   4.693   1.351
  933TIP3    H2 2806   4.062   4.628   1.256
  934TIP3   OH2 2807   5.682   2.786   4.349
  934TIP3    H1 2808   5.671   2.701   4.306
  934TIP3    H2 2809   5.769   2.815   4.322
  935TIP3   OH2 2810   4.118   1.244   2.743
  935TIP3    H1 2811   4.089   1.164   2.786
  935TIP3    H2 2812   4.100   1.229   2.650
  936TIP3   OH2 2813   4.060   5.891   4.469
  936TIP3    H1 2814   4.044   5.847   4.385
  936TIP3    H2 2815   4.000   5.849   4.530
  937TIP3   OH2 2816   1.921   2.692   2.673
  937TIP3    H1 2817   1.840   2.648   2.646
  937TIP3    H2 2818   1.964   2.628   2.731
  938TIP3   OH2 2819   4.759   2.805   0.082
  938TIP3    H1 2820   4.845   2.848   0.086
  938TIP3    H2 2821   4.701   2.872   0.046
  939TIP3   OH2 2822   2.699   0.067   2.396
  939TIP3    H1 2823   2.661   0.149   2.365
  939TIP3    H2 2824   2.760   0.041   2.327
  940TIP3   OH2 2825   3.523   5.403   2.848
  940TIP3    H1 2826   3.595   5.345   2.871
  940TIP3    H2 2827   3.452   5.377   2.907
  941TIP3   OH2 2828   4.439   1.088   1.992
  941TIP3    H1 2829   4.355   1.052   1.963
  941TIP3    H2 2830   4.491   1.092   1.912
  942TIP3   OH2 2831   4.779   3.945   0.409
  942TIP3    H1 2832   4.783   3.981   0.321
  942TIP3    H2 2833   4.868   3.915   0.427
  943TIP3   OH2 2834   2.960   0.749   3.112
  943TIP3    H1 2835   2.867   0.730   3.124
  943TIP3    H2 2836   2.993   0.765   3.200
  944TIP3   OH2 2837   6.342   2.937   0.688
  944TIP3    H1 2838   6.366   2.865   0.746
  944TIP3    H2 2839   6.359   3.016   0.739
  945TIP3   OH2 2840   0.670   5.459   3.616
  945TIP3    H1 2841   0.749   5.474   3.670
  945TIP3    H2 2842   0.703   5.419   3.536
  946TIP3   OH2 2843   2.214   3.353   2.033
  946TIP3    H1 2844   2.189   3.434   1.988
  946TIP3    H2 2845   2.283   3.379   2.094
  947TIP3   OH2 2846   3.263   2.337   1.839
  947TIP3    H1 2847   3.349   2.297   1.848
  947TIP3    H2 2848   3.236   2.357   1.929
  948TIP3   OH2 2849   3.566   5.086   2.263
  948TIP3    H1 2850   3.632   5.048   2.321
  948TIP3    H2 2851   3.502   5.016   2.250
  949TIP3   OH2 2852   5.710   4.408   3.365
  949TIP3    H1 2853   5.746   4.489   3.328
  949TIP3    H2 2854   5.623   4.433   3.396
  950TIP3   OH2 2855   5.425   0.080   4.567
  950TIP3    H1 2856   5.331   0.094   4.556
  950TIP3    H2 2857   5.463   0.168   4.562
  951TIP3   OH2 2858   4.549   5.648   0.479
  951TIP3    H1 2859   4.613   5.610   0.539
  951TIP3    H2 2860   4.477   5.676   0.537
  952TIP3   OH2 2861   2.508   2.479   3.249
  952TIP3    H1 2862   2.586   2.439   3.287
  952TIP3    H2 2863   2.504   2.444   3.160
  953TIP3   OH2 2864   1.041   5.770   0.751
  953TIP3    H1 2865   1.007   5.844   0.701
  953TIP3    H2 2866   0.996   5.693   0.714
  954TIP3   OH2 2867   1.671   4.945   1.655
  954TIP3    H1 2868   1.595   4.919   1.603
  954TIP3    H2 2869   1.652   4.915   1.744
  955TIP3   OH2 2870   4.254   5.871   4.648
  955TIP3    H1 2871   4.192   5.891   4.578
  955TIP3    H2 2872   4.308   5.950   4.655
  956TIP3   OH2 2873   4.501   0.291   0.536
  956TIP3    H1 2874   4.510   0.291   0.631
  956TIP3    H2 2875   4.566   0.354   0.506
  957TIP3   OH2 2876   4.926   2.900   1.787
  957TIP3    H1 2877   4.956   2.891   1.697
  957TIP3    H2 2878   4.893   2.814   1.811
  958TIP3   OH2 2879   0.624   2.728   1.532
  958TIP3    H1 2880   0.563   2.658   1.507
  958TIP3    H2 2881   0.685   2.734   1.458
  959TIP3   OH2 2882   1.937   1.653   3.869
  959TIP3    H1 2883   1.959   1.613   3.785
  959TIP3    H2 2884   1.864   1.712   3.849
  960TIP3   OH2 2885   0.445   1.652   2.693
  960TIP3    H1 2886   0.485   1.595   2.759
  960TIP3    H2 2887   0.364   1.683   2.734
  961TIP3   OH2 2888   0.667   2.184   1.342
  961TIP3    H1 2889   0.759   2.160   1.338
  961TIP3    H2 2890   0.665   2.276   1.314
  962TIP3   OH2 2891   1.148   3.034   3.102
  962TIP3    H1 2892   1.172   3.124   3.121
  962TIP3    H2 2893   1.230   2.985   3.109
  963TIP3   OH2 2894   3.536   0.744   2.018
  963TIP3    H1 2895   3.543   0.767   1.926
  963TIP3    H2 2896   3.445   0.763   2.041
  964TIP3   OH2 2897   1.131   3.041   0.664
  964TIP3    H1 2898   1.161   2.952   0.643
  964TIP3    H2 2899   1.201   3.078   0.717
  965TIP3   OH2 2900   1.227   1.066   1.270
  965TIP3    H1 2901   1.242   1.152   1.231
  965TIP3    H2 2902   1.211   1.085   1.362
  966TIP3   OH2 2903   6.107   5.931   3.760
  966TIP3    H1 2904   6.195   5.894   3.750
  966TIP3    H2 2905   6.097   5.989   3.684
  967TIP3   OH2 2906   5.871   3.399   3.720
  967TIP3    H1 2907   5.857   3.443   3.805
  967TIP3    H2 2908   5.813   3.445   3.660
  968TIP3   OH2 2909   0.125   1.590   4.239
  968TIP3    H1 2910   0.059   1.538   4.193
  968TIP3    H2 2911   0.077   1.633   4.310
  969TIP3   OH2 2912   2.776   5.670   0.591
  969TIP3    H1 2913   2.848   5.672   0.654
  969TIP3    H2 2914   2.700   5.641   0.642
  970TIP3   OH2 2915   0.005   5.805   3.717
  970TIP3    H1 2916   0.075   5.766   3.769
  970TIP3    H2 2917   0.050   5.849   3.645
  971TIP3   OH2 2918   4.531   4.552   2.239
  971TIP3    H1 2919   4.536   4.644   2.213
  971TIP3    H2 2920   4.453   4.519   2.194
  972TIP3   OH2 2921   1.301   4.295   3.988
  972TIP3    H1 2922   1.306   4.378   3.940
  972TIP3    H2 2923   1.207   4.280   3.999
  973TIP3   OH2 2924   1.446   5.992   2.151
  973TIP3    H1 2925   1.462   5.931   2.223
  973TIP3    H2 2926   1.394   5.943   2.088
  974TIP3   OH2 2927   5.160   1.473   0.376
  974TIP3    H1 2928   5.151   1.430   0.462
  974TIP3    H2 2929   5.171   1.566   0.397
  975TIP3   OH2 2930   4.626   5.627   1.278
  975TIP3    H1 2931   4.625   5.682   1.200
  975TIP3    H2 2932   4.594   5.684   1.348
  976TIP3   OH2 2933   4.980   0.902   2.185
  976TIP3    H1 2934   5.008   0.983   2.143
  976TIP3    H2 2935   4.973   0.839   2.114
  977TIP3   OH2 2936   2.954   0.574   2.181
  977TIP3    H1 2937   2.971   0.574   2.275
  977TIP3    H2 2938   2.868   0.615   2.172
  978TIP3   OH2 2939   0.752   4.500   3.540
  978TIP3    H1 2940   0.711   4.528   3.622
  978TIP3    H2 2941   0.769   4.407   3.552
  979TIP3   OH2 2942   3.973   2.529   3.851
  979TIP3    H1 2943   3.997   2.474   3.926
  979TIP3    H2 2944   3.999   2.477   3.775
  980TIP3   OH2 2945   3.954   0.148   2.374
  980TIP3    H1 2946   3.870   0.162   2.417
  980TIP3    H2 2947   3.976   0.234   2.337
  981TIP3   OH2 2948   0.380   3.492   1.364
  981TIP3    H1 2949   0.423   3.550   1.427
  981TIP3    H2 2950   0.380   3.406   1.406
  982TIP3   OH2 2951   4.823   2.082   4.366
  982TIP3    H1 2952   4.883   2.007   4.360
  982TIP3    H2 2953   4.847   2.137   4.292
  983TIP3   OH2 2954   1.602   0.986   2.498
  983TIP3    H1 2955   1.677   0.929   2.482
  983TIP3    H2 2956   1.528   0.926   2.504
  984TIP3   OH2 2957   6.202   2.921   2.455
  984TIP3    H1 2958   6.231   2.957   2.372
  984TIP3    H2 2959   6.126   2.867   2.433
  985TIP3   OH2 2960   0.430   4.604   1.496
  985TIP3    H1 2961   0.374   4.603   1.573
  985TIP3    H2 2962   0.455   4.512   1.483
  986TIP3   OH2 2963   2.462   5.084   4.346
  986TIP3    H1 2964   2.495   5.170   4.373
  986TIP3    H2 2965   2.370   5.099   4.324
  987TIP3   OH2 2966   1.741   1.749   1.164
  987TIP3    H1 2967   1.802   1.781   1.098
  987TIP3    H2 2968   1.794   1.738   1.243
  988TIP3   OH2 2969   3.451   3.751   2.080
  988TIP3    H1 2970   3.399   3.671   2.089
  988TIP3    H2 2971   3.399   3.818   2.125
  989TIP3   OH2 2972   3.979   1.068   1.719
  989TIP3    H1 2973   4.023   0.985   1.741
  989TIP3    H2 2974   3.934   1.093   1.799
  990TIP3   OH2 2975   1.515   5.582   0.390
  990TIP3    H1 2976   1.549   5.493   0.383
  990TIP3    H2 2977   1.549   5.615   0.473
  991TIP3   OH2 2978   1.989   4.784   0.526
  991TIP3    H1 2979   1.987   4.841   0.450
  991TIP3    H2 2980   1.925   4.715   0.507
  992TIP3   OH2 2981   5.744   4.311   1.006
  992TIP3    H1 2982   5.724   4.220   0.983
  992TIP3    H2 2983   5.830   4.327   0.968
  993TIP3   OH2 2984   0.914   3.472   1.558
  993TIP3    H1 2985   0.980   3.453   1.491
  993TIP3    H2 2986   0.838   3.420   1.532
  994TIP3   OH2 2987   3.990   4.413   1.620
  994TIP3    H1 2988   3.909   4.462   1.606
  994TIP3    H2 2989   4.011   4.376   1.534
  995TIP3   OH2 2990   0.233   1.601   3.338
  995TIP3    H1 2991   0.322   1.593   3.374
  995TIP3    H2 2992   0.238   1.559   3.252
  996TIP3   OH2 2993   3.084   4.798   3.828
  996TIP3    H1 2994   3.073   4.854   3.905
  996TIP3    H2 2995   3.047   4.849   3.756
  997TIP3   OH2 2996   4.620   1.925   2.520
  997TIP3    H1 2997   4.546   1.911   2.461
  997TIP3    H2 2998   4.679   1.851   2.503
  998TIP3   OH2 2999   1.694   4.211   2.116
  998TIP3    H1 3000   1.696   4.210   2.212
  998TIP3    H2 3001   1.610   4.171   2.093
  999TIP3   OH2 3002   0.167   4.751   4.135
  999TIP3    H1 3003   0.093   4.690   4.138
  999TIP3    H2 3004   0.210   4.740   4.220
 1000TIP3   OH2 3005   2.667   5.283   1.947
 1000TIP3    H1 3006   2.632   5.309   2.032
 1000TIP3    H2 3007   2.639   5.192   1.937
 1001TIP3   OH2 3008   0.551   4.865   4.210
 1001TIP3    H1 3009   0.522   4.915   4.134
 1001TIP3    H2 3010   0.645   4.856   4.198
 1002TIP3   OH2 3011   4.103   4.318   1.374
 1002TIP3    H1 3012   4.044   4.303   1.300
 1002TIP3    H2 3013   4.179   4.363   1.336
 1003TIP3   OH2 3014   5.128   3.411   4.847
 1003TIP3    H1 3015   5.072   3.487   4.864
 1003TIP3    H2 3016   5.096   3.344   4.907
 1004TIP3   OH2 3017   0.602   0.573   5.135
 1004TIP3    H1 3018   0.618   0.571   5.040
 1004TIP3    H2 3019   0.545   0.649   5.147
 1005TIP3   OH2 3020   0.912   4.990   3.859
 1005TIP3    H1 3021   0.978   4.933   3.899
 1005TIP3    H2 3022   0.839   4.931   3.840
 1006TIP3   OH2 3023   3.189   4.139   2.503
 1006TIP3    H1 3024   3.107   4.176   2.538
 1006TIP3    H2 3025   3.170   4.124   2.411
 1007TIP3   OH2 3026   4.936   3.598   1.547
 1007TIP3    H1 3027   5.005   3.631   1.490
 1007TIP3    H2 3028   4.982   3.564   1.623
 1008TIP3   OH2 3029   2.361   4.560   1.662
 1008TIP3    H1 3030   2.303   4.597   1.596
 1008TIP3    H2 3031   2.356   4.621   1.735
 1009TIP3   OH2 3032   0.819   5.374   3.380
 1009TIP3    H1 3033   0.872   5.295   3.366
 1009TIP3    H2 3034   0.809   5.412   3.293
 1010TIP3   OH2 3035   5.073   4.085   3.356
 1010TIP3    H1 3036   5.163   4.116   3.341
 1010TIP3    H2 3037   5.084   4.001   3.400
 1011TIP3   OH2 3038   3.108   5.382   4.255
 1011TIP3    H1 3039   3.082   5.397   4.164
 1011TIP3    H2 3040   3.183   5.440   4.269
 1012TIP3   OH2 3041   4.413   5.373   0.820
 1012TIP3    H1 3042   4.378   5.310   0.883
 1012TIP3    H2 3043   4.412   5.326   0.736
 1013TIP3   OH2 3044   0.434   3.178   2.661
 1013TIP3    H1 3045   0.451   3.263   2.700
 1013TIP3    H2 3046   0.484   3.116   2.715
 1014TIP3   OH2 3047   5.247   5.161   3.951
 1014TIP3    H1 3048   5.186   5.198   3.888
 1014TIP3    H2 3049   5.276   5.235   4.004
 1015TIP3   OH2 3050   1.958   4.454   4.536
 1015TIP3    H1 3051   1.927   4.488   4.620
 1015TIP3    H2 3052   2.046   4.490   4.527
 1016TIP3   OH2 3053   0.684   5.413   2.525
 1016TIP3    H1 3054   0.629   5.485   2.495
 1016TIP3    H2 3055   0.756   5.455   2.571
 1017TIP3   OH2 3056  -0.027   3.080   1.900
 1017TIP3    H1 3057   0.066   3.059   1.905
 1017TIP3    H2 3058  -0.058   3.033   1.822
 1018TIP3   OH2 3059   0.818   0.005   4.219
 1018TIP3    H1 3060   0.903   0.005   4.262
 1018TIP3    H2 3061   0.817   0.086   4.167
 1019TIP3   OH2 3062   1.869   0.891   4.956
 1019TIP3    H1 3063   1.867   0.871   4.863
 1019TIP3    H2 3064   1.960   0.911   4.975
 1020TIP3   OH2 3065   3.549   2.812   5.062
 1020TIP3    H1 3066   3.584   2.749   4.998
 1020TIP3    H2 3067   3.461   2.830   5.031
 1021TIP3   OH2 3068   4.715   2.808   1.049
 1021TIP3    H1 3069   4.810   2.805   1.046
 1021TIP3    H2 3070   4.688   2.716   1.054
 1022TIP3   OH2 3071   3.862   0.756   0.182
 1022TIP3    H1 3072   3.868   0.665   0.211
 1022TIP3    H2 3073   3.835   0.751   0.090
 1023TIP3   OH2 3074   1.559   2.399   2.988
 1023TIP3    H1 3075   1.546   2.304   2.992
 1023TIP3    H2 3076   1.503   2.434   3.058
 1024TIP3   OH2 3077   0.807   3.621   4.756
 1024TIP3    H1 3078   0.782   3.530   4.741
 1024TIP3    H2 3079   0.902   3.621   4.751
 1025TIP3   OH2 3080   0.346   4.537   3.935
 1025TIP3    H1 3081   0.257   4.504   3.927
 1025TIP3    H2 3082   0.356   4.558   4.028
 1026TIP3   OH2 3083   1.943   5.747   0.649
 1026TIP3    H1 3084   1.883   5.817   0.626
 1026TIP3    H2 3085   1.964   5.762   0.741
 1027TIP3   OH2 3086   2.851  -0.003   2.194
 1027TIP3    H1 3087   2.934  -0.047   2.212
 1027TIP3    H2 3088   2.864   0.038   2.109
 1028TIP3   OH2 3089   2.638   3.884  -0.030
 1028TIP3    H1 3090   2.545   3.881  -0.005
 1028TIP3    H2 3091   2.676   3.947   0.030
 1029TIP3   OH2 3092   4.785   0.904   4.552
 1029TIP3    H1 3093   4.773   0.947   4.637
 1029TIP3    H2 3094   4.707   0.925   4.502
 1030TIP3   OH2 3095   4.288   0.410   3.883
 1030TIP3    H1 3096   4.366   0.461   3.906
 1030TIP3    H2 3097   4.317   0.351   3.813
 1031TIP3   OH2 3098   6.170   4.089   0.741
 1031TIP3    H1 3099   6.208   4.140   0.670
 1031TIP3    H2 3100   6.201   4.131   0.821
 1032TIP3   OH2 3101   0.287   1.962   3.459
 1032TIP3    H1 3102   0.287   1.900   3.532
 1032TIP3    H2 3103   0.379   1.975   3.438
 1033TIP3   OH2 3104   0.144   4.369   3.605
 1033TIP3    H1 3105   0.085   4.435   3.643
 1033TIP3    H2 3106   0.126   4.290   3.656
 1034TIP3   OH2 3107   0.164   4.727   1.853
 1034TIP3    H1 3108   0.203   4.674   1.922
 1034TIP3    H2 3109   0.078   4.751   1.887
 1035TIP3   OH2 3110   1.009   5.497   1.853
 1035TIP3    H1 3111   1.034   5.430   1.916
 1035TIP3    H2 3112   1.060   5.475   1.774
 1036TIP3   OH2 3113   4.807   4.418   4.696
 1036TIP3    H1 3114   4.763   4.503   4.697
 1036TIP3    H2 3115   4.808   4.394   4.603
 1037TIP3   OH2 3116   2.231   5.423   4.952
 1037TIP3    H1 3117   2.324   5.410   4.935
 1037TIP3    H2 3118   2.196   5.459   4.871
 1038TIP3   OH2 3119   2.383   5.247   1.506
 1038TIP3    H1 3120   2.477   5.229   1.503
 1038TIP3    H2 3121   2.364   5.256   1.600
 1039TIP3   OH2 3122   2.783   0.304   1.737
 1039TIP3    H1 3123   2.722   0.348   1.678
 1039TIP3    H2 3124   2.856   0.366   1.748
 1040TIP3   OH2 3125   3.190   5.759   1.386
 1040TIP3    H1 3126   3.120   5.759   1.321
 1040TIP3    H2 3127   3.146   5.782   1.468
 1041TIP3   OH2 3128   4.710   2.015   0.396
 1041TIP3    H1 3129   4.779   1.958   0.363
 1041TIP3    H2 3130   4.739   2.103   0.375
 1042TIP3   OH2 3131   0.507   2.886   2.799
 1042TIP3    H1 3132   0.513   2.791   2.812
 1042TIP3    H2 3133   0.575   2.905   2.734
 1043TIP3   OH2 3134   2.964   0.033   1.333
 1043TIP3    H1 3135   2.945   0.066   1.421
 1043TIP3    H2 3136   2.895  -0.030   1.316
 1044TIP3   OH2 3137   5.591   1.220   0.987
 1044TIP3    H1 3138   5.564   1.177   1.067
 1044TIP3    H2 3139   5.536   1.298   0.981
 1045TIP3   OH2 3140   2.446   1.265   1.652
 1045TIP3    H1 3141   2.352   1.266   1.636
 1045TIP3    H2 3142   2.484   1.294   1.569
 1046TIP3   OH2 3143   6.364   1.095   3.897
 1046TIP3    H1 3144   6.288   1.043   3.871
 1046TIP3    H2 3145   6.372   1.079   3.992
 1047TIP3   OH2 3146   6.301   4.851   1.987
 1047TIP3    H1 3147   6.245   4.874   1.913
 1047TIP3    H2 3148   6.262   4.772   2.023
 1048TIP3   OH2 3149   5.137   4.926   0.038
 1048TIP3    H1 3150   5.149   4.840   0.077
 1048TIP3    H2 3151   5.069   4.967   0.090
 1049TIP3   OH2 3152   5.751   4.635   3.181
 1049TIP3    H1 3153   5.769   4.704   3.245
 1049TIP3    H2 3154   5.672   4.665   3.136
 1050TIP3   OH2 3155   1.743   4.769   3.027
 1050TIP3    H1 3156   1.793   4.808   3.100
 1050TIP3    H2 3157   1.659   4.745   3.066
 1051TIP3   OH2 3158   0.705   2.612   3.461
 1051TIP3    H1 3159   0.662   2.572   3.537
 1051TIP3    H2 3160   0.764   2.677   3.498
 1052TIP3   OH2 3161   3.134   5.056   5.096
 1052TIP3    H1 3162   3.052   5.032   5.052
 1052TIP3    H2 3163   3.180   4.973   5.109
 1053TIP3   OH2 3164   6.060   0.086   0.733
 1053TIP3    H1 3165   6.094   0.005   0.694
 1053TIP3    H2 3166   6.035   0.140   0.658
 1054TIP3   OH2 3167   3.425   5.260   0.797
 1054TIP3    H1 3168   3.347   5.218   0.833
 1054TIP3    H2 3169   3.419   5.351   0.825
 1055TIP3   OH2 3170   0.331   5.971   4.593
 1055TIP3    H1 3171   0.367   5.900   4.646
 1055TIP3    H2 3172   0.378   6.049   4.622
 1056TIP3   OH2 3173   0.300   0.306   0.837
 1056TIP3    H1 3174   0.210   0.292   0.866
 1056TIP3    H2 3175   0.294   0.316   0.742
 1057TIP3   OH2 3176   3.015   2.401   0.553
 1057TIP3    H1 3177   3.039   2.315   0.588
 1057TIP3    H2 3178   3.089   2.425   0.497
 1058TIP3   OH2 3179   0.397   3.717   1.053
 1058TIP3    H1 3180   0.449   3.777   1.105
 1058TIP3    H2 3181   0.329   3.772   1.013
 1059TIP3   OH2 3182   2.175   1.656   2.092
 1059TIP3    H1 3183   2.108   1.589   2.099
 1059TIP3    H2 3184   2.157   1.717   2.163
 1060TIP3   OH2 3185   6.383   1.510   4.890
 1060TIP3    H1 3186   6.321   1.463   4.835
 1060TIP3    H2 3187   6.334   1.531   4.969
 1061TIP3   OH2 3188   4.279   0.578   2.025
 1061TIP3    H1 3189   4.353   0.548   2.078
 1061TIP3    H2 3190   4.264   0.508   1.962
 1062TIP3   OH2 3191   1.504   3.293   3.187
 1062TIP3    H1 3192   1.439   3.356   3.155
 1062TIP3    H2 3193   1.455   3.238   3.249
 1063TIP3   OH2 3194   3.191   2.356   1.122
 1063TIP3    H1 3195   3.206   2.450   1.113
 1063TIP3    H2 3196   3.231   2.333   1.206
 1064TIP3   OH2 3197   3.996   2.066   2.197
 1064TIP3    H1 3198   4.055   1.991   2.194
 1064TIP3    H2 3199   4.054   2.142   2.193
 1065TIP3   OH2 3200   6.071   1.235   2.396
 1065TIP3    H1 3201   6.055   1.319   2.438
 1065TIP3    H2 3202   5.998   1.224   2.335
 1066TIP3   OH2 3203   3.092   3.987   1.011
 1066TIP3    H1 3204   3.172   3.936   0.999
 1066TIP3    H2 3205   3.022   3.922   1.016
 1067TIP3   OH2 3206   4.646   1.285   2.537
 1067TIP3    H1 3207   4.701   1.209   2.521
 1067TIP3    H2 3208   4.629   1.283   2.631
 1068TIP3   OH2 3209   4.406   5.697   2.233
 1068TIP3    H1 3210   4.411   5.709   2.328
 1068TIP3    H2 3211   4.347   5.766   2.203
 1069TIP3   OH2 3212   3.886   5.185   2.373
 1069TIP3    H1 3213   3.877   5.212   2.282
 1069TIP3    H2 3214   3.981   5.173   2.385
 1070TIP3   OH2 3215   0.067   4.742   2.930
 1070TIP3    H1 3216   0.150   4.714   2.967
 1070TIP3    H2 3217   0.005   4.673   2.954
 1071TIP3   OH2 3218   2.933   5.024   1.724
 1071TIP3    H1 3219   2.989   4.989   1.655
 1071TIP3    H2 3220   2.895   5.103   1.685
 1072TIP3   OH2 3221   4.015   1.327   4.119
 1072TIP3    H1 3222   4.029   1.236   4.143
 1072TIP3    H2 3223   3.984   1.323   4.029
 1073TIP3   OH2 3224   5.460   4.339   3.722
 1073TIP3    H1 3225   5.551   4.335   3.692
 1073TIP3    H2 3226   5.450   4.263   3.778
 1074TIP3   OH2 3227   1.030   5.813   1.476
 1074TIP3    H1 3228   1.010   5.896   1.434
 1074TIP3    H2 3229   1.125   5.812   1.483
 1075TIP3   OH2 3230   1.736   3.213   0.409
 1075TIP3    H1 3231   1.766   3.126   0.386
 1075TIP3    H2 3232   1.786   3.237   0.487
 1076TIP3   OH2 3233   0.475   4.701   3.750
 1076TIP3    H1 3234   0.437   4.651   3.678
 1076TIP3    H2 3235   0.419   4.681   3.825
 1077TIP3   OH2 3236   5.819   5.623   5.129
 1077TIP3    H1 3237   5.824   5.711   5.166
 1077TIP3    H2 3238   5.728   5.597   5.140
 1078TIP3   OH2 3239   2.213   0.776   4.558
 1078TIP3    H1 3240   2.285   0.726   4.595
 1078TIP3    H2 3241   2.211   0.750   4.466
 1079TIP3   OH2 3242   0.087   3.385   1.570
 1079TIP3    H1 3243  -0.007   3.386   1.587
 1079TIP3    H2 3244   0.109   3.292   1.564
 1080TIP3   OH2 3245  -0.004   5.214   2.791
 1080TIP3    H1 3246   0.090   5.229   2.804
 1080TIP3    H2 3247  -0.030   5.280   2.727
 1081TIP3   OH2 3248   3.712   3.407   0.194
 1081TIP3    H1 3249   3.694   3.358   0.274
 1081TIP3    H2 3250   3.634   3.394   0.140
 1082TIP3   OH2 3251   0.284   4.440   3.160
 1082TIP3    H1 3252   0.272   4.433   3.254
 1082TIP3    H2 3253   0.211   4.390   3.123
 1083TIP3   OH2 3254   1.442   0.743   2.153
 1083TIP3    H1 3255   1.364   0.739   2.098
 1083TIP3    H2 3256   1.435   0.828   2.198
 1084TIP3   OH2 3257   5.313   5.234   4.529
 1084TIP3    H1 3258   5.370   5.293   4.579
 1084TIP3    H2 3259   5.288   5.166   4.591
 1085TIP3   OH2 3260   5.756   3.585   0.309
 1085TIP3    H1 3261   5.742   3.510   0.251
 1085TIP3    H2 3262   5.727   3.660   0.257
 1086TIP3   OH2 3263   4.492   0.852   2.256
 1086TIP3    H1 3264   4.501   0.943   2.285
 1086TIP3    H2 3265   4.452   0.807   2.331
 1087TIP3   OH2 3266   3.841   4.893   2.337
 1087TIP3    H1 3267   3.843   4.976   2.385
 1087TIP3    H2 3268   3.933   4.876   2.315
 1088TIP3   OH2 3269   1.951   5.679   4.345
 1088TIP3    H1 3270   2.005   5.605   4.370
 1088TIP3    H2 3271   1.978   5.750   4.403
 1089TIP3   OH2 3272   1.558   0.205   0.840
 1089TIP3    H1 3273   1.582   0.135   0.779
 1089TIP3    H2 3274   1.532   0.278   0.784
 1090TIP3   OH2 3275   0.825   1.351   2.171
 1090TIP3    H1 3276   0.840   1.421   2.235
 1090TIP3    H2 3277   0.909   1.307   2.163
 1091TIP3   OH2 3278   3.955   0.108   4.538
 1091TIP3    H1 3279   3.894   0.099   4.464
 1091TIP3    H2 3280   3.900   0.142   4.610
 1092TIP3   OH2 3281   4.419   4.559   2.818
 1092TIP3    H1 3282   4.337   4.550   2.769
 1092TIP3    H2 3283   4.392   4.570   2.909
 1093TIP3   OH2 3284   4.106   0.457   0.521
 1093TIP3    H1 3285   4.173   0.475   0.587
 1093TIP3    H2 3286   4.154   0.458   0.438
 1094TIP3   OH2 3287   1.862   1.001   2.181
 1094TIP3    H1 3288   1.820   0.916   2.191
 1094TIP3    H2 3289   1.948   0.990   2.223
 1095TIP3   OH2 3290   4.041   1.046   3.521
 1095TIP3    H1 3291   4.062   1.062   3.613
 1095TIP3    H2 3292   4.125   1.021   3.482
 1096TIP3   OH2 3293   2.878   0.468   4.453
 1096TIP3    H1 3294   2.795   0.424   4.470
 1096TIP3    H2 3295   2.895   0.454   4.360
 1097TIP3   OH2 3296   6.266   3.509   5.165
 1097TIP3    H1 3297   6.313   3.592   5.172
 1097TIP3    H2 3298   6.299   3.470   5.084
 1098TIP3   OH2 3299   1.400   5.047   4.041
 1098TIP3    H1 3300   1.479   5.085   4.080
 1098TIP3    H2 3301   1.372   4.980   4.104
 1099TIP3   OH2 3302   1.042   0.656   3.374
 1099TIP3    H1 3303   1.122   0.675   3.324
 1099TIP3    H2 3304   0.990   0.600   3.316
 1100TIP3   OH2 3305   5.501   5.685   1.656
 1100TIP3    H1 3306   5.593   5.714   1.655
 1100TIP3    H2 3307   5.452   5.760   1.689
 1101TIP3   OH2 3308   1.826   4.602   1.793
 1101TIP3    H1 3309   1.775   4.625   1.871
 1101TIP3    H2 3310   1.778   4.528   1.754
 1102TIP3   OH2 3311   6.171   1.666   1.430
 1102TIP3    H1 3312   6.128   1.642   1.512
 1102TIP3    H2 3313   6.219   1.587   1.404
 1103TIP3   OH2 3314   1.421   3.342   1.608
 1103TIP3    H1 3315   1.368   3.422   1.602
 1103TIP3    H2 3316   1.374   3.278   1.554
 1104TIP3   OH2 3317   1.132   0.248   3.100
 1104TIP3    H1 3318   1.147   0.341   3.086
 1104TIP3    H2 3319   1.052   0.243   3.151
 1105TIP3   OH2 3320   4.605   1.327   2.837
 1105TIP3    H1 3321   4.682   1.342   2.893
 1105TIP3    H2 3322   4.544   1.280   2.892
 1106TIP3   OH2 3323   4.853   5.841   2.738
 1106TIP3    H1 3324   4.814   5.877   2.658
 1106TIP3    H2 3325   4.889   5.756   2.711
 1107TIP3   OH2 3326   1.293   0.342   4.782
 1107TIP3    H1 3327   1.346   0.415   4.751
 1107TIP3    H2 3328   1.236   0.320   4.708
 1108TIP3   OH2 3329   5.354   3.479   2.439
 1108TIP3    H1 3330   5.419   3.527   2.490
 1108TIP3    H2 3331   5.369   3.506   2.348
 1109TIP3   OH2 3332   2.757   0.201   3.981
 1109TIP3    H1 3333   2.767   0.275   4.041
 1109TIP3    H2 3334   2.831   0.144   4.000
 1110TIP3   OH2 3335   6.096   4.177   4.781
 1110TIP3    H1 3336   6.118   4.096   4.828
 1110TIP3    H2 3337   6.030   4.151   4.717
 1111TIP3   OH2 3338   5.498   2.973   4.362
 1111TIP3    H1 3339   5.540   3.057   4.382
 1111TIP3    H2 3340   5.568   2.908   4.369
 1112TIP3   OH2 3341   3.534   4.034   2.697
 1112TIP3    H1 3342   3.520   4.075   2.611
 1112TIP3    H2 3343   3.551   3.942   2.677
 1113TIP3   OH2 3344   2.350   4.042   3.904
 1113TIP3    H1 3345   2.364   4.128   3.944
 1113TIP3    H2 3346   2.431   3.994   3.920
 1114TIP3   OH2 3347   5.757   3.527   3.940
 1114TIP3    H1 3348   5.687   3.493   3.995
 1114TIP3    H2 3349   5.727   3.613   3.913
 1115TIP3   OH2 3350   4.217   1.332   1.124
 1115TIP3    H1 3351   4.207   1.258   1.063
 1115TIP3    H2 3352   4.179   1.300   1.206
 1116TIP3   OH2 3353   2.386   1.093   1.206
 1116TIP3    H1 3354   2.412   1.023   1.266
 1116TIP3    H2 3355   2.468   1.138   1.185
 1117TIP3   OH2 3356   3.689   3.654   0.853
 1117TIP3    H1 3357   3.722   3.570   0.885
 1117TIP3    H2 3358   3.766   3.698   0.818
 1118TIP3   OH2 3359   1.635   1.454   3.552
 1118TIP3    H1 3360   1.680   1.502   3.482
 1118TIP3    H2 3361   1.692   1.379   3.570
 1119TIP3   OH2 3362   3.229   1.968   3.815
 1119TIP3    H1 3363   3.226   1.922   3.899
 1119TIP3    H2 3364   3.161   2.035   3.822
 1120TIP3   OH2 3365   5.571   3.688   4.284
 1120TIP3    H1 3366   5.601   3.774   4.255
 1120TIP3    H2 3367   5.651   3.645   4.316
 1121TIP3   OH2 3368   1.146   3.624   0.195
 1121TIP3    H1 3369   1.161   3.533   0.219
 1121TIP3    H2 3370   1.176   3.674   0.270
 1122TIP3   OH2 3371   2.486   2.464   4.064
 1122TIP3    H1 3372   2.462   2.539   4.118
 1122TIP3    H2 3373   2.445   2.480   3.979
 1123TIP3   OH2 3374   2.095   1.947   3.615
 1123TIP3    H1 3375   2.155   1.872   3.619
 1123TIP3    H2 3376   2.107   1.991   3.700
 1124TIP3   OH2 3377   2.471   2.487   1.260
 1124TIP3    H1 3378   2.399   2.524   1.310
 1124TIP3    H2 3379   2.536   2.462   1.326
 1125TIP3   OH2 3380   5.047   2.243   4.664
 1125TIP3    H1 3381   4.961   2.285   4.659
 1125TIP3    H2 3382   5.044   2.174   4.597
 1126TIP3   OH2 3383   4.499   0.330   0.099
 1126TIP3    H1 3384   4.452   0.347   0.017
 1126TIP3    H2 3385   4.439   0.279   0.152
 1127TIP3   OH2 3386   6.212   2.287   4.215
 1127TIP3    H1 3387   6.121   2.260   4.231
 1127TIP3    H2 3388   6.212   2.381   4.235
 1128TIP3   OH2 3389   3.485   5.359   4.199
 1128TIP3    H1 3390   3.516   5.324   4.116
 1128TIP3    H2 3391   3.394   5.384   4.182
 1129TIP3   OH2 3392   0.277   2.214   4.543
 1129TIP3    H1 3393   0.308   2.139   4.492
 1129TIP3    H2 3394   0.356   2.249   4.584
 1130TIP3   OH2 3395   0.921   5.220   4.721
 1130TIP3    H1 3396   0.970   5.181   4.649
 1130TIP3    H2 3397   0.984   5.277   4.765
 1131TIP3   OH2 3398   4.321   5.343   4.981
 1131TIP3    H1 3399   4.354   5.430   4.958
 1131TIP3    H2 3400   4.353   5.327   5.070
 1132TIP3   OH2 3401   4.824   1.298   2.194
 1132TIP3    H1 3402   4.910   1.277   2.229
 1132TIP3    H2 3403   4.798   1.220   2.145
 1133TIP3   OH2 3404   2.831   4.223   2.097
 1133TIP3    H1 3405   2.757   4.222   2.035
 1133TIP3    H2 3406   2.790   4.239   2.182
 1134TIP3   OH2 3407   1.697   3.400   2.275
 1134TIP3    H1 3408   1.601   3.396   2.275
 1134TIP3    H2 3409   1.722   3.382   2.184
 1135TIP3   OH2 3410   3.592   0.972   1.534
 1135TIP3    H1 3411   3.649   0.976   1.457
 1135TIP3    H2 3412   3.632   1.033   1.596
 1136TIP3   OH2 3413   2.533   3.039   3.653
 1136TIP3    H1 3414   2.597   3.092   3.606
 1136TIP3    H2 3415   2.495   2.981   3.586
 1137TIP3   OH2 3416   6.344   0.622   4.783
 1137TIP3    H1 3417   6.297   0.553   4.735
 1137TIP3    H2 3418   6.364   0.688   4.716
 1138TIP3   OH2 3419   4.670   4.787   1.914
 1138TIP3    H1 3420   4.721   4.810   1.836
 1138TIP3    H2 3421   4.614   4.715   1.886
 1139TIP3   OH2 3422   4.833   0.701   3.709
 1139TIP3    H1 3423   4.761   0.638   3.701
 1139TIP3    H2 3424   4.799   0.770   3.766
 1140TIP3   OH2 3425   4.475   5.042   4.110
 1140TIP3    H1 3426   4.491   4.947   4.114
 1140TIP3    H2 3427   4.559   5.081   4.135
 1141TIP3   OH2 3428   4.507   0.635   3.470
 1141TIP3    H1 3429   4.598   0.631   3.440
 1141TIP3    H2 3430   4.507   0.703   3.537
 1142TIP3   OH2 3431   5.430   4.706   3.211
 1142TIP3    H1 3432   5.351   4.727   3.163
 1142TIP3    H2 3433   5.408   4.720   3.303
 1143TIP3   OH2 3434   4.530   3.676   3.262
 1143TIP3    H1 3435   4.487   3.600   3.222
 1143TIP3    H2 3436   4.543   3.651   3.353
 1144TIP3   OH2 3437   0.646   3.188   0.320
 1144TIP3    H1 3438   0.720   3.188   0.381
 1144TIP3    H2 3439   0.589   3.117   0.351
 1145TIP3   OH2 3440   3.111   3.815   1.997
 1145TIP3    H1 3441   3.025   3.811   1.954
 1145TIP3    H2 3442   3.167   3.861   1.934
 1146TIP3   OH2 3443   4.684   5.563   4.676
 1146TIP3    H1 3444   4.613   5.500   4.666
 1146TIP3    H2 3445   4.650   5.629   4.737
 1147TIP3   OH2 3446   2.696   0.375   3.767
 1147TIP3    H1 3447   2.685   0.340   3.679
 1147TIP3    H2 3448   2.691   0.298   3.824
 1148TIP3   OH2 3449   2.693   4.695   0.067
 1148TIP3    H1 3450   2.685   4.606   0.035
 1148TIP3    H2 3451   2.693   4.749  -0.011
 1149TIP3   OH2 3452   5.063   0.598   1.894
 1149TIP3    H1 3453   5.000   0.544   1.940
 1149TIP3    H2 3454   5.100   0.540   1.827
 1150TIP3   OH2 3455   2.840   2.242   1.520
 1150TIP3    H1 3456   2.815   2.229   1.611
 1150TIP3    H2 3457   2.827   2.156   1.479
 1151TIP3   OH2 3458   1.502   0.519   4.656
 1151TIP3    H1 3459   1.557   0.555   4.726
 1151TIP3    H2 3460   1.564   0.494   4.587
 1152TIP3   OH2 3461   1.391   4.000   0.590
 1152TIP3    H1 3462   1.325   4.059   0.627
 1152TIP3    H2 3463   1.343   3.943   0.531
 1153TIP3   OH2 3464   0.171   3.057   3.053
 1153TIP3    H1 3465   0.131   3.131   3.098
 1153TIP3    H2 3466   0.121   2.981   3.082
 1154TIP3   OH2 3467   2.063   5.380   1.663
 1154TIP3    H1 3468   2.002   5.443   1.625
 1154TIP3    H2 3469   2.026   5.294   1.643
 1155TIP3   OH2 3470   0.690   0.896   4.715
 1155TIP3    H1 3471   0.666   0.858   4.799
 1155TIP3    H2 3472   0.606   0.914   4.672
 1156TIP3   OH2 3473   1.209   5.769   4.982
 1156TIP3    H1 3474   1.150   5.824   5.033
 1156TIP3    H2 3475   1.151   5.709   4.934
 1157TIP3   OH2 3476   0.265   3.509   1.801
 1157TIP3    H1 3477   0.176   3.472   1.808
 1157TIP3    H2 3478   0.303   3.466   1.725
 1158TIP3   OH2 3479   1.149   4.259   3.041
 1158TIP3    H1 3480   1.186   4.313   3.111
 1158TIP3    H2 3481   1.223   4.243   2.982
 1159TIP3   OH2 3482   0.777   0.154   0.960
 1159TIP3    H1 3483   0.807   0.238   0.926
 1159TIP3    H2 3484   0.694   0.174   1.003
 1160TIP3   OH2 3485   3.335   2.318   3.645
 1160TIP3    H1 3486   3.365   2.353   3.729
 1160TIP3    H2 3487   3.379   2.234   3.636
 1161TIP3   OH2 3488   6.219   0.134   4.299
 1161TIP3    H1 3489   6.294   0.094   4.342
 1161TIP3    H2 3490   6.143   0.091   4.337
 1162TIP3   OH2 3491   3.048   5.393   1.383
 1162TIP3    H1 3492   3.132   5.438   1.371
 1162TIP3    H2 3493   3.012   5.386   1.294
 1163TIP3   OH2 3494   4.022   0.031   3.156
 1163TIP3    H1 3495   3.942   0.011   3.107
 1163TIP3    H2 3496   4.029   0.126   3.155
 1164TIP3   OH2 3497   6.025   2.372   1.175
 1164TIP3    H1 3498   5.952   2.434   1.181
 1164TIP3    H2 3499   6.009   2.309   1.244
 1165TIP3   OH2 3500   5.014   2.880   2.390
 1165TIP3    H1 3501   4.922   2.906   2.397
 1165TIP3    H2 3502   5.055   2.918   2.468
 1166TIP3   OH2 3503   6.025   3.218   3.605
 1166TIP3    H1 3504   5.970   3.292   3.630
 1166TIP3    H2 3505   6.007   3.205   3.512
 1167TIP3   OH2 3506   3.025   3.482   2.731
 1167TIP3    H1 3507   2.960   3.413   2.745
 1167TIP3    H2 3508   2.984   3.561   2.767
 1168TIP3   OH2 3509   0.386   0.003   0.837
 1168TIP3    H1 3510   0.309   0.011   0.780
 1168TIP3    H2 3511   0.455   0.051   0.791
 1169TIP3   OH2 3512   0.336   5.889   2.911
 1169TIP3    H1 3513   0.301   5.956   2.853
 1169TIP3    H2 3514   0.431   5.897   2.903
 1170TIP3   OH2 3515   5.044   0.134   1.695
 1170TIP3    H1 3516   5.096   0.144   1.775
 1170TIP3    H2 3517   4.968   0.191   1.708
 1171TIP3   OH2 3518   2.729   2.896   1.718
 1171TIP3    H1 3519   2.652   2.889   1.774
 1171TIP3    H2 3520   2.696   2.939   1.638
 1172TIP3   OH2 3521   4.635   1.570   3.148
 1172TIP3    H1 3522   4.703   1.604   3.206
 1172TIP3    H2 3523   4.677   1.497   3.102
 1173TIP3   OH2 3524   1.834   3.043   2.764
 1173TIP3    H1 3525   1.774   3.051   2.838
 1173TIP3    H2 3526   1.919   3.071   2.798
 1174TIP3   OH2 3527   5.578   0.349   0.162
 1174TIP3    H1 3528   5.657   0.370   0.112
 1174TIP3    H2 3529   5.506   0.360   0.099
 1175TIP3   OH2 3530   4.523   4.712   4.759
 1175TIP3    H1 3531   4.618   4.716   4.749
 1175TIP3    H2 3532   4.501   4.621   4.742
 1176TIP3   OH2 3533   0.606   0.634   4.222
 1176TIP3    H1 3534   0.638   0.613   4.309
 1176TIP3    H2 3535   0.534   0.573   4.208
 1177TIP3   OH2 3536   5.396   3.972   2.679
 1177TIP3    H1 3537   5.337   3.914   2.632
 1177TIP3    H2 3538   5.390   4.056   2.632
 1178TIP3   OH2 3539   3.974   4.792   1.488
 1178TIP3    H1 3540   3.901   4.847   1.461
 1178TIP3    H2 3541   3.983   4.807   1.582
 1179TIP3   OH2 3542   0.157   2.741   1.918
 1179TIP3    H1 3543   0.165   2.814   1.857
 1179TIP3    H2 3544   0.210   2.768   1.994
 1180TIP3   OH2 3545   2.919   1.649   4.622
 1180TIP3    H1 3546   2.842   1.638   4.678
 1180TIP3    H2 3547   2.976   1.709   4.670
 1181TIP3   OH2 3548   5.527   1.654   3.580
 1181TIP3    H1 3549   5.460   1.586   3.593
 1181TIP3    H2 3550   5.605   1.606   3.552
 1182TIP3   OH2 3551   4.816   2.012   2.063
 1182TIP3    H1 3552   4.879   2.025   2.134
 1182TIP3    H2 3553   4.865   1.966   1.996
 1183TIP3   OH2 3554   1.568   5.777   0.604
 1183TIP3    H1 3555   1.477   5.806   0.596
 1183TIP3    H2 3556   1.561   5.689   0.642
 1184TIP3   OH2 3557   5.925   4.962   1.973
 1184TIP3    H1 3558   5.880   5.041   1.943
 1184TIP3    H2 3559   5.900   4.894   1.910
 1185TIP3   OH2 3560   1.857   5.297   1.046
 1185TIP3    H1 3561   1.876   5.208   1.017
 1185TIP3    H2 3562   1.773   5.318   1.004
 1186TIP3   OH2 3563   2.149   5.652   3.289
 1186TIP3    H1 3564   2.067   5.602   3.285
 1186TIP3    H2 3565   2.144   5.711   3.214
 1187TIP3   OH2 3566   1.094   5.802   0.265
 1187TIP3    H1 3567   1.023   5.787   0.327
 1187TIP3    H2 3568   1.170   5.821   0.320
 1188TIP3   OH2 3569   4.650   1.582   0.877
 1188TIP3    H1 3570   4.625   1.504   0.927
 1188TIP3    H2 3571   4.647   1.653   0.940
 1189TIP3   OH2 3572   4.510   2.141   0.941
 1189TIP3    H1 3573   4.503   2.208   0.872
 1189TIP3    H2 3574   4.420   2.115   0.959
 1190TIP3   OH2 3575   4.739   0.490   0.124
 1190TIP3    H1 3576   4.772   0.509   0.036
 1190TIP3    H2 3577   4.649   0.460   0.111
 1191TIP3   OH2 3578   2.176   3.487   0.023
 1191TIP3    H1 3579   2.135   3.554  -0.033
 1191TIP3    H2 3580   2.171   3.407  -0.029
 1192TIP3   OH2 3581   3.267   0.654   1.622
 1192TIP3    H1 3582   3.323   0.721   1.583
 1192TIP3    H2 3583   3.199   0.703   1.668
 1193TIP3   OH2 3584   6.179   2.091   1.093
 1193TIP3    H1 3585   6.150   2.045   1.014
 1193TIP3    H2 3586   6.187   2.022   1.159
 1194TIP3   OH2 3587   1.571   0.235   1.526
 1194TIP3    H1 3588   1.529   0.160   1.570
 1194TIP3    H2 3589   1.504   0.266   1.465
 1195TIP3   OH2 3590   1.791   2.620   4.845
 1195TIP3    H1 3591   1.805   2.530   4.816
 1195TIP3    H2 3592   1.813   2.619   4.939
 1196TIP3   OH2 3593   4.297   0.109   4.880
 1196TIP3    H1 3594   4.264   0.026   4.845
 1196TIP3    H2 3595   4.274   0.106   4.973
 1197TIP3   OH2 3596   3.612   4.503   1.130
 1197TIP3    H1 3597   3.615   4.440   1.058
 1197TIP3    H2 3598   3.679   4.474   1.191
 1198TIP3   OH2 3599   1.735   1.853   4.066
 1198TIP3    H1 3600   1.801   1.911   4.028
 1198TIP3    H2 3601   1.773   1.825   4.149
 1199TIP3   OH2 3602   6.278   2.095   3.602
 1199TIP3    H1 3603   6.236   2.128   3.523
 1199TIP3    H2 3604   6.216   2.031   3.638
 1200TIP3   OH2 3605   5.146   5.361   0.993
 1200TIP3    H1 3606   5.123   5.453   0.987
 1200TIP3    H2 3607   5.186   5.341   0.908
 1201TIP3   OH2 3608   3.653   0.777   4.312
 1201TIP3    H1 3609   3.591   0.830   4.262
 1201TIP3    H2 3610   3.636   0.687   4.283
 1202TIP3   OH2 3611   0.386   3.512   4.466
 1202TIP3    H1 3612   0.306   3.562   4.483
 1202TIP3    H2 3613   0.454   3.560   4.514
 1203TIP3   OH2 3614   5.084   0.050   3.641
 1203TIP3    H1 3615   5.119   0.110   3.576
 1203TIP3    H2 3616   5.038   0.105   3.704
 1204TIP3   OH2 3617   5.147   4.518   2.799
 1204TIP3    H1 3618   5.066   4.498   2.844
 1204TIP3    H2 3619   5.205   4.444   2.818
 1205TIP3   OH2 3620   4.039   5.788   0.234
 1205TIP3    H1 3621   3.995   5.828   0.159
 1205TIP3    H2 3622   3.981   5.717   0.261
 1206TIP3   OH2 3623   2.236   5.744   2.304
 1206TIP3    H1 3624   2.298   5.696   2.357
 1206TIP3    H2 3625   2.212   5.820   2.357
 1207TIP3   OH2 3626   0.873   1.140   4.254
 1207TIP3    H1 3627   0.822   1.095   4.322
 1207TIP3    H2 3628   0.811   1.201   4.214
 1208TIP3   OH2 3629   4.877   4.619   2.106
 1208TIP3    H1 3630   4.832   4.592   2.186
 1208TIP3    H2 3631   4.829   4.575   2.035
 1209TIP3   OH2 3632   0.733   5.938   2.610
 1209TIP3    H1 3633   0.694   5.986   2.537
 1209TIP3    H2 3634   0.822   5.919   2.582
 1210TIP3   OH2 3635   1.248   1.541   1.173
 1210TIP3    H1 3636   1.333   1.583   1.185
 1210TIP3    H2 3637   1.184   1.609   1.195
 1211TIP3   OH2 3638   0.418   4.187   0.623
 1211TIP3    H1 3639   0.431   4.163   0.715
 1211TIP3    H2 3640   0.505   4.211   0.591
 1212TIP3   OH2 3641   0.852   1.899   1.650
 1212TIP3    H1 3642   0.924   1.921   1.592
 1212TIP3    H2 3643   0.774   1.928   1.604
 1213TIP3   OH2 3644   0.689   4.560   4.062
 1213TIP3    H1 3645   0.629   4.510   4.117
 1213TIP3    H2 3646   0.766   4.575   4.117
 1214TIP3   OH2 3647   2.010   3.647   0.959
 1214TIP3    H1 3648   1.926   3.604   0.947
 1214TIP3    H2 3649   2.012   3.715   0.891
 1215TIP3   OH2 3650   0.375   5.142   5.054
 1215TIP3    H1 3651   0.281   5.128   5.066
 1215TIP3    H2 3652   0.416   5.068   5.100
 1216TIP3   OH2 3653   2.089   1.628   0.248
 1216TIP3    H1 3654   2.049   1.703   0.205
 1216TIP3    H2 3655   2.157   1.598   0.188
 1217TIP3   OH2 3656   6.080   4.725   5.080
 1217TIP3    H1 3657   6.059   4.777   5.158
 1217TIP3    H2 3658   6.027   4.764   5.011
 1218TIP3   OH2 3659   0.649   2.815   1.799
 1218TIP3    H1 3660   0.623   2.803   1.707
 1218TIP3    H2 3661   0.731   2.766   1.808
 1219TIP3   OH2 3662   6.294   4.211   0.962
 1219TIP3    H1 3663   6.338   4.286   1.003
 1219TIP3    H2 3664   6.308   4.139   1.024
 1220TIP3   OH2 3665   5.629   4.666   0.620
 1220TIP3    H1 3666   5.692   4.639   0.554
 1220TIP3    H2 3667   5.558   4.602   0.613
 1221TIP3   OH2 3668   6.001   1.480   1.618
 1221TIP3    H1 3669   6.095   1.473   1.637
 1221TIP3    H2 3670   5.968   1.539   1.686
 1222TIP3   OH2 3671   5.904   5.088   3.738
 1222TIP3    H1 3672   5.986   5.138   3.736
 1222TIP3    H2 3673   5.928   5.000   3.710
 1223TIP3   OH2 3674   0.017   5.449   2.196
 1223TIP3    H1 3675   0.094   5.466   2.142
 1223TIP3    H2 3676   0.016   5.521   2.259
 1224TIP3   OH2 3677   2.552   5.036   3.889
 1224TIP3    H1 3678   2.531   4.946   3.911
 1224TIP3    H2 3679   2.633   5.030   3.838
 1225TIP3   OH2 3680   0.362   0.663   1.322
 1225TIP3    H1 3681   0.329   0.708   1.399
 1225TIP3    H2 3682   0.445   0.626   1.349
 1226TIP3   OH2 3683   0.940   5.752   3.920
 1226TIP3    H1 3684   0.943   5.715   4.009
 1226TIP3    H2 3685   0.894   5.686   3.869
 1227TIP3   OH2 3686   0.508   4.258   4.689
 1227TIP3    H1 3687   0.551   4.254   4.775
 1227TIP3    H2 3688   0.551   4.189   4.638
 1228TIP3   OH2 3689   1.956   3.841   4.495
 1228TIP3    H1 3690   2.051   3.834   4.497
 1228TIP3    H2 3691   1.926   3.759   4.456
 1229TIP3   OH2 3692   1.877   2.290   1.484
 1229TIP3    H1 3693   1.946   2.225   1.473
 1229TIP3    H2 3694   1.809   2.264   1.422
 1230TIP3   OH2 3695   6.070   2.653   3.289
 1230TIP3    H1 3696   6.134   2.630   3.221
 1230TIP3    H2 3697   6.028   2.570   3.310
 1231TIP3   OH2 3698   5.821   0.773   3.261
 1231TIP3    H1 3699   5.754   0.718   3.221
 1231TIP3    H2 3700   5.884   0.710   3.298
 1232TIP3   OH2 3701   1.292   5.596   1.677
 1232TIP3    H1 3702   1.322   5.563   1.762
 1232TIP3    H2 3703   1.234   5.527   1.644
 1233TIP3   OH2 3704   1.638   0.559   0.384
 1233TIP3    H1 3705   1.685   0.573   0.301
 1233TIP3    H2 3706   1.546   0.564   0.360
 1234TIP3   OH2 3707   5.402   1.623   0.160
 1234TIP3    H1 3708   5.405   1.678   0.239
 1234TIP3    H2 3709   5.354   1.675   0.096
 1235TIP3   OH2 3710   5.137   4.219   5.086
 1235TIP3    H1 3711   5.048   4.206   5.054
 1235TIP3    H2 3712   5.192   4.217   5.008
 1236TIP3   OH2 3713   4.545   4.466   3.218
 1236TIP3    H1 3714   4.544   4.373   3.242
 1236TIP3    H2 3715   4.553   4.512   3.301
 1237TIP3   OH2 3716   3.574   5.858   0.704
 1237TIP3    H1 3717   3.544   5.949   0.702
 1237TIP3    H2 3718   3.663   5.864   0.739
 1238TIP3   OH2 3719   0.322   0.761   3.836
 1238TIP3    H1 3720   0.270   0.820   3.781
 1238TIP3    H2 3721   0.296   0.782   3.926
 1239TIP3   OH2 3722   0.133   1.968   1.249
 1239TIP3    H1 3723   0.123   2.041   1.188
 1239TIP3    H2 3724   0.221   1.978   1.284
 1240TIP3   OH2 3725   6.291   1.411   4.115
 1240TIP3    H1 3726   6.283   1.398   4.020
 1240TIP3    H2 3727   6.259   1.328   4.153
 1241TIP3   OH2 3728   5.838   4.260   1.284
 1241TIP3    H1 3729   5.768   4.195   1.288
 1241TIP3    H2 3730   5.799   4.335   1.238
 1242TIP3   OH2 3731   0.143   2.487   2.690
 1242TIP3    H1 3732   0.162   2.558   2.751
 1242TIP3    H2 3733   0.147   2.407   2.743
 1243TIP3   OH2 3734   3.401   2.069   4.287
 1243TIP3    H1 3735   3.327   2.077   4.346
 1243TIP3    H2 3736   3.467   2.020   4.337
 1244TIP3   OH2 3737   6.066   1.643   1.922
 1244TIP3    H1 3738   6.039   1.699   1.850
 1244TIP3    H2 3739   6.160   1.660   1.933
 1245TIP3   OH2 3740   1.759   3.013   0.655
 1245TIP3    H1 3741   1.846   3.052   0.650
 1245TIP3    H2 3742   1.749   2.968   0.571
 1246TIP3   OH2 3743   0.199   0.541   3.640
 1246TIP3    H1 3744   0.294   0.545   3.629
 1246TIP3    H2 3745   0.186   0.561   3.733
 1247TIP3   OH2 3746   1.564   0.674   4.372
 1247TIP3    H1 3747   1.640   0.731   4.376
 1247TIP3    H2 3748   1.496   0.721   4.419
 1248TIP3   OH2 3749   2.765   1.418   2.894
 1248TIP3    H1 3750   2.840   1.400   2.951
 1248TIP3    H2 3751   2.712   1.339   2.898
 1249TIP3   OH2 3752   6.267   3.007   4.874
 1249TIP3    H1 3753   6.315   3.053   4.943
 1249TIP3    H2 3754   6.320   2.930   4.854
 1250TIP3   OH2 3755   6.127   3.726   1.864
 1250TIP3    H1 3756   6.083   3.690   1.787
 1250TIP3    H2 3757   6.220   3.708   1.849
 1251TIP3   OH2 3758   1.804   1.733   0.494
 1251TIP3    H1 3759   1.848   1.778   0.422
 1251TIP3    H2 3760   1.779   1.803   0.554
 1252TIP3   OH2 3761   2.960   5.710   0.827
 1252TIP3    H1 3762   3.051   5.738   0.819
 1252TIP3    H2 3763   2.926   5.758   0.903
 1253TIP3   OH2 3764   6.141   0.422   1.080
 1253TIP3    H1 3765   6.156   0.508   1.119
 1253TIP3    H2 3766   6.065   0.387   1.127
 1254TIP3   OH2 3767   5.895   5.289   1.680
 1254TIP3    H1 3768   5.869   5.244   1.600
 1254TIP3    H2 3769   5.983   5.323   1.660
 1255TIP3   OH2 3770   1.167   1.861   0.051
 1255TIP3    H1 3771   1.140   1.874   0.142
 1255TIP3    H2 3772   1.255   1.823   0.056
 1256TIP3   OH2 3773   0.826   0.787   1.637
 1256TIP3    H1 3774   0.791   0.859   1.584
 1256TIP3    H2 3775   0.912   0.769   1.599
 1257TIP3   OH2 3776   1.542   0.503   2.585
 1257TIP3    H1 3777   1.524   0.476   2.495
 1257TIP3    H2 3778   1.456   0.513   2.625
 1258TIP3   OH2 3779   2.625   2.199   3.387
 1258TIP3    H1 3780   2.583   2.179   3.304
 1258TIP3    H2 3781   2.603   2.124   3.443
 1259TIP3   OH2 3782   4.816   0.258   1.813
 1259TIP3    H1 3783   4.835   0.209   1.893
 1259TIP3    H2 3784   4.730   0.296   1.828
 1260TIP3   OH2 3785   3.041   3.581   3.804
 1260TIP3    H1 3786   3.105   3.573   3.733
 1260TIP3    H2 3787   2.956   3.583   3.759
 1261TIP3   OH2 3788   3.095   1.789   3.288
 1261TIP3    H1 3789   3.183   1.760   3.264
 1261TIP3    H2 3790   3.058   1.822   3.206
 1262TIP3   OH2 3791   4.197   1.395   3.401
 1262TIP3    H1 3792   4.167   1.328   3.340
 1262TIP3    H2 3793   4.283   1.421   3.369
 1263TIP3   OH2 3794   3.690   0.743   3.934
 1263TIP3    H1 3795   3.629   0.791   3.878
 1263TIP3    H2 3796   3.634   0.697   3.996
 1264TIP3   OH2 3797   5.736   0.140   3.448
 1264TIP3    H1 3798   5.714   0.084   3.523
 1264TIP3    H2 3799   5.817   0.185   3.475
 1265TIP3   OH2 3800   2.132   5.184   0.481
 1265TIP3    H1 3801   2.187   5.123   0.530
 1265TIP3    H2 3802   2.190   5.221   0.414
 1266TIP3   OH2 3803   1.410   2.844   4.521
 1266TIP3    H1 3804   1.494   2.799   4.524
 1266TIP3    H2 3805   1.351   2.781   4.479
 1267TIP3   OH2 3806   1.892   3.647   4.844
 1267TIP3    H1 3807   1.865   3.699   4.768
 1267TIP3    H2 3808   1.858   3.559   4.826
 1268TIP3   OH2 3809   0.654   2.353   4.368
 1268TIP3    H1 3810   0.567   2.372   4.333
 1268TIP3    H2 3811   0.644   2.266   4.409
 1269TIP3   OH2 3812   5.389   0.779   1.340
 1269TIP3    H1 3813   5.316   0.728   1.375
 1269TIP3    H2 3814   5.377   0.866   1.378
 1270TIP3   OH2 3815   3.098   2.195   3.800
 1270TIP3    H1 3816   3.176   2.242   3.772
 1270TIP3    H2 3817   3.036   2.264   3.826
 1271TIP3   OH2 3818   3.198   3.130   0.529
 1271TIP3    H1 3819   3.213   3.166   0.442
 1271TIP3    H2 3820   3.222   3.037   0.521
 1272TIP3   OH2 3821   1.431   5.154   3.497
 1272TIP3    H1 3822   1.353   5.159   3.553
 1272TIP3    H2 3823   1.483   5.083   3.535
 1273TIP3   OH2 3824   2.078   5.183   0.824
 1273TIP3    H1 3825   2.013   5.113   0.822
 1273TIP3    H2 3826   2.160   5.142   0.796
 1274TIP3   OH2 3827   1.253   1.637   1.791
 1274TIP3    H1 3828   1.194   1.561   1.794
 1274TIP3    H2 3829   1.211   1.702   1.847
 1275TIP3   OH2 3830   2.517   1.068   3.276
 1275TIP3    H1 3831   2.500   1.156   3.242
 1275TIP3    H2 3832   2.460   1.011   3.224
 1276TIP3   OH2 3833   6.212   2.723   1.674
 1276TIP3    H1 3834   6.155   2.743   1.748
 1276TIP3    H2 3835   6.300   2.721   1.712
 1277TIP3   OH2 3836   0.736   0.546   4.874
 1277TIP3    H1 3837   0.679   0.545   4.797
 1277TIP3    H2 3838   0.824   0.558   4.839
 1278TIP3   OH2 3839   4.813   2.392   4.748
 1278TIP3    H1 3840   4.756   2.469   4.751
 1278TIP3    H2 3841   4.879   2.409   4.816
 1279TIP3   OH2 3842   0.643   5.741   0.190
 1279TIP3    H1 3843   0.662   5.789   0.270
 1279TIP3    H2 3844   0.726   5.700   0.166
 1280TIP3   OH2 3845   1.571   0.140   3.981
 1280TIP3    H1 3846   1.641   0.075   3.985
 1280TIP3    H2 3847   1.563   0.173   4.070
 1281TIP3   OH2 3848   3.438   4.989   4.476
 1281TIP3    H1 3849   3.441   4.996   4.381
 1281TIP3    H2 3850   3.345   4.981   4.497
 1282TIP3   OH2 3851   5.257   2.736   0.989
 1282TIP3    H1 3852   5.274   2.727   1.083
 1282TIP3    H2 3853   5.343   2.722   0.948
 1283TIP3   OH2 3854   2.740   3.875   3.339
 1283TIP3    H1 3855   2.813   3.835   3.386
 1283TIP3    H2 3856   2.778   3.951   3.295
 1284TIP3   OH2 3857   2.275   3.508   4.573
 1284TIP3    H1 3858   2.369   3.487   4.575
 1284TIP3    H2 3859   2.233   3.424   4.556
 1285TIP3   OH2 3860   6.276   2.649   0.975
 1285TIP3    H1 3861   6.329   2.728   0.976
 1285TIP3    H2 3862   6.235   2.649   0.888
 1286TIP3   OH2 3863   5.829   0.484   2.017
 1286TIP3    H1 3864   5.739   0.501   1.992
 1286TIP3    H2 3865   5.859   0.417   1.956
 1287TIP3   OH2 3866   1.783   0.336   4.921
 1287TIP3    H1 3867   1.777   0.265   4.858
 1287TIP3    H2 3868   1.807   0.294   5.003
 1288TIP3   OH2 3869   4.683   5.207   4.225
 1288TIP3    H1 3870   4.667   5.276   4.290
 1288TIP3    H2 3871   4.740   5.248   4.160
 1289TIP3   OH2 3872   4.828   0.233   4.359
 1289TIP3    H1 3873   4.919   0.208   4.343
 1289TIP3    H2 3874   4.794   0.255   4.272
 1290TIP3   OH2 3875   2.197   1.909   1.086
 1290TIP3    H1 3876   2.190   1.816   1.064
 1290TIP3    H2 3877   2.168   1.915   1.177
 1291TIP3   OH2 3878   2.130   3.778   0.502
 1291TIP3    H1 3879   2.131   3.719   0.426
 1291TIP3    H2 3880   2.041   3.772   0.535
 1292TIP3   OH2 3881   4.909   5.120   2.428
 1292TIP3    H1 3882   4.877   5.060   2.495
 1292TIP3    H2 3883   4.942   5.196   2.476
 1293TIP3   OH2 3884   5.882   4.073   1.970
 1293TIP3    H1 3885   5.967   4.033   1.990
 1293TIP3    H2 3886   5.881   4.080   1.874
 1294TIP3   OH2 3887   0.795   5.513   3.139
 1294TIP3    H1 3888   0.701   5.533   3.138
 1294TIP3    H2 3889   0.837   5.598   3.152
 1295TIP3   OH2 3890   4.678   4.632   0.947
 1295TIP3    H1 3891   4.595   4.609   0.989
 1295TIP3    H2 3892   4.671   4.596   0.859
 1296TIP3   OH2 3893   5.817   2.047   4.651
 1296TIP3    H1 3894   5.842   1.983   4.583
 1296TIP3    H2 3895   5.770   1.995   4.716
 1297TIP3   OH2 3896   3.153   1.340   3.370
 1297TIP3    H1 3897   3.103   1.284   3.429
 1297TIP3    H2 3898   3.088   1.401   3.334
 1298TIP3   OH2 3899   3.645   4.933   3.671
 1298TIP3    H1 3900   3.555   4.914   3.643
 1298TIP3    H2 3901   3.699   4.910   3.595
 1299TIP3   OH2 3902   5.745   0.501   4.868
 1299TIP3    H1 3903   5.651   0.494   4.856
 1299TIP3    H2 3904   5.774   0.561   4.799
 1300TIP3   OH2 3905   4.375   0.365   2.476
 1300TIP3    H1 3906   4.357   0.410   2.559
 1300TIP3    H2 3907   4.307   0.396   2.416
 1301TIP3   OH2 3908   1.471   3.061   1.808
 1301TIP3    H1 3909   1.545   3.077   1.749
 1301TIP3    H2 3910   1.396   3.102   1.765
 1302TIP3   OH2 3911   2.422   4.862   5.010
 1302TIP3    H1 3912   2.328   4.869   5.028
 1302TIP3    H2 3913   2.458   4.946   5.040
 1303TIP3   OH2 3914   3.172   4.173   0.038
 1303TIP3    H1 3915   3.121   4.249   0.010
 1303TIP3    H2 3916   3.112   4.099   0.029
 1304TIP3   OH2 3917   0.711   3.068   2.553
 1304TIP3    H1 3918   0.682   2.977   2.545
 1304TIP3    H2 3919   0.803   3.063   2.578
 1305TIP3   OH2 3920   2.779   2.923   2.757
 1305TIP3    H1 3921   2.762   2.971   2.676
 1305TIP3    H2 3922   2.850   2.971   2.800
 1306TIP3   OH2 3923   6.330   0.210   0.582
 1306TIP3    H1 3924   6.384   0.269   0.529
 1306TIP3    H2 3925   6.254   0.192   0.527
 1307TIP3   OH2 3926   4.918   1.209   4.461
 1307TIP3    H1 3927   4.947   1.298   4.482
 1307TIP3    H2 3928   4.878   1.178   4.543
 1308TIP3   OH2 3929   5.227   5.627   4.167
 1308TIP3    H1 3930   5.272   5.563   4.222
 1308TIP3    H2 3931   5.297   5.673   4.120
 1309TIP3   OH2 3932   3.072   5.004   4.043
 1309TIP3    H1 3933   3.066   5.031   4.134
 1309TIP3    H2 3934   2.984   5.017   4.008
 1310TIP3   OH2 3935   3.240   2.461   4.809
 1310TIP3    H1 3936   3.185   2.394   4.848
 1310TIP3    H2 3937   3.180   2.532   4.784
 1311TIP3   OH2 3938   6.137   0.056   4.928
 1311TIP3    H1 3939   6.149   0.077   4.835
 1311TIP3    H2 3940   6.101  -0.032   4.929
 1312TIP3   OH2 3941   0.419   2.704   3.645
 1312TIP3    H1 3942   0.497   2.695   3.699
 1312TIP3    H2 3943   0.410   2.621   3.600
 1313TIP3   OH2 3944   4.037   5.373   1.987
 1313TIP3    H1 3945   4.029   5.283   2.017
 1313TIP3    H2 3946   3.963   5.386   1.928
 1314TIP3   OH2 3947   3.917   2.044   0.509
 1314TIP3    H1 3948   3.878   2.039   0.596
 1314TIP3    H2 3949   4.010   2.061   0.526
 1315TIP3   OH2 3950   1.696   3.700   0.660
 1315TIP3    H1 3951   1.777   3.649   0.660
 1315TIP3    H2 3952   1.691   3.738   0.572
 1316TIP3   OH2 3953   1.616   2.378   5.118
 1316TIP3    H1 3954   1.697   2.381   5.170
 1316TIP3    H2 3955   1.576   2.294   5.140
 1317TIP3   OH2 3956   0.339   2.586   3.250
 1317TIP3    H1 3957   0.356   2.679   3.238
 1317TIP3    H2 3958   0.322   2.576   3.344
 1318TIP3   OH2 3959   0.546   4.381   1.333
 1318TIP3    H1 3960   0.572   4.400   1.243
 1318TIP3    H2 3961   0.574   4.291   1.349
 1319TIP3   OH2 3962   4.204   2.815   3.573
 1319TIP3    H1 3963   4.198   2.877   3.499
 1319TIP3    H2 3964   4.141   2.848   3.637
 1320TIP3   OH2 3965   1.897   3.077   3.379
 1320TIP3    H1 3966   1.826   3.089   3.317
 1320TIP3    H2 3967   1.951   3.155   3.369
 1321TIP3   OH2 3968   1.292   3.434   2.793
 1321TIP3    H1 3969   1.249   3.354   2.762
 1321TIP3    H2 3970   1.310   3.483   2.713
 1322TIP3   OH2 3971   3.551   1.886   2.100
 1322TIP3    H1 3972   3.601   1.826   2.155
 1322TIP3    H2 3973   3.613   1.954   2.075
 1323TIP3   OH2 3974   3.362   2.309   3.212
 1323TIP3    H1 3975   3.424   2.256   3.261
 1323TIP3    H2 3976   3.276   2.275   3.238
 1324TIP3   OH2 3977   5.296   2.488   2.832
 1324TIP3    H1 3978   5.369   2.511   2.776
 1324TIP3    H2 3979   5.264   2.571   2.866
 1325TIP3   OH2 3980   1.328   4.786   0.585
 1325TIP3    H1 3981   1.316   4.691   0.576
 1325TIP3    H2 3982   1.239   4.821   0.594
 1326TIP3   OH2 3983   3.794   0.075   4.990
 1326TIP3    H1 3984   3.780   0.107   4.901
 1326TIP3    H2 3985   3.710   0.036   5.014
 1327TIP3   OH2 3986   4.187   0.495   2.732
 1327TIP3    H1 3987   4.129   0.524   2.802
 1327TIP3    H2 3988   4.268   0.543   2.746
 1328TIP3   OH2 3989   3.107   4.201   4.104
 1328TIP3    H1 3990   3.127   4.107   4.099
 1328TIP3    H2 3991   3.098   4.218   4.198
 1329TIP3   OH2 3992   1.490   3.506   0.159
 1329TIP3    H1 3993   1.491   3.427   0.105
 1329TIP3    H2 3994   1.438   3.569   0.108
 1330TIP3   OH2 3995   2.755   1.499   3.977
 1330TIP3    H1 3996   2.671   1.545   3.985
 1330TIP3    H2 3997   2.804   1.551   3.913
 1331TIP3   OH2 3998   0.347   3.567   2.282
 1331TIP3    H1 3999   0.356   3.629   2.210
 1331TIP3    H2 4000   0.283   3.608   2.341
 1332TIP3   OH2 4001   0.019   1.652   3.834
 1332TIP3    H1 4002   0.078   1.695   3.896
 1332TIP3    H2 4003   0.052   1.562   3.830
 1333TIP3   OH2 4004   1.752   1.304   3.305
 1333TIP3    H1 4005   1.774   1.394   3.325
 1333TIP3    H2 4006   1.722   1.306   3.214
 1334TIP3   OH2 4007   0.143   3.881   2.637
 1334TIP3    H1 4008   0.181   3.957   2.681
 1334TIP3    H2 4009   0.049   3.899   2.636
 1335TIP3   OH2 4010   2.573   2.744   2.448
 1335TIP3    H1 4011   2.600   2.822   2.495
 1335TIP3    H2 4012   2.647   2.725   2.389
 1336TIP3   OH2 4013   5.897   5.712   4.856
 1336TIP3    H1 4014   5.828   5.674   4.911
 1336TIP3    H2 4015   5.921   5.793   4.900
 1337TIP3   OH2 4016   1.176   0.128   0.080
 1337TIP3    H1 4017   1.155   0.036   0.093
 1337TIP3    H2 4018   1.186   0.137  -0.015
 1338TIP3   OH2 4019   5.473   2.256   0.646
 1338TIP3    H1 4020   5.390   2.261   0.692
 1338TIP3    H2 4021   5.474   2.168   0.609
 1339TIP3   OH2 4022   1.209   4.634   4.405
 1339TIP3    H1 4023   1.160   4.698   4.354
 1339TIP3    H2 4024   1.248   4.685   4.476
 1340TIP3   OH2 4025   5.589   5.242   2.046
 1340TIP3    H1 4026   5.672   5.195   2.041
 1340TIP3    H2 4027   5.588   5.279   2.134
 1341TIP3   OH2 4028   4.859   1.044   3.731
 1341TIP3    H1 4029   4.895   1.132   3.717
 1341TIP3    H2 4030   4.908   1.009   3.805
 1342TIP3   OH2 4031   0.682   4.732   0.096
 1342TIP3    H1 4032   0.612   4.675   0.127
 1342TIP3    H2 4033   0.637   4.806   0.055
 1343TIP3   OH2 4034   5.815   4.520   4.745
 1343TIP3    H1 4035   5.730   4.505   4.705
 1343TIP3    H2 4036   5.878   4.509   4.674
 1344TIP3   OH2 4037   3.575   4.907   0.105
 1344TIP3    H1 4038   3.593   4.885   0.014
 1344TIP3    H2 4039   3.609   4.832   0.154
 1345TIP3   OH2 4040   4.548   5.873   0.319
 1345TIP3    H1 4041   4.452   5.878   0.327
 1345TIP3    H2 4042   4.571   5.789   0.358
 1346TIP3   OH2 4043   5.796   3.750   2.314
 1346TIP3    H1 4044   5.876   3.742   2.262
 1346TIP3    H2 4045   5.738   3.804   2.260
 1347TIP3   OH2 4046   5.729   3.103   4.825
 1347TIP3    H1 4047   5.768   3.169   4.883
 1347TIP3    H2 4048   5.680   3.154   4.761
 1348TIP3   OH2 4049   0.696   5.513   1.361
 1348TIP3    H1 4050   0.718   5.593   1.314
 1348TIP3    H2 4051   0.688   5.540   1.453
 1349TIP3   OH2 4052   5.445   1.011   0.663
 1349TIP3    H1 4053   5.432   1.097   0.702
 1349TIP3    H2 4054   5.526   0.978   0.703
 1350TIP3   OH2 4055   2.740   3.257   0.266
 1350TIP3    H1 4056   2.817   3.201   0.265
 1350TIP3    H2 4057   2.697   3.236   0.349
 1351TIP3   OH2 4058   0.518   1.995   0.132
 1351TIP3    H1 4059   0.484   2.077   0.167
 1351TIP3    H2 4060   0.595   1.976   0.185
 1352TIP3   OH2 4061   4.616   4.651   2.530
 1352TIP3    H1 4062   4.640   4.688   2.445
 1352TIP3    H2 4063   4.683   4.584   2.546
 1353TIP3   OH2 4064   5.266   0.651   2.327
 1353TIP3    H1 4065   5.218   0.708   2.387
 1353TIP3    H2 4066   5.215   0.570   2.325
 1354TIP3   OH2 4067   5.325   2.869   2.676
 1354TIP3    H1 4068   5.276   2.795   2.711
 1354TIP3    H2 4069   5.409   2.867   2.723
 1355TIP3   OH2 4070   3.732   5.144   4.887
 1355TIP3    H1 4071   3.684   5.196   4.823
 1355TIP3    H2 4072   3.665   5.091   4.930
 1356TIP3   OH2 4073   5.812   5.701   2.702
 1356TIP3    H1 4074   5.888   5.677   2.754
 1356TIP3    H2 4075   5.827   5.659   2.617
 1357TIP3   OH2 4076   4.656   2.330   0.654
 1357TIP3    H1 4077   4.648   2.393   0.725
 1357TIP3    H2 4078   4.590   2.357   0.590
 1358TIP3   OH2 4079   5.190   4.429   3.314
 1358TIP3    H1 4080   5.100   4.397   3.320
 1358TIP3    H2 4081   5.186   4.501   3.251
 1359TIP3   OH2 4082   1.121   3.770   1.026
 1359TIP3    H1 4083   1.176   3.726   0.960
 1359TIP3    H2 4084   1.082   3.843   0.978
 1360TIP3   OH2 4085   0.527   2.912   0.178
 1360TIP3    H1 4086   0.462   2.979   0.159
 1360TIP3    H2 4087   0.608   2.946   0.140
 1361TIP3   OH2 4088   0.793   1.372   2.528
 1361TIP3    H1 4089   0.815   1.435   2.460
 1361TIP3    H2 4090   0.873   1.321   2.540
 1362TIP3   OH2 4091   1.591   0.678   3.224
 1362TIP3    H1 4092   1.563   0.630   3.146
 1362TIP3    H2 4093   1.616   0.764   3.191
 1363TIP3   OH2 4094   2.504   0.894   0.487
 1363TIP3    H1 4095   2.537   0.946   0.560
 1363TIP3    H2 4096   2.575   0.898   0.422
 1364TIP3   OH2 4097   2.729   0.659   3.833
 1364TIP3    H1 4098   2.696   0.577   3.796
 1364TIP3    H2 4099   2.788   0.694   3.767
 1365TIP3   OH2 4100   3.512   5.040   4.184
 1365TIP3    H1 4101   3.529   5.127   4.147
 1365TIP3    H2 4102   3.481   4.988   4.110
 1366TIP3   OH2 4103   5.725   4.319   3.640
 1366TIP3    H1 4104   5.738   4.329   3.546
 1366TIP3    H2 4105   5.805   4.352   3.679
 1367TIP3   OH2 4106   3.884   2.878   1.200
 1367TIP3    H1 4107   3.835   2.958   1.184
 1367TIP3    H2 4108   3.969   2.908   1.231
 1368TIP3   OH2 4109   3.442   3.150   2.460
 1368TIP3    H1 4110   3.380   3.087   2.423
 1368TIP3    H2 4111   3.490   3.100   2.527
 1369TIP3   OH2 4112   1.752   2.180   3.691
 1369TIP3    H1 4113   1.740   2.111   3.625
 1369TIP3    H2 4114   1.767   2.260   3.640
 1370TIP3   OH2 4115   4.390   1.911   3.883
 1370TIP3    H1 4116   4.341   1.832   3.859
 1370TIP3    H2 4117   4.349   1.940   3.964
 1371TIP3   OH2 4118   5.955   3.891   3.972
 1371TIP3    H1 4119   5.904   3.837   3.912
 1371TIP3    H2 4120   5.953   3.979   3.934
 1372TIP3   OH2 4121   2.095   4.581   2.030
 1372TIP3    H1 4122   2.029   4.512   2.030
 1372TIP3    H2 4123   2.138   4.574   2.115
 1373TIP3   OH2 4124   0.086   1.367   3.441
 1373TIP3    H1 4125   0.127   1.449   3.415
 1373TIP3    H2 4126  -0.006   1.377   3.416
 1374TIP3   OH2 4127   1.055   5.622   3.489
 1374TIP3    H1 4128   1.127   5.567   3.456
 1374TIP3    H2 4129   1.092   5.666   3.566
 1375TIP3   OH2 4130   1.403   3.085   1.107
 1375TIP3    H1 4131   1.451   3.120   1.182
 1375TIP3    H2 4132   1.471   3.052   1.048
 1376TIP3   OH2 4133   6.157   1.357   2.888
 1376TIP3    H1 4134   6.213   1.426   2.923
 1376TIP3    H2 4135   6.192   1.341   2.800
 1377TIP3   OH2 4136   3.535   5.617   1.534
 1377TIP3    H1 4137   3.465   5.635   1.597
 1377TIP3    H2 4138   3.606   5.675   1.560
 1378TIP3   OH2 4139   5.398   0.035   3.362
 1378TIP3    H1 4140   5.408  -0.033   3.428
 1378TIP3    H2 4141   5.368  -0.012   3.284
 1379TIP3   OH2 4142   0.696   2.587   0.983
 1379TIP3    H1 4143   0.783   2.556   1.008
 1379TIP3    H2 4144   0.699   2.681   0.995
 1380TIP3   OH2 4145   5.701   5.416   0.624
 1380TIP3    H1 4146   5.680   5.487   0.563
 1380TIP3    H2 4147   5.787   5.439   0.658
 1381TIP3   OH2 4148   0.383   2.756   4.496
 1381TIP3    H1 4149   0.457   2.782   4.440
 1381TIP3    H2 4150   0.417   2.684   4.549
 1382TIP3   OH2 4151   6.211   4.776   0.996
 1382TIP3    H1 4152   6.193   4.704   0.935
 1382TIP3    H2 4153   6.269   4.835   0.947
 1383TIP3   OH2 4154   6.226   0.632   5.021
 1383TIP3    H1 4155   6.152   0.692   5.015
 1383TIP3    H2 4156   6.259   0.625   4.931
 1384TIP3   OH2 4157   2.192   2.960   2.486
 1384TIP3    H1 4158   2.096   2.953   2.487
 1384TIP3    H2 4159   2.222   2.871   2.470
 1385TIP3   OH2 4160   0.570   3.482   2.423
 1385TIP3    H1 4161   0.587   3.576   2.429
 1385TIP3    H2 4162   0.502   3.475   2.355
 1386TIP3   OH2 4163   4.705   2.409   4.502
 1386TIP3    H1 4164   4.635   2.473   4.520
 1386TIP3    H2 4165   4.742   2.390   4.588
 1387TIP3   OH2 4166   2.352   0.569   0.648
 1387TIP3    H1 4167   2.323   0.660   0.660
 1387TIP3    H2 4168   2.295   0.534   0.580
 1388TIP3   OH2 4169   0.750   2.288   3.245
 1388TIP3    H1 4170   0.844   2.293   3.229
 1388TIP3    H2 4171   0.715   2.369   3.208
 1389TIP3   OH2 4172   6.217   0.544   4.480
 1389TIP3    H1 4173   6.184   0.609   4.542
 1389TIP3    H2 4174   6.155   0.471   4.486
 1390TIP3   OH2 4175   2.985   2.200   4.677
 1390TIP3    H1 4176   2.911   2.259   4.674
 1390TIP3    H2 4177   3.035   2.219   4.598
 1391TIP3   OH2 4178   1.938   5.192   3.652
 1391TIP3    H1 4179   1.899   5.242   3.724
 1391TIP3    H2 4180   1.878   5.204   3.579
 1392TIP3   OH2 4181   4.980   0.198   0.036
 1392TIP3    H1 4182   5.020   0.196   0.123
 1392TIP3    H2 4183   5.029   0.266  -0.011
 1393TIP3   OH2 4184   2.172   0.081   4.004
 1393TIP3    H1 4185   2.182   0.162   4.054
 1393TIP3    H2 4186   2.078   0.064   4.003
 1394TIP3   OH2 4187   2.614   0.760   2.822
 1394TIP3    H1 4188   2.698   0.716   2.838
 1394TIP3    H2 4189   2.553   0.689   2.801
 1395TIP3   OH2 4190   5.218   0.034   2.596
 1395TIP3    H1 4191   5.211   0.124   2.627
 1395TIP3    H2 4192   5.184   0.037   2.507
 1396TIP3   OH2 4193   2.327   0.067   2.729
 1396TIP3    H1 4194   2.236   0.073   2.702
 1396TIP3    H2 4195   2.374   0.044   2.649
 1397TIP3   OH2 4196   5.726   5.557   3.972
 1397TIP3    H1 4197   5.727   5.487   3.906
 1397TIP3    H2 4198   5.815   5.590   3.973
 1398TIP3   OH2 4199   0.834   1.962   0.854
 1398TIP3    H1 4200   0.925   1.967   0.882
 1398TIP3    H2 4201   0.784   1.956   0.936
 1399TIP3   OH2 4202   3.378   4.819   0.662
 1399TIP3    H1 4203   3.435   4.833   0.737
 1399TIP3    H2 4204   3.363   4.724   0.661
 1400TIP3   OH2 4205   5.597   1.686   4.066
 1400TIP3    H1 4206   5.596   1.758   4.128
 1400TIP3    H2 4207   5.619   1.609   4.119
 1401TIP3   OH2 4208   5.979   2.089   2.811
 1401TIP3    H1 4209   5.944   2.032   2.879
 1401TIP3    H2 4210   5.903   2.133   2.774
 1402TIP3   OH2 4211   6.208   1.175   3.619
 1402TIP3    H1 4212   6.211   1.167   3.715
 1402TIP3    H2 4213   6.133   1.231   3.601
 1403TIP3   OH2 4214   0.670   5.186   1.993
 1403TIP3    H1 4215   0.583   5.186   2.034
 1403TIP3    H2 4216   0.661   5.247   1.919
 1404TIP3   OH2 4217   4.595   2.494   0.861
 1404TIP3    H1 4218   4.607   2.485   0.956
 1404TIP3    H2 4219   4.506   2.463   0.844
 1405TIP3   OH2 4220   4.463   5.032   4.999
 1405TIP3    H1 4221   4.408   4.999   4.928
 1405TIP3    H2 4222   4.402   5.054   5.069
 1406TIP3   OH2 4223   6.224   5.723   4.869
 1406TIP3    H1 4224   6.270   5.789   4.922
 1406TIP3    H2 4225   6.181   5.667   4.933
 1407TIP3   OH2 4226   3.002   1.182   1.480
 1407TIP3    H1 4227   3.025   1.192   1.388
 1407TIP3    H2 4228   2.980   1.090   1.490
 1408TIP3   OH2 4229   6.251   1.272   2.643
 1408TIP3    H1 4230   6.341   1.243   2.631
 1408TIP3    H2 4231   6.214   1.269   2.555
 1409TIP3   OH2 4232   0.739   5.172   4.516
 1409TIP3    H1 4233   0.767   5.215   4.597
 1409TIP3    H2 4234   0.817   5.175   4.459
 1410TIP3   OH2 4235   5.248   3.228   3.582
 1410TIP3    H1 4236   5.288   3.192   3.662
 1410TIP3    H2 4237   5.317   3.280   3.541
 1411TIP3   OH2 4238   6.217   5.020   3.660
 1411TIP3    H1 4239   6.297   4.968   3.647
 1411TIP3    H2 4240   6.213   5.077   3.583
 1412TIP3   OH2 4241   4.063   5.235   3.570
 1412TIP3    H1 4242   4.091   5.287   3.494
 1412TIP3    H2 4243   4.133   5.248   3.634
 1413TIP3   OH2 4244   5.427   3.809   1.997
 1413TIP3    H1 4245   5.489   3.874   1.963
 1413TIP3    H2 4246   5.469   3.725   1.980
 1414TIP3   OH2 4247   4.766   3.667   1.161
 1414TIP3    H1 4248   4.724   3.631   1.083
 1414TIP3    H2 4249   4.786   3.590   1.215
 1415TIP3   OH2 4250   3.251   5.623   3.318
 1415TIP3    H1 4251   3.328   5.670   3.352
 1415TIP3    H2 4252   3.250   5.643   3.225
 1416TIP3   OH2 4253   3.393   1.996   1.140
 1416TIP3    H1 4254   3.413   1.952   1.222
 1416TIP3    H2 4255   3.462   2.062   1.130
 1417TIP3   OH2 4256   2.411   2.582   3.688
 1417TIP3    H1 4257   2.361   2.600   3.608
 1417TIP3    H2 4258   2.374   2.642   3.753
 1418TIP3   OH2 4259   3.363   1.838   2.317
 1418TIP3    H1 4260   3.363   1.929   2.349
 1418TIP3    H2 4261   3.332   1.844   2.227
 1419TIP3   OH2 4262   1.014   5.451   2.235
 1419TIP3    H1 4263   0.921   5.445   2.258
 1419TIP3    H2 4264   1.059   5.406   2.306
 1420TIP3   OH2 4265   0.970   3.686   4.178
 1420TIP3    H1 4266   0.884   3.671   4.138
 1420TIP3    H2 4267   0.951   3.735   4.258
 1421TIP3   OH2 4268   4.781   5.208   3.295
 1421TIP3    H1 4269   4.828   5.152   3.233
 1421TIP3    H2 4270   4.781   5.158   3.377
 1422TIP3   OH2 4271   2.988   2.276   0.076
 1422TIP3    H1 4272   3.059   2.212   0.082
 1422TIP3    H2 4273   2.910   2.223   0.058
 1423TIP3   OH2 4274   3.123   4.826   2.342
 1423TIP3    H1 4275   3.089   4.907   2.305
 1423TIP3    H2 4276   3.064   4.805   2.414
 1424TIP3   OH2 4277   2.802   1.588   0.131
 1424TIP3    H1 4278   2.803   1.551   0.219
 1424TIP3    H2 4279   2.877   1.549   0.087
 1425TIP3   OH2 4280   3.243   1.919   1.794
 1425TIP3    H1 4281   3.226   1.913   1.888
 1425TIP3    H2 4282   3.326   1.872   1.783
 1426TIP3   OH2 4283   3.565   3.606   1.580
 1426TIP3    H1 4284   3.545   3.662   1.655
 1426TIP3    H2 4285   3.507   3.638   1.510
 1427TIP3   OH2 4286   5.861   0.699   2.661
 1427TIP3    H1 4287   5.818   0.711   2.745
 1427TIP3    H2 4288   5.835   0.612   2.632
 1428TIP3   OH2 4289   4.411   3.911   3.584
 1428TIP3    H1 4290   4.410   3.890   3.491
 1428TIP3    H2 4291   4.488   3.866   3.618
 1429TIP3   OH2 4292   5.424   5.899   0.423
 1429TIP3    H1 4293   5.438   5.902   0.329
 1429TIP3    H2 4294   5.429   5.805   0.444
 1430TIP3   OH2 4295   2.246   3.807   4.127
 1430TIP3    H1 4296   2.180   3.850   4.073
 1430TIP3    H2 4297   2.197   3.744   4.180
 1431TIP3   OH2 4298   1.599   3.703   1.644
 1431TIP3    H1 4299   1.659   3.776   1.660
 1431TIP3    H2 4300   1.535   3.738   1.582
 1432TIP3   OH2 4301   6.053   5.672   0.587
 1432TIP3    H1 4302   6.046   5.745   0.527
 1432TIP3    H2 4303   6.143   5.675   0.619
 1433TIP3   OH2 4304   3.482   2.833   0.857
 1433TIP3    H1 4305   3.563   2.829   0.908
 1433TIP3    H2 4306   3.511   2.830   0.766
 1434TIP3   OH2 4307   5.314   1.171   4.685
 1434TIP3    H1 4308   5.239   1.184   4.742
 1434TIP3    H2 4309   5.311   1.078   4.662
 1435TIP3   OH2 4310   1.475   2.913   2.049
 1435TIP3    H1 4311   1.405   2.847   2.040
 1435TIP3    H2 4312   1.463   2.971   1.974
 1436TIP3   OH2 4313   1.901   5.885   5.033
 1436TIP3    H1 4314   1.864   5.972   5.017
 1436TIP3    H2 4315   1.826   5.826   5.027
 1437TIP3   OH2 4316   2.036   5.460   0.296
 1437TIP3    H1 4317   1.981   5.529   0.256
 1437TIP3    H2 4318   2.077   5.503   0.370
 1438TIP3   OH2 4319   5.843   5.223   1.934
 1438TIP3    H1 4320   5.899   5.275   1.991
 1438TIP3    H2 4321   5.864   5.252   1.845
 1439TIP3   OH2 4322   0.410   0.122   1.928
 1439TIP3    H1 4323   0.387   0.213   1.907
 1439TIP3    H2 4324   0.327   0.080   1.949
 1440TIP3   OH2 4325   1.581   3.520   1.402
 1440TIP3    H1 4326   1.583   3.554   1.492
 1440TIP3    H2 4327   1.494   3.545   1.370
 1441TIP3   OH2 4328   0.797   1.549   4.820
 1441TIP3    H1 4329   0.850   1.482   4.777
 1441TIP3    H2 4330   0.856   1.591   4.882
 1442TIP3   OH2 4331   4.166   0.235   3.455
 1442TIP3    H1 4332   4.150   0.209   3.546
 1442TIP3    H2 4333   4.183   0.152   3.409
 1443TIP3   OH2 4334   2.183   3.285   4.912
 1443TIP3    H1 4335   2.251   3.220   4.892
 1443TIP3    H2 4336   2.231   3.362   4.941
 1444TIP3   OH2 4337   5.431   2.371   0.991
 1444TIP3    H1 4338   5.482   2.303   1.035
 1444TIP3    H2 4339   5.340   2.342   1.003
 1445TIP3   OH2 4340   5.100   3.275   3.216
 1445TIP3    H1 4341   5.084   3.216   3.290
 1445TIP3    H2 4342   5.109   3.218   3.140
 1446TIP3   OH2 4343   4.884   2.790   1.447
 1446TIP3    H1 4344   4.940   2.850   1.398
 1446TIP3    H2 4345   4.796   2.827   1.438
 1447TIP3   OH2 4346   4.083   2.138   2.655
 1447TIP3    H1 4347   4.129   2.054   2.650
 1447TIP3    H2 4348   4.081   2.159   2.748
 1448TIP3   OH2 4349   3.305   4.052   2.184
 1448TIP3    H1 4350   3.279   4.139   2.215
 1448TIP3    H2 4351   3.234   3.995   2.212
 1449TIP3   OH2 4352   5.088   1.103   2.026
 1449TIP3    H1 4353   5.092   1.137   1.936
 1449TIP3    H2 4354   5.176   1.072   2.044
 1450TIP3   OH2 4355   2.212   4.357   4.808
 1450TIP3    H1 4356   2.250   4.398   4.886
 1450TIP3    H2 4357   2.207   4.264   4.830
 1451TIP3   OH2 4358   3.218   4.647   1.100
 1451TIP3    H1 4359   3.180   4.668   1.014
 1451TIP3    H2 4360   3.145   4.607   1.149
 1452TIP3   OH2 4361   3.421   0.798   2.487
 1452TIP3    H1 4362   3.505   0.759   2.511
 1452TIP3    H2 4363   3.361   0.770   2.555
 1453TIP3   OH2 4364   0.085   4.907   0.831
 1453TIP3    H1 4365   0.152   4.876   0.893
 1453TIP3    H2 4366   0.088   4.844   0.759
 1454TIP3   OH2 4367   3.487   3.060   3.603
 1454TIP3    H1 4368   3.521   3.145   3.574
 1454TIP3    H2 4369   3.517   2.998   3.537
 1455TIP3   OH2 4370   6.146   3.329   2.524
 1455TIP3    H1 4371   6.124   3.298   2.436
 1455TIP3    H2 4372   6.175   3.250   2.571
 1456TIP3   OH2 4373   4.500   2.856   3.991
 1456TIP3    H1 4374   4.524   2.769   4.022
 1456TIP3    H2 4375   4.405   2.850   3.976
 1457TIP3   OH2 4376   3.531   2.429   1.657
 1457TIP3    H1 4377   3.536   2.368   1.730
 1457TIP3    H2 4378   3.521   2.374   1.580
 1458TIP3   OH2 4379   4.283   5.338   2.167
 1458TIP3    H1 4380   4.256   5.423   2.202
 1458TIP3    H2 4381   4.215   5.316   2.103
 1459TIP3   OH2 4382   1.131   5.328   2.458
 1459TIP3    H1 4383   1.126   5.234   2.442
 1459TIP3    H2 4384   1.215   5.341   2.501
 1460TIP3   OH2 4385   4.055   4.604   2.185
 1460TIP3    H1 4386   4.086   4.688   2.151
 1460TIP3    H2 4387   4.008   4.564   2.113
 1461TIP3   OH2 4388   0.204   1.351   1.085
 1461TIP3    H1 4389   0.273   1.387   1.140
 1461TIP3    H2 4390   0.243   1.272   1.047
 1462TIP3   OH2 4391   2.691   3.792   3.649
 1462TIP3    H1 4392   2.780   3.825   3.636
 1462TIP3    H2 4393   2.646   3.862   3.696
 1463TIP3   OH2 4394   0.196   3.879   0.953
 1463TIP3    H1 4395   0.210   3.972   0.972
 1463TIP3    H2 4396   0.189   3.876   0.857
 1464TIP3   OH2 4397   5.324   2.112   3.606
 1464TIP3    H1 4398   5.247   2.151   3.649
 1464TIP3    H2 4399   5.380   2.187   3.585
 1465TIP3   OH2 4400   1.790   4.244   4.455
 1465TIP3    H1 4401   1.699   4.274   4.449
 1465TIP3    H2 4402   1.841   4.324   4.462
 1466TIP3   OH2 4403   0.431   5.477   1.510
 1466TIP3    H1 4404   0.513   5.445   1.546
 1466TIP3    H2 4405   0.456   5.556   1.461
 1467TIP3   OH2 4406   1.579   3.700   3.631
 1467TIP3    H1 4407   1.642   3.771   3.637
 1467TIP3    H2 4408   1.557   3.679   3.722
 1468TIP3   OH2 4409   4.427   0.098   2.674
 1468TIP3    H1 4410   4.473   0.095   2.758
 1468TIP3    H2 4411   4.484   0.151   2.618
 1469TIP3   OH2 4412   3.910   4.664   0.445
 1469TIP3    H1 4413   3.889   4.756   0.426
 1469TIP3    H2 4414   3.982   4.643   0.386
 1470TIP3   OH2 4415   5.624   0.299   2.617
 1470TIP3    H1 4416   5.658   0.211   2.632
 1470TIP3    H2 4417   5.534   0.285   2.586
 1471TIP3   OH2 4418   0.317   0.123   3.742
 1471TIP3    H1 4419   0.223   0.108   3.732
 1471TIP3    H2 4420   0.324   0.191   3.809
 1472TIP3   OH2 4421   4.242   4.401   3.312
 1472TIP3    H1 4422   4.258   4.332   3.248
 1472TIP3    H2 4423   4.327   4.444   3.324
 1473TIP3   OH2 4424   6.154   2.510   2.751
 1473TIP3    H1 4425   6.077   2.486   2.802
 1473TIP3    H2 4426   6.185   2.591   2.792
 1474TIP3   OH2 4427   5.808   0.100   2.038
 1474TIP3    H1 4428   5.816   0.144   1.953
 1474TIP3    H2 4429   5.731   0.139   2.078
 1475TIP3   OH2 4430   3.484   4.384   2.168
 1475TIP3    H1 4431   3.575   4.374   2.197
 1475TIP3    H2 4432   3.481   4.473   2.131
 1476TIP3   OH2 4433   3.705   1.241   0.940
 1476TIP3    H1 4434   3.798   1.241   0.917
 1476TIP3    H2 4435   3.684   1.149   0.951
 1477TIP3   OH2 4436   1.061   3.331   1.347
 1477TIP3    H1 4437   0.989   3.270   1.334
 1477TIP3    H2 4438   1.137   3.275   1.364
 1478TIP3   OH2 4439   2.494   1.805   4.082
 1478TIP3    H1 4440   2.525   1.759   4.159
 1478TIP3    H2 4441   2.491   1.739   4.013
 1479TIP3   OH2 4442   4.010   5.928   4.014
 1479TIP3    H1 4443   4.042   6.012   3.982
 1479TIP3    H2 4444   3.917   5.942   4.030
 1480TIP3   OH2 4445   4.230   1.728   4.455
 1480TIP3    H1 4446   4.143   1.740   4.494
 1480TIP3    H2 4447   4.272   1.813   4.463
 1481TIP3   OH2 4448   3.467   0.063   0.553
 1481TIP3    H1 4449   3.554   0.085   0.586
 1481TIP3    H2 4450   3.458   0.115   0.473
 1482TIP3   OH2 4451   5.413   2.533   4.073
 1482TIP3    H1 4452   5.335   2.490   4.106
 1482TIP3    H2 4453   5.381   2.610   4.026
 1483TIP3   OH2 4454   1.706   1.270   0.688
 1483TIP3    H1 4455   1.670   1.358   0.695
 1483TIP3    H2 4456   1.632   1.215   0.665
 1484TIP3   OH2 4457   5.900   2.865   3.614
 1484TIP3    H1 4458   5.919   2.776   3.584
 1484TIP3    H2 4459   5.963   2.920   3.568
 1485TIP3   OH2 4460   5.617   3.166   1.464
 1485TIP3    H1 4461   5.631   3.251   1.423
 1485TIP3    H2 4462   5.699   3.119   1.451
 1486TIP3   OH2 4463   6.020   1.112   3.942
 1486TIP3    H1 4464   5.967   1.152   3.873
 1486TIP3    H2 4465   6.019   1.019   3.922
 1487TIP3   OH2 4466   2.691   1.978   2.492
 1487TIP3    H1 4467   2.634   2.036   2.443
 1487TIP3    H2 4468   2.711   2.027   2.572
 1488TIP3   OH2 4469   5.667   5.686   3.617
 1488TIP3    H1 4470   5.689   5.729   3.700
 1488TIP3    H2 4471   5.587   5.638   3.636
 1489TIP3   OH2 4472   2.362   4.468   3.559
 1489TIP3    H1 4473   2.451   4.503   3.562
 1489TIP3    H2 4474   2.372   4.378   3.528
 1490TIP3   OH2 4475   3.371   5.518   0.382
 1490TIP3    H1 4476   3.306   5.527   0.312
 1490TIP3    H2 4477   3.333   5.455   0.442
 1491TIP3   OH2 4478   4.970   0.972   1.661
 1491TIP3    H1 4479   4.953   1.062   1.634
 1491TIP3    H2 4480   4.999   0.928   1.581
 1492TIP3   OH2 4481   2.557   1.550   3.336
 1492TIP3    H1 4482   2.631   1.553   3.275
 1492TIP3    H2 4483   2.483   1.585   3.286
 1493TIP3   OH2 4484   0.415   2.123   1.282
 1493TIP3    H1 4485   0.405   2.140   1.189
 1493TIP3    H2 4486   0.505   2.148   1.302
 1494TIP3   OH2 4487   0.631   3.977   0.604
 1494TIP3    H1 4488   0.621   4.014   0.517
 1494TIP3    H2 4489   0.721   3.945   0.606
 1495TIP3   OH2 4490   0.512   0.502   0.806
 1495TIP3    H1 4491   0.445   0.444   0.842
 1495TIP3    H2 4492   0.549   0.454   0.732
 1496TIP3   OH2 4493   5.108   1.974   4.595
 1496TIP3    H1 4494   5.045   1.916   4.552
 1496TIP3    H2 4495   5.155   1.918   4.656
 1497TIP3   OH2 4496   5.754   2.138   1.229
 1497TIP3    H1 4497   5.745   2.050   1.267
 1497TIP3    H2 4498   5.754   2.123   1.135
 1498TIP3   OH2 4499   2.175   4.112   0.606
 1498TIP3    H1 4500   2.220   4.044   0.657
 1498TIP3    H2 4501   2.083   4.099   0.627
 1499TIP3   OH2 4502   2.208   1.199   1.546
 1499TIP3    H1 4503   2.181   1.193   1.455
 1499TIP3    H2 4504   2.191   1.112   1.582
 1500TIP3   OH2 4505   1.224   4.959   0.321
 1500TIP3    H1 4506   1.241   4.965   0.227
 1500TIP3    H2 4507   1.199   4.868   0.336
 1501TIP3   OH2 4508   0.571   3.834   3.438
 1501TIP3    H1 4509   0.561   3.829   3.343
 1501TIP3    H2 4510   0.512   3.904   3.465
 1502TIP3   OH2 4511   5.603   4.768   3.008
 1502TIP3    H1 4512   5.536   4.752   3.075
 1502TIP3    H2 4513   5.555   4.762   2.925
 1503TIP3   OH2 4514   1.944   0.565   4.639
 1503TIP3    H1 4515   1.984   0.598   4.559
 1503TIP3    H2 4516   1.878   0.502   4.609
 1504TIP3   OH2 4517   0.196   3.186   1.273
 1504TIP3    H1 4518   0.183   3.280   1.262
 1504TIP3    H2 4519   0.268   3.165   1.213
 1505TIP3   OH2 4520   5.265   3.990   0.785
 1505TIP3    H1 4521   5.284   3.900   0.811
 1505TIP3    H2 4522   5.302   3.998   0.697
 1506TIP3   OH2 4523   2.144   4.014   3.673
 1506TIP3    H1 4524   2.128   4.109   3.671
 1506TIP3    H2 4525   2.158   3.991   3.581
 1507TIP3   OH2 4526   5.139   0.749   1.174
 1507TIP3    H1 4527   5.102   0.764   1.086
 1507TIP3    H2 4528   5.166   0.657   1.173
 1508TIP3   OH2 4529   1.489   3.000   1.460
 1508TIP3    H1 4530   1.538   2.937   1.513
 1508TIP3    H2 4531   1.556   3.044   1.407
 1509TIP3   OH2 4532   1.445   1.863   2.788
 1509TIP3    H1 4533   1.490   1.857   2.704
 1509TIP3    H2 4534   1.363   1.909   2.768
 1510TIP3   OH2 4535   6.139   4.637   2.003
 1510TIP3    H1 4536   6.080   4.632   2.079
 1510TIP3    H2 4537   6.129   4.553   1.959
 1511TIP3   OH2 4538   2.066   3.067   1.146
 1511TIP3    H1 4539   1.984   3.019   1.158
 1511TIP3    H2 4540   2.105   3.029   1.067
 1512TIP3   OH2 4541   2.281   2.405   0.088
 1512TIP3    H1 4542   2.321   2.469   0.146
 1512TIP3    H2 4543   2.333   2.326   0.099
 1513TIP3   OH2 4544   4.521   0.944   4.392
 1513TIP3    H1 4545   4.428   0.921   4.393
 1513TIP3    H2 4546   4.527   1.016   4.328
 1514TIP3   OH2 4547   0.622   3.388   1.775
 1514TIP3    H1 4548   0.589   3.465   1.729
 1514TIP3    H2 4549   0.592   3.399   1.865
 1515TIP3   OH2 4550   4.274   1.052   5.030
 1515TIP3    H1 4551   4.206   1.007   4.981
 1515TIP3    H2 4552   4.231   1.082   5.110
 1516TIP3   OH2 4553   0.881   2.355   0.306
 1516TIP3    H1 4554   0.860   2.294   0.235
 1516TIP3    H2 4555   0.896   2.298   0.382
 1517TIP3   OH2 4556   0.040   4.492   0.118
 1517TIP3    H1 4557   0.068   4.537   0.197
 1517TIP3    H2 4558   0.029   4.401   0.145
 1518TIP3   OH2 4559   0.804   2.458   2.495
 1518TIP3    H1 4560   0.776   2.430   2.582
 1518TIP3    H2 4561   0.730   2.440   2.438
 1519TIP3   OH2 4562   1.443   2.831   3.685
 1519TIP3    H1 4563   1.436   2.846   3.779
 1519TIP3    H2 4564   1.371   2.883   3.648
 1520TIP3   OH2 4565   1.951   2.563   0.704
 1520TIP3    H1 4566   1.977   2.619   0.631
 1520TIP3    H2 4567   1.859   2.581   0.717
 1521TIP3   OH2 4568   5.813   4.670   3.813
 1521TIP3    H1 4569   5.730   4.662   3.765
 1521TIP3    H2 4570   5.858   4.587   3.797
 1522TIP3   OH2 4571   5.298   5.154   1.937
 1522TIP3    H1 4572   5.249   5.075   1.960
 1522TIP3    H2 4573   5.231   5.221   1.926
 1523TIP3   OH2 4574   2.167   5.213   5.165
 1523TIP3    H1 4575   2.076   5.199   5.139
 1523TIP3    H2 4576   2.198   5.282   5.107
 1524TIP3   OH2 4577   5.085   4.087   2.851
 1524TIP3    H1 4578   5.124   4.128   2.774
 1524TIP3    H2 4579   5.122   4.135   2.925
 1525TIP3   OH2 4580   3.649   3.731   4.160
 1525TIP3    H1 4581   3.694   3.695   4.084
 1525TIP3    H2 4582   3.574   3.673   4.174
 1526TIP3   OH2 4583   1.367   2.476   3.194
 1526TIP3    H1 4584   1.314   2.447   3.269
 1526TIP3    H2 4585   1.304   2.516   3.135
 1527TIP3   OH2 4586   5.624   2.917   2.682
 1527TIP3    H1 4587   5.630   2.832   2.638
 1527TIP3    H2 4588   5.581   2.974   2.619
 1528TIP3   OH2 4589   1.931   4.060   0.905
 1528TIP3    H1 4590   1.911   4.077   0.997
 1528TIP3    H2 4591   1.979   4.137   0.875
 1529TIP3   OH2 4592   3.110   0.797   3.888
 1529TIP3    H1 4593   3.204   0.801   3.905
 1529TIP3    H2 4594   3.093   0.705   3.870
 1530TIP3   OH2 4595   1.078   5.925   3.355
 1530TIP3    H1 4596   1.107   5.936   3.445
 1530TIP3    H2 4597   1.021   5.848   3.357
 1531TIP3   OH2 4598   1.357   2.376   0.682
 1531TIP3    H1 4599   1.422   2.306   0.688
 1531TIP3    H2 4600   1.276   2.337   0.716
 1532TIP3   OH2 4601   1.636   4.939   0.598
 1532TIP3    H1 4602   1.672   4.983   0.675
 1532TIP3    H2 4603   1.558   4.991   0.575
 1533TIP3   OH2 4604   1.889   4.136   3.200
 1533TIP3    H1 4605   1.796   4.125   3.183
 1533TIP3    H2 4606   1.915   4.055   3.245
 1534TIP3   OH2 4607   1.470   3.569   3.857
 1534TIP3    H1 4608   1.421   3.487   3.859
 1534TIP3    H2 4609   1.435   3.619   3.931
 1535TIP3   OH2 4610   2.154   5.180   2.572
 1535TIP3    H1 4611   2.070   5.141   2.547
 1535TIP3    H2 4612   2.219   5.114   2.549
 1536TIP3   OH2 4613   1.141   3.212   1.079
 1536TIP3    H1 4614   1.235   3.207   1.098
 1536TIP3    H2 4615   1.133   3.279   1.012
 1537TIP3   OH2 4616   2.593   3.205   0.493
 1537TIP3    H1 4617   2.500   3.185   0.492
 1537TIP3    H2 4618   2.633   3.131   0.539
 1538TIP3   OH2 4619   4.063   0.354   4.568
 1538TIP3    H1 4620   4.152   0.371   4.597
 1538TIP3    H2 4621   4.057   0.258   4.564
 1539TIP3   OH2 4622   6.168   5.299   2.473
 1539TIP3    H1 4623   6.249   5.344   2.493
 1539TIP3    H2 4624   6.187   5.249   2.393
 1540TIP3   OH2 4625   5.212   3.076   4.348
 1540TIP3    H1 4626   5.296   3.035   4.367
 1540TIP3    H2 4627   5.210   3.155   4.402
 1541TIP3   OH2 4628   6.294   2.221   2.880
 1541TIP3    H1 4629   6.200   2.218   2.862
 1541TIP3    H2 4630   6.333   2.163   2.814
 1542TIP3   OH2 4631   3.435   1.428   1.963
 1542TIP3    H1 4632   3.363   1.396   2.018
 1542TIP3    H2 4633   3.393   1.453   1.881
 1543TIP3   OH2 4634   1.370   3.710   4.080
 1543TIP3    H1 4635   1.290   3.743   4.039
 1543TIP3    H2 4636   1.433   3.782   4.072
 1544TIP3   OH2 4637   3.172   5.868   3.120
 1544TIP3    H1 4638   3.244   5.815   3.086
 1544TIP3    H2 4639   3.102   5.857   3.055
 1545TIP3   OH2 4640   1.523   3.057   4.033
 1545TIP3    H1 4641   1.473   2.987   3.990
 1545TIP3    H2 4642   1.530   3.028   4.124
 1546TIP3   OH2 4643   1.459   3.874   0.150
 1546TIP3    H1 4644   1.462   3.827   0.067
 1546TIP3    H2 4645   1.390   3.939   0.138
 1547TIP3   OH2 4646   6.113   2.340   0.920
 1547TIP3    H1 4647   6.098   2.434   0.913
 1547TIP3    H2 4648   6.087   2.318   1.009
 1548TIP3   OH2 4649   1.774   3.882   3.723
 1548TIP3    H1 4650   1.803   3.935   3.798
 1548TIP3    H2 4651   1.770   3.944   3.650
 1549TIP3   OH2 4652   0.798   3.027   1.918
 1549TIP3    H1 4653   0.735   2.967   1.879
 1549TIP3    H2 4654   0.750   3.067   1.991
 1550TIP3   OH2 4655   2.550   3.177   4.732
 1550TIP3    H1 4656   2.531   3.216   4.646
 1550TIP3    H2 4657   2.465   3.151   4.766
 1551TIP3   OH2 4658   4.562   1.921   0.188
 1551TIP3    H1 4659   4.609   1.959   0.263
 1551TIP3    H2 4660   4.477   1.965   0.189
 1552TIP3   OH2 4661   5.148   3.538   3.397
 1552TIP3    H1 4662   5.158   3.496   3.482
 1552TIP3    H2 4663   5.178   3.471   3.334
 1553TIP3   OH2 4664   2.228   1.830   1.383
 1553TIP3    H1 4665   2.310   1.836   1.334
 1553TIP3    H2 4666   2.255   1.817   1.474
 1554TIP3   OH2 4667   5.012   2.458   2.418
 1554TIP3    H1 4668   4.962   2.454   2.500
 1554TIP3    H2 4669   4.981   2.383   2.368
 1555TIP3   OH2 4670   6.092   4.682   2.619
 1555TIP3    H1 4671   6.146   4.603   2.619
 1555TIP3    H2 4672   6.150   4.751   2.649
 1556TIP3   OH2 4673   2.365   0.654   1.176
 1556TIP3    H1 4674   2.373   0.720   1.107
 1556TIP3    H2 4675   2.290   0.601   1.150
 1557TIP3   OH2 4676   5.423   0.962   2.306
 1557TIP3    H1 4677   5.359   1.000   2.366
 1557TIP3    H2 4678   5.373   0.942   2.227
 1558TIP3   OH2 4679   4.906   5.663   1.367
 1558TIP3    H1 4680   4.815   5.668   1.396
 1558TIP3    H2 4681   4.914   5.732   1.301
 1559TIP3   OH2 4682   0.775   4.588   1.302
 1559TIP3    H1 4683   0.709   4.582   1.371
 1559TIP3    H2 4684   0.763   4.675   1.264
 1560TIP3   OH2 4685   3.420   0.278   2.317
 1560TIP3    H1 4686   3.433   0.201   2.262
 1560TIP3    H2 4687   3.326   0.279   2.336
 1561TIP3   OH2 4688   4.200   2.120   4.929
 1561TIP3    H1 4689   4.173   2.137   5.019
 1561TIP3    H2 4690   4.197   2.025   4.920
 1562TIP3   OH2 4691   1.550   4.497   0.770
 1562TIP3    H1 4692   1.597   4.415   0.787
 1562TIP3    H2 4693   1.548   4.504   0.674
 1563TIP3   OH2 4694   4.363   1.383   1.854
 1563TIP3    H1 4695   4.334   1.372   1.945
 1563TIP3    H2 4696   4.408   1.300   1.834
 1564TIP3   OH2 4697   2.392   2.592   0.328
 1564TIP3    H1 4698   2.454   2.648   0.375
 1564TIP3    H2 4699   2.349   2.542   0.398
 1565TIP3   OH2 4700   0.080   4.780   4.405
 1565TIP3    H1 4701   0.174   4.783   4.418
 1565TIP3    H2 4702   0.054   4.872   4.399
 1566TIP3   OH2 4703   1.712   1.450   1.566
 1566TIP3    H1 4704   1.652   1.375   1.573
 1566TIP3    H2 4705   1.730   1.475   1.656
 1567TIP3   OH2 4706   4.211   5.303   3.330
 1567TIP3    H1 4707   4.282   5.245   3.357
 1567TIP3    H2 4708   4.194   5.280   3.239
 1568TIP3   OH2 4709   2.005   0.307   1.200
 1568TIP3    H1 4710   1.924   0.312   1.252
 1568TIP3    H2 4711   2.032   0.215   1.207
 1569TIP3   OH2 4712   2.394   3.791   2.430
 1569TIP3    H1 4713   2.416   3.822   2.518
 1569TIP3    H2 4714   2.356   3.868   2.387
 1570TIP3   OH2 4715   0.225   5.729   3.838
 1570TIP3    H1 4716   0.256   5.641   3.819
 1570TIP3    H2 4717   0.208   5.729   3.932
 1571TIP3   OH2 4718   4.285   0.350   4.746
 1571TIP3    H1 4719   4.294   0.414   4.816
 1571TIP3    H2 4720   4.279   0.266   4.791
 1572TIP3   OH2 4721   5.624   0.580   3.176
 1572TIP3    H1 4722   5.680   0.503   3.166
 1572TIP3    H2 4723   5.568   0.559   3.251
 1573TIP3   OH2 4724   5.182   4.241   3.052
 1573TIP3    H1 4725   5.143   4.292   3.123
 1573TIP3    H2 4726   5.276   4.245   3.068
 1574TIP3   OH2 4727   1.241   2.493   3.751
 1574TIP3    H1 4728   1.245   2.552   3.827
 1574TIP3    H2 4729   1.329   2.457   3.744
 1575TIP3   OH2 4730   4.458   0.122   3.213
 1575TIP3    H1 4731   4.492   0.212   3.212
 1575TIP3    H2 4732   4.390   0.123   3.280
 1576TIP3   OH2 4733   1.350   2.850   3.944
 1576TIP3    H1 4734   1.287   2.921   3.952
 1576TIP3    H2 4735   1.298   2.770   3.957
 1577TIP3   OH2 4736   5.589   0.828   0.927
 1577TIP3    H1 4737   5.595   0.833   1.022
 1577TIP3    H2 4738   5.666   0.876   0.895
 1578TIP3   OH2 4739   4.097   2.092   1.678
 1578TIP3    H1 4740   4.152   2.081   1.601
 1578TIP3    H2 4741   4.149   2.149   1.736
 1579TIP3   OH2 4742   5.708   2.686   2.547
 1579TIP3    H1 4743   5.801   2.669   2.562
 1579TIP3    H2 4744   5.696   2.674   2.453
 1580TIP3   OH2 4745   2.863   0.424   0.622
 1580TIP3    H1 4746   2.915   0.456   0.549
 1580TIP3    H2 4747   2.837   0.503   0.670
 1581TIP3   OH2 4748   0.612   3.462   2.052
 1581TIP3    H1 4749   0.659   3.542   2.073
 1581TIP3    H2 4750   0.545   3.455   2.121
 1582TIP3   OH2 4751   1.253   5.558   4.101
 1582TIP3    H1 4752   1.332   5.609   4.121
 1582TIP3    H2 4753   1.273   5.514   4.019
 1583TIP3   OH2 4754   5.469   5.631   3.155
 1583TIP3    H1 4755   5.499   5.542   3.137
 1583TIP3    H2 4756   5.524   5.661   3.227
 1584TIP3   OH2 4757   1.053   4.850   0.651
 1584TIP3    H1 4758   0.979   4.841   0.591
 1584TIP3    H2 4759   1.032   4.791   0.723
 1585TIP3   OH2 4760   5.095   4.698   0.140
 1585TIP3    H1 4761   5.069   4.622   0.088
 1585TIP3    H2 4762   5.123   4.662   0.224
 1586TIP3   OH2 4763   2.869   3.614   0.167
 1586TIP3    H1 4764   2.950   3.579   0.130
 1586TIP3    H2 4765   2.810   3.622   0.093
 1587TIP3   OH2 4766   2.413   0.423   4.456
 1587TIP3    H1 4767   2.416   0.463   4.543
 1587TIP3    H2 4768   2.493   0.370   4.451
 1588TIP3   OH2 4769   0.992   2.288   3.605
 1588TIP3    H1 4770   0.967   2.238   3.527
 1588TIP3    H2 4771   1.010   2.221   3.671
 1589TIP3   OH2 4772   5.405   3.096   3.764
 1589TIP3    H1 4773   5.386   3.006   3.791
 1589TIP3    H2 4774   5.499   3.097   3.749
 1590TIP3   OH2 4775   5.708   1.044   0.809
 1590TIP3    H1 4776   5.686   1.074   0.721
 1590TIP3    H2 4777   5.690   1.120   0.866
 1591TIP3   OH2 4778   5.881   2.343   1.668
 1591TIP3    H1 4779   5.816   2.404   1.701
 1591TIP3    H2 4780   5.866   2.262   1.717
 1592TIP3   OH2 4781   4.352   4.313   1.225
 1592TIP3    H1 4782   4.448   4.317   1.225
 1592TIP3    H2 4783   4.332   4.229   1.184
 1593TIP3   OH2 4784   4.937   0.027   2.618
 1593TIP3    H1 4785   4.905  -0.063   2.611
 1593TIP3    H2 4786   4.945   0.042   2.713
 1594TIP3   OH2 4787   0.551   4.641   3.400
 1594TIP3    H1 4788   0.498   4.573   3.443
 1594TIP3    H2 4789   0.507   4.723   3.423
 1595TIP3   OH2 4790   2.483   3.502   3.089
 1595TIP3    H1 4791   2.534   3.580   3.110
 1595TIP3    H2 4792   2.534   3.457   3.021
 1596TIP3   OH2 4793   5.314   0.477   0.310
 1596TIP3    H1 4794   5.331   0.566   0.281
 1596TIP3    H2 4795   5.391   0.427   0.281
 1597TIP3   OH2 4796   4.620   5.795   1.033
 1597TIP3    H1 4797   4.624   5.863   0.965
 1597TIP3    H2 4798   4.669   5.722   0.996
 1598TIP3   OH2 4799   5.248   3.365   0.159
 1598TIP3    H1 4800   5.243   3.395   0.068
 1598TIP3    H2 4801   5.205   3.434   0.210
 1599TIP3   OH2 4802   5.760   2.103   0.281
 1599TIP3    H1 4803   5.848   2.140   0.286
 1599TIP3    H2 4804   5.710   2.166   0.229
 1600TIP3   OH2 4805   0.196   5.908   3.168
 1600TIP3    H1 4806   0.251   5.967   3.220
 1600TIP3    H2 4807   0.250   5.884   3.093
 1601TIP3   OH2 4808   2.814   5.821   3.809
 1601TIP3    H1 4809   2.843   5.877   3.737
 1601TIP3    H2 4810   2.751   5.761   3.769
 1602TIP3   OH2 4811   1.696   0.468   1.631
 1602TIP3    H1 4812   1.629   0.534   1.616
 1602TIP3    H2 4813   1.651   0.384   1.619
 1603TIP3   OH2 4814   0.048   3.832   4.332
 1603TIP3    H1 4815   0.143   3.839   4.337
 1603TIP3    H2 4816   0.027   3.759   4.391
 1604TIP3   OH2 4817   2.551   4.405   1.330
 1604TIP3    H1 4818   2.459   4.428   1.347
 1604TIP3    H2 4819   2.581   4.471   1.267
 1605TIP3   OH2 4820   5.963   1.350   4.694
 1605TIP3    H1 4821   5.903   1.275   4.694
 1605TIP3    H2 4822   5.906   1.426   4.704
 1606TIP3   OH2 4823   2.489   5.813   1.238
 1606TIP3    H1 4824   2.561   5.816   1.300
 1606TIP3    H2 4825   2.530   5.824   1.152
 1607TIP3   OH2 4826   2.781   3.152   5.106
 1607TIP3    H1 4827   2.716   3.087   5.133
 1607TIP3    H2 4828   2.854   3.101   5.072
 1608TIP3   OH2 4829   3.734   0.953   0.363
 1608TIP3    H1 4830   3.681   1.003   0.301
 1608TIP3    H2 4831   3.758   0.874   0.315
 1609TIP3   OH2 4832   4.670   1.415   5.045
 1609TIP3    H1 4833   4.685   1.351   5.114
 1609TIP3    H2 4834   4.616   1.369   4.981
 1610TIP3   OH2 4835   0.240   5.695   1.063
 1610TIP3    H1 4836   0.214   5.648   1.142
 1610TIP3    H2 4837   0.226   5.787   1.084
 1611TIP3   OH2 4838   0.072   5.826   1.722
 1611TIP3    H1 4839   0.017   5.749   1.710
 1611TIP3    H2 4840   0.011   5.899   1.723
 1612TIP3   OH2 4841   0.883   4.263   2.973
 1612TIP3    H1 4842   0.974   4.262   3.004
 1612TIP3    H2 4843   0.887   4.313   2.891
 1613TIP3   OH2 4844   2.117   4.194   2.834
 1613TIP3    H1 4845   2.077   4.208   2.748
 1613TIP3    H2 4846   2.045   4.170   2.891
 1614TIP3   OH2 4847   5.991   2.936   4.887
 1614TIP3    H1 4848   6.073   2.983   4.875
 1614TIP3    H2 4849   5.946   2.944   4.804
 1615TIP3   OH2 4850   3.640   3.711   5.011
 1615TIP3    H1 4851   3.642   3.806   5.022
 1615TIP3    H2 4852   3.732   3.685   5.004
 1616TIP3   OH2 4853   0.203   2.888   3.337
 1616TIP3    H1 4854   0.268   2.890   3.268
 1616TIP3    H2 4855   0.245   2.932   3.411
 1617TIP3   OH2 4856   1.020   1.380   4.178
 1617TIP3    H1 4857   1.108   1.362   4.211
 1617TIP3    H2 4858   0.973   1.297   4.188
 1618TIP3   OH2 4859   3.255   0.177   5.051
 1618TIP3    H1 4860   3.317   0.184   5.124
 1618TIP3    H2 4861   3.227   0.086   5.052
 1619TIP3   OH2 4862   4.890   3.845   2.007
 1619TIP3    H1 4863   4.911   3.882   1.922
 1619TIP3    H2 4864   4.965   3.790   2.029
 1620TIP3   OH2 4865   0.317   4.685   3.035
 1620TIP3    H1 4866   0.332   4.599   3.073
 1620TIP3    H2 4867   0.379   4.742   3.081
 1621TIP3   OH2 4868   0.397   5.837   0.589
 1621TIP3    H1 4869   0.313   5.863   0.550
 1621TIP3    H2 4870   0.463   5.883   0.536
 1622TIP3   OH2 4871   5.029   0.747   0.898
 1622TIP3    H1 4872   5.048   0.735   0.805
 1622TIP3    H2 4873   4.951   0.802   0.900
 1623TIP3   OH2 4874   4.909   2.714   4.080
 1623TIP3    H1 4875   4.977   2.707   4.146
 1623TIP3    H2 4876   4.953   2.752   4.004
 1624TIP3   OH2 4877   0.364   3.709   2.014
 1624TIP3    H1 4878   0.378   3.801   1.990
 1624TIP3    H2 4879   0.400   3.659   1.942
 1625TIP3   OH2 4880   1.117   1.558   2.103
 1625TIP3    H1 4881   1.047   1.617   2.132
 1625TIP3    H2 4882   1.183   1.617   2.066
 1626TIP3   OH2 4883   5.384   5.059   0.062
 1626TIP3    H1 4884   5.434   4.999   0.006
 1626TIP3    H2 4885   5.295   5.024   0.061
 1627TIP3   OH2 4886   0.552   1.495   3.936
 1627TIP3    H1 4887   0.479   1.509   3.876
 1627TIP3    H2 4888   0.575   1.583   3.966
 1628TIP3   OH2 4889   4.736   0.217   0.690
 1628TIP3    H1 4890   4.695   0.150   0.635
 1628TIP3    H2 4891   4.797   0.168   0.745
 1629TIP3   OH2 4892   4.543   5.007   1.755
 1629TIP3    H1 4893   4.617   5.036   1.700
 1629TIP3    H2 4894   4.577   5.012   1.844
 1630TIP3   OH2 4895   2.478   5.432   1.262
 1630TIP3    H1 4896   2.448   5.373   1.331
 1630TIP3    H2 4897   2.401   5.485   1.240
 1631TIP3   OH2 4898   4.196   5.849   2.894
 1631TIP3    H1 4899   4.217   5.867   2.803
 1631TIP3    H2 4900   4.100   5.843   2.896
 1632TIP3   OH2 4901   3.887   0.529   3.362
 1632TIP3    H1 4902   3.820   0.562   3.421
 1632TIP3    H2 4903   3.875   0.434   3.361
 1633TIP3   OH2 4904   0.368   0.075   3.035
 1633TIP3    H1 4905   0.437   0.139   3.049
 1633TIP3    H2 4906   0.364   0.027   3.118
 1634TIP3   OH2 4907   5.584   1.375   2.468
 1634TIP3    H1 4908   5.629   1.300   2.429
 1634TIP3    H2 4909   5.564   1.347   2.558
 1635TIP3   OH2 4910   3.915   5.595   4.094
 1635TIP3    H1 4911   3.834   5.595   4.144
 1635TIP3    H2 4912   3.976   5.647   4.146
 1636TIP3   OH2 4913   2.595   4.593   2.097
 1636TIP3    H1 4914   2.561   4.552   2.177
 1636TIP3    H2 4915   2.627   4.521   2.043
 1637TIP3   OH2 4916   2.190   0.858   3.928
 1637TIP3    H1 4917   2.256   0.809   3.880
 1637TIP3    H2 4918   2.240   0.910   3.991
 1638TIP3   OH2 4919   5.207   4.295   3.634
 1638TIP3    H1 4920   5.276   4.356   3.659
 1638TIP3    H2 4921   5.131   4.350   3.616
 1639TIP3   OH2 4922   3.893   2.844   2.740
 1639TIP3    H1 4923   3.935   2.773   2.790
 1639TIP3    H2 4924   3.815   2.865   2.791
 1640TIP3   OH2 4925   4.550   2.137   4.462
 1640TIP3    H1 4926   4.557   2.230   4.486
 1640TIP3    H2 4927   4.640   2.110   4.447
 1641TIP3   OH2 4928   1.536   4.678   1.681
 1641TIP3    H1 4929   1.444   4.652   1.683
 1641TIP3    H2 4930   1.563   4.679   1.773
 1642TIP3   OH2 4931   4.086   1.357   5.021
 1642TIP3    H1 4932   4.079   1.292   4.951
 1642TIP3    H2 4933   4.115   1.306   5.097
 1643TIP3   OH2 4934   2.411   4.626   0.064
 1643TIP3    H1 4935   2.407   4.693  -0.004
 1643TIP3    H2 4936   2.395   4.543   0.018
 1644TIP3   OH2 4937   3.224   4.587   2.175
 1644TIP3    H1 4938   3.173   4.581   2.094
 1644TIP3    H2 4939   3.175   4.647   2.231
 1645TIP3   OH2 4940   5.853   4.737   2.752
 1645TIP3    H1 4941   5.938   4.704   2.722
 1645TIP3    H2 4942   5.853   4.719   2.846
 1646TIP3   OH2 4943   5.967   3.429   1.137
 1646TIP3    H1 4944   5.874   3.407   1.128
 1646TIP3    H2 4945   5.995   3.384   1.217
 1647TIP3   OH2 4946   2.306   1.770   4.545
 1647TIP3    H1 4947   2.248   1.836   4.584
 1647TIP3    H2 4948   2.351   1.816   4.474
 1648TIP3   OH2 4949   2.145   2.679   4.747
 1648TIP3    H1 4950   2.156   2.609   4.682
 1648TIP3    H2 4951   2.136   2.633   4.831
 1649TIP3   OH2 4952   5.904   3.455   2.593
 1649TIP3    H1 4953   5.966   3.384   2.579
 1649TIP3    H2 4954   5.834   3.438   2.530
 1650TIP3   OH2 4955   3.327   2.604   1.109
 1650TIP3    H1 4956   3.315   2.669   1.178
 1650TIP3    H2 4957   3.354   2.654   1.033
 1651TIP3   OH2 4958   1.199   2.383   2.643
 1651TIP3    H1 4959   1.171   2.332   2.720
 1651TIP3    H2 4960   1.259   2.449   2.679
 1652TIP3   OH2 4961   2.838   5.641   0.083
 1652TIP3    H1 4962   2.825   5.733   0.062
 1652TIP3    H2 4963   2.750   5.603   0.083
 1653TIP3   OH2 4964   6.370   4.490   1.546
 1653TIP3    H1 4965   6.289   4.525   1.581
 1653TIP3    H2 4966   6.345   4.406   1.507
 1654TIP3   OH2 4967   0.362   4.511   4.856
 1654TIP3    H1 4968   0.338   4.599   4.887
 1654TIP3    H2 4969   0.428   4.527   4.788
 1655TIP3   OH2 4970   3.994   0.688   2.445
 1655TIP3    H1 4971   3.919   0.632   2.425
 1655TIP3    H2 4972   3.983   0.710   2.538
 1656TIP3   OH2 4973   4.638   3.975   4.944
 1656TIP3    H1 4974   4.611   4.057   4.903
 1656TIP3    H2 4975   4.683   3.927   4.874
 1657TIP3   OH2 4976   4.062   0.146   2.053
 1657TIP3    H1 4977   4.001   0.138   2.127
 1657TIP3    H2 4978   4.143   0.177   2.092
 1658TIP3   OH2 4979   4.308   4.231   3.104
 1658TIP3    H1 4980   4.397   4.232   3.068
 1658TIP3    H2 4981   4.282   4.139   3.099
 1659TIP3   OH2 4982   3.792   4.407   1.281
 1659TIP3    H1 4983   3.830   4.323   1.256
 1659TIP3    H2 4984   3.865   4.469   1.274
 1660TIP3   OH2 4985   3.535   4.882   0.863
 1660TIP3    H1 4986   3.580   4.966   0.871
 1660TIP3    H2 4987   3.550   4.838   0.947
 1661TIP3   OH2 4988   1.367   1.314   2.093
 1661TIP3    H1 4989   1.357   1.302   1.998
 1661TIP3    H2 4990   1.301   1.258   2.131
 1662TIP3   OH2 4991   1.703   2.180   4.344
 1662TIP3    H1 4992   1.732   2.215   4.260
 1662TIP3    H2 4993   1.692   2.086   4.328
 1663TIP3   OH2 4994   0.958   5.079   1.290
 1663TIP3    H1 4995   0.932   5.131   1.366
 1663TIP3    H2 4996   0.884   5.020   1.275
 1664TIP3   OH2 4997   2.247   5.076   3.232
 1664TIP3    H1 4998   2.342   5.063   3.228
 1664TIP3    H2 4999   2.232   5.118   3.317
 1665TIP3   OH2 5000   1.830   4.607   1.505
 1665TIP3    H1 5001   1.818   4.620   1.599
 1665TIP3    H2 5002   1.775   4.674   1.465
 1666TIP3   OH2 5003   5.368   2.505   2.261
 1666TIP3    H1 5004   5.302   2.574   2.261
 1666TIP3    H2 5005   5.318   2.424   2.253
 1667TIP3   OH2 5006   5.711   3.776   3.528
 1667TIP3    H1 5007   5.705   3.768   3.432
 1667TIP3    H2 5008   5.798   3.813   3.543
 1668TIP3   OH2 5009   3.410   0.638   0.897
 1668TIP3    H1 5010   3.401   0.691   0.818
 1668TIP3    H2 5011   3.353   0.563   0.881
 1669TIP3   OH2 5012   3.070   0.418   5.076
 1669TIP3    H1 5013   3.029   0.484   5.020
 1669TIP3    H2 5014   3.074   0.339   5.022
 1670TIP3   OH2 5015   1.153   1.099   3.779
 1670TIP3    H1 5016   1.134   1.054   3.696
 1670TIP3    H2 5017   1.201   1.035   3.831
 1671TIP3   OH2 5018   1.980   4.295   3.795
 1671TIP3    H1 5019   2.050   4.355   3.823
 1671TIP3    H2 5020   1.991   4.289   3.700
 1672TIP3   OH2 5021   1.217   3.055   4.565
 1672TIP3    H1 5022   1.184   3.047   4.655
 1672TIP3    H2 5023   1.301   3.009   4.565
 1673TIP3   OH2 5024   1.149   3.350   4.933
 1673TIP3    H1 5025   1.089   3.344   4.858
 1673TIP3    H2 5026   1.225   3.298   4.906
 1674TIP3   OH2 5027   3.335   5.566   4.930
 1674TIP3    H1 5028   3.360   5.503   4.862
 1674TIP3    H2 5029   3.240   5.572   4.924
 1675TIP3   OH2 5030   6.219   0.364   4.766
 1675TIP3    H1 5031   6.178   0.279   4.749
 1675TIP3    H2 5032   6.278   0.348   4.839
 1676TIP3   OH2 5033   1.786   3.909   1.176
 1676TIP3    H1 5034   1.764   3.818   1.153
 1676TIP3    H2 5035   1.792   3.909   1.271
 1677TIP3   OH2 5036   4.806   3.714   3.825
 1677TIP3    H1 5037   4.745   3.695   3.896
 1677TIP3    H2 5038   4.857   3.634   3.815
 1678TIP3   OH2 5039   3.418   4.362   2.582
 1678TIP3    H1 5040   3.499   4.312   2.593
 1678TIP3    H2 5041   3.353   4.297   2.555
 1679TIP3   OH2 5042   4.544   0.906   0.633
 1679TIP3    H1 5043   4.549   0.900   0.729
 1679TIP3    H2 5044   4.557   1.000   0.615
 1680TIP3   OH2 5045   5.106   3.593   1.103
 1680TIP3    H1 5046   5.095   3.506   1.141
 1680TIP3    H2 5047   5.098   3.653   1.177
 1681TIP3   OH2 5048   2.423   5.651   1.573
 1681TIP3    H1 5049   2.373   5.590   1.627
 1681TIP3    H2 5050   2.468   5.596   1.509
 1682TIP3   OH2 5051   5.524   3.105   0.113
 1682TIP3    H1 5052   5.535   3.193   0.076
 1682TIP3    H2 5053   5.504   3.119   0.205
 1683TIP3   OH2 5054   1.309   2.276   1.571
 1683TIP3    H1 5055   1.235   2.329   1.602
 1683TIP3    H2 5056   1.332   2.315   1.487
 1684TIP3   OH2 5057   3.461   3.391   0.089
 1684TIP3    H1 5058   3.438   3.355   0.004
 1684TIP3    H2 5059   3.378   3.421   0.127
 1685TIP3   OH2 5060   6.142   5.921   2.974
 1685TIP3    H1 5061   6.047   5.911   2.979
 1685TIP3    H2 5062   6.173   5.843   2.928
 1686TIP3   OH2 5063   2.755   3.816   0.543
 1686TIP3    H1 5064   2.756   3.730   0.501
 1686TIP3    H2 5065   2.831   3.816   0.601
 1687TIP3   OH2 5066   2.328   4.488   1.067
 1687TIP3    H1 5067   2.279   4.524   1.141
 1687TIP3    H2 5068   2.402   4.549   1.055
 1688TIP3   OH2 5069   0.024   5.439   2.612
 1688TIP3    H1 5070   0.095   5.398   2.562
 1688TIP3    H2 5071   0.068   5.507   2.664
 1689TIP3   OH2 5072   5.836   1.316   1.869
 1689TIP3    H1 5073   5.876   1.237   1.833
 1689TIP3    H2 5074   5.854   1.311   1.963
 1690TIP3   OH2 5075   5.718   1.031   4.542
 1690TIP3    H1 5076   5.793   0.978   4.569
 1690TIP3    H2 5077   5.662   0.969   4.493
 1691TIP3   OH2 5078   2.505   2.645   4.796
 1691TIP3    H1 5079   2.450   2.595   4.736
 1691TIP3    H2 5080   2.547   2.578   4.850
 1692TIP3   OH2 5081   3.031   4.892   0.307
 1692TIP3    H1 5082   3.119   4.871   0.274
 1692TIP3    H2 5083   2.982   4.811   0.299
 1693TIP3   OH2 5084   2.412   4.785   2.794
 1693TIP3    H1 5085   2.374   4.836   2.865
 1693TIP3    H2 5086   2.457   4.849   2.739
 1694TIP3   OH2 5087   4.258   3.964   2.298
 1694TIP3    H1 5088   4.299   3.877   2.305
 1694TIP3    H2 5089   4.288   3.997   2.213
 1695TIP3   OH2 5090   4.758   1.552   2.191
 1695TIP3    H1 5091   4.695   1.548   2.118
 1695TIP3    H2 5092   4.796   1.465   2.195
 1696TIP3   OH2 5093   3.735   2.671   2.568
 1696TIP3    H1 5094   3.673   2.662   2.640
 1696TIP3    H2 5095   3.797   2.737   2.598
 1697TIP3   OH2 5096   1.854   1.994   2.521
 1697TIP3    H1 5097   1.843   1.953   2.607
 1697TIP3    H2 5098   1.798   2.071   2.524
 1698TIP3   OH2 5099   3.793   3.524   3.709
 1698TIP3    H1 5100   3.718   3.550   3.654
 1698TIP3    H2 5101   3.859   3.591   3.691
 1699TIP3   OH2 5102   0.174   4.199   2.068
 1699TIP3    H1 5103   0.108   4.215   2.136
 1699TIP3    H2 5104   0.226   4.279   2.065
 1700TIP3   OH2 5105   3.099   0.537   3.879
 1700TIP3    H1 5106   3.008   0.525   3.855
 1700TIP3    H2 5107   3.148   0.495   3.809
 1701TIP3   OH2 5108   2.548   4.511   3.936
 1701TIP3    H1 5109   2.640   4.488   3.945
 1701TIP3    H2 5110   2.504   4.429   3.914
 1702TIP3   OH2 5111   3.868   4.714   3.382
 1702TIP3    H1 5112   3.789   4.723   3.328
 1702TIP3    H2 5113   3.870   4.793   3.435
 1703TIP3   OH2 5114   5.686   2.479   5.013
 1703TIP3    H1 5115   5.651   2.411   4.955
 1703TIP3    H2 5116   5.610   2.531   5.038
 1704TIP3   OH2 5117   6.156   3.037   4.340
 1704TIP3    H1 5118   6.171   3.116   4.289
 1704TIP3    H2 5119   6.234   3.027   4.394
 1705TIP3   OH2 5120   0.203   2.683   2.526
 1705TIP3    H1 5121   0.186   2.596   2.563
 1705TIP3    H2 5122   0.137   2.739   2.567
 1706TIP3   OH2 5123   5.121   5.069   3.243
 1706TIP3    H1 5124   5.120   5.077   3.338
 1706TIP3    H2 5125   5.037   5.029   3.221
 1707TIP3   OH2 5126   6.163   3.775   0.187
 1707TIP3    H1 5127   6.107   3.699   0.170
 1707TIP3    H2 5128   6.110   3.850   0.161
 1708TIP3   OH2 5129   6.080   1.221   1.313
 1708TIP3    H1 5130   6.004   1.238   1.369
 1708TIP3    H2 5131   6.044   1.170   1.240
 1709TIP3   OH2 5132   0.619   4.548   0.712
 1709TIP3    H1 5133   0.560   4.542   0.787
 1709TIP3    H2 5134   0.700   4.505   0.741
 1710TIP3   OH2 5135   1.366   1.619   2.367
 1710TIP3    H1 5136   1.421   1.553   2.326
 1710TIP3    H2 5137   1.278   1.582   2.365
 1711TIP3   OH2 5138   1.987   0.679   3.676
 1711TIP3    H1 5139   1.920   0.738   3.711
 1711TIP3    H2 5140   1.992   0.701   3.583
 1712TIP3   OH2 5141   1.799   2.788   4.630
 1712TIP3    H1 5142   1.821   2.759   4.718
 1712TIP3    H2 5143   1.877   2.768   4.578
 1713TIP3   OH2 5144   3.462   4.563   1.837
 1713TIP3    H1 5145   3.486   4.632   1.899
 1713TIP3    H2 5146   3.545   4.522   1.814
 1714TIP3   OH2 5147   4.585   0.348   3.174
 1714TIP3    H1 5148   4.597   0.437   3.208
 1714TIP3    H2 5149   4.670   0.326   3.135
 1715TIP3   OH2 5150   2.809   0.079   3.330
 1715TIP3    H1 5151   2.827   0.095   3.238
 1715TIP3    H2 5152   2.858  -0.001   3.351
 1716TIP3   OH2 5153   5.452   0.371   4.857
 1716TIP3    H1 5154   5.387   0.432   4.821
 1716TIP3    H2 5155   5.402   0.294   4.882
 1717TIP3   OH2 5156   1.219   5.611   1.299
 1717TIP3    H1 5157   1.142   5.605   1.356
 1717TIP3    H2 5158   1.196   5.679   1.236
 1718TIP3   OH2 5159   2.485   0.159   0.949
 1718TIP3    H1 5160   2.522   0.139   0.863
 1718TIP3    H2 5161   2.490   0.254   0.955
 1719TIP3   OH2 5162   4.517   1.313   0.869
 1719TIP3    H1 5163   4.558   1.318   0.783
 1719TIP3    H2 5164   4.423   1.319   0.852
 1720TIP3   OH2 5165   2.971   5.364   2.999
 1720TIP3    H1 5166   2.952   5.291   2.941
 1720TIP3    H2 5167   2.997   5.435   2.941
 1721TIP3   OH2 5168   5.948   4.359   1.509
 1721TIP3    H1 5169   5.933   4.336   1.418
 1721TIP3    H2 5170   6.011   4.294   1.541
 1722TIP3   OH2 5171   4.414   2.454   0.096
 1722TIP3    H1 5172   4.400   2.413   0.181
 1722TIP3    H2 5173   4.342   2.516   0.087
 1723TIP3   OH2 5174   0.222   1.233   0.194
 1723TIP3    H1 5175   0.300   1.209   0.245
 1723TIP3    H2 5176   0.240   1.322   0.163
 1724TIP3   OH2 5177   3.812   1.693   0.995
 1724TIP3    H1 5178   3.864   1.651   0.926
 1724TIP3    H2 5179   3.803   1.625   1.062
 1725TIP3   OH2 5180   1.417   2.939   2.820
 1725TIP3    H1 5181   1.362   2.920   2.745
 1725TIP3    H2 5182   1.422   3.034   2.823
 1726TIP3   OH2 5183   4.370   0.565   0.984
 1726TIP3    H1 5184   4.293   0.568   1.041
 1726TIP3    H2 5185   4.444   0.581   1.043
 1727TIP3   OH2 5186   1.777   0.942   1.037
 1727TIP3    H1 5187   1.835   0.866   1.026
 1727TIP3    H2 5188   1.721   0.941   0.959
 1728TIP3   OH2 5189   4.300   1.952   0.256
 1728TIP3    H1 5190   4.332   1.904   0.332
 1728TIP3    H2 5191   4.206   1.932   0.253
 1729TIP3   OH2 5192   4.308   3.951   1.503
 1729TIP3    H1 5193   4.391   3.990   1.477
 1729TIP3    H2 5194   4.327   3.909   1.587
 1730TIP3   OH2 5195   1.718   3.057   1.643
 1730TIP3    H1 5196   1.798   3.082   1.688
 1730TIP3    H2 5197   1.748   3.020   1.560
 1731TIP3   OH2 5198   1.073   1.352   3.844
 1731TIP3    H1 5199   1.007   1.353   3.914
 1731TIP3    H2 5200   1.102   1.261   3.839
 1732TIP3   OH2 5201   0.552   3.137   0.885
 1732TIP3    H1 5202   0.523   3.206   0.825
 1732TIP3    H2 5203   0.638   3.111   0.851
 1733TIP3   OH2 5204   0.927   5.533   1.120
 1733TIP3    H1 5205   0.913   5.581   1.039
 1733TIP3    H2 5206   0.866   5.460   1.116
 1734TIP3   OH2 5207   1.890   2.410   3.555
 1734TIP3    H1 5208   1.871   2.427   3.463
 1734TIP3    H2 5209   1.883   2.495   3.597
 1735TIP3   OH2 5210   1.487   4.627   3.027
 1735TIP3    H1 5211   1.468   4.546   3.074
 1735TIP3    H2 5212   1.431   4.692   3.069
 1736TIP3   OH2 5213   0.145   3.373   5.024
 1736TIP3    H1 5214   0.126   3.444   4.963
 1736TIP3    H2 5215   0.163   3.297   4.968
 1737TIP3   OH2 5216   1.687   0.915   4.458
 1737TIP3    H1 5217   1.716   0.867   4.536
 1737TIP3    H2 5218   1.629   0.982   4.492
 1738TIP3   OH2 5219   4.307   4.256   1.558
 1738TIP3    H1 5220   4.305   4.161   1.554
 1738TIP3    H2 5221   4.231   4.284   1.507
 1739TIP3   OH2 5222   0.784   3.816   0.217
 1739TIP3    H1 5223   0.837   3.866   0.155
 1739TIP3    H2 5224   0.740   3.750   0.163
 1740TIP3   OH2 5225   3.878   2.138   0.227
 1740TIP3    H1 5226   3.937   2.213   0.232
 1740TIP3    H2 5227   3.893   2.090   0.309
 1741TIP3   OH2 5228   3.729   5.819   1.944
 1741TIP3    H1 5229   3.641   5.793   1.919
 1741TIP3    H2 5230   3.727   5.915   1.947
 1742TIP3   OH2 5231   1.903   0.106   3.366
 1742TIP3    H1 5232   1.939   0.026   3.326
 1742TIP3    H2 5233   1.838   0.137   3.303
 1743TIP3   OH2 5234   1.268   0.447   3.781
 1743TIP3    H1 5235   1.287   0.370   3.835
 1743TIP3    H2 5236   1.350   0.496   3.779
 1744TIP3   OH2 5237   5.875   0.436   2.570
 1744TIP3    H1 5238   5.889   0.435   2.476
 1744TIP3    H2 5239   5.795   0.385   2.583
 1745TIP3   OH2 5240   2.832   4.313   0.154
 1745TIP3    H1 5241   2.905   4.360   0.194
 1745TIP3    H2 5242   2.775   4.382   0.121
 1746TIP3   OH2 5243   4.531   5.186   4.672
 1746TIP3    H1 5244   4.581   5.147   4.600
 1746TIP3    H2 5245   4.497   5.111   4.722
 1747TIP3   OH2 5246   0.761   2.126   3.862
 1747TIP3    H1 5247   0.754   2.035   3.834
 1747TIP3    H2 5248   0.672   2.161   3.852
 1748TIP3   OH2 5249   5.403   5.620   4.432
 1748TIP3    H1 5250   5.317   5.622   4.474
 1748TIP3    H2 5251   5.403   5.538   4.382
 1749TIP3   OH2 5252   2.002   5.227   4.775
 1749TIP3    H1 5253   2.032   5.239   4.685
 1749TIP3    H2 5254   2.069   5.172   4.816
 1750TIP3   OH2 5255   1.100   3.629   1.986
 1750TIP3    H1 5256   1.026   3.606   1.930
 1750TIP3    H2 5257   1.075   3.600   2.073
 1751TIP3   OH2 5258   0.654   0.916   1.917
 1751TIP3    H1 5259   0.632   0.824   1.926
 1751TIP3    H2 5260   0.631   0.954   2.002
 1752TIP3   OH2 5261   6.024   5.991   2.543
 1752TIP3    H1 5262   6.004   5.902   2.513
 1752TIP3    H2 5263   5.969   6.003   2.620
 1753TIP3   OH2 5264   2.542   3.327   0.809
 1753TIP3    H1 5265   2.606   3.260   0.787
 1753TIP3    H2 5266   2.593   3.405   0.828
 1754TIP3   OH2 5267   2.567   5.964   3.312
 1754TIP3    H1 5268   2.490   5.989   3.260
 1754TIP3    H2 5269   2.532   5.946   3.399
 1755TIP3   OH2 5270   0.500   3.801   4.975
 1755TIP3    H1 5271   0.477   3.894   4.970
 1755TIP3    H2 5272   0.472   3.774   5.062
 1756TIP3   OH2 5273   2.923   0.948   2.903
 1756TIP3    H1 5274   2.887   1.014   2.962
 1756TIP3    H2 5275   2.916   0.866   2.953
 1757TIP3   OH2 5276   5.723   2.602   3.096
 1757TIP3    H1 5277   5.699   2.563   3.012
 1757TIP3    H2 5278   5.736   2.527   3.154
 1758TIP3   OH2 5279   6.184   4.005   3.147
 1758TIP3    H1 5280   6.141   3.946   3.208
 1758TIP3    H2 5281   6.190   3.956   3.065
 1759TIP3   OH2 5282   5.554   5.250   4.276
 1759TIP3    H1 5283   5.570   5.220   4.366
 1759TIP3    H2 5284   5.636   5.234   4.230
 1760TIP3   OH2 5285   0.249   5.609   3.243
 1760TIP3    H1 5286   0.225   5.681   3.301
 1760TIP3    H2 5287   0.242   5.530   3.297
 1761TIP3   OH2 5288   5.204   0.104   0.479
 1761TIP3    H1 5289   5.242   0.035   0.533
 1761TIP3    H2 5290   5.220   0.184   0.528
 1762TIP3   OH2 5291   1.857   5.549   3.198
 1762TIP3    H1 5292   1.793   5.479   3.185
 1762TIP3    H2 5293   1.861   5.594   3.113
 1763TIP3   OH2 5294   1.060   5.968   4.237
 1763TIP3    H1 5295   1.147   5.999   4.212
 1763TIP3    H2 5296   1.043   6.007   4.322
 1764TIP3   OH2 5297   5.254   4.012   1.201
 1764TIP3    H1 5298   5.322   3.968   1.150
 1764TIP3    H2 5299   5.190   3.943   1.220
 1765TIP3   OH2 5300   4.519   5.152   0.684
 1765TIP3    H1 5301   4.461   5.125   0.613
 1765TIP3    H2 5302   4.574   5.076   0.701
 1766TIP3   OH2 5303   2.244   4.275   1.449
 1766TIP3    H1 5304   2.204   4.344   1.502
 1766TIP3    H2 5305   2.187   4.268   1.373
 1767TIP3   OH2 5306   2.541   3.045   3.311
 1767TIP3    H1 5307   2.488   2.984   3.363
 1767TIP3    H2 5308   2.577   2.992   3.240
 1768TIP3   OH2 5309   3.322   4.788   4.287
 1768TIP3    H1 5310   3.327   4.722   4.357
 1768TIP3    H2 5311   3.408   4.783   4.244
 1769TIP3   OH2 5312   2.869   2.602   2.994
 1769TIP3    H1 5313   2.792   2.647   2.961
 1769TIP3    H2 5314   2.891   2.648   3.075
 1770TIP3   OH2 5315   3.151   1.699   3.566
 1770TIP3    H1 5316   3.246   1.691   3.558
 1770TIP3    H2 5317   3.122   1.733   3.481
 1771TIP3   OH2 5318   5.223   5.672   0.385
 1771TIP3    H1 5319   5.259   5.620   0.457
 1771TIP3    H2 5320   5.130   5.650   0.384
 1772TIP3   OH2 5321   3.655   5.952   1.479
 1772TIP3    H1 5322   3.703   5.912   1.552
 1772TIP3    H2 5323   3.654   5.884   1.412
 1773TIP3   OH2 5324   0.300   4.547   2.780
 1773TIP3    H1 5325   0.393   4.545   2.755
 1773TIP3    H2 5326   0.299   4.584   2.868
 1774TIP3   OH2 5327   4.719   1.789   3.556
 1774TIP3    H1 5328   4.798   1.778   3.609
 1774TIP3    H2 5329   4.750   1.832   3.476
 1775TIP3   OH2 5330   5.948   2.865   4.283
 1775TIP3    H1 5331   6.014   2.930   4.307
 1775TIP3    H2 5332   5.943   2.870   4.187
 1776TIP3   OH2 5333   3.851   4.409   0.211
 1776TIP3    H1 5334   3.913   4.343   0.243
 1776TIP3    H2 5335   3.790   4.360   0.155
 1777TIP3   OH2 5336   0.888   5.571   0.585
 1777TIP3    H1 5337   0.795   5.558   0.603
 1777TIP3    H2 5338   0.920   5.484   0.562
 1778TIP3   OH2 5339   5.030   4.792   1.349
 1778TIP3    H1 5340   5.087   4.856   1.307
 1778TIP3    H2 5341   5.048   4.800   1.442
 1779TIP3   OH2 5342   2.090   2.872   1.891
 1779TIP3    H1 5343   2.175   2.842   1.858
 1779TIP3    H2 5344   2.083   2.834   1.978
 1780TIP3   OH2 5345   2.801   0.872   0.566
 1780TIP3    H1 5346   2.874   0.812   0.581
 1780TIP3    H2 5347   2.840   0.945   0.518
 1781TIP3   OH2 5348   5.278   2.745   1.264
 1781TIP3    H1 5349   5.248   2.702   1.344
 1781TIP3    H2 5350   5.324   2.823   1.294
 1782TIP3   OH2 5351   4.604   3.633   4.716
 1782TIP3    H1 5352   4.637   3.550   4.681
 1782TIP3    H2 5353   4.678   3.694   4.707
 1783TIP3   OH2 5354   4.423   0.262   0.908
 1783TIP3    H1 5355   4.383   0.334   0.957
 1783TIP3    H2 5356   4.350   0.204   0.887
 1784TIP3   OH2 5357   0.862   2.719   2.845
 1784TIP3    H1 5358   0.880   2.811   2.867
 1784TIP3    H2 5359   0.916   2.703   2.767
 1785TIP3   OH2 5360   5.065   0.415   0.851
 1785TIP3    H1 5361   5.054   0.392   0.759
 1785TIP3    H2 5362   5.043   0.509   0.855
 1786TIP3   OH2 5363   2.141   0.880   4.994
 1786TIP3    H1 5364   2.143   0.810   5.059
 1786TIP3    H2 5365   2.203   0.945   5.028
 1787TIP3   OH2 5366   2.650   5.749   4.192
 1787TIP3    H1 5367   2.667   5.656   4.172
 1787TIP3    H2 5368   2.727   5.777   4.242
 1788TIP3   OH2 5369   5.435   3.861   3.451
 1788TIP3    H1 5370   5.434   3.949   3.414
 1788TIP3    H2 5371   5.514   3.858   3.504
 1789TIP3   OH2 5372   3.192   5.667   2.407
 1789TIP3    H1 5373   3.286   5.656   2.390
 1789TIP3    H2 5374   3.180   5.632   2.495
 1790TIP3   OH2 5375   0.543   3.072   1.677
 1790TIP3    H1 5376   0.632   3.100   1.656
 1790TIP3    H2 5377   0.555   2.992   1.728
 1791TIP3   OH2 5378   0.057   1.902   4.357
 1791TIP3    H1 5379   0.050   1.905   4.261
 1791TIP3    H2 5380  -0.027   1.936   4.388
 1792TIP3   OH2 5381   4.623   4.976   1.231
 1792TIP3    H1 5382   4.628   5.071   1.227
 1792TIP3    H2 5383   4.654   4.946   1.145
 1793TIP3   OH2 5384   2.658   5.038   3.618
 1793TIP3    H1 5385   2.736   5.007   3.571
 1793TIP3    H2 5386   2.585   4.996   3.572
 1794TIP3   OH2 5387   4.386   5.234   3.062
 1794TIP3    H1 5388   4.476   5.204   3.048
 1794TIP3    H2 5389   4.332   5.157   3.044
 1795TIP3   OH2 5390   3.303   1.071   2.577
 1795TIP3    H1 5391   3.303   1.164   2.554
 1795TIP3    H2 5392   3.305   1.069   2.673
 1796TIP3   OH2 5393   3.259   4.304   2.265
 1796TIP3    H1 5394   3.351   4.332   2.262
 1796TIP3    H2 5395   3.213   4.377   2.306
 1797TIP3   OH2 5396   0.953   2.680   2.053
 1797TIP3    H1 5397   1.047   2.665   2.060
 1797TIP3    H2 5398   0.913   2.599   2.085
 1798TIP3   OH2 5399   0.940   0.498   4.669
 1798TIP3    H1 5400   1.004   0.569   4.668
 1798TIP3    H2 5401   0.973   0.436   4.604
 1799TIP3   OH2 5402   5.033   3.716   0.097
 1799TIP3    H1 5403   5.033   3.773   0.174
 1799TIP3    H2 5404   5.104   3.751   0.042
 1800TIP3   OH2 5405   2.938   3.294   1.956
 1800TIP3    H1 5406   2.974   3.232   1.891
 1800TIP3    H2 5407   2.851   3.259   1.976
 1801TIP3   OH2 5408   3.341   5.338   4.706
 1801TIP3    H1 5409   3.257   5.294   4.715
 1801TIP3    H2 5410   3.398   5.297   4.771
 1802TIP3   OH2 5411   0.200   0.025   2.325
 1802TIP3    H1 5412   0.268   0.080   2.364
 1802TIP3    H2 5413   0.189  -0.047   2.388
 1803TIP3   OH2 5414   0.345   0.930   4.116
 1803TIP3    H1 5415   0.403   1.004   4.099
 1803TIP3    H2 5416   0.262   0.969   4.143
 1804TIP3   OH2 5417   4.645   1.383   3.964
 1804TIP3    H1 5418   4.678   1.390   4.054
 1804TIP3    H2 5419   4.631   1.473   3.937
 1805TIP3   OH2 5420   5.182   4.274   4.143
 1805TIP3    H1 5421   5.130   4.244   4.069
 1805TIP3    H2 5422   5.151   4.363   4.159
 1806TIP3   OH2 5423   0.234   3.103   3.795
 1806TIP3    H1 5424   0.149   3.114   3.752
 1806TIP3    H2 5425   0.212   3.063   3.880
 1807TIP3   OH2 5426   3.962   2.039   4.564
 1807TIP3    H1 5427   4.051   2.065   4.587
 1807TIP3    H2 5428   3.967   2.021   4.470
 1808TIP3   OH2 5429   4.372   2.928   5.068
 1808TIP3    H1 5430   4.404   2.893   5.152
 1808TIP3    H2 5431   4.360   2.851   5.013
 1809TIP3   OH2 5432   1.836   2.057   4.552
 1809TIP3    H1 5433   1.798   2.136   4.512
 1809TIP3    H2 5434   1.905   2.030   4.492
 1810TIP3   OH2 5435   1.901   1.161   0.168
 1810TIP3    H1 5436   1.963   1.226   0.203
 1810TIP3    H2 5437   1.830   1.159   0.233
 1811TIP3   OH2 5438   6.024   0.964   3.095
 1811TIP3    H1 5439   6.063   1.026   3.033
 1811TIP3    H2 5440   6.081   0.887   3.092
 1812TIP3   OH2 5441   4.356   3.094   3.423
 1812TIP3    H1 5442   4.364   3.068   3.331
 1812TIP3    H2 5443   4.262   3.098   3.438
 1813TIP3   OH2 5444   0.566   3.399   1.175
 1813TIP3    H1 5445   0.492   3.438   1.222
 1813TIP3    H2 5446   0.540   3.309   1.158
 1814TIP3   OH2 5447   3.478   2.734   0.325
 1814TIP3    H1 5448   3.471   2.638   0.318
 1814TIP3    H2 5449   3.535   2.758   0.252
 1815TIP3   OH2 5450   4.471   0.955   4.826
 1815TIP3    H1 5451   4.427   0.987   4.905
 1815TIP3    H2 5452   4.564   0.963   4.846
 1816TIP3   OH2 5453   5.989   0.983   2.035
 1816TIP3    H1 5454   5.965   0.939   2.116
 1816TIP3    H2 5455   6.084   0.993   2.041
 1817TIP3   OH2 5456   2.849   2.171   3.152
 1817TIP3    H1 5457   2.926   2.227   3.167
 1817TIP3    H2 5458   2.828   2.136   3.239
 1818TIP3   OH2 5459   3.911   5.423   1.211
 1818TIP3    H1 5460   3.964   5.349   1.183
 1818TIP3    H2 5461   3.868   5.393   1.291
 1819TIP3   OH2 5462   3.016   2.438   2.594
 1819TIP3    H1 5463   3.105   2.441   2.559
 1819TIP3    H2 5464   3.004   2.523   2.636
 1820TIP3   OH2 5465   3.704   0.692   1.004
 1820TIP3    H1 5466   3.770   0.632   0.968
 1820TIP3    H2 5467   3.635   0.695   0.938
 1821TIP3   OH2 5468   5.537   5.087   5.094
 1821TIP3    H1 5469   5.451   5.084   5.136
 1821TIP3    H2 5470   5.564   4.995   5.088
 1822TIP3   OH2 5471   2.913   0.489   1.134
 1822TIP3    H1 5472   2.823   0.499   1.105
 1822TIP3    H2 5473   2.941   0.578   1.157
 1823TIP3   OH2 5474   3.178   3.334   3.808
 1823TIP3    H1 5475   3.148   3.391   3.737
 1823TIP3    H2 5476   3.246   3.384   3.853
 1824TIP3   OH2 5477   5.701   1.894   1.338
 1824TIP3    H1 5478   5.666   1.930   1.419
 1824TIP3    H2 5479   5.683   1.800   1.344
 1825TIP3   OH2 5480   5.803   1.348   1.164
 1825TIP3    H1 5481   5.749   1.307   1.096
 1825TIP3    H2 5482   5.804   1.284   1.235
 1826TIP3   OH2 5483   0.534  -0.008   3.731
 1826TIP3    H1 5484   0.448   0.034   3.728
 1826TIP3    H2 5485   0.590   0.057   3.774
 1827TIP3   OH2 5486   5.161   1.067   0.899
 1827TIP3    H1 5487   5.228   1.022   0.951
 1827TIP3    H2 5488   5.166   1.026   0.813
 1828TIP3   OH2 5489   0.686   2.810   2.544
 1828TIP3    H1 5490   0.645   2.823   2.459
 1828TIP3    H2 5491   0.683   2.716   2.559
 1829TIP3   OH2 5492   6.136   0.196   3.731
 1829TIP3    H1 5493   6.095   0.181   3.646
 1829TIP3    H2 5494   6.098   0.278   3.762
 1830TIP3   OH2 5495   3.675   5.717   2.543
 1830TIP3    H1 5496   3.595   5.684   2.583
 1830TIP3    H2 5497   3.741   5.649   2.560
 1831TIP3   OH2 5498   5.407   0.917   4.586
 1831TIP3    H1 5499   5.464   0.842   4.601
 1831TIP3    H2 5500   5.422   0.941   4.495
 1832TIP3   OH2 5501   0.970   2.858   4.147
 1832TIP3    H1 5502   1.062   2.842   4.168
 1832TIP3    H2 5503   0.940   2.919   4.215
 1833TIP3   OH2 5504   1.007   5.104   0.722
 1833TIP3    H1 5505   1.047   5.018   0.706
 1833TIP3    H2 5506   1.029   5.123   0.813
 1834TIP3   OH2 5507   6.200   4.641   4.411
 1834TIP3    H1 5508   6.134   4.703   4.380
 1834TIP3    H2 5509   6.274   4.696   4.437
 1835TIP3   OH2 5510   3.666   3.816   1.356
 1835TIP3    H1 5511   3.586   3.858   1.326
 1835TIP3    H2 5512   3.675   3.740   1.298
 1836TIP3   OH2 5513   5.516   4.137   3.363
 1836TIP3    H1 5514   5.502   4.168   3.274
 1836TIP3    H2 5515   5.517   4.216   3.417
 1837TIP3   OH2 5516   4.356   3.506   3.929
 1837TIP3    H1 5517   4.307   3.450   3.989
 1837TIP3    H2 5518   4.389   3.447   3.862
 1838TIP3   OH2 5519   6.093   4.603   0.517
 1838TIP3    H1 5520   6.179   4.583   0.481
 1838TIP3    H2 5521   6.048   4.518   0.521
 1839TIP3   OH2 5522   5.264   1.792   4.747
 1839TIP3    H1 5523   5.346   1.743   4.745
 1839TIP3    H2 5524   5.216   1.757   4.822
 1840TIP3   OH2 5525   4.835   2.440   2.625
 1840TIP3    H1 5526   4.815   2.506   2.692
 1840TIP3    H2 5527   4.823   2.356   2.669
 1841TIP3   OH2 5528   1.240   2.828   1.688
 1841TIP3    H1 5529   1.173   2.873   1.740
 1841TIP3    H2 5530   1.273   2.895   1.629
 1842TIP3   OH2 5531   3.056   4.621   0.566
 1842TIP3    H1 5532   3.032   4.704   0.607
 1842TIP3    H2 5533   3.026   4.629   0.476
 1843TIP3   OH2 5534   0.078   3.378   0.951
 1843TIP3    H1 5535   0.134   3.424   1.014
 1843TIP3    H2 5536  -0.011   3.390   0.985
 1844TIP3   OH2 5537   2.068   1.394   3.945
 1844TIP3    H1 5538   2.015   1.472   3.930
 1844TIP3    H2 5539   2.063   1.379   4.040
 1845TIP3   OH2 5540   0.964   3.317   2.274
 1845TIP3    H1 5541   0.882   3.285   2.312
 1845TIP3    H2 5542   0.957   3.296   2.181
 1846TIP3   OH2 5543   4.277   0.712   4.020
 1846TIP3    H1 5544   4.283   0.684   4.112
 1846TIP3    H2 5545   4.332   0.650   3.972
 1847TIP3   OH2 5546   1.730   4.228   2.399
 1847TIP3    H1 5547   1.745   4.305   2.454
 1847TIP3    H2 5548   1.797   4.165   2.427
 1848TIP3   OH2 5549   2.115   0.108   2.273
 1848TIP3    H1 5550   2.178   0.162   2.226
 1848TIP3    H2 5551   2.146   0.019   2.262
 1849TIP3   OH2 5552   4.672   2.399   0.031
 1849TIP3    H1 5553   4.663   2.328  -0.033
 1849TIP3    H2 5554   4.584   2.436   0.038
 1850TIP3   OH2 5555   3.034   3.051   2.789
 1850TIP3    H1 5556   3.087   3.083   2.715
 1850TIP3    H2 5557   3.097   3.042   2.861
 1851TIP3   OH2 5558   1.675   0.199   0.489
 1851TIP3    H1 5559   1.671   0.215   0.394
 1851TIP3    H2 5560   1.630   0.274   0.528
 1852TIP3   OH2 5561   4.780   0.743   4.977
 1852TIP3    H1 5562   4.707   0.720   4.921
 1852TIP3    H2 5563   4.762   0.833   5.004
 1853TIP3   OH2 5564   4.439   2.270   2.191
 1853TIP3    H1 5565   4.388   2.273   2.273
 1853TIP3    H2 5566   4.481   2.185   2.193
 1854TIP3   OH2 5567   0.140   2.830   4.848
 1854TIP3    H1 5568   0.137   2.780   4.767
 1854TIP3    H2 5569   0.223   2.878   4.844
 1855TIP3   OH2 5570   0.428   4.976   3.699
 1855TIP3    H1 5571   0.440   4.883   3.717
 1855TIP3    H2 5572   0.384   5.010   3.776
 1856TIP3   OH2 5573   5.153   2.231   1.507
 1856TIP3    H1 5574   5.206   2.168   1.556
 1856TIP3    H2 5575   5.198   2.240   1.423
 1857TIP3   OH2 5576   3.129   4.376   2.021
 1857TIP3    H1 5577   3.212   4.383   2.069
 1857TIP3    H2 5578   3.109   4.283   2.022
 1858TIP3   OH2 5579   4.551   3.837   2.698
 1858TIP3    H1 5580   4.571   3.876   2.613
 1858TIP3    H2 5581   4.596   3.892   2.762
 1859TIP3   OH2 5582   1.446   4.356   3.145
 1859TIP3    H1 5583   1.422   4.287   3.084
 1859TIP3    H2 5584   1.374   4.360   3.207
 1860TIP3   OH2 5585   4.218   0.839   2.732
 1860TIP3    H1 5586   4.305   0.869   2.759
 1860TIP3    H2 5587   4.228   0.814   2.641
 1861TIP3   OH2 5588   1.367   0.762   3.770
 1861TIP3    H1 5589   1.402   0.825   3.833
 1861TIP3    H2 5590   1.444   0.722   3.731
 1862TIP3   OH2 5591   2.328   1.215   3.552
 1862TIP3    H1 5592   2.390   1.250   3.616
 1862TIP3    H2 5593   2.367   1.236   3.467
 1863TIP3   OH2 5594   3.848   4.639   4.861
 1863TIP3    H1 5595   3.796   4.643   4.941
 1863TIP3    H2 5596   3.844   4.727   4.825
 1864TIP3   OH2 5597   0.381   2.879   2.426
 1864TIP3    H1 5598   0.301   2.852   2.471
 1864TIP3    H2 5599   0.429   2.797   2.412
 1865TIP3   OH2 5600   2.039   4.563   2.830
 1865TIP3    H1 5601   2.032   4.533   2.739
 1865TIP3    H2 5602   2.018   4.656   2.827
 1866TIP3   OH2 5603   6.075   3.161   3.878
 1866TIP3    H1 5604   6.063   3.177   3.785
 1866TIP3    H2 5605   6.036   3.237   3.921
 1867TIP3   OH2 5606   1.802   3.001   1.939
 1867TIP3    H1 5607   1.839   2.994   1.851
 1867TIP3    H2 5608   1.868   3.049   1.989
 1868TIP3   OH2 5609   0.579   5.857   3.954
 1868TIP3    H1 5610   0.652   5.914   3.977
 1868TIP3    H2 5611   0.507   5.887   4.009
 1869TIP3   OH2 5612   5.614   0.871   0.364
 1869TIP3    H1 5613   5.581   0.959   0.387
 1869TIP3    H2 5614   5.552   0.811   0.406
 1870TIP3   OH2 5615   4.500   0.821   3.669
 1870TIP3    H1 5616   4.419   0.858   3.705
 1870TIP3    H2 5617   4.570   0.872   3.712
 1871TIP3   OH2 5618   1.905   0.487   1.840
 1871TIP3    H1 5619   1.858   0.500   1.923
 1871TIP3    H2 5620   1.838   0.497   1.773
 1872TIP3   OH2 5621   2.310   3.298   0.172
 1872TIP3    H1 5622   2.395   3.278   0.133
 1872TIP3    H2 5623   2.268   3.356   0.109
 1873TIP3   OH2 5624   1.776   0.779   4.713
 1873TIP3    H1 5625   1.853   0.723   4.708
 1873TIP3    H2 5626   1.710   0.726   4.758
 1874TIP3   OH2 5627   1.166   1.322   1.648
 1874TIP3    H1 5628   1.096   1.323   1.713
 1874TIP3    H2 5629   1.166   1.411   1.613
 1875TIP3   OH2 5630   3.734   0.826   3.507
 1875TIP3    H1 5631   3.786   0.845   3.586
 1875TIP3    H2 5632   3.699   0.738   3.523
 1876TIP3   OH2 5633   3.291   5.477   0.918
 1876TIP3    H1 5634   3.208   5.464   0.874
 1876TIP3    H2 5635   3.291   5.413   0.990
 1877TIP3   OH2 5636   5.396   1.482   3.923
 1877TIP3    H1 5637   5.340   1.461   3.998
 1877TIP3    H2 5638   5.460   1.544   3.958
 1878TIP3   OH2 5639   4.259   0.856   4.444
 1878TIP3    H1 5640   4.183   0.832   4.392
 1878TIP3    H2 5641   4.257   0.798   4.519
 1879TIP3   OH2 5642   1.445   4.789   2.636
 1879TIP3    H1 5643   1.361   4.751   2.661
 1879TIP3    H2 5644   1.511   4.737   2.682
 1880TIP3   OH2 5645   4.277   4.448   3.718
 1880TIP3    H1 5646   4.293   4.538   3.691
 1880TIP3    H2 5647   4.302   4.395   3.642
 1881TIP3   OH2 5648   3.086   1.758   0.468
 1881TIP3    H1 5649   3.017   1.714   0.517
 1881TIP3    H2 5650   3.040   1.828   0.421
 1882TIP3   OH2 5651   3.857   5.720   3.151
 1882TIP3    H1 5652   3.913   5.691   3.224
 1882TIP3    H2 5653   3.914   5.776   3.098
 1883TIP3   OH2 5654   1.942   4.661   4.125
 1883TIP3    H1 5655   1.898   4.605   4.188
 1883TIP3    H2 5656   2.016   4.698   4.173
 1884TIP3   OH2 5657   0.571   2.377   0.413
 1884TIP3    H1 5658   0.524   2.417   0.486
 1884TIP3    H2 5659   0.658   2.415   0.416
 1885TIP3   OH2 5660   3.353   2.252   0.362
 1885TIP3    H1 5661   3.312   2.268   0.447
 1885TIP3    H2 5662   3.444   2.232   0.384
 1886TIP3   OH2 5663   5.567   4.881   4.201
 1886TIP3    H1 5664   5.619   4.906   4.124
 1886TIP3    H2 5665   5.476   4.883   4.170
 1887TIP3   OH2 5666   5.967   2.430   3.375
 1887TIP3    H1 5667   5.962   2.348   3.425
 1887TIP3    H2 5668   5.879   2.442   3.340
 1888TIP3   OH2 5669   0.805   5.809   3.078
 1888TIP3    H1 5670   0.834   5.900   3.075
 1888TIP3    H2 5671   0.769   5.798   3.166
 1889TIP3   OH2 5672   1.431   0.897   1.173
 1889TIP3    H1 5673   1.516   0.885   1.215
 1889TIP3    H2 5674   1.386   0.961   1.227
 1890TIP3   OH2 5675   2.627   4.841   3.053
 1890TIP3    H1 5676   2.542   4.814   3.019
 1890TIP3    H2 5677   2.666   4.761   3.089
 1891TIP3   OH2 5678   2.001   2.607   4.147
 1891TIP3    H1 5679   2.061   2.534   4.132
 1891TIP3    H2 5680   1.990   2.647   4.061
 1892TIP3   OH2 5681   5.775   1.846   4.899
 1892TIP3    H1 5682   5.681   1.856   4.881
 1892TIP3    H2 5683   5.778   1.786   4.974
 1893TIP3   OH2 5684   4.477   2.380   0.439
 1893TIP3    H1 5685   4.436   2.311   0.388
 1893TIP3    H2 5686   4.405   2.419   0.490
 1894TIP3   OH2 5687   2.952   5.185   2.604
 1894TIP3    H1 5688   3.023   5.202   2.542
 1894TIP3    H2 5689   2.920   5.098   2.579
 1895TIP3   OH2 5690   5.231   5.550   0.129
 1895TIP3    H1 5691   5.233   5.590   0.216
 1895TIP3    H2 5692   5.280   5.469   0.138
 1896TIP3   OH2 5693   4.976   5.180   1.087
 1896TIP3    H1 5694   5.058   5.224   1.064
 1896TIP3    H2 5695   4.981   5.096   1.043
 1897TIP3   OH2 5696   3.422   2.812   4.314
 1897TIP3    H1 5697   3.442   2.729   4.272
 1897TIP3    H2 5698   3.495   2.826   4.375
 1898TIP3   OH2 5699   3.567   4.527   3.426
 1898TIP3    H1 5700   3.477   4.555   3.411
 1898TIP3    H2 5701   3.617   4.560   3.351
 1899TIP3   OH2 5702   0.508   1.295   1.465
 1899TIP3    H1 5703   0.463   1.371   1.500
 1899TIP3    H2 5704   0.590   1.290   1.514
 1900TIP3   OH2 5705   3.419   1.726   3.906
 1900TIP3    H1 5706   3.371   1.656   3.950
 1900TIP3    H2 5707   3.379   1.733   3.819
 1901TIP3   OH2 5708   4.189   2.935   4.027
 1901TIP3    H1 5709   4.152   2.881   3.958
 1901TIP3    H2 5710   4.113   2.964   4.078
 1902TIP3   OH2 5711   0.058   4.735   2.526
 1902TIP3    H1 5712   0.149   4.759   2.510
 1902TIP3    H2 5713   0.021   4.811   2.570
 1903TIP3   OH2 5714   6.225   1.893   1.283
 1903TIP3    H1 5715   6.318   1.912   1.291
 1903TIP3    H2 5716   6.217   1.801   1.308
 1904TIP3   OH2 5717   2.744   1.585   0.836
 1904TIP3    H1 5718   2.789   1.503   0.855
 1904TIP3    H2 5719   2.657   1.559   0.806
 1905TIP3   OH2 5720   5.308   1.425   3.527
 1905TIP3    H1 5721   5.278   1.473   3.604
 1905TIP3    H2 5722   5.265   1.469   3.453
 1906TIP3   OH2 5723   6.255   5.183   0.040
 1906TIP3    H1 5724   6.314   5.240   0.090
 1906TIP3    H2 5725   6.249   5.103   0.093
 1907TIP3   OH2 5726   5.196   2.239   2.482
 1907TIP3    H1 5727   5.171   2.177   2.551
 1907TIP3    H2 5728   5.112   2.270   2.448
 1908TIP3   OH2 5729   2.658   3.344   2.028
 1908TIP3    H1 5730   2.622   3.267   2.071
 1908TIP3    H2 5731   2.640   3.416   2.088
 1909TIP3   OH2 5732   6.065   4.933   4.513
 1909TIP3    H1 5733   6.068   4.888   4.429
 1909TIP3    H2 5734   6.067   5.026   4.491
 1910TIP3   OH2 5735   1.476   2.161   2.695
 1910TIP3    H1 5736   1.468   2.254   2.674
 1910TIP3    H2 5737   1.554   2.132   2.649
 1911TIP3   OH2 5738   5.741   1.572   1.757
 1911TIP3    H1 5739   5.699   1.528   1.683
 1911TIP3    H2 5740   5.802   1.508   1.793
 1912TIP3   OH2 5741   5.968   2.358   1.955
 1912TIP3    H1 5742   5.982   2.447   1.924
 1912TIP3    H2 5743   6.044   2.309   1.922
 1913TIP3   OH2 5744   3.762   2.731   1.520
 1913TIP3    H1 5745   3.764   2.743   1.615
 1913TIP3    H2 5746   3.706   2.801   1.488
 1914TIP3   OH2 5747   3.706   5.618   4.899
 1914TIP3    H1 5748   3.766   5.556   4.857
 1914TIP3    H2 5749   3.643   5.564   4.946
 1915TIP3   OH2 5750   0.326   3.026   0.949
 1915TIP3    H1 5751   0.414   3.065   0.942
 1915TIP3    H2 5752   0.333   2.945   0.898
 1916TIP3   OH2 5753   0.718   5.102   0.664
 1916TIP3    H1 5754   0.669   5.145   0.734
 1916TIP3    H2 5755   0.810   5.119   0.685
 1917TIP3   OH2 5756   6.000   0.339   4.454
 1917TIP3    H1 5757   5.958   0.253   4.448
 1917TIP3    H2 5758   5.956   0.392   4.389
 1918TIP3   OH2 5759   1.209   4.532   0.563
 1918TIP3    H1 5760   1.216   4.448   0.517
 1918TIP3    H2 5761   1.201   4.507   0.655
 1919TIP3   OH2 5762   1.888   3.550   4.486
 1919TIP3    H1 5763   1.815   3.580   4.539
 1919TIP3    H2 5764   1.849   3.485   4.427
 1920TIP3   OH2 5765   5.599   0.771   4.055
 1920TIP3    H1 5766   5.639   0.856   4.075
 1920TIP3    H2 5767   5.506   0.790   4.045
 1921TIP3   OH2 5768   0.322   1.164   2.421
 1921TIP3    H1 5769   0.261   1.168   2.495
 1921TIP3    H2 5770   0.400   1.210   2.453
 1922TIP3   OH2 5771   4.007   3.489   2.840
 1922TIP3    H1 5772   4.045   3.470   2.926
 1922TIP3    H2 5773   3.981   3.581   2.846
 1923TIP3   OH2 5774   0.119   2.656   0.712
 1923TIP3    H1 5775   0.210   2.686   0.718
 1923TIP3    H2 5776   0.125   2.562   0.730
 1924TIP3   OH2 5777   4.667   3.730   2.107
 1924TIP3    H1 5778   4.751   3.761   2.074
 1924TIP3    H2 5779   4.679   3.637   2.122
 1925TIP3   OH2 5780   4.291   0.351   1.276
 1925TIP3    H1 5781   4.369   0.298   1.287
 1925TIP3    H2 5782   4.308   0.430   1.327
 1926TIP3   OH2 5783   1.106   0.710   0.469
 1926TIP3    H1 5784   1.040   0.644   0.490
 1926TIP3    H2 5785   1.101   0.773   0.542
 1927TIP3   OH2 5786   2.995   3.906   0.706
 1927TIP3    H1 5787   3.074   3.857   0.681
 1927TIP3    H2 5788   3.006   3.992   0.664
 1928TIP3   OH2 5789   2.133   3.029   3.822
 1928TIP3    H1 5790   2.155   2.983   3.742
 1928TIP3    H2 5791   2.202   3.095   3.832
 1929TIP3   OH2 5792   4.068   2.363   4.939
 1929TIP3    H1 5793   4.141   2.302   4.929
 1929TIP3    H2 5794   4.097   2.425   5.006
 1930TIP3   OH2 5795   1.758   1.749   1.847
 1930TIP3    H1 5796   1.790   1.664   1.877
 1930TIP3    H2 5797   1.813   1.769   1.771
 1931TIP3   OH2 5798   5.370   5.834   0.103
 1931TIP3    H1 5799   5.367   5.819   0.008
 1931TIP3    H2 5800   5.304   5.774   0.138
 1932TIP3   OH2 5801   6.300   2.789   1.276
 1932TIP3    H1 5802   6.233   2.828   1.220
 1932TIP3    H2 5803   6.302   2.697   1.250
 1933TIP3   OH2 5804   4.236   2.094   0.977
 1933TIP3    H1 5805   4.202   2.112   0.889
 1933TIP3    H2 5806   4.178   2.026   1.011
 1934TIP3   OH2 5807   6.228   5.205   4.275
 1934TIP3    H1 5808   6.270   5.189   4.190
 1934TIP3    H2 5809   6.140   5.235   4.253
 1935TIP3   OH2 5810   2.898   1.595   1.632
 1935TIP3    H1 5811   2.819   1.560   1.591
 1935TIP3    H2 5812   2.870   1.677   1.672
 1936TIP3   OH2 5813   4.635   3.963   2.452
 1936TIP3    H1 5814   4.586   3.964   2.370
 1936TIP3    H2 5815   4.632   4.053   2.483
 1937TIP3   OH2 5816   5.145   5.910   0.915
 1937TIP3    H1 5817   5.098   5.987   0.945
 1937TIP3    H2 5818   5.124   5.904   0.822
 1938TIP3   OH2 5819   2.715   5.122   4.204
 1938TIP3    H1 5820   2.737   5.039   4.246
 1938TIP3    H2 5821   2.626   5.141   4.235
 1939TIP3   OH2 5822   4.456   2.264   1.857
 1939TIP3    H1 5823   4.420   2.313   1.930
 1939TIP3    H2 5824   4.419   2.176   1.868
 1940TIP3   OH2 5825   5.919   1.065   3.369
 1940TIP3    H1 5826   5.953   1.016   3.444
 1940TIP3    H2 5827   5.952   1.154   3.382
 1941TIP3   OH2 5828   2.541   3.662   1.249
 1941TIP3    H1 5829   2.529   3.572   1.278
 1941TIP3    H2 5830   2.459   3.706   1.271
 1942TIP3   OH2 5831   3.375   3.099   0.094
 1942TIP3    H1 5832   3.307   3.063   0.038
 1942TIP3    H2 5833   3.447   3.119   0.035
 1943TIP3   OH2 5834   5.722   2.994   2.940
 1943TIP3    H1 5835   5.692   2.945   2.863
 1943TIP3    H2 5836   5.713   3.086   2.913
 1944TIP3   OH2 5837   0.959   5.096   3.017
 1944TIP3    H1 5838   0.995   5.008   3.028
 1944TIP3    H2 5839   0.927   5.097   2.926
 1945TIP3   OH2 5840   2.189   3.411   1.107
 1945TIP3    H1 5841   2.162   3.476   1.041
 1945TIP3    H2 5842   2.234   3.344   1.056
 1946TIP3   OH2 5843   2.683   0.901   3.480
 1946TIP3    H1 5844   2.656   0.951   3.403
 1946TIP3    H2 5845   2.601   0.877   3.523
 1947TIP3   OH2 5846   0.807   3.571   3.245
 1947TIP3    H1 5847   0.853   3.493   3.276
 1947TIP3    H2 5848   0.790   3.555   3.152
 1948TIP3   OH2 5849   2.455   2.833   2.718
 1948TIP3    H1 5850   2.441   2.891   2.793
 1948TIP3    H2 5851   2.496   2.889   2.652
 1949TIP3   OH2 5852   3.300   3.946   1.817
 1949TIP3    H1 5853   3.314   3.948   1.722
 1949TIP3    H2 5854   3.303   4.037   1.844
 1950TIP3   OH2 5855   1.367   5.534   2.346
 1950TIP3    H1 5856   1.357   5.474   2.420
 1950TIP3    H2 5857   1.357   5.480   2.268
 1951TIP3   OH2 5858   2.496   3.777   0.788
 1951TIP3    H1 5859   2.535   3.746   0.869
 1951TIP3    H2 5860   2.508   3.706   0.726
 1952TIP3   OH2 5861   3.403   2.563   1.459
 1952TIP3    H1 5862   3.393   2.479   1.414
 1952TIP3    H2 5863   3.456   2.543   1.536
 1953TIP3   OH2 5864   3.434   1.338   1.157
 1953TIP3    H1 5865   3.418   1.432   1.158
 1953TIP3    H2 5866   3.495   1.323   1.229
 1954TIP3   OH2 5867   6.349   1.156   1.374
 1954TIP3    H1 5868   6.284   1.182   1.308
 1954TIP3    H2 5869   6.304   1.090   1.427
 1955TIP3   OH2 5870   4.272   5.810   0.082
 1955TIP3    H1 5871   4.210   5.803   0.154
 1955TIP3    H2 5872   4.262   5.900   0.050
 1956TIP3   OH2 5873   1.205   3.841   1.592
 1956TIP3    H1 5874   1.129   3.888   1.560
 1956TIP3    H2 5875   1.169   3.760   1.629
 1957TIP3   OH2 5876   5.919   4.433   2.143
 1957TIP3    H1 5877   5.860   4.500   2.109
 1957TIP3    H2 5878   5.863   4.377   2.198
 1958TIP3   OH2 5879   0.669   0.114   2.891
 1958TIP3    H1 5880   0.634   0.049   2.829
 1958TIP3    H2 5881   0.705   0.061   2.962
 1959TIP3   OH2 5882   5.604   2.730   3.841
 1959TIP3    H1 5883   5.547   2.805   3.823
 1959TIP3    H2 5884   5.624   2.738   3.934
 1960TIP3   OH2 5885   0.064   1.511   0.934
 1960TIP3    H1 5886   0.053   1.583   0.996
 1960TIP3    H2 5887   0.105   1.441   0.984
 1961TIP3   OH2 5888   2.607   0.062   3.739
 1961TIP3    H1 5889   2.511   0.061   3.744
 1961TIP3    H2 5890   2.635   0.004   3.809
 1962TIP3   OH2 5891   1.044   3.086   3.559
 1962TIP3    H1 5892   1.039   3.151   3.630
 1962TIP3    H2 5893   0.959   3.091   3.516
 1963TIP3   OH2 5894   2.352   1.966   5.028
 1963TIP3    H1 5895   2.411   1.891   5.022
 1963TIP3    H2 5896   2.265   1.929   5.013
 1964TIP3   OH2 5897   5.871   1.289   1.478
 1964TIP3    H1 5898   5.787   1.326   1.451
 1964TIP3    H2 5899   5.910   1.357   1.534
 1965TIP3   OH2 5900   1.582   1.484   1.030
 1965TIP3    H1 5901   1.564   1.401   0.985
 1965TIP3    H2 5902   1.574   1.463   1.123
 1966TIP3   OH2 5903   5.680   4.288   4.001
 1966TIP3    H1 5904   5.734   4.343   4.058
 1966TIP3    H2 5905   5.593   4.328   4.005
 1967TIP3   OH2 5906   4.110   0.878   2.226
 1967TIP3    H1 5907   4.033   0.854   2.278
 1967TIP3    H2 5908   4.183   0.833   2.269
 1968TIP3   OH2 5909   5.354   2.241   2.185
 1968TIP3    H1 5910   5.427   2.179   2.191
 1968TIP3    H2 5911   5.371   2.291   2.105
 1969TIP3   OH2 5912   3.522   2.587   2.711
 1969TIP3    H1 5913   3.436   2.629   2.703
 1969TIP3    H2 5914   3.504   2.508   2.762
 1970TIP3   OH2 5915   6.178   2.449   2.495
 1970TIP3    H1 5916   6.190   2.468   2.588
 1970TIP3    H2 5917   6.156   2.356   2.492
 1971TIP3   OH2 5918   3.959   4.533   1.936
 1971TIP3    H1 5919   3.881   4.585   1.954
 1971TIP3    H2 5920   3.949   4.506   1.845
 1972TIP3   OH2 5921   3.434   2.998   3.867
 1972TIP3    H1 5922   3.447   3.012   3.773
 1972TIP3    H2 5923   3.459   2.907   3.882
 1973TIP3   OH2 5924   2.090   0.252   1.475
 1973TIP3    H1 5925   2.088   0.218   1.564
 1973TIP3    H2 5926   2.013   0.310   1.470
 1974TIP3   OH2 5927   1.082   2.965   3.864
 1974TIP3    H1 5928   1.099   2.901   3.795
 1974TIP3    H2 5929   1.003   2.932   3.908
 1975TIP3   OH2 5930   3.855   4.831   1.971
 1975TIP3    H1 5931   3.821   4.767   2.034
 1975TIP3    H2 5932   3.807   4.911   1.989
 1976TIP3   OH2 5933   1.516   0.617   2.954
 1976TIP3    H1 5934   1.425   0.595   2.969
 1976TIP3    H2 5935   1.514   0.678   2.879
 1977TIP3   OH2 5936   1.989   3.348   3.100
 1977TIP3    H1 5937   1.999   3.324   3.008
 1977TIP3    H2 5938   1.899   3.323   3.121
 1978TIP3   OH2 5939   1.865   4.570   2.333
 1978TIP3    H1 5940   1.952   4.588   2.368
 1978TIP3    H2 5941   1.815   4.651   2.348
 1979TIP3   OH2 5942   6.314   4.337   4.829
 1979TIP3    H1 5943   6.396   4.287   4.832
 1979TIP3    H2 5944   6.246   4.271   4.817
 1980TIP3   OH2 5945   2.002   3.610   3.873
 1980TIP3    H1 5946   2.095   3.610   3.896
 1980TIP3    H2 5947   1.991   3.532   3.818
 1981TIP3   OH2 5948   5.355   3.792   2.260
 1981TIP3    H1 5949   5.390   3.792   2.171
 1981TIP3    H2 5950   5.424   3.830   2.314
 1982TIP3   OH2 5951   5.323   2.673   4.769
 1982TIP3    H1 5952   5.357   2.732   4.701
 1982TIP3    H2 5953   5.277   2.605   4.720
 1983TIP3   OH2 5954   0.801   4.142   1.004
 1983TIP3    H1 5955   0.800   4.220   1.060
 1983TIP3    H2 5956   0.831   4.071   1.060
 1984TIP3   OH2 5957   6.333   4.302   2.249
 1984TIP3    H1 5958   6.329   4.395   2.274
 1984TIP3    H2 5959   6.242   4.272   2.256
 1985TIP3   OH2 5960   0.402   5.651   4.280
 1985TIP3    H1 5961   0.345   5.584   4.242
 1985TIP3    H2 5962   0.484   5.644   4.230
 1986TIP3   OH2 5963   5.256   1.616   4.129
 1986TIP3    H1 5964   5.313   1.595   4.203
 1986TIP3    H2 5965   5.295   1.694   4.090
 1987TIP3   OH2 5966   0.676   2.306   3.606
 1987TIP3    H1 5967   0.764   2.305   3.567
 1987TIP3    H2 5968   0.673   2.389   3.655
 1988TIP3   OH2 5969   1.646   0.079   2.765
 1988TIP3    H1 5970   1.663   0.000   2.817
 1988TIP3    H2 5971   1.626   0.146   2.830
 1989TIP3   OH2 5972   3.635   1.443   2.157
 1989TIP3    H1 5973   3.606   1.360   2.194
 1989TIP3    H2 5974   3.575   1.459   2.084
 1990TIP3   OH2 5975   3.751   1.747   1.537
 1990TIP3    H1 5976   3.788   1.817   1.590
 1990TIP3    H2 5977   3.657   1.751   1.555
 1991TIP3   OH2 5978   4.342   1.975   4.471
 1991TIP3    H1 5979   4.427   2.019   4.458
 1991TIP3    H2 5980   4.291   2.038   4.521
 1992TIP3   OH2 5981   5.351   4.195   4.332
 1992TIP3    H1 5982   5.312   4.110   4.314
 1992TIP3    H2 5983   5.305   4.255   4.274
 1993TIP3   OH2 5984   1.534   1.206   0.216
 1993TIP3    H1 5985   1.514   1.126   0.167
 1993TIP3    H2 5986   1.584   1.175   0.292
 1994TIP3   OH2 5987   5.311   0.834   4.074
 1994TIP3    H1 5988   5.267   0.884   4.005
 1994TIP3    H2 5989   5.256   0.846   4.151
 1995TIP3   OH2 5990   0.080   3.386   2.054
 1995TIP3    H1 5991   0.028   3.305   2.062
 1995TIP3    H2 5992   0.168   3.361   2.084
 1996TIP3   OH2 5993   3.081   2.838   3.602
 1996TIP3    H1 5994   3.056   2.751   3.633
 1996TIP3    H2 5995   3.093   2.890   3.682
 1997TIP3   OH2 5996   5.493   0.483   1.388
 1997TIP3    H1 5997   5.491   0.511   1.479
 1997TIP3    H2 5998   5.461   0.558   1.339
 1998TIP3   OH2 5999   6.266   5.893   3.214
 1998TIP3    H1 6000   6.351   5.909   3.174
 1998TIP3    H2 6001   6.204   5.892   3.141
 1999TIP3   OH2 6002   5.942   4.094   2.915
 1999TIP3    H1 6003   6.019   4.145   2.940
 1999TIP3    H2 6004   5.869   4.155   2.924
 2000TIP3   OH2 6005   5.207   5.887   3.946
 2000TIP3    H1 6006   5.243   5.816   3.892
 2000TIP3    H2 6007   5.257   5.884   4.027
 2001TIP3   OH2 6008   3.078   1.557   2.214
 2001TIP3    H1 6009   3.133   1.488   2.177
 2001TIP3    H2 6010   3.010   1.571   2.148
 2002TIP3   OH2 6011   3.662   5.580   4.255
 2002TIP3    H1 6012   3.598   5.512   4.234
 2002TIP3    H2 6013   3.651   5.595   4.349
 2003TIP3   OH2 6014   5.344   3.233   2.675
 2003TIP3    H1 6015   5.354   3.229   2.770
 2003TIP3    H2 6016   5.397   3.160   2.643
 2004TIP3   OH2 6017   2.191   0.939   1.738
 2004TIP3    H1 6018   2.233   0.854   1.724
 2004TIP3    H2 6019   2.102   0.927   1.705
 2005TIP3   OH2 6020   2.811   0.058   4.533
 2005TIP3    H1 6021   2.819  -0.017   4.593
 2005TIP3    H2 6022   2.754   0.027   4.463
 2006TIP3   OH2 6023   3.198   3.836   2.625
 2006TIP3    H1 6024   3.200   3.930   2.605
 2006TIP3    H2 6025   3.197   3.794   2.539
 2007TIP3   OH2 6026   2.805   3.071   4.050
 2007TIP3    H1 6027   2.746   3.008   4.011
 2007TIP3    H2 6028   2.892   3.032   4.041
 2008TIP3   OH2 6029   2.255  -0.002   1.037
 2008TIP3    H1 6030   2.326   0.060   1.023
 2008TIP3    H2 6031   2.224   0.017   1.126
 2009TIP3   OH2 6032   5.502   2.957   4.693
 2009TIP3    H1 6033   5.540   3.039   4.663
 2009TIP3    H2 6034   5.409   2.975   4.702
 2010TIP3   OH2 6035   0.553   2.697   4.254
 2010TIP3    H1 6036   0.522   2.607   4.244
 2010TIP3    H2 6037   0.649   2.690   4.255
 2011TIP3   OH2 6038   3.293   3.068   3.393
 2011TIP3    H1 6039   3.362   3.073   3.328
 2011TIP3    H2 6040   3.337   3.078   3.477
 2012TIP3   OH2 6041   2.658   2.265   3.797
 2012TIP3    H1 6042   2.714   2.190   3.780
 2012TIP3    H2 6043   2.607   2.275   3.716
 2013TIP3   OH2 6044   1.833   4.102   1.854
 2013TIP3    H1 6045   1.910   4.150   1.822
 2013TIP3    H2 6046   1.759   4.159   1.832
 2014TIP3   OH2 6047   1.814   4.912   3.321
 2014TIP3    H1 6048   1.861   4.986   3.283
 2014TIP3    H2 6049   1.721   4.935   3.312
 2015TIP3   OH2 6050   2.230   1.526   2.634
 2015TIP3    H1 6051   2.285   1.582   2.688
 2015TIP3    H2 6052   2.253   1.437   2.659
 2016TIP3   OH2 6053   0.450   1.214   1.185
 2016TIP3    H1 6054   0.479   1.232   1.275
 2016TIP3    H2 6055   0.431   1.120   1.185
 2017TIP3   OH2 6056   3.773   1.433   1.619
 2017TIP3    H1 6057   3.835   1.479   1.675
 2017TIP3    H2 6058   3.714   1.502   1.587
 2018TIP3   OH2 6059   5.062   5.649   0.945
 2018TIP3    H1 6060   5.102   5.628   0.861
 2018TIP3    H2 6061   5.098   5.735   0.967
 2019TIP3   OH2 6062   2.183   5.388   0.078
 2019TIP3    H1 6063   2.106   5.407   0.131
 2019TIP3    H2 6064   2.153   5.395  -0.012
 2020TIP3   OH2 6065   3.623   4.319   1.526
 2020TIP3    H1 6066   3.665   4.247   1.480
 2020TIP3    H2 6067   3.631   4.394   1.468
 2021TIP3   OH2 6068   0.672   5.512   1.671
 2021TIP3    H1 6069   0.736   5.583   1.674
 2021TIP3    H2 6070   0.629   5.515   1.756
 2022TIP3   OH2 6071   4.888   5.928   0.472
 2022TIP3    H1 6072   4.907   6.020   0.453
 2022TIP3    H2 6073   4.811   5.930   0.530
 2023TIP3   OH2 6074   1.241   2.020   1.650
 2023TIP3    H1 6075   1.311   1.956   1.664
 2023TIP3    H2 6076   1.287   2.101   1.626
 2024TIP3   OH2 6077   2.364   0.521   5.199
 2024TIP3    H1 6078   2.352   0.583   5.127
 2024TIP3    H2 6079   2.434   0.463   5.170
 2025TIP3   OH2 6080   6.107   0.777   2.499
 2025TIP3    H1 6081   6.021   0.736   2.509
 2025TIP3    H2 6082   6.155   0.752   2.578
 2026TIP3   OH2 6083   3.313   4.607   1.572
 2026TIP3    H1 6084   3.217   4.608   1.574
 2026TIP3    H2 6085   3.337   4.555   1.649
 2027TIP3   OH2 6086   0.811   2.575  -0.010
 2027TIP3    H1 6087   0.731   2.591   0.039
 2027TIP3    H2 6088   0.814   2.480  -0.020
 2028TIP3   OH2 6089   3.598   2.017   0.716
 2028TIP3    H1 6090   3.526   2.080   0.723
 2028TIP3    H2 6091   3.625   2.002   0.807
 2029TIP3   OH2 6092   0.188   0.067   0.666
 2029TIP3    H1 6093   0.108   0.118   0.676
 2029TIP3    H2 6094   0.159  -0.014   0.624
 2030TIP3   OH2 6095   3.184   0.324   4.560
 2030TIP3    H1 6096   3.161   0.241   4.519
 2030TIP3    H2 6097   3.209   0.381   4.486
 2031TIP3   OH2 6098   0.535   2.792   1.219
 2031TIP3    H1 6099   0.527   2.861   1.285
 2031TIP3    H2 6100   0.627   2.766   1.223
 2032TIP3   OH2 6101   3.013   1.968   1.547
 2032TIP3    H1 6102   3.058   2.051   1.562
 2032TIP3    H2 6103   2.946   1.989   1.481
 2033TIP3   OH2 6104   4.298   3.199   2.251
 2033TIP3    H1 6105   4.320   3.273   2.195
 2033TIP3    H2 6106   4.239   3.236   2.317
 2034TIP3   OH2 6107   4.694   2.928   1.293
 2034TIP3    H1 6108   4.750   3.005   1.281
 2034TIP3    H2 6109   4.694   2.885   1.207
 2035TIP3   OH2 6110   2.562   2.782   0.403
 2035TIP3    H1 6111   2.638   2.759   0.350
 2035TIP3    H2 6112   2.590   2.767   0.493
 2036TIP3   OH2 6113   5.663  -0.010   5.021
 2036TIP3    H1 6114   5.706   0.067   4.984
 2036TIP3    H2 6115   5.724  -0.041   5.088
 2037TIP3   OH2 6116   2.762   1.979   3.822
 2037TIP3    H1 6117   2.693   2.035   3.858
 2037TIP3    H2 6118   2.719   1.895   3.805
 2038TIP3   OH2 6119   5.983   4.450   3.758
 2038TIP3    H1 6120   6.044   4.404   3.700
 2038TIP3    H2 6121   6.005   4.420   3.846
 2039TIP3   OH2 6122   1.427   3.248   2.030
 2039TIP3    H1 6123   1.385   3.163   2.044
 2039TIP3    H2 6124   1.502   3.228   1.973
 2040TIP3   OH2 6125   0.658   3.577   0.678
 2040TIP3    H1 6126   0.664   3.663   0.637
 2040TIP3    H2 6127   0.603   3.591   0.755
 2041TIP3   OH2 6128   3.312   5.938   1.705
 2041TIP3    H1 6129   3.348   5.973   1.624
 2041TIP3    H2 6130   3.235   5.889   1.679
 2042TIP3   OH2 6131   5.885   1.412   0.733
 2042TIP3    H1 6132   5.798   1.374   0.728
 2042TIP3    H2 6133   5.945   1.340   0.713
 2043TIP3   OH2 6134   2.796   5.994   0.770
 2043TIP3    H1 6135   2.837   5.939   0.837
 2043TIP3    H2 6136   2.791   5.938   0.693
 2044TIP3   OH2 6137   2.503   4.679   0.971
 2044TIP3    H1 6138   2.586   4.715   0.942
 2044TIP3    H2 6139   2.438   4.747   0.950
 2045TIP3   OH2 6140   4.184   1.034   1.957
 2045TIP3    H1 6141   4.184   0.942   1.929
 2045TIP3    H2 6142   4.163   1.031   2.050
 2046TIP3   OH2 6143   4.818   2.189   4.083
 2046TIP3    H1 6144   4.879   2.261   4.094
 2046TIP3    H2 6145   4.735   2.222   4.117
 2047TIP3   OH2 6146   2.770   1.708   2.502
 2047TIP3    H1 6147   2.714   1.785   2.490
 2047TIP3    H2 6148   2.708   1.635   2.513
 2048TIP3   OH2 6149   4.398   4.159   3.971
 2048TIP3    H1 6150   4.332   4.151   4.040
 2048TIP3    H2 6151   4.350   4.142   3.890
 2049TIP3   OH2 6152   1.852   1.171   0.913
 2049TIP3    H1 6153   1.832   1.079   0.932
 2049TIP3    H2 6154   1.919   1.195   0.977
 2050TIP3   OH2 6155   0.129   4.710   1.402
 2050TIP3    H1 6156   0.099   4.621   1.418
 2050TIP3    H2 6157   0.053   4.755   1.365
 2051TIP3   OH2 6158   5.278   4.227   4.838
 2051TIP3    H1 6159   5.326   4.146   4.822
 2051TIP3    H2 6160   5.224   4.240   4.760
 2052TIP3   OH2 6161   1.717   2.721   2.395
 2052TIP3    H1 6162   1.787   2.656   2.393
 2052TIP3    H2 6163   1.657   2.693   2.325
 2053TIP3   OH2 6164   6.332   0.288   2.760
 2053TIP3    H1 6165   6.262   0.354   2.753
 2053TIP3    H2 6166   6.404   0.324   2.708
 2054TIP3   OH2 6167   4.221   2.356   1.531
 2054TIP3    H1 6168   4.207   2.410   1.609
 2054TIP3    H2 6169   4.208   2.417   1.458
 2055TIP3   OH2 6170   1.357   0.438   3.155
 2055TIP3    H1 6171   1.370   0.441   3.250
 2055TIP3    H2 6172   1.395   0.354   3.129
 2056TIP3   OH2 6173   3.230   3.313   1.639
 2056TIP3    H1 6174   3.229   3.307   1.543
 2056TIP3    H2 6175   3.208   3.404   1.658
 2057TIP3   OH2 6176   4.332   3.487   0.873
 2057TIP3    H1 6177   4.310   3.408   0.923
 2057TIP3    H2 6178   4.414   3.518   0.911
 2058TIP3   OH2 6179   5.134   4.948   2.079
 2058TIP3    H1 6180   5.162   4.938   2.170
 2058TIP3    H2 6181   5.039   4.937   2.081
 2059TIP3   OH2 6182   4.920   1.813   4.438
 2059TIP3    H1 6183   4.969   1.828   4.357
 2059TIP3    H2 6184   4.847   1.758   4.412
 2060TIP3   OH2 6185   2.234   4.802   4.554
 2060TIP3    H1 6186   2.314   4.850   4.534
 2060TIP3    H2 6187   2.259   4.710   4.551
 2061TIP3   OH2 6188   5.609   2.159   2.959
 2061TIP3    H1 6189   5.659   2.091   2.913
 2061TIP3    H2 6190   5.537   2.180   2.899
 2062TIP3   OH2 6191   3.489   5.342   2.493
 2062TIP3    H1 6192   3.561   5.311   2.548
 2062TIP3    H2 6193   3.452   5.264   2.453
 2063TIP3   OH2 6194   3.591   4.570   2.668
 2063TIP3    H1 6195   3.537   4.512   2.614
 2063TIP3    H2 6196   3.577   4.657   2.632
 2064TIP3   OH2 6197   2.650   5.159   0.663
 2064TIP3    H1 6198   2.705   5.081   0.679
 2064TIP3    H2 6199   2.607   5.140   0.579
 2065TIP3   OH2 6200   3.857   0.435   1.954
 2065TIP3    H1 6201   3.851   0.344   1.984
 2065TIP3    H2 6202   3.910   0.478   2.021
 2066TIP3   OH2 6203   4.287   0.053   0.027
 2066TIP3    H1 6204   4.281  -0.032  -0.018
 2066TIP3    H2 6205   4.361   0.042   0.088
 2067TIP3   OH2 6206   2.219   0.899   2.607
 2067TIP3    H1 6207   2.311   0.921   2.626
 2067TIP3    H2 6208   2.189   0.854   2.686
 2068TIP3   OH2 6209   4.509   2.646   1.632
 2068TIP3    H1 6210   4.435   2.607   1.585
 2068TIP3    H2 6211   4.494   2.622   1.724
 2069TIP3   OH2 6212   3.637   0.243   0.368
 2069TIP3    H1 6213   3.721   0.267   0.330
 2069TIP3    H2 6214   3.625   0.151   0.345
 2070TIP3   OH2 6215   3.350   5.512   1.346
 2070TIP3    H1 6216   3.304   5.593   1.324
 2070TIP3    H2 6217   3.428   5.540   1.394
 2071TIP3   OH2 6218   0.384   2.982   1.443
 2071TIP3    H1 6219   0.298   2.943   1.424
 2071TIP3    H2 6220   0.379   3.006   1.535
 2072TIP3   OH2 6221   0.757   4.758   3.876
 2072TIP3    H1 6222   0.680   4.736   3.823
 2072TIP3    H2 6223   0.749   4.704   3.955
 2073TIP3   OH2 6224   5.220   1.505   1.284
 2073TIP3    H1 6225   5.140   1.525   1.333
 2073TIP3    H2 6226   5.263   1.589   1.272
 2074TIP3   OH2 6227   5.687   0.748   5.096
 2074TIP3    H1 6228   5.660   0.805   5.024
 2074TIP3    H2 6229   5.626   0.674   5.094
 2075TIP3   OH2 6230   0.812   5.712   2.436
 2075TIP3    H1 6231   0.883   5.772   2.415
 2075TIP3    H2 6232   0.835   5.676   2.521
 2076TIP3   OH2 6233   0.721   2.285   1.010
 2076TIP3    H1 6234   0.790   2.336   1.053
 2076TIP3    H2 6235   0.719   2.319   0.920
 2077TIP3   OH2 6236   4.064   0.858   1.430
 2077TIP3    H1 6237   3.971   0.874   1.418
 2077TIP3    H2 6238   4.071   0.764   1.449
 2078TIP3   OH2 6239   2.455   1.121   2.567
 2078TIP3    H1 6240   2.511   1.044   2.574
 2078TIP3    H2 6241   2.438   1.129   2.473
 2079TIP3   OH2 6242   0.183   4.878   2.231
 2079TIP3    H1 6243   0.185   4.962   2.276
 2079TIP3    H2 6244   0.091   4.853   2.232
 2080TIP3   OH2 6245   3.439   2.598   2.114
 2080TIP3    H1 6246   3.434   2.597   2.209
 2080TIP3    H2 6247   3.532   2.614   2.095
 2081TIP3   OH2 6248   3.337   1.429   4.678
 2081TIP3    H1 6249   3.321   1.497   4.612
 2081TIP3    H2 6250   3.350   1.477   4.760
 2082TIP3   OH2 6251   4.243   2.493   3.509
 2082TIP3    H1 6252   4.335   2.490   3.535
 2082TIP3    H2 6253   4.219   2.585   3.513
 2083TIP3   OH2 6254   3.627   0.074   2.639
 2083TIP3    H1 6255   3.688   0.137   2.678
 2083TIP3    H2 6256   3.628   0.095   2.546
 2084TIP3   OH2 6257   4.815   5.413   1.072
 2084TIP3    H1 6258   4.882   5.346   1.082
 2084TIP3    H2 6259   4.764   5.408   1.152
 2085TIP3   OH2 6260   0.280   1.680   1.552
 2085TIP3    H1 6261   0.203   1.718   1.595
 2085TIP3    H2 6262   0.347   1.748   1.559
 2086TIP3   OH2 6263   4.727   2.275   0.324
 2086TIP3    H1 6264   4.713   2.277   0.229
 2086TIP3    H2 6265   4.647   2.314   0.361
 2087TIP3   OH2 6266   3.715   4.624   0.785
 2087TIP3    H1 6267   3.674   4.705   0.757
 2087TIP3    H2 6268   3.658   4.591   0.855
 2088TIP3   OH2 6269   1.179   5.692   2.193
 2088TIP3    H1 6270   1.223   5.615   2.227
 2088TIP3    H2 6271   1.089   5.663   2.176
 2089TIP3   OH2 6272   3.854   3.173   0.323
 2089TIP3    H1 6273   3.936   3.126   0.337
 2089TIP3    H2 6274   3.856   3.199   0.231
 2090TIP3   OH2 6275   1.952   4.399   0.717
 2090TIP3    H1 6276   2.026   4.369   0.770
 2090TIP3    H2 6277   1.897   4.448   0.778
 2091TIP3   OH2 6278   1.356   4.702   3.895
 2091TIP3    H1 6279   1.350   4.631   3.831
 2091TIP3    H2 6280   1.449   4.725   3.896
 2092TIP3   OH2 6281   0.773   5.383   2.905
 2092TIP3    H1 6282   0.726   5.440   2.844
 2092TIP3    H2 6283   0.778   5.434   2.986
 2093TIP3   OH2 6284   3.772   1.455   1.133
 2093TIP3    H1 6285   3.729   1.448   1.218
 2093TIP3    H2 6286   3.769   1.366   1.098
 2094TIP3   OH2 6287   2.338   3.712   3.256
 2094TIP3    H1 6288   2.414   3.736   3.202
 2094TIP3    H2 6289   2.306   3.631   3.217
 2095TIP3   OH2 6290   3.086   5.941   5.022
 2095TIP3    H1 6291   3.123   5.859   5.055
 2095TIP3    H2 6292   3.036   5.915   4.945
 2096TIP3   OH2 6293   0.397   4.972   0.114
 2096TIP3    H1 6294   0.328   5.033   0.141
 2096TIP3    H2 6295   0.381   4.958   0.021
 2097TIP3   OH2 6296   1.571   2.544   0.529
 2097TIP3    H1 6297   1.484   2.516   0.557
 2097TIP3    H2 6298   1.611   2.466   0.490
 2098TIP3   OH2 6299   2.897   4.009   4.407
 2098TIP3    H1 6300   2.861   4.018   4.495
 2098TIP3    H2 6301   2.945   4.090   4.393
 2099TIP3   OH2 6302   4.447   2.263   3.817
 2099TIP3    H1 6303   4.377   2.255   3.882
 2099TIP3    H2 6304   4.426   2.196   3.752
 2100TIP3   OH2 6305   2.230   0.647   2.193
 2100TIP3    H1 6306   2.147   0.598   2.190
 2100TIP3    H2 6307   2.241   0.681   2.104
 2101TIP3   OH2 6308   0.627   4.028   4.568
 2101TIP3    H1 6309   0.633   3.967   4.642
 2101TIP3    H2 6310   0.651   3.976   4.492
 2102TIP3   OH2 6311   2.539   1.539   1.709
 2102TIP3    H1 6312   2.503   1.570   1.792
 2102TIP3    H2 6313   2.540   1.444   1.717
 2103TIP3   OH2 6314   2.998   1.750   3.787
 2103TIP3    H1 6315   3.076   1.769   3.735
 2103TIP3    H2 6316   2.967   1.666   3.755
 2104TIP3   OH2 6317   3.694   0.918   3.156
 2104TIP3    H1 6318   3.715   0.921   3.062
 2104TIP3    H2 6319   3.756   0.853   3.191
 2105TIP3   OH2 6320   6.122   4.977   2.385
 2105TIP3    H1 6321   6.135   5.030   2.307
 2105TIP3    H2 6322   6.209   4.972   2.425
 2106TIP3   OH2 6323   2.777   2.578   1.695
 2106TIP3    H1 6324   2.866   2.548   1.716
 2106TIP3    H2 6325   2.736   2.592   1.780
 2107TIP3   OH2 6326   0.407   4.697   2.268
 2107TIP3    H1 6327   0.335   4.759   2.258
 2107TIP3    H2 6328   0.366   4.617   2.299
 2108TIP3   OH2 6329   4.826   2.518   3.838
 2108TIP3    H1 6330   4.885   2.552   3.771
 2108TIP3    H2 6331   4.822   2.424   3.820
 2109TIP3   OH2 6332   2.696   0.070   1.921
 2109TIP3    H1 6333   2.647   0.145   1.887
 2109TIP3    H2 6334   2.786   0.103   1.931
 2110TIP3   OH2 6335   5.704   2.922   0.272
 2110TIP3    H1 6336   5.648   2.946   0.197
 2110TIP3    H2 6337   5.658   2.850   0.313
 2111TIP3   OH2 6338   4.612   5.191   0.979
 2111TIP3    H1 6339   4.661   5.249   1.037
 2111TIP3    H2 6340   4.614   5.235   0.894
 2112TIP3   OH2 6341   5.289   1.955   2.401
 2112TIP3    H1 6342   5.238   1.919   2.473
 2112TIP3    H2 6343   5.248   2.039   2.381
 2113TIP3   OH2 6344   3.679   4.806   4.249
 2113TIP3    H1 6345   3.628   4.886   4.242
 2113TIP3    H2 6346   3.712   4.790   4.160
 2114TIP3   OH2 6347   3.193   0.617   3.074
 2114TIP3    H1 6348   3.192   0.523   3.055
 2114TIP3    H2 6349   3.101   0.643   3.069
 2115TIP3   OH2 6350   4.378   3.650   1.989
 2115TIP3    H1 6351   4.472   3.668   1.984
 2115TIP3    H2 6352   4.347   3.706   2.060
 2116TIP3   OH2 6353   1.957   5.521   3.672
 2116TIP3    H1 6354   1.939   5.450   3.611
 2116TIP3    H2 6355   1.914   5.494   3.753
 2117TIP3   OH2 6356   1.544   0.869   4.943
 2117TIP3    H1 6357   1.591   0.945   4.908
 2117TIP3    H2 6358   1.611   0.817   4.988
 2118TIP3   OH2 6359   1.407   0.726   0.200
 2118TIP3    H1 6360   1.321   0.733   0.159
 2118TIP3    H2 6361   1.447   0.649   0.159
 2119TIP3   OH2 6362   2.944   5.534   3.762
 2119TIP3    H1 6363   2.926   5.484   3.683
 2119TIP3    H2 6364   2.960   5.623   3.730
 2120TIP3   OH2 6365   1.474   4.009   1.286
 2120TIP3    H1 6366   1.461   3.925   1.330
 2120TIP3    H2 6367   1.389   4.051   1.289
 2121TIP3   OH2 6368   3.695   2.143   4.572
 2121TIP3    H1 6369   3.789   2.129   4.588
 2121TIP3    H2 6370   3.693   2.208   4.501
 2122TIP3   OH2 6371   1.343   0.555   1.341
 2122TIP3    H1 6372   1.255   0.565   1.305
 2122TIP3    H2 6373   1.348   0.462   1.366
 2123TIP3   OH2 6374   4.190   2.572   1.345
 2123TIP3    H1 6375   4.125   2.621   1.396
 2123TIP3    H2 6376   4.253   2.639   1.317
 2124TIP3   OH2 6377   3.999   3.366   4.898
 2124TIP3    H1 6378   3.987   3.326   4.812
 2124TIP3    H2 6379   4.093   3.361   4.914
 2125TIP3   OH2 6380   4.274   2.774   2.910
 2125TIP3    H1 6381   4.277   2.719   2.988
 2125TIP3    H2 6382   4.193   2.748   2.865
 2126TIP3   OH2 6383   5.321   0.506   4.195
 2126TIP3    H1 6384   5.352   0.425   4.153
 2126TIP3    H2 6385   5.232   0.518   4.162
 2127TIP3   OH2 6386   1.651   0.126   4.357
 2127TIP3    H1 6387   1.598   0.205   4.349
 2127TIP3    H2 6388   1.741   0.158   4.365
 2128TIP3   OH2 6389   1.644   5.705   2.857
 2128TIP3    H1 6390   1.605   5.626   2.894
 2128TIP3    H2 6391   1.655   5.685   2.764
 2129TIP3   OH2 6392   6.099   0.812   1.405
 2129TIP3    H1 6393   6.032   0.763   1.453
 2129TIP3    H2 6394   6.167   0.830   1.469
 2130TIP3   OH2 6395   1.005   1.190   3.510
 2130TIP3    H1 6396   1.025   1.282   3.530
 2130TIP3    H2 6397   1.059   1.170   3.434
 2131TIP3   OH2 6398   0.702   2.867   0.389
 2131TIP3    H1 6399   0.659   2.850   0.473
 2131TIP3    H2 6400   0.632   2.862   0.325
 2132TIP3   OH2 6401   2.694   2.961   3.109
 2132TIP3    H1 6402   2.783   2.984   3.134
 2132TIP3    H2 6403   2.704   2.902   3.034
 2133TIP3   OH2 6404   5.049   2.431   2.093
 2133TIP3    H1 6405   4.960   2.397   2.082
 2133TIP3    H2 6406   5.106   2.359   2.065
 2134TIP3   OH2 6407   2.557   0.875   0.777
 2134TIP3    H1 6408   2.586   0.818   0.706
 2134TIP3    H2 6409   2.637   0.900   0.822
 2135TIP3   OH2 6410   1.949   3.217   0.604
 2135TIP3    H1 6411   1.968   3.228   0.698
 2135TIP3    H2 6412   2.034   3.200   0.564
 2136TIP3   OH2 6413   4.209   1.144   4.257
 2136TIP3    H1 6414   4.185   1.064   4.210
 2136TIP3    H2 6415   4.155   1.142   4.336
 2137TIP3   OH2 6416   1.000   4.649   2.463
 2137TIP3    H1 6417   1.042   4.695   2.391
 2137TIP3    H2 6418   0.979   4.562   2.428
 2138TIP3   OH2 6419   0.899   4.565   4.240
 2138TIP3    H1 6420   0.900   4.631   4.309
 2138TIP3    H2 6421   0.964   4.501   4.268
 2139TIP3   OH2 6422   0.517   1.186   0.118
 2139TIP3    H1 6423   0.597   1.133   0.122
 2139TIP3    H2 6424   0.541   1.263   0.066
 2140TIP3   OH2 6425   3.993   2.121   1.388
 2140TIP3    H1 6426   3.944   2.184   1.441
 2140TIP3    H2 6427   4.052   2.175   1.335
 2141TIP3   OH2 6428   5.112   0.743   4.227
 2141TIP3    H1 6429   5.035   0.799   4.235
 2141TIP3    H2 6430   5.119   0.698   4.311
 2142TIP3   OH2 6431   4.729   1.646   3.976
 2142TIP3    H1 6432   4.756   1.732   4.009
 2142TIP3    H2 6433   4.799   1.587   4.001
 2143TIP3   OH2 6434   2.565   5.596   0.089
 2143TIP3    H1 6435   2.522   5.593   0.175
 2143TIP3    H2 6436   2.581   5.504   0.068
 2144TIP3   OH2 6437   2.000   5.479   2.263
 2144TIP3    H1 6438   2.053   5.520   2.195
 2144TIP3    H2 6439   1.959   5.403   2.220
 2145TIP3   OH2 6440   2.539   0.036   3.324
 2145TIP3    H1 6441   2.492   0.106   3.370
 2145TIP3    H2 6442   2.630   0.067   3.321
 2146TIP3   OH2 6443   0.582   1.837   5.010
 2146TIP3    H1 6444   0.624   1.915   5.048
 2146TIP3    H2 6445   0.594   1.848   4.915
 2147TIP3   OH2 6446   1.524   3.569   1.884
 2147TIP3    H1 6447   1.554   3.612   1.805
 2147TIP3    H2 6448   1.551   3.478   1.874
 2148TIP3   OH2 6449   2.220   2.637   2.859
 2148TIP3    H1 6450   2.150   2.587   2.818
 2148TIP3    H2 6451   2.295   2.627   2.800
 2149TIP3   OH2 6452   0.795   5.026   2.347
 2149TIP3    H1 6453   0.714   5.001   2.304
 2149TIP3    H2 6454   0.788   4.987   2.435
 2150TIP3   OH2 6455   2.865   5.066   4.949
 2150TIP3    H1 6456   2.786   5.076   4.895
 2150TIP3    H2 6457   2.892   5.155   4.969
 2151TIP3   OH2 6458   4.965   1.566   3.565
 2151TIP3    H1 6459   4.925   1.498   3.619
 2151TIP3    H2 6460   5.040   1.596   3.617
 2152TIP3   OH2 6461   5.025   5.519   2.286
 2152TIP3    H1 6462   4.949   5.556   2.241
 2152TIP3    H2 6463   5.072   5.595   2.320
 2153TIP3   OH2 6464   2.550   5.346   3.376
 2153TIP3    H1 6465   2.644   5.364   3.370
 2153TIP3    H2 6466   2.513   5.426   3.413
 2154TIP3   OH2 6467   2.846   4.912   3.257
 2154TIP3    H1 6468   2.893   4.928   3.175
 2154TIP3    H2 6469   2.864   4.989   3.311
 2155TIP3   OH2 6470   2.436   5.793   3.521
 2155TIP3    H1 6471   2.350   5.817   3.556
 2155TIP3    H2 6472   2.417   5.724   3.457
 2156TIP3   OH2 6473   5.098   1.331   0.643
 2156TIP3    H1 6474   5.033   1.261   0.638
 2156TIP3    H2 6475   5.048   1.408   0.669
 2157TIP3   OH2 6476   5.895   4.830   3.605
 2157TIP3    H1 6477   5.806   4.821   3.571
 2157TIP3    H2 6478   5.897   4.776   3.683
 2158TIP3   OH2 6479   1.456   4.955   2.123
 2158TIP3    H1 6480   1.392   4.937   2.055
 2158TIP3    H2 6481   1.404   4.960   2.204
 2159TIP3   OH2 6482   2.113   3.272   2.868
 2159TIP3    H1 6483   2.096   3.247   2.777
 2159TIP3    H2 6484   2.136   3.365   2.864
 2160TIP3   OH2 6485   5.775   0.965   1.847
 2160TIP3    H1 6486   5.816   1.020   1.780
 2160TIP3    H2 6487   5.830   0.978   1.924
 2161TIP3   OH2 6488   5.956   5.093   1.164
 2161TIP3    H1 6489   5.941   5.008   1.122
 2161TIP3    H2 6490   6.051   5.095   1.179
 2162TIP3   OH2 6491   2.354   4.922   2.065
 2162TIP3    H1 6492   2.354   4.869   2.145
 2162TIP3    H2 6493   2.297   4.996   2.085
 2163TIP3   OH2 6494   3.458   3.975   1.567
 2163TIP3    H1 6495   3.470   4.005   1.476
 2163TIP3    H2 6496   3.536   4.006   1.613
 2164TIP3   OH2 6497   4.315   3.332   1.543
 2164TIP3    H1 6498   4.235   3.358   1.497
 2164TIP3    H2 6499   4.383   3.335   1.476
 2165TIP3   OH2 6500   0.414   0.692   0.495
 2165TIP3    H1 6501   0.471   0.669   0.423
 2165TIP3    H2 6502   0.377   0.777   0.472
 2166TIP3   OH2 6503   1.179   5.189   3.651
 2166TIP3    H1 6504   1.098   5.152   3.618
 2166TIP3    H2 6505   1.210   5.126   3.716
 2167TIP3   OH2 6506   6.026   4.461   4.526
 2167TIP3    H1 6507   6.033   4.405   4.448
 2167TIP3    H2 6508   6.059   4.545   4.497
 2168TIP3   OH2 6509   0.706   5.111   5.198
 2168TIP3    H1 6510   0.790   5.151   5.177
 2168TIP3    H2 6511   0.669   5.087   5.113
 2169TIP3   OH2 6512   4.058   4.035   2.630
 2169TIP3    H1 6513   4.055   4.099   2.701
 2169TIP3    H2 6514   4.121   3.969   2.660
 2170TIP3   OH2 6515   3.452   0.969   4.258
 2170TIP3    H1 6516   3.386   0.999   4.321
 2170TIP3    H2 6517   3.425   1.008   4.175
 2171TIP3   OH2 6518   1.922   3.882   3.296
 2171TIP3    H1 6519   1.902   3.807   3.239
 2171TIP3    H2 6520   2.017   3.878   3.308
 2172TIP3   OH2 6521   1.845   2.629   5.102
 2172TIP3    H1 6522   1.806   2.689   5.165
 2172TIP3    H2 6523   1.868   2.551   5.153
 2173TIP3   OH2 6524   0.983   1.708   3.773
 2173TIP3    H1 6525   1.021   1.711   3.685
 2173TIP3    H2 6526   0.950   1.797   3.788
 2174TIP3   OH2 6527   1.956   1.235   0.533
 2174TIP3    H1 6528   1.966   1.329   0.519
 2174TIP3    H2 6529   2.044   1.199   0.526
 2175TIP3   OH2 6530   3.766   2.595   3.173
 2175TIP3    H1 6531   3.682   2.549   3.167
 2175TIP3    H2 6532   3.816   2.546   3.238
 2176TIP3   OH2 6533   4.302   0.005   1.519
 2176TIP3    H1 6534   4.251   0.074   1.561
 2176TIP3    H2 6535   4.363   0.052   1.462
 2177TIP3   OH2 6536   3.912   1.367   3.858
 2177TIP3    H1 6537   3.920   1.441   3.799
 2177TIP3    H2 6538   3.823   1.375   3.894
 2178TIP3   OH2 6539   4.971   4.547   2.443
 2178TIP3    H1 6540   4.951   4.550   2.537
 2178TIP3    H2 6541   4.925   4.623   2.407
 2179TIP3   OH2 6542   0.645   3.982   3.983
 2179TIP3    H1 6543   0.634   4.013   3.893
 2179TIP3    H2 6544   0.575   3.917   3.994
 2180TIP3   OH2 6545   6.222   5.257   5.104
 2180TIP3    H1 6546   6.311   5.240   5.074
 2180TIP3    H2 6547   6.178   5.298   5.030
 2181TIP3   OH2 6548   5.044   2.952   1.281
 2181TIP3    H1 6549   5.078   3.005   1.209
 2181TIP3    H2 6550   5.037   2.864   1.244
 2182TIP3   OH2 6551   6.114   2.026   1.491
 2182TIP3    H1 6552   6.065   2.092   1.441
 2182TIP3    H2 6553   6.146   1.965   1.424
 2183TIP3   OH2 6554   4.133   5.897   1.884
 2183TIP3    H1 6555   4.102   5.807   1.869
 2183TIP3    H2 6556   4.075   5.951   1.831
 2184TIP3   OH2 6557   0.485   0.549   3.564
 2184TIP3    H1 6558   0.575   0.570   3.541
 2184TIP3    H2 6559   0.487   0.539   3.659
 2185TIP3   OH2 6560   3.509   1.141   3.279
 2185TIP3    H1 6561   3.571   1.193   3.331
 2185TIP3    H2 6562   3.558   1.062   3.255
 2186TIP3   OH2 6563   2.836   1.844   0.661
 2186TIP3    H1 6564   2.750   1.838   0.702
 2186TIP3    H2 6565   2.885   1.906   0.716
 2187TIP3   OH2 6566   5.953   5.113   0.856
 2187TIP3    H1 6567   5.960   5.028   0.900
 2187TIP3    H2 6568   5.859   5.130   0.851
 2188TIP3   OH2 6569   2.276   5.382   2.290
 2188TIP3    H1 6570   2.265   5.448   2.222
 2188TIP3    H2 6571   2.200   5.324   2.281
 2189TIP3   OH2 6572   3.801   0.237   1.045
 2189TIP3    H1 6573   3.872   0.264   1.104
 2189TIP3    H2 6574   3.833   0.156   1.005
 2190TIP3   OH2 6575   5.914   4.047   0.410
 2190TIP3    H1 6576   5.843   4.014   0.354
 2190TIP3    H2 6577   5.966   4.103   0.353
 2191TIP3   OH2 6578   1.290   4.253   4.873
 2191TIP3    H1 6579   1.343   4.185   4.915
 2191TIP3    H2 6580   1.238   4.289   4.945
 2192TIP3   OH2 6581   5.974   2.398   2.909
 2192TIP3    H1 6582   5.883   2.423   2.891
 2192TIP3    H2 6583   5.967   2.310   2.946
 2193TIP3   OH2 6584   0.636   0.082   4.652
 2193TIP3    H1 6585   0.612   0.060   4.742
 2193TIP3    H2 6586   0.676   0.002   4.617
 2194TIP3   OH2 6587   5.590   4.244   4.789
 2194TIP3    H1 6588   5.562   4.198   4.710
 2194TIP3    H2 6589   5.508   4.268   4.833
 2195TIP3   OH2 6590   3.535   5.432   0.207
 2195TIP3    H1 6591   3.543   5.349   0.254
 2195TIP3    H2 6592   3.488   5.489   0.268
 2196TIP3   OH2 6593   2.017   2.395   2.217
 2196TIP3    H1 6594   1.957   2.389   2.142
 2196TIP3    H2 6595   1.973   2.452   2.279
 2197TIP3   OH2 6596   4.595   5.878   1.399
 2197TIP3    H1 6597   4.649   5.929   1.338
 2197TIP3    H2 6598   4.635   5.894   1.484
 2198TIP3   OH2 6599   3.934   0.736   2.716
 2198TIP3    H1 6600   3.928   0.659   2.772
 2198TIP3    H2 6601   4.009   0.785   2.749
 2199TIP3   OH2 6602   0.905   4.451   0.824
 2199TIP3    H1 6603   0.993   4.416   0.813
 2199TIP3    H2 6604   0.918   4.546   0.828
 2200TIP3   OH2 6605   4.719   3.153   4.623
 2200TIP3    H1 6606   4.660   3.147   4.548
 2200TIP3    H2 6607   4.775   3.076   4.616
 2201TIP3   OH2 6608   3.146   0.037   3.590
 2201TIP3    H1 6609   3.052   0.025   3.603
 2201TIP3    H2 6610   3.185   0.021   3.676
 2202TIP3   OH2 6611   0.300   2.700   0.398
 2202TIP3    H1 6612   0.237   2.640   0.358
 2202TIP3    H2 6613   0.341   2.649   0.469
 2203TIP3   OH2 6614   1.004   5.698   4.179
 2203TIP3    H1 6615   1.031   5.787   4.202
 2203TIP3    H2 6616   1.085   5.658   4.146
 2204TIP3   OH2 6617   3.136   1.055   4.923
 2204TIP3    H1 6618   3.164   1.024   4.837
 2204TIP3    H2 6619   3.213   1.100   4.958
 2205TIP3   OH2 6620   1.309   4.821   4.569
 2205TIP3    H1 6621   1.383   4.814   4.508
 2205TIP3    H2 6622   1.338   4.883   4.635
 2206TIP3   OH2 6623   5.154   3.824   3.473
 2206TIP3    H1 6624   5.136   3.732   3.456
 2206TIP3    H2 6625   5.248   3.834   3.458
 2207TIP3   OH2 6626   0.361   5.449   3.598
 2207TIP3    H1 6627   0.453   5.423   3.588
 2207TIP3    H2 6628   0.319   5.418   3.517
 2208TIP3   OH2 6629   4.647   0.876   1.799
 2208TIP3    H1 6630   4.710   0.805   1.793
 2208TIP3    H2 6631   4.574   0.840   1.850
 2209TIP3   OH2 6632   5.046   2.720   4.877
 2209TIP3    H1 6633   4.998   2.650   4.921
 2209TIP3    H2 6634   5.122   2.677   4.839
 2210TIP3   OH2 6635   5.794   3.505   1.775
 2210TIP3    H1 6636   5.840   3.541   1.700
 2210TIP3    H2 6637   5.794   3.410   1.760
 2211TIP3   OH2 6638   3.820   3.301   3.305
 2211TIP3    H1 6639   3.743   3.358   3.295
 2211TIP3    H2 6640   3.823   3.251   3.224
 2212TIP3   OH2 6641   3.881   1.654   4.379
 2212TIP3    H1 6642   3.825   1.583   4.349
 2212TIP3    H2 6643   3.890   1.640   4.473
 2213TIP3   OH2 6644   2.045   1.340   0.779
 2213TIP3    H1 6645   2.103   1.290   0.836
 2213TIP3    H2 6646   2.078   1.430   0.784
 2214TIP3   OH2 6647   2.976   1.760   4.057
 2214TIP3    H1 6648   3.051   1.815   4.079
 2214TIP3    H2 6649   2.980   1.750   3.962
 2215TIP3   OH2 6650   2.349   5.981   1.924
 2215TIP3    H1 6651   2.434   5.940   1.905
 2215TIP3    H2 6652   2.366   6.037   2.000
 2216TIP3   OH2 6653   0.994   1.558   1.642
 2216TIP3    H1 6654   0.999   1.507   1.560
 2216TIP3    H2 6655   0.973   1.647   1.614
 2217TIP3   OH2 6656   4.940   2.955   3.184
 2217TIP3    H1 6657   4.888   3.034   3.201
 2217TIP3    H2 6658   4.888   2.884   3.222
 2218TIP3   OH2 6659   3.957   4.980   5.033
 2218TIP3    H1 6660   4.022   5.040   4.998
 2218TIP3    H2 6661   3.886   4.982   4.969
 2219TIP3   OH2 6662   0.530   5.172   3.371
 2219TIP3    H1 6663   0.573   5.186   3.456
 2219TIP3    H2 6664   0.599   5.189   3.307
 2220TIP3   OH2 6665   3.969   3.801   4.796
 2220TIP3    H1 6666   4.007   3.773   4.713
 2220TIP3    H2 6667   3.911   3.874   4.772
 2221TIP3   OH2 6668   1.921   0.943   2.614
 2221TIP3    H1 6669   1.880   0.857   2.616
 2221TIP3    H2 6670   2.015   0.925   2.614
 2222TIP3   OH2 6671   4.971   2.836   0.427
 2222TIP3    H1 6672   4.949   2.748   0.396
 2222TIP3    H2 6673   4.895   2.889   0.406
 2223TIP3   OH2 6674   3.249   4.568   2.730
 2223TIP3    H1 6675   3.320   4.511   2.700
 2223TIP3    H2 6676   3.179   4.556   2.666
 2224TIP3   OH2 6677   2.923   0.768   0.086
 2224TIP3    H1 6678   3.004   0.718   0.074
 2224TIP3    H2 6679   2.949   0.841   0.143
 2225TIP3   OH2 6680   4.759   1.044   3.071
 2225TIP3    H1 6681   4.678   1.085   3.041
 2225TIP3    H2 6682   4.827   1.108   3.051
 2226TIP3   OH2 6683   4.195   2.829   2.021
 2226TIP3    H1 6684   4.160   2.899   2.076
 2226TIP3    H2 6685   4.285   2.818   2.049
 2227TIP3   OH2 6686   2.888   4.513   2.005
 2227TIP3    H1 6687   2.961   4.451   2.004
 2227TIP3    H2 6688   2.817   4.469   1.958
 2228TIP3   OH2 6689   4.450   0.621   2.806
 2228TIP3    H1 6690   4.438   0.673   2.885
 2228TIP3    H2 6691   4.538   0.643   2.776
 2229TIP3   OH2 6692   2.044   3.887   1.892
 2229TIP3    H1 6693   1.979   3.929   1.949
 2229TIP3    H2 6694   2.079   3.959   1.840
 2230TIP3   OH2 6695   0.218   4.364   0.840
 2230TIP3    H1 6696   0.295   4.365   0.897
 2230TIP3    H2 6697   0.201   4.271   0.825
 2231TIP3   OH2 6698   5.578   1.856   4.283
 2231TIP3    H1 6699   5.520   1.874   4.356
 2231TIP3    H2 6700   5.641   1.928   4.283
 2232TIP3   OH2 6701   3.174   2.177   1.631
 2232TIP3    H1 6702   3.206   2.100   1.677
 2232TIP3    H2 6703   3.185   2.249   1.693
 2233TIP3   OH2 6704   1.859   4.032   4.315
 2233TIP3    H1 6705   1.898   3.991   4.392
 2233TIP3    H2 6706   1.817   4.111   4.348
 2234TIP3   OH2 6707   0.757   3.809   1.953
 2234TIP3    H1 6708   0.742   3.763   2.035
 2234TIP3    H2 6709   0.718   3.753   1.886
 2235TIP3   OH2 6710   2.991   1.438   1.866
 2235TIP3    H1 6711   3.039   1.365   1.827
 2235TIP3    H2 6712   2.982   1.502   1.796
 2236TIP3   OH2 6713   6.200   3.518   1.045
 2236TIP3    H1 6714   6.130   3.483   1.101
 2236TIP3    H2 6715   6.154   3.566   0.976
 2237TIP3   OH2 6716   3.819   3.494   1.962
 2237TIP3    H1 6717   3.743   3.467   1.911
 2237TIP3    H2 6718   3.782   3.540   2.038
 2238TIP3   OH2 6719   1.439   4.426   4.728
 2238TIP3    H1 6720   1.396   4.505   4.760
 2238TIP3    H2 6721   1.388   4.354   4.764
 2239TIP3   OH2 6722   2.707   0.622  -0.008
 2239TIP3    H1 6723   2.631   0.680  -0.015
 2239TIP3    H2 6724   2.775   0.676   0.033
 2240TIP3   OH2 6725   2.684   2.818   4.927
 2240TIP3    H1 6726   2.676   2.841   5.019
 2240TIP3    H2 6727   2.616   2.752   4.913
 2241TIP3   OH2 6728   1.634   4.668   0.541
 2241TIP3    H1 6729   1.633   4.764   0.538
 2241TIP3    H2 6730   1.554   4.642   0.496
 2242TIP3   OH2 6731   0.111   5.379   3.723
 2242TIP3    H1 6732   0.042   5.394   3.659
 2242TIP3    H2 6733   0.191   5.410   3.680
 2243TIP3   OH2 6734   2.253   3.882   0.734
 2243TIP3    H1 6735   2.321   3.826   0.772
 2243TIP3    H2 6736   2.231   3.840   0.651
 2244TIP3   OH2 6737   1.804   0.195   3.607
 2244TIP3    H1 6738   1.851   0.175   3.526
 2244TIP3    H2 6739   1.857   0.261   3.651
 2245TIP3   OH2 6740   1.396   1.954   1.030
 2245TIP3    H1 6741   1.473   1.958   0.974
 2245TIP3    H2 6742   1.419   1.894   1.100
 2246TIP3   OH2 6743   0.722   4.058   2.580
 2246TIP3    H1 6744   0.766   4.104   2.651
 2246TIP3    H2 6745   0.774   3.978   2.567
 2247TIP3   OH2 6746   0.906   0.248   0.164
 2247TIP3    H1 6747   0.988   0.250   0.114
 2247TIP3    H2 6748   0.846   0.303   0.114
 2248TIP3   OH2 6749   0.934   2.404   4.357
 2248TIP3    H1 6750   0.947   2.475   4.419
 2248TIP3    H2 6751   0.842   2.380   4.366
 2249TIP3   OH2 6752   1.402   5.848   3.879
 2249TIP3    H1 6753   1.423   5.816   3.967
 2249TIP3    H2 6754   1.479   5.898   3.853
 2250TIP3   OH2 6755   5.479   1.203   0.203
 2250TIP3    H1 6756   5.449   1.116   0.227
 2250TIP3    H2 6757   5.401   1.247   0.168
 2251TIP3   OH2 6758   4.800   2.639   2.404
 2251TIP3    H1 6759   4.877   2.587   2.378
 2251TIP3    H2 6760   4.765   2.673   2.322
 2252TIP3   OH2 6761   0.275   0.583   4.834
 2252TIP3    H1 6762   0.272   0.520   4.905
 2252TIP3    H2 6763   0.185   0.588   4.802
 2253TIP3   OH2 6764   1.762   1.235   2.043
 2253TIP3    H1 6765   1.711   1.243   2.124
 2253TIP3    H2 6766   1.838   1.182   2.068
 2254TIP3   OH2 6767   2.193   3.619   1.509
 2254TIP3    H1 6768   2.099   3.631   1.525
 2254TIP3    H2 6769   2.206   3.647   1.418
 2255TIP3   OH2 6770   3.352   0.416   4.941
 2255TIP3    H1 6771   3.284   0.465   4.895
 2255TIP3    H2 6772   3.306   0.341   4.979
 2256TIP3   OH2 6773   5.752   3.085   3.987
 2256TIP3    H1 6774   5.674   3.037   4.016
 2256TIP3    H2 6775   5.769   3.148   4.057
 2257TIP3   OH2 6776   0.489   3.662   1.537
 2257TIP3    H1 6777   0.414   3.719   1.522
 2257TIP3    H2 6778   0.562   3.707   1.495
 2258TIP3   OH2 6779   2.424   4.023   3.156
 2258TIP3    H1 6780   2.355   4.086   3.138
 2258TIP3    H2 6781   2.474   4.017   3.074
 2259TIP3   OH2 6782   2.638   3.185   4.251
 2259TIP3    H1 6783   2.655   3.135   4.331
 2259TIP3    H2 6784   2.710   3.162   4.192
 2260TIP3   OH2 6785   0.530   2.377   2.973
 2260TIP3    H1 6786   0.451   2.395   3.024
 2260TIP3    H2 6787   0.518   2.287   2.941
 2261TIP3   OH2 6788   5.490   1.648   4.792
 2261TIP3    H1 6789   5.432   1.572   4.791
 2261TIP3    H2 6790   5.564   1.623   4.737
 2262TIP3   OH2 6791   5.027   3.662   4.166
 2262TIP3    H1 6792   5.011   3.693   4.077
 2262TIP3    H2 6793   4.940   3.647   4.203
 2263TIP3   OH2 6794   3.570   3.017   2.719
 2263TIP3    H1 6795   3.613   3.081   2.775
 2263TIP3    H2 6796   3.603   2.933   2.750
 2264TIP3   OH2 6797   0.635   5.133   0.067
 2264TIP3    H1 6798   0.663   5.075  -0.004
 2264TIP3    H2 6799   0.593   5.075   0.130
 2265TIP3   OH2 6800   5.443   3.482   1.588
 2265TIP3    H1 6801   5.434   3.566   1.633
 2265TIP3    H2 6802   5.527   3.487   1.543
 2266TIP3   OH2 6803   3.016   5.089   1.415
 2266TIP3    H1 6804   3.030   5.181   1.394
 2266TIP3    H2 6805   3.104   5.052   1.421
 2267TIP3   OH2 6806   5.025   3.900   0.603
 2267TIP3    H1 6807   5.102   3.953   0.583
 2267TIP3    H2 6808   5.056   3.834   0.664
 2268TIP3   OH2 6809   4.188   4.643   0.037
 2268TIP3    H1 6810   4.157   4.568  -0.015
 2268TIP3    H2 6811   4.165   4.620   0.127
 2269TIP3   OH2 6812   4.016   2.505   3.331
 2269TIP3    H1 6813   3.958   2.557   3.386
 2269TIP3    H2 6814   4.097   2.497   3.382
 2270TIP3   OH2 6815   3.223   1.785   0.144
 2270TIP3    H1 6816   3.258   1.748   0.226
 2270TIP3    H2 6817   3.132   1.757   0.142
 2271TIP3   OH2 6818   6.018   1.817   0.317
 2271TIP3    H1 6819   6.095   1.775   0.279
 2271TIP3    H2 6820   5.996   1.887   0.256
 2272TIP3   OH2 6821   3.440   5.140   4.925
 2272TIP3    H1 6822   3.479   5.065   4.971
 2272TIP3    H2 6823   3.384   5.182   4.991
 2273TIP3   OH2 6824   4.702   3.836   0.040
 2273TIP3    H1 6825   4.770   3.896   0.070
 2273TIP3    H2 6826   4.750   3.762   0.003
 2274TIP3   OH2 6827   5.363   2.392   3.741
 2274TIP3    H1 6828   5.345   2.485   3.736
 2274TIP3    H2 6829   5.400   2.370   3.656
 2275TIP3   OH2 6830   0.791   2.721   1.294
 2275TIP3    H1 6831   0.827   2.639   1.259
 2275TIP3    H2 6832   0.868   2.776   1.310
 2276TIP3   OH2 6833   4.952   3.858   1.070
 2276TIP3    H1 6834   5.014   3.831   1.138
 2276TIP3    H2 6835   4.887   3.788   1.066
 2277TIP3   OH2 6836   0.514   2.183   1.683
 2277TIP3    H1 6837   0.499   2.260   1.628
 2277TIP3    H2 6838   0.430   2.170   1.729
 2278TIP3   OH2 6839   2.575   4.227  -0.003
 2278TIP3    H1 6840   2.626   4.148   0.013
 2278TIP3    H2 6841   2.518   4.234   0.073
 2279TIP3   OH2 6842   0.961   1.743   2.604
 2279TIP3    H1 6843   0.994   1.803   2.537
 2279TIP3    H2 6844   0.871   1.771   2.619
 2280TIP3   OH2 6845   1.408   4.575   0.400
 2280TIP3    H1 6846   1.319   4.587   0.432
 2280TIP3    H2 6847   1.411   4.485   0.368
 2281TIP3   OH2 6848   1.415   2.888   3.180
 2281TIP3    H1 6849   1.369   2.805   3.167
 2281TIP3    H2 6850   1.508   2.864   3.176
 2282TIP3   OH2 6851   0.558   1.456   0.475
 2282TIP3    H1 6852   0.632   1.396   0.460
 2282TIP3    H2 6853   0.596   1.528   0.525
 2283TIP3   OH2 6854   2.982   3.422   4.036
 2283TIP3    H1 6855   3.004   3.466   3.954
 2283TIP3    H2 6856   3.051   3.356   4.046
 2284TIP3   OH2 6857   0.912   2.064   1.324
 2284TIP3    H1 6858   0.966   2.098   1.253
 2284TIP3    H2 6859   0.974   2.019   1.382
 2285TIP3   OH2 6860   1.948   2.216   4.906
 2285TIP3    H1 6861   1.998   2.135   4.896
 2285TIP3    H2 6862   1.916   2.213   4.996
 2286TIP3   OH2 6863   6.040   4.222   2.506
 2286TIP3    H1 6864   6.100   4.211   2.432
 2286TIP3    H2 6865   5.975   4.152   2.494
 2287TIP3   OH2 6866   3.288   3.739   1.061
 2287TIP3    H1 6867   3.312   3.729   0.969
 2287TIP3    H2 6868   3.200   3.702   1.067
 2288TIP3   OH2 6869   4.855   5.279   4.742
 2288TIP3    H1 6870   4.840   5.372   4.754
 2288TIP3    H2 6871   4.912   5.273   4.666
 2289TIP3   OH2 6872   3.006   2.807   4.978
 2289TIP3    H1 6873   2.958   2.747   5.035
 2289TIP3    H2 6874   2.980   2.782   4.889
 2290TIP3   OH2 6875   1.069   0.575   1.248
 2290TIP3    H1 6876   1.044   0.654   1.200
 2290TIP3    H2 6877   0.989   0.525   1.255
 2291TIP3   OH2 6878   0.379   1.268   4.065
 2291TIP3    H1 6879   0.387   1.297   4.156
 2291TIP3    H2 6880   0.400   1.346   4.014
 2292TIP3   OH2 6881   3.183   2.876   2.570
 2292TIP3    H1 6882   3.199   2.969   2.586
 2292TIP3    H2 6883   3.120   2.875   2.497
 2293TIP3   OH2 6884   2.488   3.316   4.495
 2293TIP3    H1 6885   2.562   3.359   4.538
 2293TIP3    H2 6886   2.514   3.311   4.403
 2294TIP3   OH2 6887   1.356   3.530   3.088
 2294TIP3    H1 6888   1.436   3.579   3.104
 2294TIP3    H2 6889   1.346   3.530   2.993
 2295TIP3   OH2 6890   1.102   1.585   0.344
 2295TIP3    H1 6891   1.070   1.527   0.413
 2295TIP3    H2 6892   1.191   1.555   0.327
 2296TIP3   OH2 6893   3.980   4.548   3.649
 2296TIP3    H1 6894   3.976   4.547   3.553
 2296TIP3    H2 6895   4.062   4.503   3.670
 2297TIP3   OH2 6896   2.543   5.643   0.761
 2297TIP3    H1 6897   2.573   5.677   0.845
 2297TIP3    H2 6898   2.450   5.625   0.773
 2298TIP3   OH2 6899   4.731   2.541   2.857
 2298TIP3    H1 6900   4.658   2.553   2.918
 2298TIP3    H2 6901   4.809   2.549   2.912
 2299TIP3   OH2 6902   4.046   4.841   3.110
 2299TIP3    H1 6903   4.037   4.916   3.168
 2299TIP3    H2 6904   4.115   4.788   3.150
 2300TIP3   OH2 6905   0.402   5.274   0.355
 2300TIP3    H1 6906   0.378   5.357   0.396
 2300TIP3    H2 6907   0.494   5.261   0.378
 2301TIP3   OH2 6908   4.143   5.150   4.931
 2301TIP3    H1 6909   4.206   5.217   4.958
 2301TIP3    H2 6910   4.194   5.091   4.875
 2302TIP3   OH2 6911   3.734   2.259   3.907
 2302TIP3    H1 6912   3.814   2.211   3.888
 2302TIP3    H2 6913   3.664   2.202   3.874
 2303TIP3   OH2 6914   2.386   2.713   3.107
 2303TIP3    H1 6915   2.398   2.761   3.025
 2303TIP3    H2 6916   2.472   2.676   3.126
 2304TIP3   OH2 6917   4.703   0.609   3.219
 2304TIP3    H1 6918   4.756   0.558   3.280
 2304TIP3    H2 6919   4.717   0.700   3.244
 2305TIP3   OH2 6920   1.005   1.446   1.401
 2305TIP3    H1 6921   0.972   1.363   1.367
 2305TIP3    H2 6922   1.000   1.506   1.327
 2306TIP3   OH2 6923   2.923   2.633   0.699
 2306TIP3    H1 6924   2.949   2.580   0.623
 2306TIP3    H2 6925   3.001   2.634   0.755
 2307TIP3   OH2 6926   6.118   5.534   5.105
 2307TIP3    H1 6927   6.048   5.583   5.148
 2307TIP3    H2 6928   6.076   5.494   5.029
 2308TIP3   OH2 6929   0.920  -0.043   2.116
 2308TIP3    H1 6930   0.923  -0.013   2.025
 2308TIP3    H2 6931   0.974   0.020   2.163
 2309TIP3   OH2 6932   2.543   4.071   3.400
 2309TIP3    H1 6933   2.504   4.068   3.312
 2309TIP3    H2 6934   2.584   3.985   3.411
 2310TIP3   OH2 6935   3.651   3.908   0.125
 2310TIP3    H1 6936   3.713   3.890   0.055
 2310TIP3    H2 6937   3.573   3.858   0.101
 2311TIP3   OH2 6938   0.766   1.318   1.584
 2311TIP3    H1 6939   0.836   1.269   1.539
 2311TIP3    H2 6940   0.751   1.268   1.664
 2312TIP3   OH2 6941   5.541   3.448   4.110
 2312TIP3    H1 6942   5.518   3.525   4.161
 2312TIP3    H2 6943   5.463   3.393   4.112
 2313TIP3   OH2 6944   3.256   4.951   1.866
 2313TIP3    H1 6945   3.191   4.884   1.885
 2313TIP3    H2 6946   3.215   5.034   1.891
 2314TIP3   OH2 6947   6.066   5.784   0.865
 2314TIP3    H1 6948   5.984   5.733   0.869
 2314TIP3    H2 6949   6.130   5.729   0.910
 2315TIP3   OH2 6950   1.467   3.451   4.373
 2315TIP3    H1 6951   1.427   3.538   4.378
 2315TIP3    H2 6952   1.518   3.453   4.292
 2316TIP3   OH2 6953   2.020   3.759   0.097
 2316TIP3    H1 6954   1.976   3.833   0.137
 2316TIP3    H2 6955   1.952   3.692   0.089
 2317TIP3   OH2 6956   2.753   2.133   0.045
 2317TIP3    H1 6957   2.733   2.043   0.070
 2317TIP3    H2 6958   2.716   2.143  -0.042
 2318TIP3   OH2 6959   4.917   0.549   2.132
 2318TIP3    H1 6960   4.857   0.477   2.110
 2318TIP3    H2 6961   4.860   0.621   2.158
 2319TIP3   OH2 6962   1.001   4.590   2.855
 2319TIP3    H1 6963   0.986   4.642   2.777
 2319TIP3    H2 6964   1.063   4.522   2.827
 2320TIP3   OH2 6965   4.762   0.755   2.135
 2320TIP3    H1 6966   4.776   0.801   2.052
 2320TIP3    H2 6967   4.710   0.816   2.188
 2321TIP3   OH2 6968   1.147   0.816   3.641
 2321TIP3    H1 6969   1.235   0.787   3.665
 2321TIP3    H2 6970   1.150   0.827   3.546
 2322TIP3   OH2 6971   4.003   2.281   4.387
 2322TIP3    H1 6972   4.008   2.215   4.456
 2322TIP3    H2 6973   4.074   2.342   4.406
 2323TIP3   OH2 6974   2.940   0.530   2.450
 2323TIP3    H1 6975   2.899   0.586   2.516
 2323TIP3    H2 6976   3.016   0.493   2.495
 2324TIP3   OH2 6977   4.407   1.573   4.177
 2324TIP3    H1 6978   4.497   1.592   4.148
 2324TIP3    H2 6979   4.373   1.514   4.111
 2325TIP3   OH2 6980   5.612   2.638   2.001
 2325TIP3    H1 6981   5.587   2.728   2.026
 2325TIP3    H2 6982   5.609   2.590   2.084
 2326TIP3   OH2 6983   3.327   3.999   3.857
 2326TIP3    H1 6984   3.277   3.967   3.932
 2326TIP3    H2 6985   3.343   4.091   3.876
 2327TIP3   OH2 6986   1.659   4.997   2.898
 2327TIP3    H1 6987   1.736   5.052   2.914
 2327TIP3    H2 6988   1.676   4.917   2.947
 2328TIP3   OH2 6989   2.170   0.623   1.619
 2328TIP3    H1 6990   2.164   0.690   1.551
 2328TIP3    H2 6991   2.131   0.545   1.579
 2329TIP3   OH2 6992   4.673   2.553   3.167
 2329TIP3    H1 6993   4.767   2.538   3.168
 2329TIP3    H2 6994   4.635   2.477   3.210
 2330TIP3   OH2 6995   3.811   5.266   2.857
 2330TIP3    H1 6996   3.879   5.312   2.807
 2330TIP3    H2 6997   3.801   5.317   2.937
 2331TIP3   OH2 6998   1.765   1.196   2.640
 2331TIP3    H1 6999   1.801   1.112   2.613
 2331TIP3    H2 7000   1.671   1.179   2.653
 2332TIP3   OH2 7001   3.842   2.370   1.423
 2332TIP3    H1 7002   3.902   2.383   1.350
 2332TIP3    H2 7003   3.860   2.443   1.482
 2333TIP3   OH2 7004   5.044   2.923   2.886
 2333TIP3    H1 7005   5.010   2.880   2.807
 2333TIP3    H2 7006   4.979   2.903   2.954
 2334TIP3   OH2 7007   0.733   0.607   0.944
 2334TIP3    H1 7008   0.664   0.567   0.891
 2334TIP3    H2 7009   0.728   0.563   1.028
 2335TIP3   OH2 7010   4.180   1.754   0.614
 2335TIP3    H1 7011   4.100   1.734   0.565
 2335TIP3    H2 7012   4.251   1.721   0.558
 2336TIP3   OH2 7013   2.258   5.710   1.868
 2336TIP3    H1 7014   2.294   5.792   1.900
 2336TIP3    H2 7015   2.199   5.736   1.797
 2337TIP3   OH2 7016   5.581   5.579   0.405
 2337TIP3    H1 7017   5.534   5.501   0.377
 2337TIP3    H2 7018   5.625   5.610   0.326
 2338TIP3   OH2 7019   0.583   0.532   1.480
 2338TIP3    H1 7020   0.595   0.562   1.569
 2338TIP3    H2 7021   0.616   0.442   1.481
 2339TIP3   OH2 7022   3.972   4.939   0.319
 2339TIP3    H1 7023   3.953   5.033   0.318
 2339TIP3    H2 7024   3.994   4.918   0.228
 2340TIP3   OH2 7025   2.179   0.352   4.122
 2340TIP3    H1 7026   2.155   0.386   4.036
 2340TIP3    H2 7027   2.267   0.387   4.138
 2341TIP3   OH2 7028   1.668   4.697   3.864
 2341TIP3    H1 7029   1.704   4.612   3.838
 2341TIP3    H2 7030   1.702   4.758   3.799
 2342TIP3   OH2 7031   0.769   0.274   3.660
 2342TIP3    H1 7032   0.694   0.264   3.602
 2342TIP3    H2 7033   0.832   0.326   3.609
 2343TIP3   OH2 7034   1.143   2.435   0.192
 2343TIP3    H1 7035   1.048   2.422   0.197
 2343TIP3    H2 7036   1.175   2.420   0.281
 2344TIP3   OH2 7037   2.735   5.279   1.234
 2344TIP3    H1 7038   2.655   5.331   1.225
 2344TIP3    H2 7039   2.795   5.315   1.168
 2345TIP3   OH2 7040   3.956   3.060   2.424
 2345TIP3    H1 7041   4.014   3.086   2.495
 2345TIP3    H2 7042   3.878   3.115   2.436
 2346TIP3   OH2 7043   5.610   0.977   2.760
 2346TIP3    H1 7044   5.516   0.958   2.765
 2346TIP3    H2 7045   5.649   0.928   2.832
 2347TIP3   OH2 7046   0.195   0.872   2.914
 2347TIP3    H1 7047   0.267   0.913   2.865
 2347TIP3    H2 7048   0.118   0.921   2.888
 2348TIP3   OH2 7049   0.894   2.990   3.336
 2348TIP3    H1 7050   0.835   2.944   3.277
 2348TIP3    H2 7051   0.939   2.920   3.384
 2349TIP3   OH2 7052   5.106   2.699   0.189
 2349TIP3    H1 7053   5.155   2.667   0.264
 2349TIP3    H2 7054   5.051   2.625   0.162
 2350TIP3   OH2 7055   2.904   1.539   3.666
 2350TIP3    H1 7056   2.873   1.455   3.633
 2350TIP3    H2 7057   2.987   1.555   3.621
 2351TIP3   OH2 7058   1.008   5.953   2.550
 2351TIP3    H1 7059   1.028   5.953   2.644
 2351TIP3    H2 7060   1.089   5.928   2.508
 2352TIP3   OH2 7061   0.705   2.591   3.730
 2352TIP3    H1 7062   0.724   2.566   3.821
 2352TIP3    H2 7063   0.736   2.681   3.723
 2353TIP3   OH2 7064   2.057   4.914   0.295
 2353TIP3    H1 7065   1.976   4.964   0.300
 2353TIP3    H2 7066   2.106   4.955   0.223
 2354TIP3   OH2 7067   1.392   0.900   3.002
 2354TIP3    H1 7068   1.478   0.900   3.045
 2354TIP3    H2 7069   1.393   0.979   2.947
 2355TIP3   OH2 7070   5.557   4.481   1.441
 2355TIP3    H1 7071   5.615   4.511   1.510
 2355TIP3    H2 7072   5.612   4.476   1.363
 2356TIP3   OH2 7073   5.832   5.456   4.708
 2356TIP3    H1 7074   5.887   5.502   4.771
 2356TIP3    H2 7075   5.747   5.500   4.713
 2357TIP3   OH2 7076   5.832   2.890   4.653
 2357TIP3    H1 7077   5.798   2.800   4.656
 2357TIP3    H2 7078   5.761   2.944   4.688
 2358TIP3   OH2 7079   6.047   3.649   2.114
 2358TIP3    H1 7080   6.044   3.647   2.018
 2358TIP3    H2 7081   6.141   3.651   2.135
 2359TIP3   OH2 7082   3.529   3.757   0.451
 2359TIP3    H1 7083   3.612   3.784   0.413
 2359TIP3    H2 7084   3.473   3.835   0.444
 2360TIP3   OH2 7085   4.779   1.941   3.956
 2360TIP3    H1 7086   4.713   1.928   3.888
 2360TIP3    H2 7087   4.771   2.034   3.980
 2361TIP3   OH2 7088   5.497   2.830   3.034
 2361TIP3    H1 7089   5.497   2.920   3.068
 2361TIP3    H2 7090   5.590   2.808   3.024
 2362TIP3   OH2 7091   3.493   0.528   2.185
 2362TIP3    H1 7092   3.474   0.451   2.131
 2362TIP3    H2 7093   3.519   0.595   2.122
 2363TIP3   OH2 7094   0.521   1.549   3.380
 2363TIP3    H1 7095   0.530   1.485   3.450
 2363TIP3    H2 7096   0.568   1.511   3.306
 2364TIP3   OH2 7097   4.047   1.231   2.467
 2364TIP3    H1 7098   3.953   1.237   2.450
 2364TIP3    H2 7099   4.087   1.297   2.411
 2365TIP3   OH2 7100   0.031   2.353   4.537
 2365TIP3    H1 7101   0.017   2.399   4.620
 2365TIP3    H2 7102   0.113   2.305   4.550
 2366TIP3   OH2 7103   4.265   0.427   3.215
 2366TIP3    H1 7104   4.265   0.487   3.290
 2366TIP3    H2 7105   4.358   0.417   3.194
 2367TIP3   OH2 7106   0.005   0.645   2.283
 2367TIP3    H1 7107   0.085   0.680   2.245
 2367TIP3    H2 7108  -0.037   0.721   2.324
 2368TIP3   OH2 7109   0.566   2.039   4.546
 2368TIP3    H1 7110   0.632   1.972   4.560
 2368TIP3    H2 7111   0.484   1.991   4.540
 2369TIP3   OH2 7112   0.552   2.065   3.562
 2369TIP3    H1 7113   0.536   2.092   3.471
 2369TIP3    H2 7114   0.619   2.126   3.592
 2370TIP3   OH2 7115   0.042   3.241   3.218
 2370TIP3    H1 7116   0.057   3.203   3.305
 2370TIP3    H2 7117   0.026   3.334   3.235
 2371TIP3   OH2 7118   2.185   1.526   3.453
 2371TIP3    H1 7119   2.154   1.543   3.365
 2371TIP3    H2 7120   2.118   1.469   3.491
 2372TIP3   OH2 7121   1.739   1.462   3.963
 2372TIP3    H1 7122   1.663   1.517   3.941
 2372TIP3    H2 7123   1.813   1.523   3.963
 2373TIP3   OH2 7124   2.171   2.555   1.945
 2373TIP3    H1 7125   2.139   2.466   1.932
 2373TIP3    H2 7126   2.252   2.559   1.894
 2374TIP3   OH2 7127   5.190   3.192   5.000
 2374TIP3    H1 7128   5.184   3.098   5.015
 2374TIP3    H2 7129   5.237   3.226   5.077
 2375TIP3   OH2 7130   4.068   0.374   2.302
 2375TIP3    H1 7131   4.052   0.448   2.243
 2375TIP3    H2 7132   4.149   0.335   2.269
 2376TIP3   OH2 7133   3.376   1.355   3.154
 2376TIP3    H1 7134   3.416   1.269   3.167
 2376TIP3    H2 7135   3.352   1.384   3.242
 2377TIP3   OH2 7136   0.245   4.263   4.775
 2377TIP3    H1 7137   0.328   4.228   4.743
 2377TIP3    H2 7138   0.269   4.343   4.823
 2378TIP3   OH2 7139   4.191   0.726   3.729
 2378TIP3    H1 7140   4.165   0.704   3.818
 2378TIP3    H2 7141   4.176   0.646   3.678
 2379TIP3   OH2 7142   4.222   1.493   1.665
 2379TIP3    H1 7143   4.291   1.477   1.729
 2379TIP3    H2 7144   4.253   1.450   1.585
 2380TIP3   OH2 7145   5.615   1.872   0.243
 2380TIP3    H1 7146   5.691   1.927   0.263
 2380TIP3    H2 7147   5.567   1.920   0.176
 2381TIP3   OH2 7148   5.999   3.231   1.347
 2381TIP3    H1 7149   6.092   3.210   1.355
 2381TIP3    H2 7150   5.955   3.158   1.390
 2382TIP3   OH2 7151   0.808   4.797   0.536
 2382TIP3    H1 7152   0.722   4.778   0.498
 2382TIP3    H2 7153   0.793   4.873   0.592
 2383TIP3   OH2 7154   0.495   5.241   2.645
 2383TIP3    H1 7155   0.542   5.165   2.612
 2383TIP3    H2 7156   0.556   5.314   2.637
 2384TIP3   OH2 7157   4.234   1.414   2.339
 2384TIP3    H1 7158   4.194   1.486   2.388
 2384TIP3    H2 7159   4.326   1.415   2.366
 2385TIP3   OH2 7160   2.105   2.517   1.628
 2385TIP3    H1 7161   2.094   2.433   1.673
 2385TIP3    H2 7162   2.027   2.567   1.653
 2386TIP3   OH2 7163   2.806   0.381   2.044
 2386TIP3    H1 7164   2.873   0.441   2.077
 2386TIP3    H2 7165   2.855   0.310   2.002
 2387TIP3   OH2 7166   4.171   1.367   4.626
 2387TIP3    H1 7167   4.193   1.275   4.641
 2387TIP3    H2 7168   4.214   1.389   4.544
 2388TIP3   OH2 7169   5.760   2.051   4.270
 2388TIP3    H1 7170   5.840   2.103   4.272
 2388TIP3    H2 7171   5.689   2.115   4.261
 2389TIP3   OH2 7172   4.402   3.885   0.943
 2389TIP3    H1 7173   4.356   3.848   0.868
 2389TIP3    H2 7174   4.485   3.838   0.946
 2390TIP3   OH2 7175   6.257   1.484   1.711
 2390TIP3    H1 7176   6.315   1.533   1.769
 2390TIP3    H2 7177   6.309   1.468   1.633
 2391TIP3   OH2 7178   1.485   2.564   0.935
 2391TIP3    H1 7179   1.494   2.603   1.022
 2391TIP3    H2 7180   1.435   2.628   0.885
 2392TIP3   OH2 7181   1.038   5.986   2.214
 2392TIP3    H1 7182   1.106   5.975   2.281
 2392TIP3    H2 7183   1.026   5.899   2.177
 2393TIP3   OH2 7184   3.178   0.360   4.233
 2393TIP3    H1 7185   3.214   0.446   4.210
 2393TIP3    H2 7186   3.237   0.297   4.190
 2394TIP3   OH2 7187   5.366   0.723   0.165
 2394TIP3    H1 7188   5.400   0.754   0.081
 2394TIP3    H2 7189   5.342   0.803   0.212
 2395TIP3   OH2 7190   2.097   2.823   0.244
 2395TIP3    H1 7191   2.162   2.894   0.242
 2395TIP3    H2 7192   2.123   2.765   0.172
 2396TIP3   OH2 7193   1.495   1.881   4.540
 2396TIP3    H1 7194   1.513   1.913   4.451
 2396TIP3    H2 7195   1.430   1.941   4.574
 2397TIP3   OH2 7196   2.728   0.727   2.087
 2397TIP3    H1 7197   2.766   0.809   2.056
 2397TIP3    H2 7198   2.711   0.677   2.007
 2398TIP3   OH2 7199   3.227   1.589   2.432
 2398TIP3    H1 7200   3.215   1.674   2.475
 2398TIP3    H2 7201   3.165   1.589   2.359
 2399TIP3   OH2 7202   1.260   0.048   4.884
 2399TIP3    H1 7203   1.224   0.061   4.796
 2399TIP3    H2 7204   1.206   0.104   4.940
 2400TIP3   OH2 7205   6.251   5.095   1.189
 2400TIP3    H1 7206   6.248   5.183   1.228
 2400TIP3    H2 7207   6.277   5.110   1.099
 2401TIP3   OH2 7208   2.753   2.100   4.111
 2401TIP3    H1 7209   2.804   2.052   4.176
 2401TIP3    H2 7210   2.754   2.045   4.033
 2402TIP3   OH2 7211   6.315   4.043   1.198
 2402TIP3    H1 7212   6.276   4.002   1.276
 2402TIP3    H2 7213   6.334   3.969   1.140
 2403TIP3   OH2 7214   3.457   4.748   3.956
 2403TIP3    H1 7215   3.545   4.775   3.930
 2403TIP3    H2 7216   3.422   4.703   3.879
 2404TIP3   OH2 7217   2.392   0.249   4.935
 2404TIP3    H1 7218   2.437   0.243   4.851
 2404TIP3    H2 7219   2.460   0.273   4.997
 2405TIP3   OH2 7220   3.700   0.374   3.109
 2405TIP3    H1 7221   3.680   0.281   3.116
 2405TIP3    H2 7222   3.782   0.385   3.156
 2406TIP3   OH2 7223   2.633   4.175   2.729
 2406TIP3    H1 7224   2.711   4.120   2.739
 2406TIP3    H2 7225   2.664   4.263   2.748
 2407TIP3   OH2 7226   3.520   0.832   3.754
 2407TIP3    H1 7227   3.501   0.751   3.706
 2407TIP3    H2 7228   3.492   0.902   3.695
 2408TIP3   OH2 7229   5.556   4.953   2.704
 2408TIP3    H1 7230   5.467   4.957   2.671
 2408TIP3    H2 7231   5.586   4.865   2.681
 2409TIP3   OH2 7232   5.121   4.255   1.675
 2409TIP3    H1 7233   5.093   4.211   1.595
 2409TIP3    H2 7234   5.172   4.330   1.646
 2410TIP3   OH2 7235   5.593   5.606   4.719
 2410TIP3    H1 7236   5.606   5.644   4.806
 2410TIP3    H2 7237   5.568   5.681   4.664
 2411TIP3   OH2 7238   0.278   0.657   2.654
 2411TIP3    H1 7239   0.366   0.662   2.617
 2411TIP3    H2 7240   0.272   0.733   2.712
 2412TIP3   OH2 7241   4.693   5.179   4.992
 2412TIP3    H1 7242   4.722   5.183   4.901
 2412TIP3    H2 7243   4.617   5.120   4.991
 2413TIP3   OH2 7244   1.917   5.111   2.454
 2413TIP3    H1 7245   1.911   5.160   2.372
 2413TIP3    H2 7246   1.833   5.065   2.462
 2414TIP3   OH2 7247   3.902   5.476   1.629
 2414TIP3    H1 7248   3.947   5.394   1.606
 2414TIP3    H2 7249   3.942   5.542   1.573
 2415TIP3   OH2 7250   0.038   0.751   4.417
 2415TIP3    H1 7251  -0.042   0.700   4.430
 2415TIP3    H2 7252   0.035   0.818   4.486
 2416TIP3   OH2 7253   4.180   1.798   2.679
 2416TIP3    H1 7254   4.175   1.771   2.771
 2416TIP3    H2 7255   4.149   1.723   2.629
 2417TIP3   OH2 7256   1.982   0.538   4.916
 2417TIP3    H1 7257   1.999   0.544   4.822
 2417TIP3    H2 7258   1.898   0.493   4.921
 2418TIP3   OH2 7259   3.424   2.198   0.799
 2418TIP3    H1 7260   3.398   2.254   0.726
 2418TIP3    H2 7261   3.427   2.256   0.875
 2419TIP3   OH2 7262   1.426   5.060   2.997
 2419TIP3    H1 7263   1.454   5.087   3.084
 2419TIP3    H2 7264   1.506   5.060   2.944
 2420TIP3   OH2 7265   1.568   4.758   1.204
 2420TIP3    H1 7266   1.538   4.673   1.239
 2420TIP3    H2 7267   1.613   4.736   1.123
 2421TIP3   OH2 7268   2.614   4.104   3.960
 2421TIP3    H1 7269   2.656   4.179   3.918
 2421TIP3    H2 7270   2.651   4.103   4.049
 2422TIP3   OH2 7271   5.601   5.492   1.082
 2422TIP3    H1 7272   5.667   5.429   1.111
 2422TIP3    H2 7273   5.575   5.461   0.995
 2423TIP3   OH2 7274   3.952   2.717   0.787
 2423TIP3    H1 7275   3.887   2.769   0.740
 2423TIP3    H2 7276   4.035   2.734   0.742
 2424TIP3   OH2 7277   6.271   4.830   1.251
 2424TIP3    H1 7278   6.262   4.809   1.158
 2424TIP3    H2 7279   6.265   4.925   1.256
 2425TIP3   OH2 7280   5.617   0.874   0.085
 2425TIP3    H1 7281   5.683   0.808   0.066
 2425TIP3    H2 7282   5.612   0.877   0.180
 2426TIP3   OH2 7283   4.378   5.973   2.004
 2426TIP3    H1 7284   4.301   5.921   1.979
 2426TIP3    H2 7285   4.344   6.038   2.066
 2427TIP3   OH2 7286   2.311   3.367   1.382
 2427TIP3    H1 7287   2.402   3.376   1.353
 2427TIP3    H2 7288   2.259   3.385   1.304
 2428TIP3   OH2 7289   2.539   3.148   1.524
 2428TIP3    H1 7290   2.631   3.147   1.550
 2428TIP3    H2 7291   2.509   3.237   1.544
 2429TIP3   OH2 7292   0.473   5.090   1.790
 2429TIP3    H1 7293   0.491   5.032   1.865
 2429TIP3    H2 7294   0.381   5.113   1.800
 2430TIP3   OH2 7295   1.083   1.798   1.936
 2430TIP3    H1 7296   1.105   1.862   2.004
 2430TIP3    H2 7297   1.004   1.833   1.895
 2431TIP3   OH2 7298   3.629   4.716   0.300
 2431TIP3    H1 7299   3.569   4.643   0.289
 2431TIP3    H2 7300   3.592   4.768   0.372
 2432TIP3   OH2 7301   1.860   0.838   1.593
 2432TIP3    H1 7302   1.903   0.907   1.544
 2432TIP3    H2 7303   1.871   0.863   1.685
 2433TIP3   OH2 7304   4.926   4.966   0.247
 2433TIP3    H1 7305   4.940   4.985   0.340
 2433TIP3    H2 7306   4.922   4.871   0.242
 2434TIP3   OH2 7307   1.142   3.352   0.816
 2434TIP3    H1 7308   1.131   3.316   0.728
 2434TIP3    H2 7309   1.210   3.419   0.806
 2435TIP3   OH2 7310   2.845   0.106   3.063
 2435TIP3    H1 7311   2.810   0.058   2.989
 2435TIP3    H2 7312   2.899   0.174   3.024
 2436TIP3   OH2 7313   3.225   0.922   0.520
 2436TIP3    H1 7314   3.288   0.969   0.575
 2436TIP3    H2 7315   3.264   0.924   0.433
 2437TIP3   OH2 7316   0.281   0.765   1.055
 2437TIP3    H1 7317   0.232   0.690   1.022
 2437TIP3    H2 7318   0.318   0.735   1.138
 2438TIP3   OH2 7319   2.521   0.277   3.030
 2438TIP3    H1 7320   2.456   0.208   3.015
 2438TIP3    H2 7321   2.552   0.301   2.943
 2439TIP3   OH2 7322   0.103   0.533   0.999
 2439TIP3    H1 7323   0.053   0.502   0.923
 2439TIP3    H2 7324   0.038   0.568   1.059
 2440TIP3   OH2 7325   2.705   2.752   4.313
 2440TIP3    H1 7326   2.666   2.830   4.352
 2440TIP3    H2 7327   2.798   2.774   4.305
 2441TIP3   OH2 7328   1.751   3.422   3.402
 2441TIP3    H1 7329   1.727   3.338   3.442
 2441TIP3    H2 7330   1.847   3.420   3.399
 2442TIP3   OH2 7331   4.605   1.756   1.103
 2442TIP3    H1 7332   4.512   1.770   1.118
 2442TIP3    H2 7333   4.633   1.833   1.054
 2443TIP3   OH2 7334   2.071   2.238   1.171
 2443TIP3    H1 7335   2.088   2.212   1.262
 2443TIP3    H2 7336   2.037   2.158   1.130
 2444TIP3   OH2 7337   5.165   2.695   2.230
 2444TIP3    H1 7338   5.110   2.714   2.307
 2444TIP3    H2 7339   5.123   2.618   2.190
 2445TIP3   OH2 7340   1.162   4.382   2.328
 2445TIP3    H1 7341   1.205   4.465   2.349
 2445TIP3    H2 7342   1.145   4.387   2.234
 2446TIP3   OH2 7343   3.815   5.846   0.497
 2446TIP3    H1 7344   3.725   5.824   0.470
 2446TIP3    H2 7345   3.830   5.791   0.574
 2447TIP3   OH2 7346   1.614   0.951   3.159
 2447TIP3    H1 7347   1.594   1.002   3.237
 2447TIP3    H2 7348   1.683   1.000   3.115
 2448TIP3   OH2 7349   1.710   0.451   4.497
 2448TIP3    H1 7350   1.750   0.387   4.438
 2448TIP3    H2 7351   1.692   0.527   4.441
 2449TIP3   OH2 7352   3.023   0.399   2.946
 2449TIP3    H1 7353   3.020   0.317   2.897
 2449TIP3    H2 7354   3.023   0.373   3.038
 2450TIP3   OH2 7355   0.478   3.149   5.146
 2450TIP3    H1 7356   0.406   3.197   5.185
 2450TIP3    H2 7357   0.556   3.198   5.170
 2451TIP3   OH2 7358   4.778   4.672   1.305
 2451TIP3    H1 7359   4.869   4.691   1.329
 2451TIP3    H2 7360   4.754   4.742   1.244
 2452TIP3   OH2 7361   3.564   1.514   4.325
 2452TIP3    H1 7362   3.636   1.479   4.377
 2452TIP3    H2 7363   3.490   1.456   4.344
 2453TIP3   OH2 7364   4.763   4.870   0.473
 2453TIP3    H1 7365   4.716   4.856   0.555
 2453TIP3    H2 7366   4.700   4.912   0.415
 2454TIP3   OH2 7367   3.628   5.122   0.986
 2454TIP3    H1 7368   3.684   5.185   1.031
 2454TIP3    H2 7369   3.557   5.174   0.949
 2455TIP3   OH2 7370   1.532   1.338   4.568
 2455TIP3    H1 7371   1.537   1.370   4.478
 2455TIP3    H2 7372   1.602   1.384   4.615
 2456TIP3   OH2 7373   3.642   3.167   0.888
 2456TIP3    H1 7374   3.672   3.164   0.797
 2456TIP3    H2 7375   3.547   3.171   0.881
 2457TIP3   OH2 7376   6.232   2.092   4.551
 2457TIP3    H1 7377   6.174   2.075   4.477
 2457TIP3    H2 7378   6.268   2.179   4.535
 2458TIP3   OH2 7379   1.885   2.444   0.232
 2458TIP3    H1 7380   1.794   2.474   0.233
 2458TIP3    H2 7381   1.936   2.522   0.209
 2459TIP3   OH2 7382   5.010   5.361   2.499
 2459TIP3    H1 7383   5.022   5.401   2.413
 2459TIP3    H2 7384   5.092   5.378   2.545
 2460TIP3   OH2 7385   3.846   2.341   0.729
 2460TIP3    H1 7386   3.763   2.339   0.682
 2460TIP3    H2 7387   3.848   2.428   0.769
 2461TIP3   OH2 7388   1.022   4.074   3.944
 2461TIP3    H1 7389   0.972   4.102   4.021
 2461TIP3    H2 7390   0.984   4.123   3.872
 2462TIP3   OH2 7391   0.540   1.608   4.383
 2462TIP3    H1 7392   0.533   1.602   4.478
 2462TIP3    H2 7393   0.619   1.557   4.361
 2463TIP3   OH2 7394   5.421   5.983   3.713
 2463TIP3    H1 7395   5.463   6.029   3.641
 2463TIP3    H2 7396   5.329   5.975   3.687
 2464TIP3   OH2 7397   4.101   4.888   2.265
 2464TIP3    H1 7398   4.123   4.975   2.298
 2464TIP3    H2 7399   4.155   4.878   2.186
 2465TIP3   OH2 7400   5.281   5.876   4.356
 2465TIP3    H1 7401   5.249   5.791   4.386
 2465TIP3    H2 7402   5.329   5.857   4.276
 2466TIP3   OH2 7403   2.128   3.216   4.200
 2466TIP3    H1 7404   2.133   3.236   4.293
 2466TIP3    H2 7405   2.218   3.198   4.174
 2467TIP3   OH2 7406   1.855   5.355   3.880
 2467TIP3    H1 7407   1.794   5.297   3.926
 2467TIP3    H2 7408   1.904   5.398   3.949
 2468TIP3   OH2 7409   3.866   3.742   2.642
 2468TIP3    H1 7410   3.937   3.763   2.703
 2468TIP3    H2 7411   3.787   3.747   2.695
 2469TIP3   OH2 7412   4.059   0.547   1.004
 2469TIP3    H1 7413   3.981   0.544   0.950
 2469TIP3    H2 7414   4.070   0.457   1.036
 2470TIP3   OH2 7415   5.849   0.765   4.779
 2470TIP3    H1 7416   5.791   0.807   4.842
 2470TIP3    H2 7417   5.790   0.723   4.716
 2471TIP3   OH2 7418   0.792   0.353   2.934
 2471TIP3    H1 7419   0.762   0.264   2.914
 2471TIP3    H2 7420   0.716   0.397   2.971
 2472TIP3   OH2 7421   1.864   0.042   0.164
 2472TIP3    H1 7422   1.939   0.074   0.215
 2472TIP3    H2 7423   1.799   0.111   0.171
 2473TIP3   OH2 7424   5.319   0.265   4.051
 2473TIP3    H1 7425   5.336   0.186   4.103
 2473TIP3    H2 7426   5.383   0.261   3.980
 2474TIP3   OH2 7427   5.412   1.940   4.495
 2474TIP3    H1 7428   5.385   2.031   4.499
 2474TIP3    H2 7429   5.439   1.919   4.585
 2475TIP3   OH2 7430   1.507   1.883   5.037
 2475TIP3    H1 7431   1.452   1.929   4.974
 2475TIP3    H2 7432   1.589   1.866   4.990
 2476TIP3   OH2 7433   1.059   4.814   3.070
 2476TIP3    H1 7434   1.096   4.814   3.158
 2476TIP3    H2 7435   1.034   4.723   3.054
 2477TIP3   OH2 7436   1.426   4.608   5.085
 2477TIP3    H1 7437   1.501   4.661   5.059
 2477TIP3    H2 7438   1.446   4.581   5.175
 2478TIP3   OH2 7439   2.356   1.287   4.006
 2478TIP3    H1 7440   2.263   1.309   4.001
 2478TIP3    H2 7441   2.385   1.324   4.090
 2479TIP3   OH2 7442   0.613   0.889   1.467
 2479TIP3    H1 7443   0.534   0.933   1.498
 2479TIP3    H2 7444   0.608   0.801   1.505
 2480TIP3   OH2 7445   0.104   5.852   2.130
 2480TIP3    H1 7446   0.149   5.790   2.187
 2480TIP3    H2 7447   0.174   5.896   2.082
 2481TIP3   OH2 7448   4.705   4.595   2.819
 2481TIP3    H1 7449   4.738   4.681   2.792
 2481TIP3    H2 7450   4.610   4.606   2.822
 2482TIP3   OH2 7451   1.762   4.155   1.446
 2482TIP3    H1 7452   1.806   4.205   1.515
 2482TIP3    H2 7453   1.802   4.068   1.450
 2483TIP3   OH2 7454   4.264   1.723   0.881
 2483TIP3    H1 7455   4.222   1.755   0.801
 2483TIP3    H2 7456   4.277   1.630   0.866
 2484TIP3   OH2 7457   3.210   0.934   2.959
 2484TIP3    H1 7458   3.186   0.846   2.988
 2484TIP3    H2 7459   3.127   0.980   2.949
 2485TIP3   OH2 7460   0.856   0.047   1.673
 2485TIP3    H1 7461   0.910   0.125   1.655
 2485TIP3    H2 7462   0.776   0.082   1.711
 2486TIP3   OH2 7463   3.014   4.731   1.518
 2486TIP3    H1 7464   2.960   4.800   1.478
 2486TIP3    H2 7465   2.955   4.688   1.580
 2487TIP3   OH2 7466   4.460   4.185   2.748
 2487TIP3    H1 7467   4.526   4.204   2.681
 2487TIP3    H2 7468   4.475   4.249   2.817
 2488TIP3   OH2 7469   0.042   0.144   3.351
 2488TIP3    H1 7470   0.051   0.237   3.373
 2488TIP3    H2 7471  -0.026   0.142   3.284
 2489TIP3   OH2 7472   5.041   5.874   5.010
 2489TIP3    H1 7473   4.973   5.810   5.030
 2489TIP3    H2 7474   5.101   5.828   4.952
 2490TIP3   OH2 7475   1.844   0.331   0.940
 2490TIP3    H1 7476   1.784   0.261   0.963
 2490TIP3    H2 7477   1.918   0.321   1.000
 2491TIP3   OH2 7478   0.359   1.865   1.886
 2491TIP3    H1 7479   0.330   1.781   1.921
 2491TIP3    H2 7480   0.454   1.862   1.893
 2492TIP3   OH2 7481   4.442   1.808   2.051
 2492TIP3    H1 7482   4.360   1.761   2.036
 2492TIP3    H2 7483   4.508   1.740   2.059
 2493TIP3   OH2 7484   5.457   4.031   0.565
 2493TIP3    H1 7485   5.523   4.017   0.634
 2493TIP3    H2 7486   5.508   4.045   0.486
 2494TIP3   OH2 7487   3.085   0.876   1.543
 2494TIP3    H1 7488   3.173   0.890   1.506
 2494TIP3    H2 7489   3.055   0.795   1.501
 2495TIP3   OH2 7490   4.937   1.529   2.870
 2495TIP3    H1 7491   4.887   1.578   2.804
 2495TIP3    H2 7492   5.015   1.500   2.824
 2496TIP3   OH2 7493   1.174   2.289   2.917
 2496TIP3    H1 7494   1.258   2.253   2.947
 2496TIP3    H2 7495   1.112   2.264   2.986
 2497TIP3   OH2 7496   4.794   3.308   1.815
 2497TIP3    H1 7497   4.804   3.279   1.725
 2497TIP3    H2 7498   4.758   3.232   1.861
 2498TIP3   OH2 7499   1.265   1.735   4.580
 2498TIP3    H1 7500   1.305   1.655   4.615
 2498TIP3    H2 7501   1.338   1.783   4.541
 2499TIP3   OH2 7502   2.879   2.333   4.012
 2499TIP3    H1 7503   2.812   2.276   4.051
 2499TIP3    H2 7504   2.828   2.398   3.962
 2500TIP3   OH2 7505   1.714   1.335   3.032
 2500TIP3    H1 7506   1.720   1.428   3.009
 2500TIP3    H2 7507   1.645   1.301   2.976
 2501TIP3   OH2 7508   4.773   3.307   0.898
 2501TIP3    H1 7509   4.810   3.219   0.894
 2501TIP3    H2 7510   4.687   3.299   0.857
 2502TIP3   OH2 7511   5.250   1.651   2.510
 2502TIP3    H1 7512   5.264   1.573   2.456
 2502TIP3    H2 7513   5.338   1.679   2.536
 2503TIP3   OH2 7514   0.681   1.792   2.566
 2503TIP3    H1 7515   0.596   1.752   2.587
 2503TIP3    H2 7516   0.675   1.814   2.473
 2504TIP3   OH2 7517   1.577   5.580   4.710
 2504TIP3    H1 7518   1.515   5.514   4.679
 2504TIP3    H2 7519   1.631   5.534   4.774
 2505TIP3   OH2 7520   4.588   3.289   2.362
 2505TIP3    H1 7521   4.532   3.212   2.368
 2505TIP3    H2 7522   4.537   3.360   2.400
 2506TIP3   OH2 7523   2.760   1.634   3.150
 2506TIP3    H1 7524   2.722   1.633   3.062
 2506TIP3    H2 7525   2.751   1.725   3.179
 2507TIP3   OH2 7526   0.934   3.626   2.791
 2507TIP3    H1 7527   0.916   3.719   2.808
 2507TIP3    H2 7528   0.894   3.580   2.864
 2508TIP3   OH2 7529   1.529   3.085   0.261
 2508TIP3    H1 7530   1.589   3.124   0.198
 2508TIP3    H2 7531   1.571   3.099   0.346
 2509TIP3   OH2 7532   0.726   3.733   4.077
 2509TIP3    H1 7533   0.710   3.814   4.029
 2509TIP3    H2 7534   0.711   3.663   4.013
 2510TIP3   OH2 7535   3.612   1.885   4.354
 2510TIP3    H1 7536   3.689   1.941   4.369
 2510TIP3    H2 7537   3.584   1.859   4.441
 2511TIP3   OH2 7538   4.555   3.276   0.745
 2511TIP3    H1 7539   4.502   3.328   0.685
 2511TIP3    H2 7540   4.572   3.195   0.697
 2512TIP3   OH2 7541   5.794   1.205   2.617
 2512TIP3    H1 7542   5.878   1.159   2.618
 2512TIP3    H2 7543   5.734   1.146   2.662
 2513TIP3   OH2 7544   1.845   4.506   0.466
 2513TIP3    H1 7545   1.778   4.554   0.516
 2513TIP3    H2 7546   1.877   4.439   0.527
 2514TIP3   OH2 7547   6.194   1.274   1.877
 2514TIP3    H1 7548   6.135   1.299   1.948
 2514TIP3    H2 7549   6.202   1.353   1.824
 2515TIP3   OH2 7550   4.537   1.078   5.112
 2515TIP3    H1 7551   4.553   0.984   5.117
 2515TIP3    H2 7552   4.443   1.087   5.127
 2516TIP3   OH2 7553   1.673   5.746   4.910
 2516TIP3    H1 7554   1.617   5.773   4.837
 2516TIP3    H2 7555   1.700   5.657   4.887
 2517TIP3   OH2 7556   3.475   2.807   3.124
 2517TIP3    H1 7557   3.516   2.874   3.178
 2517TIP3    H2 7558   3.462   2.733   3.183
 2518TIP3   OH2 7559   5.608   5.158   0.506
 2518TIP3    H1 7560   5.619   5.172   0.412
 2518TIP3    H2 7561   5.627   5.243   0.545
 2519TIP3   OH2 7562   2.123   0.418   3.577
 2519TIP3    H1 7563   2.212   0.416   3.611
 2519TIP3    H2 7564   2.068   0.409   3.654
 2520TIP3   OH2 7565   5.766   5.016   3.286
 2520TIP3    H1 7566   5.812   4.933   3.290
 2520TIP3    H2 7567   5.673   4.992   3.290
 2521TIP3   OH2 7568   5.694   5.112   0.834
 2521TIP3    H1 7569   5.622   5.173   0.851
 2521TIP3    H2 7570   5.651   5.030   0.809
 2522TIP3   OH2 7571   1.180   0.704   0.996
 2522TIP3    H1 7572   1.272   0.729   0.989
 2522TIP3    H2 7573   1.144   0.766   1.060
 2523TIP3   OH2 7574   5.297   5.015   4.686
 2523TIP3    H1 7575   5.324   4.941   4.742
 2523TIP3    H2 7576   5.224   5.055   4.733
 2524TIP3   OH2 7577   4.220   1.550   4.868
 2524TIP3    H1 7578   4.197   1.492   4.795
 2524TIP3    H2 7579   4.155   1.531   4.935
 2525TIP3   OH2 7580   5.451   5.597   1.289
 2525TIP3    H1 7581   5.496   5.546   1.223
 2525TIP3    H2 7582   5.460   5.688   1.260
 2526TIP3   OH2 7583   3.499   4.565   3.036
 2526TIP3    H1 7584   3.530   4.646   3.078
 2526TIP3    H2 7585   3.559   4.498   3.066
 2527TIP3   OH2 7586   4.083   3.961   0.272
 2527TIP3    H1 7587   4.062   4.034   0.213
 2527TIP3    H2 7588   4.047   3.988   0.357
 2528TIP3   OH2 7589   4.994   0.988   4.784
 2528TIP3    H1 7590   5.015   1.080   4.795
 2528TIP3    H2 7591   5.036   0.963   4.702
 2529TIP3   OH2 7592   1.236   2.768   0.580
 2529TIP3    H1 7593   1.267   2.734   0.496
 2529TIP3    H2 7594   1.142   2.747   0.581
 2530TIP3   OH2 7595   0.468   3.448   2.707
 2530TIP3    H1 7596   0.512   3.483   2.630
 2530TIP3    H2 7597   0.386   3.496   2.711
 2531TIP3   OH2 7598   6.212   0.407   2.230
 2531TIP3    H1 7599   6.156   0.429   2.156
 2531TIP3    H2 7600   6.253   0.490   2.255
 2532TIP3   OH2 7601   4.811   0.067   2.875
 2532TIP3    H1 7602   4.728   0.115   2.875
 2532TIP3    H2 7603   4.785  -0.025   2.877
 2533TIP3   OH2 7604   5.046   3.136   3.442
 2533TIP3    H1 7605   5.066   3.042   3.439
 2533TIP3    H2 7606   5.115   3.174   3.497
 2534TIP3   OH2 7607   6.301   1.443   1.375
 2534TIP3    H1 7608   6.359   1.474   1.305
 2534TIP3    H2 7609   6.253   1.370   1.336
 2535TIP3   OH2 7610   5.397   3.495   3.581
 2535TIP3    H1 7611   5.491   3.482   3.572
 2535TIP3    H2 7612   5.365   3.507   3.491
 2536TIP3   OH2 7613   6.321   3.165   2.758
 2536TIP3    H1 7614   6.284   3.196   2.841
 2536TIP3    H2 7615   6.374   3.090   2.781
 2537TIP3   OH2 7616   2.502   0.959   4.646
 2537TIP3    H1 7617   2.500   1.051   4.669
 2537TIP3    H2 7618   2.456   0.915   4.717
 2538TIP3   OH2 7619   0.880   3.076   4.778
 2538TIP3    H1 7620   0.826   3.040   4.708
 2538TIP3    H2 7621   0.941   3.135   4.733
 2539TIP3   OH2 7622   0.383   1.937   4.143
 2539TIP3    H1 7623   0.391   1.843   4.126
 2539TIP3    H2 7624   0.387   1.944   4.238
 2540TIP3   OH2 7625   0.981   3.593   2.530
 2540TIP3    H1 7626   0.959   3.585   2.623
 2540TIP3    H2 7627   1.017   3.508   2.506
 2541TIP3   OH2 7628   2.480   1.586   4.835
 2541TIP3    H1 7629   2.555   1.626   4.878
 2541TIP3    H2 7630   2.404   1.624   4.879
 2542TIP3   OH2 7631   2.692   2.802   4.632
 2542TIP3    H1 7632   2.681   2.772   4.722
 2542TIP3    H2 7633   2.684   2.722   4.579
 2543TIP3   OH2 7634   4.927   3.104   0.765
 2543TIP3    H1 7635   4.904   3.012   0.753
 2543TIP3    H2 7636   5.015   3.112   0.728
 2544TIP3   OH2 7637   4.873   0.834   1.299
 2544TIP3    H1 7638   4.871   0.827   1.203
 2544TIP3    H2 7639   4.950   0.887   1.317
 2545TIP3   OH2 7640   0.283   4.349   5.058
 2545TIP3    H1 7641   0.315   4.423   5.006
 2545TIP3    H2 7642   0.221   4.389   5.119
 2546TIP3   OH2 7643   6.023   2.797   1.189
 2546TIP3    H1 7644   5.970   2.767   1.116
 2546TIP3    H2 7645   6.057   2.882   1.160
 2547TIP3   OH2 7646   0.102   0.056   5.166
 2547TIP3    H1 7647   0.016   0.017   5.151
 2547TIP3    H2 7648   0.133   0.014   5.245
 2548TIP3   OH2 7649   3.184   4.618   1.907
 2548TIP3    H1 7650   3.134   4.554   1.856
 2548TIP3    H2 7651   3.275   4.591   1.898
 2549TIP3   OH2 7652   3.211   1.894   4.118
 2549TIP3    H1 7653   3.265   1.827   4.161
 2549TIP3    H2 7654   3.255   1.976   4.139
 2550TIP3   OH2 7655   4.615   5.521   3.070
 2550TIP3    H1 7656   4.634   5.611   3.043
 2550TIP3    H2 7657   4.533   5.528   3.119
 2551TIP3   OH2 7658   0.496   3.093   4.270
 2551TIP3    H1 7659   0.515   3.180   4.236
 2551TIP3    H2 7660   0.506   3.035   4.195
 2552TIP3   OH2 7661   2.721   2.504   1.967
 2552TIP3    H1 7662   2.785   2.553   2.018
 2552TIP3    H2 7663   2.637   2.528   2.006
 2553TIP3   OH2 7664   5.589   1.556   3.185
 2553TIP3    H1 7665   5.495   1.539   3.180
 2553TIP3    H2 7666   5.606   1.616   3.112
 2554TIP3   OH2 7667   0.427   5.890   2.073
 2554TIP3    H1 7668   0.368   5.887   1.997
 2554TIP3    H2 7669   0.504   5.937   2.042
 2555TIP3   OH2 7670   5.525   0.546   5.051
 2555TIP3    H1 7671   5.522   0.472   4.990
 2555TIP3    H2 7672   5.446   0.536   5.104
 2556TIP3   OH2 7673   1.020   0.586   0.048
 2556TIP3    H1 7674   1.065   0.506   0.074
 2556TIP3    H2 7675   1.070   0.656   0.091
 2557TIP3   OH2 7676   0.128   5.712   4.090
 2557TIP3    H1 7677   0.179   5.641   4.129
 2557TIP3    H2 7678   0.138   5.785   4.151
 2558TIP3   OH2 7679   5.031   3.461   1.791
 2558TIP3    H1 7680   4.952   3.412   1.767
 2558TIP3    H2 7681   5.055   3.427   1.877
 2559TIP3   OH2 7682   0.382   0.490   4.240
 2559TIP3    H1 7683   0.397   0.399   4.213
 2559TIP3    H2 7684   0.313   0.484   4.306
 2560TIP3   OH2 7685   1.181   1.906   4.868
 2560TIP3    H1 7686   1.194   1.917   4.774
 2560TIP3    H2 7687   1.224   1.824   4.889
 2561TIP3   OH2 7688   4.398   1.160   4.678
 2561TIP3    H1 7689   4.312   1.143   4.638
 2561TIP3    H2 7690   4.410   1.088   4.741
 2562TIP3   OH2 7691   3.722   4.020   3.016
 2562TIP3    H1 7692   3.686   4.070   3.090
 2562TIP3    H2 7693   3.671   4.048   2.941
 2563TIP3   OH2 7694   5.130   1.373   2.121
 2563TIP3    H1 7695   5.118   1.301   2.058
 2563TIP3    H2 7696   5.192   1.338   2.185
 2564TIP3   OH2 7697   5.455   4.221   1.441
 2564TIP3    H1 7698   5.509   4.187   1.370
 2564TIP3    H2 7699   5.498   4.302   1.467
 2565TIP3   OH2 7700   1.913   4.651   3.356
 2565TIP3    H1 7701   1.872   4.737   3.345
 2565TIP3    H2 7702   2.001   4.671   3.390
 2566TIP3   OH2 7703   2.333   3.912   4.759
 2566TIP3    H1 7704   2.419   3.870   4.750
 2566TIP3    H2 7705   2.271   3.839   4.757
 2567TIP3   OH2 7706   3.899   0.575   2.924
 2567TIP3    H1 7707   3.833   0.608   2.985
 2567TIP3    H2 7708   3.906   0.481   2.945
 2568TIP3   OH2 7709   5.810   0.139   3.062
 2568TIP3    H1 7710   5.856   0.192   2.996
 2568TIP3    H2 7711   5.759   0.077   3.011
 2569TIP3   OH2 7712   1.752   0.712   2.534
 2569TIP3    H1 7713   1.721   0.695   2.623
 2569TIP3    H2 7714   1.792   0.630   2.507
 2570TIP3   OH2 7715   0.675   2.790   0.788
 2570TIP3    H1 7716   0.712   2.847   0.855
 2570TIP3    H2 7717   0.735   2.715   0.785
 2571TIP3   OH2 7718   6.097   5.249   3.484
 2571TIP3    H1 7719   6.009   5.211   3.481
 2571TIP3    H2 7720   6.094   5.322   3.422
 2572TIP3   OH2 7721   1.254   1.398   5.205
 2572TIP3    H1 7722   1.213   1.315   5.228
 2572TIP3    H2 7723   1.181   1.456   5.182
 2573TIP3   OH2 7724   5.303   2.694   3.644
 2573TIP3    H1 7725   5.293   2.726   3.734
 2573TIP3    H2 7726   5.339   2.770   3.597
 2574TIP3   OH2 7727   5.150   1.890   3.873
 2574TIP3    H1 7728   5.132   1.983   3.864
 2574TIP3    H2 7729   5.194   1.881   3.957
 2575TIP3   OH2 7730   4.394   5.715   5.139
 2575TIP3    H1 7731   4.316   5.684   5.185
 2575TIP3    H2 7732   4.390   5.673   5.053
 2576TIP3   OH2 7733   1.765   3.841   4.683
 2576TIP3    H1 7734   1.834   3.866   4.621
 2576TIP3    H2 7735   1.744   3.921   4.729
 2577TIP3   OH2 7736   3.177   3.321   3.084
 2577TIP3    H1 7737   3.149   3.352   3.171
 2577TIP3    H2 7738   3.265   3.358   3.074
 2578TIP3   OH2 7739   1.566   0.939   0.081
 2578TIP3    H1 7740   1.515   0.874   0.130
 2578TIP3    H2 7741   1.519   0.948  -0.002
 2579TIP3   OH2 7742   4.066   1.639   2.446
 2579TIP3    H1 7743   4.019   1.721   2.430
 2579TIP3    H2 7744   4.013   1.572   2.401
 2580TIP3   OH2 7745   3.251   4.042   3.460
 2580TIP3    H1 7746   3.201   4.092   3.396
 2580TIP3    H2 7747   3.185   4.009   3.521
 2581TIP3   OH2 7748   0.639   4.975   2.640
 2581TIP3    H1 7749   0.591   4.941   2.716
 2581TIP3    H2 7750   0.597   4.935   2.564
 2582TIP3   OH2 7751   0.650   1.438   0.841
 2582TIP3    H1 7752   0.608   1.470   0.921
 2582TIP3    H2 7753   0.631   1.506   0.776
 2583TIP3   OH2 7754   1.807   5.196   4.359
 2583TIP3    H1 7755   1.785   5.289   4.361
 2583TIP3    H2 7756   1.898   5.191   4.388
 2584TIP3   OH2 7757   3.547   0.368   2.855
 2584TIP3    H1 7758   3.574   0.369   2.947
 2584TIP3    H2 7759   3.630   0.364   2.806
 2585TIP3   OH2 7760   2.866   1.025   2.509
 2585TIP3    H1 7761   2.829   1.105   2.547
 2585TIP3    H2 7762   2.800   0.994   2.448
 2586TIP3   OH2 7763   5.414   3.513   1.987
 2586TIP3    H1 7764   5.345   3.545   1.930
 2586TIP3    H2 7765   5.495   3.532   1.939
 2587TIP3   OH2 7766   6.066   0.102   1.458
 2587TIP3    H1 7767   6.149   0.055   1.468
 2587TIP3    H2 7768   6.000   0.033   1.451
 2588TIP3   OH2 7769   0.900   4.245   5.081
 2588TIP3    H1 7770   0.916   4.270   5.172
 2588TIP3    H2 7771   0.939   4.316   5.029
 2589TIP3   OH2 7772   5.678   3.187   3.723
 2589TIP3    H1 7773   5.702   3.163   3.813
 2589TIP3    H2 7774   5.743   3.253   3.698
 2590TIP3   OH2 7775   6.297   0.128   2.437
 2590TIP3    H1 7776   6.334   0.215   2.449
 2590TIP3    H2 7777   6.373   0.071   2.423
 2591TIP3   OH2 7778   5.736   5.793   0.684
 2591TIP3    H1 7779   5.724   5.872   0.631
 2591TIP3    H2 7780   5.829   5.771   0.674
 2592TIP3   OH2 7781   5.600   3.997   1.865
 2592TIP3    H1 7782   5.548   4.045   1.801
 2592TIP3    H2 7783   5.667   4.059   1.893
 2593TIP3   OH2 7784   3.094  -0.002   0.601
 2593TIP3    H1 7785   3.067   0.057   0.530
 2593TIP3    H2 7786   3.151   0.051   0.656
 2594TIP3   OH2 7787   2.593   5.921   4.507
 2594TIP3    H1 7788   2.548   5.958   4.431
 2594TIP3    H2 7789   2.661   5.985   4.528
 2595TIP3   OH2 7790   1.723   3.812   4.299
 2595TIP3    H1 7791   1.746   3.773   4.214
 2595TIP3    H2 7792   1.783   3.886   4.309
 2596TIP3   OH2 7793   0.036   3.880   4.077
 2596TIP3    H1 7794   0.048   3.841   4.164
 2596TIP3    H2 7795   0.122   3.913   4.054
 2597TIP3   OH2 7796   4.196   0.625   3.018
 2597TIP3    H1 7797   4.183   0.536   3.051
 2597TIP3    H2 7798   4.289   0.642   3.034
 2598TIP3   OH2 7799   0.312   0.426   0.577
 2598TIP3    H1 7800   0.366   0.369   0.522
 2598TIP3    H2 7801   0.341   0.515   0.555
 2599TIP3   OH2 7802   2.402   3.979   0.089
 2599TIP3    H1 7803   2.374   3.941   0.172
 2599TIP3    H2 7804   2.343   3.941   0.024
 2600TIP3   OH2 7805   2.963   1.537   3.297
 2600TIP3    H1 7806   3.011   1.616   3.322
 2600TIP3    H2 7807   2.898   1.567   3.233
 2601TIP3   OH2 7808   0.596   0.166   1.730
 2601TIP3    H1 7809   0.546   0.120   1.798
 2601TIP3    H2 7810   0.617   0.251   1.769
 2602TIP3   OH2 7811   1.343   4.506   3.716
 2602TIP3    H1 7812   1.252   4.480   3.722
 2602TIP3    H2 7813   1.383   4.442   3.658
 2603TIP3   OH2 7814   0.268   2.690   1.291
 2603TIP3    H1 7815   0.356   2.713   1.261
 2603TIP3    H2 7816   0.263   2.595   1.277
 2604TIP3   OH2 7817   2.451   3.044   3.915
 2604TIP3    H1 7818   2.393   2.967   3.918
 2604TIP3    H2 7819   2.487   3.043   3.826
 2605TIP3   OH2 7820   1.432   4.493   4.187
 2605TIP3    H1 7821   1.391   4.496   4.273
 2605TIP3    H2 7822   1.390   4.419   4.143
 2606TIP3   OH2 7823   1.831   3.105   4.235
 2606TIP3    H1 7824   1.791   3.027   4.197
 2606TIP3    H2 7825   1.915   3.114   4.190
 2607TIP3   OH2 7826   1.908   1.131   1.202
 2607TIP3    H1 7827   1.842   1.069   1.170
 2607TIP3    H2 7828   1.858   1.199   1.246
 2608TIP3   OH2 7829   3.674   2.727   1.003
 2608TIP3    H1 7830   3.766   2.744   0.981
 2608TIP3    H2 7831   3.673   2.727   1.099
 2609TIP3   OH2 7832   5.640   4.391   2.677
 2609TIP3    H1 7833   5.717   4.447   2.676
 2609TIP3    H2 7834   5.588   4.423   2.603
 2610TIP3   OH2 7835   2.105   2.066   2.504
 2610TIP3    H1 7836   2.104   2.160   2.489
 2610TIP3    H2 7837   2.013   2.040   2.502
 2611TIP3   OH2 7838   1.283   2.730   1.960
 2611TIP3    H1 7839   1.290   2.748   1.866
 2611TIP3    H2 7840   1.319   2.642   1.970
 2612TIP3   OH2 7841   5.748   4.782   1.190
 2612TIP3    H1 7842   5.810   4.829   1.245
 2612TIP3    H2 7843   5.781   4.794   1.101
 2613TIP3   OH2 7844   2.683   2.393   2.601
 2613TIP3    H1 7845   2.673   2.401   2.506
 2613TIP3    H2 7846   2.776   2.408   2.617
 2614TIP3   OH2 7847   4.933   2.781   2.661
 2614TIP3    H1 7848   4.864   2.780   2.595
 2614TIP3    H2 7849   4.998   2.719   2.627
 2615TIP3   OH2 7850   3.790   1.798   3.042
 2615TIP3    H1 7851   3.881   1.829   3.049
 2615TIP3    H2 7852   3.739   1.863   3.091
 2616TIP3   OH2 7853   2.183   2.091   2.049
 2616TIP3    H1 7854   2.183   2.060   2.139
 2616TIP3    H2 7855   2.091   2.088   2.022
 2617TIP3   OH2 7856   0.565   1.027   2.141
 2617TIP3    H1 7857   0.471   1.030   2.158
 2617TIP3    H2 7858   0.602   1.094   2.198
 2618TIP3   OH2 7859   2.418   4.836   3.361
 2618TIP3    H1 7860   2.460   4.778   3.297
 2618TIP3    H2 7861   2.454   4.923   3.341
 2619TIP3   OH2 7862   1.831   5.855   1.231
 2619TIP3    H1 7863   1.808   5.793   1.300
 2619TIP3    H2 7864   1.835   5.940   1.275
 2620TIP3   OH2 7865   2.031   3.787   1.180
 2620TIP3    H1 7866   2.006   3.870   1.139
 2620TIP3    H2 7867   2.010   3.721   1.114
 2621TIP3   OH2 7868   4.696   3.103   0.094
 2621TIP3    H1 7869   4.607   3.101   0.061
 2621TIP3    H2 7870   4.739   3.172   0.043
 2622TIP3   OH2 7871   5.398   1.957   2.824
 2622TIP3    H1 7872   5.389   2.048   2.797
 2622TIP3    H2 7873   5.328   1.943   2.888
 2623TIP3   OH2 7874   1.787   0.168   2.139
 2623TIP3    H1 7875   1.873   0.159   2.181
 2623TIP3    H2 7876   1.724   0.156   2.211
 2624TIP3   OH2 7877   4.351   5.612   4.871
 2624TIP3    H1 7878   4.405   5.607   4.792
 2624TIP3    H2 7879   4.262   5.623   4.839
 2625TIP3   OH2 7880   2.145   3.340   5.209
 2625TIP3    H1 7881   2.054   3.350   5.182
 2625TIP3    H2 7882   2.193   3.402   5.155
 2626TIP3   OH2 7883   0.041   1.647   4.485
 2626TIP3    H1 7884   0.108   1.580   4.499
 2626TIP3    H2 7885   0.089   1.730   4.490
 2627TIP3   OH2 7886   4.890   5.478   1.850
 2627TIP3    H1 7887   4.906   5.549   1.912
 2627TIP3    H2 7888   4.866   5.403   1.904
 2628TIP3   OH2 7889   3.507   1.708   2.502
 2628TIP3    H1 7890   3.451   1.740   2.431
 2628TIP3    H2 7891   3.511   1.781   2.564
 2629TIP3   OH2 7892   2.500   2.796   1.556
 2629TIP3    H1 7893   2.426   2.847   1.589
 2629TIP3    H2 7894   2.520   2.835   1.471
 2630TIP3   OH2 7895   5.294   1.281   1.793
 2630TIP3    H1 7896   5.312   1.291   1.700
 2630TIP3    H2 7897   5.198   1.278   1.798
 2631TIP3   OH2 7898   3.959   1.511   0.827
 2631TIP3    H1 7899   4.017   1.482   0.756
 2631TIP3    H2 7900   3.872   1.511   0.787
 2632TIP3   OH2 7901   2.654   0.274   4.420
 2632TIP3    H1 7902   2.628   0.197   4.370
 2632TIP3    H2 7903   2.725   0.244   4.476
 2633TIP3   OH2 7904   1.975   5.770   0.937
 2633TIP3    H1 7905   2.068   5.776   0.956
 2633TIP3    H2 7906   1.943   5.698   0.990
 2634TIP3   OH2 7907   5.530   0.330   1.725
 2634TIP3    H1 7908   5.470   0.396   1.691
 2634TIP3    H2 7909   5.593   0.316   1.654
 2635TIP3   OH2 7910   1.981   0.934   3.239
 2635TIP3    H1 7911   1.992   1.014   3.291
 2635TIP3    H2 7912   1.947   0.964   3.155
 2636TIP3   OH2 7913   1.572   5.144   3.212
 2636TIP3    H1 7914   1.529   5.201   3.276
 2636TIP3    H2 7915   1.643   5.198   3.177
 2637TIP3   OH2 7916   4.834   4.037   2.183
 2637TIP3    H1 7917   4.920   4.060   2.217
 2637TIP3    H2 7918   4.850   3.960   2.128
 2638TIP3   OH2 7919   5.349   1.982   1.423
 2638TIP3    H1 7920   5.299   2.007   1.501
 2638TIP3    H2 7921   5.439   1.974   1.454
 2639TIP3   OH2 7922   3.091   5.211   3.838
 2639TIP3    H1 7923   3.002   5.247   3.841
 2639TIP3    H2 7924   3.086   5.129   3.886
 2640TIP3   OH2 7925   0.471   0.548   0.118
 2640TIP3    H1 7926   0.381   0.570   0.144
 2640TIP3    H2 7927   0.485   0.597   0.037
 2641TIP3   OH2 7928   3.099   2.298   4.406
 2641TIP3    H1 7929   3.081   2.251   4.325
 2641TIP3    H2 7930   3.142   2.378   4.377
 2642TIP3   OH2 7931   0.257   5.790   0.125
 2642TIP3    H1 7932   0.348   5.819   0.111
 2642TIP3    H2 7933   0.263   5.695   0.136
 2643TIP3   OH2 7934   4.950   5.845   3.553
 2643TIP3    H1 7935   4.927   5.868   3.463
 2643TIP3    H2 7936   4.887   5.895   3.607
 2644TIP3   OH2 7937   0.808   4.744   3.367
 2644TIP3    H1 7938   0.748   4.678   3.400
 2644TIP3    H2 7939   0.763   4.782   3.292
 2645TIP3   OH2 7940   1.023   1.368   1.885
 2645TIP3    H1 7941   1.004   1.442   1.827
 2645TIP3    H2 7942   1.024   1.405   1.973
 2646TIP3   OH2 7943   3.278   4.620   3.523
 2646TIP3    H1 7944   3.319   4.704   3.542
 2646TIP3    H2 7945   3.271   4.618   3.427
 2647TIP3   OH2 7946   3.115   1.981   4.390
 2647TIP3    H1 7947   3.093   2.014   4.302
 2647TIP3    H2 7948   3.073   1.894   4.394
 2648TIP3   OH2 7949   5.725   1.059   3.140
 2648TIP3    H1 7950   5.636   1.031   3.118
 2648TIP3    H2 7951   5.732   1.147   3.102
 2649TIP3   OH2 7952   3.646   1.218   0.517
 2649TIP3    H1 7953   3.689   1.229   0.432
 2649TIP3    H2 7954   3.660   1.302   0.562
 2650TIP3   OH2 7955   1.553   5.778   1.905
 2650TIP3    H1 7956   1.563   5.712   1.973
 2650TIP3    H2 7957   1.458   5.791   1.898
 2651TIP3   OH2 7958   4.127   5.798   2.168
 2651TIP3    H1 7959   4.139   5.866   2.102
 2651TIP3    H2 7960   4.081   5.842   2.240
 2652TIP3   OH2 7961   4.913   4.760   4.442
 2652TIP3    H1 7962   5.000   4.719   4.449
 2652TIP3    H2 7963   4.909   4.793   4.352
 2653TIP3   OH2 7964   5.030   1.180   3.018
 2653TIP3    H1 7965   5.041   1.087   3.038
 2653TIP3    H2 7966   5.090   1.197   2.946
 2654TIP3   OH2 7967   3.734   5.844   4.160
 2654TIP3    H1 7968   3.703   5.759   4.190
 2654TIP3    H2 7969   3.655   5.893   4.139
 2655TIP3   OH2 7970   4.577   3.561   0.990
 2655TIP3    H1 7971   4.567   3.632   0.927
 2655TIP3    H2 7972   4.643   3.504   0.951
 2656TIP3   OH2 7973   0.694   0.597   3.931
 2656TIP3    H1 7974   0.617   0.548   3.901
 2656TIP3    H2 7975   0.672   0.624   4.020
 2657TIP3   OH2 7976   1.967   3.843   0.761
 2657TIP3    H1 7977   2.062   3.849   0.757
 2657TIP3    H2 7978   1.940   3.919   0.813
 2658TIP3   OH2 7979   4.664   4.408   4.047
 2658TIP3    H1 7980   4.579   4.429   4.007
 2658TIP3    H2 7981   4.682   4.319   4.019
 2659TIP3   OH2 7982   5.033   3.553   3.829
 2659TIP3    H1 7983   5.051   3.461   3.808
 2659TIP3    H2 7984   5.120   3.592   3.838
 2660TIP3   OH2 7985   4.255   4.920   3.269
 2660TIP3    H1 7986   4.306   4.983   3.320
 2660TIP3    H2 7987   4.216   4.863   3.335
 2661TIP3   OH2 7988   1.314   5.233   0.867
 2661TIP3    H1 7989   1.238   5.264   0.915
 2661TIP3    H2 7990   1.304   5.270   0.779
 2662TIP3   OH2 7991   4.243   5.791   0.913
 2662TIP3    H1 7992   4.163   5.772   0.961
 2662TIP3    H2 7993   4.270   5.877   0.944
 2663TIP3   OH2 7994   0.658   5.338   4.772
 2663TIP3    H1 7995   0.712   5.261   4.756
 2663TIP3    H2 7996   0.569   5.303   4.778
 2664TIP3   OH2 7997   2.278   3.392   3.559
 2664TIP3    H1 7998   2.285   3.332   3.633
 2664TIP3    H2 7999   2.322   3.346   3.487
 2665TIP3   OH2 8000   4.703   0.911   1.039
 2665TIP3    H1 8001   4.656   0.923   1.122
 2665TIP3    H2 8002   4.634   0.895   0.975
 2666TIP3   OH2 8003   6.035   1.423   1.052
 2666TIP3    H1 8004   6.098   1.350   1.047
 2666TIP3    H2 8005   5.953   1.383   1.080
 2667TIP3   OH2 8006   5.026   5.717   2.020
 2667TIP3    H1 8007   5.049   5.800   2.063
 2667TIP3    H2 8008   5.109   5.670   2.012
 2668TIP3   OH2 8009   1.964   3.340   0.164
 2668TIP3    H1 8010   1.920   3.308   0.086
 2668TIP3    H2 8011   1.944   3.433   0.166
 2669TIP3   OH2 8012   4.182   3.234   0.429
 2669TIP3    H1 8013   4.277   3.229   0.418
 2669TIP3    H2 8014   4.169   3.271   0.517
 2670TIP3   OH2 8015   1.754   5.621   4.136
 2670TIP3    H1 8016   1.825   5.599   4.077
 2670TIP3    H2 8017   1.797   5.642   4.219
 2671TIP3   OH2 8018   1.225   2.967   0.051
 2671TIP3    H1 8019   1.152   2.906   0.038
 2671TIP3    H2 8020   1.265   2.976  -0.036
 2672TIP3   OH2 8021   1.753   1.923   4.894
 2672TIP3    H1 8022   1.782   1.868   4.822
 2672TIP3    H2 8023   1.829   1.927   4.953
 2673TIP3   OH2 8024   5.925   4.771   2.192
 2673TIP3    H1 8025   5.940   4.823   2.271
 2673TIP3    H2 8026   5.944   4.830   2.120
 2674TIP3   OH2 8027   2.417   2.311   3.588
 2674TIP3    H1 8028   2.385   2.249   3.522
 2674TIP3    H2 8029   2.395   2.397   3.553
 2675TIP3   OH2 8030   4.676   1.835   1.544
 2675TIP3    H1 8031   4.631   1.751   1.533
 2675TIP3    H2 8032   4.664   1.856   1.637
 2676TIP3   OH2 8033   5.106   1.378   2.662
 2676TIP3    H1 8034   5.168   1.433   2.614
 2676TIP3    H2 8035   5.130   1.288   2.639
 2677TIP3   OH2 8036   1.570   2.677   1.531
 2677TIP3    H1 8037   1.632   2.624   1.481
 2677TIP3    H2 8038   1.523   2.614   1.585
 2678TIP3   OH2 8039   3.423   5.133   2.742
 2678TIP3    H1 8040   3.449   5.225   2.735
 2678TIP3    H2 8041   3.500   5.089   2.776
 2679TIP3   OH2 8042   1.827   2.378   4.719
 2679TIP3    H1 8043   1.735   2.353   4.707
 2679TIP3    H2 8044   1.861   2.313   4.780
 2680TIP3   OH2 8045   6.350   2.147   1.968
 2680TIP3    H1 8046   6.327   2.183   2.053
 2680TIP3    H2 8047   6.299   2.198   1.905
 2681TIP3   OH2 8048   1.270   3.518   1.319
 2681TIP3    H1 8049   1.211   3.444   1.335
 2681TIP3    H2 8050   1.301   3.506   1.230
 2682TIP3   OH2 8051   4.960   0.008   5.205
 2682TIP3    H1 8052   5.027  -0.015   5.141
 2682TIP3    H2 8053   4.970   0.102   5.219
 2683TIP3   OH2 8054   5.557   2.307   4.859
 2683TIP3    H1 8055   5.462   2.309   4.866
 2683TIP3    H2 8056   5.574   2.274   4.771
 2684TIP3   OH2 8057   3.645   0.683   2.636
 2684TIP3    H1 8058   3.597   0.613   2.590
 2684TIP3    H2 8059   3.735   0.676   2.603
 2685TIP3   OH2 8060   1.510   1.620   3.978
 2685TIP3    H1 8061   1.447   1.614   3.906
 2685TIP3    H2 8062   1.512   1.713   4.000
 2686TIP3   OH2 8063   3.251   2.870   0.462
 2686TIP3    H1 8064   3.170   2.824   0.439
 2686TIP3    H2 8065   3.301   2.871   0.380
 2687TIP3   OH2 8066   4.653   3.099   3.955
 2687TIP3    H1 8067   4.744   3.068   3.949
 2687TIP3    H2 8068   4.600   3.023   3.932
 2688TIP3   OH2 8069   3.209   2.580   3.735
 2688TIP3    H1 8070   3.266   2.531   3.795
 2688TIP3    H2 8071   3.145   2.515   3.706
 2689TIP3   OH2 8072   3.885   1.528   3.438
 2689TIP3    H1 8073   3.940   1.473   3.382
 2689TIP3    H2 8074   3.795   1.503   3.416
 2690TIP3   OH2 8075   3.003   2.330   4.919
 2690TIP3    H1 8076   2.973   2.266   4.984
 2690TIP3    H2 8077   3.005   2.282   4.836
 2691TIP3   OH2 8078   2.719   3.716   4.132
 2691TIP3    H1 8079   2.652   3.776   4.166
 2691TIP3    H2 8080   2.681   3.681   4.051
 2692TIP3   OH2 8081   3.116   0.874   4.657
 2692TIP3    H1 8082   3.072   0.814   4.597
 2692TIP3    H2 8083   3.045   0.926   4.696
 2693TIP3   OH2 8084   1.236   2.378   0.434
 2693TIP3    H1 8085   1.324   2.372   0.396
 2693TIP3    H2 8086   1.251   2.388   0.528
 2694TIP3   OH2 8087   4.511   3.289   0.473
 2694TIP3    H1 8088   4.499   3.306   0.379
 2694TIP3    H2 8089   4.522   3.376   0.511
 2695TIP3   OH2 8090   4.738   1.489   4.245
 2695TIP3    H1 8091   4.821   1.531   4.226
 2695TIP3    H2 8092   4.698   1.543   4.313
 2696TIP3   OH2 8093   0.795   4.817   2.011
 2696TIP3    H1 8094   0.857   4.749   1.987
 2696TIP3    H2 8095   0.847   4.882   2.057
 2697TIP3   OH2 8096   0.618   5.930   1.056
 2697TIP3    H1 8097   0.569   5.848   1.044
 2697TIP3    H2 8098   0.551   5.993   1.084
 2698TIP3   OH2 8099   0.855   4.070   1.280
 2698TIP3    H1 8100   0.914   4.129   1.327
 2698TIP3    H2 8101   0.769   4.083   1.321
 2699TIP3   OH2 8102   1.765   2.298   1.749
 2699TIP3    H1 8103   1.844   2.323   1.702
 2699TIP3    H2 8104   1.698   2.358   1.717
 2700TIP3   OH2 8105   4.994   4.795   3.331
 2700TIP3    H1 8106   5.021   4.709   3.300
 2700TIP3    H2 8107   4.937   4.777   3.405
 2701TIP3   OH2 8108   0.036   4.122   3.714
 2701TIP3    H1 8109   0.098   4.106   3.786
 2701TIP3    H2 8110  -0.028   4.051   3.722
 2702TIP3   OH2 8111   2.950   4.824   1.921
 2702TIP3    H1 8112   2.929   4.888   1.853
 2702TIP3    H2 8113   2.978   4.746   1.873
 2703TIP3   OH2 8114   0.222   5.261   2.531
 2703TIP3    H1 8115   0.296   5.264   2.591
 2703TIP3    H2 8116   0.259   5.229   2.449
 2704TIP3   OH2 8117   5.192   3.968   0.283
 2704TIP3    H1 8118   5.185   4.052   0.238
 2704TIP3    H2 8119   5.182   3.990   0.376
 2705TIP3   OH2 8120   1.319   1.270   1.108
 2705TIP3    H1 8121   1.396   1.249   1.055
 2705TIP3    H2 8122   1.308   1.365   1.099
 2706TIP3   OH2 8123   0.098   4.444   3.955
 2706TIP3    H1 8124   0.053   4.365   3.986
 2706TIP3    H2 8125   0.055   4.516   4.002
 2707TIP3   OH2 8126   3.858   4.850   4.483
 2707TIP3    H1 8127   3.924   4.780   4.483
 2707TIP3    H2 8128   3.790   4.818   4.424
 2708TIP3   OH2 8129   6.316   3.089   3.674
 2708TIP3    H1 8130   6.231   3.109   3.635
 2708TIP3    H2 8131   6.296   3.025   3.743
 2709TIP3   OH2 8132   1.580   1.943   4.268
 2709TIP3    H1 8133   1.516   1.875   4.250
 2709TIP3    H2 8134   1.618   1.965   4.183
 2710TIP3   OH2 8135   0.824   4.820   4.649
 2710TIP3    H1 8136   0.836   4.833   4.555
 2710TIP3    H2 8137   0.753   4.881   4.673
 2711TIP3   OH2 8138   3.635   5.967   1.057
 2711TIP3    H1 8139   3.725   5.938   1.041
 2711TIP3    H2 8140   3.638   6.062   1.045
 2712TIP3   OH2 8141   2.433   4.314   0.229
 2712TIP3    H1 8142   2.486   4.387   0.260
 2712TIP3    H2 8143   2.425   4.256   0.304
 2713TIP3   OH2 8144   5.103   0.827   2.437
 2713TIP3    H1 8145   5.061   0.860   2.358
 2713TIP3    H2 8146   5.114   0.904   2.492
 2714TIP3   OH2 8147   0.844   1.649   0.255
 2714TIP3    H1 8148   0.930   1.620   0.284
 2714TIP3    H2 8149   0.848   1.641   0.159
 2715TIP3   OH2 8150   3.737   5.319   3.124
 2715TIP3    H1 8151   3.704   5.404   3.153
 2715TIP3    H2 8152   3.664   5.259   3.139
 2716TIP3   OH2 8153   2.432   0.661   4.971
 2716TIP3    H1 8154   2.417   0.754   4.988
 2716TIP3    H2 8155   2.517   0.643   5.010
 2717TIP3   OH2 8156   3.212   2.017   4.632
 2717TIP3    H1 8157   3.146   2.076   4.667
 2717TIP3    H2 8158   3.185   2.000   4.542
 2718TIP3   OH2 8159   2.801   1.167   1.835
 2718TIP3    H1 8160   2.814   1.222   1.758
 2718TIP3    H2 8161   2.707   1.175   1.854
 2719TIP3   OH2 8162   6.067   4.608   1.323
 2719TIP3    H1 8163   6.024   4.526   1.301
 2719TIP3    H2 8164   6.156   4.599   1.288
 2720TIP3   OH2 8165   5.295   5.347   0.733
 2720TIP3    H1 8166   5.284   5.264   0.686
 2720TIP3    H2 8167   5.259   5.413   0.674
 2721TIP3   OH2 8168   2.648   4.613   4.179
 2721TIP3    H1 8169   2.714   4.546   4.196
 2721TIP3    H2 8170   2.603   4.584   4.101
 2722TIP3   OH2 8171   4.631   1.541   3.472
 2722TIP3    H1 8172   4.681   1.619   3.496
 2722TIP3    H2 8173   4.627   1.489   3.552
 2723TIP3   OH2 8174   3.279   1.953   0.881
 2723TIP3    H1 8175   3.334   2.017   0.836
 2723TIP3    H2 8176   3.305   1.958   0.973
 2724TIP3   OH2 8177   2.752   2.239   1.801
 2724TIP3    H1 8178   2.816   2.220   1.869
 2724TIP3    H2 8179   2.742   2.334   1.803
 2725TIP3   OH2 8180   3.836   2.534   2.319
 2725TIP3    H1 8181   3.829   2.446   2.354
 2725TIP3    H2 8182   3.799   2.590   2.387
 2726TIP3   OH2 8183   3.531   3.268   4.562
 2726TIP3    H1 8184   3.436   3.274   4.575
 2726TIP3    H2 8185   3.541   3.234   4.473
 2727TIP3   OH2 8186   0.334   1.417   4.352
 2727TIP3    H1 8187   0.257   1.468   4.325
 2727TIP3    H2 8188   0.400   1.483   4.373
 2728TIP3   OH2 8189   0.892   4.562   0.040
 2728TIP3    H1 8190   0.905   4.487   0.099
 2728TIP3    H2 8191   0.815   4.607   0.077
 2729TIP3   OH2 8192   0.214   3.462   0.686
 2729TIP3    H1 8193   0.141   3.444   0.745
 2729TIP3    H2 8194   0.190   3.544   0.643
 2730TIP3   OH2 8195   4.227   3.654   1.492
 2730TIP3    H1 8196   4.248   3.614   1.408
 2730TIP3    H2 8197   4.207   3.745   1.470
 2731TIP3   OH2 8198   3.498   4.220   4.168
 2731TIP3    H1 8199   3.580   4.179   4.141
 2731TIP3    H2 8200   3.521   4.310   4.189
 2732TIP3   OH2 8201   3.401   1.040   1.974
 2732TIP3    H1 8202   3.395   1.034   1.879
 2732TIP3    H2 8203   3.465   1.110   1.990
 2733TIP3   OH2 8204   1.731   3.887   0.160
 2733TIP3    H1 8205   1.640   3.897   0.188
 2733TIP3    H2 8206   1.739   3.946   0.085
 2734TIP3   OH2 8207   2.392   3.215   2.889
 2734TIP3    H1 8208   2.398   3.250   2.800
 2734TIP3    H2 8209   2.304   3.237   2.917
 2735TIP3   OH2 8210   1.480   0.120   5.116
 2735TIP3    H1 8211   1.454   0.114   5.025
 2735TIP3    H2 8212   1.572   0.148   5.114
 2736TIP3   OH2 8213   4.327   2.035   1.508
 2736TIP3    H1 8214   4.405   2.079   1.541
 2736TIP3    H2 8215   4.295   2.093   1.438
 2737TIP3   OH2 8216   1.544   2.610   3.578
 2737TIP3    H1 8217   1.540   2.552   3.653
 2737TIP3    H2 8218   1.495   2.688   3.604
 2738TIP3   OH2 8219   4.774   2.998   0.324
 2738TIP3    H1 8220   4.773   3.090   0.297
 2738TIP3    H2 8221   4.760   2.950   0.242
 2739TIP3   OH2 8222   3.840   4.564   2.388
 2739TIP3    H1 8223   3.811   4.478   2.359
 2739TIP3    H2 8224   3.923   4.578   2.342
 2740TIP3   OH2 8225   5.412   2.085   3.135
 2740TIP3    H1 8226   5.492   2.072   3.085
 2740TIP3    H2 8227   5.398   2.180   3.135
 2741TIP3   OH2 8228   4.131   3.452   3.086
 2741TIP3    H1 8229   4.175   3.474   3.168
 2741TIP3    H2 8230   4.108   3.359   3.096
 2742TIP3   OH2 8231   2.383   5.566   3.387
 2742TIP3    H1 8232   2.442   5.587   3.315
 2742TIP3    H2 8233   2.296   5.588   3.354
 2743TIP3   OH2 8234   3.522   1.376   0.780
 2743TIP3    H1 8235   3.436   1.335   0.788
 2743TIP3    H2 8236   3.580   1.323   0.835
 2744TIP3   OH2 8237   2.965   0.740   1.297
 2744TIP3    H1 8238   3.057   0.718   1.304
 2744TIP3    H2 8239   2.924   0.702   1.374
 2745TIP3   OH2 8240   2.869   0.711   1.807
 2745TIP3    H1 8241   2.951   0.675   1.840
 2745TIP3    H2 8242   2.870   0.693   1.713
 2746TIP3   OH2 8243   1.988   2.156   0.225
 2746TIP3    H1 8244   1.956   2.247   0.222
 2746TIP3    H2 8245   2.035   2.150   0.308
 2747TIP3   OH2 8246   1.470   0.622   4.110
 2747TIP3    H1 8247   1.375   0.610   4.121
 2747TIP3    H2 8248   1.500   0.651   4.196
 2748TIP3   OH2 8249   0.085   0.359   4.131
 2748TIP3    H1 8250   0.059   0.402   4.213
 2748TIP3    H2 8251   0.033   0.279   4.129
 2749TIP3   OH2 8252   3.000   0.346   3.480
 2749TIP3    H1 8253   3.016   0.440   3.490
 2749TIP3    H2 8254   2.905   0.337   3.494
 2750TIP3   OH2 8255   5.923   1.672   2.216
 2750TIP3    H1 8256   6.008   1.701   2.182
 2750TIP3    H2 8257   5.887   1.616   2.147
 2751TIP3   OH2 8258   2.096   4.004   2.389
 2751TIP3    H1 8259   2.052   4.000   2.304
 2751TIP3    H2 8260   2.186   4.029   2.368
 2752TIP3   OH2 8261   6.373   5.540   1.907
 2752TIP3    H1 8262   6.353   5.612   1.967
 2752TIP3    H2 8263   6.314   5.552   1.833
 2753TIP3   OH2 8264   4.907   5.417   0.549
 2753TIP3    H1 8265   4.827   5.415   0.602
 2753TIP3    H2 8266   4.911   5.505   0.514
 2754TIP3   OH2 8267   4.935   3.633   4.867
 2754TIP3    H1 8268   4.876   3.690   4.818
 2754TIP3    H2 8269   4.987   3.692   4.921
 2755TIP3   OH2 8270   1.386   1.827   2.197
 2755TIP3    H1 8271   1.420   1.743   2.168
 2755TIP3    H2 8272   1.372   1.817   2.291
 2756TIP3   OH2 8273   0.366   4.400   4.493
 2756TIP3    H1 8274   0.401   4.334   4.553
 2756TIP3    H2 8275   0.280   4.422   4.528
 2757TIP3   OH2 8276   2.340   0.215   1.849
 2757TIP3    H1 8277   2.271   0.262   1.803
 2757TIP3    H2 8278   2.411   0.278   1.857
 2758TIP3   OH2 8279   4.112   3.339   2.422
 2758TIP3    H1 8280   4.131   3.428   2.394
 2758TIP3    H2 8281   4.150   3.331   2.509
 2759TIP3   OH2 8282   2.062   3.806   2.545
 2759TIP3    H1 8283   2.084   3.871   2.478
 2759TIP3    H2 8284   2.090   3.846   2.627
 2760TIP3   OH2 8285   5.091   3.397   2.587
 2760TIP3    H1 8286   5.076   3.469   2.648
 2760TIP3    H2 8287   5.004   3.376   2.553
 2761TIP3   OH2 8288   2.154   2.576   3.122
 2761TIP3    H1 8289   2.188   2.608   3.039
 2761TIP3    H2 8290   2.232   2.564   3.177
 2762TIP3   OH2 8291   5.960   3.014   2.263
 2762TIP3    H1 8292   5.944   3.073   2.337
 2762TIP3    H2 8293   6.035   3.053   2.217
 2763TIP3   OH2 8294   2.325   1.258   2.005
 2763TIP3    H1 8295   2.352   1.260   2.097
 2763TIP3    H2 8296   2.404   1.231   1.958
 2764TIP3   OH2 8297   4.733   1.175   0.275
 2764TIP3    H1 8298   4.795   1.246   0.292
 2764TIP3    H2 8299   4.751   1.148   0.185
 2765TIP3   OH2 8300   2.385   3.150   2.385
 2765TIP3    H1 8301   2.364   3.238   2.353
 2765TIP3    H2 8302   2.301   3.107   2.394
 2766TIP3   OH2 8303   1.479   0.024   0.074
 2766TIP3    H1 8304   1.385   0.035   0.061
 2766TIP3    H2 8305   1.507  -0.030   0.000
 2767TIP3   OH2 8306   4.925   1.297   4.203
 2767TIP3    H1 8307   4.935   1.256   4.289
 2767TIP3    H2 8308   4.847   1.352   4.212
 2768TIP3   OH2 8309   6.067   0.421   2.764
 2768TIP3    H1 8310   6.016   0.424   2.846
 2768TIP3    H2 8311   6.002   0.437   2.696
 2769TIP3   OH2 8312   2.778   2.659   0.294
 2769TIP3    H1 8313   2.825   2.710   0.228
 2769TIP3    H2 8314   2.751   2.579   0.248
 2770TIP3   OH2 8315   5.936   4.761   0.199
 2770TIP3    H1 8316   5.891   4.837   0.163
 2770TIP3    H2 8317   5.989   4.795   0.271
 2771TIP3   OH2 8318   5.088   5.873   0.645
 2771TIP3    H1 8319   5.144   5.949   0.627
 2771TIP3    H2 8320   5.009   5.889   0.594
 2772TIP3   OH2 8321   2.020   1.843   3.270
 2772TIP3    H1 8322   1.951   1.782   3.244
 2772TIP3    H2 8323   2.001   1.923   3.222
 2773TIP3   OH2 8324   5.878   5.270   0.088
 2773TIP3    H1 8325   5.787   5.290   0.065
 2773TIP3    H2 8326   5.911   5.351   0.127
 2774TIP3   OH2 8327   3.961   1.634   1.385
 2774TIP3    H1 8328   3.871   1.644   1.414
 2774TIP3    H2 8329   4.005   1.715   1.412
 2775TIP3   OH2 8330   2.949   3.468   1.636
 2775TIP3    H1 8331   3.012   3.512   1.693
 2775TIP3    H2 8332   2.895   3.538   1.600
 2776TIP3   OH2 8333   3.366   1.419   3.562
 2776TIP3    H1 8334   3.284   1.381   3.592
 2776TIP3    H2 8335   3.339   1.495   3.510
 2777TIP3   OH2 8336   5.069   0.544   4.619
 2777TIP3    H1 8337   5.098   0.515   4.706
 2777TIP3    H2 8338   5.150   0.560   4.571
 2778TIP3   OH2 8339   2.860   5.346   4.368
 2778TIP3    H1 8340   2.852   5.264   4.320
 2778TIP3    H2 8341   2.939   5.387   4.334
 2779TIP3   OH2 8342   3.269   0.272   3.490
 2779TIP3    H1 8343   3.179   0.286   3.462
 2779TIP3    H2 8344   3.268   0.185   3.531
 2780TIP3   OH2 8345   2.589   4.676   4.915
 2780TIP3    H1 8346   2.639   4.720   4.983
 2780TIP3    H2 8347   2.505   4.723   4.913
 2781TIP3   OH2 8348   4.210   4.266   0.692
 2781TIP3    H1 8349   4.278   4.234   0.634
 2781TIP3    H2 8350   4.128   4.244   0.647
 2782TIP3   OH2 8351   3.309   5.561   1.707
 2782TIP3    H1 8352   3.275   5.479   1.671
 2782TIP3    H2 8353   3.320   5.543   1.800
 2783TIP3   OH2 8354   1.015   1.709   1.185
 2783TIP3    H1 8355   1.015   1.767   1.109
 2783TIP3    H2 8356   0.929   1.666   1.182
 2784TIP3   OH2 8357   0.815   4.229   3.559
 2784TIP3    H1 8358   0.770   4.191   3.484
 2784TIP3    H2 8359   0.908   4.216   3.540
 2785TIP3   OH2 8360   0.064   1.835   3.311
 2785TIP3    H1 8361   0.127   1.763   3.312
 2785TIP3    H2 8362   0.101   1.901   3.370
 2786TIP3   OH2 8363   6.228   1.773   0.971
 2786TIP3    H1 8364   6.228   1.688   0.927
 2786TIP3    H2 8365   6.153   1.770   1.030
 2787TIP3   OH2 8366   2.562   2.104   2.090
 2787TIP3    H1 8367   2.533   2.056   2.013
 2787TIP3    H2 8368   2.657   2.111   2.080
 2788TIP3   OH2 8369   2.073   1.519   3.204
 2788TIP3    H1 8370   2.048   1.464   3.130
 2788TIP3    H2 8371   1.991   1.562   3.230
 2789TIP3   OH2 8372   5.884   4.942   4.877
 2789TIP3    H1 8373   5.955   4.903   4.826
 2789TIP3    H2 8374   5.817   4.963   4.812
 2790TIP3   OH2 8375   4.154   5.119   2.380
 2790TIP3    H1 8376   4.169   5.071   2.462
 2790TIP3    H2 8377   4.212   5.195   2.387
 2791TIP3   OH2 8378   4.091   1.121   3.833
 2791TIP3    H1 8379   4.071   1.125   3.926
 2791TIP3    H2 8380   4.090   1.212   3.804
 2792TIP3   OH2 8381   5.170   5.925   2.844
 2792TIP3    H1 8382   5.185   6.019   2.829
 2792TIP3    H2 8383   5.090   5.923   2.896
 2793TIP3   OH2 8384   0.063   3.722   5.187
 2793TIP3    H1 8385   0.125   3.740   5.116
 2793TIP3    H2 8386   0.017   3.805   5.200
 2794TIP3   OH2 8387   2.542   0.782   2.294
 2794TIP3    H1 8388   2.491   0.858   2.266
 2794TIP3    H2 8389   2.575   0.743   2.212
 2795TIP3   OH2 8390   4.259   1.535   0.209
 2795TIP3    H1 8391   4.331   1.472   0.206
 2795TIP3    H2 8392   4.191   1.496   0.153
 2796TIP3   OH2 8393   4.434   0.554   4.908
 2796TIP3    H1 8394   4.519   0.534   4.869
 2796TIP3    H2 8395   4.385   0.597   4.838
 2797TIP3   OH2 8396   0.140   3.329   4.334
 2797TIP3    H1 8397   0.128   3.339   4.428
 2797TIP3    H2 8398   0.234   3.344   4.320
 2798TIP3   OH2 8399   0.067   1.166   3.073
 2798TIP3    H1 8400   0.110   1.085   3.102
 2798TIP3    H2 8401   0.129   1.235   3.097
 2799TIP3   OH2 8402   5.053   5.315   4.167
 2799TIP3    H1 8403   5.013   5.401   4.154
 2799TIP3    H2 8404   5.147   5.332   4.166
 2800TIP3   OH2 8405   0.692   5.970   5.020
 2800TIP3    H1 8406   0.755   5.994   5.088
 2800TIP3    H2 8407   0.685   5.875   5.027
 2801TIP3   OH2 8408   4.784   5.238   2.207
 2801TIP3    H1 8409   4.711   5.240   2.270
 2801TIP3    H2 8410   4.852   5.188   2.251
 2802TIP3   OH2 8411   3.818   3.245   4.353
 2802TIP3    H1 8412   3.844   3.232   4.262
 2802TIP3    H2 8413   3.734   3.290   4.348
 2803TIP3   OH2 8414   4.166   4.632   0.322
 2803TIP3    H1 8415   4.197   4.718   0.352
 2803TIP3    H2 8416   4.243   4.576   0.328
 2804TIP3   OH2 8417   1.604   1.719   0.830
 2804TIP3    H1 8418   1.575   1.647   0.886
 2804TIP3    H2 8419   1.698   1.725   0.845
 2805TIP3   OH2 8420   3.453   5.770   1.876
 2805TIP3    H1 8421   3.390   5.835   1.847
 2805TIP3    H2 8422   3.425   5.689   1.832
 2806TIP3   OH2 8423   3.741   1.030   1.312
 2806TIP3    H1 8424   3.818   1.043   1.255
 2806TIP3    H2 8425   3.696   0.954   1.275
 2807TIP3   OH2 8426   0.671   4.058   1.928
 2807TIP3    H1 8427   0.662   4.103   2.012
 2807TIP3    H2 8428   0.705   3.972   1.951
 2808TIP3   OH2 8429   2.923   4.252   3.502
 2808TIP3    H1 8430   2.895   4.180   3.558
 2808TIP3    H2 8431   2.842   4.296   3.477
 2809TIP3   OH2 8432   5.149   1.679   2.772
 2809TIP3    H1 8433   5.224   1.622   2.793
 2809TIP3    H2 8434   5.127   1.658   2.682
 2810TIP3   OH2 8435   5.488   4.972   3.849
 2810TIP3    H1 8436   5.445   4.897   3.808
 2810TIP3    H2 8437   5.417   5.017   3.896
 2811TIP3   OH2 8438   1.831   5.195   1.353
 2811TIP3    H1 8439   1.769   5.125   1.332
 2811TIP3    H2 8440   1.852   5.234   1.268
 2812TIP3   OH2 8441   0.092   3.864   1.667
 2812TIP3    H1 8442   0.056   3.818   1.743
 2812TIP3    H2 8443   0.105   3.954   1.698
 2813TIP3   OH2 8444   1.903   5.703   0.375
 2813TIP3    H1 8445   1.816   5.702   0.335
 2813TIP3    H2 8446   1.890   5.745   0.460
 2814TIP3   OH2 8447   2.228   4.784   1.147
 2814TIP3    H1 8448   2.311   4.823   1.175
 2814TIP3    H2 8449   2.179   4.773   1.229
 2815TIP3   OH2 8450   6.233   0.052   3.119
 2815TIP3    H1 8451   6.295   0.112   3.077
 2815TIP3    H2 8452   6.281  -0.031   3.125
 2816TIP3   OH2 8453   3.551   1.786   3.319
 2816TIP3    H1 8454   3.520   1.874   3.336
 2816TIP3    H2 8455   3.647   1.793   3.324
 2817TIP3   OH2 8456   5.206   3.964   1.916
 2817TIP3    H1 8457   5.201   3.945   1.822
 2817TIP3    H2 8458   5.286   3.919   1.945
 2818TIP3   OH2 8459   3.729   1.503   0.681
 2818TIP3    H1 8460   3.650   1.458   0.712
 2818TIP3    H2 8461   3.699   1.591   0.657
 2819TIP3   OH2 8462   2.747   0.916   4.962
 2819TIP3    H1 8463   2.773   0.930   4.871
 2819TIP3    H2 8464   2.808   0.969   5.013
 2820TIP3   OH2 8465   3.330   1.640   3.303
 2820TIP3    H1 8466   3.416   1.679   3.321
 2820TIP3    H2 8467   3.336   1.611   3.212
 2821TIP3   OH2 8468   3.887   4.731   2.611
 2821TIP3    H1 8469   3.980   4.712   2.603
 2821TIP3    H2 8470   3.848   4.699   2.530
 2822TIP3   OH2 8471   1.295   1.003   0.900
 2822TIP3    H1 8472   1.312   1.009   0.994
 2822TIP3    H2 8473   1.233   1.074   0.883
 2823TIP3   OH2 8474   3.036   4.392   2.816
 2823TIP3    H1 8475   3.032   4.461   2.749
 2823TIP3    H2 8476   3.126   4.394   2.848
 2824TIP3   OH2 8477   5.606   4.343   0.479
 2824TIP3    H1 8478   5.659   4.337   0.400
 2824TIP3    H2 8479   5.516   4.353   0.447
 2825TIP3   OH2 8480   5.293   3.700   4.368
 2825TIP3    H1 8481   5.381   3.732   4.350
 2825TIP3    H2 8482   5.270   3.648   4.291
 2826TIP3   OH2 8483   6.061  -0.003   0.998
 2826TIP3    H1 8484   6.035   0.039   0.916
 2826TIP3    H2 8485   6.143   0.040   1.022
 2827TIP3   OH2 8486   1.983   1.034   1.434
 2827TIP3    H1 8487   1.960   1.046   1.342
 2827TIP3    H2 8488   1.984   1.123   1.470
 2828TIP3   OH2 8489   6.335   3.639   2.152
 2828TIP3    H1 8490   6.378   3.558   2.126
 2828TIP3    H2 8491   6.313   3.626   2.245
 2829TIP3   OH2 8492   2.104   0.822   0.166
 2829TIP3    H1 8493   2.009   0.809   0.156
 2829TIP3    H2 8494   2.143   0.761   0.104
 2830TIP3   OH2 8495   2.456   4.174   4.226
 2830TIP3    H1 8496   2.372   4.150   4.265
 2830TIP3    H2 8497   2.434   4.240   4.160
 2831TIP3   OH2 8498   4.208   2.030   0.592
 2831TIP3    H1 8499   4.302   2.024   0.574
 2831TIP3    H2 8500   4.184   1.942   0.621
 2832TIP3   OH2 8501   4.650   3.318   3.754
 2832TIP3    H1 8502   4.579   3.347   3.698
 2832TIP3    H2 8503   4.610   3.253   3.812
 2833TIP3   OH2 8504   5.663   3.238   2.821
 2833TIP3    H1 8505   5.659   3.250   2.726
 2833TIP3    H2 8506   5.572   3.242   2.849
 2834TIP3   OH2 8507   0.674   0.241   1.459
 2834TIP3    H1 8508   0.614   0.192   1.402
 2834TIP3    H2 8509   0.653   0.211   1.547
 2835TIP3   OH2 8510   5.056   0.142   1.422
 2835TIP3    H1 8511   5.050   0.142   1.517
 2835TIP3    H2 8512   5.129   0.201   1.403
 2836TIP3   OH2 8513   4.205   4.892   0.486
 2836TIP3    H1 8514   4.246   4.978   0.494
 2836TIP3    H2 8515   4.137   4.903   0.419
 2837TIP3   OH2 8516   3.963   1.159   4.856
 2837TIP3    H1 8517   3.938   1.157   4.763
 2837TIP3    H2 8518   3.908   1.091   4.897
 2838TIP3   OH2 8519   0.810   5.979   4.061
 2838TIP3    H1 8520   0.858   5.924   3.999
 2838TIP3    H2 8521   0.870   5.990   4.135
 2839TIP3   OH2 8522   2.309   4.221   3.441
 2839TIP3    H1 8523   2.363   4.145   3.463
 2839TIP3    H2 8524   2.289   4.210   3.347
 2840TIP3   OH2 8525   5.538   4.923   2.216
 2840TIP3    H1 8526   5.631   4.934   2.234
 2840TIP3    H2 8527   5.501   5.010   2.227
 2841TIP3   OH2 8528   5.288   2.395   0.393
 2841TIP3    H1 8529   5.220   2.353   0.340
 2841TIP3    H2 8530   5.309   2.331   0.460
 2842TIP3   OH2 8531   4.696   2.680   5.026
 2842TIP3    H1 8532   4.686   2.682   4.931
 2842TIP3    H2 8533   4.656   2.597   5.052
 2843TIP3   OH2 8534   0.171   1.451   4.647
 2843TIP3    H1 8535   0.095   1.453   4.705
 2843TIP3    H2 8536   0.245   1.468   4.704
 2844TIP3   OH2 8537   0.838   2.119   3.431
 2844TIP3    H1 8538   0.798   2.161   3.354
 2844TIP3    H2 8539   0.799   2.032   3.433
 2845TIP3   OH2 8540   5.402   1.328   4.156
 2845TIP3    H1 8541   5.455   1.293   4.227
 2845TIP3    H2 8542   5.364   1.251   4.113
 2846TIP3   OH2 8543   0.488   2.921   1.981
 2846TIP3    H1 8544   0.546   2.875   1.920
 2846TIP3    H2 8545   0.438   2.851   2.023
 2847TIP3   OH2 8546   4.860   1.186   0.897
 2847TIP3    H1 8547   4.835   1.118   0.959
 2847TIP3    H2 8548   4.843   1.268   0.943
 2848TIP3   OH2 8549   1.052   0.539   4.388
 2848TIP3    H1 8550   0.966   0.548   4.347
 2848TIP3    H2 8551   1.112   0.524   4.314
 2849TIP3   OH2 8552   4.140   0.117   4.086
 2849TIP3    H1 8553   4.186   0.112   4.003
 2849TIP3    H2 8554   4.202   0.159   4.146
 2850TIP3   OH2 8555   4.992   2.833   1.004
 2850TIP3    H1 8556   4.988   2.831   0.909
 2850TIP3    H2 8557   5.080   2.800   1.025
 2851TIP3   OH2 8558   3.789   0.226   1.776
 2851TIP3    H1 8559   3.805   0.320   1.767
 2851TIP3    H2 8560   3.752   0.216   1.864
 2852TIP3   OH2 8561   2.745   5.912   0.017
 2852TIP3    H1 8562   2.696   5.991  -0.004
 2852TIP3    H2 8563   2.780   5.928   0.105
 2853TIP3   OH2 8564   1.603   2.547   1.819
 2853TIP3    H1 8565   1.604   2.527   1.912
 2853TIP3    H2 8566   1.604   2.643   1.816
 2854TIP3   OH2 8567   4.364   2.377   0.818
 2854TIP3    H1 8568   4.296   2.332   0.767
 2854TIP3    H2 8569   4.317   2.425   0.885
 2855TIP3   OH2 8570   3.056   2.342   3.194
 2855TIP3    H1 8571   3.069   2.401   3.120
 2855TIP3    H2 8572   3.094   2.389   3.269
 2856TIP3   OH2 8573   3.970   2.986   4.208
 2856TIP3    H1 8574   3.929   2.967   4.292
 2856TIP3    H2 8575   3.906   3.039   4.161
 2857TIP3   OH2 8576   1.567   3.236   1.305
 2857TIP3    H1 8577   1.553   3.310   1.364
 2857TIP3    H2 8578   1.636   3.266   1.245
 2858TIP3   OH2 8579   0.090   2.416   3.015
 2858TIP3    H1 8580   0.068   2.338   2.964
 2858TIP3    H2 8581   0.177   2.399   3.050
 2859TIP3   OH2 8582   4.747   0.411   4.966
 2859TIP3    H1 8583   4.751   0.446   4.877
 2859TIP3    H2 8584   4.672   0.351   4.965
 2860TIP3   OH2 8585   5.963   2.198   4.854
 2860TIP3    H1 8586   5.917   2.133   4.800
 2860TIP3    H2 8587   6.018   2.147   4.912
 2861TIP3   OH2 8588   0.681   1.022   3.974
 2861TIP3    H1 8589   0.678   0.927   3.984
 2861TIP3    H2 8590   0.647   1.037   3.886
 2862TIP3   OH2 8591   4.297   3.031   1.558
 2862TIP3    H1 8592   4.302   3.127   1.557
 2862TIP3    H2 8593   4.387   3.002   1.548
 2863TIP3   OH2 8594   0.907   3.302   3.264
 2863TIP3    H1 8595   0.900   3.206   3.263
 2863TIP3    H2 8596   0.947   3.322   3.348
 2864TIP3   OH2 8597   0.021   3.475   3.374
 2864TIP3    H1 8598   0.079   3.410   3.414
 2864TIP3    H2 8599   0.081   3.544   3.344
 2865TIP3   OH2 8600   6.114   4.829   4.774
 2865TIP3    H1 8601   6.111   4.872   4.688
 2865TIP3    H2 8602   6.107   4.735   4.753
 2866TIP3   OH2 8603   5.763   2.052   0.955
 2866TIP3    H1 8604   5.859   2.052   0.954
 2866TIP3    H2 8605   5.738   2.031   0.865
 2867TIP3   OH2 8606   1.251   1.986   4.363
 2867TIP3    H1 8607   1.160   2.000   4.338
 2867TIP3    H2 8608   1.293   2.072   4.354
 2868TIP3   OH2 8609   5.613   0.469   4.280
 2868TIP3    H1 8610   5.534   0.491   4.231
 2868TIP3    H2 8611   5.630   0.547   4.334
 2869TIP3   OH2 8612   5.411   3.011   4.979
 2869TIP3    H1 8613   5.493   2.963   4.967
 2869TIP3    H2 8614   5.427   3.097   4.940
 2870TIP3   OH2 8615   1.267   4.958   0.056
 2870TIP3    H1 8616   1.304   5.030   0.005
 2870TIP3    H2 8617   1.333   4.889   0.051
 2871TIP3   OH2 8618   1.668   1.400  -0.019
 2871TIP3    H1 8619   1.649   1.313   0.017
 2871TIP3    H2 8620   1.762   1.411  -0.009
 2872TIP3   OH2 8621   0.253   3.650   4.009
 2872TIP3    H1 8622   0.303   3.574   4.039
 2872TIP3    H2 8623   0.164   3.634   4.040
 2873TIP3   OH2 8624   6.037   4.460   3.187
 2873TIP3    H1 8625   6.126   4.452   3.152
 2873TIP3    H2 8626   6.047   4.445   3.281
 2874TIP3   OH2 8627   1.671   3.108   4.495
 2874TIP3    H1 8628   1.648   3.072   4.410
 2874TIP3    H2 8629   1.767   3.107   4.496
 2875TIP3   OH2 8630   3.713   3.371   4.741
 2875TIP3    H1 8631   3.668   3.361   4.825
 2875TIP3    H2 8632   3.649   3.342   4.676
 2876TIP3   OH2 8633   0.315   1.124   2.139
 2876TIP3    H1 8634   0.327   1.146   2.232
 2876TIP3    H2 8635   0.222   1.136   2.123
 2877TIP3   OH2 8636   2.350   5.019   3.632
 2877TIP3    H1 8637   2.305   5.085   3.579
 2877TIP3    H2 8638   2.400   5.070   3.696
 2878TIP3   OH2 8639   6.118   3.410   1.561
 2878TIP3    H1 8640   6.069   3.489   1.581
 2878TIP3    H2 8641   6.064   3.363   1.497
 2879TIP3   OH2 8642   3.196   1.704   1.592
 2879TIP3    H1 8643   3.184   1.774   1.656
 2879TIP3    H2 8644   3.132   1.722   1.523
 2880TIP3   OH2 8645   1.384   3.729   2.032
 2880TIP3    H1 8646   1.458   3.688   1.985
 2880TIP3    H2 8647   1.309   3.675   2.008
 2881TIP3   OH2 8648   2.107   4.397   1.796
 2881TIP3    H1 8649   2.189   4.365   1.832
 2881TIP3    H2 8650   2.090   4.479   1.843
 2882TIP3   OH2 8651   1.260   5.101   1.628
 2882TIP3    H1 8652   1.252   5.010   1.656
 2882TIP3    H2 8653   1.264   5.096   1.533
 2883TIP3   OH2 8654   1.062   4.535   3.904
 2883TIP3    H1 8655   1.072   4.479   3.827
 2883TIP3    H2 8656   1.065   4.474   3.978
 2884TIP3   OH2 8657   2.207   3.105   0.792
 2884TIP3    H1 8658   2.276   3.137   0.851
 2884TIP3    H2 8659   2.206   3.010   0.806
 2885TIP3   OH2 8660   1.045   3.343   4.669
 2885TIP3    H1 8661   1.109   3.317   4.602
 2885TIP3    H2 8662   0.999   3.417   4.629
 2886TIP3   OH2 8663   3.393   3.942   1.258
 2886TIP3    H1 8664   3.374   3.863   1.207
 2886TIP3    H2 8665   3.411   4.009   1.193
 2887TIP3   OH2 8666   3.661   0.257   0.706
 2887TIP3    H1 8667   3.757   0.254   0.706
 2887TIP3    H2 8668   3.634   0.193   0.771
 2888TIP3   OH2 8669   3.153   4.408   3.639
 2888TIP3    H1 8670   3.097   4.356   3.581
 2888TIP3    H2 8671   3.170   4.488   3.589
 2889TIP3   OH2 8672   5.653   4.819   3.468
 2889TIP3    H1 8673   5.574   4.873   3.461
 2889TIP3    H2 8674   5.627   4.746   3.524
 2890TIP3   OH2 8675   1.280   5.294   2.871
 2890TIP3    H1 8676   1.291   5.208   2.910
 2890TIP3    H2 8677   1.196   5.325   2.905
 2891TIP3   OH2 8678   2.688  -0.004   4.295
 2891TIP3    H1 8679   2.765  -0.055   4.270
 2891TIP3    H2 8680   2.629  -0.011   4.220
 2892TIP3   OH2 8681   5.049   2.168   3.682
 2892TIP3    H1 8682   5.075   2.206   3.766
 2892TIP3    H2 8683   4.955   2.185   3.677
 2893TIP3   OH2 8684   1.064   1.890   1.474
 2893TIP3    H1 8685   1.120   1.817   1.446
 2893TIP3    H2 8686   1.122   1.948   1.523
 2894TIP3   OH2 8687   5.162   2.613   2.600
 2894TIP3    H1 8688   5.135   2.556   2.528
 2894TIP3    H2 8689   5.247   2.577   2.627
 2895TIP3   OH2 8690   5.026   0.850   3.414
 2895TIP3    H1 8691   4.952   0.866   3.472
 2895TIP3    H2 8692   5.051   0.937   3.382
 2896TIP3   OH2 8693   5.999   1.418   3.684
 2896TIP3    H1 8694   5.955   1.335   3.704
 2896TIP3    H2 8695   6.025   1.453   3.769
 2897TIP3   OH2 8696   5.080   4.820   2.858
 2897TIP3    H1 8697   5.099   4.730   2.832
 2897TIP3    H2 8698   4.985   4.829   2.848
 2898TIP3   OH2 8699   0.639   4.636   4.403
 2898TIP3    H1 8700   0.717   4.650   4.348
 2898TIP3    H2 8701   0.595   4.560   4.363
 2899TIP3   OH2 8702   2.923   2.930   0.520
 2899TIP3    H1 8703   2.930   2.837   0.497
 2899TIP3    H2 8704   2.984   2.940   0.593
 2900TIP3   OH2 8705   0.979   3.561   1.165
 2900TIP3    H1 8706   1.036   3.485   1.179
 2900TIP3    H2 8707   1.039   3.630   1.136
 2901TIP3   OH2 8708   1.865   5.989   2.817
 2901TIP3    H1 8709   1.943   6.008   2.869
 2901TIP3    H2 8710   1.898   5.952   2.736
 2902TIP3   OH2 8711   5.196   2.468   4.625
 2902TIP3    H1 8712   5.244   2.436   4.549
 2902TIP3    H2 8713   5.171   2.389   4.673
 2903TIP3   OH2 8714   2.878   4.389   0.903
 2903TIP3    H1 8715   2.949   4.347   0.952
 2903TIP3    H2 8716   2.875   4.478   0.937
 2904TIP3   OH2 8717   4.696   0.546   4.334
 2904TIP3    H1 8718   4.640   0.508   4.402
 2904TIP3    H2 8719   4.769   0.585   4.382
 2905TIP3   OH2 8720   2.176   3.668   4.793
 2905TIP3    H1 8721   2.180   3.607   4.720
 2905TIP3    H2 8722   2.083   3.675   4.814
 2906TIP3   OH2 8723   4.908   5.876   0.156
 2906TIP3    H1 8724   4.853   5.952   0.174
 2906TIP3    H2 8725   4.992   5.897   0.197
 2907TIP3   OH2 8726   2.055   0.620   0.579
 2907TIP3    H1 8727   1.967   0.588   0.599
 2907TIP3    H2 8728   2.040   0.709   0.545
 2908TIP3   OH2 8729   1.280   4.074   0.080
 2908TIP3    H1 8730   1.258   4.161   0.047
 2908TIP3    H2 8731   1.198   4.024   0.074
 2909TIP3   OH2 8732   3.527   4.333   5.020
 2909TIP3    H1 8733   3.489   4.412   5.057
 2909TIP3    H2 8734   3.621   4.341   5.036
 2910TIP3   OH2 8735   1.381   5.410   1.179
 2910TIP3    H1 8736   1.333   5.463   1.242
 2910TIP3    H2 8737   1.346   5.435   1.093
 2911TIP3   OH2 8738   1.227   3.829   3.206
 2911TIP3    H1 8739   1.224   3.737   3.231
 2911TIP3    H2 8740   1.318   3.855   3.220
 2912TIP3   OH2 8741   4.063   2.289   2.405
 2912TIP3    H1 8742   4.097   2.243   2.481
 2912TIP3    H2 8743   4.118   2.367   2.398
 2913TIP3   OH2 8744   3.485   5.526   3.904
 2913TIP3    H1 8745   3.429   5.597   3.934
 2913TIP3    H2 8746   3.570   5.567   3.887
 2914TIP3   OH2 8747   4.809   5.912   3.323
 2914TIP3    H1 8748   4.793   5.988   3.268
 2914TIP3    H2 8749   4.727   5.862   3.321
 2915TIP3   OH2 8750   1.517   3.375   0.425
 2915TIP3    H1 8751   1.581   3.306   0.445
 2915TIP3    H2 8752   1.536   3.400   0.334
 2916TIP3   OH2 8753   2.122   3.110   0.244
 2916TIP3    H1 8754   2.186   3.164   0.197
 2916TIP3    H2 8755   2.037   3.141   0.213
 2917TIP3   OH2 8756   1.856   5.043   0.939
 2917TIP3    H1 8757   1.870   4.961   0.891
 2917TIP3    H2 8758   1.761   5.055   0.939
 2918TIP3   OH2 8759   4.273   0.028   5.123
 2918TIP3    H1 8760   4.203  -0.037   5.135
 2918TIP3    H2 8761   4.305   0.045   5.212
 2919TIP3   OH2 8762   0.550   1.716   3.635
 2919TIP3    H1 8763   0.545   1.655   3.562
 2919TIP3    H2 8764   0.473   1.772   3.625
 2920TIP3   OH2 8765   3.051   3.628   1.139
 2920TIP3    H1 8766   3.038   3.690   1.210
 2920TIP3    H2 8767   3.016   3.671   1.061
 2921TIP3   OH2 8768   2.412   6.015   2.931
 2921TIP3    H1 8769   2.402   6.065   3.012
 2921TIP3    H2 8770   2.416   5.924   2.959
 2922TIP3   OH2 8771   1.649   3.015   2.984
 2922TIP3    H1 8772   1.693   2.949   3.038
 2922TIP3    H2 8773   1.582   2.966   2.937
 2923TIP3   OH2 8774   3.064   0.860   5.106
 2923TIP3    H1 8775   3.137   0.868   5.167
 2923TIP3    H2 8776   3.077   0.931   5.043
 2924TIP3   OH2 8777   2.967   4.373   0.629
 2924TIP3    H1 8778   2.932   4.360   0.718
 2924TIP3    H2 8779   3.009   4.459   0.632
 2925TIP3   OH2 8780   4.200   1.870   2.211
 2925TIP3    H1 8781   4.176   1.820   2.133
 2925TIP3    H2 8782   4.292   1.850   2.225
 2926TIP3   OH2 8783   1.297   2.608   4.427
 2926TIP3    H1 8784   1.361   2.578   4.362
 2926TIP3    H2 8785   1.315   2.555   4.504
 2927TIP3   OH2 8786   1.196   0.294   5.040
 2927TIP3    H1 8787   1.118   0.343   5.065
 2927TIP3    H2 8788   1.211   0.317   4.948
 2928TIP3   OH2 8789   1.249   3.366   0.362
 2928TIP3    H1 8790   1.248   3.286   0.309
 2928TIP3    H2 8791   1.339   3.373   0.393
 2929TIP3   OH2 8792   2.315   2.769   3.886
 2929TIP3    H1 8793   2.334   2.727   3.969
 2929TIP3    H2 8794   2.219   2.772   3.881
 2930TIP3   OH2 8795   6.022   5.854   1.130
 2930TIP3    H1 8796   5.949   5.793   1.135
 2930TIP3    H2 8797   6.054   5.846   1.040
 2931TIP3   OH2 8798   3.757   2.185   4.281
 2931TIP3    H1 8799   3.826   2.119   4.274
 2931TIP3    H2 8800   3.803   2.267   4.298
 2932TIP3   OH2 8801   1.613   4.971   0.219
 2932TIP3    H1 8802   1.570   5.057   0.223
 2932TIP3    H2 8803   1.682   4.975   0.286
 2933TIP3   OH2 8804   6.042   0.413   3.864
 2933TIP3    H1 8805   6.030   0.508   3.861
 2933TIP3    H2 8806   6.086   0.397   3.947
 2934TIP3   OH2 8807   5.710   3.769   0.043
 2934TIP3    H1 8808   5.638   3.713   0.070
 2934TIP3    H2 8809   5.712   3.762  -0.053
 2935TIP3   OH2 8810   0.896   1.212   1.326
 2935TIP3    H1 8811   0.902   1.237   1.234
 2935TIP3    H2 8812   0.873   1.119   1.324
 2936TIP3   OH2 8813   2.080   0.424   5.146
 2936TIP3    H1 8814   2.052   0.483   5.076
 2936TIP3    H2 8815   2.154   0.468   5.186
 2937TIP3   OH2 8816   3.201   0.633   4.814
 2937TIP3    H1 8817   3.250   0.715   4.824
 2937TIP3    H2 8818   3.248   0.585   4.746
 2938TIP3   OH2 8819   0.210   0.774   3.180
 2938TIP3    H1 8820   0.210   0.830   3.103
 2938TIP3    H2 8821   0.296   0.732   3.179
 2939TIP3   OH2 8822   5.869   2.864   0.683
 2939TIP3    H1 8823   5.910   2.896   0.764
 2939TIP3    H2 8824   5.941   2.823   0.635
 2940TIP3   OH2 8825   0.917   5.535   3.720
 2940TIP3    H1 8826   0.955   5.544   3.633
 2940TIP3    H2 8827   0.971   5.469   3.763
 2941TIP3   OH2 8828   1.651   3.618   1.129
 2941TIP3    H1 8829   1.596   3.554   1.084
 2941TIP3    H2 8830   1.640   3.598   1.222
 2942TIP3   OH2 8831   4.623   4.295   1.254
 2942TIP3    H1 8832   4.702   4.349   1.248
 2942TIP3    H2 8833   4.644   4.218   1.201
 2943TIP3   OH2 8834   0.819   3.175   0.807
 2943TIP3    H1 8835   0.888   3.109   0.807
 2943TIP3    H2 8836   0.812   3.201   0.715
 2944TIP3   OH2 8837   1.991   4.076   0.272
 2944TIP3    H1 8838   2.039   4.156   0.296
 2944TIP3    H2 8839   1.904   4.089   0.308
 2945TIP3   OH2 8840   5.922   3.168   1.983
 2945TIP3    H1 8841   6.003   3.208   1.953
 2945TIP3    H2 8842   5.941   3.074   1.988
 2946TIP3   OH2 8843   0.553   4.727   1.684
 2946TIP3    H1 8844   0.555   4.659   1.752
 2946TIP3    H2 8845   0.525   4.682   1.605
 2947TIP3   OH2 8846   0.715   5.310   3.847
 2947TIP3    H1 8847   0.704   5.355   3.763
 2947TIP3    H2 8848   0.667   5.228   3.837
 2948TIP3   OH2 8849   0.062   3.585   4.204
 2948TIP3    H1 8850   0.099   3.503   4.236
 2948TIP3    H2 8851  -0.017   3.597   4.258
 2949TIP3   OH2 8852   0.290   2.429   4.837
 2949TIP3    H1 8853   0.346   2.351   4.837
 2949TIP3    H2 8854   0.335   2.491   4.781
 2950TIP3   OH2 8855   2.093   0.513   0.839
 2950TIP3    H1 8856   2.075   0.427   0.802
 2950TIP3    H2 8857   2.116   0.567   0.763
 2951TIP3   OH2 8858   6.309   0.846   0.681
 2951TIP3    H1 8859   6.308   0.755   0.653
 2951TIP3    H2 8860   6.344   0.844   0.770
 2952TIP3   OH2 8861   4.540   3.185   3.007
 2952TIP3    H1 8862   4.619   3.224   3.044
 2952TIP3    H2 8863   4.513   3.247   2.939
 2953TIP3   OH2 8864   1.983   4.963   3.755
 2953TIP3    H1 8865   1.978   4.975   3.850
 2953TIP3    H2 8866   1.997   5.051   3.721
 2954TIP3   OH2 8867   5.124   2.244   3.962
 2954TIP3    H1 8868   5.090   2.330   3.987
 2954TIP3    H2 8869   5.210   2.239   4.004
 2955TIP3   OH2 8870   0.322   0.365   4.986
 2955TIP3    H1 8871   0.304   0.288   4.932
 2955TIP3    H2 8872   0.357   0.330   5.068
 2956TIP3   OH2 8873   3.495   3.496   0.508
 2956TIP3    H1 8874   3.492   3.588   0.480
 2956TIP3    H2 8875   3.585   3.483   0.539
 2957TIP3   OH2 8876   0.142   0.010   1.047
 2957TIP3    H1 8877   0.165   0.086   1.100
 2957TIP3    H2 8878   0.224  -0.014   1.003
 2958TIP3   OH2 8879   2.017   2.710   3.903
 2958TIP3    H1 8880   1.982   2.790   3.864
 2958TIP3    H2 8881   2.042   2.655   3.829
 2959TIP3   OH2 8882   6.328   1.307   0.706
 2959TIP3    H1 8883   6.380   1.365   0.650
 2959TIP3    H2 8884   6.311   1.230   0.653
 2960TIP3   OH2 8885   2.747   3.330   3.899
 2960TIP3    H1 8886   2.821   3.351   3.956
 2960TIP3    H2 8887   2.761   3.239   3.875
 2961TIP3   OH2 8888   5.247   0.593   3.554
 2961TIP3    H1 8889   5.192   0.616   3.479
 2961TIP3    H2 8890   5.190   0.602   3.630
 2962TIP3   OH2 8891   2.089   4.106   1.733
 2962TIP3    H1 8892   2.113   4.199   1.732
 2962TIP3    H2 8893   2.130   4.071   1.653
 2963TIP3   OH2 8894   0.620   0.070   2.485
 2963TIP3    H1 8895   0.610   0.107   2.398
 2963TIP3    H2 8896   0.654   0.142   2.538
 2964TIP3   OH2 8897   0.443   5.714   1.365
 2964TIP3    H1 8898   0.438   5.789   1.305
 2964TIP3    H2 8899   0.513   5.737   1.427
 2965TIP3   OH2 8900   0.370   1.417   4.815
 2965TIP3    H1 8901   0.367   1.323   4.800
 2965TIP3    H2 8902   0.338   1.428   4.905
 2966TIP3   OH2 8903   1.334   5.793   4.745
 2966TIP3    H1 8904   1.316   5.790   4.839
 2966TIP3    H2 8905   1.352   5.702   4.721
 2967TIP3   OH2 8906   1.183   4.449   5.037
 2967TIP3    H1 8907   1.108   4.491   5.079
 2967TIP3    H2 8908   1.259   4.485   5.082
 2968TIP3   OH2 8909   2.384   3.263   3.319
 2968TIP3    H1 8910   2.314   3.204   3.289
 2968TIP3    H2 8911   2.462   3.208   3.319
 2969TIP3   OH2 8912   5.092   0.634   0.559
 2969TIP3    H1 8913   5.076   0.546   0.526
 2969TIP3    H2 8914   5.046   0.691   0.498
 2970TIP3   OH2 8915   5.181   4.557   1.064
 2970TIP3    H1 8916   5.209   4.569   1.154
 2970TIP3    H2 8917   5.142   4.469   1.063
 2971TIP3   OH2 8918   0.361   4.913   2.020
 2971TIP3    H1 8919   0.307   4.894   1.943
 2971TIP3    H2 8920   0.300   4.909   2.093
 2972TIP3   OH2 8921   1.022   2.393   1.350
 2972TIP3    H1 8922   0.950   2.409   1.411
 2972TIP3    H2 8923   1.095   2.445   1.385
 2973TIP3   OH2 8924   5.798   1.923   2.655
 2973TIP3    H1 8925   5.767   2.013   2.644
 2973TIP3    H2 8926   5.760   1.875   2.581
 2974TIP3   OH2 8927   1.686   1.180   2.305
 2974TIP3    H1 8928   1.754   1.120   2.274
 2974TIP3    H2 8929   1.638   1.130   2.372
 2975TIP3   OH2 8930   6.185   0.636   0.094
 2975TIP3    H1 8931   6.276   0.656   0.115
 2975TIP3    H2 8932   6.189   0.553   0.046
 2976TIP3   OH2 8933   3.127   0.391   0.937
 2976TIP3    H1 8934   3.100   0.475   0.901
 2976TIP3    H2 8935   3.177   0.350   0.866
 2977TIP3   OH2 8936   5.343   4.620   0.867
 2977TIP3    H1 8937   5.291   4.608   0.947
 2977TIP3    H2 8938   5.362   4.714   0.866
 2978TIP3   OH2 8939   6.059   5.232   0.603
 2978TIP3    H1 8940   6.117   5.284   0.659
 2978TIP3    H2 8941   6.023   5.165   0.661
 2979TIP3   OH2 8942   3.584   5.139   0.624
 2979TIP3    H1 8943   3.520   5.102   0.563
 2979TIP3    H2 8944   3.530   5.179   0.692
 2980TIP3   OH2 8945   0.368   3.865   4.644
 2980TIP3    H1 8946   0.429   3.884   4.716
 2980TIP3    H2 8947   0.414   3.803   4.589
 2981TIP3   OH2 8948   3.047   4.231   4.365
 2981TIP3    H1 8949   3.062   4.315   4.322
 2981TIP3    H2 8950   3.133   4.203   4.394
 2982TIP3   OH2 8951   0.490   4.789   1.292
 2982TIP3    H1 8952   0.544   4.853   1.338
 2982TIP3    H2 8953   0.435   4.750   1.361
 2983TIP3   OH2 8954   3.297   4.823   3.175
 2983TIP3    H1 8955   3.325   4.778   3.254
 2983TIP3    H2 8956   3.375   4.827   3.120
 2984TIP3   OH2 8957   3.058   4.971   3.067
 2984TIP3    H1 8958   3.073   5.062   3.094
 2984TIP3    H2 8959   3.123   4.920   3.116
 2985TIP3   OH2 8960   0.077   0.411   3.420
 2985TIP3    H1 8961   0.081   0.442   3.510
 2985TIP3    H2 8962   0.163   0.432   3.384
 2986TIP3   OH2 8963   3.676   2.029   3.181
 2986TIP3    H1 8964   3.712   2.117   3.194
 2986TIP3    H2 8965   3.592   2.030   3.227
 2987TIP3   OH2 8966   5.617   5.223   2.495
 2987TIP3    H1 8967   5.705   5.185   2.500
 2987TIP3    H2 8968   5.567   5.159   2.443
 2988TIP3   OH2 8969   5.386   1.055   1.441
 2988TIP3    H1 8970   5.293   1.072   1.455
 2988TIP3    H2 8971   5.429   1.091   1.518
 2989TIP3   OH2 8972   3.553   4.310   0.345
 2989TIP3    H1 8973   3.593   4.277   0.265
 2989TIP3    H2 8974   3.626   4.341   0.398
 2990TIP3   OH2 8975   0.282   5.417   1.924
 2990TIP3    H1 8976   0.294   5.378   1.838
 2990TIP3    H2 8977   0.205   5.473   1.915
 2991TIP3   OH2 8978   1.366   2.791   0.832
 2991TIP3    H1 8979   1.431   2.861   0.827
 2991TIP3    H2 8980   1.330   2.786   0.743
 2992TIP3   OH2 8981   2.160   0.942   2.003
 2992TIP3    H1 8982   2.169   0.935   1.908
 2992TIP3    H2 8983   2.132   0.854   2.030
 2993TIP3   OH2 8984   0.687   4.474   5.000
 2993TIP3    H1 8985   0.592   4.479   4.992
 2993TIP3    H2 8986   0.712   4.561   5.033
 2994TIP3   OH2 8987   1.968   4.616   1.095
 2994TIP3    H1 8988   1.920   4.539   1.065
 2994TIP3    H2 8989   2.026   4.639   1.022
 2995TIP3   OH2 8990   5.444   0.590   1.648
 2995TIP3    H1 8991   5.508   0.655   1.677
 2995TIP3    H2 8992   5.368   0.642   1.620
 2996TIP3   OH2 8993   5.518   2.246   1.264
 2996TIP3    H1 8994   5.584   2.184   1.232
 2996TIP3    H2 8995   5.569   2.311   1.313
 2997TIP3   OH2 8996   0.624   4.101   1.658
 2997TIP3    H1 8997   0.671   4.084   1.739
 2997TIP3    H2 8998   0.541   4.055   1.667
 2998TIP3   OH2 8999   5.429   2.378   3.166
 2998TIP3    H1 9000   5.522   2.360   3.151
 2998TIP3    H2 9001   5.425   2.473   3.180
 2999TIP3   OH2 9002   5.941   5.630   1.665
 2999TIP3    H1 9003   5.898   5.592   1.589
 2999TIP3    H2 9004   5.870   5.671   1.715
 3000TIP3   OH2 9005   2.778   4.387   3.913
 3000TIP3    H1 9006   2.829   4.308   3.895
 3000TIP3    H2 9007   2.821   4.455   3.862
 3001TIP3   OH2 9008   4.581   0.714   0.029
 3001TIP3    H1 9009   4.526   0.670   0.093
 3001TIP3    H2 9010   4.653   0.752   0.079
 3002TIP3   OH2 9011   3.735   4.925   0.549
 3002TIP3    H1 9012   3.689   5.003   0.579
 3002TIP3    H2 9013   3.815   4.958   0.507
 3003TIP3   OH2 9014   6.229   1.346   4.403
 3003TIP3    H1 9015   6.174   1.270   4.386
 3003TIP3    H2 9016   6.311   1.327   4.358
 3004TIP3   OH2 9017   4.783   1.499   1.529
 3004TIP3    H1 9018   4.816   1.531   1.445
 3004TIP3    H2 9019   4.693   1.532   1.533
 3005TIP3   OH2 9020   1.260   3.620   0.805
 3005TIP3    H1 9021   1.183   3.619   0.748
 3005TIP3    H2 9022   1.334   3.609   0.746
 3006TIP3   OH2 9023   5.334   3.523   0.751
 3006TIP3    H1 9024   5.333   3.456   0.819
 3006TIP3    H2 9025   5.426   3.530   0.726
 3007TIP3   OH2 9026   4.407   4.235   0.865
 3007TIP3    H1 9027   4.326   4.263   0.822
 3007TIP3    H2 9028   4.378   4.178   0.937
 3008TIP3   OH2 9029   0.653   3.405   3.468
 3008TIP3    H1 9030   0.737   3.402   3.422
 3008TIP3    H2 9031   0.596   3.348   3.416
 3009TIP3   OH2 9032   4.386   0.260   3.683
 3009TIP3    H1 9033   4.472   0.247   3.644
 3009TIP3    H2 9034   4.333   0.188   3.649
 3010TIP3   OH2 9035   1.280   1.918   2.472
 3010TIP3    H1 9036   1.368   1.881   2.480
 3010TIP3    H2 9037   1.258   1.947   2.561
 3011TIP3   OH2 9038   0.105   4.279   4.280
 3011TIP3    H1 9039   0.041   4.310   4.344
 3011TIP3    H2 9040   0.189   4.288   4.324
 3012TIP3   OH2 9041   0.116   1.261   1.772
 3012TIP3    H1 9042   0.119   1.312   1.690
 3012TIP3    H2 9043   0.023   1.254   1.792
 3013TIP3   OH2 9044   0.598   3.555   5.035
 3013TIP3    H1 9045   0.616   3.640   4.996
 3013TIP3    H2 9046   0.524   3.521   4.985
 3014TIP3   OH2 9047   6.380   1.262   5.081
 3014TIP3    H1 9048   6.300   1.216   5.108
 3014TIP3    H2 9049   6.358   1.303   4.998
 3015TIP3   OH2 9050   2.706   5.472   0.945
 3015TIP3    H1 9051   2.649   5.396   0.937
 3015TIP3    H2 9052   2.750   5.479   0.861
 3016TIP3   OH2 9053   4.068   2.339   0.194
 3016TIP3    H1 9054   4.074   2.321   0.100
 3016TIP3    H2 9055   4.017   2.420   0.200
 3017TIP3   OH2 9056   0.752   5.762   1.232
 3017TIP3    H1 9057   0.699   5.820   1.177
 3017TIP3    H2 9058   0.828   5.740   1.178
 3018TIP3   OH2 9059   3.358   5.696   3.074
 3018TIP3    H1 9060   3.409   5.617   3.055
 3018TIP3    H2 9061   3.422   5.757   3.110
 3019TIP3   OH2 9062   5.528   4.232   4.519
 3019TIP3    H1 9063   5.474   4.221   4.441
 3019TIP3    H2 9064   5.530   4.326   4.534
 3020TIP3   OH2 9065   3.949   0.274   0.696
 3020TIP3    H1 9066   3.991   0.193   0.666
 3020TIP3    H2 9067   4.007   0.344   0.667
 3021TIP3   OH2 9068   3.028   3.086   4.964
 3021TIP3    H1 9069   3.035   3.095   4.869
 3021TIP3    H2 9070   2.986   3.001   4.978
 3022TIP3   OH2 9071   3.280   1.496   4.111
 3022TIP3    H1 9072   3.187   1.473   4.117
 3022TIP3    H2 9073   3.291   1.570   4.171
 3023TIP3   OH2 9074   5.535   2.562   1.201
 3023TIP3    H1 9075   5.502   2.520   1.122
 3023TIP3    H2 9076   5.543   2.655   1.177
 3024TIP3   OH2 9077   0.894   4.010   4.302
 3024TIP3    H1 9078   0.839   4.052   4.235
 3024TIP3    H2 9079   0.958   4.077   4.326
 3025TIP3   OH2 9080   4.472   0.547   4.495
 3025TIP3    H1 9081   4.467   0.627   4.547
 3025TIP3    H2 9082   4.397   0.551   4.436
 3026TIP3   OH2 9083   5.754   4.305   0.706
 3026TIP3    H1 9084   5.684   4.304   0.641
 3026TIP3    H2 9085   5.748   4.221   0.750
 3027TIP3   OH2 9086   2.755   1.537   5.065
 3027TIP3    H1 9087   2.707   1.465   5.024
 3027TIP3    H2 9088   2.833   1.495   5.102
 3028TIP3   OH2 9089   2.456   3.715   3.978
 3028TIP3    H1 9090   2.417   3.746   4.060
 3028TIP3    H2 9091   2.392   3.738   3.911
 3029TIP3   OH2 9092   0.828   1.597   3.528
 3029TIP3    H1 9093   0.805   1.562   3.614
 3029TIP3    H2 9094   0.920   1.574   3.517
 3030TIP3   OH2 9095   1.022   0.367   0.448
 3030TIP3    H1 9096   1.057   0.339   0.533
 3030TIP3    H2 9097   0.963   0.439   0.469
 3031TIP3   OH2 9098   0.027   5.658   2.366
 3031TIP3    H1 9099   0.118   5.689   2.360
 3031TIP3    H2 9100  -0.010   5.709   2.438
 3032TIP3   OH2 9101   3.413   0.254   1.264
 3032TIP3    H1 9102   3.493   0.290   1.300
 3032TIP3    H2 9103   3.437   0.166   1.235
 3033TIP3   OH2 9104   2.775   3.559   0.435
 3033TIP3    H1 9105   2.706   3.494   0.424
 3033TIP3    H2 9106   2.830   3.549   0.357
 3034TIP3   OH2 9107   5.130   5.211   4.778
 3034TIP3    H1 9108   5.057   5.259   4.816
 3034TIP3    H2 9109   5.161   5.268   4.707
 3035TIP3   OH2 9110   3.107   5.730   4.533
 3035TIP3    H1 9111   3.044   5.664   4.563
 3035TIP3    H2 9112   3.184   5.716   4.587
 3036TIP3   OH2 9113   6.166   1.807   2.233
 3036TIP3    H1 9114   6.158   1.890   2.187
 3036TIP3    H2 9115   6.179   1.831   2.325
 3037TIP3   OH2 9116   3.779   4.592   3.843
 3037TIP3    H1 9117   3.700   4.559   3.800
 3037TIP3    H2 9118   3.849   4.574   3.781
 3038TIP3   OH2 9119   1.901   2.652   1.750
 3038TIP3    H1 9120   1.937   2.719   1.807
 3038TIP3    H2 9121   1.810   2.643   1.778
 3039TIP3   OH2 9122   4.096   5.850   2.588
 3039TIP3    H1 9123   4.015   5.874   2.543
 3039TIP3    H2 9124   4.151   5.928   2.583
 3040TIP3   OH2 9125   2.602   1.142   0.630
 3040TIP3    H1 9126   2.693   1.115   0.643
 3040TIP3    H2 9127   2.600   1.178   0.541
 3041TIP3   OH2 9128   6.080   1.301   3.397
 3041TIP3    H1 9129   6.110   1.279   3.309
 3041TIP3    H2 9130   6.093   1.395   3.405
 3042TIP3   OH2 9131   1.091   5.048   2.361
 3042TIP3    H1 9132   1.008   5.025   2.320
 3042TIP3    H2 9133   1.079   5.025   2.453
 3043TIP3   OH2 9134   6.239   0.629   2.857
 3043TIP3    H1 9135   6.294   0.687   2.805
 3043TIP3    H2 9136   6.173   0.597   2.796
 3044TIP3   OH2 9137   0.979   2.691   1.545
 3044TIP3    H1 9138   0.996   2.753   1.475
 3044TIP3    H2 9139   1.044   2.621   1.532
 3045TIP3   OH2 9140   4.362   4.039   1.983
 3045TIP3    H1 9141   4.413   4.013   1.906
 3045TIP3    H2 9142   4.272   4.016   1.961
 3046TIP3   OH2 9143   0.652   1.232   4.859
 3046TIP3    H1 9144   0.628   1.223   4.767
 3046TIP3    H2 9145   0.592   1.174   4.906
 3047TIP3   OH2 9146   2.041   2.958   4.123
 3047TIP3    H1 9147   2.131   2.973   4.153
 3047TIP3    H2 9148   2.040   2.987   4.032
 3048TIP3   OH2 9149   4.364   1.238   0.456
 3048TIP3    H1 9150   4.282   1.209   0.416
 3048TIP3    H2 9151   4.384   1.169   0.520
 3049TIP3   OH2 9152   2.650   2.737   2.921
 3049TIP3    H1 9153   2.597   2.686   2.861
 3049TIP3    H2 9154   2.686   2.808   2.867
 3050TIP3   OH2 9155   6.079   0.683   3.091
 3050TIP3    H1 9156   6.146   0.675   3.159
 3050TIP3    H2 9157   6.128   0.681   3.009
 3051TIP3   OH2 9158   3.302   5.608   4.261
 3051TIP3    H1 9159   3.306   5.670   4.189
 3051TIP3    H2 9160   3.376   5.632   4.317
 3052TIP3   OH2 9161   1.941   5.893   2.331
 3052TIP3    H1 9162   2.026   5.910   2.290
 3052TIP3    H2 9163   1.911   5.979   2.360
 3053TIP3   OH2 9164   5.806   5.931   2.077
 3053TIP3    H1 9165   5.880   5.873   2.059
 3053TIP3    H2 9166   5.824   6.010   2.027
 3054TIP3   OH2 9167   0.946   1.436   4.564
 3054TIP3    H1 9168   0.945   1.532   4.563
 3054TIP3    H2 9169   1.038   1.413   4.556
 3055TIP3   OH2 9170   4.646   5.238   0.454
 3055TIP3    H1 9171   4.617   5.280   0.534
 3055TIP3    H2 9172   4.661   5.310   0.393
 3056TIP3   OH2 9173   3.279   2.092   2.027
 3056TIP3    H1 9174   3.363   2.112   2.068
 3056TIP3    H2 9175   3.264   1.999   2.047
 3057TIP3   OH2 9176   0.648   4.191   3.790
 3057TIP3    H1 9177   0.620   4.280   3.811
 3057TIP3    H2 9178   0.705   4.201   3.714
 3058TIP3   OH2 9179   3.813   1.913   1.218
 3058TIP3    H1 9180   3.742   1.881   1.273
 3058TIP3    H2 9181   3.859   1.976   1.274
 3059TIP3   OH2 9182   6.000   2.609   4.350
 3059TIP3    H1 9183   6.002   2.704   4.360
 3059TIP3    H2 9184   5.969   2.595   4.260
 3060TIP3   OH2 9185   0.609   4.513   0.372
 3060TIP3    H1 9186   0.583   4.603   0.394
 3060TIP3    H2 9187   0.538   4.458   0.404
 3061TIP3   OH2 9188   4.244   5.386   0.188
 3061TIP3    H1 9189   4.326   5.341   0.171
 3061TIP3    H2 9190   4.201   5.334   0.256
 3062TIP3   OH2 9191   1.866   1.395   2.468
 3062TIP3    H1 9192   1.851   1.330   2.537
 3062TIP3    H2 9193   1.917   1.348   2.402
 3063TIP3   OH2 9194   5.493   4.221   3.106
 3063TIP3    H1 9195   5.543   4.154   3.059
 3063TIP3    H2 9196   5.505   4.301   3.055
 3064TIP3   OH2 9197   3.950   5.234   4.727
 3064TIP3    H1 9198   3.863   5.208   4.759
 3064TIP3    H2 9199   4.008   5.224   4.802
 3065TIP3   OH2 9200   1.215   3.186   3.779
 3065TIP3    H1 9201   1.182   3.106   3.820
 3065TIP3    H2 9202   1.139   3.224   3.735
 3066TIP3   OH2 9203   4.436   1.456   0.630
 3066TIP3    H1 9204   4.371   1.475   0.698
 3066TIP3    H2 9205   4.392   1.394   0.571
 3067TIP3   OH2 9206   0.293   3.980   4.024
 3067TIP3    H1 9207   0.324   3.989   3.934
 3067TIP3    H2 9208   0.299   4.069   4.060
 3068TIP3   OH2 9209   5.833   5.169   1.413
 3068TIP3    H1 9210   5.886   5.162   1.334
 3068TIP3    H2 9211   5.755   5.217   1.385
 3069TIP3   OH2 9212   0.896   3.841   2.530
 3069TIP3    H1 9213   0.930   3.752   2.534
 3069TIP3    H2 9214   0.967   3.896   2.563
 3070TIP3   OH2 9215   5.229   5.757   4.835
 3070TIP3    H1 9216   5.319   5.738   4.862
 3070TIP3    H2 9217   5.236   5.829   4.773
 3071TIP3   OH2 9218   0.422   4.992   3.152
 3071TIP3    H1 9219   0.331   4.965   3.167
 3071TIP3    H2 9220   0.416   5.054   3.079
 3072TIP3   OH2 9221   4.763   0.877   0.137
 3072TIP3    H1 9222   4.721   0.914   0.214
 3072TIP3    H2 9223   4.839   0.933   0.121
 3073TIP3   OH2 9224   2.115   2.045   3.882
 3073TIP3    H1 9225   2.116   2.043   3.977
 3073TIP3    H2 9226   2.205   2.068   3.858
 3074TIP3   OH2 9227   0.827   3.739   3.448
 3074TIP3    H1 9228   0.740   3.777   3.457
 3074TIP3    H2 9229   0.821   3.681   3.372
 3075TIP3   OH2 9230   2.994   4.216   3.030
 3075TIP3    H1 9231   2.992   4.252   2.941
 3075TIP3    H2 9232   2.907   4.233   3.065
 3076TIP3   OH2 9233   3.613   3.422   1.338
 3076TIP3    H1 9234   3.547   3.463   1.393
 3076TIP3    H2 9235   3.578   3.429   1.249
 3077TIP3   OH2 9236   3.168   3.768   0.530
 3077TIP3    H1 9237   3.162   3.673   0.526
 3077TIP3    H2 9238   3.220   3.791   0.452
 3078TIP3   OH2 9239   1.213   4.164   1.764
 3078TIP3    H1 9240   1.177   4.163   1.853
 3078TIP3    H2 9241   1.147   4.120   1.711
 3079TIP3   OH2 9242   4.016   0.377   2.579
 3079TIP3    H1 9243   4.083   0.431   2.621
 3079TIP3    H2 9244   4.050   0.362   2.491
 3080TIP3   OH2 9245   4.041   0.781   4.296
 3080TIP3    H1 9246   4.019   0.812   4.208
 3080TIP3    H2 9247   4.007   0.850   4.354
 3081TIP3   OH2 9248   2.520   4.928   4.571
 3081TIP3    H1 9249   2.502   4.980   4.493
 3081TIP3    H2 9250   2.571   4.854   4.539
 3082TIP3   OH2 9251   2.643   4.644   1.212
 3082TIP3    H1 9252   2.703   4.711   1.244
 3082TIP3    H2 9253   2.580   4.691   1.158
 3083TIP3   OH2 9254   4.757   3.332   3.101
 3083TIP3    H1 9255   4.800   3.415   3.120
 3083TIP3    H2 9256   4.785   3.273   3.170
 3084TIP3   OH2 9257   2.714   4.261   2.333
 3084TIP3    H1 9258   2.704   4.179   2.381
 3084TIP3    H2 9259   2.625   4.288   2.313
 3085TIP3   OH2 9260   0.316   5.354   3.319
 3085TIP3    H1 9261   0.386   5.289   3.314
 3085TIP3    H2 9262   0.273   5.348   3.233
 3086TIP3   OH2 9263   5.863   3.208   0.787
 3086TIP3    H1 9264   5.821   3.245   0.865
 3086TIP3    H2 9265   5.797   3.147   0.752
 3087TIP3   OH2 9266   3.586   2.290   1.401
 3087TIP3    H1 9267   3.585   2.211   1.347
 3087TIP3    H2 9268   3.678   2.302   1.424
 3088TIP3   OH2 9269   4.206   5.342   1.624
 3088TIP3    H1 9270   4.234   5.395   1.549
 3088TIP3    H2 9271   4.261   5.264   1.619
 3089TIP3   OH2 9272   3.732   0.014   3.794
 3089TIP3    H1 9273   3.790  -0.046   3.842
 3089TIP3    H2 9274   3.763   0.009   3.703
 3090TIP3   OH2 9275   4.341   5.871   1.307
 3090TIP3    H1 9276   4.433   5.885   1.328
 3090TIP3    H2 9277   4.335   5.881   1.212
 3091TIP3   OH2 9278   0.686   2.661   4.852
 3091TIP3    H1 9279   0.701   2.748   4.887
 3091TIP3    H2 9280   0.770   2.636   4.814
 3092TIP3   OH2 9281   4.825   3.754   3.194
 3092TIP3    H1 9282   4.732   3.778   3.192
 3092TIP3    H2 9283   4.828   3.679   3.254
 3093TIP3   OH2 9284   2.597   0.439   4.660
 3093TIP3    H1 9285   2.663   0.418   4.725
 3093TIP3    H2 9286   2.581   0.357   4.614
 3094TIP3   OH2 9287   5.083   0.141   4.264
 3094TIP3    H1 9288   5.156   0.079   4.260
 3094TIP3    H2 9289   5.019   0.106   4.202
 3095TIP3   OH2 9290   4.322   3.729   0.746
 3095TIP3    H1 9291   4.286   3.654   0.792
 3095TIP3    H2 9292   4.257   3.749   0.678
 3096TIP3   OH2 9293   5.170   0.414   1.697
 3096TIP3    H1 9294   5.225   0.477   1.652
 3096TIP3    H2 9295   5.111   0.380   1.629
 3097TIP3   OH2 9296   4.658   4.105   3.670
 3097TIP3    H1 9297   4.710   4.114   3.591
 3097TIP3    H2 9298   4.656   4.011   3.687
 3098TIP3   OH2 9299   0.021   0.061   3.688
 3098TIP3    H1 9300  -0.015   0.018   3.610
 3098TIP3    H2 9301  -0.052   0.112   3.723
 3099TIP3   OH2 9302   6.002   2.603   3.603
 3099TIP3    H1 9303   6.014   2.560   3.519
 3099TIP3    H2 9304   5.918   2.571   3.635
 3100TIP3   OH2 9305   2.613   3.661   1.906
 3100TIP3    H1 9306   2.568   3.690   1.985
 3100TIP3    H2 9307   2.560   3.589   1.873
 3101TIP3   OH2 9308   4.228   5.783   3.180
 3101TIP3    H1 9309   4.251   5.748   3.094
 3101TIP3    H2 9310   4.185   5.710   3.224
 3102TIP3   OH2 9311   1.189   0.718   2.038
 3102TIP3    H1 9312   1.188   0.627   2.008
 3102TIP3    H2 9313   1.100   0.749   2.022
 3103TIP3   OH2 9314   5.539   5.764   2.367
 3103TIP3    H1 9315   5.574   5.678   2.391
 3103TIP3    H2 9316   5.485   5.790   2.441
 3104TIP3   OH2 9317   3.887   5.815   2.349
 3104TIP3    H1 9318   3.842   5.900   2.347
 3104TIP3    H2 9319   3.836   5.762   2.410
 3105TIP3   OH2 9320   1.326   0.930   4.785
 3105TIP3    H1 9321   1.250   0.973   4.825
 3105TIP3    H2 9322   1.380   0.902   4.858
 3106TIP3   OH2 9323   1.021   0.362   1.944
 3106TIP3    H1 9324   0.945   0.305   1.948
 3106TIP3    H2 9325   0.996   0.432   1.884
 3107TIP3   OH2 9326   2.548   2.242   0.786
 3107TIP3    H1 9327   2.527   2.312   0.724
 3107TIP3    H2 9328   2.625   2.274   0.834
 3108TIP3   OH2 9329   4.630   5.894   2.571
 3108TIP3    H1 9330   4.705   5.929   2.524
 3108TIP3    H2 9331   4.607   5.963   2.634
 3109TIP3   OH2 9332   4.192   3.182   4.595
 3109TIP3    H1 9333   4.098   3.198   4.592
 3109TIP3    H2 9334   4.201   3.089   4.613
 3110TIP3   OH2 9335   0.206   5.199   0.158
 3110TIP3    H1 9336   0.278   5.212   0.220
 3110TIP3    H2 9337   0.129   5.235   0.203
 3111TIP3   OH2 9338   5.268   4.918   2.643
 3111TIP3    H1 9339   5.235   4.998   2.603
 3111TIP3    H2 9340   5.193   4.881   2.690
 3112TIP3   OH2 9341   6.080   0.896   4.296
 3112TIP3    H1 9342   6.148   0.841   4.256
 3112TIP3    H2 9343   6.022   0.834   4.341
 3113TIP3   OH2 9344   4.639   5.592   1.669
 3113TIP3    H1 9345   4.552   5.588   1.710
 3113TIP3    H2 9346   4.695   5.543   1.728
 3114TIP3   OH2 9347   3.883   5.486   4.757
 3114TIP3    H1 9348   3.965   5.531   4.735
 3114TIP3    H2 9349   3.898   5.395   4.730
 3115TIP3   OH2 9350   3.835   0.949   4.977
 3115TIP3    H1 9351   3.878   0.964   5.061
 3115TIP3    H2 9352   3.761   0.892   4.998
 3116TIP3   OH2 9353   0.144   4.565   1.132
 3116TIP3    H1 9354   0.102   4.634   1.184
 3116TIP3    H2 9355   0.177   4.610   1.055
 3117TIP3   OH2 9356   1.632   5.702   5.172
 3117TIP3    H1 9357   1.657   5.690   5.081
 3117TIP3    H2 9358   1.550   5.751   5.169
 3118TIP3   OH2 9359   3.432   4.066   0.433
 3118TIP3    H1 9360   3.385   4.042   0.353
 3118TIP3    H2 9361   3.450   4.159   0.423
 3119TIP3   OH2 9362   2.148   4.889   1.390
 3119TIP3    H1 9363   2.059   4.887   1.356
 3119TIP3    H2 9364   2.188   4.965   1.347
 3120TIP3   OH2 9365   0.860   2.863   2.252
 3120TIP3    H1 9366   0.767   2.885   2.252
 3120TIP3    H2 9367   0.870   2.797   2.184
 3121TIP3   OH2 9368   5.904   0.803   0.354
 3121TIP3    H1 9369   5.813   0.828   0.339
 3121TIP3    H2 9370   5.952   0.886   0.353
 3122TIP3   OH2 9371   0.801   3.198   1.680
 3122TIP3    H1 9372   0.746   3.271   1.711
 3122TIP3    H2 9373   0.823   3.150   1.760
 3123TIP3   OH2 9374   2.214   1.020   1.012
 3123TIP3    H1 9375   2.277   1.061   1.071
 3123TIP3    H2 9376   2.207   1.081   0.938
 3124TIP3   OH2 9377   3.702   0.517   1.689
 3124TIP3    H1 9378   3.615   0.507   1.728
 3124TIP3    H2 9379   3.757   0.551   1.760
 3125TIP3   OH2 9380   1.413   3.994   1.664
 3125TIP3    H1 9381   1.357   4.062   1.702
 3125TIP3    H2 9382   1.352   3.931   1.627
 3126TIP3   OH2 9383   1.619   2.935   2.570
 3126TIP3    H1 9384   1.682   2.952   2.640
 3126TIP3    H2 9385   1.550   2.883   2.611
 3127TIP3   OH2 9386   5.186   4.036   2.249
 3127TIP3    H1 9387   5.215   3.945   2.249
 3127TIP3    H2 9388   5.254   4.083   2.202
 3128TIP3   OH2 9389   1.222   2.088   3.393
 3128TIP3    H1 9390   1.283   2.129   3.454
 3128TIP3    H2 9391   1.270   2.015   3.355
 3129TIP3   OH2 9392   3.735   0.287   3.916
 3129TIP3    H1 9393   3.722   0.202   3.873
 3129TIP3    H2 9394   3.690   0.350   3.859
 3130TIP3   OH2 9395   5.709   3.968   4.776
 3130TIP3    H1 9396   5.633   3.991   4.722
 3130TIP3    H2 9397   5.782   4.012   4.732
 3131TIP3   OH2 9398   0.048   2.050   1.554
 3131TIP3    H1 9399  -0.040   2.078   1.529
 3131TIP3    H2 9400   0.067   1.976   1.498
 3132TIP3   OH2 9401   5.482   0.072   2.706
 3132TIP3    H1 9402   5.554   0.059   2.644
 3132TIP3    H2 9403   5.403   0.055   2.654
 3133TIP3   OH2 9404   5.699   2.154   3.801
 3133TIP3    H1 9405   5.609   2.140   3.832
 3133TIP3    H2 9406   5.749   2.082   3.840
 3134TIP3   OH2 9407   5.120   3.623   2.173
 3134TIP3    H1 9408   5.181   3.696   2.180
 3134TIP3    H2 9409   5.175   3.550   2.142
 3135TIP3   OH2 9410   3.333   4.241   3.956
 3135TIP3    H1 9411   3.245   4.266   3.984
 3135TIP3    H2 9412   3.387   4.254   4.034
 3136TIP3   OH2 9413   3.012   2.823   1.005
 3136TIP3    H1 9414   3.103   2.850   1.007
 3136TIP3    H2 9415   2.975   2.856   1.087
 3137TIP3   OH2 9416   2.197   5.799   2.794
 3137TIP3    H1 9417   2.131   5.773   2.730
 3137TIP3    H2 9418   2.261   5.849   2.743
 3138TIP3   OH2 9419   2.302   1.863   3.393
 3138TIP3    H1 9420   2.297   1.827   3.304
 3138TIP3    H2 9421   2.222   1.831   3.436
 3139TIP3   OH2 9422   5.417   1.759   1.874
 3139TIP3    H1 9423   5.434   1.782   1.965
 3139TIP3    H2 9424   5.323   1.742   1.871
 3140TIP3   OH2 9425   0.731   2.517   4.002
 3140TIP3    H1 9426   0.761   2.564   4.079
 3140TIP3    H2 9427   0.636   2.509   4.014
 3141TIP3   OH2 9428   4.695   1.454   0.524
 3141TIP3    H1 9429   4.684   1.543   0.492
 3141TIP3    H2 9430   4.609   1.430   0.560
 3142TIP3   OH2 9431   1.257   0.706   3.205
 3142TIP3    H1 9432   1.281   0.627   3.157
 3142TIP3    H2 9433   1.298   0.777   3.157
 3143TIP3   OH2 9434   1.804   3.978   2.538
 3143TIP3    H1 9435   1.874   3.913   2.540
 3143TIP3    H2 9436   1.744   3.947   2.470
 3144TIP3   OH2 9437   2.825   3.998   2.751
 3144TIP3    H1 9438   2.901   4.006   2.809
 3144TIP3    H2 9439   2.768   3.935   2.796
 3145TIP3   OH2 9440   6.193   5.592   0.991
 3145TIP3    H1 9441   6.229   5.615   1.076
 3145TIP3    H2 9442   6.154   5.505   1.004
 3146TIP3   OH2 9443   1.329   4.938   1.153
 3146TIP3    H1 9444   1.419   4.905   1.162
 3146TIP3    H2 9445   1.275   4.859   1.147
 3147TIP3   OH2 9446   6.117   3.231   0.317
 3147TIP3    H1 9447   6.131   3.184   0.399
 3147TIP3    H2 9448   6.122   3.164   0.249
 3148TIP3   OH2 9449   1.273   0.065   3.255
 3148TIP3    H1 9450   1.291   0.109   3.338
 3148TIP3    H2 9451   1.240   0.135   3.198
 3149TIP3   OH2 9452   0.880   2.597   0.737
 3149TIP3    H1 9453   0.962   2.588   0.784
 3149TIP3    H2 9454   0.906   2.607   0.645
 3150TIP3   OH2 9455   3.742   4.625   2.127
 3150TIP3    H1 9456   3.649   4.640   2.115
 3150TIP3    H2 9457   3.754   4.621   2.222
 3151TIP3   OH2 9458   4.425   0.406   1.640
 3151TIP3    H1 9459   4.485   0.393   1.713
 3151TIP3    H2 9460   4.483   0.417   1.564
 3152TIP3   OH2 9461   3.879   4.027   0.497
 3152TIP3    H1 9462   3.845   3.972   0.427
 3152TIP3    H2 9463   3.843   3.989   0.577
 3153TIP3   OH2 9464   5.882   5.857   3.357
 3153TIP3    H1 9465   5.906   5.950   3.347
 3153TIP3    H2 9466   5.954   5.819   3.408
 3154TIP3   OH2 9467   4.029   5.478   5.065
 3154TIP3    H1 9468   4.074   5.431   4.994
 3154TIP3    H2 9469   3.967   5.415   5.101
 3155TIP3   OH2 9470   5.858   5.010   0.150
 3155TIP3    H1 9471   5.764   5.014   0.133
 3155TIP3    H2 9472   5.888   5.100   0.138
 3156TIP3   OH2 9473   2.226   3.338   1.630
 3156TIP3    H1 9474   2.218   3.399   1.557
 3156TIP3    H2 9475   2.271   3.262   1.593
 3157TIP3   OH2 9476   0.282   5.249   4.304
 3157TIP3    H1 9477   0.229   5.195   4.362
 3157TIP3    H2 9478   0.341   5.296   4.363
 3158TIP3   OH2 9479   5.325   0.260   1.376
 3158TIP3    H1 9480   5.346   0.168   1.394
 3158TIP3    H2 9481   5.408   0.306   1.384
 3159TIP3   OH2 9482   4.722   3.463   2.785
 3159TIP3    H1 9483   4.778   3.385   2.793
 3159TIP3    H2 9484   4.763   3.528   2.842
 3160TIP3   OH2 9485   2.474   5.806   2.568
 3160TIP3    H1 9486   2.564   5.795   2.599
 3160TIP3    H2 9487   2.446   5.718   2.545
 3161TIP3   OH2 9488   3.758   2.807   1.790
 3161TIP3    H1 9489   3.823   2.869   1.822
 3161TIP3    H2 9490   3.719   2.770   1.870
 3162TIP3   OH2 9491   1.563   0.853   0.448
 3162TIP3    H1 9492   1.584   0.867   0.356
 3162TIP3    H2 9493   1.558   0.757   0.457
 3163TIP3   OH2 9494   4.302   4.220   2.365
 3163TIP3    H1 9495   4.290   4.125   2.373
 3163TIP3    H2 9496   4.213   4.255   2.359
 3164TIP3   OH2 9497   5.685   0.345   1.258
 3164TIP3    H1 9498   5.656   0.332   1.168
 3164TIP3    H2 9499   5.620   0.406   1.295
 3165TIP3   OH2 9500   1.164   3.187   2.859
 3165TIP3    H1 9501   1.136   3.102   2.893
 3165TIP3    H2 9502   1.201   3.233   2.934
 3166TIP3   OH2 9503   1.342   2.680   2.336
 3166TIP3    H1 9504   1.415   2.678   2.275
 3166TIP3    H2 9505   1.290   2.756   2.309
 3167TIP3   OH2 9506   5.401   0.686   0.784
 3167TIP3    H1 9507   5.462   0.744   0.830
 3167TIP3    H2 9508   5.391   0.611   0.843
 3168TIP3   OH2 9509   5.169   1.386   4.367
 3168TIP3    H1 9510   5.227   1.440   4.422
 3168TIP3    H2 9511   5.197   1.405   4.278
 3169TIP3   OH2 9512   2.337   4.511   4.596
 3169TIP3    H1 9513   2.294   4.512   4.510
 3169TIP3    H2 9514   2.270   4.478   4.655
 3170TIP3   OH2 9515   2.795   1.054   0.065
 3170TIP3    H1 9516   2.779   1.111  -0.010
 3170TIP3    H2 9517   2.888   1.064   0.084
 3171TIP3   OH2 9518   5.489   1.885   3.708
 3171TIP3    H1 9519   5.492   1.798   3.669
 3171TIP3    H2 9520   5.432   1.935   3.651
 3172TIP3   OH2 9521   1.057   2.859   1.350
 3172TIP3    H1 9522   1.143   2.844   1.312
 3172TIP3    H2 9523   1.061   2.948   1.386
 3173TIP3   OH2 9524   0.440   0.533   3.850
 3173TIP3    H1 9525   0.383   0.479   3.906
 3173TIP3    H2 9526   0.406   0.621   3.859
 3174TIP3   OH2 9527   4.289   3.053   2.897
 3174TIP3    H1 9528   4.288   2.964   2.931
 3174TIP3    H2 9529   4.380   3.067   2.869
 3175TIP3   OH2 9530   3.935   5.139   3.161
 3175TIP3    H1 9531   4.011   5.191   3.135
 3175TIP3    H2 9532   3.860   5.187   3.126
 3176TIP3   OH2 9533   4.118   3.987   3.945
 3176TIP3    H1 9534   4.119   4.077   3.911
 3176TIP3    H2 9535   4.026   3.960   3.937
 3177TIP3   OH2 9536   0.597   2.522   1.914
 3177TIP3    H1 9537   0.510   2.543   1.882
 3177TIP3    H2 9538   0.649   2.601   1.897
 3178TIP3   OH2 9539   3.120   1.560   2.874
 3178TIP3    H1 9540   3.041   1.585   2.826
 3178TIP3    H2 9541   3.129   1.466   2.857
 3179TIP3   OH2 9542   2.960   5.391   0.452
 3179TIP3    H1 9543   2.935   5.417   0.364
 3179TIP3    H2 9544   3.039   5.338   0.440
 3180TIP3   OH2 9545   3.195   3.584   1.734
 3180TIP3    H1 9546   3.267   3.606   1.793
 3180TIP3    H2 9547   3.177   3.666   1.687
 3181TIP3   OH2 9548   4.386   5.640   0.739
 3181TIP3    H1 9549   4.394   5.550   0.770
 3181TIP3    H2 9550   4.345   5.688   0.812
 3182TIP3   OH2 9551   1.137   4.142   4.280
 3182TIP3    H1 9552   1.206   4.194   4.323
 3182TIP3    H2 9553   1.185   4.071   4.238
 3183TIP3   OH2 9554   3.653   0.771   1.252
 3183TIP3    H1 9555   3.563   0.738   1.254
 3183TIP3    H2 9556   3.680   0.760   1.161
 3184TIP3   OH2 9557   5.526   2.748   0.381
 3184TIP3    H1 9558   5.545   2.709   0.466
 3184TIP3    H2 9559   5.438   2.786   0.391
 3185TIP3   OH2 9560   1.585   5.514   0.684
 3185TIP3    H1 9561   1.632   5.478   0.758
 3185TIP3    H2 9562   1.545   5.438   0.641
 3186TIP3   OH2 9563   1.468   4.056   0.986
 3186TIP3    H1 9564   1.472   4.065   1.081
 3186TIP3    H2 9565   1.507   3.971   0.968
 3187TIP3   OH2 9566   4.235   1.674   3.875
 3187TIP3    H1 9567   4.212   1.612   3.805
 3187TIP3    H2 9568   4.238   1.621   3.954
 3188TIP3   OH2 9569   1.221   5.114   1.355
 3188TIP3    H1 9570   1.132   5.102   1.321
 3188TIP3    H2 9571   1.271   5.042   1.317
 3189TIP3   OH2 9572   0.996   4.624   5.116
 3189TIP3    H1 9573   0.997   4.660   5.027
 3189TIP3    H2 9574   0.915   4.658   5.155
 3190TIP3   OH2 9575   5.540   1.278   4.428
 3190TIP3    H1 9576   5.551   1.220   4.504
 3190TIP3    H2 9577   5.628   1.290   4.394
 3191TIP3   OH2 9578   5.041   4.297   1.025
 3191TIP3    H1 9579   5.020   4.204   1.022
 3191TIP3    H2 9580   4.958   4.339   1.050
 3192TIP3   OH2 9581   3.542   4.965   4.727
 3192TIP3    H1 9582   3.516   5.050   4.761
 3192TIP3    H2 9583   3.497   4.958   4.643
 3193TIP3   OH2 9584   5.993   0.464   0.828
 3193TIP3    H1 9585   6.070   0.420   0.864
 3193TIP3    H2 9586   5.956   0.513   0.902
 3194TIP3   OH2 9587   4.342   5.292   4.291
 3194TIP3    H1 9588   4.409   5.347   4.331
 3194TIP3    H2 9589   4.265   5.349   4.284
 3195TIP3   OH2 9590   3.525   0.482   0.219
 3195TIP3    H1 9591   3.565   0.395   0.227
 3195TIP3    H2 9592   3.567   0.521   0.143
 3196TIP3   OH2 9593   0.553   4.189   2.143
 3196TIP3    H1 9594   0.523   4.272   2.105
 3196TIP3    H2 9595   0.489   4.169   2.211
 3197TIP3   OH2 9596   4.805   2.284   2.079
 3197TIP3    H1 9597   4.770   2.202   2.046
 3197TIP3    H2 9598   4.734   2.347   2.068
 3198TIP3   OH2 9599   3.379   0.401   1.699
 3198TIP3    H1 9600   3.393   0.379   1.607
 3198TIP3    H2 9601   3.333   0.485   1.696
 3199TIP3   OH2 9602   3.313   3.350   0.900
 3199TIP3    H1 9603   3.334   3.267   0.855
 3199TIP3    H2 9604   3.246   3.390   0.845
 3200TIP3   OH2 9605   2.443   1.587   1.974
 3200TIP3    H1 9606   2.495   1.571   2.053
 3200TIP3    H2 9607   2.356   1.609   2.007
 3201TIP3   OH2 9608   5.795   1.681   5.104
 3201TIP3    H1 9609   5.744   1.677   5.185
 3201TIP3    H2 9610   5.867   1.619   5.118
 3202TIP3   OH2 9611   4.604   0.422   1.863
 3202TIP3    H1 9612   4.589   0.466   1.946
 3202TIP3    H2 9613   4.651   0.486   1.809
 3203TIP3   OH2 9614   1.404   5.049   0.524
 3203TIP3    H1 9615   1.384   4.982   0.588
 3203TIP3    H2 9616   1.344   5.032   0.451
 3204TIP3   OH2 9617   3.456   3.380   3.064
 3204TIP3    H1 9618   3.428   3.431   3.140
 3204TIP3    H2 9619   3.499   3.444   3.007
 3205TIP3   OH2 9620   3.852   5.650   2.125
 3205TIP3    H1 9621   3.877   5.701   2.202
 3205TIP3    H2 9622   3.843   5.715   2.056
 3206TIP3   OH2 9623   5.041   4.185   1.940
 3206TIP3    H1 9624   5.066   4.093   1.954
 3206TIP3    H2 9625   5.061   4.201   1.848
 3207TIP3   OH2 9626   0.827   0.396   1.141
 3207TIP3    H1 9627   0.734   0.405   1.159
 3207TIP3    H2 9628   0.864   0.357   1.220
 3208TIP3   OH2 9629   5.797   4.693   4.129
 3208TIP3    H1 9630   5.713   4.701   4.175
 3208TIP3    H2 9631   5.804   4.773   4.077
 3209TIP3   OH2 9632   6.164   3.934   4.865
 3209TIP3    H1 9633   6.142   3.841   4.866
 3209TIP3    H2 9634   6.237   3.942   4.805
 3210TIP3   OH2 9635   1.938   5.097   2.937
 3210TIP3    H1 9636   2.006   5.139   2.886
 3210TIP3    H2 9637   1.946   5.134   3.025
 3211TIP3   OH2 9638   0.498   0.980   3.697
 3211TIP3    H1 9639   0.446   0.902   3.713
 3211TIP3    H2 9640   0.500   0.989   3.602
 3212TIP3   OH2 9641   3.713   1.408   4.513
 3212TIP3    H1 9642   3.798   1.427   4.551
 3212TIP3    H2 9643   3.666   1.362   4.583
 3213TIP3   OH2 9644   5.790   3.629   1.317
 3213TIP3    H1 9645   5.780   3.679   1.236
 3213TIP3    H2 9646   5.884   3.631   1.335
 3214TIP3   OH2 9647   0.385   1.681   4.137
 3214TIP3    H1 9648   0.297   1.653   4.162
 3214TIP3    H2 9649   0.443   1.617   4.177
 3215TIP3   OH2 9650   0.165   4.788   3.503
 3215TIP3    H1 9651   0.118   4.871   3.504
 3215TIP3    H2 9652   0.248   4.808   3.459
 3216TIP3   OH2 9653   3.975   2.353   4.111
 3216TIP3    H1 9654   3.985   2.320   4.200
 3216TIP3    H2 9655   3.977   2.449   4.120
 3217TIP3   OH2 9656   0.775   3.153   2.833
 3217TIP3    H1 9657   0.761   3.156   2.738
 3217TIP3    H2 9658   0.710   3.213   2.869
 3218TIP3   OH2 9659   6.093   3.695   3.195
 3218TIP3    H1 9660   6.024   3.718   3.134
 3218TIP3    H2 9661   6.089   3.762   3.263
 3219TIP3   OH2 9662   5.449   4.776   0.089
 3219TIP3    H1 9663   5.468   4.810   0.177
 3219TIP3    H2 9664   5.507   4.825   0.031
 3220TIP3   OH2 9665   6.134   3.673   1.374
 3220TIP3    H1 9666   6.112   3.721   1.294
 3220TIP3    H2 9667   6.214   3.625   1.352
 3221TIP3   OH2 9668   6.338   2.558   4.748
 3221TIP3    H1 9669   6.408   2.606   4.704
 3221TIP3    H2 9670   6.258   2.599   4.718
 3222TIP3   OH2 9671   5.858   0.754   4.409
 3222TIP3    H1 9672   5.881   0.661   4.409
 3222TIP3    H2 9673   5.765   0.756   4.431
 3223TIP3   OH2 9674   5.313   1.931   3.392
 3223TIP3    H1 9675   5.273   1.973   3.468
 3223TIP3    H2 9676   5.300   1.993   3.321
 3224TIP3   OH2 9677   6.283   3.814   1.003
 3224TIP3    H1 9678   6.274   3.719   1.007
 3224TIP3    H2 9679   6.374   3.828   0.975
 3225TIP3   OH2 9680   1.841   5.371   3.455
 3225TIP3    H1 9681   1.758   5.418   3.461
 3225TIP3    H2 9682   1.875   5.394   3.369
 3226TIP3   OH2 9683   4.852   0.307   3.126
 3226TIP3    H1 9684   4.944   0.324   3.105
 3226TIP3    H2 9685   4.853   0.275   3.216
 3227TIP3   OH2 9686   6.151   2.538   5.159
 3227TIP3    H1 9687   6.088   2.468   5.142
 3227TIP3    H2 9688   6.151   2.590   5.078
 3228TIP3   OH2 9689   5.167   5.581   3.363
 3228TIP3    H1 9690   5.201   5.503   3.318
 3228TIP3    H2 9691   5.139   5.549   3.449
 3229TIP3   OH2 9692   2.486   4.402   2.264
 3229TIP3    H1 9693   2.438   4.430   2.342
 3229TIP3    H2 9694   2.418   4.376   2.202
 3230TIP3   OH2 9695   4.530   1.855   3.109
 3230TIP3    H1 9696   4.585   1.777   3.109
 3230TIP3    H2 9697   4.522   1.878   3.017
 3231TIP3   OH2 9698   4.937   4.302   3.182
 3231TIP3    H1 9699   4.895   4.330   3.263
 3231TIP3    H2 9700   4.941   4.206   3.189
 3232TIP3   OH2 9701   4.338   1.185   2.525
 3232TIP3    H1 9702   4.363   1.183   2.433
 3232TIP3    H2 9703   4.242   1.195   2.524
 3233TIP3   OH2 9704   1.134   4.111   0.571
 3233TIP3    H1 9705   1.086   4.079   0.494
 3233TIP3    H2 9706   1.072   4.103   0.643
 3234TIP3   OH2 9707   0.543   2.597   0.066
 3234TIP3    H1 9708   0.464   2.546   0.051
 3234TIP3    H2 9709   0.512   2.680   0.103
 3235TIP3   OH2 9710   1.273   5.454   3.797
 3235TIP3    H1 9711   1.217   5.394   3.749
 3235TIP3    H2 9712   1.351   5.402   3.819
 3236TIP3   OH2 9713   2.769   3.446   4.285
 3236TIP3    H1 9714   2.693   3.388   4.279
 3236TIP3    H2 9715   2.787   3.470   4.194
 3237TIP3   OH2 9716   3.055   2.174   4.146
 3237TIP3    H1 9717   3.026   2.090   4.110
 3237TIP3    H2 9718   3.001   2.239   4.101
 3238TIP3   OH2 9719   3.399   2.960   1.645
 3238TIP3    H1 9720   3.429   2.869   1.635
 3238TIP3    H2 9721   3.464   3.012   1.598
 3239TIP3   OH2 9722   3.101   1.777   4.776
 3239TIP3    H1 9723   3.122   1.765   4.869
 3239TIP3    H2 9724   3.106   1.872   4.763
 3240TIP3   OH2 9725   4.862   1.863   1.844
 3240TIP3    H1 9726   4.770   1.844   1.863
 3240TIP3    H2 9727   4.894   1.786   1.799
 3241TIP3   OH2 9728   0.888   5.129   3.273
 3241TIP3    H1 9729   0.814   5.070   3.259
 3241TIP3    H2 9730   0.940   5.123   3.193
 3242TIP3   OH2 9731   5.151   3.565   0.553
 3242TIP3    H1 9732   5.200   3.543   0.633
 3242TIP3    H2 9733   5.197   3.639   0.515
 3243TIP3   OH2 9734   0.385   3.222   3.565
 3243TIP3    H1 9735   0.369   3.134   3.600
 3243TIP3    H2 9736   0.389   3.278   3.643
 3244TIP3   OH2 9737   6.201   3.021   1.102
 3244TIP3    H1 9738   6.174   3.073   1.026
 3244TIP3    H2 9739   6.244   3.083   1.160
 3245TIP3   OH2 9740   3.674   5.407   0.554
 3245TIP3    H1 9741   3.663   5.314   0.576
 3245TIP3    H2 9742   3.587   5.436   0.527
 3246TIP3   OH2 9743   4.239   5.015   4.290
 3246TIP3    H1 9744   4.187   5.056   4.360
 3246TIP3    H2 9745   4.204   4.927   4.282
 3247TIP3   OH2 9746   1.854   2.971   2.257
 3247TIP3    H1 9747   1.820   2.977   2.168
 3247TIP3    H2 9748   1.938   2.925   2.248
 3248TIP3   OH2 9749   2.219   0.433   2.533
 3248TIP3    H1 9750   2.229   0.397   2.622
 3248TIP3    H2 9751   2.125   0.429   2.516
 3249TIP3   OH2 9752   3.461   3.431   1.120
 3249TIP3    H1 9753   3.480   3.418   1.027
 3249TIP3    H2 9754   3.408   3.356   1.145
 3250TIP3   OH2 9755   6.193   5.545   0.155
 3250TIP3    H1 9756   6.103   5.513   0.155
 3250TIP3    H2 9757   6.226   5.524   0.068
 3251TIP3   OH2 9758   5.600   0.153   0.685
 3251TIP3    H1 9759   5.570   0.243   0.693
 3251TIP3    H2 9760   5.669   0.157   0.619
 3252TIP3   OH2 9761   5.116   0.958   1.346
 3252TIP3    H1 9762   5.155   1.032   1.300
 3252TIP3    H2 9763   5.147   0.881   1.298
 3253TIP3   OH2 9764   4.665   5.866   1.677
 3253TIP3    H1 9765   4.731   5.880   1.744
 3253TIP3    H2 9766   4.648   5.772   1.680
 3254TIP3   OH2 9767   4.152   5.542   2.288
 3254TIP3    H1 9768   4.095   5.597   2.234
 3254TIP3    H2 9769   4.237   5.585   2.284
 3255TIP3   OH2 9770   3.652   5.348   1.505
 3255TIP3    H1 9771   3.654   5.433   1.549
 3255TIP3    H2 9772   3.737   5.309   1.523
 3256TIP3   OH2 9773   2.828   4.886   1.335
 3256TIP3    H1 9774   2.747   4.890   1.385
 3256TIP3    H2 9775   2.876   4.965   1.359
 3257TIP3   OH2 9776   1.315   2.626   0.113
 3257TIP3    H1 9777   1.275   2.539   0.124
 3257TIP3    H2 9778   1.284   2.677   0.188
 3258TIP3   OH2 9779   1.375   4.075   4.193
 3258TIP3    H1 9780   1.341   4.141   4.133
 3258TIP3    H2 9781   1.408   4.005   4.135
 3259TIP3   OH2 9782   4.760   1.953   0.993
 3259TIP3    H1 9783   4.781   2.009   1.068
 3259TIP3    H2 9784   4.734   2.015   0.924
 3260TIP3   OH2 9785   3.082   1.304   2.652
 3260TIP3    H1 9786   2.997   1.304   2.610
 3260TIP3    H2 9787   3.063   1.299   2.746
 3261TIP3   OH2 9788   1.521   4.904   3.583
 3261TIP3    H1 9789   1.479   4.841   3.525
 3261TIP3    H2 9790   1.608   4.868   3.598
 3262TIP3   OH2 9791   4.556   5.436   4.382
 3262TIP3    H1 9792   4.611   5.502   4.340
 3262TIP3    H2 9793   4.548   5.466   4.473
 3263TIP3   OH2 9794   0.136   5.720   1.350
 3263TIP3    H1 9795   0.061   5.776   1.330
 3263TIP3    H2 9796   0.197   5.776   1.397
 3264TIP3   OH2 9797   6.126   1.463   0.084
 3264TIP3    H1 9798   6.043   1.496   0.052
 3264TIP3    H2 9799   6.182   1.458   0.007
 3265TIP3   OH2 9800   3.903   4.267   2.849
 3265TIP3    H1 9801   3.894   4.247   2.755
 3265TIP3    H2 9802   3.944   4.353   2.851
 3266TIP3   OH2 9803   4.303   2.560   3.946
 3266TIP3    H1 9804   4.245   2.524   3.879
 3266TIP3    H2 9805   4.382   2.506   3.941
 3267TIP3   OH2 9806   4.532   4.080   1.432
 3267TIP3    H1 9807   4.546   4.152   1.371
 3267TIP3    H2 9808   4.582   4.007   1.396
 3268TIP3   OH2 9809   5.953   2.261   4.273
 3268TIP3    H1 9810   5.915   2.316   4.341
 3268TIP3    H2 9811   5.905   2.286   4.193
 3269TIP3   OH2 9812   4.175   1.502   3.679
 3269TIP3    H1 9813   4.171   1.462   3.592
 3269TIP3    H2 9814   4.239   1.450   3.727
 3270TIP3   OH2 9815   5.863   2.618   0.964
 3270TIP3    H1 9816   5.847   2.588   1.053
 3270TIP3    H2 9817   5.783   2.595   0.916
 3271TIP3   OH2 9818   1.796   1.216   4.100
 3271TIP3    H1 9819   1.805   1.266   4.181
 3271TIP3    H2 9820   1.778   1.281   4.032
 3272TIP3   OH2 9821   1.526   4.830   3.243
 3272TIP3    H1 9822   1.488   4.797   3.324
 3272TIP3    H2 9823   1.505   4.923   3.242
 3273TIP3   OH2 9824   6.268   0.619   3.781
 3273TIP3    H1 9825   6.229   0.635   3.867
 3273TIP3    H2 9826   6.347   0.568   3.799
 3274TIP3   OH2 9827   4.587   5.700   3.331
 3274TIP3    H1 9828   4.610   5.694   3.424
 3274TIP3    H2 9829   4.519   5.635   3.318
 3275TIP3   OH2 9830   4.383   5.531   3.252
 3275TIP3    H1 9831   4.352   5.532   3.161
 3275TIP3    H2 9832   4.313   5.488   3.300
 3276TIP3   OH2 9833   4.121   5.299   0.415
 3276TIP3    H1 9834   4.088   5.233   0.476
 3276TIP3    H2 9835   4.186   5.348   0.466
 3277TIP3   OH2 9836   2.038   1.213   3.288
 3277TIP3    H1 9837   1.948   1.244   3.297
 3277TIP3    H2 9838   2.075   1.222   3.376
 3278TIP3   OH2 9839   1.976   5.195   0.244
 3278TIP3    H1 9840   2.037   5.171   0.314
 3278TIP3    H2 9841   1.968   5.291   0.250
 3279TIP3   OH2 9842   2.299   3.468   4.171
 3279TIP3    H1 9843   2.383   3.438   4.136
 3279TIP3    H2 9844   2.256   3.512   4.097
 3280TIP3   OH2 9845   4.469   5.438   1.166
 3280TIP3    H1 9846   4.407   5.477   1.105
 3280TIP3    H2 9847   4.522   5.511   1.197
 3281TIP3   OH2 9848   4.706   4.064   1.159
 3281TIP3    H1 9849   4.746   4.009   1.226
 3281TIP3    H2 9850   4.709   4.011   1.080
 3282TIP3   OH2 9851   1.975   3.049   1.723
 3282TIP3    H1 9852   2.033   2.975   1.744
 3282TIP3    H2 9853   2.003   3.118   1.783
 3283TIP3   OH2 9854   1.807   2.514   4.320
 3283TIP3    H1 9855   1.879   2.553   4.270
 3283TIP3    H2 9856   1.850   2.469   4.393
 3284TIP3   OH2 9857   1.220   4.637   0.045
 3284TIP3    H1 9858   1.310   4.645   0.076
 3284TIP3    H2 9859   1.167   4.666   0.120
 3285TIP3   OH2 9860   4.449   4.866   2.996
 3285TIP3    H1 9861   4.468   4.830   2.910
 3285TIP3    H2 9862   4.371   4.920   2.983
 3286TIP3   OH2 9863   2.678   0.720   3.160
 3286TIP3    H1 9864   2.648   0.664   3.088
 3286TIP3    H2 9865   2.656   0.671   3.239
 3287TIP3   OH2 9866   4.876   3.504   3.328
 3287TIP3    H1 9867   4.891   3.472   3.417
 3287TIP3    H2 9868   4.964   3.523   3.295
 3288TIP3   OH2 9869   6.022   3.894   3.375
 3288TIP3    H1 9870   5.946   3.949   3.355
 3288TIP3    H2 9871   6.022   3.889   3.471
 3289TIP3   OH2 9872   3.477   3.828   3.075
 3289TIP3    H1 9873   3.440   3.775   3.005
 3289TIP3    H2 9874   3.468   3.918   3.045
 3290TIP3   OH2 9875   4.782   1.367   3.030
 3290TIP3    H1 9876   4.833   1.336   3.106
 3290TIP3    H2 9877   4.842   1.424   2.983
 3291TIP3   OH2 9878   0.742   5.881   3.615
 3291TIP3    H1 9879   0.685   5.883   3.538
 3291TIP3    H2 9880   0.687   5.913   3.687
 3292TIP3   OH2 9881   4.956   5.403   2.847
 3292TIP3    H1 9882   5.006   5.473   2.889
 3292TIP3    H2 9883   4.973   5.327   2.903
 3293TIP3   OH2 9884   1.846   4.066   2.835
 3293TIP3    H1 9885   1.853   4.161   2.825
 3293TIP3    H2 9886   1.772   4.042   2.779
 3294TIP3   OH2 9887   5.719   3.573   2.746
 3294TIP3    H1 9888   5.803   3.551   2.706
 3294TIP3    H2 9889   5.669   3.613   2.675
 3295TIP3   OH2 9890   2.587   0.511   1.128
 3295TIP3    H1 9891   2.505   0.553   1.154
 3295TIP3    H2 9892   2.628   0.571   1.066
 3296TIP3   OH2 9893   0.864   5.767   0.397
 3296TIP3    H1 9894   0.813   5.827   0.452
 3296TIP3    H2 9895   0.873   5.688   0.450
 3297TIP3   OH2 9896   3.734   1.253   2.929
 3297TIP3    H1 9897   3.648   1.213   2.919
 3297TIP3    H2 9898   3.792   1.201   2.874
 3298TIP3   OH2 9899   3.647   3.949   2.107
 3298TIP3    H1 9900   3.587   3.876   2.120
 3298TIP3    H2 9901   3.709   3.942   2.179
 3299TIP3   OH2 9902   0.749   0.171   2.228
 3299TIP3    H1 9903   0.677   0.109   2.222
 3299TIP3    H2 9904   0.753   0.211   2.141
 3300TIP3   OH2 9905   1.880   0.992   3.543
 3300TIP3    H1 9906   1.836   0.936   3.607
 3300TIP3    H2 9907   1.973   0.978   3.560
 3301TIP3   OH2 9908   5.366   5.009   0.859
 3301TIP3    H1 9909   5.296   5.055   0.812
 3301TIP3    H2 9910   5.418   4.967   0.790
 3302TIP3   OH2 9911   4.370   2.087   3.561
 3302TIP3    H1 9912   4.367   1.992   3.566
 3302TIP3    H2 9913   4.431   2.105   3.489
 3303TIP3   OH2 9914   4.481   1.592   4.709
 3303TIP3    H1 9915   4.458   1.680   4.739
 3303TIP3    H2 9916   4.495   1.542   4.790
 3304TIP3   OH2 9917   4.866   4.918   2.123
 3304TIP3    H1 9918   4.864   4.823   2.108
 3304TIP3    H2 9919   4.780   4.948   2.095
 3305TIP3   OH2 9920   1.927   0.981   4.271
 3305TIP3    H1 9921   2.011   0.957   4.308
 3305TIP3    H2 9922   1.865   0.973   4.343
 3306TIP3   OH2 9923   4.894   3.447   0.572
 3306TIP3    H1 9924   4.876   3.478   0.661
 3306TIP3    H2 9925   4.989   3.451   0.563
 3307TIP3   OH2 9926   3.476   3.113   4.781
 3307TIP3    H1 9927   3.481   3.182   4.715
 3307TIP3    H2 9928   3.568   3.090   4.797
 3308TIP3   OH2 9929   0.571   5.386  -0.006
 3308TIP3    H1 9930   0.596   5.302   0.032
 3308TIP3    H2 9931   0.556   5.443   0.070
 3309TIP3   OH2 9932   4.391   2.387   1.241
 3309TIP3    H1 9933   4.312   2.333   1.249
 3309TIP3    H2 9934   4.361   2.476   1.258
 3310TIP3   OH2 9935   2.425   5.846   0.059
 3310TIP3    H1 9936   2.459   5.757   0.073
 3310TIP3    H2 9937   2.498   5.894   0.020
 3311TIP3   OH2 9938   0.292   3.175   1.729
 3311TIP3    H1 9939   0.306   3.219   1.813
 3311TIP3    H2 9940   0.379   3.146   1.702
 3312TIP3   OH2 9941   4.421   5.980   1.677
 3312TIP3    H1 9942   4.516   5.969   1.672
 3312TIP3    H2 9943   4.388   5.893   1.701
 3313TIP3   OH2 9944   4.221   2.916   4.657
 3313TIP3    H1 9945   4.313   2.928   4.679
 3313TIP3    H2 9946   4.174   2.927   4.740
 3314TIP3   OH2 9947   3.165   1.164   3.900
 3314TIP3    H1 9948   3.156   1.199   3.989
 3314TIP3    H2 9949   3.248   1.117   3.901
 3315TIP3   OH2 9950   5.314   1.385   2.405
 3315TIP3    H1 9951   5.288   1.302   2.446
 3315TIP3    H2 9952   5.409   1.388   2.413
 3316TIP3   OH2 9953   2.739   4.209   1.308
 3316TIP3    H1 9954   2.672   4.277   1.313
 3316TIP3    H2 9955   2.709   4.142   1.369
 3317TIP3   OH2 9956   0.560   4.873   4.763
 3317TIP3    H1 9957   0.511   4.919   4.695
 3317TIP3    H2 9958   0.541   4.780   4.749
 3318TIP3   OH2 9959   3.621   4.949   5.036
 3318TIP3    H1 9960   3.630   4.869   4.983
 3318TIP3    H2 9961   3.656   4.925   5.122
 3319TIP3   OH2 9962   1.805   3.838   1.753
 3319TIP3    H1 9963   1.795   3.931   1.772
 3319TIP3    H2 9964   1.894   3.817   1.784
 3320TIP3   OH2 9965   1.168   3.501   4.009
 3320TIP3    H1 9966   1.188   3.579   4.060
 3320TIP3    H2 9967   1.224   3.433   4.046
 3321TIP3   OH2 9968   0.968   5.445   1.378
 3321TIP3    H1 9969   0.949   5.486   1.294
 3321TIP3    H2 9970   0.889   5.396   1.399
 3322TIP3   OH2 9971   2.841   2.370   0.763
 3322TIP3    H1 9972   2.899   2.428   0.714
 3322TIP3    H2 9973   2.833   2.411   0.849
 3323TIP3   OH2 9974   5.903   2.179   3.180
 3323TIP3    H1 9975   5.909   2.084   3.174
 3323TIP3    H2 9976   5.918   2.198   3.273
 3324TIP3   OH2 9977   1.223   2.863   4.250
 3324TIP3    H1 9978   1.316   2.849   4.231
 3324TIP3    H2 9979   1.223   2.908   4.335
 3325TIP3   OH2 9980   2.905   1.133   5.055
 3325TIP3    H1 9981   2.951   1.210   5.089
 3325TIP3    H2 9982   2.970   1.089   5.000
 3326TIP3   OH2 9983   0.792   5.423   4.998
 3326TIP3    H1 9984   0.803   5.353   5.062
 3326TIP3    H2 9985   0.721   5.393   4.942
 3327TIP3   OH2 9986   3.348   0.561   2.825
 3327TIP3    H1 9987   3.414   0.496   2.800
 3327TIP3    H2 9988   3.372   0.585   2.915
 3328TIP3   OH2 9989   5.910   3.373   0.154
 3328TIP3    H1 9990   5.991   3.424   0.155
 3328TIP3    H2 9991   5.938   3.283   0.141
 3329TIP3   OH2 9992   3.960   5.008   2.842
 3329TIP3    H1 9993   3.906   5.084   2.863
 3329TIP3    H2 9994   3.897   4.941   2.815
 3330TIP3   OH2 9995   4.820   3.912   1.492
 3330TIP3    H1 9996   4.904   3.880   1.461
 3330TIP3    H2 9997   4.755   3.863   1.442
 3331TIP3   OH2 9998   2.820   4.867   2.723
 3331TIP3    H1 9999   2.793   4.810   2.795
 3331TIP3    H210000   2.740   4.913   2.697
 3332TIP3   OH210001   1.900   3.659   1.554
 3332TIP3    H110002   1.845   3.698   1.621
 3332TIP3    H210003   1.863   3.571   1.541
 3333TIP3   OH210004   3.865   5.305   4.419
 3333TIP3    H110005   3.783   5.259   4.404
 3333TIP3    H210006   3.915   5.246   4.476
 3334TIP3   OH210007   5.011   5.958   3.098
 3334TIP3    H110008   5.036   5.875   3.140
 3334TIP3    H210009   5.084   6.017   3.117
 3335TIP3   OH210010   5.591   0.971   4.936
 3335TIP3    H110011   5.560   1.062   4.941
 3335TIP3    H210012   5.512   0.919   4.927
 3336TIP3   OH210013   4.706   1.229   4.637
 3336TIP3    H110014   4.697   1.173   4.714
 3336TIP3    H210015   4.622   1.221   4.592
 3337TIP3   OH210016   1.000   0.594   0.834
 3337TIP3    H110017   0.932   0.619   0.895
 3337TIP3    H210018   1.082   0.613   0.880
 3338TIP3   OH210019   5.512   2.000   2.535
 3338TIP3    H110020   5.473   1.976   2.619
 3338TIP3    H210021   5.450   1.969   2.469
 3339TIP3   OH210022   4.491   0.297   4.597
 3339TIP3    H110023   4.499   0.386   4.563
 3339TIP3    H210024   4.416   0.300   4.657
 3340TIP3   OH210025   1.760   2.814   0.039
 3340TIP3    H110026   1.795   2.875   0.104
 3340TIP3    H210027   1.665   2.814   0.054
 3341TIP3   OH210028   2.901   3.139   0.993
 3341TIP3    H110029   2.888   3.077   1.064
 3341TIP3    H210030   2.996   3.142   0.981
 3342TIP3   OH210031   4.585   5.267   2.471
 3342TIP3    H110032   4.620   5.318   2.544
 3342TIP3    H210033   4.491   5.285   2.472
 3343TIP3   OH210034   2.687   2.623   1.129
 3343TIP3    H110035   2.752   2.553   1.138
 3343TIP3    H210036   2.657   2.640   1.219
 3344TIP3   OH210037   2.722   3.522   0.869
 3344TIP3    H110038   2.691   3.605   0.905
 3344TIP3    H210039   2.744   3.470   0.947
 3345TIP3   OH210040   5.234   4.850   3.065
 3345TIP3    H110041   5.189   4.880   3.144
 3345TIP3    H210042   5.168   4.854   2.996
 3346TIP3   OH210043   6.278   1.848   4.706
 3346TIP3    H110044   6.190   1.812   4.707
 3346TIP3    H210045   6.276   1.915   4.638
 3347TIP3   OH210046   0.886   2.036   4.738
 3347TIP3    H110047   0.935   2.097   4.682
 3347TIP3    H210048   0.907   2.063   4.827
 3348TIP3   OH210049   5.619   4.108   3.783
 3348TIP3    H110050   5.644   4.135   3.871
 3348TIP3    H210051   5.683   4.150   3.725
 3349TIP3   OH210052   4.635   0.504   0.436
 3349TIP3    H110053   4.610   0.462   0.354
 3349TIP3    H210054   4.691   0.577   0.409
 3350TIP3   OH210055   3.084   3.956   4.738
 3350TIP3    H110056   3.073   3.897   4.813
 3350TIP3    H210057   3.178   3.978   4.738
 3351TIP3   OH210058   2.126   2.521   1.128
 3351TIP3    H110059   2.196   2.542   1.066
 3351TIP3    H210060   2.137   2.428   1.147
 3352TIP3   OH210061   2.498   2.088   3.173
 3352TIP3    H110062   2.541   2.064   3.091
 3352TIP3    H210063   2.430   2.021   3.184
 3353TIP3   OH210064   3.606   5.136   0.270
 3353TIP3    H110065   3.590   5.097   0.184
 3353TIP3    H210066   3.575   5.071   0.332
 3354TIP3   OH210067   4.922   1.601   1.774
 3354TIP3    H110068   4.864   1.525   1.778
 3354TIP3    H210069   4.941   1.613   1.681
 3355TIP3   OH210070   5.299   4.907   1.134
 3355TIP3    H110071   5.284   4.931   1.042
 3355TIP3    H210072   5.358   4.832   1.130
 3356TIP3   OH210073   3.650   1.381   3.412
 3356TIP3    H110074   3.603   1.378   3.495
 3356TIP3    H210075   3.694   1.296   3.405
 3357TIP3   OH210076   3.167   3.577   4.202
 3357TIP3    H110077   3.113   3.626   4.265
 3357TIP3    H210078   3.104   3.537   4.143
 3358TIP3   OH210079   5.937   4.825   1.391
 3358TIP3    H110080   6.003   4.762   1.363
 3358TIP3    H210081   5.987   4.897   1.430
 3359TIP3   OH210082   1.848   2.453   2.418
 3359TIP3    H110083   1.844   2.476   2.511
 3359TIP3    H210084   1.876   2.362   2.417
 3360TIP3   OH210085   4.715   5.429   5.109
 3360TIP3    H110086   4.699   5.357   5.048
 3360TIP3    H210087   4.638   5.430   5.165
 3361TIP3   OH210088   1.218   3.647   4.353
 3361TIP3    H110089   1.168   3.669   4.274
 3361TIP3    H210090   1.293   3.706   4.351
 3362TIP3   OH210091   3.856   2.574   0.183
 3362TIP3    H110092   3.819   2.580   0.271
 3362TIP3    H210093   3.879   2.664   0.159
 3363TIP3   OH210094   6.169   4.143   1.526
 3363TIP3    H110095   6.214   4.211   1.476
 3363TIP3    H210096   6.187   4.062   1.479
 3364TIP3   OH210097   3.178   4.025   3.120
 3364TIP3    H110098   3.099   4.072   3.095
 3364TIP3    H210099   3.201   3.975   3.041
 3365TIP3   OH210100   3.757   2.280   3.270
 3365TIP3    H110101   3.839   2.308   3.311
 3365TIP3    H210102   3.714   2.227   3.337
 3366TIP3   OH210103   0.046   4.498   0.703
 3366TIP3    H110104   0.100   4.459   0.772
 3366TIP3    H210105   0.098   4.570   0.668
 3367TIP3   OH210106  -0.023   5.787   0.182
 3367TIP3    H110107   0.056   5.808   0.132
 3367TIP3    H210108  -0.070   5.725   0.126
 3368TIP3   OH210109   6.086   4.221   2.206
 3368TIP3    H110110   6.094   4.163   2.130
 3368TIP3    H210111   6.022   4.287   2.179
 3369TIP3   OH210112   6.285   3.457   0.483
 3369TIP3    H110113   6.208   3.478   0.430
 3369TIP3    H210114   6.261   3.379   0.532
 3370TIP3   OH210115   5.530   3.369   0.283
 3370TIP3    H110116   5.581   3.290   0.302
 3370TIP3    H210117   5.448   3.337   0.247
 3371TIP3   OH210118   1.529   3.569   3.404
 3371TIP3    H110119   1.617   3.532   3.409
 3371TIP3    H210120   1.520   3.620   3.484
 3372TIP3   OH210121   0.060   3.165   2.398
 3372TIP3    H110122   0.076   3.248   2.443
 3372TIP3    H210123   0.145   3.121   2.396
 3373TIP3   OH210124   5.167   0.288   2.683
 3373TIP3    H110125   5.222   0.354   2.726
 3373TIP3    H210126   5.081   0.300   2.724
 3374TIP3   OH210127   4.466   0.609   3.853
 3374TIP3    H110128   4.521   0.545   3.808
 3374TIP3    H210129   4.465   0.685   3.795
 3375TIP3   OH210130   4.891   2.520   0.118
 3375TIP3    H110131   4.820   2.465   0.084
 3375TIP3    H210132   4.848   2.602   0.142
 3376TIP3   OH210133   6.265   3.167   1.355
 3376TIP3    H110134   6.350   3.133   1.330
 3376TIP3    H210135   6.245   3.123   1.437
 3377TIP3   OH210136   4.520   4.318   3.541
 3377TIP3    H110137   4.563   4.273   3.469
 3377TIP3    H210138   4.496   4.249   3.602
 3378TIP3   OH210139   6.303   2.184   0.738
 3378TIP3    H110140   6.252   2.108   0.766
 3378TIP3    H210141   6.281   2.253   0.800
 3379TIP3   OH210142   4.971   0.088   4.705
 3379TIP3    H110143   4.958   0.148   4.778
 3379TIP3    H210144   5.030   0.135   4.646
 3380TIP3   OH210145   0.665   3.855   4.761
 3380TIP3    H110146   0.621   3.825   4.841
 3380TIP3    H210147   0.732   3.789   4.745
 3381TIP3   OH210148   2.403   3.512   1.781
 3381TIP3    H110149   2.422   3.431   1.828
 3381TIP3    H210150   2.326   3.492   1.727
 3382TIP3   OH210151   2.330   1.407   1.172
 3382TIP3    H110152   2.349   1.317   1.199
 3382TIP3    H210153   2.243   1.402   1.132
 3383TIP3   OH210154   5.007   5.060   4.263
 3383TIP3    H110155   5.094   5.034   4.294
 3383TIP3    H210156   5.016   5.154   4.243
 3384TIP3   OH210157   0.130   3.163   0.800
 3384TIP3    H110158   0.210   3.137   0.845
 3384TIP3    H210159   0.099   3.240   0.847
 3385TIP3   OH210160   5.871   2.512   0.177
 3385TIP3    H110161   5.848   2.598   0.143
 3385TIP3    H210162   5.956   2.525   0.219
 3386TIP3   OH210163   1.342   5.916   2.822
 3386TIP3    H110164   1.378   5.949   2.904
 3386TIP3    H210165   1.412   5.930   2.758
 3387TIP3   OH210166   2.338   3.778   1.667
 3387TIP3    H110167   2.362   3.721   1.740
 3387TIP3    H210168   2.303   3.719   1.601
 3388TIP3   OH210169   3.401   5.144   3.556
 3388TIP3    H110170   3.360   5.218   3.600
 3388TIP3    H210171   3.388   5.161   3.463
 3389TIP3   OH210172   6.266   1.076   0.557
 3389TIP3    H110173   6.284   0.994   0.603
 3389TIP3    H210174   6.296   1.060   0.468
 3390TIP3   OH210175   2.018   3.193   2.335
 3390TIP3    H110176   1.941   3.142   2.361
 3390TIP3    H210177   2.049   3.151   2.255
 3391TIP3   OH210178   1.888   4.806   0.803
 3391TIP3    H110179   1.973   4.789   0.844
 3391TIP3    H210180   1.902   4.787   0.710
 3392TIP3   OH210181   2.297   0.330   0.339
 3392TIP3    H110182   2.279   0.416   0.377
 3392TIP3    H210183   2.324   0.348   0.250
 3393TIP3   OH210184   5.088   0.958   5.167
 3393TIP3    H110185   5.048   0.899   5.102
 3393TIP3    H210186   5.182   0.941   5.161
 3394TIP3   OH210187   0.998   3.557   4.504
 3394TIP3    H110188   0.929   3.617   4.476
 3394TIP3    H210189   1.072   3.575   4.446
 3395TIP3   OH210190   3.421   2.453   3.882
 3395TIP3    H110191   3.403   2.384   3.947
 3395TIP3    H210192   3.516   2.454   3.874
 3396TIP3   OH210193   0.180   2.349   2.379
 3396TIP3    H110194   0.238   2.277   2.403
 3396TIP3    H210195   0.136   2.372   2.461
 3397TIP3   OH210196   4.400   2.967   2.176
 3397TIP3    H110197   4.382   2.915   2.254
 3397TIP3    H210198   4.364   3.054   2.196
 3398TIP3   OH210199   3.249   3.296   4.604
 3398TIP3    H110200   3.154   3.283   4.598
 3398TIP3    H210201   3.261   3.349   4.683
 3399TIP3   OH210202   3.492   4.726   1.080
 3399TIP3    H110203   3.403   4.692   1.072
 3399TIP3    H210204   3.545   4.650   1.103
 3400TIP3   OH210205   4.257   2.122   1.255
 3400TIP3    H110206   4.282   2.037   1.220
 3400TIP3    H210207   4.225   2.171   1.178
 3401TIP3   OH210208   4.966   4.691   0.948
 3401TIP3    H110209   4.887   4.642   0.970
 3401TIP3    H210210   5.027   4.672   1.019
 3402TIP3   OH210211   3.000   3.187   4.699
 3402TIP3    H110212   2.971   3.180   4.608
 3402TIP3    H210213   2.920   3.206   4.748
 3403TIP3   OH210214   5.936   4.114   1.682
 3403TIP3    H110215   5.886   4.035   1.664
 3403TIP3    H210216   6.013   4.109   1.625
 3404TIP3   OH210217   2.046   1.638   4.838
 3404TIP3    H110218   2.091   1.722   4.847
 3404TIP3    H210219   1.961   1.652   4.880
 3405TIP3   OH210220   1.248   0.970   0.475
 3405TIP3    H110221   1.232   0.885   0.434
 3405TIP3    H210222   1.220   0.959   0.566
 3406TIP3   OH210223   4.637   2.749   2.225
 3406TIP3    H110224   4.608   2.777   2.138
 3406TIP3    H210225   4.558   2.718   2.268
 3407TIP3   OH210226   6.144   0.193   1.776
 3407TIP3    H110227   6.237   0.204   1.793
 3407TIP3    H210228   6.140   0.155   1.688
 3408TIP3   OH210229   4.242   3.159   1.181
 3408TIP3    H110230   4.315   3.200   1.136
 3408TIP3    H210231   4.203   3.229   1.232
 3409TIP3   OH210232   1.596   4.353   0.224
 3409TIP3    H110233   1.625   4.409   0.296
 3409TIP3    H210234   1.558   4.277   0.268
 3410TIP3   OH210235   1.475   3.655   2.361
 3410TIP3    H110236   1.463   3.578   2.305
 3410TIP3    H210237   1.520   3.622   2.439
 3411TIP3   OH210238   4.911   1.646   3.285
 3411TIP3    H110239   4.884   1.620   3.373
 3411TIP3    H210240   4.891   1.739   3.280
 3412TIP3   OH210241   1.017   0.270   1.646
 3412TIP3    H110242   0.969   0.344   1.684
 3412TIP3    H210243   1.103   0.273   1.690
 3413TIP3   OH210244   5.949   4.377   0.531
 3413TIP3    H110245   5.993   4.295   0.508
 3413TIP3    H210246   5.871   4.350   0.579
 3414TIP3   OH210247   1.529   2.385   2.512
 3414TIP3    H110248   1.513   2.403   2.419
 3414TIP3    H210249   1.544   2.472   2.550
 3415TIP3   OH210250   3.798   3.248   2.185
 3415TIP3    H110251   3.847   3.237   2.266
 3415TIP3    H210252   3.863   3.275   2.120
 3416TIP3   OH210253   3.233   3.761   3.276
 3416TIP3    H110254   3.141   3.751   3.254
 3416TIP3    H210255   3.273   3.796   3.196
 3417TIP3   OH210256   4.361   1.362   3.810
 3417TIP3    H110257   4.437   1.315   3.777
 3417TIP3    H210258   4.356   1.338   3.902
 3418TIP3   OH210259   4.221   5.158   1.885
 3418TIP3    H110260   4.176   5.178   1.803
 3418TIP3    H210261   4.307   5.126   1.857
 3419TIP3   OH210262   5.116   4.610   3.133
 3419TIP3    H110263   5.143   4.686   3.081
 3419TIP3    H210264   5.041   4.573   3.085
 3420TIP3   OH210265   3.139   2.940   1.367
 3420TIP3    H110266   3.225   2.910   1.337
 3420TIP3    H210267   3.107   2.869   1.423
 3421TIP3   OH210268   0.323   4.094   4.489
 3421TIP3    H110269   0.374   4.082   4.409
 3421TIP3    H210270   0.344   4.017   4.543
 3422TIP3   OH210271   0.480   4.422   2.054
 3422TIP3    H110272   0.544   4.492   2.050
 3422TIP3    H210273   0.397   4.465   2.075
 3423TIP3   OH210274   1.749   5.676   2.323
 3423TIP3    H110275   1.812   5.747   2.330
 3423TIP3    H210276   1.800   5.597   2.341
 3424TIP3   OH210277   5.655   4.395   0.202
 3424TIP3    H110278   5.692   4.478   0.234
 3424TIP3    H210279   5.592   4.422   0.135
 3425TIP3   OH210280   0.981   5.307   0.531
 3425TIP3    H110281   1.072   5.337   0.530
 3425TIP3    H210282   0.985   5.218   0.566
 3426TIP3   OH210283   1.238   4.248   2.543
 3426TIP3    H110284   1.311   4.199   2.505
 3426TIP3    H210285   1.185   4.275   2.468
 3427TIP3   OH210286   5.673   2.273   2.320
 3427TIP3    H110287   5.736   2.340   2.346
 3427TIP3    H210288   5.685   2.264   2.225
 3428TIP3   OH210289   4.713   5.090   4.472
 3428TIP3    H110290   4.718   5.116   4.380
 3428TIP3    H210291   4.775   5.018   4.481
 3429TIP3   OH210292   2.806   5.617   1.634
 3429TIP3    H110293   2.742   5.547   1.648
 3429TIP3    H210294   2.855   5.621   1.716
 3430TIP3   OH210295   0.648   5.145   3.642
 3430TIP3    H110296   0.580   5.080   3.660
 3430TIP3    H210297   0.730   5.098   3.652
 3431TIP3   OH210298   3.263   2.501   4.321
 3431TIP3    H110299   3.305   2.501   4.407
 3431TIP3    H210300   3.335   2.501   4.259
 3432TIP3   OH210301   1.933   3.078   4.571
 3432TIP3    H110302   1.898   2.998   4.610
 3432TIP3    H210303   1.999   3.108   4.633
 3433TIP3   OH210304   2.215   5.209   3.529
 3433TIP3    H110305   2.257   5.289   3.560
 3433TIP3    H210306   2.122   5.221   3.550
 3434TIP3   OH210307   2.877   5.762   1.909
 3434TIP3    H110308   2.871   5.808   1.993
 3434TIP3    H210309   2.971   5.758   1.891
 3435TIP3   OH210310   1.842   5.780   3.359
 3435TIP3    H110311   1.839   5.700   3.308
 3435TIP3    H210312   1.888   5.843   3.303
 3436TIP3   OH210313   5.413   2.317   0.160
 3436TIP3    H110314   5.394   2.373   0.235
 3436TIP3    H210315   5.508   2.324   0.147
 3437TIP3   OH210316   4.917   2.521   3.422
 3437TIP3    H110317   5.003   2.482   3.405
 3437TIP3    H210318   4.854   2.456   3.391
 3438TIP3   OH210319   0.510   5.822   1.758
 3438TIP3    H110320   0.492   5.739   1.801
 3438TIP3    H210321   0.476   5.888   1.819
 3439TIP3   OH210322   2.607   1.250   1.146
 3439TIP3    H110323   2.671   1.322   1.142
 3439TIP3    H210324   2.563   1.252   1.061
 3440TIP3   OH210325   2.893   5.749   4.326
 3440TIP3    H110326   2.962   5.807   4.295
 3440TIP3    H210327   2.917   5.728   4.416
 3441TIP3   OH210328   5.715   2.004   2.342
 3441TIP3    H110329   5.639   1.993   2.398
 3441TIP3    H210330   5.715   2.097   2.318
 3442TIP3   OH210331   6.251   0.574   0.654
 3442TIP3    H110332   6.271   0.484   0.680
 3442TIP3    H210333   6.162   0.588   0.687
 3443TIP3   OH210334   3.813   1.432   4.916
 3443TIP3    H110335   3.834   1.445   4.824
 3443TIP3    H210336   3.892   1.394   4.954
 3444TIP3   OH210337   2.699   1.680   3.553
 3444TIP3    H110338   2.749   1.622   3.611
 3444TIP3    H210339   2.690   1.630   3.472
 3445TIP3   OH210340   4.409   0.419   5.137
 3445TIP3    H110341   4.484   0.453   5.186
 3445TIP3    H210342   4.416   0.460   5.051
 3446TIP3   OH210343   4.079   3.571   2.056
 3446TIP3    H110344   4.116   3.613   1.978
 3446TIP3    H210345   3.990   3.549   2.031
 3447TIP3   OH210346   3.774   5.001   1.368
 3447TIP3    H110347   3.708   5.013   1.436
 3447TIP3    H210348   3.750   5.063   1.300
 3448TIP3   OH210349   1.186   2.016   2.744
 3448TIP3    H110350   1.093   2.039   2.737
 3448TIP3    H210351   1.233   2.091   2.709
 3449TIP3   OH210352   1.708   1.648   2.204
 3449TIP3    H110353   1.662   1.673   2.123
 3449TIP3    H210354   1.651   1.582   2.244
 3450TIP3   OH210355   2.228   4.206   4.518
 3450TIP3    H110356   2.148   4.224   4.469
 3450TIP3    H210357   2.212   4.245   4.605
 3451TIP3   OH210358   5.254   5.315   3.305
 3451TIP3    H110359   5.235   5.223   3.284
 3451TIP3    H210360   5.343   5.329   3.272
 3452TIP3   OH210361   5.071   3.519   0.289
 3452TIP3    H110362   5.096   3.569   0.367
 3452TIP3    H210363   5.049   3.587   0.224
 3453TIP3   OH210364   1.004   1.698   4.643
 3453TIP3    H110365   1.003   1.700   4.738
 3453TIP3    H210366   1.097   1.702   4.620
 3454TIP3   OH210367   2.824   1.665   1.992
 3454TIP3    H110368   2.888   1.736   1.979
 3454TIP3    H210369   2.870   1.586   1.964
 3455TIP3   OH210370   3.870   1.911   0.062
 3455TIP3    H110371   3.852   1.849   0.133
 3455TIP3    H210372   3.883   1.995   0.107
 3456TIP3   OH210373   6.164   5.668   3.559
 3456TIP3    H110374   6.221   5.692   3.485
 3456TIP3    H210375   6.211   5.699   3.636
 3457TIP3   OH210376   6.072   2.269   3.838
 3457TIP3    H110377   6.157   2.308   3.821
 3457TIP3    H210378   6.090   2.177   3.855
 3458TIP3   OH210379   2.152   0.803   1.421
 3458TIP3    H110380   2.147   0.785   1.328
 3458TIP3    H210381   2.107   0.887   1.432
 3459TIP3   OH210382   3.377   0.256   0.960
 3459TIP3    H110383   3.449   0.309   0.995
 3459TIP3    H210384   3.304   0.273   1.019
 3460TIP3   OH210385   0.756   0.064   3.889
 3460TIP3    H110386   0.792   0.104   3.810
 3460TIP3    H210387   0.829   0.016   3.927
 3461TIP3   OH210388   2.501   1.486   0.745
 3461TIP3    H110389   2.467   1.481   0.655
 3461TIP3    H210390   2.431   1.526   0.795
 3462TIP3   OH210391   0.423   2.168   3.797
 3462TIP3    H110392   0.447   2.141   3.709
 3462TIP3    H210393   0.328   2.168   3.797
 3463TIP3   OH210394   2.509   5.079   3.303
 3463TIP3    H110395   2.575   5.071   3.234
 3463TIP3    H210396   2.526   5.165   3.342
 3464TIP3   OH210397   5.566   4.634   3.643
 3464TIP3    H110398   5.505   4.574   3.602
 3464TIP3    H210399   5.518   4.670   3.718
 3465TIP3   OH210400   3.088   0.219   0.334
 3465TIP3    H110401   3.009   0.170   0.357
 3465TIP3    H210402   3.099   0.203   0.240
 3466TIP3   OH210403   4.309   1.436   2.651
 3466TIP3    H110404   4.330   1.354   2.606
 3466TIP3    H210405   4.250   1.410   2.722
 3467TIP3   OH210406   2.187   1.995   4.637
 3467TIP3    H110407   2.125   1.993   4.565
 3467TIP3    H210408   2.132   1.987   4.716
 3468TIP3   OH210409   4.667   3.399   2.137
 3468TIP3    H110410   4.637   3.396   2.228
 3468TIP3    H210411   4.587   3.394   2.084
 3469TIP3   OH210412   2.014   3.371   3.428
 3469TIP3    H110413   2.074   3.438   3.396
 3469TIP3    H210414   2.004   3.390   3.521
 3470TIP3   OH210415   4.178   1.730   1.967
 3470TIP3    H110416   4.118   1.655   1.965
 3470TIP3    H210417   4.213   1.734   1.878
 3471TIP3   OH210418   2.969   2.656   0.073
 3471TIP3    H110419   2.920   2.732   0.044
 3471TIP3    H210420   3.047   2.692   0.116
 3472TIP3   OH210421   6.184   4.406   2.666
 3472TIP3    H110422   6.155   4.334   2.610
 3472TIP3    H210423   6.272   4.428   2.633
 3473TIP3   OH210424   5.071   1.545   3.084
 3473TIP3    H110425   5.028   1.606   3.143
 3473TIP3    H210426   5.009   1.533   3.012
 3474TIP3   OH210427   1.768   1.582   5.050
 3474TIP3    H110428   1.736   1.617   5.133
 3474TIP3    H210429   1.828   1.511   5.074
 3475TIP3   OH210430   5.391   4.770   2.373
 3475TIP3    H110431   5.448   4.802   2.302
 3475TIP3    H210432   5.384   4.844   2.433
 3476TIP3   OH210433   3.305   2.371   0.610
 3476TIP3    H110434   3.322   2.464   0.595
 3476TIP3    H210435   3.239   2.370   0.679
 3477TIP3   OH210436   1.349   5.099   2.385
 3477TIP3    H110437   1.258   5.087   2.359
 3477TIP3    H210438   1.352   5.072   2.477
 3478TIP3   OH210439   2.212   5.814   3.890
 3478TIP3    H110440   2.295   5.835   3.934
 3478TIP3    H210441   2.147   5.815   3.960
 3479TIP3   OH210442   0.999   1.694   4.919
 3479TIP3    H110443   1.085   1.667   4.952
 3479TIP3    H210444   0.979   1.773   4.968
 3480TIP3   OH210445   1.877   4.723   5.116
 3480TIP3    H110446   1.893   4.653   5.052
 3480TIP3    H210447   1.793   4.761   5.090
 3481TIP3   OH210448   3.881   2.816   0.085
 3481TIP3    H110449   3.789   2.843   0.092
 3481TIP3    H210450   3.930   2.888   0.125
 3482TIP3   OH210451   3.442   1.351   0.120
 3482TIP3    H110452   3.379   1.419   0.095
 3482TIP3    H210453   3.461   1.305   0.038
 3483TIP3   OH210454   4.094   5.586   2.716
 3483TIP3    H110455   4.001   5.565   2.708
 3483TIP3    H210456   4.101   5.675   2.681
 3484TIP3   OH210457   1.113   4.736   1.050
 3484TIP3    H110458   1.110   4.689   1.133
 3484TIP3    H210459   1.192   4.703   1.007
 3485TIP3   OH210460   0.104   5.113   3.906
 3485TIP3    H110461   0.098   5.186   3.845
 3485TIP3    H210462   0.055   5.141   3.983
 3486TIP3   OH210463   5.664   2.111   5.036
 3486TIP3    H110464   5.641   2.190   4.989
 3486TIP3    H210465   5.629   2.039   4.983
 3487TIP3   OH210466   3.355   5.014   3.956
 3487TIP3    H110467   3.362   4.919   3.951
 3487TIP3    H210468   3.271   5.030   4.000
 3488TIP3   OH210469   0.777   2.350   2.759
 3488TIP3    H110470   0.683   2.332   2.766
 3488TIP3    H210471   0.805   2.369   2.849
 3489TIP3   OH210472   2.317   4.585   1.328
 3489TIP3    H110473   2.384   4.651   1.347
 3489TIP3    H210474   2.240   4.615   1.378
 3490TIP3   OH210475   5.464   2.881   2.009
 3490TIP3    H110476   5.381   2.838   1.987
 3490TIP3    H210477   5.446   2.974   1.999
 3491TIP3   OH210478   1.196   1.659   3.464
 3491TIP3    H110479   1.167   1.719   3.395
 3491TIP3    H210480   1.292   1.663   3.460
 3492TIP3   OH210481   1.480   3.510   0.671
 3492TIP3    H110482   1.539   3.586   0.680
 3492TIP3    H210483   1.481   3.491   0.577
 3493TIP3   OH210484   3.694   4.905   1.662
 3493TIP3    H110485   3.708   4.886   1.755
 3493TIP3    H210486   3.604   4.878   1.645
 3494TIP3   OH210487   1.343   1.238   1.843
 3494TIP3    H110488   1.428   1.199   1.821
 3494TIP3    H210489   1.311   1.273   1.761
 3495TIP3   OH210490   2.436   3.637   0.530
 3495TIP3    H110491   2.365   3.575   0.545
 3495TIP3    H210492   2.497   3.591   0.472
 3496TIP3   OH210493   5.955   0.300   1.286
 3496TIP3    H110494   5.976   0.218   1.331
 3496TIP3    H210495   5.861   0.295   1.271
 3497TIP3   OH210496   2.689   0.338   2.281
 3497TIP3    H110497   2.635   0.416   2.287
 3497TIP3    H210498   2.738   0.349   2.200
 3498TIP3   OH210499   3.940   5.529   2.977
 3498TIP3    H110500   3.978   5.582   2.907
 3498TIP3    H210501   3.884   5.589   3.025
 3499TIP3   OH210502   1.989   1.493   0.454
 3499TIP3    H110503   2.020   1.530   0.372
 3499TIP3    H210504   1.909   1.543   0.474
 3500TIP3   OH210505   5.232   4.474   4.961
 3500TIP3    H110506   5.212   4.482   5.054
 3500TIP3    H210507   5.258   4.383   4.949
 3501TIP3   OH210508   4.985   0.275   4.981
 3501TIP3    H110509   5.021   0.272   5.070
 3501TIP3    H210510   4.921   0.346   4.984
 3502TIP3   OH210511   2.682   4.529   2.538
 3502TIP3    H110512   2.588   4.541   2.550
 3502TIP3    H210513   2.690   4.485   2.453
 3503TIP3   OH210514   0.369   3.883   2.400
 3503TIP3    H110515   0.333   3.866   2.313
 3503TIP3    H210516   0.318   3.826   2.458
 3504TIP3   OH210517   6.188   1.670   4.156
 3504TIP3    H110518   6.231   1.585   4.144
 3504TIP3    H210519   6.125   1.655   4.227
 3505TIP3   OH210520   6.122   1.778   2.508
 3505TIP3    H110521   6.059   1.757   2.577
 3505TIP3    H210522   6.179   1.701   2.502
 3506TIP3   OH210523   1.576   5.993   1.614
 3506TIP3    H110524   1.625   6.064   1.655
 3506TIP3    H210525   1.626   5.914   1.634
 3507TIP3   OH210526   3.148   3.694   4.454
 3507TIP3    H110527   3.219   3.711   4.515
 3507TIP3    H210528   3.121   3.604   4.473
 3508TIP3   OH210529   5.263   2.821   0.424
 3508TIP3    H110530   5.206   2.752   0.456
 3508TIP3    H210531   5.207   2.899   0.422
 3509TIP3   OH210532   0.503   0.103   1.282
 3509TIP3    H110533   0.483   0.159   1.208
 3509TIP3    H210534   0.565   0.039   1.248
 3510TIP3   OH210535   3.368   3.597   1.376
 3510TIP3    H110536   3.376   3.584   1.282
 3510TIP3    H210537   3.279   3.568   1.397
 3511TIP3   OH210538   5.598   4.434   1.943
 3511TIP3    H110539   5.503   4.419   1.934
 3511TIP3    H210540   5.606   4.496   2.015
 3512TIP3   OH210541   3.960   1.653   4.074
 3512TIP3    H110542   3.984   1.560   4.070
 3512TIP3    H210543   3.866   1.651   4.092
 3513TIP3   OH210544   6.260   3.448   4.586
 3513TIP3    H110545   6.198   3.382   4.618
 3513TIP3    H210546   6.346   3.416   4.615
 3514TIP3   OH210547   5.364   1.235   2.050
 3514TIP3    H110548   5.342   1.262   1.961
 3514TIP3    H210549   5.442   1.181   2.040
 3515TIP3   OH210550   5.837   0.589   1.031
 3515TIP3    H110551   5.879   0.611   1.114
 3515TIP3    H210552   5.746   0.570   1.055
 3516TIP3   OH210553   0.876   0.789   3.920
 3516TIP3    H110554   0.964   0.753   3.912
 3516TIP3    H210555   0.818   0.716   3.897
 3517TIP3   OH210556   5.912   1.704   0.911
 3517TIP3    H110557   5.821   1.730   0.925
 3517TIP3    H210558   5.950   1.700   0.998
 3518TIP3   OH210559   0.428   0.767   0.769
 3518TIP3    H110560   0.459   0.678   0.756
 3518TIP3    H210561   0.366   0.782   0.698
 3519TIP3   OH210562   3.350   1.450   0.545
 3519TIP3    H110563   3.435   1.439   0.587
 3519TIP3    H210564   3.345   1.379   0.482
 3520TIP3   OH210565   0.424   5.234   2.098
 3520TIP3    H110566   0.348   5.267   2.051
 3520TIP3    H210567   0.452   5.306   2.154
 3521TIP3   OH210568   2.267   2.328   3.209
 3521TIP3    H110569   2.307   2.275   3.279
 3521TIP3    H210570   2.331   2.398   3.193
 3522TIP3   OH210571   3.972   4.309   4.285
 3522TIP3    H110572   3.914   4.318   4.209
 3522TIP3    H210573   3.929   4.243   4.340
 3523TIP3   OH210574   5.414   1.393   1.096
 3523TIP3    H110575   5.329   1.373   1.057
 3523TIP3    H210576   5.400   1.389   1.190
 3524TIP3   OH210577   3.449   4.069   2.969
 3524TIP3    H110578   3.462   4.084   2.875
 3524TIP3    H210579   3.412   4.151   3.001
 3525TIP3   OH210580   2.243   1.491   0.081
 3525TIP3    H110581   2.222   1.405   0.120
 3525TIP3    H210582   2.252   1.472  -0.012
 3526TIP3   OH210583   3.129   3.904   4.000
 3526TIP3    H110584   3.117   3.865   4.087
 3526TIP3    H210585   3.041   3.918   3.967
 3527TIP3   OH210586   3.222   1.830   2.605
 3527TIP3    H110587   3.264   1.762   2.658
 3527TIP3    H210588   3.241   1.912   2.651
 3528TIP3   OH210589   4.049   1.878   1.037
 3528TIP3    H110590   4.098   1.800   1.013
 3528TIP3    H210591   3.972   1.845   1.083
 3529TIP3   OH210592   5.278   1.315   1.513
 3529TIP3    H110593   5.344   1.381   1.495
 3529TIP3    H210594   5.211   1.328   1.445
 3530TIP3   OH210595   3.474   5.602   2.681
 3530TIP3    H110596   3.397   5.649   2.712
 3530TIP3    H210597   3.483   5.528   2.741
 3531TIP3   OH210598   5.533   3.360   2.207
 3531TIP3    H110599   5.485   3.399   2.134
 3531TIP3    H210600   5.573   3.281   2.170
 3532TIP3   OH210601   3.823   2.657   4.340
 3532TIP3    H110602   3.838   2.751   4.351
 3532TIP3    H210603   3.847   2.619   4.424
 3533TIP3   OH210604   2.917   5.128   3.394
 3533TIP3    H110605   2.883   5.208   3.434
 3533TIP3    H210606   2.987   5.100   3.453
 3534TIP3   OH210607   3.714   5.559   0.867
 3534TIP3    H110608   3.718   5.505   0.789
 3534TIP3    H210609   3.620   5.568   0.885
 3535TIP3   OH210610   3.165   5.864   0.591
 3535TIP3    H110611   3.203   5.832   0.673
 3535TIP3    H210612   3.137   5.785   0.545
 3536TIP3   OH210613   1.163   0.817   0.119
 3536TIP3    H110614   1.086   0.842   0.170
 3536TIP3    H210615   1.167   0.880   0.048
 3537TIP3   OH210616   0.369   1.772   0.089
 3537TIP3    H110617   0.401   1.861   0.099
 3537TIP3    H210618   0.441   1.725   0.048
 3538TIP3   OH210619   3.125   1.923   1.146
 3538TIP3    H110620   3.206   1.971   1.127
 3538TIP3    H210621   3.057   1.990   1.149
 3539TIP3   OH210622   0.807   1.137   1.009
 3539TIP3    H110623   0.725   1.139   0.960
 3539TIP3    H210624   0.790   1.076   1.082
 3540TIP3   OH210625   2.967   2.601   2.079
 3540TIP3    H110626   3.057   2.568   2.078
 3540TIP3    H210627   2.971   2.684   2.032
 3541TIP3   OH210628   1.376   5.323   2.163
 3541TIP3    H110629   1.458   5.287   2.130
 3541TIP3    H210630   1.344   5.256   2.224
 3542TIP3   OH210631   4.450   4.882   3.844
 3542TIP3    H110632   4.404   4.880   3.760
 3542TIP3    H210633   4.451   4.975   3.869
 3543TIP3   OH210634   1.898   2.076   2.085
 3543TIP3    H110635   1.850   2.045   2.009
 3543TIP3    H210636   1.863   2.026   2.158
 3544TIP3   OH210637   4.003   4.977   3.544
 3544TIP3    H110638   3.940   5.005   3.478
 3544TIP3    H210639   4.027   5.058   3.590
 3545TIP3   OH210640   4.469   2.381   3.349
 3545TIP3    H110641   4.513   2.358   3.431
 3545TIP3    H210642   4.431   2.468   3.366
 3546TIP3   OH210643   5.332   0.423   0.572
 3546TIP3    H110644   5.273   0.486   0.615
 3546TIP3    H210645   5.330   0.448   0.480
 3547TIP3   OH210646   3.950   1.515   4.617
 3547TIP3    H110647   4.027   1.460   4.630
 3547TIP3    H210648   3.968   1.595   4.666
 3548TIP3   OH210649   4.381   2.424   4.647
 3548TIP3    H110650   4.315   2.468   4.594
 3548TIP3    H210651   4.439   2.494   4.677
 3549TIP3   OH210652   1.497   3.841   3.167
 3549TIP3    H110653   1.467   3.852   3.076
 3549TIP3    H210654   1.553   3.764   3.163
 3550TIP3   OH210655   5.816   5.374   3.771
 3550TIP3    H110656   5.804   5.293   3.722
 3550TIP3    H210657   5.909   5.394   3.763
 3551TIP3   OH210658   0.512   1.586   1.918
 3551TIP3    H110659   0.548   1.529   1.986
 3551TIP3    H210660   0.589   1.621   1.872
 3552TIP3   OH210661   0.183   1.821   3.946
 3552TIP3    H110662   0.266   1.830   3.992
 3552TIP3    H210663   0.116   1.841   4.012
 3553TIP3   OH210664   3.820   3.102   3.117
 3553TIP3    H110665   3.916   3.100   3.114
 3553TIP3    H210666   3.794   3.094   3.025
 3554TIP3   OH210667   4.846   3.497   3.612
 3554TIP3    H110668   4.912   3.532   3.672
 3554TIP3    H210669   4.798   3.433   3.664
 3555TIP3   OH210670   5.340   3.011   0.975
 3555TIP3    H110671   5.286   2.958   0.918
 3555TIP3    H210672   5.428   3.004   0.939
 3556TIP3   OH210673   1.539   1.153   4.882
 3556TIP3    H110674   1.463   1.142   4.940
 3556TIP3    H210675   1.550   1.248   4.876
 3557TIP3   OH210676   1.898   5.233   2.197
 3557TIP3    H110677   1.810   5.218   2.161
 3557TIP3    H210678   1.953   5.169   2.152
 3558TIP3   OH210679   3.531   3.706   3.775
 3558TIP3    H110680   3.509   3.775   3.711
 3558TIP3    H210681   3.453   3.700   3.830
 3559TIP3   OH210682   1.987   3.364   3.744
 3559TIP3    H110683   1.977   3.334   3.835
 3559TIP3    H210684   1.966   3.287   3.692
 3560TIP3   OH210685   3.799   3.223   4.078
 3560TIP3    H110686   3.707   3.243   4.062
 3560TIP3    H210687   3.839   3.223   3.991
 3561TIP3   OH210688   2.682   0.744   4.258
 3561TIP3    H110689   2.624   0.738   4.334
 3561TIP3    H210690   2.677   0.836   4.232
 3562TIP3   OH210691   1.129   0.087   2.492
 3562TIP3    H110692   1.103   0.157   2.552
 3562TIP3    H210693   1.086   0.111   2.409
 3563TIP3   OH210694   3.570   0.882   0.767
 3563TIP3    H110695   3.508   0.830   0.715
 3563TIP3    H210696   3.652   0.876   0.717
 3564TIP3   OH210697   5.547   1.017   2.029
 3564TIP3    H110698   5.567   1.017   2.123
 3564TIP3    H210699   5.628   0.988   1.987
 3565TIP3   OH210700   3.764   3.501   0.574
 3565TIP3    H110701   3.847   3.480   0.531
 3565TIP3    H210702   3.776   3.590   0.607
 3566TIP3   OH210703   6.305   4.600   3.685
 3566TIP3    H110704   6.215   4.626   3.704
 3566TIP3    H210705   6.357   4.640   3.756
 3567TIP3   OH210706   5.084   4.583   4.692
 3567TIP3    H110707   5.067   4.588   4.786
 3567TIP3    H210708   5.050   4.497   4.666
 3568TIP3   OH210709   0.438   4.648   0.169
 3568TIP3    H110710   0.420   4.584   0.238
 3568TIP3    H210711   0.359   4.646   0.115
 3569TIP3   OH210712   1.461   2.372   0.251
 3569TIP3    H110713   1.520   2.397   0.179
 3569TIP3    H210714   1.494   2.286   0.279
 3570TIP3   OH210715   4.500   3.931   3.159
 3570TIP3    H110716   4.494   3.838   3.183
 3570TIP3    H210717   4.411   3.954   3.134
 3571TIP3   OH210718   5.665   1.464   4.200
 3571TIP3    H110719   5.727   1.422   4.260
 3571TIP3    H210720   5.598   1.397   4.185
 3572TIP3   OH210721   2.681   1.112   3.855
 3572TIP3    H110722   2.708   1.164   3.931
 3572TIP3    H210723   2.739   1.036   3.856
 3573TIP3   OH210724   5.307   5.884   1.771
 3573TIP3    H110725   5.372   5.951   1.751
 3573TIP3    H210726   5.230   5.909   1.720
 3574TIP3   OH210727   0.944   4.360   2.147
 3574TIP3    H110728   0.998   4.337   2.222
 3574TIP3    H210729   0.855   4.335   2.174
 3575TIP3   OH210730   1.124   5.336   4.142
 3575TIP3    H110731   1.165   5.421   4.127
 3575TIP3    H210732   1.099   5.306   4.055
 3576TIP3   OH210733   0.715   2.113   4.226
 3576TIP3    H110734   0.662   2.034   4.236
 3576TIP3    H210735   0.662   2.170   4.169
 3577TIP3   OH210736   1.234   2.544   1.452
 3577TIP3    H110737   1.296   2.553   1.380
 3577TIP3    H210738   1.262   2.610   1.516
 3578TIP3   OH210739   2.421   0.543   1.508
 3578TIP3    H110740   2.357   0.509   1.445
 3578TIP3    H210741   2.370   0.560   1.587
 3579TIP3   OH210742   1.648   4.682   0.962
 3579TIP3    H110743   1.589   4.624   0.913
 3579TIP3    H210744   1.726   4.688   0.908
 3580TIP3   OH210745   3.394   5.807   3.496
 3580TIP3    H110746   3.488   5.792   3.509
 3580TIP3    H210747   3.354   5.779   3.578
 3581TIP3   OH210748   4.723   1.032   3.502
 3581TIP3    H110749   4.662   1.102   3.480
 3581TIP3    H210750   4.748   1.049   3.593
 3582TIP3   OH210751   0.073   5.264   0.549
 3582TIP3    H110752   0.012   5.315   0.602
 3582TIP3    H210753   0.022   5.238   0.472
 3583TIP3   OH210754   0.348   4.478   0.490
 3583TIP3    H110755   0.383   4.412   0.550
 3583TIP3    H210756   0.340   4.557   0.543
 3584TIP3   OH210757   0.596   3.311   4.133
 3584TIP3    H110758   0.572   3.279   4.046
 3584TIP3    H210759   0.690   3.324   4.128
 3585TIP3   OH210760   5.092   0.587   3.756
 3585TIP3    H110761   5.089   0.503   3.802
 3585TIP3    H210762   5.001   0.606   3.734
 3586TIP3   OH210763   2.535   0.381   1.954
 3586TIP3    H110764   2.522   0.475   1.939
 3586TIP3    H210765   2.628   0.373   1.973
 3587TIP3   OH210766   0.785   3.247   0.543
 3587TIP3    H110767   0.736   3.325   0.517
 3587TIP3    H210768   0.873   3.279   0.559
 3588TIP3   OH210769   5.087   4.209   2.439
 3588TIP3    H110770   5.073   4.282   2.378
 3588TIP3    H210771   5.133   4.144   2.386
 3589TIP3   OH210772   2.376   5.730   4.926
 3589TIP3    H110773   2.379   5.732   4.831
 3589TIP3    H210774   2.467   5.742   4.954
 3590TIP3   OH210775   1.912   3.423   5.096
 3590TIP3    H110776   1.904   3.455   5.006
 3590TIP3    H210777   1.856   3.345   5.098
 3591TIP3   OH210778   0.901   4.569   0.407
 3591TIP3    H110779   0.902   4.649   0.460
 3591TIP3    H210780   0.809   4.546   0.399
 3592TIP3   OH210781   1.173   1.636   2.793
 3592TIP3    H110782   1.098   1.655   2.736
 3592TIP3    H210783   1.233   1.586   2.737
 3593TIP3   OH210784   2.587   1.786   3.767
 3593TIP3    H110785   2.629   1.748   3.689
 3593TIP3    H210786   2.538   1.713   3.804
 3594TIP3   OH210787   5.508   0.741   2.520
 3594TIP3    H110788   5.470   0.793   2.449
 3594TIP3    H210789   5.599   0.773   2.527
 3595TIP3   OH210790   4.647   3.018   2.775
 3595TIP3    H110791   4.631   3.050   2.863
 3595TIP3    H210792   4.739   3.040   2.758
 3596TIP3   OH210793   3.888   2.670   3.511
 3596TIP3    H110794   3.796   2.649   3.527
 3596TIP3    H210795   3.901   2.753   3.557
 3597TIP3   OH210796   6.072   2.683   3.862
 3597TIP3    H110797   6.069   2.635   3.779
 3597TIP3    H210798   6.036   2.770   3.841
 3598TIP3   OH210799   4.549   4.991   3.226
 3598TIP3    H110800   4.642   5.003   3.207
 3598TIP3    H210801   4.518   4.933   3.156
 3599TIP3   OH210802   1.605   3.695   4.883
 3599TIP3    H110803   1.654   3.682   4.965
 3599TIP3    H210804   1.665   3.742   4.826
 3600TIP3   OH210805   5.399   5.776   2.920
 3600TIP3    H110806   5.402   5.708   2.987
 3600TIP3    H210807   5.319   5.825   2.939
 3601TIP3   OH210808   1.128   3.799   5.062
 3601TIP3    H110809   1.136   3.866   4.995
 3601TIP3    H210810   1.053   3.826   5.115
 3602TIP3   OH210811   1.240   4.698   1.475
 3602TIP3    H110812   1.215   4.769   1.535
 3602TIP3    H210813   1.330   4.720   1.449
 3603TIP3   OH210814   1.337   5.016   3.781
 3603TIP3    H110815   1.374   5.027   3.869
 3603TIP3    H210816   1.396   4.953   3.739
 3604TIP3   OH210817   3.271   1.328   2.474
 3604TIP3    H110818   3.271   1.423   2.477
 3604TIP3    H210819   3.208   1.302   2.542
 3605TIP3   OH210820   2.674   4.047   3.033
 3605TIP3    H110821   2.751   3.993   3.018
 3605TIP3    H210822   2.708   4.135   3.051
 3606TIP3   OH210823   5.989   3.454   0.411
 3606TIP3    H110824   5.909   3.464   0.358
 3606TIP3    H210825   6.037   3.384   0.367
 3607TIP3   OH210826   4.593   4.245   0.661
 3607TIP3    H110827   4.539   4.240   0.740
 3607TIP3    H210828   4.680   4.217   0.690
 3608TIP3   OH210829   1.939   1.489   0.048
 3608TIP3    H110830   2.020   1.462   0.091
 3608TIP3    H210831   1.966   1.520  -0.038
 3609TIP3   OH210832   2.612   3.814   1.608
 3609TIP3    H110833   2.517   3.799   1.608
 3609TIP3    H210834   2.642   3.780   1.692
 3610TIP3   OH210835   3.238   0.676   4.240
 3610TIP3    H110836   3.274   0.749   4.290
 3610TIP3    H210837   3.171   0.716   4.185
 3611TIP3   OH210838   3.466   0.646   4.087
 3611TIP3    H110839   3.513   0.582   4.140
 3611TIP3    H210840   3.374   0.632   4.109
 3612TIP3   OH210841   2.347   2.187   4.840
 3612TIP3    H110842   2.265   2.235   4.847
 3612TIP3    H210843   2.335   2.110   4.895
 3613TIP3   OH210844   6.318   4.882   4.932
 3613TIP3    H110845   6.270   4.873   5.015
 3613TIP3    H210846   6.253   4.865   4.864
 3614TIP3   OH210847   5.523   2.546   1.747
 3614TIP3    H110848   5.510   2.628   1.699
 3614TIP3    H210849   5.587   2.568   1.815
 3615TIP3   OH210850   5.440   4.512   3.404
 3615TIP3    H110851   5.461   4.558   3.322
 3615TIP3    H210852   5.353   4.475   3.389
 3616TIP3   OH210853   5.582   2.000   1.588
 3616TIP3    H110854   5.593   2.092   1.613
 3616TIP3    H210855   5.576   1.954   1.672
 3617TIP3   OH210856   3.422   1.091   0.628
 3617TIP3    H110857   3.448   1.059   0.714
 3617TIP3    H210858   3.502   1.132   0.593
 3618TIP3   OH210859   5.332   4.027   5.184
 3618TIP3    H110860   5.412   4.079   5.189
 3618TIP3    H210861   5.265   4.088   5.154
 3619TIP3   OH210862   4.575   2.190   1.210
 3619TIP3    H110863   4.536   2.164   1.127
 3619TIP3    H210864   4.523   2.266   1.238
 3620TIP3   OH210865   1.375   1.981   1.332
 3620TIP3    H110866   1.453   1.963   1.384
 3620TIP3    H210867   1.309   1.922   1.367
 3621TIP3   OH210868   3.599   0.033   0.880
 3621TIP3    H110869   3.624   0.105   0.938
 3621TIP3    H210870   3.606  -0.045   0.934
 3622TIP3   OH210871   6.259   5.199   2.204
 3622TIP3    H110872   6.297   5.286   2.223
 3622TIP3    H210873   6.211   5.212   2.123
 3623TIP3   OH210874   5.124   0.396   3.051
 3623TIP3    H110875   5.182   0.383   3.125
 3623TIP3    H210876   5.182   0.422   2.979
 3624TIP3   OH210877   5.445   2.341   1.594
 3624TIP3    H110878   5.465   2.278   1.664
 3624TIP3    H210879   5.461   2.426   1.634
 3625TIP3   OH210880   6.014   3.717   0.502
 3625TIP3    H110881   6.087   3.681   0.452
 3625TIP3    H210882   5.946   3.650   0.496
 3626TIP3   OH210883   0.138   1.779   0.231
 3626TIP3    H110884   0.116   1.871   0.248
 3626TIP3    H210885   0.220   1.782   0.181
 3627TIP3   OH210886   0.176   3.822   3.498
 3627TIP3    H110887   0.145   3.773   3.575
 3627TIP3    H210888   0.152   3.767   3.424
 3628TIP3   OH210889   4.932   0.750   2.803
 3628TIP3    H110890   4.942   0.839   2.838
 3628TIP3    H210891   4.930   0.694   2.881
 3629TIP3   OH210892   2.503   2.667   0.083
 3629TIP3    H110893   2.461   2.631   0.161
 3629TIP3    H210894   2.433   2.712   0.036
 3630TIP3   OH210895   1.002   1.063   4.029
 3630TIP3    H110896   0.959   1.078   4.113
 3630TIP3    H210897   0.958   0.986   3.993
 3631TIP3   OH210898   0.701   2.863   3.075
 3631TIP3    H110899   0.773   2.915   3.040
 3631TIP3    H210900   0.658   2.826   2.998
 3632TIP3   OH210901   3.841   0.747   4.542
 3632TIP3    H110902   3.758   0.736   4.589
 3632TIP3    H210903   3.819   0.733   4.450
 3633TIP3   OH210904   5.279   3.815   4.832
 3633TIP3    H110905   5.225   3.867   4.891
 3633TIP3    H210906   5.222   3.797   4.757
 3634TIP3   OH210907   5.294   1.955   4.119
 3634TIP3    H110908   5.322   2.038   4.157
 3634TIP3    H210909   5.274   1.899   4.194
 3635TIP3   OH210910   1.158   5.994   4.565
 3635TIP3    H110911   1.075   5.966   4.604
 3635TIP3    H210912   1.225   5.956   4.621
 3636TIP3   OH210913   2.060   1.192   2.027
 3636TIP3    H110914   2.054   1.097   2.037
 3636TIP3    H210915   2.151   1.208   2.004
 3637TIP3   OH210916   2.378   0.412   3.671
 3637TIP3    H110917   2.430   0.471   3.617
 3637TIP3    H210918   2.405   0.432   3.761
 3638TIP3   OH210919   0.558   4.681   1.047
 3638TIP3    H110920   0.600   4.766   1.032
 3638TIP3    H210921   0.537   4.681   1.141
 3639TIP3   OH210922   4.407   4.042  -0.033
 3639TIP3    H110923   4.382   4.004   0.051
 3639TIP3    H210924   4.384   4.135  -0.026
 3640TIP3   OH210925   4.889   1.058   4.014
 3640TIP3    H110926   4.890   1.154   4.010
 3640TIP3    H210927   4.939   1.038   4.094
 3641TIP3   OH210928   1.875   1.710   0.848
 3641TIP3    H110929   1.927   1.661   0.785
 3641TIP3    H210930   1.910   1.799   0.847
 3642TIP3   OH210931   2.720   0.245   0.768
 3642TIP3    H110932   2.638   0.291   0.788
 3642TIP3    H210933   2.763   0.300   0.703
 3643TIP3   OH210934   0.231   0.610   0.235
 3643TIP3    H110935   0.274   0.642   0.314
 3643TIP3    H210936   0.145   0.579   0.266
 3644TIP3   OH210937   1.620   4.655   2.808
 3644TIP3    H110938   1.683   4.699   2.864
 3644TIP3    H210939   1.547   4.634   2.867
 3645TIP3   OH210940   2.252   2.964   1.600
 3645TIP3    H110941   2.251   3.024   1.525
 3645TIP3    H210942   2.179   2.904   1.583
 3646TIP3   OH210943   3.516   1.945   1.426
 3646TIP3    H110944   3.524   1.850   1.426
 3646TIP3    H210945   3.532   1.971   1.517
 3647TIP3   OH210946   5.413   1.507   2.800
 3647TIP3    H110947   5.441   1.536   2.713
 3647TIP3    H210948   5.456   1.422   2.812
 3648TIP3   OH210949   1.201   1.796   4.137
 3648TIP3    H110950   1.250   1.867   4.095
 3648TIP3    H210951   1.200   1.820   4.229
 3649TIP3   OH210952   0.227   1.179   2.684
 3649TIP3    H110953   0.279   1.098   2.688
 3649TIP3    H210954   0.245   1.223   2.768
 3650TIP3   OH210955   1.867   3.466   0.392
 3650TIP3    H110956   1.820   3.386   0.368
 3650TIP3    H210957   1.941   3.469   0.332
 3651TIP3   OH210958   4.423   1.326   1.537
 3651TIP3    H110959   4.375   1.278   1.605
 3651TIP3    H210960   4.497   1.269   1.516
 3652TIP3   OH210961   0.831   0.557   3.207
 3652TIP3    H110962   0.758   0.536   3.149
 3652TIP3    H210963   0.907   0.562   3.149
 3653TIP3   OH210964   1.457   2.578   4.923
 3653TIP3    H110965   1.511   2.502   4.942
 3653TIP3    H210966   1.500   2.621   4.849
 3654TIP3   OH210967   2.898   4.652   3.248
 3654TIP3    H110968   2.873   4.745   3.253
 3654TIP3    H210969   2.863   4.614   3.329
 3655TIP3   OH210970   4.050   5.086   4.501
 3655TIP3    H110971   4.048   5.111   4.594
 3655TIP3    H210972   3.988   5.013   4.495
 3656TIP3   OH210973   6.349   4.453   4.526
 3656TIP3    H110974   6.323   4.454   4.617
 3656TIP3    H210975   6.282   4.504   4.480
 3657TIP3   OH210976   5.975   2.939   4.020
 3657TIP3    H110977   5.891   2.981   4.006
 3657TIP3    H210978   6.036   2.988   3.965
 3658TIP3   OH210979   0.245   2.256   3.410
 3658TIP3    H110980   0.151   2.266   3.399
 3658TIP3    H210981   0.256   2.171   3.453
 3659TIP3   OH210982   1.498   0.506   0.067
 3659TIP3    H110983   1.468   0.475  -0.018
 3659TIP3    H210984   1.593   0.515   0.058
 3660TIP3   OH210985   1.397   0.038   0.576
 3660TIP3    H110986   1.427   0.103   0.512
 3660TIP3    H210987   1.327  -0.010   0.531
 3661TIP3   OH210988   6.013   1.783   3.436
 3661TIP3    H110989   6.066   1.832   3.373
 3661TIP3    H210990   6.072   1.766   3.509
 3662TIP3   OH210991   4.885   4.650   5.040
 3662TIP3    H110992   4.815   4.700   4.998
 3662TIP3    H210993   4.856   4.637   5.130
 3663TIP3   OH210994   1.097   4.778   3.326
 3663TIP3    H110995   1.020   4.726   3.303
 3663TIP3    H210996   1.066   4.837   3.395
 3664TIP3   OH210997   5.882   2.325   4.020
 3664TIP3    H110998   5.804   2.356   3.974
 3664TIP3    H210999   5.924   2.265   3.959
 3665TIP3   OH211000   5.461   4.506   0.021
 3665TIP3    H111001   5.462   4.597   0.049
 3665TIP3    H211002   5.370   4.478   0.033
 3666TIP3   OH211003   1.326   5.655   2.745
 3666TIP3    H111004   1.321   5.736   2.795
 3666TIP3    H211005   1.298   5.679   2.657
 3667TIP3   OH211006   2.980   2.474   3.628
 3667TIP3    H111007   3.021   2.435   3.552
 3667TIP3    H211008   2.886   2.469   3.610
 3668TIP3   OH211009   0.785   2.482   1.522
 3668TIP3    H111010   0.803   2.560   1.574
 3668TIP3    H211011   0.716   2.436   1.570
 3669TIP3   OH211012   5.034   4.554   0.716
 3669TIP3    H111013   5.107   4.498   0.742
 3669TIP3    H211014   5.009   4.601   0.795
 3670TIP3   OH211015   2.136   2.695   0.474
 3670TIP3    H111016   2.144   2.601   0.454
 3670TIP3    H211017   2.139   2.737   0.388
 3671TIP3   OH211018   1.171   4.731   2.679
 3671TIP3    H111019   1.111   4.724   2.605
 3671TIP3    H211020   1.171   4.824   2.702
 3672TIP3   OH211021   1.793   5.368   0.445
 3672TIP3    H111022   1.888   5.377   0.438
 3672TIP3    H211023   1.764   5.351   0.355
 3673TIP3   OH211024   4.409   1.575   3.310
 3673TIP3    H111025   4.476   1.567   3.378
 3673TIP3    H211026   4.457   1.598   3.231
 3674TIP3   OH211027   4.515   0.071   1.305
 3674TIP3    H111028   4.517  -0.024   1.310
 3674TIP3    H211029   4.534   0.091   1.214
 3675TIP3   OH211030   0.451   2.303   0.183
 3675TIP3    H111031   0.397   2.382   0.178
 3675TIP3    H211032   0.506   2.317   0.260
 3676TIP3   OH211033   2.976   0.162   1.955
 3676TIP3    H111034   3.047   0.219   1.986
 3676TIP3    H211035   3.018   0.105   1.891
 3677TIP3   OH211036   4.173   3.904   4.974
 3677TIP3    H111037   4.112   3.872   4.907
 3677TIP3    H211038   4.203   3.825   5.019
 3678TIP3   OH211039   1.123   5.578   0.078
 3678TIP3    H111040   1.095   5.659   0.121
 3678TIP3    H211041   1.119   5.598  -0.015
 3679TIP3   OH211042   6.308   0.799   4.109
 3679TIP3    H111043   6.369   0.753   4.167
 3679TIP3    H211044   6.341   0.888   4.106
 3680TIP3   OH211045   0.940   4.706   0.848
 3680TIP3    H111046   1.001   4.726   0.919
 3680TIP3    H211047   0.867   4.766   0.861
 3681TIP3   OH211048   6.023   2.869   2.665
 3681TIP3    H111049   5.997   2.946   2.716
 3681TIP3    H211050   6.119   2.871   2.667
 3682TIP3   OH211051   4.816   2.145   2.564
 3682TIP3    H111052   4.860   2.196   2.495
 3682TIP3    H211053   4.805   2.058   2.526
 3683TIP3   OH211054   3.866   5.769   0.777
 3683TIP3    H111055   3.916   5.795   0.854
 3683TIP3    H211056   3.810   5.697   0.807
 3684TIP3   OH211057   4.052   2.617   4.112
 3684TIP3    H111058   4.119   2.663   4.061
 3684TIP3    H211059   4.086   2.614   4.201
 3685TIP3   OH211060   1.010   0.582   2.631
 3685TIP3    H111061   0.983   0.642   2.701
 3685TIP3    H211062   0.979   0.624   2.551
 3686TIP3   OH211063   2.399   2.052   4.027
 3686TIP3    H111064   2.390   2.041   3.933
 3686TIP3    H211065   2.427   1.966   4.059
 3687TIP3   OH211066   3.988   1.298   1.909
 3687TIP3    H111067   3.924   1.343   1.853
 3687TIP3    H211068   4.067   1.293   1.856
 3688TIP3   OH211069   4.953   0.199   2.046
 3688TIP3    H111070   4.969   0.110   2.079
 3688TIP3    H211071   5.037   0.226   2.008
 3689TIP3   OH211072   1.148   3.115   0.277
 3689TIP3    H111073   1.172   3.082   0.190
 3689TIP3    H211074   1.159   3.039   0.334
 3690TIP3   OH211075   2.802   3.247   1.464
 3690TIP3    H111076   2.893   3.237   1.436
 3690TIP3    H211077   2.807   3.298   1.544
 3691TIP3   OH211078   4.607   2.553   1.124
 3691TIP3    H111079   4.680   2.535   1.182
 3691TIP3    H211080   4.533   2.506   1.162
 3692TIP3   OH211081   0.055   0.384   2.493
 3692TIP3    H111082   0.126   0.423   2.543
 3692TIP3    H211083   0.015   0.458   2.447
 3693TIP3   OH211084   0.699   0.341   2.523
 3693TIP3    H111085   0.670   0.367   2.436
 3693TIP3    H211086   0.642   0.389   2.583
 3694TIP3   OH211087   0.336   3.573   3.212
 3694TIP3    H111088   0.301   3.554   3.299
 3694TIP3    H211089   0.289   3.514   3.153
 3695TIP3   OH211090   0.773   3.656   3.819
 3695TIP3    H111091   0.767   3.740   3.773
 3695TIP3    H211092   0.859   3.622   3.795
 3696TIP3   OH211093   6.156   5.650   4.344
 3696TIP3    H111094   6.068   5.678   4.369
 3696TIP3    H211095   6.215   5.706   4.394
 3697TIP3   OH211096   6.222   3.292   4.255
 3697TIP3    H111097   6.313   3.319   4.270
 3697TIP3    H211098   6.210   3.301   4.161
 3698TIP3   OH211099   0.743   5.498   1.986
 3698TIP3    H111100   0.826   5.504   1.938
 3698TIP3    H211101   0.767   5.455   2.068
 3699TIP3   OH211102   2.247   5.181   2.015
 3699TIP3    H111103   2.200   5.259   1.985
 3699TIP3    H211104   2.240   5.119   1.942
 3700TIP3   OH211105   3.349   1.691   0.391
 3700TIP3    H111106   3.264   1.723   0.420
 3700TIP3    H211107   3.367   1.615   0.446
 3701TIP3   OH211108   1.889   0.418   3.741
 3701TIP3    H111109   1.914   0.510   3.747
 3701TIP3    H211110   1.856   0.396   3.828
 3702TIP3   OH211111   5.998   3.667   1.612
 3702TIP3    H111112   5.938   3.736   1.637
 3702TIP3    H211113   6.022   3.686   1.521
 3703TIP3   OH211114   3.216   5.930   0.278
 3703TIP3    H111115   3.126   5.922   0.245
 3703TIP3    H211116   3.211   6.001   0.342
 3704TIP3   OH211117   3.483   4.012   3.607
 3704TIP3    H111118   3.427   4.038   3.534
 3704TIP3    H211119   3.424   4.008   3.683
 3705TIP3   OH211120   0.911   0.963   5.151
 3705TIP3    H111121   0.893   0.877   5.114
 3705TIP3    H211122   0.830   0.988   5.195
 3706TIP3   OH211123   5.664   4.591   2.178
 3706TIP3    H111124   5.737   4.628   2.227
 3706TIP3    H211125   5.599   4.568   2.245
 3707TIP3   OH211126   0.259   0.080   4.909
 3707TIP3    H111127   0.227   0.082   5.000
 3707TIP3    H211128   0.308  -0.002   4.903
 3708TIP3   OH211129   0.447   0.086   0.147
 3708TIP3    H111130   0.407   0.029   0.212
 3708TIP3    H211131   0.384   0.157   0.136
 3709TIP3   OH211132   4.975   0.988   4.281
 3709TIP3    H111133   5.046   1.045   4.308
 3709TIP3    H211134   4.899   1.017   4.332
 3710TIP3   OH211135   3.803   4.587   1.562
 3710TIP3    H111136   3.869   4.654   1.545
 3710TIP3    H211137   3.725   4.616   1.514
 3711TIP3   OH211138   3.814   5.352   3.403
 3711TIP3    H111139   3.808   5.265   3.442
 3711TIP3    H211140   3.827   5.336   3.310
 3712TIP3   OH211141   5.418   0.767   3.136
 3712TIP3    H111142   5.473   0.689   3.137
 3712TIP3    H211143   5.357   0.755   3.209
 3713TIP3   OH211144   1.857   5.468   0.752
 3713TIP3    H111145   1.921   5.452   0.683
 3713TIP3    H211146   1.826   5.556   0.736
 3714TIP3   OH211147   0.349   0.124   2.761
 3714TIP3    H111148   0.332   0.216   2.740
 3714TIP3    H211149   0.375   0.125   2.853
 3715TIP3   OH211150   0.059   4.148   4.546
 3715TIP3    H111151   0.097   4.222   4.594
 3715TIP3    H211152   0.132   4.112   4.496
 3716TIP3   OH211153   2.959   0.624   4.930
 3716TIP3    H111154   2.951   0.700   4.987
 3716TIP3    H211155   3.049   0.626   4.899
 3717TIP3   OH211156   4.253   3.288   4.868
 3717TIP3    H111157   4.232   3.316   4.779
 3717TIP3    H211158   4.333   3.236   4.859
 3718TIP3   OH211159   4.705   1.278   3.345
 3718TIP3    H111160   4.701   1.360   3.393
 3718TIP3    H211161   4.785   1.285   3.293
 3719TIP3   OH211162   5.184   2.301   3.345
 3719TIP3    H111163   5.264   2.309   3.294
 3719TIP3    H211164   5.178   2.383   3.395
 3720TIP3   OH211165   5.789   0.578   4.014
 3720TIP3    H111166   5.722   0.640   4.042
 3720TIP3    H211167   5.739   0.503   3.980
 3721TIP3   OH211168   1.274   0.285   2.074
 3721TIP3    H111169   1.266   0.201   2.119
 3721TIP3    H211170   1.190   0.296   2.029
 3722TIP3   OH211171   1.644   4.756   2.446
 3722TIP3    H111172   1.574   4.753   2.511
 3722TIP3    H211173   1.724   4.771   2.498
 3723TIP3   OH211174   1.529   2.235   3.983
 3723TIP3    H111175   1.584   2.254   4.059
 3723TIP3    H211176   1.446   2.205   4.021
 3724TIP3   OH211177   1.930   4.202   5.009
 3724TIP3    H111178   1.841   4.168   5.018
 3724TIP3    H211179   1.974   4.140   4.951
 3725TIP3   OH211180   4.883   1.171   1.324
 3725TIP3    H111181   4.821   1.123   1.269
 3725TIP3    H211182   4.965   1.168   1.276
 3726TIP3   OH211183   5.193   5.630   0.695
 3726TIP3    H111184   5.147   5.699   0.648
 3726TIP3    H211185   5.285   5.658   0.695
 3727TIP3   OH211186   4.782   4.447   2.619
 3727TIP3    H111187   4.784   4.486   2.706
 3727TIP3    H211188   4.834   4.367   2.628
 3728TIP3   OH211189   5.096   2.301   2.919
 3728TIP3    H111190   5.155   2.369   2.889
 3728TIP3    H211191   5.015   2.316   2.870
 3729TIP3   OH211192   3.503   2.198   1.804
 3729TIP3    H111193   3.502   2.187   1.899
 3729TIP3    H211194   3.544   2.118   1.771
 3730TIP3   OH211195   3.671   0.469   4.187
 3730TIP3    H111196   3.653   0.398   4.124
 3730TIP3    H211197   3.762   0.455   4.214
 3731TIP3   OH211198   2.154   4.694   3.471
 3731TIP3    H111199   2.229   4.748   3.445
 3731TIP3    H211200   2.160   4.691   3.567
 3732TIP3   OH211201   3.032   4.893   4.758
 3732TIP3    H111202   2.986   4.948   4.821
 3732TIP3    H211203   2.963   4.851   4.707
 3733TIP3   OH211204   3.394   2.824   1.284
 3733TIP3    H111205   3.476   2.874   1.281
 3733TIP3    H211206   3.403   2.768   1.361
 3734TIP3   OH211207   5.309   5.066   1.479
 3734TIP3    H111208   5.347   4.980   1.495
 3734TIP3    H211209   5.307   5.075   1.384
 3735TIP3   OH211210   3.170   1.999   3.528
 3735TIP3    H111211   3.079   1.977   3.548
 3735TIP3    H211212   3.222   1.943   3.586
 3736TIP3   OH211213   4.262   2.513   0.577
 3736TIP3    H111214   4.204   2.472   0.642
 3736TIP3    H211215   4.213   2.507   0.495
 3737TIP3   OH211216   5.912   3.786   5.090
 3737TIP3    H111217   5.907   3.878   5.066
 3737TIP3    H211218   5.889   3.739   5.010
 3738TIP3   OH211219   5.307   0.974   0.306
 3738TIP3    H111220   5.328   0.915   0.378
 3738TIP3    H211221   5.224   1.015   0.332
 3739TIP3   OH211222   3.367   0.893   4.780
 3739TIP3    H111223   3.431   0.940   4.726
 3739TIP3    H211224   3.285   0.902   4.733
 3740TIP3   OH211225   2.888   0.799   3.661
 3740TIP3    H111226   2.876   0.804   3.567
 3740TIP3    H211227   2.886   0.890   3.691
 3741TIP3   OH211228   4.745   5.401   3.714
 3741TIP3    H111229   4.830   5.441   3.696
 3741TIP3    H211230   4.682   5.470   3.694
 3742TIP3   OH211231   3.720   2.426   1.094
 3742TIP3    H111232   3.688   2.481   1.166
 3742TIP3    H211233   3.804   2.466   1.070
 3743TIP3   OH211234   5.395   1.203   3.682
 3743TIP3    H111235   5.403   1.268   3.613
 3743TIP3    H211236   5.438   1.125   3.646
 3744TIP3   OH211237   0.128   3.247   3.492
 3744TIP3    H111238   0.223   3.239   3.504
 3744TIP3    H211239   0.092   3.170   3.537
 3745TIP3   OH211240   5.522   4.432   2.928
 3745TIP3    H111241   5.486   4.520   2.929
 3745TIP3    H211242   5.565   4.424   2.843
 3746TIP3   OH211243   3.366   2.507   4.578
 3746TIP3    H111244   3.400   2.596   4.587
 3746TIP3    H211245   3.333   2.485   4.666
 3747TIP3   OH211246   2.800   2.624   2.314
 3747TIP3    H111247   2.739   2.552   2.298
 3747TIP3    H211248   2.871   2.610   2.250
 3748TIP3   OH211249   5.969   1.724   3.016
 3748TIP3    H111250   6.045   1.753   3.067
 3748TIP3    H211251   5.898   1.783   3.044
 3749TIP3   OH211252   3.376   4.544   5.147
 3749TIP3    H111253   3.417   4.629   5.133
 3749TIP3    H211254   3.283   4.564   5.158
 3750TIP3   OH211255   4.887   1.387   0.307
 3750TIP3    H111256   4.834   1.407   0.385
 3750TIP3    H211257   4.966   1.440   0.317
 3751TIP3   OH211258   6.132   3.957   2.011
 3751TIP3    H111259   6.128   3.898   1.935
 3751TIP3    H211260   6.150   3.899   2.085
 3752TIP3   OH211261   0.690   4.943   3.184
 3752TIP3    H111262   0.719   4.930   3.094
 3752TIP3    H211263   0.598   4.967   3.177
 3753TIP3   OH211264   5.153   3.301   4.506
 3753TIP3    H111265   5.242   3.336   4.501
 3753TIP3    H211266   5.098   3.378   4.523
 3754TIP3   OH211267   2.678   3.999   2.447
 3754TIP3    H111268   2.600   3.989   2.503
 3754TIP3    H211269   2.741   3.936   2.482
 3755TIP3   OH211270   3.084   0.839   3.346
 3755TIP3    H111271   3.178   0.846   3.330
 3755TIP3    H211272   3.064   0.916   3.401
 3756TIP3   OH211273   0.601   4.936   2.174
 3756TIP3    H111274   0.671   4.916   2.111
 3756TIP3    H211275   0.520   4.916   2.127
 3757TIP3   OH211276   4.585   3.959   0.604
 3757TIP3    H111277   4.589   4.052   0.626
 3757TIP3    H211278   4.645   3.949   0.530
 3758TIP3   OH211279   4.384   4.689   0.691
 3758TIP3    H111280   4.319   4.737   0.640
 3758TIP3    H211281   4.337   4.611   0.721
 3759TIP3   OH211282   4.539   0.162   2.163
 3759TIP3    H111283   4.612   0.219   2.138
 3759TIP3    H211284   4.568   0.118   2.242
 3760TIP3   OH211285   1.176   2.711   3.404
 3760TIP3    H111286   1.260   2.666   3.390
 3760TIP3    H211287   1.112   2.656   3.359
 3761TIP3   OH211288   6.354   5.793   2.600
 3761TIP3    H111289   6.405   5.870   2.625
 3761TIP3    H211290   6.279   5.793   2.661
 3762TIP3   OH211291   4.946   4.331   0.537
 3762TIP3    H111292   4.897   4.284   0.605
 3762TIP3    H211293   4.998   4.396   0.584
 3763TIP3   OH211294   4.748   0.332   2.175
 3763TIP3    H111295   4.816   0.267   2.157
 3763TIP3    H211296   4.767   0.363   2.263
 3764TIP3   OH211297   4.311   3.136   0.076
 3764TIP3    H111298   4.377   3.172   0.135
 3764TIP3    H211299   4.322   3.041   0.084
 3765TIP3   OH211300   5.204   5.714   1.428
 3765TIP3    H111301   5.182   5.801   1.394
 3765TIP3    H211302   5.298   5.718   1.446
 3766TIP3   OH211303   0.654   3.615   0.043
 3766TIP3    H111304   0.655   3.546   0.109
 3766TIP3    H211305   0.611   3.576  -0.032
 3767TIP3   OH211306   4.028   0.555   3.908
 3767TIP3    H111307   4.107   0.505   3.931
 3767TIP3    H211308   4.014   0.535   3.815
 3768TIP3   OH211309   3.448   2.056   3.361
 3768TIP3    H111310   3.354   2.045   3.375
 3768TIP3    H211311   3.480   2.093   3.443
 3769TIP3   OH211312   2.885   4.018   3.719
 3769TIP3    H111313   2.922   4.096   3.761
 3769TIP3    H211314   2.857   3.963   3.791
 3770TIP3   OH211315   1.186   3.382   2.403
 3770TIP3    H111316   1.108   3.389   2.348
 3770TIP3    H211317   1.160   3.322   2.473
 3771TIP3   OH211318   5.528   0.361   4.586
 3771TIP3    H111319   5.563   0.444   4.554
 3771TIP3    H211320   5.534   0.368   4.681
 3772TIP3   OH211321   6.086   2.616   0.791
 3772TIP3    H111322   6.023   2.614   0.863
 3772TIP3    H211323   6.033   2.623   0.712
 3773TIP3   OH211324   6.328   5.971   0.814
 3773TIP3    H111325   6.393   5.981   0.883
 3773TIP3    H211326   6.247   5.947   0.859
 3774TIP3   OH211327   5.981   3.070   2.845
 3774TIP3    H111328   6.030   3.119   2.910
 3774TIP3    H211329   5.904   3.037   2.892
 3775TIP3   OH211330   4.272   0.196   2.202
 3775TIP3    H111331   4.271   0.138   2.278
 3775TIP3    H211332   4.364   0.221   2.193
 3776TIP3   OH211333   5.679   3.506   3.530
 3776TIP3    H111334   5.706   3.597   3.545
 3776TIP3    H211335   5.694   3.492   3.436
 3777TIP3   OH211336   6.171   4.599   0.793
 3777TIP3    H111337   6.241   4.554   0.746
 3777TIP3    H211338   6.098   4.603   0.730
 3778TIP3   OH211339   4.347   1.954   4.182
 3778TIP3    H111340   4.254   1.947   4.162
 3778TIP3    H211341   4.351   1.952   4.278
 3779TIP3   OH211342   1.060   5.557   4.567
 3779TIP3    H111343   1.118   5.511   4.628
 3779TIP3    H211344   1.110   5.561   4.485
 3780TIP3   OH211345   6.123   5.144   4.841
 3780TIP3    H111346   6.095   5.052   4.841
 3780TIP3    H211347   6.192   5.148   4.774
 3781TIP3   OH211348   1.058   5.438   2.978
 3781TIP3    H111349   0.987   5.376   2.996
 3781TIP3    H211350   1.019   5.500   2.915
 3782TIP3   OH211351   3.226   5.085   1.560
 3782TIP3    H111352   3.292   5.017   1.570
 3782TIP3    H211353   3.276   5.165   1.546
 3783TIP3   OH211354   4.201   0.177   2.867
 3783TIP3    H111355   4.267   0.133   2.814
 3783TIP3    H211356   4.249   0.239   2.921
 3784TIP3   OH211357   1.346   5.166   4.492
 3784TIP3    H111358   1.397   5.181   4.571
 3784TIP3    H211359   1.410   5.145   4.425
 3785TIP3   OH211360   2.785   5.887   3.156
 3785TIP3    H111361   2.706   5.912   3.204
 3785TIP3    H211362   2.849   5.867   3.224
 3786TIP3   OH211363   2.805   0.542   2.832
 3786TIP3    H111364   2.881   0.490   2.858
 3786TIP3    H211365   2.807   0.541   2.736
 3787TIP3   OH211366   1.053   3.994   0.340
 3787TIP3    H111367   1.117   3.930   0.372
 3787TIP3    H211368   1.076   4.008   0.249
 3788TIP3   OH211369   1.402   2.172   2.984
 3788TIP3    H111370   1.407   2.163   2.889
 3788TIP3    H211371   1.464   2.108   3.018
 3789TIP3   OH211372   4.602   3.592   3.502
 3789TIP3    H111373   4.690   3.557   3.512
 3789TIP3    H211374   4.544   3.517   3.516
 3790TIP3   OH211375   3.166   1.173   3.126
 3790TIP3    H111376   3.223   1.248   3.108
 3790TIP3    H211377   3.142   1.184   3.218
 3791TIP3   OH211378   1.769   1.786   4.525
 3791TIP3    H111379   1.802   1.874   4.509
 3791TIP3    H211380   1.679   1.799   4.556
 3792TIP3   OH211381   3.629   4.147   1.738
 3792TIP3    H111382   3.615   4.196   1.657
 3792TIP3    H211383   3.549   4.162   1.789
 3793TIP3   OH211384   5.214   0.555   4.871
 3793TIP3    H111385   5.153   0.629   4.878
 3793TIP3    H211386   5.231   0.529   4.961
 3794TIP3   OH211387   3.925   4.920   0.807
 3794TIP3    H111388   3.903   4.873   0.887
 3794TIP3    H211389   3.848   4.910   0.751
 3795TIP3   OH211390   3.034   0.739   0.610
 3795TIP3    H111391   3.075   0.661   0.573
 3795TIP3    H211392   3.090   0.812   0.581
 3796TIP3   OH211393   2.142   2.411   4.874
 3796TIP3    H111394   2.064   2.357   4.892
 3796TIP3    H211395   2.153   2.464   4.953
 3797TIP3   OH211396   1.554   4.348   4.482
 3797TIP3    H111397   1.512   4.398   4.551
 3797TIP3    H211398   1.482   4.315   4.428
 3798TIP3   OH211399   1.186   3.293   1.873
 3798TIP3    H111400   1.256   3.285   1.937
 3798TIP3    H211401   1.106   3.303   1.926
 3799TIP3   OH211402   2.353   2.907   3.461
 3799TIP3    H111403   2.298   2.861   3.524
 3799TIP3    H211404   2.306   2.900   3.378
 3800TIP3   OH211405   0.306   4.932   3.968
 3800TIP3    H111406   0.231   4.986   3.945
 3800TIP3    H211407   0.269   4.851   4.003
 3801TIP3   OH211408   5.431   4.028   4.700
 3801TIP3    H111409   5.453   4.070   4.617
 3801TIP3    H211410   5.407   3.938   4.677
 3802TIP3   OH211411   6.304   4.312   1.361
 3802TIP3    H111412   6.362   4.264   1.302
 3802TIP3    H211413   6.222   4.321   1.311
 3803TIP3   OH211414   0.548   0.394   1.886
 3803TIP3    H111415   0.456   0.404   1.912
 3803TIP3    H211416   0.595   0.457   1.940
 3804TIP3   OH211417   1.680   2.090   0.059
 3804TIP3    H111418   1.721   2.018   0.011
 3804TIP3    H211419   1.686   2.165  -0.001
 3805TIP3   OH211420   2.422   1.632   1.009
 3805TIP3    H111421   2.358   1.628   0.938
 3805TIP3    H211422   2.423   1.544   1.046
 3806TIP3   OH211423   2.907   0.195   2.798
 3806TIP3    H111424   2.818   0.174   2.770
 3806TIP3    H211425   2.953   0.219   2.717
 3807TIP3   OH211426   6.026   1.049   2.592
 3807TIP3    H111427   6.050   1.101   2.516
 3807TIP3    H211428   6.051   0.959   2.569
 3808TIP3   OH211429   5.180   5.385   1.901
 3808TIP3    H111430   5.227   5.469   1.904
 3808TIP3    H211431   5.102   5.404   1.849
 3809TIP3   OH211432   2.297   1.282   2.702
 3809TIP3    H111433   2.344   1.213   2.655
 3809TIP3    H211434   2.294   1.253   2.793
 3810TIP3   OH211435   4.376   5.699   1.767
 3810TIP3    H111436   4.334   5.701   1.681
 3810TIP3    H211437   4.306   5.677   1.828
 3811TIP3   OH211438   4.337   0.774   5.071
 3811TIP3    H111439   4.263   0.794   5.013
 3811TIP3    H211440   4.354   0.681   5.057
 3812TIP3   OH211441   1.182   0.479   2.265
 3812TIP3    H111442   1.194   0.437   2.180
 3812TIP3    H211443   1.111   0.430   2.306
 3813TIP3   OH211444   4.579   1.835   1.820
 3813TIP3    H111445   4.510   1.784   1.777
 3813TIP3    H211446   4.542   1.857   1.906
 3814TIP3   OH211447   6.095   1.636   4.424
 3814TIP3    H111448   6.172   1.683   4.457
 3814TIP3    H211449   6.118   1.544   4.429
 3815TIP3   OH211450   1.315   0.755   1.574
 3815TIP3    H111451   1.357   0.771   1.659
 3815TIP3    H211452   1.371   0.688   1.533
 3816TIP3   OH211453   3.224   3.066   2.993
 3816TIP3    H111454   3.202   3.153   3.026
 3816TIP3    H211455   3.308   3.045   3.034
 3817TIP3   OH211456   1.231   5.816   0.905
 3817TIP3    H111457   1.250   5.909   0.893
 3817TIP3    H211458   1.151   5.801   0.855
 3818TIP3   OH211459   0.588   1.858   2.322
 3818TIP3    H111460   0.641   1.886   2.248
 3818TIP3    H211461   0.502   1.898   2.307
 3819TIP3   OH211462   2.839   3.702   1.552
 3819TIP3    H111463   2.901   3.756   1.504
 3819TIP3    H211464   2.756   3.749   1.547
 3820TIP3   OH211465   1.633   5.173   2.114
 3820TIP3    H111466   1.599   5.085   2.129
 3820TIP3    H211467   1.677   5.168   2.029
 3821TIP3   OH211468   0.367   2.140   2.431
 3821TIP3    H111469   0.396   2.122   2.341
 3821TIP3    H211470   0.408   2.070   2.483
 3822TIP3   OH211471   5.158   3.722   0.837
 3822TIP3    H111472   5.141   3.696   0.928
 3822TIP3    H211473   5.214   3.653   0.802
 3823TIP3   OH211474   3.544   5.475   3.486
 3823TIP3    H111475   3.565   5.560   3.525
 3823TIP3    H211476   3.628   5.428   3.485
 3824TIP3   OH211477   4.178   3.612   1.775
 3824TIP3    H111478   4.261   3.640   1.813
 3824TIP3    H211479   4.199   3.590   1.684
 3825TIP3   OH211480   4.944   1.670   0.362
 3825TIP3    H111481   4.907   1.694   0.278
 3825TIP3    H211482   4.896   1.723   0.426
 3826TIP3   OH211483   4.717   3.425   4.558
 3826TIP3    H111484   4.714   3.336   4.593
 3826TIP3    H211485   4.673   3.419   4.473
 3827TIP3   OH211486   5.788   2.352   0.525
 3827TIP3    H111487   5.867   2.305   0.496
 3827TIP3    H211488   5.740   2.287   0.576
 3828TIP3   OH211489   1.519   1.197   4.269
 3828TIP3    H111490   1.492   1.126   4.327
 3828TIP3    H211491   1.459   1.191   4.194
 3829TIP3   OH211492   5.792   5.723   1.152
 3829TIP3    H111493   5.751   5.640   1.128
 3829TIP3    H211494   5.719   5.786   1.154
 3830TIP3   OH211495   2.006   5.339   1.936
 3830TIP3    H111496   2.060   5.350   1.858
 3830TIP3    H211497   1.925   5.387   1.916
 3831TIP3   OH211498   4.165   3.732   0.064
 3831TIP3    H111499   4.094   3.670   0.047
 3831TIP3    H211500   4.145   3.768   0.151
 3832TIP3   OH211501   6.015   0.435   1.511
 3832TIP3    H111502   6.099   0.389   1.509
 3832TIP3    H211503   5.976   0.416   1.425
 3833TIP3   OH211504   2.162   2.390   2.563
 3833TIP3    H111505   2.236   2.342   2.601
 3833TIP3    H211506   2.114   2.424   2.638
 3834TIP3   OH211507   0.856   5.151   2.768
 3834TIP3    H111508   0.823   5.220   2.826
 3834TIP3    H211509   0.780   5.126   2.715
 3835TIP3   OH211510   1.116   1.980   0.951
 3835TIP3    H111511   1.070   2.044   1.005
 3835TIP3    H211512   1.189   1.951   1.005
 3836TIP3   OH211513   2.485   5.098   5.117
 3836TIP3    H111514   2.446   5.171   5.164
 3836TIP3    H211515   2.543   5.056   5.180
 3837TIP3   OH211516   5.662   0.749   2.105
 3837TIP3    H111517   5.663   0.686   2.032
 3837TIP3    H211518   5.673   0.695   2.183
 3838TIP3   OH211519   3.173   2.091   2.723
 3838TIP3    H111520   3.247   2.148   2.704
 3838TIP3    H211521   3.098   2.151   2.728
 3839TIP3   OH211522   0.368   1.676   0.796
 3839TIP3    H111523   0.283   1.669   0.839
 3839TIP3    H211524   0.413   1.746   0.843
 3840TIP3   OH211525   3.972   2.954   1.890
 3840TIP3    H111526   3.956   3.020   1.958
 3840TIP3    H211527   4.023   2.886   1.934
 3841TIP3   OH211528   2.817   5.373   0.716
 3841TIP3    H111529   2.852   5.403   0.632
 3841TIP3    H211530   2.739   5.323   0.692
 3842TIP3   OH211531   1.449   4.321   1.978
 3842TIP3    H111532   1.521   4.315   1.916
 3842TIP3    H211533   1.428   4.229   1.999
 3843TIP3   OH211534   0.357   5.492   3.908
 3843TIP3    H111535   0.442   5.518   3.873
 3843TIP3    H211536   0.326   5.424   3.847
 3844TIP3   OH211537   1.631   5.375   1.483
 3844TIP3    H111538   1.602   5.315   1.414
 3844TIP3    H211539   1.583   5.456   1.467
 3845TIP3   OH211540   0.023   1.739   1.953
 3845TIP3    H111541   0.106   1.707   1.988
 3845TIP3    H211542   0.016   1.829   1.985
 3846TIP3   OH211543   1.870   3.630   3.555
 3846TIP3    H111544   1.791   3.594   3.516
 3846TIP3    H211545   1.848   3.722   3.572
 3847TIP3   OH211546   2.191   1.464   4.399
 3847TIP3    H111547   2.136   1.542   4.388
 3847TIP3    H211548   2.225   1.470   4.488
 3848TIP3   OH211549   1.380   4.161   3.383
 3848TIP3    H111550   1.291   4.145   3.351
 3848TIP3    H211551   1.382   4.119   3.469
 3849TIP3   OH211552   2.329   4.334   4.036
 3849TIP3    H111553   2.288   4.366   3.956
 3849TIP3    H211554   2.257   4.329   4.099
 3850TIP3   OH211555   3.316   1.366   4.392
 3850TIP3    H111556   3.225   1.395   4.400
 3850TIP3    H211557   3.313   1.272   4.409
 3851TIP3   OH211558   1.289   1.672   4.935
 3851TIP3    H111559   1.307   1.629   4.851
 3851TIP3    H211560   1.375   1.679   4.977
 3852TIP3   OH211561   0.877   3.184   1.075
 3852TIP3    H111562   0.861   3.236   0.996
 3852TIP3    H211563   0.973   3.185   1.085
 3853TIP3   OH211564   3.048   0.277   4.800
 3853TIP3    H111565   3.055   0.188   4.834
 3853TIP3    H211566   3.082   0.270   4.710
 3854TIP3   OH211567   4.916   4.493   2.990
 3854TIP3    H111568   4.915   4.416   3.047
 3854TIP3    H211569   4.829   4.496   2.952
 3855TIP3   OH211570   1.671   5.918   3.533
 3855TIP3    H111571   1.749   5.919   3.477
 3855TIP3    H211572   1.626   5.837   3.511
 3856TIP3   OH211573   1.015   5.309   3.845
 3856TIP3    H111574   1.059   5.245   3.788
 3856TIP3    H211575   0.935   5.265   3.873
 3857TIP3   OH211576   4.289   5.372   2.487
 3857TIP3    H111577   4.299   5.385   2.581
 3857TIP3    H211578   4.231   5.443   2.459
 3858TIP3   OH211579   0.863   0.706   5.064
 3858TIP3    H111580   0.794   0.639   5.057
 3858TIP3    H211581   0.931   0.664   5.117
 3859TIP3   OH211582   4.633   3.998   2.908
 3859TIP3    H111583   4.672   4.085   2.908
 3859TIP3    H211584   4.573   3.998   2.982
 3860TIP3   OH211585   2.380   0.986   2.207
 3860TIP3    H111586   2.345   0.969   2.120
 3860TIP3    H211587   2.361   1.079   2.223
 3861TIP3   OH211588   2.786   4.012   4.667
 3861TIP3    H111589   2.870   3.965   4.669
 3861TIP3    H211590   2.722   3.946   4.694
 3862TIP3   OH211591   1.986   1.345   1.732
 3862TIP3    H111592   2.005   1.255   1.707
 3862TIP3    H211593   2.072   1.384   1.747
 3863TIP3   OH211594   3.621   2.365   4.133
 3863TIP3    H111595   3.660   2.302   4.194
 3863TIP3    H211596   3.673   2.356   4.053
 3864TIP3   OH211597   0.520   4.864   2.866
 3864TIP3    H111598   0.544   4.776   2.896
 3864TIP3    H211599   0.574   4.923   2.919
 3865TIP3   OH211600   1.728   5.898   0.246
 3865TIP3    H111601   1.645   5.863   0.215
 3865TIP3    H211602   1.777   5.918   0.167
 3866TIP3   OH211603   1.316   0.337   2.829
 3866TIP3    H111604   1.235   0.323   2.878
 3866TIP3    H211605   1.377   0.272   2.865
 3867TIP3   OH211606   6.354   2.517   1.485
 3867TIP3    H111607   6.366   2.505   1.391
 3867TIP3    H211608   6.288   2.586   1.491
 3868TIP3   OH211609   6.083   4.303   4.315
 3868TIP3    H111610   5.994   4.277   4.341
 3868TIP3    H211611   6.129   4.220   4.302
 3869TIP3   OH211612   5.500   4.409   1.081
 3869TIP3    H111613   5.447   4.430   1.004
 3869TIP3    H211614   5.569   4.351   1.047
 3870TIP3   OH211615   5.259   4.785   3.449
 3870TIP3    H111616   5.242   4.738   3.530
 3870TIP3    H211617   5.173   4.812   3.418
 3871TIP3   OH211618   1.111   1.026   4.939
 3871TIP3    H111619   1.066   1.004   4.858
 3871TIP3    H211620   1.049   1.004   5.008
 3872TIP3   OH211621   4.600   3.036   0.547
 3872TIP3    H111622   4.594   3.120   0.503
 3872TIP3    H211623   4.676   2.993   0.506
 3873TIP3   OH211624   4.866   2.561   4.350
 3873TIP3    H111625   4.799   2.515   4.399
 3873TIP3    H211626   4.826   2.644   4.326
 3874TIP3   OH211627   1.702   2.792   0.456
 3874TIP3    H111628   1.621   2.743   0.439
 3874TIP3    H211629   1.725   2.769   0.546
 3875TIP3   OH211630   5.810   2.699   5.136
 3875TIP3    H111631   5.773   2.777   5.094
 3875TIP3    H211632   5.757   2.627   5.102
 3876TIP3   OH211633   5.343   4.738   3.786
 3876TIP3    H111634   5.263   4.790   3.788
 3876TIP3    H211635   5.318   4.654   3.824
 3877TIP3   OH211636   4.689   4.603   4.493
 3877TIP3    H111637   4.746   4.679   4.495
 3877TIP3    H211638   4.600   4.639   4.490
 3878TIP3   OH211639   4.446   0.697   3.070
 3878TIP3    H111640   4.515   0.673   3.132
 3878TIP3    H211641   4.424   0.787   3.092
 3879TIP3   OH211642   1.588   4.501   2.147
 3879TIP3    H111643   1.523   4.465   2.087
 3879TIP3    H211644   1.556   4.479   2.234
 3880TIP3   OH211645   1.609   3.821   0.917
 3880TIP3    H111646   1.656   3.773   0.849
 3880TIP3    H211647   1.627   3.772   0.997
 3881TIP3   OH211648   3.235   3.994   5.094
 3881TIP3    H111649   3.269   4.064   5.039
 3881TIP3    H211650   3.162   3.957   5.044
 3882TIP3   OH211651   5.827   3.327   3.036
 3882TIP3    H111652   5.776   3.319   2.955
 3882TIP3    H211653   5.907   3.371   3.010
 3883TIP3   OH211654   2.847   2.977   2.219
 3883TIP3    H111655   2.757   2.984   2.189
 3883TIP3    H211656   2.869   3.064   2.252
 3884TIP3   OH211657   1.319   1.899   3.642
 3884TIP3    H111658   1.230   1.898   3.606
 3884TIP3    H211659   1.362   1.823   3.602
 3885TIP3   OH211660   1.919   4.423   0.170
 3885TIP3    H111661   1.895   4.425   0.263
 3885TIP3    H211662   2.005   4.381   0.169
 3886TIP3   OH211663   5.892   1.777   4.209
 3886TIP3    H111664   5.845   1.854   4.242
 3886TIP3    H211665   5.859   1.705   4.262
 3887TIP3   OH211666   1.339   3.125   0.803
 3887TIP3    H111667   1.336   3.218   0.821
 3887TIP3    H211668   1.402   3.090   0.866
 3888TIP3   OH211669   0.463   3.788   3.879
 3888TIP3    H111670   0.464   3.730   3.804
 3888TIP3    H211671   0.384   3.764   3.927
 3889TIP3   OH211672   2.692   2.397   0.426
 3889TIP3    H111673   2.739   2.478   0.448
 3889TIP3    H211674   2.717   2.379   0.335
 3890TIP3   OH211675   2.971   5.343   4.968
 3890TIP3    H111676   3.002   5.433   4.978
 3890TIP3    H211677   2.887   5.341   5.013
 3891TIP3   OH211678   4.647   2.667   4.153
 3891TIP3    H111679   4.646   2.706   4.241
 3891TIP3    H211680   4.732   2.692   4.117
 3892TIP3   OH211681   4.675   3.522   1.669
 3892TIP3    H111682   4.759   3.563   1.648
 3892TIP3    H211683   4.697   3.455   1.734
 3893TIP3   OH211684   2.399   0.453   0.086
 3893TIP3    H111685   2.448   0.533   0.067
 3893TIP3    H211686   2.344   0.439   0.009
 3894TIP3   OH211687   5.429   4.570   5.161
 3894TIP3    H111688   5.379   4.583   5.080
 3894TIP3    H211689   5.395   4.635   5.222
 3895TIP3   OH211690   5.739   3.070   3.217
 3895TIP3    H111691   5.722   3.085   3.124
 3895TIP3    H211692   5.764   2.978   3.222
 3896TIP3   OH211693   2.247   4.563   0.505
 3896TIP3    H111694   2.152   4.561   0.510
 3896TIP3    H211695   2.266   4.610   0.424
 3897TIP3   OH211696   5.208   1.766   1.615
 3897TIP3    H111697   5.207   1.824   1.691
 3897TIP3    H211698   5.119   1.767   1.582
 3898TIP3   OH211699   0.837   1.866   4.503
 3898TIP3    H111700   0.845   1.938   4.566
 3898TIP3    H211701   0.877   1.791   4.548
 3899TIP3   OH211702   2.820   3.267   3.139
 3899TIP3    H111703   2.878   3.198   3.108
 3899TIP3    H211704   2.866   3.305   3.213
 3900TIP3   OH211705   4.670   0.816   0.391
 3900TIP3    H111706   4.602   0.848   0.450
 3900TIP3    H211707   4.622   0.777   0.318
 3901TIP3   OH211708   2.377   3.379   2.664
 3901TIP3    H111709   2.441   3.410   2.600
 3901TIP3    H211710   2.297   3.367   2.613
 3902TIP3   OH211711   6.284   5.319   1.332
 3902TIP3    H111712   6.242   5.403   1.314
 3902TIP3    H211713   6.376   5.341   1.346
 3903TIP3   OH211714   3.116   5.207   3.182
 3903TIP3    H111715   3.077   5.267   3.118
 3903TIP3    H211716   3.046   5.190   3.245
 3904TIP3   OH211717   0.078   0.016   2.685
 3904TIP3    H111718   0.166   0.030   2.721
 3904TIP3    H211719   0.032   0.098   2.702
 3905TIP3   OH211720   1.754   4.036   3.467
 3905TIP3    H111721   1.688   4.063   3.402
 3905TIP3    H211722   1.828   4.005   3.414
 3906TIP3   OH211723   4.395   0.373   2.953
 3906TIP3    H111724   4.407   0.456   2.907
 3906TIP3    H211725   4.470   0.366   3.011
 3907TIP3   OH211726   1.524   3.745   2.713
 3907TIP3    H111727   1.575   3.666   2.728
 3907TIP3    H211728   1.492   3.737   2.623
 3908TIP3   OH211729   0.123   3.555   3.706
 3908TIP3    H111730   0.031   3.543   3.682
 3908TIP3    H211731   0.122   3.613   3.782
 3909TIP3   OH211732   2.001   1.662   4.393
 3909TIP3    H111733   1.924   1.640   4.341
 3909TIP3    H211734   1.967   1.692   4.477
 3910TIP3   OH211735   1.822   0.523   4.189
 3910TIP3    H111736   1.837   0.606   4.145
 3910TIP3    H211737   1.798   0.462   4.120
 3911TIP3   OH211738   5.151   0.679   2.649
 3911TIP3    H111739   5.068   0.669   2.696
 3911TIP3    H211740   5.129   0.730   2.571
 3912TIP3   OH211741   5.977   0.890   3.604
 3912TIP3    H111742   6.060   0.853   3.573
 3912TIP3    H211743   5.927   0.814   3.633
 3913TIP3   OH211744   0.904   0.970   2.158
 3913TIP3    H111745   0.928   0.897   2.102
 3913TIP3    H211746   0.905   1.046   2.100
 3914TIP3   OH211747   4.760   2.963   2.381
 3914TIP3    H111748   4.730   2.927   2.298
 3914TIP3    H211749   4.698   2.929   2.446
 3915TIP3   OH211750   0.058   3.567   2.730
 3915TIP3    H111751   0.083   3.508   2.658
 3915TIP3    H211752   0.141   3.591   2.771
 3916TIP3   OH211753   5.841   2.484   2.188
 3916TIP3    H111754   5.834   2.459   2.096
 3916TIP3    H211755   5.916   2.434   2.221
 3917TIP3   OH211756   2.914   5.886   1.280
 3917TIP3    H111757   2.838   5.832   1.302
 3917TIP3    H211758   2.913   5.957   1.344
 3918TIP3   OH211759   5.329   1.756   0.734
 3918TIP3    H111760   5.358   1.723   0.819
 3918TIP3    H211761   5.249   1.805   0.754
 3919TIP3   OH211762   0.823   5.902   1.833
 3919TIP3    H111763   0.729   5.920   1.836
 3919TIP3    H211764   0.831   5.821   1.782
 3920TIP3   OH211765   6.169   0.720   3.509
 3920TIP3    H111766   6.255   0.741   3.472
 3920TIP3    H211767   6.187   0.656   3.577
 3921TIP3   OH211768   4.407   1.822   3.574
 3921TIP3    H111769   4.502   1.807   3.569
 3921TIP3    H211770   4.369   1.746   3.530
 3922TIP3   OH211771   4.290   3.675   5.094
 3922TIP3    H111772   4.260   3.585   5.108
 3922TIP3    H211773   4.383   3.667   5.072
 3923TIP3   OH211774   6.195   2.093   5.151
 3923TIP3    H111775   6.222   2.129   5.236
 3923TIP3    H211776   6.100   2.080   5.160
 3924TIP3   OH211777   4.367   5.081   2.698
 3924TIP3    H111778   4.461   5.098   2.688
 3924TIP3    H211779   4.347   5.105   2.788
 3925TIP3   OH211780   3.573   2.898   3.390
 3925TIP3    H111781   3.594   2.810   3.422
 3925TIP3    H211782   3.658   2.934   3.363
 3926TIP3   OH211783   4.371   3.794   4.687
 3926TIP3    H111784   4.385   3.767   4.778
 3926TIP3    H211785   4.458   3.789   4.647
 3927TIP3   OH211786   2.389   5.802   4.269
 3927TIP3    H111787   2.382   5.784   4.175
 3927TIP3    H211788   2.482   5.790   4.289
 3928TIP3   OH211789   4.937   1.484   0.962
 3928TIP3    H111790   4.900   1.496   0.875
 3928TIP3    H211791   4.931   1.571   1.002
 3929TIP3   OH211792   2.823   4.880   0.661
 3929TIP3    H111793   2.899   4.933   0.687
 3929TIP3    H211794   2.820   4.888   0.566
 3930TIP3   OH211795   6.172   5.557   1.303
 3930TIP3    H111796   6.080   5.532   1.306
 3930TIP3    H211797   6.177   5.638   1.353
 3931TIP3   OH211798   5.407   3.243   0.613
 3931TIP3    H111799   5.427   3.331   0.582
 3931TIP3    H211800   5.418   3.247   0.708
 3932TIP3   OH211801   2.241   5.759   0.992
 3932TIP3    H111802   2.287   5.707   1.058
 3932TIP3    H211803   2.254   5.711   0.910
 3933TIP3   OH211804   1.777   5.912   0.540
 3933TIP3    H111805   1.688   5.877   0.552
 3933TIP3    H211806   1.782   5.931   0.446
 3934TIP3   OH211807   4.377   2.680   2.240
 3934TIP3    H111808   4.355   2.599   2.195
 3934TIP3    H211809   4.320   2.682   2.317
 3935TIP3   OH211810   4.206   4.539   1.174
 3935TIP3    H111811   4.258   4.594   1.116
 3935TIP3    H211812   4.262   4.464   1.192
 3936TIP3   OH211813   0.651   0.406   0.586
 3936TIP3    H111814   0.604   0.464   0.526
 3936TIP3    H211815   0.688   0.338   0.530
 3937TIP3   OH211816   3.169   2.626   0.842
 3937TIP3    H111817   3.211   2.664   0.765
 3937TIP3    H211818   3.188   2.689   0.912
 3938TIP3   OH211819   3.303   2.286   1.373
 3938TIP3    H111820   3.282   2.226   1.444
 3938TIP3    H211821   3.382   2.249   1.333
 3939TIP3   OH211822   1.170   5.290   0.139
 3939TIP3    H111823   1.129   5.371   0.108
 3939TIP3    H211824   1.106   5.222   0.120
 3940TIP3   OH211825   5.681   1.071   4.105
 3940TIP3    H111826   5.773   1.044   4.103
 3940TIP3    H211827   5.676   1.145   4.045
 3941TIP3   OH211828   1.652   4.121   4.709
 3941TIP3    H111829   1.562   4.124   4.677
 3941TIP3    H211830   1.699   4.181   4.652
 3942TIP3   OH211831   2.821   1.970   1.115
 3942TIP3    H111832   2.767   1.894   1.092
 3942TIP3    H211833   2.836   2.015   1.032
 3943TIP3   OH211834   4.953   1.753   1.543
 3943TIP3    H111835   4.858   1.758   1.541
 3943TIP3    H211836   4.981   1.794   1.461
 3944TIP3   OH211837   0.956   1.243   0.255
 3944TIP3    H111838   1.034   1.247   0.311
 3944TIP3    H211839   0.974   1.304   0.184
 3945TIP3   OH211840   3.019   5.455   2.158
 3945TIP3    H111841   3.097   5.401   2.148
 3945TIP3    H211842   3.019   5.512   2.081
 3946TIP3   OH211843   2.764   1.895   3.287
 3946TIP3    H111844   2.703   1.969   3.291
 3946TIP3    H211845   2.826   1.910   3.358
 3947TIP3   OH211846   1.572   0.199   2.318
 3947TIP3    H111847   1.591   0.142   2.392
 3947TIP3    H211848   1.478   0.189   2.303
 3948TIP3   OH211849   6.253   0.675   1.184
 3948TIP3    H111850   6.212   0.760   1.171
 3948TIP3    H211851   6.288   0.679   1.273
 3949TIP3   OH211852   0.251   0.685   4.097
 3949TIP3    H111853   0.271   0.775   4.123
 3949TIP3    H211854   0.299   0.630   4.159
 3950TIP3   OH211855   1.570   0.830   2.754
 3950TIP3    H111856   1.527   0.814   2.670
 3950TIP3    H211857   1.544   0.919   2.778
 3951TIP3   OH211858   3.622   3.670   1.122
 3951TIP3    H111859   3.547   3.614   1.104
 3951TIP3    H211860   3.651   3.699   1.035
 3952TIP3   OH211861   3.887   0.494   0.069
 3952TIP3    H111862   3.956   0.526   0.011
 3952TIP3    H211863   3.907   0.402   0.083
 3953TIP3   OH211864   1.564   5.830   1.138
 3953TIP3    H111865   1.650   5.867   1.154
 3953TIP3    H211866   1.575   5.736   1.152
 3954TIP3   OH211867   4.995   4.473   3.687
 3954TIP3    H111868   4.949   4.465   3.770
 3954TIP3    H211869   4.968   4.558   3.653
 3955TIP3   OH211870   4.564   4.823   2.179
 3955TIP3    H111871   4.538   4.910   2.209
 3955TIP3    H211872   4.589   4.836   2.088
 3956TIP3   OH211873   4.382   3.494   2.431
 3956TIP3    H111874   4.343   3.490   2.519
 3956TIP3    H211875   4.323   3.552   2.382
 3957TIP3   OH211876   2.886   2.231   2.409
 3957TIP3    H111877   2.916   2.278   2.487
 3957TIP3    H211878   2.955   2.168   2.391
 3958TIP3   OH211879   3.654   0.554   3.559
 3958TIP3    H111880   3.647   0.540   3.654
 3958TIP3    H211881   3.645   0.467   3.521
 3959TIP3   OH211882   2.902   5.900   1.014
 3959TIP3    H111883   2.891   5.886   1.108
 3959TIP3    H211884   2.958   5.977   1.007
 3960TIP3   OH211885   2.127   0.078   0.548
 3960TIP3    H111886   2.188   0.010   0.519
 3960TIP3    H211887   2.106   0.056   0.639
 3961TIP3   OH211888   1.833   4.707   4.756
 3961TIP3    H111889   1.913   4.658   4.778
 3961TIP3    H211890   1.764   4.663   4.805
 3962TIP3   OH211891   1.415   5.071   2.653
 3962TIP3    H111892   1.432   4.977   2.646
 3962TIP3    H211893   1.437   5.093   2.744
 3963TIP3   OH211894   5.688   0.933   3.669
 3963TIP3    H111895   5.600   0.947   3.636
 3963TIP3    H211896   5.720   0.857   3.621
 3964TIP3   OH211897   3.840   2.224   5.017
 3964TIP3    H111898   3.817   2.256   5.104
 3964TIP3    H211899   3.915   2.277   4.991
 3965TIP3   OH211900   4.285   4.003   0.580
 3965TIP3    H111901   4.260   3.939   0.513
 3965TIP3    H211902   4.376   3.984   0.599
 3966TIP3   OH211903   0.074   4.059   1.866
 3966TIP3    H111904   0.128   4.110   1.926
 3966TIP3    H211905   0.005   4.022   1.920
 3967TIP3   OH211906   0.137   3.332   2.616
 3967TIP3    H111907   0.067   3.285   2.661
 3967TIP3    H211908   0.209   3.270   2.610
 3968TIP3   OH211909   0.481   4.450   0.955
 3968TIP3    H111910   0.514   4.531   0.995
 3968TIP3    H211911   0.559   4.396   0.943
 3969TIP3   OH211912   4.656   0.483   3.688
 3969TIP3    H111913   4.593   0.481   3.615
 3969TIP3    H211914   4.717   0.412   3.667
 3970TIP3   OH211915   4.614   2.723   4.418
 3970TIP3    H111916   4.594   2.713   4.511
 3970TIP3    H211917   4.586   2.812   4.396
 3971TIP3   OH211918   4.460   3.220   0.999
 3971TIP3    H111919   4.487   3.224   0.907
 3971TIP3    H211920   4.467   3.127   1.022
 3972TIP3   OH211921   3.107   1.436   1.529
 3972TIP3    H111922   3.089   1.343   1.517
 3972TIP3    H211923   3.028   1.471   1.569
 3973TIP3   OH211924   5.634   5.838   3.854
 3973TIP3    H111925   5.665   5.910   3.909
 3973TIP3    H211926   5.547   5.864   3.827
 3974TIP3   OH211927   3.137   1.725   5.034
 3974TIP3    H111928   3.097   1.647   5.073
 3974TIP3    H211929   3.209   1.746   5.093
 3975TIP3   OH211930   0.201   4.492   2.082
 3975TIP3    H111931   0.170   4.526   2.165
 3975TIP3    H211932   0.122   4.469   2.034
 3976TIP3   OH211933   4.385   2.500   2.888
 3976TIP3    H111934   4.372   2.467   2.799
 3976TIP3    H211935   4.376   2.595   2.880
 3977TIP3   OH211936   5.640   0.820   1.655
 3977TIP3    H111937   5.667   0.864   1.736
 3977TIP3    H211938   5.609   0.890   1.599
 3978TIP3   OH211939   5.387   4.073   1.657
 3978TIP3    H111940   5.374   4.137   1.726
 3978TIP3    H211941   5.395   4.125   1.577
 3979TIP3   OH211942   1.456   1.925   3.901
 3979TIP3    H111943   1.501   2.001   3.938
 3979TIP3    H211944   1.418   1.957   3.819
 3980TIP3   OH211945   4.107   5.641   4.758
 3980TIP3    H111946   4.150   5.709   4.705
 3980TIP3    H211947   4.056   5.690   4.822
 3981TIP3   OH211948   4.623   3.884   4.179
 3981TIP3    H111949   4.693   3.888   4.114
 3981TIP3    H211950   4.558   3.825   4.141
 3982TIP3   OH211951   2.633   1.506   2.615
 3982TIP3    H111952   2.554   1.460   2.586
 3982TIP3    H211953   2.618   1.520   2.709
 3983TIP3   OH211954   2.444   5.715   4.644
 3983TIP3    H111955   2.481   5.788   4.594
 3983TIP3    H211956   2.350   5.734   4.648
 3984TIP3   OH211957   0.874   1.574   2.370
 3984TIP3    H111958   0.850   1.649   2.314
 3984TIP3    H211959   0.906   1.614   2.451
 3985TIP3   OH211960   5.387   3.296   0.895
 3985TIP3    H111961   5.356   3.214   0.935
 3985TIP3    H211962   5.470   3.315   0.939
 3986TIP3   OH211963   1.773   4.821   3.640
 3986TIP3    H111964   1.835   4.869   3.694
 3986TIP3    H211965   1.819   4.810   3.556
 3987TIP3   OH211966   5.038   5.564   3.994
 3987TIP3    H111967   5.106   5.601   4.051
 3987TIP3    H211968   5.083   5.549   3.910
 3988TIP3   OH211969   5.616  -0.002   2.928
 3988TIP3    H111970   5.562   0.040   2.861
 3988TIP3    H211971   5.566   0.010   3.009
 3989TIP3   OH211972   4.579   1.305   4.358
 3989TIP3    H111973   4.554   1.234   4.300
 3989TIP3    H211974   4.648   1.351   4.311
 3990TIP3   OH211975   2.043   2.743   2.209
 3990TIP3    H111976   2.063   2.665   2.158
 3990TIP3    H211977   2.095   2.733   2.289
 3991TIP3   OH211978   2.233   4.426   2.944
 3991TIP3    H111979   2.178   4.494   2.904
 3991TIP3    H211980   2.196   4.344   2.911
 3992TIP3   OH211981   4.351   5.185   1.024
 3992TIP3    H111982   4.325   5.130   0.951
 3992TIP3    H211983   4.446   5.182   1.024
 3993TIP3   OH211984   0.156   3.453   3.015
 3993TIP3    H111985   0.115   3.419   2.935
 3993TIP3    H211986   0.139   3.548   3.012
 3994TIP3   OH211987   5.767   2.220   2.665
 3994TIP3    H111988   5.836   2.269   2.620
 3994TIP3    H211989   5.686   2.249   2.623
 3995TIP3   OH211990   0.541   4.437   4.235
 3995TIP3    H111991   0.577   4.353   4.264
 3995TIP3    H211992   0.449   4.434   4.262
 3996TIP3   OH211993   3.174   2.027   0.637
 3996TIP3    H111994   3.221   1.949   0.608
 3996TIP3    H211995   3.155   2.009   0.730
 3997TIP3   OH211996   1.890   0.707   0.956
 3997TIP3    H111997   1.970   0.687   0.908
 3997TIP3    H211998   1.845   0.623   0.964
 3998TIP3   OH211999   2.725   0.239   3.534
 3998TIP3    H112000   2.736   0.196   3.449
 3998TIP3    H212001   2.702   0.169   3.594
 3999TIP3   OH212002   5.700   4.199   2.893
 3999TIP3    H112003   5.736   4.254   2.962
 3999TIP3    H212004   5.642   4.257   2.844
 4000TIP3   OH212005   3.824   2.732   0.416
 4000TIP3    H112006   3.759   2.801   0.407
 4000TIP3    H212007   3.778   2.660   0.460
 4001TIP3   OH212008   0.693   5.704   5.033
 4001TIP3    H112009   0.637   5.683   5.107
 4001TIP3    H212010   0.720   5.619   4.998
 4002TIP3   OH212011   1.895   3.916   1.439
 4002TIP3    H112012   1.911   3.830   1.478
 4002TIP3    H212013   1.971   3.968   1.464
 4003TIP3   OH212014   0.787   2.894   3.945
 4003TIP3    H112015   0.843   2.850   4.008
 4003TIP3    H212016   0.699   2.886   3.982
 4004TIP3   OH212017   4.907   1.528   0.693
 4004TIP3    H112018   4.893   1.613   0.651
 4004TIP3    H212019   4.826   1.479   0.674
 4005TIP3   OH212020   1.043   0.869   1.192
 4005TIP3    H112021   1.096   0.947   1.206
 4005TIP3    H212022   0.962   0.886   1.241
 4006TIP3   OH212023   1.422   5.861   5.134
 4006TIP3    H112024   1.377   5.938   5.171
 4006TIP3    H212025   1.352   5.808   5.096
 4007TIP3   OH212026   3.938   3.545   0.116
 4007TIP3    H112027   3.849   3.521   0.141
 4007TIP3    H212028   3.976   3.465   0.081
 4008TIP3   OH212029   5.502   4.493   2.458
 4008TIP3    H112030   5.444   4.445   2.399
 4008TIP3    H212031   5.473   4.584   2.451
 4009TIP3   OH212032   2.945   2.546   5.103
 4009TIP3    H112033   2.993   2.502   5.033
 4009TIP3    H212034   2.996   2.528   5.182
 4010TIP3   OH212035   0.518   4.251   3.150
 4010TIP3    H112036   0.447   4.253   3.214
 4010TIP3    H212037   0.517   4.338   3.110
 4011TIP3   OH212038   6.009   4.794   4.271
 4011TIP3    H112039   6.032   4.853   4.199
 4011TIP3    H212040   5.945   4.733   4.233
 4012TIP3   OH212041   2.281   2.800   0.674
 4012TIP3    H112042   2.259   2.736   0.741
 4012TIP3    H212043   2.239   2.768   0.594
 4013TIP3   OH212044   2.842   1.232   3.628
 4013TIP3    H112045   2.791   1.265   3.553
 4013TIP3    H212046   2.776   1.210   3.694
 4014TIP3   OH212047   5.366   0.829   4.878
 4014TIP3    H112048   5.359   0.858   4.787
 4014TIP3    H212049   5.293   0.768   4.890
 4015TIP3   OH212050   5.815   5.197   4.956
 4015TIP3    H112051   5.769   5.138   4.895
 4015TIP3    H212052   5.879   5.140   5.000
 4016TIP3   OH212053   0.471   2.442   4.137
 4016TIP3    H112054   0.383   2.444   4.098
 4016TIP3    H212055   0.501   2.353   4.122
 4017TIP3   OH212056   5.068   3.361   0.803
 4017TIP3    H112057   5.155   3.328   0.825
 4017TIP3    H212058   5.010   3.285   0.814
 4018TIP3   OH212059   6.260   2.591   4.444
 4018TIP3    H112060   6.165   2.583   4.456
 4018TIP3    H212061   6.295   2.504   4.466
 4019TIP3   OH212062   5.781   4.158   4.393
 4019TIP3    H112063   5.765   4.182   4.302
 4019TIP3    H212064   5.694   4.141   4.429
 4020TIP3   OH212065   1.281   1.470   2.999
 4020TIP3    H112066   1.232   1.535   2.949
 4020TIP3    H212067   1.373   1.495   2.987
 4021TIP3   OH212068   4.061   3.052   2.139
 4021TIP3    H112069   4.050   3.092   2.225
 4021TIP3    H212070   4.081   3.125   2.081
 4022TIP3   OH212071   4.262   0.575   4.295
 4022TIP3    H112072   4.211   0.495   4.305
 4022TIP3    H212073   4.197   0.645   4.288
 4023TIP3   OH212074   3.641   2.167   1.158
 4023TIP3    H112075   3.718   2.113   1.144
 4023TIP3    H212076   3.667   2.255   1.129
 4024TIP3   OH212077   4.398   2.752   1.245
 4024TIP3    H112078   4.487   2.769   1.217
 4024TIP3    H212079   4.353   2.837   1.236
 4025TIP3   OH212080   2.442   3.940   3.641
 4025TIP3    H112081   2.459   4.010   3.578
 4025TIP3    H212082   2.390   3.982   3.710
 4026TIP3   OH212083   2.722   4.984   2.204
 4026TIP3    H112084   2.672   4.996   2.123
 4026TIP3    H212085   2.708   4.892   2.227
 4027TIP3   OH212086   5.799   1.689   2.491
 4027TIP3    H112087   5.820   1.689   2.397
 4027TIP3    H212088   5.843   1.612   2.525
 4028TIP3   OH212089   0.675   4.253   0.520
 4028TIP3    H112090   0.722   4.199   0.456
 4028TIP3    H212091   0.700   4.343   0.499
 4029TIP3   OH212092   0.862   2.622   1.775
 4029TIP3    H112093   0.922   2.561   1.818
 4029TIP3    H212094   0.914   2.663   1.707
 4030TIP3   OH212095   1.037   3.574   3.792
 4030TIP3    H112096   1.087   3.541   3.867
 4030TIP3    H212097   1.086   3.651   3.762
 4031TIP3   OH212098   2.096   4.293   2.235
 4031TIP3    H112099   2.150   4.345   2.294
 4031TIP3    H212100   2.029   4.354   2.203
 4032TIP3   OH212101   2.496   3.537   2.424
 4032TIP3    H112102   2.469   3.627   2.438
 4032TIP3    H212103   2.570   3.543   2.364
 4033TIP3   OH212104   3.559   5.664   4.499
 4033TIP3    H112105   3.568   5.699   4.587
 4033TIP3    H212106   3.515   5.580   4.510
 4034TIP3   OH212107   2.972   1.559   0.697
 4034TIP3    H112108   2.896   1.611   0.724
 4034TIP3    H212109   3.048   1.610   0.724
 4035TIP3   OH212110   0.736   4.441   2.452
 4035TIP3    H112111   0.771   4.364   2.407
 4035TIP3    H212112   0.713   4.501   2.381
 4036TIP3   OH212113   0.039   0.220   2.126
 4036TIP3    H112114  -0.038   0.278   2.126
 4036TIP3    H212115   0.069   0.221   2.216
 4037TIP3   OH212116   4.089   0.882   4.920
 4037TIP3    H112117   4.090   0.880   4.825
 4037TIP3    H212118   3.998   0.901   4.943
 4038TIP3   OH212119   0.790   3.449   3.012
 4038TIP3    H112120   0.822   3.375   3.064
 4038TIP3    H212121   0.718   3.412   2.960
 4039TIP3   OH212122   0.130   0.259   1.210
 4039TIP3    H112123   0.108   0.335   1.155
 4039TIP3    H212124   0.172   0.297   1.287
 4040TIP3   OH212125   2.753   3.894   2.208
 4040TIP3    H112126   2.733   3.952   2.135
 4040TIP3    H212127   2.702   3.929   2.282
 4041TIP3   OH212128   5.342   0.864   2.813
 4041TIP3    H112129   5.313   0.824   2.731
 4041TIP3    H212130   5.357   0.790   2.872
 4042TIP3   OH212131   5.783   4.656   0.852
 4042TIP3    H112132   5.724   4.659   0.777
 4042TIP3    H212133   5.811   4.564   0.856
 4043TIP3   OH212134   1.032   5.120   4.495
 4043TIP3    H112135   1.014   5.095   4.404
 4043TIP3    H212136   1.126   5.111   4.504
 4044TIP3   OH212137   3.894   2.737   4.863
 4044TIP3    H112138   3.955   2.782   4.921
 4044TIP3    H212139   3.821   2.711   4.919
 4045TIP3   OH212140   3.922   5.254   1.432
 4045TIP3    H112141   3.996   5.242   1.374
 4045TIP3    H212142   3.926   5.179   1.491
 4046TIP3   OH212143   3.243   2.778   2.980
 4046TIP3    H112144   3.332   2.782   3.013
 4046TIP3    H212145   3.193   2.836   3.039
 4047TIP3   OH212146   1.922   0.466   2.500
 4047TIP3    H112147   1.915   0.379   2.459
 4047TIP3    H212148   1.884   0.454   2.587
 4048TIP3   OH212149   5.889   4.836   2.488
 4048TIP3    H112150   5.952   4.906   2.469
 4048TIP3    H212151   5.891   4.826   2.583
 4049TIP3   OH212152   1.926   5.809   3.642
 4049TIP3    H112153   1.945   5.719   3.667
 4049TIP3    H212154   1.904   5.803   3.549
 4050TIP3   OH212155   5.290   2.942   0.006
 4050TIP3    H112156   5.351   2.987   0.064
 4050TIP3    H212157   5.226   2.901   0.065
 4051TIP3   OH212158   0.328   3.311   2.179
 4051TIP3    H112159   0.342   3.272   2.265
 4051TIP3    H212160   0.364   3.399   2.187
 4052TIP3   OH212161   3.973   4.575   0.694
 4052TIP3    H112162   3.967   4.607   0.604
 4052TIP3    H212163   3.888   4.598   0.733
 4053TIP3   OH212164   3.942   3.761   4.288
 4053TIP3    H112165   3.892   3.684   4.261
 4053TIP3    H212166   3.919   3.773   4.380
 4054TIP3   OH212167   2.757   3.381   4.594
 4054TIP3    H112168   2.812   3.449   4.634
 4054TIP3    H212169   2.818   3.330   4.541
 4055TIP3   OH212170   4.921   1.196   2.479
 4055TIP3    H112171   5.012   1.185   2.505
 4055TIP3    H212172   4.891   1.273   2.528
 4056TIP3   OH212173   4.816   1.086   1.989
 4056TIP3    H112174   4.785   1.016   1.931
 4056TIP3    H212175   4.911   1.072   1.994
 4057TIP3   OH212176   5.506   1.897   4.909
 4057TIP3    H112177   5.483   1.815   4.865
 4057TIP3    H212178   5.422   1.942   4.919
 4058TIP3   OH212179   1.204   3.637   3.432
 4058TIP3    H112180   1.231   3.684   3.511
 4058TIP3    H212181   1.267   3.566   3.423
 4059TIP3   OH212182   0.562   4.803   0.380
 4059TIP3    H112183   0.517   4.786   0.297
 4059TIP3    H212184   0.567   4.898   0.385
 4060TIP3   OH212185   4.690   3.642   2.587
 4060TIP3    H112186   4.643   3.714   2.629
 4060TIP3    H212187   4.710   3.581   2.658
 4061TIP3   OH212188   5.024   2.600   3.654
 4061TIP3    H112189   5.113   2.635   3.646
 4061TIP3    H212190   4.998   2.579   3.564
 4062TIP3   OH212191   6.270   2.885   4.088
 4062TIP3    H112192   6.264   2.902   4.183
 4062TIP3    H212193   6.179   2.873   4.061
 4063TIP3   OH212194   4.517   5.303   0.158
 4063TIP3    H112195   4.591   5.246   0.138
 4063TIP3    H212196   4.558   5.384   0.189
 4064TIP3   OH212197   3.674   2.536   3.851
 4064TIP3    H112198   3.746   2.489   3.810
 4064TIP3    H212199   3.706   2.559   3.938
 4065TIP3   OH212200   4.443   0.796   1.966
 4065TIP3    H112201   4.462   0.814   2.058
 4065TIP3    H212202   4.364   0.742   1.967
 4066TIP3   OH212203   2.056   1.334   4.213
 4066TIP3    H112204   2.109   1.365   4.286
 4066TIP3    H212205   1.966   1.335   4.247
 4067TIP3   OH212206   1.634   3.610   3.148
 4067TIP3    H112207   1.727   3.602   3.169
 4067TIP3    H212208   1.589   3.580   3.227
 4068TIP3   OH212209   4.523   4.090   2.228
 4068TIP3    H112210   4.457   4.130   2.285
 4068TIP3    H212211   4.477   4.072   2.146
 4069TIP3   OH212212   2.513   4.090   4.957
 4069TIP3    H112213   2.436   4.096   4.902
 4069TIP3    H212214   2.540   4.180   4.972
 4070TIP3   OH212215   0.405   2.954   0.499
 4070TIP3    H112216   0.368   2.882   0.448
 4070TIP3    H212217   0.352   3.029   0.477
 4071TIP3   OH212218   0.475   1.550   2.970
 4071TIP3    H112219   0.436   1.623   3.018
 4071TIP3    H212220   0.565   1.544   3.003
 4072TIP3   OH212221   2.128   4.726   0.894
 4072TIP3    H112222   2.200   4.705   0.834
 4072TIP3    H212223   2.170   4.758   0.973
 4073TIP3   OH212224   4.049   1.965   3.127
 4073TIP3    H112225   4.134   1.951   3.169
 4073TIP3    H212226   4.031   2.059   3.139
 4074TIP3   OH212227   0.991   4.702   1.755
 4074TIP3    H112228   0.997   4.670   1.845
 4074TIP3    H212229   0.923   4.648   1.714
 4075TIP3   OH212230   2.267   2.572   1.430
 4075TIP3    H112231   2.199   2.569   1.498
 4075TIP3    H212232   2.236   2.638   1.368
 4076TIP3   OH212233   4.451   5.067   0.423
 4076TIP3    H112234   4.533   5.116   0.419
 4076TIP3    H212235   4.437   5.036   0.334
 4077TIP3   OH212236   4.927   2.428   4.106
 4077TIP3    H112237   4.870   2.474   4.045
 4077TIP3    H212238   4.907   2.466   4.191
 4078TIP3   OH212239   0.244   2.209   2.854
 4078TIP3    H112240   0.180   2.169   2.795
 4078TIP3    H212241   0.257   2.143   2.923
 4079TIP3   OH212242   5.434   4.807   1.461
 4079TIP3    H112243   5.449   4.773   1.372
 4079TIP3    H212244   5.477   4.743   1.518
 4080TIP3   OH212245   2.028   2.058   1.406
 4080TIP3    H112246   1.944   2.013   1.411
 4080TIP3    H212247   2.093   1.990   1.424
 4081TIP3   OH212248   2.841   4.566   3.003
 4081TIP3    H112249   2.922   4.590   2.958
 4081TIP3    H212250   2.855   4.593   3.093
 4082TIP3   OH212251   1.501   5.327   1.735
 4082TIP3    H112252   1.431   5.264   1.747
 4082TIP3    H212253   1.524   5.321   1.643
 4083TIP3   OH212254   3.507   2.188   2.100
 4083TIP3    H112255   3.596   2.152   2.096
 4083TIP3    H212256   3.500   2.223   2.189
 4084TIP3   OH212257   6.050   2.305   2.268
 4084TIP3    H112258   6.075   2.221   2.229
 4084TIP3    H212259   6.134   2.349   2.284
 4085TIP3   OH212260   2.292   0.606   0.375
 4085TIP3    H112261   2.239   0.682   0.400
 4085TIP3    H212262   2.369   0.644   0.333
 4086TIP3   OH212263   5.970   5.457   0.473
 4086TIP3    H112264   5.997   5.373   0.510
 4086TIP3    H212265   6.007   5.522   0.532
 4087TIP3   OH212266   3.345   2.655   3.494
 4087TIP3    H112267   3.306   2.636   3.579
 4087TIP3    H212268   3.308   2.739   3.469
 4088TIP3   OH212269   6.049   0.209   5.139
 4088TIP3    H112270   6.069   0.130   5.088
 4088TIP3    H212271   6.024   0.274   5.074
 4089TIP3   OH212272   0.096   2.743   4.243
 4089TIP3    H112273   0.073   2.724   4.152
 4089TIP3    H212274   0.037   2.688   4.295
 4090TIP3   OH212275   4.704   4.966   2.549
 4090TIP3    H112276   4.678   5.047   2.505
 4090TIP3    H212277   4.667   4.973   2.637
 4091TIP3   OH212278   0.276   1.110   1.404
 4091TIP3    H112279   0.182   1.121   1.391
 4091TIP3    H212280   0.305   1.195   1.439
 4092TIP3   OH212281   5.540   1.250   2.755
 4092TIP3    H112282   5.620   1.244   2.808
 4092TIP3    H212283   5.495   1.167   2.769
 4093TIP3   OH212284   0.716   3.041   4.514
 4093TIP3    H112285   0.696   3.131   4.541
 4093TIP3    H212286   0.649   3.020   4.449
 4094TIP3   OH212287   1.982   0.554   2.228
 4094TIP3    H112288   2.008   0.557   2.319
 4094TIP3    H212289   1.904   0.498   2.228
 4095TIP3   OH212290   2.934   4.066   3.296
 4095TIP3    H112291   2.942   4.135   3.362
 4095TIP3    H212292   3.000   4.088   3.230
 4096TIP3   OH212293   4.607   2.473   2.132
 4096TIP3    H112294   4.546   2.410   2.169
 4096TIP3    H212295   4.631   2.530   2.205
 4097TIP3   OH212296   0.345   3.990   2.015
 4097TIP3    H112297   0.286   4.062   2.037
 4097TIP3    H212298   0.430   4.032   2.000
 4098TIP3   OH212299   5.223   2.874   3.253
 4098TIP3    H112300   5.136   2.895   3.219
 4098TIP3    H212301   5.208   2.847   3.344
 4099TIP3   OH212302   2.579   3.033   0.006
 4099TIP3    H112303   2.564   3.126   0.022
 4099TIP3    H212304   2.505   2.989   0.049
 4100TIP3   OH212305   6.136   4.223   1.870
 4100TIP3    H112306   6.125   4.145   1.816
 4100TIP3    H212307   6.047   4.257   1.882
 4101TIP3   OH212308   2.595   4.546   3.411
 4101TIP3    H112309   2.579   4.593   3.330
 4101TIP3    H212310   2.634   4.463   3.383
 4102TIP3   OH212311   0.339   3.142   2.408
 4102TIP3    H112312   0.381   3.174   2.488
 4102TIP3    H212313   0.343   3.047   2.416
 4103TIP3   OH212314   3.140   2.908   1.659
 4103TIP3    H112315   3.140   2.815   1.636
 4103TIP3    H212316   3.232   2.933   1.660
 4104TIP3   OH212317   5.355   2.914   3.525
 4104TIP3    H112318   5.330   2.998   3.564
 4104TIP3    H212319   5.441   2.930   3.487
 4105TIP3   OH212320   3.069   3.403   2.469
 4105TIP3    H112321   3.062   3.470   2.401
 4105TIP3    H212322   3.054   3.450   2.551
 4106TIP3   OH212323   4.982   4.486   1.443
 4106TIP3    H112324   5.022   4.454   1.362
 4106TIP3    H212325   5.042   4.552   1.476
 4107TIP3   OH212326   1.938   0.746   2.041
 4107TIP3    H112327   1.848   0.713   2.035
 4107TIP3    H212328   1.984   0.678   2.090
 4108TIP3   OH212329   5.428   3.071   3.190
 4108TIP3    H112330   5.494   3.084   3.258
 4108TIP3    H212331   5.371   3.003   3.225
 4109TIP3   OH212332   5.168   4.694   4.461
 4109TIP3    H112333   5.263   4.692   4.454
 4109TIP3    H212334   5.150   4.668   4.552
 4110TIP3   OH212335   5.438   5.359   3.998
 4110TIP3    H112336   5.429   5.426   4.065
 4110TIP3    H212337   5.499   5.295   4.035
 4111TIP3   OH212338   0.093   1.042   4.186
 4111TIP3    H112339   0.142   1.104   4.239
 4111TIP3    H212340   0.010   1.086   4.168
 4112TIP3   OH212341   5.249   4.984   4.354
 4112TIP3    H112342   5.257   5.055   4.418
 4112TIP3    H212343   5.251   4.904   4.407
 4113TIP3   OH212344   0.729   2.100   1.870
 4113TIP3    H112345   0.655   2.125   1.814
 4113TIP3    H212346   0.758   2.016   1.835
 4114TIP3   OH212347   2.545   1.630   2.969
 4114TIP3    H112348   2.473   1.630   3.031
 4114TIP3    H212349   2.507   1.664   2.888
 4115TIP3   OH212350   5.052   4.329   2.173
 4115TIP3    H112351   4.991   4.400   2.152
 4115TIP3    H212352   5.047   4.270   2.097
 4116TIP3   OH212353   1.661   2.161   4.738
 4116TIP3    H112354   1.662   2.122   4.825
 4116TIP3    H212355   1.723   2.109   4.688
 4117TIP3   OH212356   3.101   3.809   2.875
 4117TIP3    H112357   3.124   3.832   2.784
 4117TIP3    H212358   3.145   3.726   2.891
 4118TIP3   OH212359   0.530   2.679   2.325
 4118TIP3    H112360   0.478   2.658   2.248
 4118TIP3    H212361   0.597   2.610   2.328
 4119TIP3   OH212362   1.236   5.392   3.469
 4119TIP3    H112363   1.310   5.354   3.422
 4119TIP3    H212364   1.204   5.322   3.526
 4120TIP3   OH212365   2.466   3.720   4.343
 4120TIP3    H112366   2.380   3.750   4.373
 4120TIP3    H212367   2.447   3.644   4.288
 4121TIP3   OH212368   1.772   0.631   0.620
 4121TIP3    H112369   1.711   0.590   0.559
 4121TIP3    H212370   1.745   0.599   0.706
 4122TIP3   OH212371   3.737   5.200   2.590
 4122TIP3    H112372   3.804   5.170   2.651
 4122TIP3    H212373   3.783   5.209   2.506
 4123TIP3   OH212374   6.153   1.979   0.835
 4123TIP3    H112375   6.094   1.946   0.767
 4123TIP3    H212376   6.197   1.901   0.868
 4124TIP3   OH212377   4.942   0.462   1.265
 4124TIP3    H112378   4.870   0.402   1.281
 4124TIP3    H212379   4.903   0.535   1.218
 4125TIP3   OH212380   5.621   1.272   3.888
 4125TIP3    H112381   5.546   1.252   3.833
 4125TIP3    H212382   5.602   1.360   3.923
 4126TIP3   OH212383   5.865   0.835   3.895
 4126TIP3    H112384   5.799   0.865   3.832
 4126TIP3    H212385   5.840   0.745   3.916
 4127TIP3   OH212386   6.046   1.549   4.934
 4127TIP3    H112387   6.088   1.577   5.015
 4127TIP3    H212388   6.013   1.461   4.954
 4128TIP3   OH212389   2.466   0.843   1.350
 4128TIP3    H112390   2.478   0.788   1.272
 4128TIP3    H212391   2.374   0.831   1.374
 4129TIP3   OH212392   0.997   1.196   2.604
 4129TIP3    H112393   1.002   1.131   2.533
 4129TIP3    H212394   0.940   1.155   2.669
 4130TIP3   OH212395   4.498   5.676   0.122
 4130TIP3    H112396   4.462   5.613   0.184
 4130TIP3    H212397   4.422   5.727   0.093
 4131TIP3   OH212398   4.850   2.224   1.172
 4131TIP3    H112399   4.755   2.233   1.182
 4131TIP3    H212400   4.884   2.312   1.188
 4132TIP3   OH212401   2.687   2.740   4.010
 4132TIP3    H112402   2.689   2.742   4.106
 4132TIP3    H212403   2.711   2.650   3.988
 4133TIP3   OH212404   1.773   1.916   2.784
 4133TIP3    H112405   1.847   1.882   2.835
 4133TIP3    H212406   1.696   1.881   2.828
 4134TIP3   OH212407   5.707   2.446   2.847
 4134TIP3    H112408   5.671   2.358   2.853
 4134TIP3    H212409   5.642   2.495   2.795
 4135TIP3   OH212410   4.890   4.530   3.929
 4135TIP3    H112411   4.857   4.607   3.883
 4135TIP3    H212412   4.815   4.500   3.981
 4136TIP3   OH212413   4.381   5.785   2.494
 4136TIP3    H112414   4.460   5.810   2.541
 4136TIP3    H212415   4.310   5.796   2.557
 4137TIP3   OH212416   2.657   2.945   0.624
 4137TIP3    H112417   2.746   2.943   0.589
 4137TIP3    H212418   2.668   2.949   0.719
 4138TIP3   OH212419   3.924   0.991   1.087
 4138TIP3    H112420   3.986   0.920   1.069
 4138TIP3    H212421   3.958   1.066   1.038
 4139TIP3   OH212422   3.848   2.960   3.349
 4139TIP3    H112423   3.819   3.025   3.285
 4139TIP3    H212424   3.903   2.900   3.298
 4140TIP3   OH212425   1.489   1.066   4.574
 4140TIP3    H112426   1.484   1.160   4.592
 4140TIP3    H212427   1.431   1.026   4.638
 4141TIP3   OH212428   5.470   2.600   0.122
 4141TIP3    H112429   5.479   2.631   0.212
 4141TIP3    H212430   5.381   2.564   0.117
 4142TIP3   OH212431   0.439   2.185   1.011
 4142TIP3    H112432   0.531   2.211   1.016
 4142TIP3    H212433   0.406   2.225   0.931
 4143TIP3   OH212434   5.683   4.223   1.715
 4143TIP3    H112435   5.685   4.285   1.789
 4143TIP3    H212436   5.771   4.229   1.677
 4144TIP3   OH212437   2.438   0.652   3.498
 4144TIP3    H112438   2.514   0.624   3.448
 4144TIP3    H212439   2.375   0.682   3.432
 4145TIP3   OH212440   4.777   3.117   2.146
 4145TIP3    H112441   4.725   3.197   2.149
 4145TIP3    H212442   4.828   3.119   2.227
 4146TIP3   OH212443   1.655   1.970   1.433
 4146TIP3    H112444   1.700   2.041   1.386
 4146TIP3    H212445   1.694   1.890   1.399
 4147TIP3   OH212446   3.045   0.969   0.217
 4147TIP3    H112447   3.047   1.030   0.290
 4147TIP3    H212448   3.126   0.986   0.169
 4148TIP3   OH212449   4.959   5.592   4.300
 4148TIP3    H112450   4.916   5.657   4.245
 4148TIP3    H212451   5.050   5.621   4.305
 4149TIP3   OH212452   4.789   5.412   4.021
 4149TIP3    H112453   4.761   5.390   3.933
 4149TIP3    H212454   4.876   5.452   4.010
 4150TIP3   OH212455   2.735   5.218   0.240
 4150TIP3    H112456   2.777   5.207   0.325
 4150TIP3    H212457   2.767   5.302   0.208
 4151TIP3   OH212458   0.750   2.135   2.466
 4151TIP3    H112459   0.694   2.124   2.542
 4151TIP3    H212460   0.698   2.189   2.406
 4152TIP3   OH212461   0.255   4.961   2.825
 4152TIP3    H112462   0.187   4.901   2.858
 4152TIP3    H212463   0.337   4.925   2.860
 4153TIP3   OH212464   5.655   3.686   1.955
 4153TIP3    H112465   5.727   3.740   1.989
 4153TIP3    H212466   5.699   3.617   1.905
 4154TIP3   OH212467   3.403   2.239   2.694
 4154TIP3    H112468   3.408   2.279   2.781
 4154TIP3    H212469   3.484   2.189   2.685
 4155TIP3   OH212470   0.945   1.102   1.877
 4155TIP3    H112471   0.858   1.140   1.864
 4155TIP3    H212472   1.000   1.177   1.900
 4156TIP3   OH212473   2.474   1.305   3.165
 4156TIP3    H112474   2.406   1.346   3.112
 4156TIP3    H212475   2.553   1.355   3.147
 4157TIP3   OH212476   0.752   5.577   4.716
 4157TIP3    H112477   0.842   5.561   4.689
 4157TIP3    H212478   0.723   5.494   4.755
 4158TIP3   OH212479   0.553   5.170   1.322
 4158TIP3    H112480   0.482   5.218   1.278
 4158TIP3    H212481   0.557   5.209   1.409
 4159TIP3   OH212482   0.928   5.794   4.618
 4159TIP3    H112483   0.841   5.775   4.581
 4159TIP3    H212484   0.989   5.747   4.561
 4160TIP3   OH212485   5.752   3.383   2.366
 4160TIP3    H112486   5.839   3.391   2.327
 4160TIP3    H212487   5.692   3.387   2.292
 4161TIP3   OH212488   1.993   4.815   1.862
 4161TIP3    H112489   1.964   4.755   1.794
 4161TIP3    H212490   1.999   4.761   1.941
 4162TIP3   OH212491   3.292   5.746   4.709
 4162TIP3    H112492   3.318   5.709   4.793
 4162TIP3    H212493   3.338   5.830   4.704
 4163TIP3   OH212494   5.027   2.144   1.864
 4163TIP3    H112495   4.979   2.212   1.816
 4163TIP3    H212496   4.992   2.062   1.829
 4164TIP3   OH212497   2.000   4.449   2.584
 4164TIP3    H112498   2.022   4.356   2.586
 4164TIP3    H212499   2.064   4.488   2.525
 4165TIP3   OH212500   4.041   2.234   3.204
 4165TIP3    H112501   4.040   2.324   3.171
 4165TIP3    H212502   4.085   2.240   3.288
 4166TIP3   OH212503   5.314   3.106   1.929
 4166TIP3    H112504   5.300   3.179   1.868
 4166TIP3    H212505   5.231   3.099   1.977
 4167TIP3   OH212506   0.265   0.806   2.252
 4167TIP3    H112507   0.323   0.767   2.188
 4167TIP3    H212508   0.309   0.794   2.336
 4168TIP3   OH212509   4.612   3.175   5.058
 4168TIP3    H112510   4.522   3.183   5.024
 4168TIP3    H212511   4.612   3.092   5.105
 4169TIP3   OH212512   2.423   3.687   3.521
 4169TIP3    H112513   2.368   3.684   3.443
 4169TIP3    H212514   2.426   3.779   3.546
 4170TIP3   OH212515   5.985   4.671   3.020
 4170TIP3    H112516   6.021   4.586   3.045
 4170TIP3    H212517   5.919   4.690   3.087
 4171TIP3   OH212518   3.224   4.912   0.896
 4171TIP3    H112519   3.293   4.850   0.871
 4171TIP3    H212520   3.144   4.874   0.862
 4172TIP3   OH212521   3.823   4.722   2.978
 4172TIP3    H112522   3.737   4.723   3.019
 4172TIP3    H212523   3.875   4.785   3.028
 4173TIP3   OH212524   1.623   4.721   1.950
 4173TIP3    H112525   1.583   4.663   2.015
 4173TIP3    H212526   1.659   4.793   2.001
 4174TIP3   OH212527   1.550   1.468   4.255
 4174TIP3    H112528   1.571   1.375   4.241
 4174TIP3    H212529   1.524   1.500   4.168
 4175TIP3   OH212530   4.207   4.499   0.813
 4175TIP3    H112531   4.214   4.406   0.788
 4175TIP3    H212532   4.117   4.523   0.791
 4176TIP3   OH212533   2.856   2.204   5.162
 4176TIP3    H112534   2.847   2.137   5.093
 4176TIP3    H212535   2.767   2.232   5.180
 4177TIP3   OH212536   5.318   5.369   4.292
 4177TIP3    H112537   5.398   5.319   4.271
 4177TIP3    H212538   5.281   5.323   4.368
 4178TIP3   OH212539   5.361   3.340   3.330
 4178TIP3    H112540   5.428   3.272   3.327
 4178TIP3    H212541   5.287   3.303   3.281
 4179TIP3   OH212542   3.834   3.936   3.888
 4179TIP3    H112543   3.837   3.852   3.935
 4179TIP3    H212544   3.820   4.001   3.956
 4180TIP3   OH212545   1.223   2.545   2.987
 4180TIP3    H112546   1.252   2.593   2.909
 4180TIP3    H212547   1.200   2.458   2.954
 4181TIP3   OH212548   1.549   5.841   4.126
 4181TIP3    H112549   1.583   5.766   4.175
 4181TIP3    H212550   1.574   5.917   4.179
 4182TIP3   OH212551   1.148   3.038   5.094
 4182TIP3    H112552   1.241   3.034   5.116
 4182TIP3    H212553   1.111   3.100   5.157
 4183TIP3   OH212554   5.940   0.112   2.748
 4183TIP3    H112555   5.974   0.107   2.658
 4183TIP3    H212556   5.971   0.197   2.780
 4184TIP3   OH212557   0.328   2.752   2.150
 4184TIP3    H112558   0.269   2.797   2.211
 4184TIP3    H212559   0.316   2.659   2.169
 4185TIP3   OH212560   5.567   2.130   3.364
 4185TIP3    H112561   5.491   2.128   3.306
 4185TIP3    H212562   5.588   2.037   3.378
 4186TIP3   OH212563   5.125   4.247   0.241
 4186TIP3    H112564   5.126   4.301   0.162
 4186TIP3    H212565   5.040   4.264   0.281
 4187TIP3   OH212566   6.219   1.373   4.706
 4187TIP3    H112567   6.231   1.362   4.612
 4187TIP3    H212568   6.125   1.381   4.718
 4188TIP3   OH212569   4.451   1.737   2.341
 4188TIP3    H112570   4.412   1.651   2.354
 4188TIP3    H212571   4.545   1.719   2.330
 4189TIP3   OH212572   3.456   3.709   1.809
 4189TIP3    H112573   3.467   3.696   1.903
 4189TIP3    H212574   3.404   3.789   1.801
 4190TIP3   OH212575   5.360   1.693   0.446
 4190TIP3    H112576   5.448   1.660   0.429
 4190TIP3    H212577   5.360   1.717   0.539
 4191TIP3   OH212578   5.350   1.261   0.739
 4191TIP3    H112579   5.294   1.301   0.672
 4191TIP3    H212580   5.299   1.264   0.819
 4192TIP3   OH212581   3.290   0.080   1.978
 4192TIP3    H112582   3.319  -0.009   1.962
 4192TIP3    H212583   3.231   0.073   2.054
 4193TIP3   OH212584   3.585   5.780   1.274
 4193TIP3    H112585   3.573   5.838   1.199
 4193TIP3    H212586   3.651   5.717   1.246
 4194TIP3   OH212587   6.361   5.329   3.440
 4194TIP3    H112588   6.287   5.274   3.464
 4194TIP3    H212589   6.331   5.376   3.362
 4195TIP3   OH212590   1.345   1.006   2.255
 4195TIP3    H112591   1.361   0.966   2.341
 4195TIP3    H212592   1.251   0.996   2.242
 4196TIP3   OH212593   2.492   4.489   0.642
 4196TIP3    H112594   2.398   4.508   0.638
 4196TIP3    H212595   2.533   4.575   0.632
 4197TIP3   OH212596   4.062   4.262   2.022
 4197TIP3    H112597   3.972   4.287   2.003
 4197TIP3    H212598   4.098   4.234   1.938
 4198TIP3   OH212599   4.059   2.946   1.622
 4198TIP3    H112600   4.146   2.987   1.620
 4198TIP3    H212601   4.035   2.948   1.715
 4199TIP3   OH212602   0.495   3.211   3.878
 4199TIP3    H112603   0.413   3.167   3.900
 4199TIP3    H212604   0.468   3.288   3.827
 4200TIP3   OH212605   2.642   5.444   4.940
 4200TIP3    H112606   2.638   5.538   4.957
 4200TIP3    H212607   2.683   5.408   5.019
 4201TIP3   OH212608   1.248   5.769   0.578
 4201TIP3    H112609   1.265   5.863   0.574
 4201TIP3    H212610   1.182   5.760   0.646
 4202TIP3   OH212611   0.093   0.836   5.097
 4202TIP3    H112612   0.152   0.765   5.121
 4202TIP3    H212613   0.014   0.819   5.147
 4203TIP3   OH212614   4.020   4.109   2.250
 4203TIP3    H112615   4.060   4.157   2.177
 4203TIP3    H212616   4.079   4.034   2.263
 4204TIP3   OH212617   5.624   2.625   2.285
 4204TIP3    H112618   5.536   2.587   2.287
 4204TIP3    H212619   5.682   2.549   2.279
 4205TIP3   OH212620   5.815   5.900   4.647
 4205TIP3    H112621   5.851   5.825   4.694
 4205TIP3    H212622   5.721   5.898   4.665
 4206TIP3   OH212623   3.160   4.592   0.062
 4206TIP3    H112624   3.104   4.541   0.004
 4206TIP3    H212625   3.134   4.683   0.045
 4207TIP3   OH212626   2.299   2.276   4.496
 4207TIP3    H112627   2.308   2.212   4.567
 4207TIP3    H212628   2.348   2.237   4.423
 4208TIP3   OH212629   5.160   5.118   3.536
 4208TIP3    H112630   5.130   5.073   3.615
 4208TIP3    H212631   5.225   5.181   3.568
 4209TIP3   OH212632   0.485   2.558   2.580
 4209TIP3    H112633   0.500   2.478   2.529
 4209TIP3    H212634   0.453   2.621   2.516
 4210TIP3   OH212635   4.902   1.315   3.708
 4210TIP3    H112636   4.974   1.268   3.665
 4210TIP3    H212637   4.933   1.330   3.797
 4211TIP3   OH212638   3.995   3.473   4.304
 4211TIP3    H112639   3.931   3.403   4.310
 4211TIP3    H212640   4.008   3.501   4.395
 4212TIP3   OH212641   1.212   3.794   0.449
 4212TIP3    H112642   1.152   3.757   0.514
 4212TIP3    H212643   1.293   3.746   0.461
 4213TIP3   OH212644   1.321   4.943   0.839
 4213TIP3    H112645   1.299   5.036   0.835
 4213TIP3    H212646   1.298   4.916   0.928
 4214TIP3   OH212647   5.381   0.120   3.003
 4214TIP3    H112648   5.321   0.140   2.932
 4214TIP3    H212649   5.332   0.061   3.061
 4215TIP3   OH212650   0.656   5.702   2.211
 4215TIP3    H112651   0.701   5.682   2.293
 4215TIP3    H212652   0.666   5.797   2.201
 4216TIP3   OH212653   5.181   5.372   0.449
 4216TIP3    H112654   5.176   5.285   0.409
 4216TIP3    H212655   5.091   5.402   0.451
 4217TIP3   OH212656   0.554   5.556   2.836
 4217TIP3    H112657   0.460   5.554   2.852
 4217TIP3    H212658   0.564   5.610   2.757
 4218TIP3   OH212659   3.299   3.123   1.823
 4218TIP3    H112660   3.269   3.199   1.773
 4218TIP3    H212661   3.336   3.064   1.757
 4219TIP3   OH212662   4.911   5.778   4.626
 4219TIP3    H112663   4.882   5.715   4.692
 4219TIP3    H212664   4.865   5.753   4.547
 4220TIP3   OH212665   5.565   5.741   2.081
 4220TIP3    H112666   5.538   5.830   2.057
 4220TIP3    H212667   5.565   5.741   2.177
 4221TIP3   OH212668   4.999   2.601   1.855
 4221TIP3    H112669   4.977   2.519   1.810
 4221TIP3    H212670   5.030   2.574   1.941
 4222TIP3   OH212671   1.129   4.227   1.485
 4222TIP3    H112672   1.074   4.171   1.540
 4222TIP3    H212673   1.067   4.277   1.432
 4223TIP3   OH212674   2.455   0.504   3.194
 4223TIP3    H112675   2.378   0.468   3.240
 4223TIP3    H212676   2.469   0.444   3.121
 4224TIP3   OH212677   3.205   3.516   3.598
 4224TIP3    H112678   3.166   3.494   3.514
 4224TIP3    H212679   3.264   3.588   3.580
 4225TIP3   OH212680   4.051   2.982   0.340
 4225TIP3    H112681   4.111   3.056   0.350
 4225TIP3    H212682   4.108   2.905   0.337
 4226TIP3   OH212683   4.212   0.482   0.263
 4226TIP3    H112684   4.194   0.499   0.170
 4226TIP3    H212685   4.266   0.403   0.263
 4227TIP3   OH212686   3.635   4.199   2.480
 4227TIP3    H112687   3.698   4.244   2.537
 4227TIP3    H212688   3.674   4.202   2.393
 4228TIP3   OH212689   1.689   3.058   1.094
 4228TIP3    H112690   1.759   3.017   1.144
 4228TIP3    H212691   1.707   3.152   1.100
 4229TIP3   OH212692   4.081   0.538   1.741
 4229TIP3    H112693   4.047   0.482   1.811
 4229TIP3    H212694   4.027   0.516   1.665
 4230TIP3   OH212695   4.723   0.325   1.320
 4230TIP3    H112696   4.671   0.263   1.269
 4230TIP3    H212697   4.720   0.291   1.410
 4231TIP3   OH212698   5.081   0.366   3.926
 4231TIP3    H112699   5.031   0.380   4.007
 4231TIP3    H212700   5.169   0.343   3.955
 4232TIP3   OH212701   3.022   4.538   2.578
 4232TIP3    H112702   3.010   4.630   2.553
 4232TIP3    H212703   3.005   4.489   2.498
 4233TIP3   OH212704   5.846   2.370   3.701
 4233TIP3    H112705   5.778   2.318   3.742
 4233TIP3    H212706   5.928   2.340   3.740
 4234TIP3   OH212707   2.276   3.538   3.833
 4234TIP3    H112708   2.268   3.633   3.829
 4234TIP3    H212709   2.312   3.514   3.748
 4235TIP3   OH212710   6.168   1.255   3.144
 4235TIP3    H112711   6.150   1.302   3.063
 4235TIP3    H212712   6.257   1.222   3.134
 4236TIP3   OH212713   1.932   2.791   3.041
 4236TIP3    H112714   1.973   2.705   3.033
 4236TIP3    H212715   1.993   2.851   2.998
 4237TIP3   OH212716   2.643   0.983   4.141
 4237TIP3    H112717   2.660   1.072   4.110
 4237TIP3    H212718   2.568   0.954   4.090
 4238TIP3   OH212719   1.527   0.973   1.448
 4238TIP3    H112720   1.453   0.939   1.497
 4238TIP3    H212721   1.589   0.900   1.443
 4239TIP3   OH212722   0.952   5.672   2.866
 4239TIP3    H112723   1.002   5.746   2.831
 4239TIP3    H212724   0.918   5.704   2.950
 4240TIP3   OH212725   5.260   3.608   1.777
 4240TIP3    H112726   5.174   3.570   1.761
 4240TIP3    H212727   5.254   3.697   1.742
 4241TIP3   OH212728   0.501   5.604   1.909
 4241TIP3    H112729   0.552   5.570   1.983
 4241TIP3    H212730   0.416   5.560   1.917
 4242TIP3   OH212731   5.807   5.327   4.110
 4242TIP3    H112732   5.785   5.413   4.074
 4242TIP3    H212733   5.869   5.346   4.181
 4243TIP3   OH212734   0.937   4.567   3.127
 4243TIP3    H112735   0.861   4.521   3.161
 4243TIP3    H212736   0.937   4.547   3.033
 4244TIP3   OH212737   0.287   1.416   2.809
 4244TIP3    H112738   0.206   1.462   2.834
 4244TIP3    H212739   0.353   1.451   2.868
 4245TIP3   OH212740   4.349   5.114   1.593
 4245TIP3    H112741   4.390   5.085   1.675
 4245TIP3    H212742   4.367   5.043   1.531
 4246TIP3   OH212743   0.259   2.976   4.334
 4246TIP3    H112744   0.347   3.001   4.306
 4246TIP3    H212745   0.249   2.886   4.302
 4247TIP3   OH212746   5.874   0.490   4.251
 4247TIP3    H112747   5.783   0.465   4.263
 4247TIP3    H212748   5.879   0.526   4.163
 4248TIP3   OH212749   2.600   4.979   2.652
 4248TIP3    H112750   2.555   5.055   2.690
 4248TIP3    H212751   2.611   5.002   2.559
 4249TIP3   OH212752   1.192   0.051   1.410
 4249TIP3    H112753   1.256   0.009   1.468
 4249TIP3    H212754   1.116   0.068   1.466
 4250TIP3   OH212755   0.056   1.355   3.749
 4250TIP3    H112756   0.069   1.266   3.783
 4250TIP3    H212757   0.043   1.343   3.655
 4251TIP3   OH212758   1.230   4.094   1.264
 4251TIP3    H112759   1.185   4.013   1.288
 4251TIP3    H212760   1.196   4.159   1.325
 4252TIP3   OH212761   1.147   0.738   2.402
 4252TIP3    H112762   1.052   0.727   2.407
 4252TIP3    H212763   1.179   0.653   2.370
 4253TIP3   OH212764   4.304   1.100   1.677
 4253TIP3    H112765   4.223   1.135   1.638
 4253TIP3    H212766   4.274   1.050   1.753
 4254TIP3   OH212767   4.214   5.004   2.991
 4254TIP3    H112768   4.186   4.972   3.077
 4254TIP3    H212769   4.142   4.980   2.932
 4255TIP3   OH212770   0.206   1.603   2.265
 4255TIP3    H112771   0.119   1.584   2.228
 4255TIP3    H212772   0.219   1.535   2.331
 4256TIP3   OH212773   2.946   5.043   0.830
 4256TIP3    H112774   2.942   5.020   0.923
 4256TIP3    H212775   2.968   5.136   0.829
 4257TIP3   OH212776   3.033   5.433   0.856
 4257TIP3    H112777   2.968   5.399   0.794
 4257TIP3    H212778   3.021   5.528   0.852
 4258TIP3   OH212779   5.866   3.934   3.095
 4258TIP3    H112780   5.866   4.008   3.155
 4258TIP3    H212781   5.888   3.971   3.010
 4259TIP3   OH212782   5.599   0.548   2.298
 4259TIP3    H112783   5.526   0.546   2.235
 4259TIP3    H212784   5.560   0.584   2.378
 4260TIP3   OH212785   1.734   5.714   1.428
 4260TIP3    H112786   1.659   5.656   1.421
 4260TIP3    H212787   1.718   5.765   1.508
 4261TIP3   OH212788   2.525   5.299   2.187
 4261TIP3    H112789   2.453   5.351   2.221
 4261TIP3    H212790   2.498   5.208   2.201
 4262TIP3   OH212791   6.259   1.573   5.119
 4262TIP3    H112792   6.294   1.561   5.207
 4262TIP3    H212793   6.272   1.666   5.101
 4263TIP3   OH212794   0.394   2.600   1.736
 4263TIP3    H112795   0.318   2.619   1.681
 4263TIP3    H212796   0.448   2.541   1.683
 4264TIP3   OH212797   4.752   2.232   1.751
 4264TIP3    H112798   4.678   2.267   1.800
 4264TIP3    H212799   4.716   2.163   1.697
 4265TIP3   OH212800   1.714   0.187   4.694
 4265TIP3    H112801   1.689   0.107   4.649
 4265TIP3    H212802   1.741   0.247   4.625
 4266TIP3   OH212803   3.222   3.006   4.377
 4266TIP3    H112804   3.176   2.960   4.447
 4266TIP3    H212805   3.291   2.946   4.349
 4267TIP3   OH212806   3.920   0.250   4.130
 4267TIP3    H112807   3.866   0.265   4.052
 4267TIP3    H212808   3.991   0.194   4.100
 4268TIP3   OH212809   0.983   4.094   0.803
 4268TIP3    H112810   1.066   4.112   0.848
 4268TIP3    H212811   0.916   4.128   0.861
 4269TIP3   OH212812   6.122   5.328   0.931
 4269TIP3    H112813   6.188   5.261   0.915
 4269TIP3    H212814   6.039   5.284   0.915
 4270TIP3   OH212815   4.127   2.667   4.711
 4270TIP3    H112816   4.174   2.748   4.690
 4270TIP3    H212817   4.043   2.696   4.746
 4271TIP3   OH212818   1.431   1.541   1.592
 4271TIP3    H112819   1.445   1.447   1.606
 4271TIP3    H212820   1.380   1.568   1.668
 4272TIP3   OH212821   2.895   2.221   3.443
 4272TIP3    H112822   2.801   2.236   3.443
 4272TIP3    H212823   2.906   2.132   3.477
 4273TIP3   OH212824   0.660   2.935   4.885
 4273TIP3    H112825   0.664   2.955   4.978
 4273TIP3    H212826   0.737   2.978   4.848
 4274TIP3   OH212827   4.138   3.399   1.295
 4274TIP3    H112828   4.066   3.454   1.265
 4274TIP3    H212829   4.214   3.429   1.245
 4275TIP3   OH212830   3.787   5.657   1.114
 4275TIP3    H112831   3.762   5.629   1.026
 4275TIP3    H212832   3.827   5.579   1.153
 4276TIP3   OH212833   3.991   4.032   3.016
 4276TIP3    H112834   3.992   4.108   2.958
 4276TIP3    H212835   3.899   4.015   3.033
 4277TIP3   OH212836   5.839   3.649   2.987
 4277TIP3    H112837   5.811   3.736   3.016
 4277TIP3    H212838   5.788   3.633   2.907
 4278TIP3   OH212839   3.872   1.465   2.351
 4278TIP3    H112840   3.807   1.469   2.421
 4278TIP3    H212841   3.820   1.450   2.272
 4279TIP3   OH212842   2.741   2.839   3.746
 4279TIP3    H112843   2.715   2.813   3.834
 4279TIP3    H212844   2.684   2.913   3.724
 4280TIP3   OH212845   1.740   5.195   0.720
 4280TIP3    H112846   1.701   5.244   0.647
 4280TIP3    H212847   1.834   5.198   0.703
 4281TIP3   OH212848   5.362   5.814   2.628
 4281TIP3    H112849   5.327   5.883   2.571
 4281TIP3    H212850   5.325   5.833   2.714
 4282TIP3   OH212851   0.704   2.071   5.142
 4282TIP3    H112852   0.687   2.099   5.232
 4282TIP3    H212853   0.710   2.152   5.093
 4283TIP3   OH212854   4.351   0.975   4.030
 4283TIP3    H112855   4.326   0.985   3.938
 4283TIP3    H212856   4.331   0.884   4.050
 4284TIP3   OH212857   3.992   3.586   1.171
 4284TIP3    H112858   3.983   3.656   1.237
 4284TIP3    H212859   3.995   3.632   1.088
 4285TIP3   OH212860   2.217   4.450   3.786
 4285TIP3    H112861   2.264   4.458   3.703
 4285TIP3    H212862   2.173   4.533   3.797
 4286TIP3   OH212863   0.057   2.116   2.643
 4286TIP3    H112864  -0.018   2.127   2.584
 4286TIP3    H212865   0.111   2.049   2.601
 4287TIP3   OH212866   3.708   4.488   0.494
 4287TIP3    H112867   3.769   4.537   0.440
 4287TIP3    H212868   3.704   4.536   0.577
 4288TIP3   OH212869   2.306   1.503   0.528
 4288TIP3    H112870   2.222   1.479   0.490
 4288TIP3    H212871   2.285   1.527   0.618
 4289TIP3   OH212872   2.593   3.388   1.273
 4289TIP3    H112873   2.643   3.382   1.192
 4289TIP3    H212874   2.646   3.342   1.338
 4290TIP3   OH212875   3.304   5.065   3.303
 4290TIP3    H112876   3.297   4.984   3.251
 4290TIP3    H212877   3.222   5.111   3.286
 4291TIP3   OH212878   3.587   0.120   3.144
 4291TIP3    H112879   3.533   0.046   3.172
 4291TIP3    H212880   3.658   0.080   3.094
 4292TIP3   OH212881   6.155   3.993   4.151
 4292TIP3    H112882   6.089   3.945   4.101
 4292TIP3    H212883   6.238   3.949   4.128
 4293TIP3   OH212884   2.549   4.574   0.300
 4293TIP3    H112885   2.485   4.627   0.347
 4293TIP3    H212886   2.531   4.591   0.207
 4294TIP3   OH212887   1.692   4.273   0.717
 4294TIP3    H112888   1.691   4.180   0.698
 4294TIP3    H212889   1.783   4.300   0.700
 4295TIP3   OH212890   2.200   2.571   0.838
 4295TIP3    H112891   2.111   2.561   0.802
 4295TIP3    H212892   2.242   2.486   0.822
 4296TIP3   OH212893   0.720   1.132   3.491
 4296TIP3    H112894   0.679   1.058   3.447
 4296TIP3    H212895   0.737   1.195   3.421
 4297TIP3   OH212896   2.756   5.359   2.708
 4297TIP3    H112897   2.832   5.312   2.672
 4297TIP3    H212898   2.688   5.292   2.715
 4298TIP3   OH212899   5.518   5.461   3.735
 4298TIP3    H112900   5.491   5.390   3.794
 4298TIP3    H212901   5.591   5.424   3.685
 4299TIP3   OH212902   1.416   2.084   4.855
 4299TIP3    H112903   1.356   2.035   4.799
 4299TIP3    H212904   1.487   2.111   4.796
 4300TIP3   OH212905   1.840   2.081   3.934
 4300TIP3    H112906   1.933   2.098   3.922
 4300TIP3    H212907   1.798   2.123   3.859
 4301TIP3   OH212908   2.605   1.637   4.266
 4301TIP3    H112909   2.604   1.695   4.343
 4301TIP3    H212910   2.690   1.593   4.271
 4302TIP3   OH212911   1.617   2.616   3.321
 4302TIP3    H112912   1.588   2.607   3.412
 4302TIP3    H212913   1.537   2.610   3.269
 4303TIP3   OH212914   5.572   5.017   1.831
 4303TIP3    H112915   5.568   5.009   1.735
 4303TIP3    H212916   5.577   4.926   1.862
 4304TIP3   OH212917   1.238   2.383   0.971
 4304TIP3    H112918   1.260   2.465   0.926
 4304TIP3    H212919   1.319   2.333   0.970
 4305TIP3   OH212920   1.532   0.499   3.690
 4305TIP3    H112921   1.511   0.406   3.693
 4305TIP3    H212922   1.573   0.511   3.604
 4306TIP3   OH212923   2.354   0.042   3.797
 4306TIP3    H112924   2.302   0.084   3.866
 4306TIP3    H212925   2.343  -0.052   3.812
 4307TIP3   OH212926   4.068   1.868   1.455
 4307TIP3    H112927   4.163   1.858   1.457
 4307TIP3    H212928   4.054   1.953   1.412
 4308TIP3   OH212929   5.736   5.610   1.462
 4308TIP3    H112930   5.740   5.680   1.397
 4308TIP3    H212931   5.643   5.590   1.472
 4309TIP3   OH212932   2.209   1.452   1.832
 4309TIP3    H112933   2.184   1.537   1.866
 4309TIP3    H212934   2.248   1.406   1.907
 4310TIP3   OH212935   2.390   4.205   0.453
 4310TIP3    H112936   2.443   4.267   0.503
 4310TIP3    H212937   2.315   4.186   0.510
 4311TIP3   OH212938   5.296   0.484   0.965
 4311TIP3    H112939   5.296   0.475   1.060
 4311TIP3    H212940   5.217   0.438   0.937
 4312TIP3   OH212941   2.341   2.755   4.415
 4312TIP3    H112942   2.314   2.695   4.484
 4312TIP3    H212943   2.331   2.842   4.454
 4313TIP3   OH212944   3.330   4.128   4.369
 4313TIP3    H112945   3.372   4.166   4.291
 4313TIP3    H212946   3.304   4.040   4.342
 4314TIP3   OH212947   0.377   3.421   3.741
 4314TIP3    H112948   0.295   3.467   3.755
 4314TIP3    H212949   0.441   3.490   3.726
 4315TIP3   OH212950   2.368   2.826   4.967
 4315TIP3    H112951   2.435   2.827   5.036
 4315TIP3    H212952   2.402   2.765   4.902
 4316TIP3   OH212953   5.689   3.228   5.107
 4316TIP3    H112954   5.636   3.227   5.028
 4316TIP3    H212955   5.629   3.205   5.177
 4317TIP3   OH212956   0.772   2.322   5.057
 4317TIP3    H112957   0.829   2.397   5.038
 4317TIP3    H212958   0.685   2.361   5.067
 4318TIP3   OH212959   1.480   0.981   3.887
 4318TIP3    H112960   1.420   1.019   3.950
 4318TIP3    H212961   1.466   1.031   3.807
 4319TIP3   OH212962   0.756   2.589   3.195
 4319TIP3    H112963   0.709   2.645   3.134
 4319TIP3    H212964   0.703   2.592   3.275
 4320TIP3   OH212965   5.506   1.222   4.885
 4320TIP3    H112966   5.476   1.270   4.962
 4320TIP3    H212967   5.435   1.231   4.822
 4321TIP3   OH212968   4.637   3.813   5.158
 4321TIP3    H112969   4.680   3.897   5.173
 4321TIP3    H212970   4.575   3.830   5.087
 4322TIP3   OH212971   4.844   3.396   2.457
 4322TIP3    H112972   4.792   3.451   2.515
 4322TIP3    H212973   4.779   3.341   2.412
 4323TIP3   OH212974   3.460   0.025   4.252
 4323TIP3    H112975   3.459   0.019   4.348
 4323TIP3    H212976   3.517  -0.046   4.224
 4324TIP3   OH212977   1.693   2.987   4.952
 4324TIP3    H112978   1.782   3.005   4.921
 4324TIP3    H212979   1.651   2.942   4.879
 4325TIP3   OH212980   4.578   2.047   2.181
 4325TIP3    H112981   4.663   2.050   2.138
 4325TIP3    H212982   4.546   1.958   2.165
 4326TIP3   OH212983   4.478   1.605   5.147
 4326TIP3    H112984   4.530   1.532   5.113
 4326TIP3    H212985   4.397   1.565   5.177
 4327TIP3   OH212986   5.571   3.215   4.616
 4327TIP3    H112987   5.630   3.194   4.544
 4327TIP3    H212988   5.529   3.297   4.589
 4328TIP3   OH212989   3.046   4.122   0.545
 4328TIP3    H112990   3.056   4.124   0.450
 4328TIP3    H212991   2.998   4.202   0.565
 4329TIP3   OH212992   3.377   5.299   1.519
 4329TIP3    H112993   3.337   5.364   1.461
 4329TIP3    H212994   3.464   5.335   1.539
 4330TIP3   OH212995   4.428   4.737   4.359
 4330TIP3    H112996   4.438   4.752   4.265
 4330TIP3    H212997   4.437   4.824   4.398
 4331TIP3   OH212998   2.123   0.050   1.305
 4331TIP3    H112999   2.067  -0.013   1.350
 4331TIP3    H213000   2.137   0.120   1.370
 4332TIP3   OH213001   6.004   5.488   1.904
 4332TIP3    H113002   5.987   5.506   1.812
 4332TIP3    H213003   5.922   5.509   1.949
 4333TIP3   OH213004   1.775   2.904   5.173
 4333TIP3    H113005   1.717   2.894   5.098
 4333TIP3    H213006   1.785   2.999   5.183
 4334TIP3   OH213007   5.983   0.434   4.989
 4334TIP3    H113008   5.915   0.447   4.923
 4334TIP3    H213009   6.048   0.502   4.971
 4335TIP3   OH213010   1.784   4.911   4.562
 4335TIP3    H113011   1.876   4.933   4.568
 4335TIP3    H213012   1.779   4.820   4.592
 4336TIP3   OH213013   1.588   3.497   2.573
 4336TIP3    H113014   1.680   3.520   2.570
 4336TIP3    H213015   1.586   3.413   2.619
 4337TIP3   OH213016   0.943   3.254   2.004
 4337TIP3    H113017   0.901   3.323   1.953
 4337TIP3    H213018   0.871   3.203   2.041
 4338TIP3   OH213019   5.736   3.467   3.257
 4338TIP3    H113020   5.744   3.546   3.205
 4338TIP3    H213021   5.746   3.395   3.194
 4339TIP3   OH213022   4.250   0.489   0.742
 4339TIP3    H113023   4.257   0.401   0.778
 4339TIP3    H213024   4.304   0.543   0.800
 4340TIP3   OH213025   2.302   2.307   0.887
 4340TIP3    H113026   2.365   2.275   0.823
 4340TIP3    H213027   2.344   2.294   0.972
 4341TIP3   OH213028   2.959   4.557   3.771
 4341TIP3    H113029   3.013   4.632   3.795
 4341TIP3    H213030   3.022   4.489   3.747
 4342TIP3   OH213031   1.317   3.430   3.593
 4342TIP3    H113032   1.325   3.399   3.683
 4342TIP3    H213033   1.389   3.387   3.546
 4343TIP3   OH213034   0.193   2.207   1.734
 4343TIP3    H113035   0.155   2.197   1.822
 4343TIP3    H213036   0.135   2.157   1.677
 4344TIP3   OH213037   1.643   5.063   2.406
 4344TIP3    H113038   1.548   5.073   2.406
 4344TIP3    H213039   1.658   4.969   2.398
 4345TIP3   OH213040   1.192   4.449   3.236
 4345TIP3    H113041   1.103   4.478   3.216
 4345TIP3    H213042   1.198   4.455   3.331
 4346TIP3   OH213043   2.850   3.902   3.957
 4346TIP3    H113044   2.854   3.839   4.029
 4346TIP3    H213045   2.785   3.967   3.985
 4347TIP3   OH213046   2.176   0.471   3.320
 4347TIP3    H113047   2.099   0.500   3.271
 4347TIP3    H213048   2.153   0.485   3.412
 4348TIP3   OH213049   6.284   0.785   1.713
 4348TIP3    H113050   6.337   0.715   1.751
 4348TIP3    H213051   6.195   0.768   1.746
 4349TIP3   OH213052   1.691   0.572   2.016
 4349TIP3    H113053   1.628   0.531   1.956
 4349TIP3    H213054   1.681   0.524   2.098
 4350TIP3   OH213055   2.417   1.542   3.582
 4350TIP3    H113056   2.334   1.508   3.549
 4350TIP3    H213057   2.472   1.552   3.505
 4351TIP3   OH213058   2.033   4.976   4.584
 4351TIP3    H113059   2.059   5.024   4.663
 4351TIP3    H213060   2.096   4.904   4.579
 4352TIP3   OH213061   2.749   1.511   1.161
 4352TIP3    H113062   2.827   1.492   1.213
 4352TIP3    H213063   2.736   1.605   1.171
 4353TIP3   OH213064   1.770   3.032   3.621
 4353TIP3    H113065   1.830   3.046   3.547
 4353TIP3    H213066   1.688   3.074   3.593
 4354TIP3   OH213067   1.640   2.579   0.119
 4354TIP3    H113068   1.553   2.618   0.121
 4354TIP3    H213069   1.694   2.642   0.072
 4355TIP3   OH213070   3.123   2.446   0.298
 4355TIP3    H113071   3.189   2.377   0.298
 4355TIP3    H213072   3.059   2.418   0.232
 4356TIP3   OH213073   3.570   0.479   3.808
 4356TIP3    H113074   3.555   0.542   3.879
 4356TIP3    H213075   3.483   0.449   3.783
 4357TIP3   OH213076   2.536   0.752   4.487
 4357TIP3    H113077   2.496   0.833   4.517
 4357TIP3    H213078   2.554   0.703   4.567
 4358TIP3   OH213079   4.952   5.649   0.361
 4358TIP3    H113080   4.921   5.636   0.272
 4358TIP3    H213081   4.931   5.740   0.382
 4359TIP3   OH213082   1.632   1.095   3.434
 4359TIP3    H113083   1.699   1.027   3.448
 4359TIP3    H213084   1.681   1.172   3.407
 4360TIP3   OH213085   0.038   1.121   2.035
 4360TIP3    H113086   0.005   1.188   1.976
 4360TIP3    H213087   0.041   1.041   1.983
 4361TIP3   OH213088   2.583   3.037   2.543
 4361TIP3    H113089   2.507   3.083   2.509
 4361TIP3    H213090   2.658   3.076   2.498
 4362TIP3   OH213091   2.608   1.978   0.383
 4362TIP3    H113092   2.693   2.013   0.410
 4362TIP3    H213093   2.567   1.950   0.465
 4363TIP3   OH213094   5.244   5.952   4.646
 4363TIP3    H113095   5.276   5.943   4.557
 4363TIP3    H213096   5.169   6.012   4.639
 4364TIP3   OH213097   2.821   2.113   4.898
 4364TIP3    H113098   2.775   2.116   4.814
 4364TIP3    H213099   2.913   2.103   4.874
 4365TIP3   OH213100   1.218   4.837   1.720
 4365TIP3    H113101   1.131   4.799   1.705
 4365TIP3    H213102   1.268   4.766   1.762
 4366TIP3   OH213103   5.599   3.716   2.518
 4366TIP3    H113104   5.633   3.795   2.560
 4366TIP3    H213105   5.648   3.709   2.436
 4367TIP3   OH213106   0.163   2.373   0.722
 4367TIP3    H113107   0.088   2.315   0.713
 4367TIP3    H213108   0.237   2.323   0.686
 4368TIP3   OH213109   3.184   3.040   3.752
 4368TIP3    H113110   3.180   3.134   3.771
 4368TIP3    H213111   3.270   3.013   3.784
 4369TIP3   OH213112   3.668   1.585   5.091
 4369TIP3    H113113   3.731   1.585   5.164
 4369TIP3    H213114   3.703   1.521   5.030
 4370TIP3   OH213115   5.544   5.613   2.773
 4370TIP3    H113116   5.630   5.650   2.753
 4370TIP3    H213117   5.494   5.686   2.809
 4371TIP3   OH213118   1.244   1.166   3.338
 4371TIP3    H113119   1.302   1.229   3.382
 4371TIP3    H213120   1.249   1.190   3.245
 4372TIP3   OH213121   6.039   1.410   2.080
 4372TIP3    H113122   5.952   1.383   2.108
 4372TIP3    H213123   6.024   1.484   2.021
 4373TIP3   OH213124   4.929   1.860   3.728
 4373TIP3    H113125   4.997   1.808   3.770
 4373TIP3    H213126   4.902   1.923   3.795
 4374TIP3   OH213127   1.679   0.795   2.285
 4374TIP3    H113128   1.678   0.776   2.379
 4374TIP3    H213129   1.592   0.767   2.255
 4375TIP3   OH213130   0.504   4.223   5.161
 4375TIP3    H113131   0.580   4.262   5.118
 4375TIP3    H213132   0.429   4.261   5.116
 4376TIP3   OH213133   2.561   4.394   4.750
 4376TIP3    H113134   2.502   4.460   4.713
 4376TIP3    H213135   2.564   4.324   4.685
 4377TIP3   OH213136   3.605   2.091   0.125
 4377TIP3    H113137   3.661   2.163   0.095
 4377TIP3    H213138   3.537   2.084   0.058
 4378TIP3   OH213139   0.901   4.849   0.183
 4378TIP3    H113140   0.824   4.807   0.145
 4378TIP3    H213141   0.940   4.897   0.110
 4379TIP3   OH213142   4.049   2.816   3.837
 4379TIP3    H113143   4.043   2.720   3.830
 4379TIP3    H213144   3.959   2.846   3.826
 4380TIP3   OH213145   3.366   0.906   0.278
 4380TIP3    H113146   3.383   0.843   0.209
 4380TIP3    H213147   3.435   0.972   0.269
 4381TIP3   OH213148   1.599   0.444   3.421
 4381TIP3    H113149   1.505   0.455   3.406
 4381TIP3    H213150   1.639   0.516   3.373
 4382TIP3   OH213151   0.279   5.929   1.513
 4382TIP3    H113152   0.357   5.882   1.542
 4382TIP3    H213153   0.217   5.917   1.585
 4383TIP3   OH213154   2.089   2.103   0.480
 4383TIP3    H113155   2.162   2.137   0.532
 4383TIP3    H213156   2.108   2.010   0.470
 4384TIP3   OH213157   2.419   1.727   2.728
 4384TIP3    H113158   2.439   1.799   2.668
 4384TIP3    H213159   2.343   1.757   2.777
 4385TIP3   OH213160   6.314   3.285   3.962
 4385TIP3    H113161   6.385   3.239   4.006
 4385TIP3    H213162   6.253   3.216   3.936
 4386TIP3   OH213163   0.983   1.991   4.295
 4386TIP3    H113164   0.918   2.041   4.244
 4386TIP3    H213165   0.930   1.938   4.355
 4387TIP3   OH213166   2.815   4.040   0.137
 4387TIP3    H113167   2.886   4.005   0.191
 4387TIP3    H213168   2.822   4.135   0.146
 4388TIP3   OH213169   4.343   5.650   2.968
 4388TIP3    H113170   4.289   5.698   2.905
 4388TIP3    H213171   4.421   5.625   2.918
 4389TIP3   OH213172   3.633   3.959   0.825
 4389TIP3    H113173   3.595   3.873   0.839
 4389TIP3    H213174   3.558   4.017   0.813
 4390TIP3   OH213175   2.957   1.392   0.474
 4390TIP3    H113176   2.948   1.470   0.529
 4390TIP3    H213177   3.024   1.339   0.518
 4391TIP3   OH213178   0.740   0.643   3.438
 4391TIP3    H113179   0.744   0.594   3.355
 4391TIP3    H213180   0.828   0.678   3.449
 4392TIP3   OH213181   5.916   5.565   3.517
 4392TIP3    H113182   6.007   5.592   3.503
 4392TIP3    H213183   5.882   5.628   3.581
 4393TIP3   OH213184   0.028   2.411   3.295
 4393TIP3    H113185   0.027   2.477   3.364
 4393TIP3    H213186   0.060   2.458   3.218
 4394TIP3   OH213187   2.825   4.577   1.650
 4394TIP3    H113188   2.758   4.516   1.619
 4394TIP3    H213189   2.784   4.624   1.722
 4395TIP3   OH213190   5.054   0.758   4.932
 4395TIP3    H113191   4.964   0.732   4.950
 4395TIP3    H213192   5.048   0.827   4.867
 4396TIP3   OH213193   0.111   2.814   1.483
 4396TIP3    H113194   0.032   2.816   1.430
 4396TIP3    H213195   0.176   2.770   1.429
 4397TIP3   OH213196   0.263   2.404   1.265
 4397TIP3    H113197   0.236   2.334   1.324
 4397TIP3    H213198   0.223   2.380   1.181
 4398TIP3   OH213199   6.264   5.184   3.068
 4398TIP3    H113200   6.254   5.164   2.975
 4398TIP3    H213201   6.199   5.129   3.111
 4399TIP3   OH213202   0.543   4.988   4.529
 4399TIP3    H113203   0.608   5.058   4.535
 4399TIP3    H213204   0.539   4.967   4.436
 4400TIP3   OH213205   4.638   0.125   3.952
 4400TIP3    H113206   4.587   0.048   3.923
 4400TIP3    H213207   4.593   0.154   4.031
 4401TIP3   OH213208   3.777   2.654   4.064
 4401TIP3    H113209   3.775   2.653   4.159
 4401TIP3    H213210   3.869   2.663   4.041
 4402TIP3   OH213211   2.444   1.394   4.238
 4402TIP3    H113212   2.383   1.412   4.310
 4402TIP3    H213213   2.501   1.471   4.235
 4403TIP3   OH213214   4.582   2.910   3.500
 4403TIP3    H113215   4.612   2.907   3.591
 4403TIP3    H213216   4.509   2.973   3.502
 4404TIP3   OH213217   2.322   4.727   1.874
 4404TIP3    H113218   2.248   4.675   1.905
 4404TIP3    H213219   2.333   4.795   1.940
 4405TIP3   OH213220   2.615   5.361   2.972
 4405TIP3    H113221   2.698   5.401   2.944
 4405TIP3    H213222   2.642   5.287   3.026
 4406TIP3   OH213223   2.071   1.425   2.933
 4406TIP3    H113224   2.125   1.346   2.929
 4406TIP3    H213225   2.016   1.420   2.855
 4407TIP3   OH213226   4.772   4.747   1.650
 4407TIP3    H113227   4.797   4.661   1.618
 4407TIP3    H213228   4.687   4.765   1.609
 4408TIP3   OH213229   5.969   0.595   3.394
 4408TIP3    H113230   6.040   0.638   3.442
 4408TIP3    H213231   6.013   0.524   3.347
 4409TIP3   OH213232   4.985   4.956   0.891
 4409TIP3    H113233   5.006   4.865   0.913
 4409TIP3    H213234   4.892   4.965   0.913
 4410TIP3   OH213235   2.647   2.161   2.774
 4410TIP3    H113236   2.669   2.214   2.698
 4410TIP3    H213237   2.680   2.211   2.849
 4411TIP3   OH213238   2.009   2.417   4.490
 4411TIP3    H113239   1.961   2.382   4.565
 4411TIP3    H213240   2.101   2.410   4.516
 4412TIP3   OH213241   1.125   1.264   3.067
 4412TIP3    H113242   1.041   1.307   3.084
 4412TIP3    H213243   1.190   1.335   3.073
 4413TIP3   OH213244   3.423   0.190   3.837
 4413TIP3    H113245   3.352   0.128   3.821
 4413TIP3    H213246   3.502   0.137   3.832
 4414TIP3   OH213247   3.201   4.247   0.316
 4414TIP3    H113248   3.279   4.204   0.352
 4414TIP3    H213249   3.209   4.236   0.221
 4415TIP3   OH213250   4.935   1.753   1.084
 4415TIP3    H113251   5.005   1.814   1.108
 4415TIP3    H213252   4.870   1.807   1.040
 4416TIP3   OH213253   2.079   0.288   4.705
 4416TIP3    H113254   2.004   0.347   4.711
 4416TIP3    H213255   2.115   0.303   4.617
 4417TIP3   OH213256   6.179   3.576   4.359
 4417TIP3    H113257   6.207   3.549   4.446
 4417TIP3    H213258   6.117   3.508   4.331
 4418TIP3   OH213259   1.007   0.311   2.598
 4418TIP3    H113260   1.000   0.284   2.690
 4418TIP3    H213261   1.012   0.406   2.600
 4419TIP3   OH213262   2.745   0.339   3.188
 4419TIP3    H113263   2.659   0.319   3.151
 4419TIP3    H213264   2.764   0.265   3.246
 4420TIP3   OH213265   4.799   5.622   0.901
 4420TIP3    H113266   4.884   5.659   0.924
 4420TIP3    H213267   4.797   5.537   0.946
 4421TIP3   OH213268   3.650   4.183   0.107
 4421TIP3    H113269   3.615   4.201   0.019
 4421TIP3    H213270   3.640   4.089   0.119
 4422TIP3   OH213271   4.451   2.663   3.377
 4422TIP3    H113272   4.504   2.649   3.298
 4422TIP3    H213273   4.492   2.738   3.420
 4423TIP3   OH213274   0.181   1.974   2.076
 4423TIP3    H113275   0.232   1.982   1.996
 4423TIP3    H213276   0.103   2.027   2.061
 4424TIP3   OH213277   5.866   5.573   2.358
 4424TIP3    H113278   5.795   5.550   2.299
 4424TIP3    H213279   5.867   5.669   2.358
 4425TIP3   OH213280   4.875   1.908   0.219
 4425TIP3    H113281   4.860   1.833   0.161
 4425TIP3    H213282   4.902   1.979   0.160
 4426TIP3   OH213283   1.208   2.477   4.684
 4426TIP3    H113284   1.193   2.555   4.738
 4426TIP3    H213285   1.282   2.433   4.725
 4427TIP3   OH213286   6.282   1.840   5.041
 4427TIP3    H113287   6.276   1.828   4.947
 4427TIP3    H213288   6.257   1.931   5.056
 4428TIP3   OH213289   5.392   0.339   2.165
 4428TIP3    H113290   5.378   0.253   2.126
 4428TIP3    H213291   5.304   0.373   2.180
 4429TIP3   OH213292   3.260   1.693   4.551
 4429TIP3    H113293   3.312   1.774   4.544
 4429TIP3    H213294   3.193   1.713   4.616
 4430TIP3   OH213295   1.152   4.913   4.288
 4430TIP3    H113296   1.137   4.940   4.197
 4430TIP3    H213297   1.247   4.900   4.294
 4431TIP3   OH213298   5.974   3.386   4.516
 4431TIP3    H113299   5.913   3.389   4.590
 4431TIP3    H213300   5.977   3.293   4.491
 4432TIP3   OH213301   1.688   0.930   4.056
 4432TIP3    H113302   1.629   0.959   3.987
 4432TIP3    H213303   1.655   0.843   4.081
 4433TIP3   OH213304   2.424   4.903   1.690
 4433TIP3    H113305   2.401   4.834   1.751
 4433TIP3    H213306   2.392   4.983   1.731
 4434TIP3   OH213307   1.413   2.162   5.123
 4434TIP3    H113308   1.397   2.133   5.034
 4434TIP3    H213309   1.395   2.085   5.177
 4435TIP3   OH213310   1.589   2.129   2.204
 4435TIP3    H113311   1.531   2.054   2.187
 4435TIP3    H213312   1.675   2.089   2.220
 4436TIP3   OH213313   1.121   0.196   3.499
 4436TIP3    H113314   1.067   0.271   3.520
 4436TIP3    H213315   1.059   0.124   3.486
 4437TIP3   OH213316   4.464   3.412   3.168
 4437TIP3    H113317   4.514   3.394   3.247
 4437TIP3    H213318   4.491   3.344   3.106
 4438TIP3   OH213319   4.966   1.313   3.247
 4438TIP3    H113320   5.016   1.394   3.259
 4438TIP3    H213321   5.005   1.273   3.169
 4439TIP3   OH213322   5.898   4.442   2.603
 4439TIP3    H113323   5.920   4.361   2.558
 4439TIP3    H213324   5.976   4.464   2.654
 4440TIP3   OH213325   6.106   4.536   2.322
 4440TIP3    H113326   6.037   4.493   2.272
 4440TIP3    H213327   6.061   4.604   2.372
 4441TIP3   OH213328   1.046   4.332   4.104
 4441TIP3    H113329   1.079   4.268   4.167
 4441TIP3    H213330   0.959   4.299   4.081
 4442TIP3   OH213331   0.778   4.578   1.618
 4442TIP3    H113332   0.718   4.504   1.623
 4442TIP3    H213333   0.721   4.655   1.617
 4443TIP3   OH213334   0.182   1.441   1.565
 4443TIP3    H113335   0.136   1.412   1.486
 4443TIP3    H213336   0.229   1.520   1.538
 4444TIP3   OH213337   1.347   2.518   1.207
 4444TIP3    H113338   1.367   2.434   1.248
 4444TIP3    H213339   1.304   2.494   1.124
 4445TIP3   OH213340   4.459   0.867   1.557
 4445TIP3    H113341   4.478   0.918   1.635
 4445TIP3    H213342   4.426   0.931   1.494
 4446TIP3   OH213343   1.263   0.425   3.410
 4446TIP3    H113344   1.226   0.373   3.480
 4446TIP3    H213345   1.188   0.469   3.370
 4447TIP3   OH213346   3.793   4.301   2.269
 4447TIP3    H113347   3.779   4.301   2.174
 4447TIP3    H213348   3.855   4.229   2.283
 4448TIP3   OH213349   6.004   0.224   0.258
 4448TIP3    H113350   5.998   0.315   0.287
 4448TIP3    H213351   5.966   0.224   0.170
 4449TIP3   OH213352   5.372   4.530   4.288
 4449TIP3    H113353   5.300   4.577   4.246
 4449TIP3    H213354   5.396   4.463   4.224
 4450TIP3   OH213355   2.721   3.353   1.742
 4450TIP3    H113356   2.808   3.385   1.718
 4450TIP3    H213357   2.715   3.367   1.836
 4451TIP3   OH213358   2.974   5.834   4.791
 4451TIP3    H113359   3.008   5.822   4.702
 4451TIP3    H213360   2.925   5.916   4.786
 4452TIP3   OH213361   3.509   0.800   1.764
 4452TIP3    H113362   3.569   0.862   1.724
 4452TIP3    H213363   3.422   0.839   1.753
 4453TIP3   OH213364   5.313   5.333   2.909
 4453TIP3    H113365   5.287   5.424   2.925
 4453TIP3    H213366   5.408   5.334   2.914
 4454TIP3   OH213367   4.625   5.779   4.814
 4454TIP3    H113368   4.685   5.797   4.886
 4454TIP3    H213369   4.662   5.827   4.740
 4455TIP3   OH213370   1.971   3.532   0.675
 4455TIP3    H113371   2.057   3.492   0.678
 4455TIP3    H213372   1.935   3.507   0.590
 4456TIP3   OH213373   0.271   2.794   0.140
 4456TIP3    H113374   0.272   2.867   0.078
 4456TIP3    H213375   0.325   2.823   0.213
 4457TIP3   OH213376   0.436   5.520   0.489
 4457TIP3    H113377   0.506   5.557   0.543
 4457TIP3    H213378   0.357   5.565   0.518
 4458TIP3   OH213379   3.272   3.433   4.824
 4458TIP3    H113380   3.179   3.454   4.823
 4458TIP3    H213381   3.305   3.470   4.906
 4459TIP3   OH213382   3.115   2.070   2.394
 4459TIP3    H113383   3.197   2.021   2.404
 4459TIP3    H213384   3.046   2.005   2.407
 4460TIP3   OH213385   6.004   2.713   1.465
 4460TIP3    H113386   6.056   2.729   1.544
 4460TIP3    H213387   6.053   2.756   1.395
 4461TIP3   OH213388   4.879   4.486   3.386
 4461TIP3    H113389   4.917   4.523   3.466
 4461TIP3    H213390   4.792   4.525   3.381
 4462TIP3   OH213391   0.972   5.059   0.320
 4462TIP3    H113392   0.946   4.974   0.286
 4462TIP3    H213393   1.068   5.057   0.320
 4463TIP3   OH213394   6.258   3.545   2.416
 4463TIP3    H113395   6.231   3.466   2.463
 4463TIP3    H213396   6.184   3.605   2.426
 4464TIP3   OH213397   5.971   3.846   3.648
 4464TIP3    H113398   5.964   3.919   3.710
 4464TIP3    H213399   5.999   3.772   3.702
 4465TIP3   OH213400   5.009   2.013   1.393
 4465TIP3    H113401   4.915   2.032   1.384
 4465TIP3    H213402   5.043   2.086   1.445
 4466TIP3   OH213403   3.217   3.814   1.511
 4466TIP3    H113404   3.294   3.866   1.535
 4466TIP3    H213405   3.249   3.753   1.445
 4467TIP3   OH213406   1.358   0.512   0.384
 4467TIP3    H113407   1.295   0.582   0.406
 4467TIP3    H213408   1.316   0.464   0.313
 4468TIP3   OH213409   5.324   2.054   0.481
 4468TIP3    H113410   5.301   1.997   0.408
 4468TIP3    H213411   5.241   2.096   0.505
 4469TIP3   OH213412   3.053   5.897   2.323
 4469TIP3    H113413   3.115   5.840   2.369
 4469TIP3    H213414   3.083   5.897   2.232
 4470TIP3   OH213415   1.184   5.135   4.984
 4470TIP3    H113416   1.238   5.101   5.056
 4470TIP3    H213417   1.204   5.077   4.910
 4471TIP3   OH213418   2.095   5.006   2.220
 4471TIP3    H113419   2.052   4.973   2.300
 4471TIP3    H213420   2.142   5.084   2.249
 4472TIP3   OH213421   5.325   4.398   2.257
 4472TIP3    H113422   5.271   4.476   2.269
 4472TIP3    H213423   5.278   4.346   2.191
 4473TIP3   OH213424   4.894   3.210   2.882
 4473TIP3    H113425   4.981   3.193   2.917
 4473TIP3    H213426   4.845   3.246   2.956
 4474TIP3   OH213427   5.074   0.684   0.147
 4474TIP3    H113428   5.169   0.694   0.152
 4474TIP3    H213429   5.059   0.590   0.155
 4475TIP3   OH213430   2.501   1.295   3.751
 4475TIP3    H113431   2.563   1.223   3.760
 4475TIP3    H213432   2.430   1.273   3.810
 4476TIP3   OH213433   6.153   5.862   4.171
 4476TIP3    H113434   6.192   5.893   4.253
 4476TIP3    H213435   6.155   5.766   4.178
 4477TIP3   OH213436   1.130   0.395   1.011
 4477TIP3    H113437   1.140   0.476   1.060
 4477TIP3    H213438   1.062   0.347   1.058
 4478TIP3   OH213439   4.984   3.523   4.529
 4478TIP3    H113440   4.983   3.505   4.623
 4478TIP3    H213441   4.906   3.479   4.496
 4479TIP3   OH213442   4.389   2.999   3.155
 4479TIP3    H113443   4.414   3.082   3.115
 4479TIP3    H213444   4.452   2.935   3.121
 4480TIP3   OH213445   1.975   3.238   0.914
 4480TIP3    H113446   2.059   3.202   0.887
 4480TIP3    H213447   1.932   3.167   0.961
 4481TIP3   OH213448   1.421   4.115   2.343
 4481TIP3    H113449   1.469   4.042   2.380
 4481TIP3    H213450   1.388   4.082   2.259
 4482TIP3   OH213451   5.429   4.770   4.509
 4482TIP3    H113452   5.433   4.840   4.575
 4482TIP3    H213453   5.493   4.796   4.442
 4483TIP3   OH213454   6.294   1.552   2.204
 4483TIP3    H113455   6.247   1.636   2.207
 4483TIP3    H213456   6.232   1.491   2.165
 4484TIP3   OH213457   4.255   3.442   2.660
 4484TIP3    H113458   4.196   3.494   2.715
 4484TIP3    H213459   4.316   3.402   2.721
 4485TIP3   OH213460   6.036   2.213   0.299
 4485TIP3    H113461   6.082   2.274   0.242
 4485TIP3    H213462   6.079   2.222   0.384
 4486TIP3   OH213463   3.821   1.194   0.187
 4486TIP3    H113464   3.818   1.230   0.099
 4486TIP3    H213465   3.855   1.105   0.176
 4487TIP3   OH213466   4.083   1.756   2.942
 4487TIP3    H113467   4.108   1.831   2.997
 4487TIP3    H213468   4.077   1.683   3.004
 4488TIP3   OH213469   4.470   3.386   2.838
 4488TIP3    H113470   4.468   3.473   2.878
 4488TIP3    H213471   4.548   3.386   2.783
 4489TIP3   OH213472   3.712   3.909   3.485
 4489TIP3    H113473   3.744   3.868   3.566
 4489TIP3    H213474   3.643   3.968   3.514
 4490TIP3   OH213475   3.250   3.887   4.270
 4490TIP3    H113476   3.331   3.840   4.252
 4490TIP3    H213477   3.197   3.826   4.320
 4491TIP3   OH213478   5.156   1.210   1.248
 4491TIP3    H113479   5.144   1.302   1.225
 4491TIP3    H213480   5.208   1.174   1.176
 4492TIP3   OH213481   0.085   0.800   0.125
 4492TIP3    H113482   0.144   0.728   0.144
 4492TIP3    H213483   0.135   0.859   0.069
 4493TIP3   OH213484   3.903   4.092   4.448
 4493TIP3    H113485   3.982   4.049   4.413
 4493TIP3    H213486   3.865   4.026   4.506
 4494TIP3   OH213487   2.617   5.677   3.692
 4494TIP3    H113488   2.557   5.608   3.720
 4494TIP3    H213489   2.572   5.719   3.619
 4495TIP3   OH213490   3.694   0.219   2.020
 4495TIP3    H113491   3.626   0.287   2.028
 4495TIP3    H213492   3.656   0.142   2.063
 4496TIP3   OH213493   5.675   0.722   2.877
 4496TIP3    H113494   5.689   0.671   2.957
 4496TIP3    H213495   5.619   0.667   2.823
 4497TIP3   OH213496   0.745   4.890   0.905
 4497TIP3    H113497   0.682   4.941   0.855
 4497TIP3    H213498   0.806   4.955   0.940
 4498TIP3   OH213499   3.313   4.536   3.250
 4498TIP3    H113500   3.347   4.562   3.165
 4498TIP3    H213501   3.239   4.479   3.230
 4499TIP3   OH213502   4.806   6.000   4.925
 4499TIP3    H113503   4.887   5.950   4.931
 4499TIP3    H213504   4.777   6.009   5.016
 4500TIP3   OH213505   0.341   3.269   3.091
 4500TIP3    H113506   0.294   3.186   3.089
 4500TIP3    H213507   0.275   3.335   3.070
 4501TIP3   OH213508   5.919   5.767   4.380
 4501TIP3    H113509   5.895   5.859   4.389
 4501TIP3    H213510   5.835   5.720   4.383
 4502TIP3   OH213511   5.951   5.215   2.628
 4502TIP3    H113512   6.019   5.214   2.561
 4502TIP3    H213513   5.979   5.283   2.689
 4503TIP3   OH213514   0.681   4.482   3.220
 4503TIP3    H113515   0.715   4.418   3.282
 4503TIP3    H213516   0.644   4.552   3.275
 4504TIP3   OH213517   2.538   1.241   0.874
 4504TIP3    H113518   2.582   1.200   0.800
 4504TIP3    H213519   2.545   1.335   0.857
 4505TIP3   OH213520   4.687   0.863   3.909
 4505TIP3    H113521   4.719   0.948   3.940
 4505TIP3    H213522   4.658   0.818   3.989
 4506TIP3   OH213523   5.068   3.026   1.562
 4506TIP3    H113524   5.159   3.018   1.592
 4506TIP3    H213525   5.072   3.007   1.468
 4507TIP3   OH213526   2.628   1.703   1.503
 4507TIP3    H113527   2.602   1.649   1.577
 4507TIP3    H213528   2.572   1.673   1.431
 4508TIP3   OH213529   5.184   1.886   0.331
 4508TIP3    H113530   5.222   1.831   0.398
 4508TIP3    H213531   5.098   1.847   0.314
 4509TIP3   OH213532   4.919   3.319   4.047
 4509TIP3    H113533   4.838   3.347   4.003
 4509TIP3    H213534   4.976   3.291   3.976
 4510TIP3   OH213535   2.598   4.038   1.446
 4510TIP3    H113536   2.616   3.969   1.511
 4510TIP3    H213537   2.542   3.995   1.382
 4511TIP3   OH213538   5.549   1.450   0.458
 4511TIP3    H113539   5.635   1.422   0.428
 4511TIP3    H213540   5.487   1.399   0.406
 4512TIP3   OH213541   5.206   1.588   3.739
 4512TIP3    H113542   5.206   1.673   3.782
 4512TIP3    H213543   5.263   1.533   3.795
 4513TIP3   OH213544   3.176   0.165   1.683
 4513TIP3    H113545   3.222   0.136   1.604
 4513TIP3    H213546   3.228   0.129   1.756
 4514TIP3   OH213547   3.432   0.724   3.079
 4514TIP3    H113548   3.418   0.808   3.122
 4514TIP3    H213549   3.351   0.676   3.094
 4515TIP3   OH213550   2.666   2.513   3.588
 4515TIP3    H113551   2.583   2.546   3.624
 4515TIP3    H213552   2.642   2.431   3.544
 4516TIP3   OH213553   1.846   1.454   1.111
 4516TIP3    H113554   1.799   1.459   1.194
 4516TIP3    H213555   1.806   1.522   1.056
 4517TIP3   OH213556   1.960   3.486   1.262
 4517TIP3    H113557   1.946   3.581   1.265
 4517TIP3    H213558   2.032   3.475   1.200
 4518TIP3   OH213559   3.184   4.680   4.655
 4518TIP3    H113560   3.152   4.591   4.667
 4518TIP3    H213561   3.113   4.736   4.685
 4519TIP3   OH213562   6.239   2.807   3.631
 4519TIP3    H113563   6.206   2.723   3.600
 4519TIP3    H213564   6.234   2.865   3.555
 4520TIP3   OH213565   3.868   0.229   3.381
 4520TIP3    H113566   3.939   0.240   3.318
 4520TIP3    H213567   3.905   0.174   3.450
 4521TIP3   OH213568   1.284   0.556   2.666
 4521TIP3    H113569   1.290   0.469   2.706
 4521TIP3    H213570   1.191   0.570   2.651
 4522TIP3   OH213571   2.798   0.408   4.836
 4522TIP3    H113572   2.886   0.374   4.820
 4522TIP3    H213573   2.811   0.501   4.852
 4523TIP3   OH213574   1.305   4.497   1.673
 4523TIP3    H113575   1.251   4.539   1.606
 4523TIP3    H213576   1.278   4.405   1.672
 4524TIP3   OH213577   1.633   5.355   2.377
 4524TIP3    H113578   1.652   5.262   2.364
 4524TIP3    H213579   1.641   5.393   2.290
 4525TIP3   OH213580   5.200   5.499   2.659
 4525TIP3    H113581   5.292   5.473   2.647
 4525TIP3    H213582   5.180   5.474   2.749
 4526TIP3   OH213583   0.888   0.236   3.211
 4526TIP3    H113584   0.865   0.297   3.142
 4526TIP3    H213585   0.808   0.224   3.262
 4527TIP3   OH213586   3.204   3.142   1.078
 4527TIP3    H113587   3.232   3.204   1.010
 4527TIP3    H213588   3.244   3.059   1.053
 4528TIP3   OH213589   5.968   1.657   3.927
 4528TIP3    H113590   5.979   1.704   4.009
 4528TIP3    H213591   5.882   1.683   3.895
 4529TIP3   OH213592   3.079   0.475   0.396
 4529TIP3    H113593   3.145   0.492   0.328
 4529TIP3    H213594   3.084   0.381   0.411
 4530TIP3   OH213595   4.941   0.368   1.552
 4530TIP3    H113596   4.937   0.310   1.475
 4530TIP3    H213597   4.874   0.332   1.611
 4531TIP3   OH213598   0.465   3.392   4.820
 4531TIP3    H113599   0.412   3.320   4.855
 4531TIP3    H213600   0.407   3.468   4.823
 4532TIP3   OH213601   1.753   0.425   2.241
 4532TIP3    H113602   1.760   0.337   2.204
 4532TIP3    H213603   1.688   0.417   2.311
 4533TIP3   OH213604   0.098   1.865   2.509
 4533TIP3    H113605   0.054   1.781   2.505
 4533TIP3    H213606   0.170   1.857   2.447
 4534TIP3   OH213607   4.480   3.759   0.177
 4534TIP3    H113608   4.549   3.786   0.116
 4534TIP3    H213609   4.446   3.678   0.139
 4535TIP3   OH213610   4.238   0.642   3.400
 4535TIP3    H113611   4.204   0.732   3.397
 4535TIP3    H213612   4.326   0.652   3.438
 4536TIP3   OH213613   3.528   5.125   3.163
 4536TIP3    H113614   3.454   5.133   3.223
 4536TIP3    H213615   3.558   5.035   3.174
 4537TIP3   OH213616   0.755   1.374   3.301
 4537TIP3    H113617   0.727   1.369   3.210
 4537TIP3    H213618   0.836   1.424   3.299
 4538TIP3   OH213619   2.908   0.183   1.010
 4538TIP3    H113620   2.845   0.119   1.042
 4538TIP3    H213621   2.879   0.204   0.922
 4539TIP3   OH213622   5.881   0.467   2.991
 4539TIP3    H113623   5.925   0.545   3.025
 4539TIP3    H213624   5.922   0.394   3.039
 4540TIP3   OH213625   1.587   5.275   0.932
 4540TIP3    H113626   1.494   5.256   0.921
 4540TIP3    H213627   1.632   5.212   0.876
 4541TIP3   OH213628   5.853   5.902   4.133
 4541TIP3    H113629   5.784   5.926   4.194
 4541TIP3    H213630   5.932   5.895   4.187
 4542TIP3   OH213631   5.671   4.806   1.989
 4542TIP3    H113632   5.610   4.830   2.059
 4542TIP3    H213633   5.707   4.722   2.016
 4543TIP3   OH213634   3.460   0.333   1.993
 4543TIP3    H113635   3.437   0.353   1.902
 4543TIP3    H213636   3.428   0.244   2.006
 4544TIP3   OH213637   5.207   4.105   0.519
 4544TIP3    H113638   5.298   4.122   0.542
 4544TIP3    H213639   5.157   4.169   0.570
 4545TIP3   OH213640   4.515   2.469   3.652
 4545TIP3    H113641   4.506   2.559   3.681
 4545TIP3    H213642   4.500   2.416   3.730
 4546TIP3   OH213643   0.258   3.059   2.023
 4546TIP3    H113644   0.333   3.003   2.001
 4546TIP3    H213645   0.292   3.119   2.089
 4547TIP3   OH213646   0.110   5.090   2.005
 4547TIP3    H113647   0.071   5.143   2.075
 4547TIP3    H213648   0.091   4.999   2.030
 4548TIP3   OH213649   4.599   1.139   1.749
 4548TIP3    H113650   4.587   1.139   1.654
 4548TIP3    H213651   4.632   1.052   1.770
 4549TIP3   OH213652   2.962   3.692   3.247
 4549TIP3    H113653   2.960   3.618   3.309
 4549TIP3    H213654   2.966   3.651   3.161
 4550TIP3   OH213655   3.862   4.063   0.962
 4550TIP3    H113656   3.923   3.988   0.967
 4550TIP3    H213657   3.800   4.038   0.893
 4551TIP3   OH213658   2.793   1.945   1.402
 4551TIP3    H113659   2.735   1.872   1.426
 4551TIP3    H213660   2.784   1.952   1.307
 4552TIP3   OH213661   6.168   3.362   4.864
 4552TIP3    H113662   6.202   3.320   4.943
 4552TIP3    H213663   6.196   3.306   4.793
 4553TIP3   OH213664   2.938   5.405   0.172
 4553TIP3    H113665   2.899   5.487   0.142
 4553TIP3    H213666   3.000   5.382   0.104
 4554TIP3   OH213667   5.212   1.384   0.127
 4554TIP3    H113668   5.195   1.371   0.221
 4554TIP3    H213669   5.228   1.478   0.118
 4555TIP3   OH213670   4.457   2.872   2.599
 4555TIP3    H113671   4.502   2.936   2.654
 4555TIP3    H213672   4.507   2.792   2.609
 4556TIP3   OH213673   1.703   2.210   1.264
 4556TIP3    H113674   1.705   2.256   1.180
 4556TIP3    H213675   1.612   2.184   1.275
 4557TIP3   OH213676   1.731   4.425   3.096
 4557TIP3    H113677   1.685   4.493   3.047
 4557TIP3    H213678   1.664   4.388   3.154
 4558TIP3   OH213679   0.058   1.531   2.921
 4558TIP3    H113680   0.079   1.624   2.922
 4558TIP3    H213681   0.089   1.499   3.006
 4559TIP3   OH213682   3.477   0.895   3.469
 4559TIP3    H113683   3.567   0.867   3.452
 4559TIP3    H213684   3.426   0.851   3.401
 4560TIP3   OH213685   4.930   3.825   4.476
 4560TIP3    H113686   4.881   3.899   4.441
 4560TIP3    H213687   4.899   3.750   4.425
 4561TIP3   OH213688   1.249   1.235   0.028
 4561TIP3    H113689   1.249   1.143   0.004
 4561TIP3    H213690   1.337   1.266   0.005
 4562TIP3   OH213691   4.011   2.702   1.508
 4562TIP3    H113692   4.031   2.779   1.562
 4562TIP3    H213693   3.934   2.728   1.458
 4563TIP3   OH213694   6.016   3.767   4.480
 4563TIP3    H113695   6.059   3.703   4.424
 4563TIP3    H213696   6.075   3.843   4.480
 4564TIP3   OH213697   4.291   0.003   2.429
 4564TIP3    H113698   4.380   0.015   2.396
 4564TIP3    H213699   4.295   0.029   2.521
 4565TIP3   OH213700   3.747   0.213   4.700
 4565TIP3    H113701   3.654   0.200   4.683
 4565TIP3    H213702   3.756   0.307   4.714
 4566TIP3   OH213703   1.379   1.816   0.678
 4566TIP3    H113704   1.314   1.746   0.685
 4566TIP3    H213705   1.441   1.797   0.748
 4567TIP3   OH213706   0.135   0.495   4.364
 4567TIP3    H113707   0.120   0.589   4.353
 4567TIP3    H213708   0.065   0.466   4.422
 4568TIP3   OH213709   3.367   5.339   1.146
 4568TIP3    H113710   3.455   5.303   1.155
 4568TIP3    H213711   3.361   5.407   1.214
 4569TIP3   OH213712   3.891   5.071   1.671
 4569TIP3    H113713   3.942   5.017   1.731
 4569TIP3    H213714   3.807   5.026   1.663
 4570TIP3   OH213715   3.730   3.619   4.557
 4570TIP3    H113716   3.644   3.601   4.520
 4570TIP3    H213717   3.747   3.546   4.616
 4571TIP3   OH213718   5.546   0.442   0.723
 4571TIP3    H113719   5.575   0.532   0.706
 4571TIP3    H213720   5.459   0.438   0.683
 4572TIP3   OH213721   2.672   5.712   4.999
 4572TIP3    H113722   2.735   5.767   4.952
 4572TIP3    H213723   2.719   5.684   5.077
 4573TIP3   OH213724   2.183   2.904   4.615
 4573TIP3    H113725   2.154   2.823   4.657
 4573TIP3    H213726   2.117   2.922   4.549
 4574TIP3   OH213727   3.594   2.061   4.076
 4574TIP3    H113728   3.516   2.070   4.131
 4574TIP3    H213729   3.668   2.067   4.138
 4575TIP3   OH213730   6.114   0.542   1.744
 4575TIP3    H113731   6.062   0.518   1.667
 4575TIP3    H213732   6.202   0.510   1.724
 4576TIP3   OH213733   3.273   3.721   2.375
 4576TIP3    H113734   3.321   3.639   2.363
 4576TIP3    H213735   3.341   3.789   2.376
 4577TIP3   OH213736   2.649   1.611   2.206
 4577TIP3    H113737   2.568   1.662   2.215
 4577TIP3    H213738   2.700   1.659   2.141
 4578TIP3   OH213739   2.358   2.992   0.507
 4578TIP3    H113740   2.334   2.958   0.593
 4578TIP3    H213741   2.400   2.918   0.463
 4579TIP3   OH213742   4.530   4.184   0.295
 4579TIP3    H113743   4.457   4.133   0.260
 4579TIP3    H213744   4.507   4.198   0.387
 4580TIP3   OH213745   5.713   3.128   4.402
 4580TIP3    H113746   5.744   3.171   4.322
 4580TIP3    H213747   5.790   3.081   4.434
 4581TIP3   OH213748   2.573   4.674   4.466
 4581TIP3    H113749   2.559   4.605   4.530
 4581TIP3    H213750   2.584   4.627   4.383
 4582TIP3   OH213751   3.606   0.267   4.381
 4582TIP3    H113752   3.554   0.313   4.315
 4582TIP3    H213753   3.676   0.328   4.404
 4583TIP3   OH213754   2.668   5.889   0.417
 4583TIP3    H113755   2.589   5.925   0.458
 4583TIP3    H213756   2.678   5.802   0.457
 4584TIP3   OH213757   1.605   4.821   5.122
 4584TIP3    H113758   1.602   4.901   5.070
 4584TIP3    H213759   1.634   4.849   5.209
 4585TIP3   OH213760   4.594   2.403   2.432
 4585TIP3    H113761   4.659   2.386   2.499
 4585TIP3    H213762   4.545   2.322   2.424
 4586TIP3   OH213763   1.971   2.796   3.386
 4586TIP3    H113764   2.042   2.809   3.323
 4586TIP3    H213765   1.929   2.883   3.392
 4587TIP3   OH213766   5.440   5.005   3.438
 4587TIP3    H113767   5.439   5.026   3.345
 4587TIP3    H213768   5.352   4.973   3.457
 4588TIP3   OH213769   5.215   1.109   4.360
 4588TIP3    H113770   5.179   1.196   4.371
 4588TIP3    H213771   5.308   1.117   4.383
 4589TIP3   OH213772   4.635   0.170   1.537
 4589TIP3    H113773   4.615   0.107   1.468
 4589TIP3    H213774   4.645   0.116   1.616
 4590TIP3   OH213775   5.904   4.382   5.131
 4590TIP3    H113776   5.907   4.353   5.040
 4590TIP3    H213777   5.867   4.470   5.127
 4591TIP3   OH213778   4.324   4.146   3.696
 4591TIP3    H113779   4.262   4.163   3.626
 4591TIP3    H213780   4.383   4.079   3.661
 4592TIP3   OH213781   3.108   4.351   5.192
 4592TIP3    H113782   3.054   4.286   5.147
 4592TIP3    H213783   3.197   4.319   5.182
 4593TIP3   OH213784   0.281   4.943   4.627
 4593TIP3    H113785   0.254   4.856   4.598
 4593TIP3    H213786   0.351   4.968   4.566
 4594TIP3   OH213787   4.922   3.988   0.120
 4594TIP3    H113788   4.908   4.052   0.189
 4594TIP3    H213789   4.986   4.028   0.062
 4595TIP3   OH213790   2.410   2.639   1.042
 4595TIP3    H113791   2.473   2.622   0.972
 4595TIP3    H213792   2.440   2.587   1.116
 4596TIP3   OH213793   2.963   4.144   4.987
 4596TIP3    H113794   2.913   4.196   4.925
 4596TIP3    H213795   2.987   4.065   4.939
 4597TIP3   OH213796   5.440   3.414   4.470
 4597TIP3    H113797   5.425   3.506   4.495
 4597TIP3    H213798   5.424   3.412   4.376
 4598TIP3   OH213799   1.109   3.609   4.852
 4598TIP3    H113800   1.132   3.523   4.887
 4598TIP3    H213801   1.115   3.668   4.927
 4599TIP3   OH213802   5.080   5.184   2.962
 4599TIP3    H113803   5.107   5.108   3.013
 4599TIP3    H213804   5.162   5.230   2.943
 4600TIP3   OH213805   5.025   2.070   3.427
 4600TIP3    H113806   5.056   2.142   3.371
 4600TIP3    H213807   5.053   2.095   3.515
 4601TIP3   OH213808   1.089   2.099   1.867
 4601TIP3    H113809   1.153   2.084   1.797
 4601TIP3    H213810   1.014   2.139   1.822
 4602TIP3   OH213811   1.471   5.766   0.212
 4602TIP3    H113812   1.502   5.733   0.129
 4602TIP3    H213813   1.489   5.696   0.275
 4603TIP3   OH213814   5.121   1.927   0.825
 4603TIP3    H113815   5.068   1.856   0.859
 4603TIP3    H213816   5.076   2.007   0.853
 4604TIP3   OH213817   2.933   2.792   1.878
 4604TIP3    H113818   2.860   2.827   1.827
 4604TIP3    H213819   2.983   2.740   1.816
 4605TIP3   OH213820   1.760   3.158   2.464
 4605TIP3    H113821   1.727   3.216   2.395
 4605TIP3    H213822   1.704   3.175   2.539
 4606TIP3   OH213823   2.299   1.650   5.023
 4606TIP3    H113824   2.315   1.625   5.114
 4606TIP3    H213825   2.204   1.653   5.016
 4607TIP3   OH213826   1.302   0.900   3.405
 4607TIP3    H113827   1.275   0.861   3.321
 4607TIP3    H213828   1.290   0.994   3.392
 4608TIP3   OH213829   1.207   2.132   2.289
 4608TIP3    H113830   1.237   2.216   2.323
 4608TIP3    H213831   1.244   2.067   2.349
 4609TIP3   OH213832   4.733   2.066   0.734
 4609TIP3    H113833   4.658   2.098   0.784
 4609TIP3    H213834   4.736   2.121   0.656
 4610TIP3   OH213835   5.997   1.137   2.859
 4610TIP3    H113836   6.062   1.206   2.847
 4610TIP3    H213837   6.000   1.087   2.777
 4611TIP3   OH213838   2.240   4.500   3.278
 4611TIP3    H113839   2.222   4.541   3.362
 4611TIP3    H213840   2.153   4.473   3.245
 4612TIP3   OH213841   3.521   1.838   4.596
 4612TIP3    H113842   3.602   1.863   4.640
 4612TIP3    H213843   3.471   1.789   4.662
 4613TIP3   OH213844   6.054   3.845   1.142
 4613TIP3    H113845   5.980   3.810   1.092
 4613TIP3    H213846   6.121   3.864   1.076
 4614TIP3   OH213847   0.520   1.793   1.349
 4614TIP3    H113848   0.575   1.717   1.368
 4614TIP3    H213849   0.551   1.861   1.410
 4615TIP3   OH213850   3.415   0.604   1.182
 4615TIP3    H113851   3.460   0.521   1.163
 4615TIP3    H213852   3.397   0.642   1.096
 4616TIP3   OH213853   0.037   5.746   3.412
 4616TIP3    H113854   0.109   5.796   3.452
 4616TIP3    H213855   0.002   5.806   3.346
 4617TIP3   OH213856   3.051   4.820   2.596
 4617TIP3    H113857   3.117   4.865   2.648
 4617TIP3    H213858   2.968   4.839   2.640
 4618TIP3   OH213859   2.152   4.293   0.954
 4618TIP3    H113860   2.188   4.379   0.973
 4618TIP3    H213861   2.228   4.237   0.940
 4619TIP3   OH213862   1.628   5.719   4.473
 4619TIP3    H113863   1.570   5.795   4.465
 4619TIP3    H213864   1.619   5.692   4.565
 4620TIP3   OH213865   0.323   1.173   3.796
 4620TIP3    H113866   0.378   1.099   3.769
 4620TIP3    H213867   0.347   1.189   3.888
 4621TIP3   OH213868   5.131   5.093   0.717
 4621TIP3    H113869   5.074   5.035   0.768
 4621TIP3    H213870   5.072   5.134   0.654
 4622TIP3   OH213871   1.051   0.697   1.486
 4622TIP3    H113872   1.073   0.681   1.395
 4622TIP3    H213873   1.133   0.727   1.526
 4623TIP3   OH213874   4.468   1.640   0.018
 4623TIP3    H113875   4.395   1.641  -0.044
 4623TIP3    H213876   4.426   1.643   0.104
 4624TIP3   OH213877   3.375   3.992   0.729
 4624TIP3    H113878   3.330   3.910   0.710
 4624TIP3    H213879   3.395   4.029   0.643
 4625TIP3   OH213880   2.355   1.587   3.165
 4625TIP3    H113881   2.351   1.682   3.155
 4625TIP3    H213882   2.265   1.561   3.186
 4626TIP3   OH213883   4.716   3.685   0.512
 4626TIP3    H113884   4.719   3.772   0.472
 4626TIP3    H213885   4.805   3.652   0.503
 4627TIP3   OH213886   2.764   5.752   2.581
 4627TIP3    H113887   2.778   5.684   2.648
 4627TIP3    H213888   2.812   5.720   2.505
 4628TIP3   OH213889   1.835   4.092   3.914
 4628TIP3    H113890   1.899   4.158   3.888
 4628TIP3    H213891   1.750   4.129   3.889
 4629TIP3   OH213892   0.269   1.800   3.685
 4629TIP3    H113893   0.264   1.706   3.704
 4629TIP3    H213894   0.237   1.842   3.765
 4630TIP3   OH213895   3.704   2.353   0.042
 4630TIP3    H113896   3.680   2.365  -0.050
 4630TIP3    H213897   3.780   2.409   0.055
 4631TIP3   OH213898   0.054   0.720   1.433
 4631TIP3    H113899   0.119   0.790   1.433
 4631TIP3    H213900   0.013   0.725   1.519
 4632TIP3   OH213901   3.726   4.298   0.884
 4632TIP3    H113902   3.773   4.231   0.933
 4632TIP3    H213903   3.785   4.322   0.813
 4633TIP3   OH213904   0.614   1.485   0.123
 4633TIP3    H113905   0.657   1.483   0.208
 4633TIP3    H213906   0.672   1.537   0.067
 4634TIP3   OH213907   2.886   4.699   4.420
 4634TIP3    H113908   2.845   4.622   4.380
 4634TIP3    H213909   2.970   4.707   4.376
 4635TIP3   OH213910   5.779   3.112   1.103
 4635TIP3    H113911   5.742   3.197   1.078
 4635TIP3    H213912   5.809   3.125   1.193
 4636TIP3   OH213913   4.903   2.803   0.723
 4636TIP3    H113914   4.959   2.834   0.652
 4636TIP3    H213915   4.865   2.721   0.689
 4637TIP3   OH213916   0.137   5.551   0.509
 4637TIP3    H113917   0.080   5.585   0.441
 4637TIP3    H213918   0.122   5.457   0.508
 4638TIP3   OH213919   6.348   2.643   3.972
 4638TIP3    H113920   6.366   2.735   3.951
 4638TIP3    H213921   6.255   2.632   3.952
 4639TIP3   OH213922   5.892   1.484   2.894
 4639TIP3    H113923   5.918   1.568   2.931
 4639TIP3    H213924   5.971   1.429   2.903
 4640TIP3   OH213925   3.159   5.204   2.432
 4640TIP3    H113926   3.130   5.135   2.372
 4640TIP3    H213927   3.195   5.272   2.376
 4641TIP3   OH213928   0.596   4.617   4.680
 4641TIP3    H113929   0.682   4.604   4.720
 4641TIP3    H213930   0.615   4.634   4.588
 4642TIP3   OH213931   4.807   4.470   1.637
 4642TIP3    H113932   4.726   4.442   1.596
 4642TIP3    H213933   4.872   4.468   1.567
 4643TIP3   OH213934   4.288   5.168   3.730
 4643TIP3    H113935   4.382   5.156   3.720
 4643TIP3    H213936   4.277   5.210   3.815
 4644TIP3   OH213937   3.617   1.169   2.223
 4644TIP3    H113938   3.691   1.123   2.182
 4644TIP3    H213939   3.651   1.199   2.307
 4645TIP3   OH213940   1.114   5.808   1.140
 4645TIP3    H113941   1.157   5.794   1.056
 4645TIP3    H213942   1.021   5.820   1.119
 4646TIP3   OH213943   1.726   1.119   0.391
 4646TIP3    H113944   1.785   1.169   0.449
 4646TIP3    H213945   1.731   1.029   0.423
 4647TIP3   OH213946   2.558   5.644   3.166
 4647TIP3    H113947   2.486   5.602   3.119
 4647TIP3    H213948   2.573   5.726   3.119
 4648TIP3   OH213949   4.653   4.672   5.209
 4648TIP3    H113950   4.570   4.631   5.185
 4648TIP3    H213951   4.652   4.756   5.162
 4649TIP3   OH213952   1.534   1.768   2.509
 4649TIP3    H113953   1.469   1.710   2.470
 4649TIP3    H213954   1.599   1.708   2.546
 4650TIP3   OH213955   0.344   1.600   1.201
 4650TIP3    H113956   0.293   1.666   1.155
 4650TIP3    H213957   0.415   1.650   1.243
 4651TIP3   OH213958   5.417   3.903   3.752
 4651TIP3    H113959   5.461   3.975   3.708
 4651TIP3    H213960   5.379   3.942   3.831
 4652TIP3   OH213961   5.574   2.514   4.472
 4652TIP3    H113962   5.600   2.514   4.380
 4652TIP3    H213963   5.513   2.587   4.480
 4653TIP3   OH213964   5.780   3.621   4.458
 4653TIP3    H113965   5.853   3.681   4.472
 4653TIP3    H213966   5.816   3.535   4.479
 4654TIP3   OH213967   2.036   4.234   3.513
 4654TIP3    H113968   2.126   4.256   3.491
 4654TIP3    H213969   1.984   4.274   3.444
 4655TIP3   OH213970   0.059   1.881   2.998
 4655TIP3    H113971  -0.006   1.863   2.930
 4655TIP3    H213972   0.013   1.936   3.061
 4656TIP3   OH213973   1.833   3.816   2.202
 4656TIP3    H113974   1.880   3.733   2.201
 4656TIP3    H213975   1.900   3.882   2.183
 4657TIP3   OH213976   2.779   5.253   3.945
 4657TIP3    H113977   2.773   5.170   3.896
 4657TIP3    H213978   2.757   5.229   4.035
 4658TIP3   OH213979   2.521   4.049   2.148
 4658TIP3    H113980   2.553   4.007   2.067
 4658TIP3    H213981   2.473   4.126   2.117
 4659TIP3   OH213982   1.872   2.524   3.303
 4659TIP3    H113983   1.913   2.607   3.326
 4659TIP3    H213984   1.779   2.546   3.290
 4660TIP3   OH213985   2.747   4.762   5.130
 4660TIP3    H113986   2.740   4.853   5.158
 4660TIP3    H213987   2.839   4.739   5.144
 4661TIP3   OH213988   4.664   4.167   3.927
 4661TIP3    H113989   4.673   4.172   3.832
 4661TIP3    H213990   4.569   4.159   3.942
 4662TIP3   OH213991   3.308   1.569   1.341
 4662TIP3    H113992   3.272   1.579   1.253
 4662TIP3    H213993   3.236   1.592   1.399
 4663TIP3   OH213994   5.098   2.740   4.508
 4663TIP3    H113995   5.069   2.731   4.417
 4663TIP3    H213996   5.086   2.653   4.546
 4664TIP3   OH213997   1.494   2.843   0.106
 4664TIP3    H113998   1.413   2.823   0.059
 4664TIP3    H213999   1.473   2.919   0.159
 4665TIP3   OH214000   4.374   4.552   2.496
 4665TIP3    H114001   4.465   4.580   2.506
 4665TIP3    H214002   4.350   4.516   2.582
 4666TIP3   OH214003   5.505   4.871   4.868
 4666TIP3    H114004   5.444   4.876   4.942
 4666TIP3    H214005   5.510   4.778   4.847
 4667TIP3   OH214006   1.893   1.886   0.289
 4667TIP3    H114007   1.924   1.977   0.288
 4667TIP3    H214008   1.863   1.870   0.199
 4668TIP3   OH214009   3.348   4.053   4.825
 4668TIP3    H114010   3.403   4.029   4.751
 4668TIP3    H214011   3.332   4.147   4.814
 4669TIP3   OH214012   5.610   2.237   4.601
 4669TIP3    H114013   5.625   2.287   4.521
 4669TIP3    H214014   5.693   2.192   4.616
 4670TIP3   OH214015   3.034   4.216   3.830
 4670TIP3    H114016   3.066   4.221   3.920
 4670TIP3    H214017   3.103   4.256   3.778
 4671TIP3   OH214018   2.170   2.398   4.112
 4671TIP3    H114019   2.191   2.317   4.158
 4671TIP3    H214020   2.236   2.405   4.044
 4672TIP3   OH214021   4.806   1.802   0.632
 4672TIP3    H114022   4.717   1.767   0.630
 4672TIP3    H214023   4.794   1.894   0.657
 4673TIP3   OH214024   2.700   5.773   1.403
 4673TIP3    H114025   2.706   5.715   1.327
 4673TIP3    H214026   2.724   5.717   1.477
 4674TIP3   OH214027   3.690   1.921   3.863
 4674TIP3    H114028   3.634   1.844   3.864
 4674TIP3    H214029   3.651   1.980   3.927
 4675TIP3   OH214030   3.209   0.995   4.340
 4675TIP3    H114031   3.186   0.984   4.432
 4675TIP3    H214032   3.129   0.973   4.292
 4676TIP3   OH214033   5.344   4.633   0.432
 4676TIP3    H114034   5.389   4.715   0.452
 4676TIP3    H214035   5.369   4.573   0.502
 4677TIP3   OH214036   2.258   3.436   0.651
 4677TIP3    H114037   2.325   3.389   0.701
 4677TIP3    H214038   2.218   3.368   0.596
 4678TIP3   OH214039   1.596   5.409   3.596
 4678TIP3    H114040   1.607   5.384   3.688
 4678TIP3    H214041   1.520   5.359   3.567
 4679TIP3   OH214042   6.155   2.363   1.720
 4679TIP3    H114043   6.067   2.391   1.694
 4679TIP3    H214044   6.213   2.402   1.655
 4680TIP3   OH214045   0.869   3.467   5.124
 4680TIP3    H114046   0.785   3.504   5.097
 4680TIP3    H214047   0.926   3.477   5.048
 4681TIP3   OH214048   2.466   0.547   2.771
 4681TIP3    H114049   2.504   0.460   2.789
 4681TIP3    H214050   2.372   0.534   2.783
 4682TIP3   OH214051   4.958   2.940   4.695
 4682TIP3    H114052   4.948   2.861   4.747
 4682TIP3    H214053   5.000   2.910   4.614
 4683TIP3   OH214054   5.997   5.637   3.972
 4683TIP3    H114055   6.066   5.610   4.033
 4683TIP3    H214056   5.991   5.732   3.984
 4684TIP3   OH214057   3.683   3.242   0.638
 4684TIP3    H114058   3.717   3.330   0.620
 4684TIP3    H214059   3.597   3.242   0.595
 4685TIP3   OH214060   6.007   3.402   4.004
 4685TIP3    H114061   6.076   3.428   3.943
 4685TIP3    H214062   5.931   3.454   3.978
 4686TIP3   OH214063   0.504   0.511   4.681
 4686TIP3    H114064   0.429   0.544   4.730
 4686TIP3    H214065   0.469   0.440   4.627
 4687TIP3   OH214066   2.210   1.780   4.219
 4687TIP3    H114067   2.168   1.708   4.266
 4687TIP3    H214068   2.179   1.771   4.129
 4688TIP3   OH214069   6.126   5.822   4.618
 4688TIP3    H114070   6.161   5.787   4.700
 4688TIP3    H214071   6.036   5.848   4.640
 4689TIP3   OH214072   2.263   2.279   1.510
 4689TIP3    H114073   2.314   2.283   1.591
 4689TIP3    H214074   2.252   2.371   1.484
 4690TIP3   OH214075   0.116   2.638   3.457
 4690TIP3    H114076   0.121   2.726   3.419
 4690TIP3    H214077   0.151   2.647   3.545
 4691TIP3   OH214078   4.330   5.434   0.560
 4691TIP3    H114079   4.338   5.522   0.598
 4691TIP3    H214080   4.401   5.430   0.496
 4692TIP3   OH214081   2.981   1.263   4.640
 4692TIP3    H114082   2.974   1.318   4.718
 4692TIP3    H214083   3.018   1.321   4.573
 4693TIP3   OH214084   0.935   3.828   3.129
 4693TIP3    H114085   0.897   3.767   3.192
 4693TIP3    H214086   1.029   3.808   3.130
 4694TIP3   OH214087   3.609   0.997   1.007
 4694TIP3    H114088   3.688   0.959   1.044
 4694TIP3    H214089   3.587   0.940   0.933
 4695TIP3   OH214090   2.399   3.671   0.029
 4695TIP3    H114091   2.462   3.691   0.098
 4695TIP3    H214092   2.352   3.594   0.062
 4696TIP3   OH214093   1.234   0.187   3.915
 4696TIP3    H114094   1.149   0.173   3.956
 4696TIP3    H214095   1.237   0.126   3.842
 4697TIP3   OH214096   0.770   2.875   3.638
 4697TIP3    H114097   0.753   2.963   3.603
 4697TIP3    H214098   0.819   2.891   3.719
 4698TIP3   OH214099   6.006   4.056   5.063
 4698TIP3    H114100   6.073   4.015   5.007
 4698TIP3    H214101   5.962   4.119   5.006
 4699TIP3   OH214102   4.405   4.902   1.406
 4699TIP3    H114103   4.470   4.942   1.350
 4699TIP3    H214104   4.450   4.827   1.446
 4700TIP3   OH214105   3.655   2.495   0.447
 4700TIP3    H114106   3.637   2.404   0.422
 4700TIP3    H214107   3.625   2.501   0.537
 4701TIP3   OH214108   1.016   2.538   0.504
 4701TIP3    H114109   0.967   2.512   0.426
 4701TIP3    H214110   1.079   2.467   0.517
 4702TIP3   OH214111   4.971   3.261   0.379
 4702TIP3    H114112   4.975   3.338   0.322
 4702TIP3    H214113   4.915   3.287   0.451
 4703TIP3   OH214114   1.065   0.521   3.010
 4703TIP3    H114115   0.985   0.555   2.970
 4703TIP3    H214116   1.134   0.578   2.977
 4704TIP3   OH214117   4.902   3.097   4.413
 4704TIP3    H114118   4.988   3.062   4.437
 4704TIP3    H214119   4.918   3.190   4.396
 4705TIP3   OH214120   1.287   3.207   1.377
 4705TIP3    H114121   1.358   3.192   1.314
 4705TIP3    H214122   1.305   3.144   1.447
 4706TIP3   OH214123   5.903   0.724   1.565
 4706TIP3    H114124   5.834   0.789   1.574
 4706TIP3    H214125   5.873   0.649   1.616
 4707TIP3   OH214126   1.476   2.445   4.245
 4707TIP3    H114127   1.569   2.450   4.266
 4707TIP3    H214128   1.468   2.493   4.162
 4708TIP3   OH214129   3.463   3.554   4.473
 4708TIP3    H114130   3.409   3.605   4.533
 4708TIP3    H214131   3.447   3.463   4.498
 4709TIP3   OH214132   3.367   3.440   3.974
 4709TIP3    H114133   3.367   3.529   3.939
 4709TIP3    H214134   3.388   3.450   4.067
 4710TIP3   OH214135   0.452   2.280   0.741
 4710TIP3    H114136   0.452   2.188   0.715
 4710TIP3    H214137   0.544   2.304   0.744
 4711TIP3   OH214138   2.880   5.862   3.438
 4711TIP3    H114139   2.920   5.777   3.457
 4711TIP3    H214140   2.923   5.922   3.499
 4712TIP3   OH214141   5.043   3.851   5.021
 4712TIP3    H114142   5.047   3.836   5.115
 4712TIP3    H214143   4.994   3.932   5.012
 4713TIP3   OH214144   5.020   1.850   2.952
 4713TIP3    H114145   5.087   1.916   2.969
 4713TIP3    H214146   5.066   1.781   2.904
 4714TIP3   OH214147   5.241   3.089   4.668
 4714TIP3    H114148   5.233   3.181   4.643
 4714TIP3    H214149   5.160   3.070   4.715
 4715TIP3   OH214150   2.598   1.395   0.093
 4715TIP3    H114151   2.630   1.485   0.107
 4715TIP3    H214152   2.538   1.380   0.166
 4716TIP3   OH214153   2.987   1.487   1.296
 4716TIP3    H114154   3.045   1.453   1.363
 4716TIP3    H214155   2.995   1.583   1.304
 4717TIP3   OH214156   2.091   1.256   3.714
 4717TIP3    H114157   2.096   1.290   3.803
 4717TIP3    H214158   2.181   1.236   3.690
 4718TIP3   OH214159   0.549   1.354   2.208
 4718TIP3    H114160   0.522   1.312   2.127
 4718TIP3    H214161   0.641   1.379   2.193
 4719TIP3   OH214162   1.002   3.948   1.988
 4719TIP3    H114163   1.061   3.874   1.996
 4719TIP3    H214164   0.917   3.909   1.968
 4720TIP3   OH214165   4.866   4.513   0.278
 4720TIP3    H114166   4.796   4.567   0.315
 4720TIP3    H214167   4.943   4.535   0.330
 4721TIP3   OH214168   4.285   1.878   3.244
 4721TIP3    H114169   4.365   1.856   3.195
 4721TIP3    H214170   4.305   1.853   3.334
 4722TIP3   OH214171   0.796   1.522   1.193
 4722TIP3    H114172   0.713   1.483   1.168
 4722TIP3    H214173   0.858   1.449   1.193
 4723TIP3   OH214174   3.815   5.013   3.360
 4723TIP3    H114175   3.760   4.950   3.312
 4723TIP3    H214176   3.866   5.057   3.293
 4724TIP3   OH214177   1.115   1.513   0.903
 4724TIP3    H114178   1.061   1.435   0.914
 4724TIP3    H214179   1.125   1.548   0.991
 4725TIP3   OH214180   2.097   0.976   4.719
 4725TIP3    H114181   2.144   0.923   4.655
 4725TIP3    H214182   2.136   0.953   4.803
 4726TIP3   OH214183   2.003   3.175   2.063
 4726TIP3    H114184   1.927   3.231   2.082
 4726TIP3    H214185   2.070   3.236   2.031
 4727TIP3   OH214186   3.683   4.896   2.796
 4727TIP3    H114187   3.591   4.875   2.812
 4727TIP3    H214188   3.730   4.815   2.817
 4728TIP3   OH214189   4.419   5.150   3.412
 4728TIP3    H114190   4.475   5.220   3.443
 4728TIP3    H214191   4.467   5.111   3.339
 4729TIP3   OH214192   6.217   3.147   2.144
 4729TIP3    H114193   6.298   3.175   2.188
 4729TIP3    H214194   6.247   3.085   2.078
 4730TIP3   OH214195   4.192   5.880   3.468
 4730TIP3    H114196   4.188   5.803   3.411
 4730TIP3    H214197   4.250   5.941   3.422
 4731TIP3   OH214198   2.231   3.924   0.297
 4731TIP3    H114199   2.189   3.893   0.377
 4731TIP3    H214200   2.165   3.977   0.253
 4732TIP3   OH214201   2.108   2.755   1.258
 4732TIP3    H114202   2.127   2.684   1.196
 4732TIP3    H214203   2.051   2.814   1.211
 4733TIP3   OH214204   0.420   4.254   0.101
 4733TIP3    H114205   0.373   4.234   0.182
 4733TIP3    H214206   0.387   4.189   0.038
 4734TIP3   OH214207   1.601   1.396   1.305
 4734TIP3    H114208   1.623   1.435   1.390
 4734TIP3    H214209   1.549   1.319   1.327
 4735TIP3   OH214210   3.505   5.988   3.723
 4735TIP3    H114211   3.463   6.010   3.806
 4735TIP3    H214212   3.587   5.946   3.748
 4736TIP3   OH214213   4.922   3.962   3.081
 4736TIP3    H114214   4.913   3.933   2.990
 4736TIP3    H214215   4.912   3.883   3.133
 4737TIP3   OH214216   3.611   2.510   0.723
 4737TIP3    H114217   3.620   2.502   0.818
 4737TIP3    H214218   3.522   2.542   0.709
 4738TIP3   OH214219   5.876   2.614   1.844
 4738TIP3    H114220   5.867   2.619   1.749
 4738TIP3    H214221   5.802   2.663   1.879
 4739TIP3   OH214222   0.303   0.250   4.004
 4739TIP3    H114223   0.276   0.159   4.017
 4739TIP3    H214224   0.225   0.301   4.026
 4740TIP3   OH214225   2.667   1.261   4.994
 4740TIP3    H114226   2.727   1.187   4.990
 4740TIP3    H214227   2.636   1.262   5.084
 4741TIP3   OH214228   0.194   5.449   1.354
 4741TIP3    H114229   0.165   5.539   1.342
 4741TIP3    H214230   0.274   5.456   1.407
 4742TIP3   OH214231   2.991   3.025   3.130
 4742TIP3    H114232   3.023   2.951   3.183
 4742TIP3    H214233   3.066   3.051   3.077
 4743TIP3   OH214234   3.498   1.943   5.130
 4743TIP3    H114235   3.590   1.970   5.128
 4743TIP3    H214236   3.473   1.938   5.038
 4744TIP3   OH214237   0.609   5.869   1.509
 4744TIP3    H114238   0.575   5.853   1.596
 4744TIP3    H214239   0.688   5.922   1.523
 4745TIP3   OH214240   2.225   2.387   0.477
 4745TIP3    H114241   2.297   2.376   0.539
 4745TIP3    H214242   2.176   2.305   0.482
 4746TIP3   OH214243   0.311   3.813   4.256
 4746TIP3    H114244   0.282   3.726   4.227
 4746TIP3    H214245   0.303   3.869   4.179
 4747TIP3   OH214246   1.354   2.479   1.941
 4747TIP3    H114247   1.384   2.433   1.862
 4747TIP3    H214248   1.384   2.424   2.013
 4748TIP3   OH214249   0.368   4.715   0.635
 4748TIP3    H114250   0.376   4.780   0.705
 4748TIP3    H214251   0.458   4.697   0.608
 4749TIP3   OH214252   3.836   5.500   2.655
 4749TIP3    H114253   3.895   5.429   2.628
 4749TIP3    H214254   3.759   5.455   2.690
 4750TIP3   OH214255   6.091   4.850   0.417
 4750TIP3    H114256   6.093   4.760   0.448
 4750TIP3    H214257   6.030   4.895   0.475
 4751TIP3   OH214258   5.303   2.222   4.246
 4751TIP3    H114259   5.300   2.223   4.341
 4751TIP3    H214260   5.281   2.312   4.220
 4752TIP3   OH214261   0.073   0.202   1.807
 4752TIP3    H114262   0.055   0.140   1.877
 4752TIP3    H214263   0.106   0.148   1.735
 4753TIP3   OH214264   0.968   2.932   4.439
 4753TIP3    H114265   1.026   2.983   4.496
 4753TIP3    H214266   0.883   2.976   4.446
 4754TIP3   OH214267   2.312   1.263   4.859
 4754TIP3    H114268   2.351   1.325   4.921
 4754TIP3    H214269   2.376   1.256   4.788
 4755TIP3   OH214270   4.620   5.779   2.929
 4755TIP3    H114271   4.702   5.815   2.896
 4755TIP3    H214272   4.565   5.855   2.943
 4756TIP3   OH214273   4.564   4.085   4.602
 4756TIP3    H114274   4.588   3.996   4.578
 4756TIP3    H214275   4.557   4.131   4.519
 4757TIP3   OH214276   3.389   1.165   0.963
 4757TIP3    H114277   3.469   1.115   0.979
 4757TIP3    H214278   3.395   1.240   1.021
 4758TIP3   OH214279   0.568   0.274   4.066
 4758TIP3    H114280   0.630   0.231   4.007
 4758TIP3    H214281   0.484   0.266   4.023
 4759TIP3   OH214282   6.202   3.237   2.977
 4759TIP3    H114283   6.171   3.326   2.961
 4759TIP3    H214284   6.255   3.245   3.057
 4760TIP3   OH214285   1.835   4.393   0.986
 4760TIP3    H114286   1.763   4.342   0.951
 4760TIP3    H214287   1.864   4.346   1.064
 4761TIP3   OH214288   2.975   5.443   4.005
 4761TIP3    H114289   2.987   5.481   3.917
 4761TIP3    H214290   2.910   5.375   3.993
 4762TIP3   OH214291   6.106   2.728   4.702
 4762TIP3    H114292   6.064   2.789   4.762
 4762TIP3    H214293   6.035   2.675   4.667
 4763TIP3   OH214294   3.097   0.884   1.056
 4763TIP3    H114295   3.036   0.931   1.113
 4763TIP3    H214296   3.045   0.813   1.019
 4764TIP3   OH214297   2.429   2.115   1.384
 4764TIP3    H114298   2.380   2.190   1.419
 4764TIP3    H214299   2.463   2.071   1.462
 4765TIP3   OH214300   0.489   5.670   0.995
 4765TIP3    H114301   0.398   5.681   1.021
 4765TIP3    H214302   0.515   5.585   1.030
 4766TIP3   OH214303   1.346   0.045   2.215
 4766TIP3    H114304   1.336   0.004   2.301
 4766TIP3    H214305   1.418  -0.003   2.173
 4767TIP3   OH214306   3.907   4.512   3.161
 4767TIP3    H114307   3.875   4.588   3.112
 4767TIP3    H214308   3.980   4.479   3.108
 4768TIP3   OH214309   1.061   2.209   1.133
 4768TIP3    H114310   1.033   2.264   1.206
 4768TIP3    H214311   1.118   2.265   1.081
 4769TIP3   OH214312   0.512   0.248   1.033
 4769TIP3    H114313   0.439   0.249   0.971
 4769TIP3    H214314   0.501   0.327   1.085
 4770TIP3   OH214315   2.987   3.851   4.956
 4770TIP3    H114316   2.988   3.767   5.002
 4770TIP3    H214317   2.894   3.877   4.956
 4771TIP3   OH214318   1.116   5.363   4.839
 4771TIP3    H114319   1.106   5.434   4.903
 4771TIP3    H214320   1.134   5.285   4.891
 4772TIP3   OH214321   2.645   2.630   0.720
 4772TIP3    H114322   2.622   2.649   0.810
 4772TIP3    H214323   2.739   2.646   0.715
 4773TIP3   OH214324   4.399   1.459   4.480
 4773TIP3    H114325   4.421   1.496   4.566
 4773TIP3    H214326   4.468   1.394   4.464
 4774TIP3   OH214327   0.402   1.179   3.138
 4774TIP3    H114328   0.375   1.112   3.201
 4774TIP3    H214329   0.432   1.129   3.062
 4775TIP3   OH214330   5.859   4.838   1.725
 4775TIP3    H114331   5.851   4.755   1.678
 4775TIP3    H214332   5.800   4.898   1.679
 4776TIP3   OH214333   1.664   4.345   5.102
 4776TIP3    H114334   1.674   4.258   5.065
 4776TIP3    H214335   1.608   4.333   5.179
 4777TIP3   OH214336   5.747   3.527   5.114
 4777TIP3    H114337   5.743   3.432   5.107
 4777TIP3    H214338   5.833   3.545   5.153
 4778TIP3   OH214339   3.988   2.797   3.173
 4778TIP3    H114340   4.061   2.777   3.115
 4778TIP3    H214341   3.920   2.734   3.148
 4779TIP3   OH214342   2.921   4.836   3.574
 4779TIP3    H114343   2.936   4.772   3.504
 4779TIP3    H214344   2.991   4.900   3.563
 4780TIP3   OH214345   1.197   4.108   0.974
 4780TIP3    H114346   1.185   4.091   1.068
 4780TIP3    H214347   1.291   4.120   0.964
 4781TIP3   OH214348   0.849   3.888   2.866
 4781TIP3    H114349   0.883   3.973   2.894
 4781TIP3    H214350   0.853   3.833   2.944
 4782TIP3   OH214351   5.689   5.627   4.368
 4782TIP3    H114352   5.680   5.532   4.377
 4782TIP3    H214353   5.605   5.662   4.399
 4783TIP3   OH214354   0.866   3.340   4.104
 4783TIP3    H114355   0.856   3.280   4.030
 4783TIP3    H214356   0.955   3.375   4.093
 4784TIP3   OH214357   6.096   5.485   3.773
 4784TIP3    H114358   6.065   5.543   3.842
 4784TIP3    H214359   6.129   5.544   3.705
 4785TIP3   OH214360   5.845   1.888   3.241
 4785TIP3    H114361   5.894   1.833   3.302
 4785TIP3    H214362   5.754   1.877   3.265
 4786TIP3   OH214363   6.102   1.336   0.364
 4786TIP3    H114364   6.094   1.326   0.269
 4786TIP3    H214365   6.196   1.332   0.380
 4787TIP3   OH214366   4.276   5.435   1.372
 4787TIP3    H114367   4.364   5.424   1.336
 4787TIP3    H214368   4.219   5.389   1.312
 4788TIP3   OH214369   4.727   3.045   1.901
 4788TIP3    H114370   4.806   2.996   1.880
 4788TIP3    H214371   4.740   3.073   1.992
 4789TIP3   OH214372   0.958   1.636   4.141
 4789TIP3    H114373   0.995   1.550   4.123
 4789TIP3    H214374   1.024   1.698   4.110
 4790TIP3   OH214375   3.903   2.934   3.639
 4790TIP3    H114376   3.924   3.026   3.649
 4790TIP3    H214377   3.855   2.930   3.556
 4791TIP3   OH214378   0.793   3.258   0.080
 4791TIP3    H114379   0.877   3.290   0.113
 4791TIP3    H214380   0.734   3.265   0.155
 4792TIP3   OH214381   6.061   2.954   5.156
 4792TIP3    H114382   5.997   2.933   5.088
 4792TIP3    H214383   6.138   2.901   5.135
 4793TIP3   OH214384   1.014   1.487   3.286
 4793TIP3    H114385   1.022   1.580   3.263
 4793TIP3    H214386   1.053   1.481   3.373
 4794TIP3   OH214387   4.629   3.743   0.802
 4794TIP3    H114388   4.703   3.688   0.776
 4794TIP3    H214389   4.612   3.797   0.725
 4795TIP3   OH214390   3.678   1.660   4.129
 4795TIP3    H114391   3.618   1.610   4.185
 4795TIP3    H214392   3.639   1.748   4.125
 4796TIP3   OH214393   2.755   0.963   4.455
 4796TIP3    H114394   2.751   0.897   4.385
 4796TIP3    H214395   2.665   0.990   4.467
 4797TIP3   OH214396   1.293   3.110   2.302
 4797TIP3    H114397   1.257   3.033   2.258
 4797TIP3    H214398   1.217   3.164   2.321
 4798TIP3   OH214399   5.932   2.976   1.681
 4798TIP3    H114400   5.914   2.938   1.767
 4798TIP3    H214401   5.865   3.044   1.671
 4799TIP3   OH214402   5.953   2.231   1.409
 4799TIP3    H114403   5.884   2.198   1.352
 4799TIP3    H214404   5.908   2.273   1.482
 4800TIP3   OH214405   6.197   2.218   3.339
 4800TIP3    H114406   6.124   2.263   3.382
 4800TIP3    H214407   6.266   2.283   3.334
 4801TIP3   OH214408   3.546   5.851   3.229
 4801TIP3    H114409   3.642   5.853   3.233
 4801TIP3    H214410   3.519   5.915   3.295
 4802TIP3   OH214411   5.611   0.382   3.948
 4802TIP3    H114412   5.642   0.328   3.875
 4802TIP3    H214413   5.526   0.416   3.920
 4803TIP3   OH214414   3.655   0.163   2.379
 4803TIP3    H114415   3.600   0.241   2.378
 4803TIP3    H214416   3.637   0.119   2.296
 4804TIP3   OH214417   1.484   2.376   3.724
 4804TIP3    H114418   1.435   2.298   3.699
 4804TIP3    H214419   1.542   2.347   3.794
 4805TIP3   OH214420   1.255   0.250   1.767
 4805TIP3    H114421   1.324   0.311   1.796
 4805TIP3    H214422   1.303   0.174   1.734
 4806TIP3   OH214423   0.293   3.525   3.475
 4806TIP3    H114424   0.363   3.482   3.524
 4806TIP3    H214425   0.224   3.538   3.540
 4807TIP3   OH214426   4.721   2.348   1.460
 4807TIP3    H114427   4.701   2.261   1.426
 4807TIP3    H214428   4.648   2.370   1.517
 4808TIP3   OH214429   2.915   4.449   2.336
 4808TIP3    H114430   2.846   4.384   2.336
 4808TIP3    H214431   2.926   4.472   2.243
 4809TIP3   OH214432   2.004   1.123   2.839
 4809TIP3    H114433   2.002   1.056   2.771
 4809TIP3    H214434   1.950   1.194   2.804
 4810TIP3   OH214435   0.102   4.547   0.381
 4810TIP3    H114436   0.178   4.497   0.413
 4810TIP3    H214437   0.123   4.638   0.401
 4811TIP3   OH214438   5.736   5.491   1.952
 4811TIP3    H114439   5.685   5.550   1.897
 4811TIP3    H214440   5.674   5.459   2.018
 4812TIP3   OH214441   0.926   0.910   0.235
 4812TIP3    H114442   0.953   0.982   0.292
 4812TIP3    H214443   0.882   0.848   0.293
 4813TIP3   OH214444   3.834   4.047   4.909
 4813TIP3    H114445   3.902   4.076   4.970
 4813TIP3    H214446   3.846   4.103   4.832
 4814TIP3   OH214447   4.688   3.059   4.244
 4814TIP3    H114448   4.710   3.089   4.156
 4814TIP3    H214449   4.763   3.083   4.297
 4815TIP3   OH214450   4.083   3.284   2.007
 4815TIP3    H114451   4.101   3.375   2.030
 4815TIP3    H214452   4.119   3.273   1.919
 4816TIP3   OH214453   1.336   0.855   4.242
 4816TIP3    H114454   1.279   0.802   4.187
 4816TIP3    H214455   1.309   0.834   4.332
 4817TIP3   OH214456   1.910   5.677   2.947
 4817TIP3    H114457   1.826   5.667   2.903
 4817TIP3    H214458   1.975   5.663   2.878
 4818TIP3   OH214459   4.670   1.148   0.569
 4818TIP3    H114460   4.749   1.164   0.620
 4818TIP3    H214461   4.701   1.126   0.482
 4819TIP3   OH214462   5.763   4.618   0.358
 4819TIP3    H114463   5.815   4.568   0.422
 4819TIP3    H214464   5.826   4.678   0.318
 4820TIP3   OH214465   1.543   4.107   0.342
 4820TIP3    H114466   1.524   4.026   0.296
 4820TIP3    H214467   1.615   4.086   0.401
 4821TIP3   OH214468   2.173   5.648   5.116
 4821TIP3    H114469   2.257   5.693   5.105
 4821TIP3    H214470   2.185   5.564   5.071
 4822TIP3   OH214471   0.737   0.300   4.313
 4822TIP3    H114472   0.721   0.370   4.376
 4822TIP3    H214473   0.655   0.292   4.265
 4823TIP3   OH214474   5.174   2.603   1.490
 4823TIP3    H114475   5.209   2.515   1.504
 4823TIP3    H214476   5.106   2.613   1.557
 4824TIP3   OH214477   3.607   5.994   2.597
 4824TIP3    H114478   3.619   5.922   2.536
 4824TIP3    H214479   3.683   5.990   2.655
 4825TIP3   OH214480   1.845   3.593   2.540
 4825TIP3    H114481   1.888   3.562   2.460
 4825TIP3    H214482   1.907   3.655   2.578
 4826TIP3   OH214483   4.497   2.686   0.680
 4826TIP3    H114484   4.424   2.626   0.673
 4826TIP3    H214485   4.550   2.652   0.753
 4827TIP3   OH214486   2.453   0.458   3.936
 4827TIP3    H114487   2.542   0.425   3.949
 4827TIP3    H214488   2.432   0.502   4.018
 4828TIP3   OH214489   3.051   5.670   3.538
 4828TIP3    H114490   3.124   5.661   3.599
 4828TIP3    H214491   3.087   5.641   3.454
 4829TIP3   OH214492   1.382   1.346   3.477
 4829TIP3    H114493   1.344   1.383   3.557
 4829TIP3    H214494   1.476   1.361   3.486
 4830TIP3   OH214495   4.561   4.886   0.676
 4830TIP3    H114496   4.474   4.885   0.637
 4830TIP3    H214497   4.566   4.804   0.725
 4831TIP3   OH214498   4.333   5.122   0.002
 4831TIP3    H114499   4.377   5.074  -0.068
 4831TIP3    H214500   4.392   5.194   0.023
 4832TIP3   OH214501   1.530   5.179   1.264
 4832TIP3    H114502   1.438   5.197   1.281
 4832TIP3    H214503   1.535   5.168   1.169
 4833TIP3   OH214504   3.426   1.733   3.600
 4833TIP3    H114505   3.508   1.685   3.612
 4833TIP3    H214506   3.434   1.773   3.514
 4834TIP3   OH214507   3.117   1.219   1.738
 4834TIP3    H114508   3.083   1.160   1.806
 4834TIP3    H214509   3.064   1.197   1.661
 4835TIP3   OH214510   3.831   2.893   2.184
 4835TIP3    H114511   3.811   2.892   2.278
 4835TIP3    H214512   3.884   2.971   2.172
 4836TIP3   OH214513   5.973   4.376   0.879
 4836TIP3    H114514   5.930   4.365   0.794
 4836TIP3    H214515   6.060   4.409   0.857
 4837TIP3   OH214516   3.855   5.850   3.476
 4837TIP3    H114517   3.943   5.834   3.508
 4837TIP3    H214518   3.866   5.910   3.403
 4838TIP3   OH214519   3.099   5.791   2.747
 4838TIP3    H114520   3.098   5.846   2.668
 4838TIP3    H214521   3.065   5.848   2.816
 4839TIP3   OH214522   6.117   2.182   2.540
 4839TIP3    H114523   6.066   2.157   2.617
 4839TIP3    H214524   6.077   2.133   2.468
 4840TIP3   OH214525   5.325   1.485   3.068
 4840TIP3    H114526   5.339   1.485   2.973
 4840TIP3    H214527   5.234   1.515   3.078
 4841TIP3   OH214528   6.176   2.495  -0.008
 4841TIP3    H114529   6.211   2.467   0.077
 4841TIP3    H214530   6.231   2.570  -0.033
 4842TIP3   OH214531   3.744   5.675   0.239
 4842TIP3    H114532   3.714   5.677   0.148
 4842TIP3    H214533   3.692   5.606   0.280
 4843TIP3   OH214534   5.141   1.717   1.902
 4843TIP3    H114535   5.089   1.719   1.982
 4843TIP3    H214536   5.089   1.667   1.840
 4844TIP3   OH214537   3.452   5.564   2.351
 4844TIP3    H114538   3.527   5.619   2.373
 4844TIP3    H214539   3.461   5.488   2.408
 4845TIP3   OH214540   2.419   0.649   1.929
 4845TIP3    H114541   2.477   0.703   1.875
 4845TIP3    H214542   2.331   0.673   1.899
 4846TIP3   OH214543   3.920   1.972   0.819
 4846TIP3    H114544   3.962   1.915   0.883
 4846TIP3    H214545   3.827   1.971   0.844
 4847TIP3   OH214546   3.336   1.191   5.096
 4847TIP3    H114547   3.419   1.229   5.067
 4847TIP3    H214548   3.275   1.264   5.099
 4848TIP3   OH214549   5.176   2.953   0.782
 4848TIP3    H114550   5.199   2.995   0.698
 4848TIP3    H214551   5.210   2.864   0.775
 4849TIP3   OH214552   0.510   5.890   0.025
 4849TIP3    H114553   0.500   5.821  -0.041
 4849TIP3    H214554   0.549   5.846   0.100
 4850TIP3   OH214555   5.172   4.524   3.931
 4850TIP3    H114556   5.166   4.529   4.027
 4850TIP3    H214557   5.081   4.518   3.902
 4851TIP3   OH214558   2.014   2.819   1.511
 4851TIP3    H114559   2.062   2.785   1.435
 4851TIP3    H214560   2.010   2.745   1.572
 4852TIP3   OH214561   3.774   3.804   0.343
 4852TIP3    H114562   3.865   3.781   0.322
 4852TIP3    H214563   3.742   3.847   0.264
 4853TIP3   OH214564   4.441   1.227   3.330
 4853TIP3    H114565   4.420   1.245   3.238
 4853TIP3    H214566   4.536   1.236   3.335
 4854TIP3   OH214567   2.691   3.759   2.817
 4854TIP3    H114568   2.714   3.711   2.738
 4854TIP3    H214569   2.731   3.709   2.888
 4855TIP3   OH214570   5.723   3.977   2.179
 4855TIP3    H114571   5.788   3.996   2.247
 4855TIP3    H214572   5.764   4.007   2.098
 4856TIP3   OH214573   1.925   1.784   1.349
 4856TIP3    H114574   1.904   1.798   1.441
 4856TIP3    H214575   1.994   1.717   1.350
 4857TIP3   OH214576   0.598   1.652   0.650
 4857TIP3    H114577   0.619   1.729   0.597
 4857TIP3    H214578   0.506   1.664   0.674
 4858TIP3   OH214579   5.462   3.290   4.871
 4858TIP3    H114580   5.447   3.243   4.790
 4858TIP3    H214581   5.398   3.362   4.870
 4859TIP3   OH214582   2.062   1.987   4.380
 4859TIP3    H114583   2.105   1.931   4.316
 4859TIP3    H214584   2.064   2.074   4.340
 4860TIP3   OH214585   5.858   0.063   2.304
 4860TIP3    H114586   5.779   0.096   2.347
 4860TIP3    H214587   5.844   0.080   2.211
 4861TIP3   OH214588   3.727   4.857   3.916
 4861TIP3    H114589   3.706   4.891   3.830
 4861TIP3    H214590   3.772   4.774   3.899
 4862TIP3   OH214591   0.251   1.601   1.988
 4862TIP3    H114592   0.342   1.593   1.960
 4862TIP3    H214593   0.256   1.604   2.084
 4863TIP3   OH214594   4.627   5.258   1.261
 4863TIP3    H114595   4.614   5.297   1.348
 4863TIP3    H214596   4.576   5.314   1.202
 4864TIP3   OH214597   0.265   2.521   0.130
 4864TIP3    H114598   0.245   2.613   0.111
 4864TIP3    H214599   0.207   2.498   0.202
 4865TIP3   OH214600   6.080   3.660   3.788
 4865TIP3    H114601   6.140   3.662   3.863
 4865TIP3    H214602   6.116   3.593   3.730
 4866TIP3   OH214603   5.922   5.316   2.293
 4866TIP3    H114604   5.909   5.409   2.311
 4866TIP3    H214605   5.992   5.289   2.353
 4867TIP3   OH214606   2.845   4.250   4.772
 4867TIP3    H114607   2.798   4.323   4.732
 4867TIP3    H214608   2.807   4.172   4.732
 4868TIP3   OH214609   3.346   5.992   1.431
 4868TIP3    H114610   3.314   5.925   1.370
 4868TIP3    H214611   3.440   5.976   1.437
 4869TIP3   OH214612   0.215   0.999   1.722
 4869TIP3    H114613   0.233   0.969   1.812
 4869TIP3    H214614   0.174   1.085   1.733
 4870TIP3   OH214615   0.026   5.118   4.693
 4870TIP3    H114616   0.092   5.053   4.719
 4870TIP3    H214617   0.034   5.187   4.759
 4871TIP3   OH214618  -0.033   2.770   5.083
 4871TIP3    H114619   0.017   2.737   5.008
 4871TIP3    H214620  -0.021   2.704   5.151
 4872TIP3   OH214621   1.070   3.190   2.592
 4872TIP3    H114622   1.043   3.108   2.550
 4872TIP3    H214623   1.101   3.163   2.679
 4873TIP3   OH214624   1.229   5.845   2.438
 4873TIP3    H114625   1.322   5.851   2.462
 4873TIP3    H214626   1.229   5.801   2.353
 4874TIP3   OH214627   2.454   2.885   2.135
 4874TIP3    H114628   2.418   2.866   2.049
 4874TIP3    H214629   2.473   2.798   2.172
 4875TIP3   OH214630   3.581   3.518   2.863
 4875TIP3    H114631   3.510   3.515   2.798
 4875TIP3    H214632   3.624   3.603   2.847
 4876TIP3   OH214633   2.792   2.154   0.545
 4876TIP3    H114634   2.812   2.171   0.638
 4876TIP3    H214635   2.735   2.226   0.519
 4877TIP3   OH214636   1.999   4.394   3.195
 4877TIP3    H114637   1.956   4.310   3.211
 4877TIP3    H214638   1.928   4.455   3.179
 4878TIP3   OH214639   4.831   4.132   4.226
 4878TIP3    H114640   4.815   4.062   4.162
 4878TIP3    H214641   4.915   4.170   4.200
 4879TIP3   OH214642   2.036   3.641   4.241
 4879TIP3    H114643   1.994   3.667   4.159
 4879TIP3    H214644   2.003   3.553   4.259
 4880TIP3   OH214645   3.284   1.817   2.054
 4880TIP3    H114646   3.378   1.835   2.048
 4880TIP3    H214647   3.269   1.747   1.991
 4881TIP3   OH214648   4.207   5.159   4.008
 4881TIP3    H114649   4.148   5.101   3.959
 4881TIP3    H214650   4.164   5.245   4.006
 4882TIP3   OH214651   6.042   5.836   1.954
 4882TIP3    H114652   6.024   5.767   1.890
 4882TIP3    H214653   6.121   5.805   1.999
 4883TIP3   OH214654   1.000   2.102   2.115
 4883TIP3    H114655   1.036   2.093   2.027
 4883TIP3    H214656   1.076   2.091   2.172
 4884TIP3   OH214657   4.048   0.477   3.641
 4884TIP3    H114658   4.041   0.477   3.546
 4884TIP3    H214659   4.093   0.395   3.662
 4885TIP3   OH214660   3.922   4.171   1.199
 4885TIP3    H114661   4.012   4.138   1.191
 4885TIP3    H214662   3.877   4.136   1.123
 4886TIP3   OH214663   4.868   3.108   4.924
 4886TIP3    H114664   4.941   3.051   4.949
 4886TIP3    H214665   4.868   3.106   4.829
 4887TIP3   OH214666   4.958   2.406   0.496
 4887TIP3    H114667   5.005   2.383   0.416
 4887TIP3    H214668   4.866   2.387   0.476
 4888TIP3   OH214669   4.797   2.297   3.359
 4888TIP3    H114670   4.743   2.251   3.423
 4888TIP3    H214671   4.846   2.227   3.315
 4889TIP3   OH214672   0.171   4.789   0.262
 4889TIP3    H114673   0.134   4.790   0.174
 4889TIP3    H214674   0.258   4.828   0.251
 4890TIP3   OH214675   4.574   0.031   2.402
 4890TIP3    H114676   4.582  -0.041   2.466
 4890TIP3    H214677   4.619   0.104   2.444
 4891TIP3   OH214678   0.377   5.904   2.535
 4891TIP3    H114679   0.432   5.977   2.508
 4891TIP3    H214680   0.336   5.874   2.454
 4892TIP3   OH214681   2.519   5.280   0.863
 4892TIP3    H114682   2.539   5.209   0.924
 4892TIP3    H214683   2.559   5.252   0.780
 4893TIP3   OH214684   0.389   4.318   1.817
 4893TIP3    H114685   0.397   4.355   1.905
 4893TIP3    H214686   0.322   4.372   1.775
 4894TIP3   OH214687   3.899   3.796   3.662
 4894TIP3    H114688   3.991   3.818   3.675
 4894TIP3    H214689   3.851   3.858   3.716
 4895TIP3   OH214690   5.420   4.472   0.642
 4895TIP3    H114691   5.449   4.388   0.677
 4895TIP3    H214692   5.375   4.515   0.715
 4896TIP3   OH214693   4.600   2.648   2.630
 4896TIP3    H114694   4.666   2.623   2.565
 4896TIP3    H214695   4.635   2.618   2.713
 4897TIP3   OH214696   4.917   2.220   2.329
 4897TIP3    H114697   4.978   2.159   2.288
 4897TIP3    H214698   4.864   2.253   2.257
 4898TIP3   OH214699   3.733   5.628   3.872
 4898TIP3    H114700   3.801   5.652   3.935
 4898TIP3    H214701   3.771   5.557   3.821
 4899TIP3   OH214702   2.753   0.150   0.016
 4899TIP3    H114703   2.709   0.070   0.045
 4899TIP3    H214704   2.845   0.136   0.037
 4900TIP3   OH214705   6.155   0.386   3.319
 4900TIP3    H114706   6.200   0.399   3.236
 4900TIP3    H214707   6.219   0.412   3.385
 4901TIP3   OH214708   1.164   4.761   2.256
 4901TIP3    H114709   1.158   4.826   2.186
 4901TIP3    H214710   1.257   4.760   2.280
 4902TIP3   OH214711   6.270   2.747   0.186
 4902TIP3    H114712   6.330   2.779   0.253
 4902TIP3    H214713   6.327   2.719   0.115
 4903TIP3   OH214714   2.672   3.985   1.938
 4903TIP3    H114715   2.757   3.947   1.919
 4903TIP3    H214716   2.656   4.047   1.867
 4904TIP3   OH214717   5.793   2.120   1.821
 4904TIP3    H114718   5.887   2.105   1.825
 4904TIP3    H214719   5.755   2.033   1.817
 4905TIP3   OH214720   6.241   3.177   4.679
 4905TIP3    H114721   6.276   3.159   4.592
 4905TIP3    H214722   6.254   3.095   4.727
 4906TIP3   OH214723   1.249   2.011   4.634
 4906TIP3    H114724   1.235   1.982   4.544
 4906TIP3    H214725   1.223   2.103   4.634
 4907TIP3   OH214726   1.773   5.420   4.894
 4907TIP3    H114727   1.830   5.454   4.963
 4907TIP3    H214728   1.821   5.348   4.855
 4908TIP3   OH214729   3.833   3.343   1.204
 4908TIP3    H114730   3.757   3.362   1.259
 4908TIP3    H214731   3.858   3.429   1.169
 4909TIP3   OH214732   2.150   5.278   1.067
 4909TIP3    H114733   2.077   5.285   1.128
 4909TIP3    H214734   2.112   5.239   0.989
 4910TIP3   OH214735   0.753   5.351   2.235
 4910TIP3    H114736   0.761   5.269   2.185
 4910TIP3    H214737   0.720   5.324   2.320
 4911TIP3   OH214738   4.111   0.753   0.331
 4911TIP3    H114739   4.124   0.669   0.288
 4911TIP3    H214740   4.035   0.792   0.286
 4912TIP3   OH214741   1.802   0.767   2.895
 4912TIP3    H114742   1.731   0.784   2.832
 4912TIP3    H214743   1.758   0.726   2.970
 4913TIP3   OH214744   1.088   4.121   3.546
 4913TIP3    H114745   1.101   4.031   3.575
 4913TIP3    H214746   1.094   4.117   3.451
 4914TIP3   OH214747   3.645   0.113   1.373
 4914TIP3    H114748   3.655   0.050   1.444
 4914TIP3    H214749   3.589   0.068   1.309
 4915TIP3   OH214750   4.443   0.998   2.727
 4915TIP3    H114751   4.403   1.055   2.661
 4915TIP3    H214752   4.515   0.955   2.682
 4916TIP3   OH214753   0.982   0.243   2.319
 4916TIP3    H114754   0.888   0.226   2.304
 4916TIP3    H214755   0.988   0.265   2.412
 4917TIP3   OH214756   2.964   1.220   2.357
 4917TIP3    H114757   3.013   1.143   2.384
 4917TIP3    H214758   2.911   1.243   2.434
 4918TIP3   OH214759   1.710   2.822   3.173
 4918TIP3    H114760   1.803   2.811   3.150
 4918TIP3    H214761   1.696   2.759   3.244
 4919TIP3   OH214762   5.228   2.252   0.783
 4919TIP3    H114763   5.224   2.347   0.799
 4919TIP3    H214764   5.139   2.221   0.803
 4920TIP3   OH214765   4.656   0.814   4.184
 4920TIP3    H114766   4.684   0.723   4.176
 4920TIP3    H214767   4.605   0.817   4.265
 4921TIP3   OH214768   1.562   3.035   2.292
 4921TIP3    H114769   1.498   3.091   2.337
 4921TIP3    H214770   1.512   2.993   2.223
 4922TIP3   OH214771   3.522   0.808   0.033
 4922TIP3    H114772   3.538   0.858  -0.046
 4922TIP3    H214773   3.521   0.716   0.004
 4923TIP3   OH214774   1.468   5.487   2.933
 4923TIP3    H114775   1.428   5.545   2.869
 4923TIP3    H214776   1.417   5.407   2.928
 4924TIP3   OH214777   3.091   3.183   4.220
 4924TIP3    H114778   3.142   3.120   4.271
 4924TIP3    H214779   3.070   3.136   4.139
 4925TIP3   OH214780   0.516   4.533   2.630
 4925TIP3    H114781   0.600   4.529   2.584
 4925TIP3    H214782   0.452   4.508   2.564
 4926TIP3   OH214783   2.809   4.755   4.686
 4926TIP3    H114784   2.728   4.727   4.729
 4926TIP3    H214785   2.816   4.699   4.609
 4927TIP3   OH214786   4.487   3.521   0.621
 4927TIP3    H114787   4.565   3.575   0.608
 4927TIP3    H214788   4.444   3.559   0.697
 4928TIP3   OH214789   6.251   3.976   2.747
 4928TIP3    H114790   6.229   4.067   2.766
 4928TIP3    H214791   6.167   3.935   2.726
 4929TIP3   OH214792   3.304   0.686   3.618
 4929TIP3    H114793   3.284   0.612   3.676
 4929TIP3    H214794   3.271   0.660   3.533
 4930TIP3   OH214795   5.044   0.228   2.440
 4930TIP3    H114796   5.077   0.281   2.512
 4930TIP3    H214797   5.012   0.148   2.481
 4931TIP3   OH214798   2.343   2.220   2.690
 4931TIP3    H114799   2.352   2.135   2.647
 4931TIP3    H214800   2.426   2.232   2.736
 4932TIP3   OH214801   2.071   5.043   4.049
 4932TIP3    H114802   2.022   5.123   4.068
 4932TIP3    H214803   2.041   4.981   4.115
 4933TIP3   OH214804   4.484   1.957   0.514
 4933TIP3    H114805   4.571   1.979   0.480
 4933TIP3    H214806   4.490   1.865   0.539
 4934TIP3   OH214807   3.519   1.485   2.953
 4934TIP3    H114808   3.474   1.432   3.018
 4934TIP3    H214809   3.463   1.561   2.940
 4935TIP3   OH214810   4.918   5.581   3.541
 4935TIP3    H114811   4.861   5.553   3.469
 4935TIP3    H214812   4.892   5.671   3.559
 4936TIP3   OH214813   6.187   3.993   4.450
 4936TIP3    H114814   6.256   4.052   4.480
 4936TIP3    H214815   6.219   3.958   4.367
 4937TIP3   OH214816   4.665   4.203   4.819
 4937TIP3    H114817   4.652   4.145   4.743
 4937TIP3    H214818   4.733   4.264   4.791
 4938TIP3   OH214819   2.664   0.748   1.518
 4938TIP3    H114820   2.593   0.781   1.462
 4938TIP3    H214821   2.710   0.686   1.462
 4939TIP3   OH214822   3.353   3.687   4.694
 4939TIP3    H114823   3.428   3.744   4.714
 4939TIP3    H214824   3.354   3.621   4.763
 4940TIP3   OH214825   4.659   3.824   3.641
 4940TIP3    H114826   4.712   3.807   3.720
 4940TIP3    H214827   4.652   3.739   3.598
 4941TIP3   OH214828   5.119   3.124   1.070
 4941TIP3    H114829   5.043   3.081   1.031
 4941TIP3    H214830   5.194   3.075   1.035
 4942TIP3   OH214831   0.215   5.352   3.061
 4942TIP3    H114832   0.124   5.377   3.047
 4942TIP3    H214833   0.238   5.299   2.985
 4943TIP3   OH214834   2.492   5.236   2.763
 4943TIP3    H114835   2.418   5.279   2.719
 4943TIP3    H214836   2.513   5.293   2.836
 4944TIP3   OH214837   4.249   4.778   5.174
 4944TIP3    H114838   4.300   4.856   5.155
 4944TIP3    H214839   4.298   4.707   5.132
 4945TIP3   OH214840   3.345   5.351   3.040
 4945TIP3    H114841   3.280   5.373   3.107
 4945TIP3    H214842   3.393   5.277   3.077
 4946TIP3   OH214843   0.052   1.792   1.674
 4946TIP3    H114844   0.022   1.881   1.691
 4946TIP3    H214845   0.083   1.760   1.759
 4947TIP3   OH214846   4.042   1.009   2.825
 4947TIP3    H114847   4.021   0.939   2.887
 4947TIP3    H214848   4.116   0.975   2.775
 4948TIP3   OH214849   0.915   1.406   5.089
 4948TIP3    H114850   0.943   1.376   5.003
 4948TIP3    H214851   0.819   1.404   5.085
 4949TIP3   OH214852   2.898   4.717   2.186
 4949TIP3    H114853   2.888   4.642   2.128
 4949TIP3    H214854   2.921   4.790   2.127
 4950TIP3   OH214855   2.881   0.690   4.090
 4950TIP3    H114856   2.795   0.696   4.132
 4950TIP3    H214857   2.861   0.672   3.998
 4951TIP3   OH214858   0.967   5.084   3.522
 4951TIP3    H114859   0.910   5.010   3.544
 4951TIP3    H214860   0.932   5.118   3.440
 4952TIP3   OH214861   3.198   2.097   0.178
 4952TIP3    H114862   3.191   2.003   0.197
 4952TIP3    H214863   3.241   2.134   0.255
 4953TIP3   OH214864   1.923   1.911   1.641
 4953TIP3    H114865   2.018   1.917   1.643
 4953TIP3    H214866   1.893   1.963   1.716
 4954TIP3   OH214867   2.132   5.013   4.861
 4954TIP3    H114868   2.226   5.028   4.844
 4954TIP3    H214869   2.130   4.958   4.939
 4955TIP3   OH214870   6.165   1.873   3.181
 4955TIP3    H114871   6.241   1.837   3.227
 4955TIP3    H214872   6.180   1.968   3.182
 4956TIP3   OH214873   6.203   2.960   3.183
 4956TIP3    H114874   6.245   2.908   3.115
 4956TIP3    H214875   6.141   3.016   3.137
 4957TIP3   OH214876   1.220   0.302   4.212
 4957TIP3    H114877   1.252   0.230   4.158
 4957TIP3    H214878   1.130   0.316   4.183
 4958TIP3   OH214879   3.820   5.424   3.671
 4958TIP3    H114880   3.811   5.431   3.576
 4958TIP3    H214881   3.793   5.334   3.691
 4959TIP3   OH214882   4.020   0.306   3.157
 4959TIP3    H114883   4.013   0.297   3.062
 4959TIP3    H214884   4.110   0.336   3.172
 4960TIP3   OH214885   1.033   2.912   1.060
 4960TIP3    H114886   1.065   2.903   1.149
 4960TIP3    H214887   1.079   2.989   1.026
 4961TIP3   OH214888   1.537   1.718   0.358
 4961TIP3    H114889   1.562   1.626   0.350
 4961TIP3    H214890   1.610   1.759   0.406
 4962TIP3   OH214891   3.803   5.386   2.207
 4962TIP3    H114892   3.792   5.481   2.200
 4962TIP3    H214893   3.872   5.365   2.145
 4963TIP3   OH214894   1.854   1.789   0.014
 4963TIP3    H114895   1.848   1.847  -0.062
 4963TIP3    H214896   1.945   1.761   0.016
 4964TIP3   OH214897   5.633   2.733   4.713
 4964TIP3    H114898   5.626   2.654   4.660
 4964TIP3    H214899   5.569   2.794   4.676
 4965TIP3   OH214900   2.239   5.433   4.130
 4965TIP3    H114901   2.287   5.368   4.079
 4965TIP3    H214902   2.293   5.448   4.207
 4966TIP3   OH214903   4.227   3.958   3.114
 4966TIP3    H114904   4.224   3.865   3.089
 4966TIP3    H214905   4.141   3.992   3.089
 4967TIP3   OH214906   1.910   0.453   3.406
 4967TIP3    H114907   1.832   0.422   3.450
 4967TIP3    H214908   1.983   0.421   3.459
 4968TIP3   OH214909   1.698   0.806   1.271
 4968TIP3    H114910   1.728   0.833   1.184
 4968TIP3    H214911   1.763   0.742   1.301
 4969TIP3   OH214912   4.629   1.137   1.483
 4969TIP3    H114913   4.615   1.074   1.412
 4969TIP3    H214914   4.722   1.158   1.478
 4970TIP3   OH214915   0.087   2.182   1.036
 4970TIP3    H114916   0.103   2.276   1.028
 4970TIP3    H214917  -0.002   2.177   1.072
 4971TIP3   OH214918   0.267   4.333   1.194
 4971TIP3    H114919   0.343   4.367   1.242
 4971TIP3    H214920   0.212   4.410   1.179
 4972TIP3   OH214921   0.952   4.061   1.615
 4972TIP3    H114922   0.866   4.102   1.618
 4972TIP3    H214923   0.934   3.967   1.626
 4973TIP3   OH214924   4.486   4.420   4.719
 4973TIP3    H114925   4.525   4.351   4.773
 4973TIP3    H214926   4.459   4.376   4.639
 4974TIP3   OH214927   0.704   1.877   2.075
 4974TIP3    H114928   0.700   1.810   2.007
 4974TIP3    H214929   0.704   1.960   2.027
 4975TIP3   OH214930   4.875   3.916   4.028
 4975TIP3    H114931   4.969   3.913   4.042
 4975TIP3    H214932   4.863   3.904   3.934
 4976TIP3   OH214933   3.879   2.463   1.731
 4976TIP3    H114934   3.842   2.551   1.721
 4976TIP3    H214935   3.974   2.477   1.727
 4977TIP3   OH214936   3.609   0.292   3.440
 4977TIP3    H114937   3.549   0.227   3.476
 4977TIP3    H214938   3.673   0.241   3.391
 4978TIP3   OH214939   5.741   4.516   1.223
 4978TIP3    H114940   5.756   4.609   1.209
 4978TIP3    H214941   5.704   4.485   1.140
 4979TIP3   OH214942   5.652   3.124   2.110
 4979TIP3    H114943   5.660   3.030   2.127
 4979TIP3    H214944   5.739   3.150   2.080
 4980TIP3   OH214945   3.775   4.284   1.983
 4980TIP3    H114946   3.766   4.203   1.933
 4980TIP3    H214947   3.766   4.353   1.918
 4981TIP3   OH214948   4.187   1.092   4.536
 4981TIP3    H114949   4.094   1.079   4.518
 4981TIP3    H214950   4.229   1.010   4.509
 4982TIP3   OH214951   4.367   3.764   0.448
 4982TIP3    H114952   4.414   3.739   0.369
 4982TIP3    H214953   4.435   3.782   0.512
 4983TIP3   OH214954   2.812   4.420   4.331
 4983TIP3    H114955   2.757   4.373   4.393
 4983TIP3    H214956   2.893   4.370   4.327
 4984TIP3   OH214957   0.817   3.163   3.890
 4984TIP3    H114958   0.735   3.189   3.848
 4984TIP3    H214959   0.804   3.072   3.914
 4985TIP3   OH214960   0.028   4.060   3.360
 4985TIP3    H114961   0.035   3.972   3.398
 4985TIP3    H214962  -0.035   4.050   3.288
 4986TIP3   OH214963   3.831   1.142   4.616
 4986TIP3    H114964   3.749   1.189   4.603
 4986TIP3    H214965   3.821   1.061   4.565
 4987TIP3   OH214966   1.238   3.730   4.619
 4987TIP3    H114967   1.194   3.659   4.666
 4987TIP3    H214968   1.240   3.701   4.527
 4988TIP3   OH214969   2.275   1.761   3.675
 4988TIP3    H114970   2.350   1.785   3.729
 4988TIP3    H214971   2.307   1.692   3.618
 4989TIP3   OH214972   4.975   3.647   2.411
 4989TIP3    H114973   5.031   3.640   2.334
 4989TIP3    H214974   4.934   3.561   2.419
 4990TIP3   OH214975   3.918   1.616   3.694
 4990TIP3    H114976   4.008   1.594   3.718
 4990TIP3    H214977   3.909   1.588   3.603
 4991TIP3   OH214978   2.359   1.009   4.104
 4991TIP3    H114979   2.404   1.084   4.065
 4991TIP3    H214980   2.300   1.047   4.169
 4992TIP3   OH214981   2.022   3.950   4.082
 4992TIP3    H114982   1.983   4.005   4.014
 4992TIP3    H214983   1.971   3.969   4.161
 4993TIP3   OH214984   3.793   0.615   0.595
 4993TIP3    H114985   3.826   0.580   0.513
 4993TIP3    H214986   3.699   0.595   0.594
 4994TIP3   OH214987   4.386   4.475   0.431
 4994TIP3    H114988   4.392   4.411   0.503
 4994TIP3    H214989   4.468   4.523   0.434
 4995TIP3   OH214990   2.596   4.935   1.487
 4995TIP3    H114991   2.547   4.903   1.563
 4995TIP3    H214992   2.590   5.030   1.492
 4996TIP3   OH214993   0.429   2.906   3.133
 4996TIP3    H114994   0.393   2.938   3.051
 4996TIP3    H214995   0.524   2.906   3.120
 4997TIP3   OH214996   0.511   2.178   4.047
 4997TIP3    H114997   0.478   2.188   3.957
 4997TIP3    H214998   0.454   2.111   4.085
 4998TIP3   OH214999   4.568   0.632   0.682
 4998TIP3    H115000   4.579   0.568   0.611
 4998TIP3    H215001   4.554   0.715   0.638
 4999TIP3   OH215002   1.507   4.907   1.414
 4999TIP3    H115003   1.550   4.845   1.356
 4999TIP3    H215004   1.535   4.993   1.384
 5000TIP3   OH215005   4.007   0.568   2.131
 5000TIP3    H115006   3.942   0.638   2.138
 5000TIP3    H215007   4.081   0.607   2.086
 5001TIP3   OH215008   4.018   5.126   2.085
 5001TIP3    H115009   4.101   5.089   2.055
 5001TIP3    H215010   3.955   5.056   2.071
 5002TIP3   OH215011   5.333   0.315   3.200
 5002TIP3    H115012   5.354   0.256   3.128
 5002TIP3    H215013   5.416   0.355   3.224
 5003TIP3   OH215014   4.674   5.115   2.787
 5003TIP3    H115015   4.667   5.170   2.866
 5003TIP3    H215016   4.745   5.155   2.736
 5004TIP3   OH215017   3.278   5.308   0.499
 5004TIP3    H115018   3.265   5.243   0.568
 5004TIP3    H215019   3.278   5.258   0.418
 5005TIP3   OH215020   0.183   3.866   2.192
 5005TIP3    H115021   0.223   3.889   2.108
 5005TIP3    H215022   0.131   3.788   2.174
 5006TIP3   OH215023   0.242   4.809   4.881
 5006TIP3    H115024   0.148   4.790   4.889
 5006TIP3    H215025   0.246   4.887   4.827
 5007TIP3   OH215026   5.737   3.936   0.258
 5007TIP3    H115027   5.749   3.898   0.171
 5007TIP3    H215028   5.662   3.994   0.249
 5008TIP3   OH215029   4.241   4.175   4.242
 5008TIP3    H115030   4.190   4.099   4.268
 5008TIP3    H215031   4.178   4.233   4.200
 5009TIP3   OH215032   5.255   1.940   5.133
 5009TIP3    H115033   5.234   1.862   5.081
 5009TIP3    H215034   5.345   1.926   5.162
 5010TIP3   OH215035   0.488   2.573   4.677
 5010TIP3    H115036   0.556   2.595   4.740
 5010TIP3    H215037   0.510   2.485   4.647
 5011TIP3   OH215038   3.637   1.553   3.693
 5011TIP3    H115039   3.730   1.574   3.698
 5011TIP3    H215040   3.618   1.507   3.775
 5012TIP3   OH215041   0.736   3.583   1.289
 5012TIP3    H115042   0.827   3.573   1.260
 5012TIP3    H215043   0.690   3.508   1.252
 5013TIP3   OH215044   2.690   5.572   3.983
 5013TIP3    H115045   2.763   5.579   3.921
 5013TIP3    H215046   2.615   5.548   3.930
 5014TIP3   OH215047   1.501   4.305   1.422
 5014TIP3    H115048   1.588   4.266   1.435
 5014TIP3    H215049   1.442   4.229   1.418
 5015TIP3   OH215050   5.430   3.945   0.056
 5015TIP3    H115051   5.432   4.028   0.009
 5015TIP3    H215052   5.504   3.896   0.021
 5016TIP3   OH215053   1.487   3.107   3.610
 5016TIP3    H115054   1.443   3.139   3.688
 5016TIP3    H215055   1.418   3.068   3.557
 5017TIP3   OH215056   1.494   5.306   5.025
 5017TIP3    H115057   1.568   5.365   5.038
 5017TIP3    H215058   1.421   5.363   5.001
 5018TIP3   OH215059   3.066   0.284   3.197
 5018TIP3    H115060   3.160   0.280   3.181
 5018TIP3    H215061   3.058   0.301   3.291
 5019TIP3   OH215062   3.069   3.222   0.756
 5019TIP3    H115063   3.023   3.303   0.731
 5019TIP3    H215064   3.121   3.199   0.680
 5020TIP3   OH215065   2.648   2.319   4.226
 5020TIP3    H115066   2.664   2.233   4.187
 5020TIP3    H215067   2.587   2.362   4.166
 5021TIP3   OH215068   1.266   3.806   2.265
 5021TIP3    H115069   1.344   3.783   2.316
 5021TIP3    H215070   1.290   3.787   2.174
 5022TIP3   OH215071   2.141   0.295   4.415
 5022TIP3    H115072   2.206   0.363   4.436
 5022TIP3    H215073   2.141   0.290   4.320
 5023TIP3   OH215074   2.404   4.548   2.633
 5023TIP3    H115075   2.380   4.619   2.693
 5023TIP3    H215076   2.329   4.541   2.574
 5024TIP3   OH215077   1.337   5.968   1.203
 5024TIP3    H115078   1.253   5.922   1.192
 5024TIP3    H215079   1.403   5.901   1.186
 5025TIP3   OH215080   1.846   0.614   1.406
 5025TIP3    H115081   1.819   0.528   1.438
 5025TIP3    H215082   1.854   0.667   1.485
 5026TIP3   OH215083   5.217   5.364   2.183
 5026TIP3    H115084   5.154   5.429   2.215
 5026TIP3    H215085   5.203   5.363   2.088
 5027TIP3   OH215086   1.859   4.778   2.584
 5027TIP3    H115087   1.877   4.804   2.675
 5027TIP3    H215088   1.939   4.799   2.537
 5028TIP3   OH215089   0.675   3.819   1.415
 5028TIP3    H115090   0.689   3.899   1.365
 5028TIP3    H215091   0.701   3.748   1.356
 5029TIP3   OH215092   6.232   3.933   3.838
 5029TIP3    H115093   6.272   3.912   3.922
 5029TIP3    H215094   6.141   3.953   3.858
 5030TIP3   OH215095   5.500   4.103   2.235
 5030TIP3    H115096   5.451   4.144   2.163
 5030TIP3    H215097   5.575   4.063   2.191
 5031TIP3   OH215098   1.294   2.801   1.202
 5031TIP3    H115099   1.322   2.712   1.181
 5031TIP3    H215100   1.376   2.850   1.213
 5032TIP3   OH215101   4.333   2.277   4.171
 5032TIP3    H115102   4.282   2.289   4.091
 5032TIP3    H215103   4.339   2.182   4.182
 5033TIP3   OH215104   4.781   2.248   3.817
 5033TIP3    H115105   4.803   2.219   3.906
 5033TIP3    H215106   4.687   2.232   3.810
 5034TIP3   OH215107   4.154   3.584   2.303
 5034TIP3    H115108   4.118   3.571   2.215
 5034TIP3    H215109   4.161   3.679   2.313
 5035TIP3   OH215110   6.145   5.351   1.593
 5035TIP3    H115111   6.200   5.285   1.635
 5035TIP3    H215112   6.160   5.338   1.499
 5036TIP3   OH215113   0.981   2.461   2.247
 5036TIP3    H115114   0.936   2.464   2.331
 5036TIP3    H215115   1.061   2.411   2.264
 5037TIP3   OH215116   0.732   1.291   4.072
 5037TIP3    H115117   0.695   1.215   4.027
 5037TIP3    H215118   0.681   1.365   4.038
 5038TIP3   OH215119   4.817   3.424   4.991
 5038TIP3    H115120   4.860   3.473   4.920
 5038TIP3    H215121   4.802   3.489   5.059
 5039TIP3   OH215122   1.962   5.549   1.116
 5039TIP3    H115123   1.904   5.569   1.189
 5039TIP3    H215124   1.920   5.476   1.071
 5040TIP3   OH215125   1.540   1.215   1.563
 5040TIP3    H115126   1.579   1.189   1.647
 5040TIP3    H215127   1.537   1.134   1.512
 5041TIP3   OH215128   5.448   3.777   3.179
 5041TIP3    H115129   5.390   3.822   3.118
 5041TIP3    H215130   5.431   3.818   3.264
 5042TIP3   OH215131   1.941   5.135   1.617
 5042TIP3    H115132   1.953   5.188   1.538
 5042TIP3    H215133   1.862   5.084   1.600
 5043TIP3   OH215134   2.189   5.745   0.430
 5043TIP3    H115135   2.095   5.738   0.412
 5043TIP3    H215136   2.193   5.774   0.521
 5044TIP3   OH215137   6.279   0.338   0.818
 5044TIP3    H115138   6.283   0.277   0.892
 5044TIP3    H215139   6.290   0.283   0.741
 5045TIP3   OH215140   6.179   4.551   4.735
 5045TIP3    H115141   6.119   4.501   4.681
 5045TIP3    H215142   6.231   4.485   4.781
 5046TIP3   OH215143   0.541   3.995   1.063
 5046TIP3    H115144   0.627   3.954   1.076
 5046TIP3    H215145   0.537   4.013   0.969
 5047TIP3   OH215146   1.283   2.960   3.504
 5047TIP3    H115147   1.249   2.874   3.479
 5047TIP3    H215148   1.205   3.013   3.519
 5048TIP3   OH215149   4.831   4.367   5.037
 5048TIP3    H115150   4.803   4.375   5.128
 5048TIP3    H215151   4.856   4.456   5.012
 5049TIP3   OH215152   1.350   1.984   0.429
 5049TIP3    H115153   1.401   1.926   0.486
 5049TIP3    H215154   1.293   1.924   0.380
 5050TIP3   OH215155  -0.012   5.213   1.766
 5050TIP3    H115156   0.015   5.285   1.823
 5050TIP3    H215157   0.066   5.193   1.713
 5051TIP3   OH215158   4.638   2.361   4.191
 5051TIP3    H115159   4.564   2.340   4.249
 5051TIP3    H215160   4.628   2.454   4.172
 5052TIP3   OH215161   1.714   3.458   2.863
 5052TIP3    H115162   1.802   3.493   2.872
 5052TIP3    H215163   1.667   3.490   2.941
 5053TIP3   OH215164   3.630   2.151   4.839
 5053TIP3    H115165   3.645   2.202   4.759
 5053TIP3    H215166   3.705   2.173   4.895
 5054TIP3   OH215167   3.093   5.539   2.855
 5054TIP3    H115168   3.122   5.465   2.802
 5054TIP3    H215169   3.126   5.616   2.808
 5055TIP3   OH215170   2.621   5.088   1.057
 5055TIP3    H115171   2.572   5.021   1.105
 5055TIP3    H215172   2.688   5.118   1.118
 5056TIP3   OH215173   5.800   4.335   3.101
 5056TIP3    H115174   5.719   4.383   3.118
 5056TIP3    H215175   5.870   4.397   3.122
 5057TIP3   OH215176   3.676   3.739   3.265
 5057TIP3    H115177   3.605   3.759   3.205
 5057TIP3    H215178   3.669   3.804   3.335
 5058TIP3   OH215179   1.750   2.527   3.871
 5058TIP3    H115180   1.764   2.528   3.776
 5058TIP3    H215181   1.723   2.616   3.892
 5059TIP3   OH215182   2.629   5.429   1.730
 5059TIP3    H115183   2.653   5.372   1.803
 5059TIP3    H215184   2.549   5.473   1.759
 5060TIP3   OH215185   6.338   0.302   5.020
 5060TIP3    H115186   6.252   0.281   5.057
 5060TIP3    H215187   6.373   0.217   4.993
 5061TIP3   OH215188   1.475   1.974   1.971
 5061TIP3    H115189   1.437   1.914   2.036
 5061TIP3    H215190   1.433   1.949   1.888
 5062TIP3   OH215191   4.046   0.996   0.728
 5062TIP3    H115192   4.043   0.946   0.809
 5062TIP3    H215193   3.966   0.971   0.681
 5063TIP3   OH215194   0.621   1.998   1.522
 5063TIP3    H115195   0.656   2.056   1.455
 5063TIP3    H215196   0.570   2.056   1.579
 5064TIP3   OH215197   4.882   1.577   4.999
 5064TIP3    H115198   4.926   1.556   5.081
 5064TIP3    H215199   4.806   1.518   4.997
 5065TIP3   OH215200   2.607   3.073   1.057
 5065TIP3    H115201   2.663   3.032   0.991
 5065TIP3    H215202   2.608   3.012   1.131
 5066TIP3   OH215203   5.619   0.498   3.676
 5066TIP3    H115204   5.566   0.433   3.629
 5066TIP3    H215205   5.556   0.564   3.705
 5067TIP3   OH215206   2.711   5.443   2.388
 5067TIP3    H115207   2.667   5.473   2.309
 5067TIP3    H215208   2.779   5.508   2.404
 5068TIP3   OH215209   1.400   3.931   3.555
 5068TIP3    H115210   1.331   3.911   3.619
 5068TIP3    H215211   1.448   3.848   3.546
 5069TIP3   OH215212   5.033   1.029   0.401
 5069TIP3    H115213   5.023   1.083   0.480
 5069TIP3    H215214   5.003   0.942   0.428
 5070TIP3   OH215215   4.433   2.182   4.775
 5070TIP3    H115216   4.433   2.274   4.749
 5070TIP3    H215217   4.367   2.176   4.844
 5071TIP3   OH215218   0.062   2.103   4.992
 5071TIP3    H115219   0.079   2.178   4.936
 5071TIP3    H215220  -0.028   2.113   5.021
 5072TIP3   OH215221   2.102   5.750   1.416
 5072TIP3    H115222   2.043   5.817   1.383
 5072TIP3    H215223   2.177   5.799   1.451
 5073TIP3   OH215224   3.177   0.921   3.649
 5073TIP3    H115225   3.237   0.851   3.626
 5073TIP3    H215226   3.153   0.902   3.740
 5074TIP3   OH215227   2.028   1.912   0.683
 5074TIP3    H115228   2.092   1.968   0.726
 5074TIP3    H215229   2.077   1.868   0.613
 5075TIP3   OH215230   4.825   4.130   0.690
 5075TIP3    H115231   4.884   4.110   0.763
 5075TIP3    H215232   4.852   4.071   0.620
 5076TIP3   OH215233   1.439   4.740   0.171
 5076TIP3    H115234   1.418   4.706   0.258
 5076TIP3    H215235   1.497   4.815   0.188
 5077TIP3   OH215236   1.054   3.282   0.550
 5077TIP3    H115237   1.133   3.320   0.511
 5077TIP3    H215238   1.070   3.187   0.548
 5078TIP3   OH215239   3.962   4.541   2.794
 5078TIP3    H115240   3.953   4.592   2.874
 5078TIP3    H215241   3.918   4.593   2.727
 5079TIP3   OH215242   2.255   0.324   2.825
 5079TIP3    H115243   2.180   0.290   2.873
 5079TIP3    H215244   2.300   0.246   2.792
 5080TIP3   OH215245   6.246   4.894   3.350
 5080TIP3    H115246   6.298   4.968   3.379
 5080TIP3    H215247   6.205   4.924   3.268
 5081TIP3   OH215248   0.456   1.474   1.658
 5081TIP3    H115249   0.469   1.489   1.752
 5081TIP3    H215250   0.361   1.474   1.646
 5082TIP3   OH215251   3.046   0.167   4.406
 5082TIP3    H115252   3.007   0.230   4.346
 5082TIP3    H215253   2.973   0.137   4.460
 5083TIP3   OH215254   1.931   0.735   4.050
 5083TIP3    H115255   1.900   0.787   3.976
 5083TIP3    H215256   1.993   0.674   4.011
 5084TIP3   OH215257   5.336   5.316   0.171
 5084TIP3    H115258   5.359   5.232   0.131
 5084TIP3    H215259   5.249   5.302   0.208
 5085TIP3   OH215260   6.051   1.113   0.099
 5085TIP3    H115261   6.027   1.184   0.040
 5085TIP3    H215262   6.141   1.091   0.075
 5086TIP3   OH215263   1.305   2.175   3.657
 5086TIP3    H115264   1.232   2.213   3.706
 5086TIP3    H215265   1.298   2.081   3.672
 5087TIP3   OH215266   2.525   0.705   0.246
 5087TIP3    H115267   2.495   0.727   0.158
 5087TIP3    H215268   2.575   0.782   0.274
 5088TIP3   OH215269   5.125   2.604   0.554
 5088TIP3    H115270   5.152   2.583   0.643
 5088TIP3    H215271   5.051   2.546   0.537
 5089TIP3   OH215272   2.638   3.483   3.469
 5089TIP3    H115273   2.703   3.415   3.485
 5089TIP3    H215274   2.591   3.454   3.391
 5090TIP3   OH215275   5.496   2.345   3.505
 5090TIP3    H115276   5.553   2.412   3.467
 5090TIP3    H215277   5.509   2.268   3.450
 5091TIP3   OH215278   1.377   3.770   1.408
 5091TIP3    H115279   1.324   3.702   1.367
 5091TIP3    H215280   1.321   3.805   1.477
 5092TIP3   OH215281   3.913   4.260   0.642
 5092TIP3    H115282   3.868   4.205   0.578
 5092TIP3    H215283   3.889   4.349   0.618
 5093TIP3   OH215284   4.808   3.446   1.382
 5093TIP3    H115285   4.882   3.407   1.335
 5093TIP3    H215286   4.848   3.507   1.443
 5094TIP3   OH215287   3.525   3.259   2.225
 5094TIP3    H115288   3.621   3.263   2.230
 5094TIP3    H215289   3.499   3.223   2.310
 5095TIP3   OH215290   4.001   4.797   3.791
 5095TIP3    H115291   4.031   4.864   3.730
 5095TIP3    H215292   4.013   4.715   3.744
 5096TIP3   OH215293   3.006   5.783   3.979
 5096TIP3    H115294   2.939   5.803   3.915
 5096TIP3    H215295   2.976   5.702   4.021
 5097TIP3   OH215296   5.635   2.450   1.417
 5097TIP3    H115297   5.565   2.407   1.467
 5097TIP3    H215298   5.589   2.498   1.348
 5098TIP3   OH215299   0.537   1.470   1.089
 5098TIP3    H115300   0.459   1.518   1.116
 5098TIP3    H215301   0.521   1.380   1.117
 5099TIP3   OH215302   4.243   5.386   2.816
 5099TIP3    H115303   4.202   5.469   2.791
 5099TIP3    H215304   4.333   5.410   2.838
 5100TIP3   OH215305   0.884   3.282   4.373
 5100TIP3    H115306   0.880   3.312   4.282
 5100TIP3    H215307   0.938   3.347   4.417
 5101TIP3   OH215308   4.164   2.234   3.453
 5101TIP3    H115309   4.211   2.299   3.505
 5101TIP3    H215310   4.202   2.151   3.479
 5102TIP3   OH215311   5.724   3.565   0.818
 5102TIP3    H115312   5.721   3.489   0.876
 5102TIP3    H215313   5.799   3.548   0.761
 5103TIP3   OH215314   4.924   3.347   4.314
 5103TIP3    H115315   4.946   3.439   4.304
 5103TIP3    H215316   4.912   3.315   4.225
 5104TIP3   OH215317   3.754   2.077   2.053
 5104TIP3    H115318   3.764   2.158   2.004
 5104TIP3    H215319   3.838   2.066   2.098
 5105TIP3   OH215320   3.899   5.799   4.960
 5105TIP3    H115321   3.832   5.733   4.945
 5105TIP3    H215322   3.911   5.801   5.055
 5106TIP3   OH215323   3.196   4.962   2.788
 5106TIP3    H115324   3.140   5.032   2.822
 5106TIP3    H215325   3.283   5.001   2.782
 5107TIP3   OH215326   5.401   1.808   2.171
 5107TIP3    H115327   5.383   1.714   2.181
 5107TIP3    H215328   5.358   1.849   2.246
 5108TIP3   OH215329   0.656   2.467   2.170
 5108TIP3    H115330   0.640   2.489   2.078
 5108TIP3    H215331   0.701   2.383   2.166
 5109TIP3   OH215332   3.951   0.275   2.888
 5109TIP3    H115333   3.893   0.240   2.820
 5109TIP3    H215334   4.039   0.268   2.850
 5110TIP3   OH215335   5.756   3.181   1.755
 5110TIP3    H115336   5.813   3.188   1.832
 5110TIP3    H215337   5.669   3.204   1.788
 5111TIP3   OH215338   4.617   3.843   1.323
 5111TIP3    H115339   4.577   3.788   1.391
 5111TIP3    H215340   4.643   3.782   1.254
 5112TIP3   OH215341   2.157   4.295   0.196
 5112TIP3    H115342   2.236   4.298   0.251
 5112TIP3    H215343   2.190   4.277   0.108
 5113TIP3   OH215344   3.608   2.876   0.096
 5113TIP3    H115345   3.611   2.971   0.081
 5113TIP3    H215346   3.517   2.852   0.080
 5114TIP3   OH215347   2.523   1.134   1.875
 5114TIP3    H115348   2.548   1.043   1.862
 5114TIP3    H215349   2.505   1.168   1.787
 5115TIP3   OH215350   3.481   0.375   5.166
 5115TIP3    H115351   3.452   0.456   5.207
 5115TIP3    H215352   3.451   0.381   5.075
 5116TIP3   OH215353   4.202   2.183   4.605
 5116TIP3    H115354   4.257   2.164   4.682
 5116TIP3    H215355   4.221   2.274   4.583
 5117TIP3   OH215356   1.419   5.325   0.551
 5117TIP3    H115357   1.439   5.235   0.526
 5117TIP3    H215358   1.370   5.360   0.477
 5118TIP3   OH215359   2.894   3.614   4.703
 5118TIP3    H115360   2.987   3.592   4.712
 5118TIP3    H215361   2.883   3.635   4.610
 5119TIP3   OH215362   4.170   4.980   1.319
 5119TIP3    H115363   4.123   4.914   1.369
 5119TIP3    H215364   4.263   4.958   1.333
 5120TIP3   OH215365   0.059   0.660   2.005
 5120TIP3    H115366  -0.013   0.624   2.057
 5120TIP3    H215367   0.085   0.588   1.947
 5121TIP3   OH215368   5.196   2.803   1.883
 5121TIP3    H115369   5.139   2.880   1.881
 5121TIP3    H215370   5.139   2.731   1.854
 5122TIP3   OH215371   3.950   3.782   1.429
 5122TIP3    H115372   3.974   3.779   1.521
 5122TIP3    H215373   3.871   3.729   1.423
 5123TIP3   OH215374   4.557   4.289   2.988
 5123TIP3    H115375   4.557   4.364   3.047
 5123TIP3    H215376   4.650   4.275   2.967
 5124TIP3   OH215377   1.415   1.749   0.115
 5124TIP3    H115378   1.494   1.736   0.062
 5124TIP3    H215379   1.445   1.740   0.206
 5125TIP3   OH215380   3.374   1.997   4.897
 5125TIP3    H115381   3.325   1.962   4.822
 5125TIP3    H215382   3.455   2.030   4.858
 5126TIP3   OH215383   5.568   5.246   1.370
 5126TIP3    H115384   5.494   5.233   1.310
 5126TIP3    H215385   5.530   5.295   1.443
 5127TIP3   OH215386   2.718   3.916   5.030
 5127TIP3    H115387   2.751   3.955   5.111
 5127TIP3    H215388   2.657   3.981   4.996
 5128TIP3   OH215389   2.954   2.835   2.442
 5128TIP3    H115390   2.921   2.902   2.382
 5128TIP3    H215391   2.903   2.757   2.422
 5129TIP3   OH215392   1.152   0.847   0.709
 5129TIP3    H115393   1.207   0.905   0.762
 5129TIP3    H215394   1.076   0.828   0.764
 5130TIP3   OH215395   5.961   3.193   3.333
 5130TIP3    H115396   5.969   3.288   3.327
 5130TIP3    H215397   5.894   3.170   3.270
 5131TIP3   OH215398   3.356   2.929   2.305
 5131TIP3    H115399   3.364   2.845   2.352
 5131TIP3    H215400   3.367   2.906   2.213
 5132TIP3   OH215401   4.520   1.575   2.731
 5132TIP3    H115402   4.430   1.565   2.700
 5132TIP3    H215403   4.542   1.491   2.771
 5133TIP3   OH215404   6.343   5.331   0.272
 5133TIP3    H115405   6.267   5.275   0.289
 5133TIP3    H215406   6.305   5.417   0.251
 5134TIP3   OH215407   2.087   5.184   4.413
 5134TIP3    H115408   2.045   5.101   4.435
 5134TIP3    H215409   2.157   5.193   4.477
 5135TIP3   OH215410   3.096   4.417   3.208
 5135TIP3    H115411   3.033   4.489   3.205
 5135TIP3    H215412   3.082   4.370   3.125
 5136TIP3   OH215413   1.385   1.388   0.512
 5136TIP3    H115414   1.458   1.430   0.558
 5136TIP3    H215415   1.402   1.405   0.419
 5137TIP3   OH215416   0.391   2.465   3.539
 5137TIP3    H115417   0.479   2.427   3.538
 5137TIP3    H215418   0.335   2.396   3.505
 5138TIP3   OH215419   5.511   5.361   3.208
 5138TIP3    H115420   5.572   5.355   3.134
 5138TIP3    H215421   5.567   5.363   3.285
 5139TIP3   OH215422   0.661   4.121   2.947
 5139TIP3    H115423   0.599   4.156   3.011
 5139TIP3    H215424   0.740   4.174   2.958
 5140TIP3   OH215425   4.038   2.301   3.696
 5140TIP3    H115426   4.074   2.284   3.609
 5140TIP3    H215427   3.961   2.244   3.702
 5141TIP3   OH215428   5.886   2.467   4.762
 5141TIP3    H115429   5.914   2.378   4.781
 5141TIP3    H215430   5.837   2.494   4.840
 5142TIP3   OH215431   1.665   2.309   0.706
 5142TIP3    H115432   1.597   2.242   0.698
 5142TIP3    H215433   1.686   2.333   0.616
 5143TIP3   OH215434   1.468   1.091   0.641
 5143TIP3    H115435   1.379   1.127   0.643
 5143TIP3    H215436   1.468   1.031   0.567
 5144TIP3   OH215437   5.715   4.683   4.549
 5144TIP3    H115438   5.681   4.772   4.543
 5144TIP3    H215439   5.794   4.691   4.603
 5145TIP3   OH215440   6.253   2.515   1.199
 5145TIP3    H115441   6.258   2.573   1.123
 5145TIP3    H215442   6.171   2.467   1.187
 5146TIP3   OH215443   3.553   5.838   2.236
 5146TIP3    H115444   3.628   5.894   2.215
 5146TIP3    H215445   3.574   5.754   2.194
 5147TIP3   OH215446   2.288   0.999   0.256
 5147TIP3    H115447   2.353   1.015   0.187
 5147TIP3    H215448   2.221   0.946   0.213
 5148TIP3   OH215449   6.166   5.833   1.367
 5148TIP3    H115450   6.133   5.813   1.279
 5148TIP3    H215451   6.088   5.857   1.417
 5149TIP3   OH215452   0.586   3.886   2.842
 5149TIP3    H115453   0.618   3.970   2.874
 5149TIP3    H215454   0.664   3.841   2.810
 5150TIP3   OH215455   6.043   1.973   3.724
 5150TIP3    H115456   6.065   1.887   3.689
 5150TIP3    H215457   5.948   1.980   3.711
 5151TIP3   OH215458   4.785   3.621   4.280
 5151TIP3    H115459   4.737   3.644   4.200
 5151TIP3    H215460   4.732   3.553   4.320
 5152TIP3   OH215461   2.839   4.555   3.521
 5152TIP3    H115462   2.862   4.576   3.612
 5152TIP3    H215463   2.744   4.564   3.518
 5153TIP3   OH215464   4.769   4.018   3.393
 5153TIP3    H115465   4.740   3.929   3.371
 5153TIP3    H215466   4.864   4.013   3.393
 5154TIP3   OH215467   0.471   2.620   2.829
 5154TIP3    H115468   0.502   2.539   2.869
 5154TIP3    H215469   0.487   2.609   2.735
 5155TIP3   OH215470   3.383   4.856   1.636
 5155TIP3    H115471   3.342   4.773   1.614
 5155TIP3    H215472   3.336   4.886   1.714
 5156TIP3   OH215473   3.045   2.430   1.452
 5156TIP3    H115474   2.978   2.377   1.496
 5156TIP3    H215475   3.115   2.368   1.433
 5157TIP3   OH215476   3.673   1.442   0.236
 5157TIP3    H115477   3.586   1.418   0.205
 5157TIP3    H215478   3.730   1.371   0.207
 5158TIP3   OH215479   1.432   3.034   5.152
 5158TIP3    H115480   1.434   3.097   5.080
 5158TIP3    H215481   1.516   2.988   5.147
 5159TIP3   OH215482   6.236   1.032   1.615
 5159TIP3    H115483   6.291   1.106   1.639
 5159TIP3    H215484   6.271   0.959   1.666
 5160TIP3   OH215485   1.363   1.488   4.733
 5160TIP3    H115486   1.310   1.412   4.708
 5160TIP3    H215487   1.440   1.451   4.774
 5161TIP3   OH215488   5.301   0.929   1.985
 5161TIP3    H115489   5.313   0.837   2.009
 5161TIP3    H215490   5.388   0.967   1.990
 5162TIP3   OH215491   4.104   0.764   4.657
 5162TIP3    H115492   4.028   0.754   4.600
 5162TIP3    H215493   4.104   0.684   4.711
 5163TIP3   OH215494   3.724   1.653   1.880
 5163TIP3    H115495   3.748   1.673   1.971
 5163TIP3    H215496   3.804   1.615   1.842
 5164TIP3   OH215497   1.259   4.357   4.433
 5164TIP3    H115498   1.232   4.447   4.420
 5164TIP3    H215499   1.207   4.326   4.507
 5165TIP3   OH215500   4.359   4.326   0.023
 5165TIP3    H115501   4.370   4.381   0.100
 5165TIP3    H215502   4.278   4.356  -0.017
 5166TIP3   OH215503   3.913   3.240   4.623
 5166TIP3    H115504   3.872   3.236   4.537
 5166TIP3    H215505   3.843   3.267   4.682
 5167TIP3   OH215506   0.853   5.746   3.343
 5167TIP3    H115507   0.907   5.692   3.401
 5167TIP3    H215508   0.764   5.713   3.355
 5168TIP3   OH215509   4.236   0.068   1.841
 5168TIP3    H115510   4.319   0.027   1.866
 5168TIP3    H215511   4.182   0.062   1.920
 5169TIP3   OH215512   5.968   0.746   5.049
 5169TIP3    H115513   5.874   0.738   5.061
 5169TIP3    H215514   5.981   0.836   5.020
 5170TIP3   OH215515   6.238   4.893   1.719
 5170TIP3    H115516   6.304   4.960   1.741
 5170TIP3    H215517   6.179   4.937   1.658
 5171TIP3   OH215518   0.870   0.574   0.590
 5171TIP3    H115519   0.783   0.537   0.595
 5171TIP3    H215520   0.909   0.558   0.676
 5172TIP3   OH215521   0.114   2.480   0.335
 5172TIP3    H115522   0.021   2.472   0.314
 5172TIP3    H215523   0.130   2.412   0.401
 5173TIP3   OH215524   2.594   1.937   2.943
 5173TIP3    H115525   2.590   2.002   2.873
 5173TIP3    H215526   2.678   1.893   2.930
 5174TIP3   OH215527   0.772   1.033   0.079
 5174TIP3    H115528   0.826   0.994   0.148
 5174TIP3    H215529   0.834   1.066   0.015
 5175TIP3   OH215530   0.506   2.258   2.711
 5175TIP3    H115531   0.433   2.207   2.745
 5175TIP3    H215532   0.465   2.331   2.664
 5176TIP3   OH215533   6.111   0.335   4.131
 5176TIP3    H115534   6.151   0.281   4.200
 5176TIP3    H215535   6.045   0.386   4.177
 5177TIP3   OH215536   6.282   3.827   0.674
 5177TIP3    H115537   6.241   3.913   0.680
 5177TIP3    H215538   6.258   3.783   0.755
 5178TIP3   OH215539   4.472   2.261   1.592
 5178TIP3    H115540   4.379   2.277   1.575
 5178TIP3    H215541   4.480   2.265   1.687
 5179TIP3   OH215542   0.910   5.777   2.081
 5179TIP3    H115543   0.888   5.810   1.994
 5179TIP3    H215544   0.833   5.727   2.108
 5180TIP3   OH215545   4.823   0.424   4.586
 5180TIP3    H115546   4.811   0.344   4.535
 5180TIP3    H215547   4.918   0.437   4.589
 5181TIP3   OH215548   4.572   1.581   1.952
 5181TIP3    H115549   4.646   1.534   1.913
 5181TIP3    H215550   4.495   1.539   1.913
 5182TIP3   OH215551   5.316   2.392   1.923
 5182TIP3    H115552   5.374   2.462   1.894
 5182TIP3    H215553   5.237   2.402   1.870
 5183TIP3   OH215554   4.330   0.756   1.222
 5183TIP3    H115555   4.303   0.720   1.307
 5183TIP3    H215556   4.417   0.718   1.207
 5184TIP3   OH215557   4.063   4.237   3.824
 5184TIP3    H115558   4.117   4.316   3.826
 5184TIP3    H215559   4.068   4.207   3.733
 5185TIP3   OH215560   0.499   4.223   2.678
 5185TIP3    H115561   0.575   4.188   2.633
 5185TIP3    H215562   0.518   4.317   2.686
 5186TIP3   OH215563   4.277   3.321   4.105
 5186TIP3    H115564   4.323   3.253   4.153
 5186TIP3    H215565   4.205   3.275   4.060
 5187TIP3   OH215566   3.014   3.454   4.417
 5187TIP3    H115567   3.072   3.426   4.346
 5187TIP3    H215568   2.929   3.467   4.374
 5188TIP3   OH215569   0.199   2.075   0.197
 5188TIP3    H115570   0.137   2.117   0.137
 5188TIP3    H215571   0.212   2.138   0.267
 5189TIP3   OH215572   4.567   3.352   4.075
 5189TIP3    H115573   4.570   3.265   4.035
 5189TIP3    H215574   4.477   3.381   4.063
 5190TIP3   OH215575   2.803   0.232   0.375
 5190TIP3    H115576   2.830   0.278   0.454
 5190TIP3    H215577   2.741   0.292   0.333
 5191TIP3   OH215578   5.551   3.784   4.553
 5191TIP3    H115579   5.566   3.743   4.467
 5191TIP3    H215580   5.617   3.745   4.610
 5192TIP3   OH215581   2.306   0.334   1.314
 5192TIP3    H115582   2.242   0.323   1.385
 5192TIP3    H215583   2.260   0.386   1.249
 5193TIP3   OH215584   1.335   4.288   0.437
 5193TIP3    H115585   1.274   4.237   0.490
 5193TIP3    H215586   1.402   4.225   0.411
 5194TIP3   OH215587   4.565   0.023   0.542
 5194TIP3    H115588   4.517   0.102   0.516
 5194TIP3    H215589   4.497  -0.038   0.570
 5195TIP3   OH215590   3.816   0.412   4.480
 5195TIP3    H115591   3.899   0.418   4.526
 5195TIP3    H215592   3.751   0.439   4.544
 5196TIP3   OH215593   4.683   4.853   4.985
 5196TIP3    H115594   4.595   4.882   4.962
 5196TIP3    H215595   4.741   4.906   4.930
 5197TIP3   OH215596   5.079   4.788   4.169
 5197TIP3    H115597   5.021   4.863   4.161
 5197TIP3    H215598   5.165   4.822   4.146
 5198TIP3   OH215599   3.428   3.597   4.203
 5198TIP3    H115600   3.337   3.579   4.183
 5198TIP3    H215601   3.435   3.585   4.298
 5199TIP3   OH215602   4.597   4.907   0.216
 5199TIP3    H115603   4.505   4.896   0.191
 5199TIP3    H215604   4.646   4.854   0.152
 5200TIP3   OH215605   3.261   3.201   2.109
 5200TIP3    H115606   3.346   3.223   2.146
 5200TIP3    H215607   3.237   3.278   2.056
 5201TIP3   OH215608   0.518   5.583   3.174
 5201TIP3    H115609   0.500   5.562   3.082
 5201TIP3    H215610   0.433   5.579   3.216
 5202TIP3   OH215611   4.761   4.571   0.668
 5202TIP3    H115612   4.737   4.480   0.653
 5202TIP3    H215613   4.850   4.567   0.702
 5203TIP3   OH215614   4.220   1.826   4.853
 5203TIP3    H115615   4.311   1.851   4.836
 5203TIP3    H215616   4.226   1.736   4.885
 5204TIP3   OH215617   0.352   3.579   0.125
 5204TIP3    H115618   0.366   3.563   0.218
 5204TIP3    H215619   0.320   3.669   0.120
 5205TIP3   OH215620   3.792   2.314   2.467
 5205TIP3    H115621   3.861   2.291   2.405
 5205TIP3    H215622   3.797   2.248   2.536
 5206TIP3   OH215623   3.594   5.830   4.787
 5206TIP3    H115624   3.570   5.891   4.856
 5206TIP3    H215625   3.638   5.758   4.832
 5207TIP3   OH215626   5.601   5.770   4.957
 5207TIP3    H115627   5.576   5.861   4.943
 5207TIP3    H215628   5.575   5.751   5.047
 5208TIP3   OH215629   0.410   2.875   4.770
 5208TIP3    H115630   0.410   2.779   4.768
 5208TIP3    H215631   0.500   2.899   4.792
 5209TIP3   OH215632   0.747   1.912   0.281
 5209TIP3    H115633   0.762   1.923   0.375
 5209TIP3    H215634   0.763   1.820   0.264
 5210TIP3   OH215635   5.419   0.213   3.801
 5210TIP3    H115636   5.479   0.176   3.736
 5210TIP3    H215637   5.358   0.143   3.821
 5211TIP3   OH215638   4.514   2.738   0.276
 5211TIP3    H115639   4.487   2.651   0.305
 5211TIP3    H215640   4.589   2.722   0.218
 5212TIP3   OH215641   5.631   5.139   0.219
 5212TIP3    H115642   5.639   5.219   0.167
 5212TIP3    H215643   5.546   5.103   0.194
 5213TIP3   OH215644   5.299   3.645   3.801
 5213TIP3    H115645   5.349   3.723   3.779
 5213TIP3    H215646   5.337   3.576   3.746
 5214TIP3   OH215647   4.943   0.632   1.518
 5214TIP3    H115648   4.900   0.679   1.447
 5214TIP3    H215649   4.931   0.539   1.496
 5215TIP3   OH215650   0.902   6.013   0.115
 5215TIP3    H115651   0.961   5.958   0.167
 5215TIP3    H215652   0.904   5.975   0.027
 5216TIP3   OH215653   3.527   3.327   3.468
 5216TIP3    H115654   3.540   3.400   3.529
 5216TIP3    H215655   3.486   3.367   3.391
 5217TIP3   OH215656   3.848   4.355   4.048
 5217TIP3    H115657   3.788   4.405   3.992
 5217TIP3    H215658   3.920   4.331   3.990
 5218TIP3   OH215659   5.979   1.128   1.741
 5218TIP3    H115660   6.065   1.107   1.778
 5218TIP3    H215661   5.996   1.148   1.649
 5219TIP3   OH215662   3.015   2.625   4.750
 5219TIP3    H115663   2.970   2.541   4.741
 5219TIP3    H215664   3.018   2.660   4.661
 5220TIP3   OH215665   5.621   3.431   1.359
 5220TIP3    H115666   5.665   3.514   1.339
 5220TIP3    H215667   5.632   3.379   1.280
 5221TIP3   OH215668  -0.007   5.674   2.915
 5221TIP3    H115669   0.083   5.691   2.944
 5221TIP3    H215670  -0.041   5.612   2.980
 5222TIP3   OH215671   0.878   4.972   1.702
 5222TIP3    H115672   0.940   4.900   1.713
 5222TIP3    H215673   0.809   4.954   1.766
 5223TIP3   OH215674   4.131   1.044   0.054
 5223TIP3    H115675   4.043   1.048   0.018
 5223TIP3    H215676   4.152   1.134   0.077
 5224TIP3   OH215677   6.217   0.951   4.930
 5224TIP3    H115678   6.287   0.885   4.940
 5224TIP3    H215679   6.186   0.966   5.019
 5225TIP3   OH215680   5.609   5.106   4.745
 5225TIP3    H115681   5.545   5.176   4.736
 5225TIP3    H215682   5.559   5.031   4.776
 5226TIP3   OH215683   5.506   5.603   4.135
 5226TIP3    H115684   5.545   5.622   4.050
 5226TIP3    H215685   5.579   5.607   4.196
 5227TIP3   OH215686   6.017   1.689   1.181
 5227TIP3    H115687   6.004   1.689   1.275
 5227TIP3    H215688   6.015   1.596   1.156
 5228TIP3   OH215689   5.178   4.227   4.592
 5228TIP3    H115690   5.100   4.258   4.547
 5228TIP3    H215691   5.250   4.247   4.532
 5229TIP3   OH215692   1.096   0.657   3.899
 5229TIP3    H115693   1.166   0.692   3.843
 5229TIP3    H215694   1.096   0.563   3.880
 5230TIP3   OH215695   2.637   3.744   1.015
 5230TIP3    H115696   2.649   3.835   1.040
 5230TIP3    H215697   2.589   3.705   1.088
 5231TIP3   OH215698   2.691   2.465   1.466
 5231TIP3    H115699   2.694   2.516   1.547
 5231TIP3    H215700   2.705   2.374   1.495
 5232TIP3   OH215701   0.488   0.879   3.176
 5232TIP3    H115702   0.479   0.784   3.164
 5232TIP3    H215703   0.472   0.915   3.089
 5233TIP3   OH215704   0.386   1.802   4.635
 5233TIP3    H115705   0.327   1.790   4.709
 5233TIP3    H215706   0.458   1.741   4.652
 5234TIP3   OH215707   1.736   4.476   3.473
 5234TIP3    H115708   1.803   4.525   3.425
 5234TIP3    H215709   1.744   4.507   3.563
 5235TIP3   OH215710   2.516   5.189   0.404
 5235TIP3    H115711   2.578   5.208   0.334
 5235TIP3    H215712   2.434   5.227   0.376
 5236TIP3   OH215713   4.141   2.279   2.042
 5236TIP3    H115714   4.047   2.281   2.024
 5236TIP3    H215715   4.169   2.370   2.031
 5237TIP3   OH215716   0.708   2.383   0.726
 5237TIP3    H115717   0.767   2.325   0.676
 5237TIP3    H215718   0.760   2.462   0.742
 5238TIP3   OH215719   5.350   4.760   1.859
 5238TIP3    H115720   5.304   4.840   1.833
 5238TIP3    H215721   5.314   4.738   1.945
 5239TIP3   OH215722   3.533   0.458   0.561
 5239TIP3    H115723   3.579   0.388   0.608
 5239TIP3    H215724   3.550   0.440   0.469
 5240TIP3   OH215725   5.111   1.105   3.367
 5240TIP3    H115726   5.154   1.106   3.282
 5240TIP3    H215727   5.052   1.181   3.365
 5241TIP3   OH215728   3.145   5.248   1.875
 5241TIP3    H115729   3.120   5.169   1.828
 5241TIP3    H215730   3.065   5.301   1.878
 5242TIP3   OH215731   2.406   5.393   3.130
 5242TIP3    H115732   2.439   5.373   3.218
 5242TIP3    H215733   2.484   5.389   3.074
 5243TIP3   OH215734   3.585   4.206   3.295
 5243TIP3    H115735   3.504   4.252   3.319
 5243TIP3    H215736   3.620   4.174   3.378
 5244TIP3   OH215737   3.066   2.535   1.767
 5244TIP3    H115738   3.112   2.458   1.802
 5244TIP3    H215739   3.132   2.578   1.712
 5245TIP3   OH215740   5.915   2.044   5.126
 5245TIP3    H115741   5.890   1.970   5.182
 5245TIP3    H215742   5.838   2.060   5.072
 5246TIP3   OH215743   1.218   4.433   2.046
 5246TIP3    H115744   1.307   4.415   2.015
 5246TIP3    H215745   1.165   4.364   2.006
 5247TIP3   OH215746   0.459   3.246   1.451
 5247TIP3    H115747   0.400   3.190   1.400
 5247TIP3    H215748   0.499   3.187   1.515
 5248TIP3   OH215749   5.773   1.968   3.586
 5248TIP3    H115750   5.682   1.994   3.602
 5248TIP3    H215751   5.766   1.890   3.531
 5249TIP3   OH215752   2.691   0.659   5.027
 5249TIP3    H115753   2.700   0.753   5.014
 5249TIP3    H215754   2.780   0.628   5.045
 5250TIP3   OH215755   4.844   5.776   4.106
 5250TIP3    H115756   4.901   5.739   4.038
 5250TIP3    H215757   4.885   5.859   4.129
 5251TIP3   OH215758   0.519   3.100   1.180
 5251TIP3    H115759   0.462   3.024   1.192
 5251TIP3    H215760   0.572   3.079   1.104
 5252TIP3   OH215761   1.702   4.440  -0.017
 5252TIP3    H115762   1.783   4.464   0.029
 5252TIP3    H215763   1.653   4.388   0.046
 5253TIP3   OH215764   3.491   2.384   4.934
 5253TIP3    H115765   3.546   2.321   4.888
 5253TIP3    H215766   3.418   2.400   4.874
 5254TIP3   OH215767   2.503   1.493   0.342
 5254TIP3    H115768   2.424   1.489   0.396
 5254TIP3    H215769   2.488   1.568   0.284
 5255TIP3   OH215770   0.384   2.689   3.959
 5255TIP3    H115771   0.392   2.606   4.006
 5255TIP3    H215772   0.352   2.665   3.872
 5256TIP3   OH215773   1.588   4.960   0.878
 5256TIP3    H115774   1.500   4.939   0.846
 5256TIP3    H215775   1.606   4.894   0.945
 5257TIP3   OH215776   4.555   5.377   1.494
 5257TIP3    H115777   4.579   5.443   1.560
 5257TIP3    H215778   4.480   5.331   1.533
 5258TIP3   OH215779   2.915   5.605   2.384
 5258TIP3    H115780   2.915   5.569   2.296
 5258TIP3    H215781   3.002   5.643   2.395
 5259TIP3   OH215782   1.516   0.414   0.609
 5259TIP3    H115783   1.496   0.489   0.665
 5259TIP3    H215784   1.515   0.450   0.520
 5260TIP3   OH215785   1.103   4.189   2.004
 5260TIP3    H115786   1.048   4.244   2.060
 5260TIP3    H215787   1.083   4.099   2.031
 5261TIP3   OH215788   3.686   2.467   4.694
 5261TIP3    H115789   3.780   2.466   4.676
 5261TIP3    H215790   3.646   2.426   4.617
 5262TIP3   OH215791   5.183   0.911   3.808
 5262TIP3    H115792   5.110   0.849   3.804
 5262TIP3    H215793   5.203   0.930   3.716
 5263TIP3   OH215794   3.543   1.416   2.456
 5263TIP3    H115795   3.459   1.387   2.420
 5263TIP3    H215796   3.523   1.498   2.501
 5264TIP3   OH215797   3.626   4.892   2.508
 5264TIP3    H115798   3.676   4.897   2.590
 5264TIP3    H215799   3.684   4.844   2.448
 5265TIP3   OH215800   1.442   3.865   4.362
 5265TIP3    H115801   1.537   3.852   4.356
 5265TIP3    H215802   1.428   3.951   4.322
 5266TIP3   OH215803   0.692   1.833   4.765
 5266TIP3    H115804   0.744   1.911   4.745
 5266TIP3    H215805   0.757   1.764   4.775
 5267TIP3   OH215806   5.023   1.286   1.821
 5267TIP3    H115807   4.957   1.347   1.855
 5267TIP3    H215808   4.992   1.264   1.733
 5268TIP3   OH215809   1.799   3.389   4.781
 5268TIP3    H115810   1.824   3.301   4.808
 5268TIP3    H215811   1.758   3.377   4.695
 5269TIP3   OH215812   3.941   5.837   1.277
 5269TIP3    H115813   3.933   5.776   1.204
 5269TIP3    H215814   3.946   5.923   1.236
 5270TIP3   OH215815   1.024   2.135   0.453
 5270TIP3    H115816   1.100   2.149   0.396
 5270TIP3    H215817   1.061   2.098   0.533
 5271TIP3   OH215818   2.391   2.076   3.742
 5271TIP3    H115819   2.368   2.121   3.661
 5271TIP3    H215820   2.465   2.019   3.718
 5272TIP3   OH215821   3.656   1.339   1.348
 5272TIP3    H115822   3.667   1.247   1.370
 5272TIP3    H215823   3.604   1.375   1.420
 5273TIP3   OH215824   2.838   4.701   0.315
 5273TIP3    H115825   2.880   4.615   0.305
 5273TIP3    H215826   2.766   4.699   0.252
 5274TIP3   OH215827   1.652   0.326   2.958
 5274TIP3    H115828   1.610   0.280   3.031
 5274TIP3    H215829   1.626   0.418   2.969
 5275TIP3   OH215830   2.584   3.119   2.169
 5275TIP3    H115831   2.546   3.117   2.257
 5275TIP3    H215832   2.526   3.064   2.117
 5276TIP3   OH215833   0.818   2.143   0.125
 5276TIP3    H115834   0.869   2.085   0.069
 5276TIP3    H215835   0.781   2.086   0.192
 5277TIP3   OH215836   3.978   2.435   4.663
 5277TIP3    H115837   3.985   2.375   4.738
 5277TIP3    H215838   4.033   2.509   4.686
 5278TIP3   OH215839   4.033   2.836   5.140
 5278TIP3    H115840   4.025   2.907   5.204
 5278TIP3    H215841   3.947   2.793   5.142
 5279TIP3   OH215842   0.932   1.788   2.215
 5279TIP3    H115843   0.856   1.829   2.174
 5279TIP3    H215844   0.956   1.848   2.286
 5280TIP3   OH215845   3.964   2.530   0.982
 5280TIP3    H115846   4.053   2.561   0.999
 5280TIP3    H215847   3.943   2.565   0.896
 5281TIP3   OH215848   3.030   4.230   1.293
 5281TIP3    H115849   2.937   4.206   1.300
 5281TIP3    H215850   3.055   4.203   1.205
 5282TIP3   OH215851   1.159   3.914   2.856
 5282TIP3    H115852   1.253   3.918   2.872
 5282TIP3    H215853   1.127   3.852   2.921
 5283TIP3   OH215854   5.956   4.850   0.999
 5283TIP3    H115855   6.049   4.834   0.983
 5283TIP3    H215856   5.911   4.783   0.949
 5284TIP3   OH215857   4.122   4.426   2.389
 5284TIP3    H115858   4.099   4.473   2.309
 5284TIP3    H215859   4.209   4.460   2.413
 5285TIP3   OH215860   2.675   4.864   0.892
 5285TIP3    H115861   2.731   4.864   0.814
 5285TIP3    H215862   2.695   4.946   0.936
 5286TIP3   OH215863   3.929   4.720   0.995
 5286TIP3    H115864   3.936   4.690   1.086
 5286TIP3    H215865   3.959   4.645   0.943
 5287TIP3   OH215866   1.580   2.125   0.328
 5287TIP3    H115867   1.510   2.061   0.339
 5287TIP3    H215868   1.618   2.104   0.243
 5288TIP3   OH215869   0.744   1.873   1.115
 5288TIP3    H115870   0.699   1.795   1.145
 5288TIP3    H215871   0.786   1.908   1.194
 5289TIP3   OH215872   5.568   2.525   0.575
 5289TIP3    H115873   5.543   2.434   0.585
 5289TIP3    H215874   5.640   2.524   0.512
 5290TIP3   OH215875   4.674   0.234   3.581
 5290TIP3    H115876   4.713   0.225   3.494
 5290TIP3    H215877   4.746   0.216   3.641
 5291TIP3   OH215878   2.543   5.836   2.172
 5291TIP3    H115879   2.455   5.871   2.158
 5291TIP3    H215880   2.559   5.781   2.095
 5292TIP3   OH215881   4.488   1.479   2.430
 5292TIP3    H115882   4.461   1.478   2.522
 5292TIP3    H215883   4.561   1.418   2.425
 5293TIP3   OH215884   2.883   1.061   1.152
 5293TIP3    H115885   2.959   1.111   1.182
 5293TIP3    H215886   2.832   1.045   1.231
 5294TIP3   OH215887   0.998   2.626   2.624
 5294TIP3    H115888   0.936   2.580   2.567
 5294TIP3    H215889   1.063   2.560   2.646
 5295TIP3   OH215890   3.376   3.624   4.982
 5295TIP3    H115891   3.471   3.638   4.984
 5295TIP3    H215892   3.340   3.696   5.033
 5296TIP3   OH215893   6.145   3.628   2.741
 5296TIP3    H115894   6.092   3.576   2.680
 5296TIP3    H215895   6.235   3.598   2.727
 5297TIP3   OH215896   3.074   4.748   4.183
 5297TIP3    H115897   3.151   4.805   4.190
 5297TIP3    H215898   3.110   4.661   4.169
 5298TIP3   OH215899   3.003   5.855   1.584
 5298TIP3    H115900   2.975   5.938   1.622
 5298TIP3    H215901   2.926   5.799   1.589
 5299TIP3   OH215902   4.595   4.596   3.450
 5299TIP3    H115903   4.545   4.541   3.511
 5299TIP3    H215904   4.662   4.637   3.504
 5300TIP3   OH215905   2.137   2.798   3.607
 5300TIP3    H115906   2.082   2.793   3.528
 5300TIP3    H215907   2.124   2.713   3.650
 5301TIP3   OH215908   6.212   3.024   1.601
 5301TIP3    H115909   6.132   3.013   1.651
 5301TIP3    H215910   6.268   2.951   1.628
 5302TIP3   OH215911   6.026   4.453   0.120
 5302TIP3    H115912   6.031   4.545   0.144
 5302TIP3    H215913   6.117   4.423   0.122
 5303TIP3   OH215914   2.482   3.328   4.003
 5303TIP3    H115915   2.573   3.337   3.976
 5303TIP3    H215916   2.456   3.241   3.973
 5304TIP3   OH215917   0.661   0.895   1.017
 5304TIP3    H115918   0.696   0.810   0.989
 5304TIP3    H215919   0.574   0.899   0.979
 5305TIP3   OH215920   4.429   5.066   2.209
 5305TIP3    H115921   4.413   5.160   2.202
 5305TIP3    H215922   4.399   5.043   2.297
 5306TIP3   OH215923   4.527   3.316   0.191
 5306TIP3    H115924   4.618   3.345   0.189
 5306TIP3    H215925   4.479   3.382   0.142
 5307TIP3   OH215926   4.080   1.459   0.538
 5307TIP3    H115927   4.054   1.545   0.506
 5307TIP3    H215928   4.065   1.401   0.463
 5308TIP3   OH215929   4.401   5.711   4.401
 5308TIP3    H115930   4.406   5.654   4.324
 5308TIP3    H215931   4.355   5.658   4.467
 5309TIP3   OH215932   2.682   0.939   0.296
 5309TIP3    H115933   2.767   0.972   0.324
 5309TIP3    H215934   2.680   0.957   0.202
 5310TIP3   OH215935   2.119   5.808   4.867
 5310TIP3    H115936   2.040   5.810   4.921
 5310TIP3    H215937   2.191   5.809   4.930
 5311TIP3   OH215938   4.910   5.878   1.184
 5311TIP3    H115939   4.888   5.838   1.100
 5311TIP3    H215940   5.000   5.907   1.173
 5312TIP3   OH215941   4.305   1.014   3.456
 5312TIP3    H115942   4.364   1.079   3.417
 5312TIP3    H215943   4.321   1.020   3.550
 5313TIP3   OH215944   5.974   1.731   2.757
 5313TIP3    H115945   5.977   1.735   2.852
 5313TIP3    H215946   5.886   1.760   2.735
 5314TIP3   OH215947   0.920   0.283   1.382
 5314TIP3    H115948   0.986   0.317   1.442
 5314TIP3    H215949   0.841   0.276   1.435
 5315TIP3   OH215950   0.657   0.929   0.692
 5315TIP3    H115951   0.590   0.861   0.699
 5315TIP3    H215952   0.655   0.974   0.776
 5316TIP3   OH215953   2.979   3.832   4.223
 5316TIP3    H115954   2.891   3.799   4.200
 5316TIP3    H215955   2.971   3.860   4.314
 5317TIP3   OH215956   1.090   0.291   4.531
 5317TIP3    H115957   1.001   0.256   4.537
 5317TIP3    H215958   1.090   0.344   4.451
 5318TIP3   OH215959   2.706   0.538   3.400
 5318TIP3    H115960   2.796   0.540   3.434
 5318TIP3    H215961   2.708   0.472   3.331
 5319TIP3   OH215962   3.069   2.969   2.025
 5319TIP3    H115963   3.000   2.976   2.092
 5319TIP3    H215964   3.025   2.927   1.951
 5320TIP3   OH215965   0.671   1.572   1.434
 5320TIP3    H115966   0.755   1.531   1.412
 5320TIP3    H215967   0.640   1.524   1.510
 5321TIP3   OH215968   0.954   5.113   1.000
 5321TIP3    H115969   0.970   5.082   1.089
 5321TIP3    H215970   0.996   5.198   0.995
 5322TIP3   OH215971   0.851   0.729   4.222
 5322TIP3    H115972   0.757   0.713   4.233
 5322TIP3    H215973   0.860   0.761   4.132
 5323TIP3   OH215974   4.463   1.112   2.973
 5323TIP3    H115975   4.477   1.049   2.901
 5323TIP3    H215976   4.401   1.068   3.031
 5324TIP3   OH215977   4.295   4.675   3.572
 5324TIP3    H115978   4.240   4.668   3.493
 5324TIP3    H215979   4.334   4.763   3.566
 5325TIP3   OH215980   2.715   3.148   3.492
 5325TIP3    H115981   2.669   3.133   3.409
 5325TIP3    H215982   2.808   3.139   3.470
 5326TIP3   OH215983   3.557   1.300   2.711
 5326TIP3    H115984   3.511   1.328   2.632
 5326TIP3    H215985   3.518   1.215   2.733
 5327TIP3   OH215986   0.285   2.223   0.454
 5327TIP3    H115987   0.293   2.129   0.465
 5327TIP3    H215988   0.375   2.255   0.459
 5328TIP3   OH215989   4.832   2.228   2.821
 5328TIP3    H115990   4.762   2.239   2.884
 5328TIP3    H215991   4.808   2.149   2.772
 5329TIP3   OH215992   5.320   3.017   1.663
 5329TIP3    H115993   5.318   2.989   1.754
 5329TIP3    H215994   5.392   3.079   1.659
 5330TIP3   OH215995   1.790   3.362   4.305
 5330TIP3    H115996   1.747   3.393   4.226
 5330TIP3    H215997   1.803   3.268   4.290
 5331TIP3   OH215998   4.469   2.154   2.460
 5331TIP3    H115999   4.406   2.086   2.485
 5331TIP3    H216000   4.555   2.116   2.479
 5332TIP3   OH216001   4.718   4.101   1.685
 5332TIP3    H116002   4.662   4.139   1.617
 5332TIP3    H216003   4.782   4.048   1.637
 5333TIP3   OH216004   2.532   1.971   3.509
 5333TIP3    H116005   2.575   1.888   3.528
 5333TIP3    H216006   2.467   1.950   3.442
 5334TIP3   OH216007   2.672   0.424   1.458
 5334TIP3    H116008   2.579   0.448   1.461
 5334TIP3    H216009   2.676   0.352   1.396
 5335TIP3   OH216010   0.261   0.432   2.213
 5335TIP3    H116011   0.209   0.456   2.289
 5335TIP3    H216012   0.349   0.417   2.248
 5336TIP3   OH216013   5.224   0.456   1.214
 5336TIP3    H116014   5.273   0.400   1.273
 5336TIP3    H216015   5.136   0.459   1.251
 5337TIP3   OH216016   1.224   2.251  -0.023
 5337TIP3    H116017   1.152   2.188  -0.031
 5337TIP3    H216018   1.208   2.295   0.061
 5338TIP3   OH216019   4.614   0.152   1.059
 5338TIP3    H116020   4.688   0.211   1.050
 5338TIP3    H216021   4.550   0.183   0.995
 5339TIP3   OH216022   0.354   0.217   2.457
 5339TIP3    H116023   0.394   0.168   2.528
 5339TIP3    H216024   0.424   0.271   2.421
 5340TIP3   OH216025   3.928   3.715   3.361
 5340TIP3    H116026   3.901   3.767   3.437
 5340TIP3    H216027   3.853   3.717   3.302
 5341TIP3   OH216028   2.565   0.880   2.569
 5341TIP3    H116029   2.614   0.832   2.637
 5341TIP3    H216030   2.559   0.818   2.496
 5342TIP3   OH216031   1.093   4.366   3.711
 5342TIP3    H116032   1.095   4.276   3.679
 5342TIP3    H216033   1.069   4.418   3.635
 5343TIP3   OH216034   2.081   5.831   3.111
 5343TIP3    H116035   2.012   5.898   3.110
 5343TIP3    H216036   2.067   5.781   3.031
 5344TIP3   OH216037   3.020   5.676   0.449
 5344TIP3    H116038   2.959   5.719   0.390
 5344TIP3    H216039   2.965   5.621   0.505
 5345TIP3   OH216040   3.272   3.723   0.271
 5345TIP3    H116041   3.235   3.644   0.230
 5345TIP3    H216042   3.363   3.724   0.242
 5346TIP3   OH216043   2.339   0.406   2.144
 5346TIP3    H116044   2.320   0.497   2.168
 5346TIP3    H216045   2.390   0.413   2.064
 5347TIP3   OH216046   0.696   1.233   0.421
 5347TIP3    H116047   0.762   1.203   0.358
 5347TIP3    H216048   0.746   1.249   0.501
 5348TIP3   OH216049   2.613   4.320   0.812
 5348TIP3    H116050   2.685   4.368   0.853
 5348TIP3    H216051   2.571   4.385   0.755
 5349TIP3   OH216052   2.802   2.019   2.000
 5349TIP3    H116053   2.795   1.975   2.084
 5349TIP3    H216054   2.862   2.093   2.016
 5350TIP3   OH216055   2.457   0.929   4.966
 5350TIP3    H116056   2.551   0.935   4.978
 5350TIP3    H216057   2.419   0.982   5.036
 5351TIP3   OH216058   5.823   2.029   0.546
 5351TIP3    H116059   5.737   1.996   0.574
 5351TIP3    H216060   5.814   2.041   0.451
 5352TIP3   OH216061   1.779   0.543   0.126
 5352TIP3    H116062   1.801   0.608   0.060
 5352TIP3    H216063   1.863   0.519   0.166
 5353TIP3   OH216064   1.658   2.053   0.929
 5353TIP3    H116065   1.736   2.031   0.981
 5353TIP3    H216066   1.664   1.996   0.852
 5354TIP3   OH216067   4.142   2.551   2.028
 5354TIP3    H116068   4.143   2.645   2.009
 5354TIP3    H216069   4.129   2.546   2.122
 5355TIP3   OH216070   4.606   2.155   2.918
 5355TIP3    H116071   4.565   2.080   2.875
 5355TIP3    H216072   4.536   2.197   2.967
 5356TIP3   OH216073   2.169   3.145   3.142
 5356TIP3    H116074   2.104   3.215   3.141
 5356TIP3    H216075   2.168   3.111   3.052
 5357TIP3   OH216076   3.028   1.447   0.048
 5357TIP3    H116077   3.083   1.424   0.123
 5357TIP3    H216078   3.025   1.368  -0.005
 5358TIP3   OH216079   0.844   4.181   2.345
 5358TIP3    H116080   0.787   4.126   2.399
 5358TIP3    H216081   0.918   4.124   2.323
 5359TIP3   OH216082   4.217   2.732   2.492
 5359TIP3    H116083   4.227   2.686   2.575
 5359TIP3    H216084   4.269   2.812   2.503
 5360TIP3   OH216085   5.128   4.054   3.762
 5360TIP3    H116086   5.146   4.136   3.716
 5360TIP3    H216087   5.164   3.986   3.705
 5361TIP3   OH216088   4.486   0.800   0.900
 5361TIP3    H116089   4.478   0.761   0.987
 5361TIP3    H216090   4.468   0.728   0.840
 5362TIP3   OH216091   6.317   0.811   2.663
 5362TIP3    H116092   6.356   0.837   2.580
 5362TIP3    H216093   6.307   0.892   2.712
 5363TIP3   OH216094   2.199   5.860   3.638
 5363TIP3    H116095   2.229   5.837   3.726
 5363TIP3    H216096   2.106   5.841   3.638
 5364TIP3   OH216097   6.060   3.471   2.959
 5364TIP3    H116098   6.043   3.534   3.030
 5364TIP3    H216099   6.059   3.524   2.880
 5365TIP3   OH216100   5.839   0.100   4.660
 5365TIP3    H116101   5.795   0.133   4.581
 5365TIP3    H216102   5.789   0.023   4.685
 5366TIP3   OH216103   2.275   1.177   2.943
 5366TIP3    H116104   2.203   1.137   2.894
 5366TIP3    H216105   2.296   1.114   3.012
 5367TIP3   OH216106   3.522   2.752   3.923
 5367TIP3    H116107   3.617   2.758   3.935
 5367TIP3    H216108   3.505   2.658   3.914
 5368TIP3   OH216109   2.085   3.074   5.178
 5368TIP3    H116110   2.063   3.089   5.087
 5368TIP3    H216111   2.138   3.150   5.203
 5369TIP3   OH216112   1.445   0.510   2.349
 5369TIP3    H116113   1.463   0.538   2.260
 5369TIP3    H216114   1.353   0.481   2.348
 5370TIP3   OH216115   3.612   2.678   3.588
 5370TIP3    H116116   3.612   2.649   3.679
 5370TIP3    H216117   3.525   2.653   3.555
 5371TIP3   OH216118   6.105   0.128   4.666
 5371TIP3    H116119   6.010   0.126   4.677
 5371TIP3    H216120   6.118   0.155   4.575
 5372TIP3   OH216121   2.477   1.089   0.076
 5372TIP3    H116122   2.529   1.164   0.105
 5372TIP3    H216123   2.430   1.121  -0.001
 5373TIP3   OH216124   4.722   5.836   4.368
 5373TIP3    H116125   4.706   5.764   4.306
 5373TIP3    H216126   4.648   5.831   4.429
 5374TIP3   OH216127   5.934   3.959   1.364
 5374TIP3    H116128   5.929   4.053   1.346
 5374TIP3    H216129   5.985   3.924   1.291
 5375TIP3   OH216130   2.815   3.401   1.086
 5375TIP3    H116131   2.854   3.313   1.086
 5375TIP3    H216132   2.873   3.452   1.143
 5376TIP3   OH216133   4.375   4.621   4.991
 5376TIP3    H116134   4.429   4.636   4.913
 5376TIP3    H216135   4.311   4.555   4.964
 5377TIP3   OH216136   3.302   5.889   2.127
 5377TIP3    H116137   3.324   5.959   2.065
 5377TIP3    H216138   3.386   5.864   2.166
 5378TIP3   OH216139   2.508   0.009   1.263
 5378TIP3    H116140   2.533   0.100   1.253
 5378TIP3    H216141   2.484   0.000   1.356
 5379TIP3   OH216142   0.247   0.410   2.766
 5379TIP3    H116143   0.209   0.458   2.840
 5379TIP3    H216144   0.270   0.478   2.703
 5380TIP3   OH216145   3.395   2.636   1.822
 5380TIP3    H116146   3.376   2.571   1.890
 5380TIP3    H216147   3.472   2.601   1.777
 5381TIP3   OH216148   5.235   3.335   1.463
 5381TIP3    H116149   5.205   3.257   1.508
 5381TIP3    H216150   5.302   3.372   1.520
 5382TIP3   OH216151   5.888   3.743   4.816
 5382TIP3    H116152   5.844   3.829   4.816
 5382TIP3    H216153   5.817   3.680   4.817
 5383TIP3   OH216154   2.003   0.581   4.371
 5383TIP3    H116155   1.956   0.529   4.306
 5383TIP3    H216156   2.058   0.640   4.320
 5384TIP3   OH216157   3.474   1.289   3.801
 5384TIP3    H116158   3.457   1.220   3.737
 5384TIP3    H216159   3.451   1.370   3.755
 5385TIP3   OH216160   0.355   4.457   2.412
 5385TIP3    H116161   0.387   4.374   2.377
 5385TIP3    H216162   0.268   4.436   2.446
 5386TIP3   OH216163   4.131   0.401   5.073
 5386TIP3    H116164   4.090   0.314   5.068
 5386TIP3    H216165   4.219   0.384   5.106
 5387TIP3   OH216166   1.068   1.441   3.585
 5387TIP3    H116167   1.057   1.426   3.678
 5387TIP3    H216168   1.124   1.518   3.579
 5388TIP3   OH216169   2.739   1.014   1.476
 5388TIP3    H116170   2.645   1.014   1.458
 5388TIP3    H216171   2.758   0.926   1.507
 5389TIP3   OH216172   5.631   1.306   0.716
 5389TIP3    H116173   5.584   1.281   0.795
 5389TIP3    H216174   5.564   1.348   0.660
 5390TIP3   OH216175   4.262   4.919   4.849
 5390TIP3    H116176   4.260   4.871   4.766
 5390TIP3    H216177   4.218   4.861   4.911
 5391TIP3   OH216178   3.890   3.140   5.048
 5391TIP3    H116179   3.962   3.077   5.051
 5391TIP3    H216180   3.932   3.224   5.030
 5392TIP3   OH216181   5.526   5.842   1.207
 5392TIP3    H116182   5.473   5.876   1.134
 5392TIP3    H216183   5.524   5.912   1.272
 5393TIP3   OH216184   3.293   3.696   3.921
 5393TIP3    H116185   3.260   3.784   3.938
 5393TIP3    H216186   3.215   3.644   3.902
 5394TIP3   OH216187   0.974   2.065   5.004
 5394TIP3    H116188   1.057   2.039   4.963
 5394TIP3    H216189   0.999   2.136   5.063
 5395TIP3   OH216190   5.802   3.889   1.661
 5395TIP3    H116191   5.749   3.921   1.734
 5395TIP3    H216192   5.739   3.872   1.592
 5396TIP3   OH216193   5.209   4.310   0.755
 5396TIP3    H116194   5.164   4.310   0.839
 5396TIP3    H216195   5.290   4.260   0.771
 5397TIP3   OH216196   3.424   2.614   2.394
 5397TIP3    H116197   3.361   2.555   2.437
 5397TIP3    H216198   3.474   2.651   2.467
 5398TIP3   OH216199   4.087   4.151   3.551
 5398TIP3    H116200   4.020   4.200   3.504
 5398TIP3    H216201   4.111   4.080   3.491
 5399TIP3   OH216202   4.790   5.748   2.284
 5399TIP3    H116203   4.774   5.726   2.376
 5399TIP3    H216204   4.743   5.681   2.235
 5400TIP3   OH216205   0.118   4.786   0.577
 5400TIP3    H116206   0.207   4.770   0.607
 5400TIP3    H216207   0.129   4.827   0.491
 5401TIP3   OH216208   5.808   4.107   3.278
 5401TIP3    H116209   5.797   4.179   3.216
 5401TIP3    H216210   5.736   4.118   3.340
 5402TIP3   OH216211   1.747   3.348   1.145
 5402TIP3    H116212   1.824   3.381   1.193
 5402TIP3    H216213   1.730   3.416   1.079
 5403TIP3   OH216214   3.832   3.661   3.979
 5403TIP3    H116215   3.917   3.616   3.975
 5403TIP3    H216216   3.793   3.644   3.893
 5404TIP3   OH216217   0.798   1.536   4.345
 5404TIP3    H116218   0.866   1.480   4.384
 5404TIP3    H216219   0.838   1.571   4.266
 5405TIP3   OH216220   5.778   2.610   1.576
 5405TIP3    H116221   5.859   2.648   1.541
 5405TIP3    H216222   5.744   2.556   1.505
 5406TIP3   OH216223   0.754   2.220   2.113
 5406TIP3    H116224   0.756   2.228   2.018
 5406TIP3    H216225   0.834   2.174   2.135
 5407TIP3   OH216226   3.769   3.896   4.574
 5407TIP3    H116227   3.764   3.803   4.596
 5407TIP3    H216228   3.687   3.933   4.606
 5408TIP3   OH216229   6.342   5.508   4.715
 5408TIP3    H116230   6.275   5.563   4.754
 5408TIP3    H216231   6.391   5.566   4.657
 5409TIP3   OH216232   3.090   3.216   1.351
 5409TIP3    H116233   3.108   3.201   1.259
 5409TIP3    H216234   3.111   3.133   1.394
 5410TIP3   OH216235   5.833   0.248   0.966
 5410TIP3    H116236   5.756   0.285   0.922
 5410TIP3    H216237   5.907   0.283   0.916
 5411TIP3   OH216238   1.934   1.995   0.980
 5411TIP3    H116239   1.956   2.080   0.942
 5411TIP3    H216240   2.018   1.960   1.009
 5412TIP3   OH216241   3.719   4.653   5.116
 5412TIP3    H116242   3.795   4.687   5.162
 5412TIP3    H216243   3.731   4.558   5.116
 5413TIP3   OH216244   4.476   3.658   2.896
 5413TIP3    H116245   4.560   3.662   2.942
 5413TIP3    H216246   4.490   3.706   2.815
 5414TIP3   OH216247   6.016   5.524   2.574
 5414TIP3    H116248   5.971   5.553   2.495
 5414TIP3    H216249   6.072   5.452   2.545
 5415TIP3   OH216250   0.535   2.113   3.273
 5415TIP3    H116251   0.615   2.165   3.262
 5415TIP3    H216252   0.503   2.100   3.184
 5416TIP3   OH216253   3.138   0.300   2.318
 5416TIP3    H116254   3.097   0.320   2.402
 5416TIP3    H216255   3.109   0.211   2.297
 5417TIP3   OH216256   6.092   3.658   0.811
 5417TIP3    H116257   6.036   3.595   0.766
 5417TIP3    H216258   6.041   3.738   0.813
 5418TIP3   OH216259   0.858   0.168   4.540
 5418TIP3    H116260   0.785   0.167   4.602
 5418TIP3    H216261   0.817   0.181   4.454
 5419TIP3   OH216262   0.351   5.953   4.079
 5419TIP3    H116263   0.296   5.988   4.009
 5419TIP3    H216264   0.290   5.938   4.152
 5420TIP3   OH216265   5.158   5.927   0.278
 5420TIP3    H116266   5.209   6.008   0.277
 5420TIP3    H216267   5.209   5.867   0.332
 5421TIP3   OH216268   3.986   4.856   0.045
 5421TIP3    H116269   3.931   4.778   0.047
 5421TIP3    H216270   4.066   4.828   0.001
 5422TIP3   OH216271   5.139   5.640   4.554
 5422TIP3    H116272   5.092   5.557   4.563
 5422TIP3    H216273   5.082   5.704   4.598
 5423TIP3   OH216274   1.451   2.319   4.662
 5423TIP3    H116275   1.525   2.260   4.676
 5423TIP3    H216276   1.408   2.285   4.583
 5424TIP3   OH216277   6.102   0.522   2.013
 5424TIP3    H116278   6.008   0.530   2.028
 5424TIP3    H216279   6.111   0.521   1.918
 5425TIP3   OH216280   1.998   5.779   2.602
 5425TIP3    H116281   1.994   5.832   2.522
 5425TIP3    H216282   1.987   5.689   2.571
 5426TIP3   OH216283   5.658   2.863   1.158
 5426TIP3    H116284   5.616   2.823   1.082
 5426TIP3    H216285   5.694   2.945   1.126
 5427TIP3   OH216286   0.373   2.820   0.766
 5427TIP3    H116287   0.402   2.871   0.691
 5427TIP3    H216288   0.454   2.794   0.810
 5428TIP3   OH216289   0.287   4.076   1.350
 5428TIP3    H116290   0.293   4.157   1.300
 5428TIP3    H216291   0.253   4.103   1.436
 5429TIP3   OH216292   5.960   3.457   0.677
 5429TIP3    H116293   5.998   3.447   0.590
 5429TIP3    H216294   5.953   3.367   0.710
 5430TIP3   OH216295   1.109   1.308   2.187
 5430TIP3    H116296   1.152   1.304   2.273
 5430TIP3    H216297   1.127   1.397   2.156
 5431TIP3   OH216298   3.640   2.200   0.413
 5431TIP3    H116299   3.635   2.155   0.329
 5431TIP3    H216300   3.721   2.170   0.453
 5432TIP3   OH216301   3.163   3.427   1.957
 5432TIP3    H116302   3.079   3.384   1.970
 5432TIP3    H216303   3.155   3.470   1.872
 5433TIP3   OH216304   2.094   0.819   2.827
 5433TIP3    H116305   2.001   0.816   2.850
 5433TIP3    H216306   2.140   0.815   2.911
 5434TIP3   OH216307   5.886   1.466   2.595
 5434TIP3    H116308   5.903   1.488   2.687
 5434TIP3    H216309   5.846   1.379   2.598
 5435TIP3   OH216310   2.182   2.085   0.019
 5435TIP3    H116311   2.106   2.074   0.075
 5435TIP3    H216312   2.253   2.111   0.079
 5436TIP3   OH216313   0.366   1.282   1.929
 5436TIP3    H116314   0.300   1.243   1.872
 5436TIP3    H216315   0.361   1.230   2.009
 5437TIP3   OH216316   2.869   3.251   2.738
 5437TIP3    H116317   2.919   3.188   2.791
 5437TIP3    H216318   2.797   3.279   2.796
 5438TIP3   OH216319   5.986   5.413   4.297
 5438TIP3    H116320   6.022   5.387   4.382
 5438TIP3    H216321   6.028   5.497   4.278
 5439TIP3   OH216322   2.970   4.173   1.704
 5439TIP3    H116323   3.009   4.125   1.777
 5439TIP3    H216324   3.014   4.137   1.626
 5440TIP3   OH216325   3.548   5.450   5.110
 5440TIP3    H116326   3.516   5.523   5.163
 5440TIP3    H216327   3.483   5.382   5.122
 5441TIP3   OH216328   3.482   2.108   3.753
 5441TIP3    H116329   3.403   2.060   3.779
 5441TIP3    H216330   3.546   2.040   3.735
 5442TIP3   OH216331   4.492   1.141   2.268
 5442TIP3    H116332   4.463   1.160   2.179
 5442TIP3    H216333   4.578   1.182   2.274
 5443TIP3   OH216334   2.272   3.269   3.808
 5443TIP3    H116335   2.365   3.272   3.832
 5443TIP3    H216336   2.236   3.352   3.840
 5444TIP3   OH216337   4.154   3.731   4.564
 5444TIP3    H116338   4.234   3.748   4.614
 5444TIP3    H216339   4.154   3.636   4.551
 5445TIP3   OH216340   5.789   1.981   3.975
 5445TIP3    H116341   5.738   1.988   4.056
 5445TIP3    H216342   5.787   1.888   3.953
 5446TIP3   OH216343   5.300   5.410   3.584
 5446TIP3    H116344   5.334   5.373   3.503
 5446TIP3    H216345   5.378   5.438   3.632
 5447TIP3   OH216346   6.375   4.570   2.317
 5447TIP3    H116347   6.389   4.623   2.396
 5447TIP3    H216348   6.280   4.561   2.311
 5448TIP3   OH216349   3.352   3.491   3.288
 5448TIP3    H116350   3.356   3.585   3.301
 5448TIP3    H216351   3.264   3.466   3.316
 5449TIP3   OH216352   0.197   3.354   4.604
 5449TIP3    H116353   0.291   3.369   4.610
 5449TIP3    H216354   0.183   3.270   4.650
 5450TIP3   OH216355   4.562   4.243   2.501
 5450TIP3    H116356   4.485   4.278   2.456
 5450TIP3    H216357   4.626   4.314   2.496
 5451TIP3   OH216358   3.872   0.472   0.369
 5451TIP3    H116359   3.930   0.453   0.444
 5451TIP3    H216360   3.930   0.466   0.293
 5452TIP3   OH216361   4.832   1.902   3.330
 5452TIP3    H116362   4.890   1.955   3.384
 5452TIP3    H216363   4.798   1.963   3.264
 5453TIP3   OH216364   2.370   0.808   0.957
 5453TIP3    H116365   2.316   0.885   0.972
 5453TIP3    H216366   2.421   0.829   0.879
 5454TIP3   OH216367   3.834   2.152   1.681
 5454TIP3    H116368   3.834   2.247   1.669
 5454TIP3    H216369   3.926   2.128   1.679
 5455TIP3   OH216370   4.801   3.165   1.190
 5455TIP3    H116371   4.756   3.213   1.121
 5455TIP3    H216372   4.891   3.200   1.188
 5456TIP3   OH216373   5.755   5.754   1.836
 5456TIP3    H116374   5.708   5.828   1.797
 5456TIP3    H216375   5.709   5.738   1.919
 5457TIP3   OH216376   3.448   1.687   1.836
 5457TIP3    H116377   3.537   1.657   1.855
 5457TIP3    H216378   3.411   1.619   1.780
 5458TIP3   OH216379   0.259   3.816   1.452
 5458TIP3    H116380   0.249   3.904   1.416
 5458TIP3    H216381   0.189   3.808   1.517
 5459TIP3   OH216382   0.604   4.370   1.645
 5459TIP3    H116383   0.523   4.343   1.687
 5459TIP3    H216384   0.654   4.289   1.635
 5460TIP3   OH216385   0.006   5.901   5.016
 5460TIP3    H116386   0.066   5.871   5.085
 5460TIP3    H216387   0.034   5.990   4.998
 5461TIP3   OH216388   3.767   0.404   5.035
 5461TIP3    H116389   3.694   0.352   5.067
 5461TIP3    H216390   3.775   0.475   5.098
 5462TIP3   OH216391   4.048   3.977   0.733
 5462TIP3    H116392   4.136   3.997   0.702
 5462TIP3    H216393   3.999   4.058   0.720
 5463TIP3   OH216394   0.230   5.481   4.157
 5463TIP3    H116395   0.244   5.409   4.218
 5463TIP3    H216396   0.258   5.447   4.072
 5464TIP3   OH216397   2.221   4.019   4.303
 5464TIP3    H116398   2.247   3.948   4.244
 5464TIP3    H216399   2.201   3.975   4.386
 5465TIP3   OH216400   4.024   4.118   5.076
 5465TIP3    H116401   4.086   4.049   5.053
 5465TIP3    H216402   4.008   4.106   5.170
 5466TIP3   OH216403   6.097   3.439   3.313
 5466TIP3    H116404   6.184   3.473   3.330
 5466TIP3    H216405   6.048   3.513   3.279
 5467TIP3   OH216406   0.764   1.864   3.465
 5467TIP3    H116407   0.782   1.776   3.498
 5467TIP3    H216408   0.672   1.880   3.487
 5468TIP3   OH216409   5.651   0.313   3.199
 5468TIP3    H116410   5.650   0.275   3.286
 5468TIP3    H216411   5.703   0.253   3.146
 5469TIP3   OH216412   0.394   3.492   4.190
 5469TIP3    H116413   0.405   3.486   4.285
 5469TIP3    H216414   0.471   3.448   4.153
 5470TIP3   OH216415   6.080   3.186  -0.012
 5470TIP3    H116416   6.062   3.099   0.025
 5470TIP3    H216417   6.008   3.201  -0.074
 5471TIP3   OH216418   0.504   2.412   1.534
 5471TIP3    H116419   0.409   2.421   1.531
 5471TIP3    H216420   0.531   2.412   1.442
 5472TIP3   OH216421   4.935   5.454   4.529
 5472TIP3    H116422   4.941   5.482   4.438
 5472TIP3    H216423   4.862   5.505   4.565
 5473TIP3   OH216424   3.696   4.280   3.818
 5473TIP3    H116425   3.729   4.301   3.731
 5473TIP3    H216426   3.614   4.232   3.802
 5474TIP3   OH216427   1.241   5.517   3.181
 5474TIP3    H116428   1.196   5.492   3.100
 5474TIP3    H216429   1.215   5.451   3.245
 5475TIP3   OH216430   5.474   0.565   3.401
 5475TIP3    H116431   5.428   0.602   3.476
 5475TIP3    H216432   5.488   0.474   3.424
 5476TIP3   OH216433   2.430   3.450   2.178
 5476TIP3    H116434   2.452   3.437   2.271
 5476TIP3    H216435   2.441   3.544   2.164
 5477TIP3   OH216436   4.573   0.151   4.378
 5477TIP3    H116437   4.665   0.177   4.374
 5477TIP3    H216438   4.543   0.180   4.464
 5478TIP3   OH216439   0.106   4.005   3.034
 5478TIP3    H116440   0.198   3.986   3.048
 5478TIP3    H216441   0.073   3.931   2.984
 5479TIP3   OH216442   1.020   0.056   5.144
 5479TIP3    H116443   0.948   0.034   5.085
 5479TIP3    H216444   1.011   0.150   5.160
 5480TIP3   OH216445   5.822   4.974   0.438
 5480TIP3    H116446   5.835   4.993   0.345
 5480TIP3    H216447   5.770   5.047   0.471
 5481TIP3   OH216448   3.598   4.266   4.591
 5481TIP3    H116449   3.678   4.224   4.624
 5481TIP3    H216450   3.594   4.349   4.637
 5482TIP3   OH216451   4.647   2.210   3.568
 5482TIP3    H116452   4.645   2.128   3.616
 5482TIP3    H216453   4.609   2.274   3.629
 5483TIP3   OH216454   3.527   2.817   0.596
 5483TIP3    H116455   3.470   2.801   0.521
 5483TIP3    H216456   3.599   2.870   0.561
 5484TIP3   OH216457   5.027   2.931   0.101
 5484TIP3    H116458   5.029   2.836   0.112
 5484TIP3    H216459   5.060   2.965   0.184
 5485TIP3   OH216460   0.438   5.520   2.473
 5485TIP3    H116461   0.348   5.499   2.501
 5485TIP3    H216462   0.452   5.609   2.504
 5486TIP3   OH216463   5.571   3.141   3.410
 5486TIP3    H116464   5.614   3.144   3.495
 5486TIP3    H216465   5.638   3.107   3.350
 5487TIP3   OH216466   3.456   4.409   0.908
 5487TIP3    H116467   3.388   4.421   0.841
 5487TIP3    H216468   3.505   4.332   0.878
 5488TIP3   OH216469   2.483   1.870   1.892
 5488TIP3    H116470   2.444   1.785   1.912
 5488TIP3    H216471   2.577   1.854   1.894
 5489TIP3   OH216472   3.614   2.201   3.537
 5489TIP3    H116473   3.650   2.116   3.563
 5489TIP3    H216474   3.575   2.236   3.616
 5490TIP3   OH216475   1.480   0.490   1.080
 5490TIP3    H116476   1.456   0.398   1.074
 5490TIP3    H216477   1.450   0.518   1.166
 5491TIP3   OH216478   2.337   5.586   0.265
 5491TIP3    H116479   2.281   5.550   0.197
 5491TIP3    H216480   2.283   5.651   0.310
 5492TIP3   OH216481   2.223   4.105   4.907
 5492TIP3    H116482   2.235   4.038   4.841
 5492TIP3    H216483   2.237   4.060   4.990
 5493TIP3   OH216484   3.996   2.958   0.953
 5493TIP3    H116485   3.937   2.965   0.877
 5493TIP3    H216486   3.938   2.945   1.027
 5494TIP3   OH216487   5.800   4.091   2.450
 5494TIP3    H116488   5.774   4.183   2.439
 5494TIP3    H216489   5.733   4.054   2.507
 5495TIP3   OH216490   2.487   3.880   2.692
 5495TIP3    H116491   2.477   3.956   2.749
 5495TIP3    H216492   2.562   3.833   2.728
 5496TIP3   OH216493   5.543   5.372   0.846
 5496TIP3    H116494   5.469   5.392   0.789
 5496TIP3    H216495   5.620   5.388   0.792
 5497TIP3   OH216496   6.277   4.271   0.547
 5497TIP3    H116497   6.346   4.208   0.525
 5497TIP3    H216498   6.320   4.333   0.605
 5498TIP3   OH216499   4.192   4.443   2.706
 5498TIP3    H116500   4.171   4.356   2.672
 5498TIP3    H216501   4.107   4.482   2.728
 5499TIP3   OH216502   4.521   4.560   1.868
 5499TIP3    H116503   4.485   4.483   1.913
 5499TIP3    H216504   4.446   4.619   1.858
 5500TIP3   OH216505   4.427   3.743   2.273
 5500TIP3    H116506   4.453   3.684   2.344
 5500TIP3    H216507   4.510   3.770   2.233
 5501TIP3   OH216508   4.069   4.992   2.600
 5501TIP3    H116509   4.043   4.990   2.692
 5501TIP3    H216510   4.081   4.900   2.576
 5502TIP3   OH216511   5.074   2.223   0.297
 5502TIP3    H116512   5.018   2.210   0.221
 5502TIP3    H216513   5.083   2.136   0.336
 5503TIP3   OH216514   2.076   3.328   4.507
 5503TIP3    H116515   2.029   3.410   4.523
 5503TIP3    H216516   2.011   3.259   4.518
 5504TIP3   OH216517   5.156   3.163   0.596
 5504TIP3    H116518   5.110   3.222   0.537
 5504TIP3    H216519   5.247   3.191   0.593
 5505TIP3   OH216520   1.301   2.834   2.576
 5505TIP3    H116521   1.314   2.765   2.511
 5505TIP3    H216522   1.255   2.903   2.530
 5506TIP3   OH216523   2.482   1.172   4.420
 5506TIP3    H116524   2.470   1.229   4.496
 5506TIP3    H216525   2.493   1.231   4.346
 5507TIP3   OH216526   0.027   0.931   4.635
 5507TIP3    H116527  -0.055   0.977   4.652
 5507TIP3    H216528   0.089   0.969   4.698
 5508TIP3   OH216529   0.233   2.396   1.564
 5508TIP3    H116530   0.149   2.435   1.539
 5508TIP3    H216531   0.209   2.324   1.623
 5509TIP3   OH216532   6.117   2.985   3.433
 5509TIP3    H116533   6.150   2.959   3.347
 5509TIP3    H216534   6.054   3.054   3.414
 5510TIP3   OH216535   1.631   0.926   0.801
 5510TIP3    H116536   1.569   0.973   0.746
 5510TIP3    H216537   1.586   0.844   0.824
 5511TIP3   OH216538   4.420   5.711   4.024
 5511TIP3    H116539   4.400   5.679   3.937
 5511TIP3    H216540   4.496   5.660   4.053
 5512TIP3   OH216541   6.282   4.251   4.071
 5512TIP3    H116542   6.234   4.172   4.096
 5512TIP3    H216543   6.348   4.261   4.140
 5513TIP3   OH216544   0.975   3.310   3.701
 5513TIP3    H116545   0.960   3.399   3.733
 5513TIP3    H216546   0.921   3.255   3.759
 5514TIP3   OH216547   5.030   4.005   4.701
 5514TIP3    H116548   5.073   4.090   4.689
 5514TIP3    H216549   5.051   3.956   4.622
 5515TIP3   OH216550   1.429   3.409   2.273
 5515TIP3    H116551   1.416   3.344   2.204
 5515TIP3    H216552   1.359   3.392   2.335
 5516TIP3   OH216553   5.120   2.813   4.227
 5516TIP3    H116554   5.171   2.818   4.146
 5516TIP3    H216555   5.142   2.893   4.274
 5517TIP3   OH216556   1.908   1.520   2.720
 5517TIP3    H116557   1.901   1.490   2.629
 5517TIP3    H216558   1.995   1.561   2.725
 5518TIP3   OH216559   0.730   1.718   4.030
 5518TIP3    H116560   0.809   1.675   4.061
 5518TIP3    H216561   0.699   1.769   4.105
 5519TIP3   OH216562   3.839   5.160   0.404
 5519TIP3    H116563   3.859   5.253   0.390
 5519TIP3    H216564   3.763   5.144   0.349
 5520TIP3   OH216565   1.381   0.225   1.055
 5520TIP3    H116566   1.308   0.232   0.993
 5520TIP3    H216567   1.455   0.197   1.001
 5521TIP3   OH216568   3.162   2.753   4.154
 5521TIP3    H116569   3.253   2.735   4.180
 5521TIP3    H216570   3.126   2.666   4.135
 5522TIP3   OH216571   0.293   1.731   3.100
 5522TIP3    H116572   0.219   1.785   3.072
 5522TIP3    H216573   0.317   1.766   3.186
 5523TIP3   OH216574   2.888   1.094   0.432
 5523TIP3    H116575   2.841   1.165   0.389
 5523TIP3    H216576   2.897   1.122   0.523
 5524TIP3   OH216577   0.180   1.730   4.798
 5524TIP3    H116578   0.145   1.645   4.825
 5524TIP3    H216579   0.105   1.778   4.766
 5525TIP3   OH216580   5.564   4.927   0.668
 5525TIP3    H116581   5.545   4.987   0.596
 5525TIP3    H216582   5.596   4.848   0.626
 5526TIP3   OH216583   3.654   5.266   4.665
 5526TIP3    H116584   3.652   5.215   4.584
 5526TIP3    H216585   3.597   5.341   4.648
 5527TIP3   OH216586   3.765   5.300   1.830
 5527TIP3    H116587   3.765   5.216   1.783
 5527TIP3    H216588   3.779   5.366   1.762
 5528TIP3   OH216589   3.414   4.843   3.506
 5528TIP3    H116590   3.476   4.814   3.440
 5528TIP3    H216591   3.393   4.933   3.481
 5529TIP3   OH216592   3.590   2.392   4.434
 5529TIP3    H116593   3.579   2.418   4.342
 5529TIP3    H216594   3.509   2.420   4.477
 5530TIP3   OH216595   0.179   1.036   4.927
 5530TIP3    H116596   0.155   1.093   5.000
 5530TIP3    H216597   0.178   0.948   4.963
 5531TIP3   OH216598   3.297   0.430   0.715
 5531TIP3    H116599   3.273   0.342   0.686
 5531TIP3    H216600   3.373   0.453   0.661
 5532TIP3   OH216601   4.355   2.701   4.916
 5532TIP3    H116602   4.313   2.690   4.831
 5532TIP3    H216603   4.443   2.665   4.905
 5533TIP3   OH216604   0.273   1.407   5.082
 5533TIP3    H116605   0.181   1.382   5.068
 5533TIP3    H216606   0.313   1.329   5.121
 5534TIP3   OH216607   3.783   3.762   2.924
 5534TIP3    H116608   3.742   3.849   2.921
 5534TIP3    H216609   3.789   3.741   3.017
 5535TIP3   OH216610   2.914   2.955   1.218
 5535TIP3    H116611   2.852   2.937   1.288
 5535TIP3    H216612   2.998   2.965   1.262
 5536TIP3   OH216613   3.340   4.347   1.420
 5536TIP3    H116614   3.311   4.430   1.457
 5536TIP3    H216615   3.434   4.346   1.435
 5537TIP3   OH216616   2.768   5.500   3.282
 5537TIP3    H116617   2.710   5.569   3.249
 5537TIP3    H216618   2.855   5.524   3.250
 5538TIP3   OH216619   3.123   2.857   3.333
 5538TIP3    H116620   3.185   2.929   3.339
 5538TIP3    H216621   3.076   2.858   3.417
 5539TIP3   OH216622   5.743   1.846   1.806
 5539TIP3    H116623   5.736   1.753   1.785
 5539TIP3    H216624   5.743   1.849   1.902
 5540TIP3   OH216625   4.884   4.193   2.619
 5540TIP3    H116626   4.861   4.101   2.613
 5540TIP3    H216627   4.964   4.201   2.566
 5541TIP3   OH216628   4.392   3.791   4.048
 5541TIP3    H116629   4.402   3.869   3.994
 5541TIP3    H216630   4.304   3.759   4.029
 5542TIP3   OH216631   1.517   1.419   2.271
 5542TIP3    H116632   1.457   1.388   2.203
 5542TIP3    H216633   1.592   1.361   2.265
 5543TIP3   OH216634   3.847   0.507   0.839
 5543TIP3    H116635   3.823   0.541   0.753
 5543TIP3    H216636   3.876   0.417   0.822
 5544TIP3   OH216637   3.109   0.026   3.097
 5544TIP3    H116638   3.138  -0.011   3.181
 5544TIP3    H216639   3.077   0.114   3.119
 5545TIP3   OH216640   3.327   4.300   1.141
 5545TIP3    H116641   3.389   4.367   1.113
 5545TIP3    H216642   3.301   4.327   1.229
 5546TIP3   OH216643   4.948   3.878   2.793
 5546TIP3    H116644   4.992   3.959   2.819
 5546TIP3    H216645   4.946   3.882   2.697
 5547TIP3   OH216646   5.765   5.286   1.097
 5547TIP3    H116647   5.688   5.245   1.056
 5547TIP3    H216648   5.828   5.214   1.106
 5548TIP3   OH216649   5.846   0.643   3.628
 5548TIP3    H116650   5.876   0.605   3.545
 5548TIP3    H216651   5.780   0.581   3.659
 5549TIP3   OH216652   1.102   1.860   0.316
 5549TIP3    H116653   1.121   1.766   0.327
 5549TIP3    H216654   1.024   1.875   0.369
 5550TIP3   OH216655   5.454   2.772   1.593
 5550TIP3    H116656   5.491   2.792   1.507
 5550TIP3    H216657   5.399   2.847   1.614
 5551TIP3   OH216658   4.079   1.603   3.189
 5551TIP3    H116659   4.115   1.515   3.197
 5551TIP3    H216660   4.154   1.661   3.207
 5552TIP3   OH216661   4.125   1.924   3.761
 5552TIP3    H116662   4.136   1.835   3.795
 5552TIP3    H216663   4.213   1.954   3.741
 5553TIP3   OH216664   1.916   3.318   1.638
 5553TIP3    H116665   1.944   3.234   1.604
 5553TIP3    H216666   1.997   3.365   1.656
 5554TIP3   OH216667   5.997   4.097   3.791
 5554TIP3    H116668   6.002   4.169   3.853
 5554TIP3    H216669   6.035   4.132   3.710
 5555TIP3   OH216670   0.545   1.548   4.651
 5555TIP3    H116671   0.475   1.520   4.710
 5555TIP3    H216672   0.616   1.573   4.709
 5556TIP3   OH216673   5.147   3.049   2.149
 5556TIP3    H116674   5.232   3.006   2.155
 5556TIP3    H216675   5.091   3.002   2.211
 5557TIP3   OH216676   0.525   0.386   2.270
 5557TIP3    H116677   0.568   0.310   2.232
 5557TIP3    H216678   0.563   0.461   2.224
 5558TIP3   OH216679   3.344   3.480   2.688
 5558TIP3    H116680   3.258   3.448   2.715
 5558TIP3    H216681   3.345   3.572   2.712
 5559TIP3   OH216682   2.120   0.564   3.893
 5559TIP3    H116683   2.101   0.603   3.808
 5559TIP3    H216684   2.216   0.558   3.896
 5560TIP3   OH216685   3.238   5.768   0.831
 5560TIP3    H116686   3.288   5.841   0.868
 5560TIP3    H216687   3.275   5.690   0.873
 5561TIP3   OH216688   3.956   0.798   3.311
 5561TIP3    H116689   3.888   0.809   3.377
 5561TIP3    H216690   3.962   0.703   3.298
 5562TIP3   OH216691   3.116   0.294   2.628
 5562TIP3    H116692   3.143   0.375   2.670
 5562TIP3    H216693   3.194   0.239   2.628
 5563TIP3   OH216694   4.109   1.188   1.493
 5563TIP3    H116695   4.065   1.239   1.426
 5563TIP3    H216696   4.042   1.128   1.526
 5564TIP3   OH216697   0.707   0.518   4.484
 5564TIP3    H116698   0.637   0.533   4.547
 5564TIP3    H216699   0.787   0.517   4.537
 5565TIP3   OH216700   0.531   2.443   1.267
 5565TIP3    H116701   0.441   2.411   1.272
 5565TIP3    H216702   0.532   2.501   1.191
 5566TIP3   OH216703   2.225   1.060   4.336
 5566TIP3    H116704   2.303   1.059   4.392
 5566TIP3    H216705   2.160   1.107   4.388
 5567TIP3   OH216706   5.009   2.820   3.829
 5567TIP3    H116707   5.102   2.823   3.854
 5567TIP3    H216708   4.995   2.731   3.797
 5568TIP3   OH216709   2.378   3.088   4.178
 5568TIP3    H116710   2.461   3.127   4.205
 5568TIP3    H216711   2.393   3.058   4.089
 5569TIP3   OH216712   0.361   2.176   4.940
 5569TIP3    H116713   0.368   2.212   5.029
 5569TIP3    H216714   0.336   2.085   4.954
 5570TIP3   OH216715   3.785   3.454   1.640
 5570TIP3    H116716   3.731   3.496   1.573
 5570TIP3    H216717   3.853   3.519   1.659
 5571TIP3   OH216718   3.420   4.653   4.803
 5571TIP3    H116719   3.436   4.739   4.841
 5571TIP3    H216720   3.330   4.657   4.771
 5572TIP3   OH216721   2.518   4.923   0.084
 5572TIP3    H116722   2.599   4.873   0.092
 5572TIP3    H216723   2.484   4.899  -0.002
 5573TIP3   OH216724   4.581   4.171   3.294
 5573TIP3    H116725   4.666   4.137   3.323
 5573TIP3    H216726   4.541   4.099   3.246
 5574TIP3   OH216727   2.315   4.050   1.205
 5574TIP3    H116728   2.229   4.092   1.200
 5574TIP3    H216729   2.365   4.089   1.133
 5575TIP3   OH216730   0.457   1.951   2.655
 5575TIP3    H116731   0.395   1.918   2.720
 5575TIP3    H216732   0.511   1.876   2.633
 5576TIP3   OH216733   0.271   5.636   2.963
 5576TIP3    H116734   0.293   5.729   2.954
 5576TIP3    H216735   0.265   5.622   3.058
 5577TIP3   OH216736   4.254   0.046   0.915
 5577TIP3    H116737   4.303  -0.001   0.982
 5577TIP3    H216738   4.164   0.047   0.947
 5578TIP3   OH216739   2.187   4.485   4.364
 5578TIP3    H116740   2.168   4.560   4.308
 5578TIP3    H216741   2.179   4.409   4.307
 5579TIP3   OH216742   2.456   2.247   1.112
 5579TIP3    H116743   2.445   2.340   1.130
 5579TIP3    H216744   2.445   2.204   1.197
 5580TIP3   OH216745   3.962   1.547   1.765
 5580TIP3    H116746   4.048   1.513   1.742
 5580TIP3    H216747   3.957   1.632   1.722
 5581TIP3   OH216748   5.117   4.121   1.434
 5581TIP3    H116749   5.074   4.041   1.404
 5581TIP3    H216750   5.204   4.118   1.393
 5582TIP3   OH216751   0.265   4.125   1.028
 5582TIP3    H116752   0.231   4.191   1.088
 5582TIP3    H216753   0.348   4.097   1.068
 5583TIP3   OH216754   5.465   5.666   0.643
 5583TIP3    H116755   5.498   5.638   0.557
 5583TIP3    H216756   5.543   5.690   0.693
 5584TIP3   OH216757   6.359   2.799   3.023
 5584TIP3    H116758   6.298   2.728   3.006
 5584TIP3    H216759   6.439   2.773   2.979
 5585TIP3   OH216760   3.342   3.983   0.164
 5585TIP3    H116761   3.280   4.022   0.102
 5585TIP3    H216762   3.332   3.889   0.152
 5586TIP3   OH216763   4.912   4.998   4.852
 5586TIP3    H116764   4.991   5.011   4.904
 5586TIP3    H216765   4.898   5.081   4.807
 5587TIP3   OH216766   4.776   5.504   2.124
 5587TIP3    H116767   4.682   5.499   2.110
 5587TIP3    H216768   4.797   5.426   2.175
 5588TIP3   OH216769   4.792   3.152   1.572
 5588TIP3    H116770   4.754   3.140   1.485
 5588TIP3    H216771   4.858   3.084   1.579
 5589TIP3   OH216772   2.997   0.833   2.644
 5589TIP3    H116773   2.964   0.909   2.596
 5589TIP3    H216774   2.981   0.853   2.736
 5590TIP3   OH216775   1.912   4.140   0.015
 5590TIP3    H116776   1.845   4.201   0.045
 5590TIP3    H216777   1.961   4.117   0.093
 5591TIP3   OH216778   2.625   5.869   1.880
 5591TIP3    H116779   2.695   5.804   1.892
 5591TIP3    H216780   2.619   5.881   1.785
 5592TIP3   OH216781   1.464   5.147   4.731
 5592TIP3    H116782   1.557   5.128   4.736
 5592TIP3    H216783   1.422   5.077   4.781
 5593TIP3   OH216784   3.512   3.665   0.149
 5593TIP3    H116785   3.590   3.659   0.203
 5593TIP3    H216786   3.500   3.576   0.113
 5594TIP3   OH216787   2.455   4.625   3.177
 5594TIP3    H116788   2.389   4.569   3.219
 5594TIP3    H216789   2.460   4.591   3.087
 5595TIP3   OH216790   3.016   3.844   1.313
 5595TIP3    H116791   3.083   3.863   1.379
 5595TIP3    H216792   3.038   3.902   1.239
 5596TIP3   OH216793   3.273   0.553   3.376
 5596TIP3    H116794   3.229   0.611   3.314
 5596TIP3    H216795   3.292   0.474   3.326
 5597TIP3   OH216796   1.905   5.176   5.108
 5597TIP3    H116797   1.884   5.268   5.095
 5597TIP3    H216798   1.895   5.137   5.021
 5598TIP3   OH216799   1.078   5.933   2.838
 5598TIP3    H116800   1.045   5.960   2.924
 5598TIP3    H216801   1.170   5.959   2.838
 5599TIP3   OH216802   3.158   0.331   0.057
 5599TIP3    H116803   3.211   0.385   0.116
 5599TIP3    H216804   3.068   0.358   0.074
 5600TIP3   OH216805   5.932   2.970   0.105
 5600TIP3    H116806   5.880   2.958   0.184
 5600TIP3    H216807   5.934   2.883   0.064
 5601TIP3   OH216808   5.995   1.801   1.679
 5601TIP3    H116809   6.041   1.850   1.610
 5601TIP3    H216810   5.913   1.849   1.690
 5602TIP3   OH216811   6.064   1.126   4.417
 5602TIP3    H116812   6.069   1.034   4.394
 5602TIP3    H216813   6.058   1.128   4.512
 5603TIP3   OH216814   1.562   5.077   4.330
 5603TIP3    H116815   1.576   4.983   4.342
 5603TIP3    H216816   1.643   5.117   4.361
 5604TIP3   OH216817   1.466   4.410   3.459
 5604TIP3    H116818   1.461   4.315   3.445
 5604TIP3    H216819   1.553   4.434   3.427
 5605TIP3   OH216820  -0.020   1.591   2.486
 5605TIP3    H116821  -0.014   1.573   2.392
 5605TIP3    H216822   0.040   1.529   2.526
 5606TIP3   OH216823   0.957   1.958   2.424
 5606TIP3    H116824   1.014   2.034   2.409
 5606TIP3    H216825   0.872   1.996   2.447
 5607TIP3   OH216826   2.927   3.634   5.090
 5607TIP3    H116827   3.009   3.617   5.136
 5607TIP3    H216828   2.869   3.563   5.117
 5608TIP3   OH216829   3.551   3.781   2.603
 5608TIP3    H116830   3.500   3.827   2.536
 5608TIP3    H216831   3.609   3.724   2.552
 5609TIP3   OH216832   2.579   5.303   4.439
 5609TIP3    H116833   2.671   5.317   4.418
 5609TIP3    H216834   2.567   5.344   4.525
 5610TIP3   OH216835   0.821   0.816   0.457
 5610TIP3    H116836   0.753   0.855   0.511
 5610TIP3    H216837   0.857   0.745   0.510
 5611TIP3   OH216838   2.461   1.886   1.209
 5611TIP3    H116839   2.391   1.902   1.146
 5611TIP3    H216840   2.477   1.970   1.251
 5612TIP3   OH216841   4.942   3.864   1.740
 5612TIP3    H116842   5.005   3.807   1.696
 5612TIP3    H216843   4.876   3.883   1.674
 5613TIP3   OH216844   0.454   2.021   0.676
 5613TIP3    H116845   0.380   1.985   0.627
 5613TIP3    H216846   0.451   1.976   0.761
 5614TIP3   OH216847   0.516   4.988   1.092
 5614TIP3    H116848   0.479   5.066   1.133
 5614TIP3    H216849   0.508   4.919   1.158
 5615TIP3   OH216850   4.768   5.074   1.587
 5615TIP3    H116851   4.844   5.016   1.591
 5615TIP3    H216852   4.788   5.135   1.515
 5616TIP3   OH216853   3.703   0.653   2.343
 5616TIP3    H116854   3.730   0.707   2.269
 5616TIP3    H216855   3.632   0.598   2.309
 5617TIP3   OH216856   5.083   1.968   1.134
 5617TIP3    H116857   5.056   1.990   1.223
 5617TIP3    H216858   5.138   2.041   1.107
 5618TIP3   OH216859   2.469   4.777   3.909
 5618TIP3    H116860   2.409   4.777   3.834
 5618TIP3    H216861   2.484   4.685   3.928
 5619TIP3   OH216862   2.530   3.700   5.078
 5619TIP3    H116863   2.582   3.778   5.095
 5619TIP3    H216864   2.557   3.672   4.990
 5620TIP3   OH216865   2.903   0.107   1.581
 5620TIP3    H116866   2.846   0.157   1.640
 5620TIP3    H216867   2.988   0.106   1.624
 5621TIP3   OH216868   4.104   3.102   3.104
 5621TIP3    H116869   4.155   3.096   3.185
 5621TIP3    H216870   4.169   3.093   3.034
 5622TIP3   OH216871   2.362   2.924   1.858
 5622TIP3    H116872   2.371   3.010   1.899
 5622TIP3    H216873   2.345   2.943   1.765
 5623TIP3   OH216874   1.794   1.943   3.535
 5623TIP3    H116875   1.776   1.907   3.622
 5623TIP3    H216876   1.888   1.929   3.523
 5624TIP3   OH216877   1.363   4.270   2.885
 5624TIP3    H116878   1.438   4.240   2.835
 5624TIP3    H216879   1.336   4.351   2.842
 5625TIP3   OH216880   2.962   4.590   5.160
 5625TIP3    H116881   3.028   4.521   5.171
 5625TIP3    H216882   2.933   4.581   5.069
 5626TIP3   OH216883   5.915   5.847   1.485
 5626TIP3    H116884   5.928   5.781   1.553
 5626TIP3    H216885   5.834   5.891   1.509
 5627TIP3   OH216886   4.253   0.735   2.415
 5627TIP3    H116887   4.160   0.717   2.432
 5627TIP3    H216888   4.288   0.652   2.381
 5628TIP3   OH216889   1.068   2.922   1.931
 5628TIP3    H116890   0.996   2.985   1.926
 5628TIP3    H216891   1.025   2.839   1.954
 5629TIP3   OH216892   5.573   0.558   1.942
 5629TIP3    H116893   5.495   0.589   1.989
 5629TIP3    H216894   5.542   0.484   1.890
 5630TIP3   OH216895   2.297   3.508   4.995
 5630TIP3    H116896   2.365   3.543   5.052
 5630TIP3    H216897   2.275   3.581   4.937
 5631TIP3   OH216898   4.609   1.850   5.046
 5631TIP3    H116899   4.570   1.764   5.060
 5631TIP3    H216900   4.564   1.885   4.970
 5632TIP3   OH216901   5.537   3.877   4.982
 5632TIP3    H116902   5.584   3.912   4.906
 5632TIP3    H216903   5.444   3.893   4.962
 5633TIP3   OH216904   0.734   1.042   4.480
 5633TIP3    H116905   0.684   1.122   4.495
 5633TIP3    H216906   0.716   0.987   4.555
 5634TIP3   OH216907   1.231   2.423   2.345
 5634TIP3    H116908   1.222   2.399   2.438
 5634TIP3    H216909   1.246   2.517   2.346
 5635TIP3   OH216910   5.807   3.425   4.722
 5635TIP3    H116911   5.727   3.470   4.748
 5635TIP3    H216912   5.848   3.398   4.804
 5636TIP3   OH216913   6.221   4.946   0.186
 5636TIP3    H116914   6.214   4.882   0.116
 5636TIP3    H216915   6.181   4.904   0.262
 5637TIP3   OH216916   4.497   2.084   3.321
 5637TIP3    H116917   4.497   2.005   3.266
 5637TIP3    H216918   4.489   2.156   3.259
 5638TIP3   OH216919   5.508   0.967   4.322
 5638TIP3    H116920   5.574   1.017   4.272
 5638TIP3    H216921   5.450   0.930   4.255
 5639TIP3   OH216922   3.639   3.086   1.552
 5639TIP3    H116923   3.724   3.093   1.510
 5639TIP3    H216924   3.654   3.113   1.643
 5640TIP3   OH216925   1.038   0.468   3.610
 5640TIP3    H116926   1.083   0.463   3.694
 5640TIP3    H216927   1.068   0.551   3.571
 5641TIP3   OH216928   5.935   4.802   3.340
 5641TIP3    H116929   5.937   4.847   3.424
 5641TIP3    H216930   6.009   4.741   3.344
 5642TIP3   OH216931   4.785   4.898   2.904
 5642TIP3    H116932   4.704   4.865   2.943
 5642TIP3    H216933   4.764   4.987   2.876
 5643TIP3   OH216934   4.084   3.211   0.959
 5643TIP3    H116935   4.143   3.212   1.034
 5643TIP3    H216936   4.053   3.121   0.953
 5644TIP3   OH216937   2.745   1.370   3.417
 5644TIP3    H116938   2.658   1.384   3.381
 5644TIP3    H216939   2.797   1.444   3.385
 5645TIP3   OH216940   5.094   4.525   4.204
 5645TIP3    H116941   5.090   4.618   4.183
 5645TIP3    H216942   5.010   4.505   4.244
 5646TIP3   OH216943   5.243   1.163   3.921
 5646TIP3    H116944   5.301   1.191   3.850
 5646TIP3    H216945   5.226   1.071   3.904
 5647TIP3   OH216946   1.205   1.385   2.462
 5647TIP3    H116947   1.146   1.331   2.515
 5647TIP3    H216948   1.279   1.402   2.520
 5648TIP3   OH216949   5.067   1.632   2.171
 5648TIP3    H116950   4.980   1.601   2.193
 5648TIP3    H216951   5.115   1.554   2.143
 5649TIP3   OH216952   2.342   2.124   1.856
 5649TIP3    H116953   2.281   2.138   1.929
 5649TIP3    H216954   2.383   2.039   1.876
 5650TIP3   OH216955   4.847   5.602   0.101
 5650TIP3    H116956   4.915   5.571   0.041
 5650TIP3    H216957   4.838   5.695   0.082
 5651TIP3   OH216958   0.130   1.762   1.056
 5651TIP3    H116959   0.111   1.774   1.149
 5651TIP3    H216960   0.046   1.777   1.012
 5652TIP3   OH216961   3.303   1.489   1.728
 5652TIP3    H116962   3.261   1.556   1.675
 5652TIP3    H216963   3.237   1.420   1.735
 5653TIP3   OH216964   1.975   2.166   4.170
 5653TIP3    H116965   1.892   2.171   4.122
 5653TIP3    H216966   2.025   2.241   4.138
 5654TIP3   OH216967   3.890   3.156   1.460
 5654TIP3    H116968   3.952   3.110   1.516
 5654TIP3    H216969   3.943   3.220   1.412
 5655TIP3   OH216970   0.625   1.446   5.071
 5655TIP3    H116971   0.630   1.441   4.976
 5655TIP3    H216972   0.565   1.375   5.096
 5656TIP3   OH216973   5.652   4.934   4.461
 5656TIP3    H116974   5.696   5.019   4.466
 5656TIP3    H216975   5.596   4.941   4.384
 5657TIP3   OH216976   0.677   3.252   2.342
 5657TIP3    H116977   0.679   3.179   2.404
 5657TIP3    H216978   0.653   3.328   2.395
 5658TIP3   OH216979   2.374   3.217   0.988
 5658TIP3    H116980   2.424   3.152   1.037
 5658TIP3    H216981   2.440   3.266   0.938
 5659TIP3   OH216982   2.481   5.822   3.967
 5659TIP3    H116983   2.477   5.754   3.900
 5659TIP3    H216984   2.547   5.791   4.029
 5660TIP3   OH216985   4.914   3.027   3.990
 5660TIP3    H116986   4.940   2.952   3.937
 5660TIP3    H216987   4.997   3.061   4.024
 5661TIP3   OH216988   2.089   5.355   3.102
 5661TIP3    H116989   2.182   5.345   3.124
 5661TIP3    H216990   2.088   5.418   3.030
 5662TIP3   OH216991   3.328   5.341   3.767
 5662TIP3    H116992   3.381   5.376   3.839
 5662TIP3    H216993   3.247   5.311   3.809
 5663TIP3   OH216994   0.465   3.896   0.334
 5663TIP3    H116995   0.394   3.948   0.296
 5663TIP3    H216996   0.535   3.900   0.269
 5664TIP3   OH216997   0.660   1.304   4.499
 5664TIP3    H116998   0.733   1.341   4.449
 5664TIP3    H216999   0.591   1.371   4.493
 5665TIP3   OH217000   1.704   4.488   2.583
 5665TIP3    H117001   1.792   4.516   2.559
 5665TIP3    H217002   1.684   4.536   2.664
 5666TIP3   OH217003   4.296   2.250   0.282
 5666TIP3    H117004   4.211   2.294   0.275
 5666TIP3    H217005   4.285   2.170   0.230
 5667TIP3   OH217006   6.189   1.072   2.204
 5667TIP3    H117007   6.271   1.117   2.185
 5667TIP3    H217008   6.155   1.117   2.282
 5668TIP3   OH217009   5.309   1.439   4.720
 5668TIP3    H117010   5.219   1.443   4.752
 5668TIP3    H217011   5.314   1.355   4.675
 5669TIP3   OH217012   0.911   1.838   5.146
 5669TIP3    H117013   0.825   1.812   5.176
 5669TIP3    H217014   0.906   1.933   5.137
 5670TIP3   OH217015   2.730   5.589   1.197
 5670TIP3    H117016   2.648   5.539   1.193
 5670TIP3    H217017   2.751   5.606   1.105
 5671TIP3   OH217018   4.803   1.048   2.770
 5671TIP3    H117019   4.784   1.006   2.854
 5671TIP3    H217020   4.890   1.086   2.782
 5672TIP3   OH217021   6.063   4.628   3.988
 5672TIP3    H117022   6.103   4.712   3.964
 5672TIP3    H217023   5.982   4.625   3.937
 5673TIP3   OH217024   2.473   1.614   1.296
 5673TIP3    H117025   2.486   1.696   1.249
 5673TIP3    H217026   2.445   1.552   1.229
 5674TIP3   OH217027   4.179   4.779   4.627
 5674TIP3    H117028   4.177   4.816   4.539
 5674TIP3    H217029   4.193   4.685   4.613
 5675TIP3   OH217030   1.065   2.413   4.123
 5675TIP3    H117031   1.024   2.344   4.070
 5675TIP3    H217032   1.005   2.427   4.196
 5676TIP3   OH217033   1.754   0.460   2.749
 5676TIP3    H117034   1.737   0.396   2.818
 5676TIP3    H217035   1.670   0.470   2.704
 5677TIP3   OH217036   4.509   5.977   3.299
 5677TIP3    H117037   4.485   5.886   3.285
 5677TIP3    H217038   4.426   6.023   3.312
 5678TIP3   OH217039   4.395   3.384   2.061
 5678TIP3    H117040   4.393   3.478   2.043
 5678TIP3    H217041   4.371   3.343   1.978
 5679TIP3   OH217042   5.877   1.844   4.508
 5679TIP3    H117043   5.949   1.856   4.445
 5679TIP3    H217044   5.915   1.791   4.578
 5680TIP3   OH217045   4.023   0.109   3.683
 5680TIP3    H117046   4.035   0.019   3.652
 5680TIP3    H217047   4.008   0.100   3.777
 5681TIP3   OH217048   0.211   2.665   2.901
 5681TIP3    H117049   0.207   2.577   2.938
 5681TIP3    H217050   0.300   2.672   2.865
 5682TIP3   OH217051   1.398   4.001   4.593
 5682TIP3    H117052   1.426   3.936   4.528
 5682TIP3    H217053   1.380   3.949   4.672
 5683TIP3   OH217054   2.431   1.780   0.535
 5683TIP3    H117055   2.466   1.694   0.515
 5683TIP3    H217056   2.478   1.807   0.614
 5684TIP3   OH217057   1.013   2.670   4.461
 5684TIP3    H117058   1.000   2.764   4.453
 5684TIP3    H217059   1.108   2.658   4.449
 5685TIP3   OH217060   3.557   5.243   3.957
 5685TIP3    H117061   3.601   5.253   3.872
 5685TIP3    H217062   3.481   5.187   3.938
 5686TIP3   OH217063   3.465   1.060   2.825
 5686TIP3    H117064   3.533   0.992   2.832
 5686TIP3    H217065   3.401   1.037   2.893
 5687TIP3   OH217066   1.421   3.182   4.934
 5687TIP3    H117067   1.460   3.136   4.859
 5687TIP3    H217068   1.437   3.275   4.916
 5688TIP3   OH217069   2.931   4.950   1.094
 5688TIP3    H117070   2.856   4.923   1.148
 5688TIP3    H217071   3.003   4.960   1.157
 5689TIP3   OH217072   0.995   2.388   1.960
 5689TIP3    H117073   0.951   2.401   2.045
 5689TIP3    H217074   1.066   2.327   1.979
 5690TIP3   OH217075   0.651   1.191   1.804
 5690TIP3    H117076   0.661   1.097   1.822
 5690TIP3    H217077   0.560   1.209   1.825
 5691TIP3   OH217078   5.488   2.196   1.840
 5691TIP3    H117079   5.438   2.265   1.883
 5691TIP3    H217080   5.516   2.138   1.911
 5692TIP3   OH217081   2.280   5.201   0.252
 5692TIP3    H117082   2.295   5.123   0.198
 5692TIP3    H217083   2.238   5.264   0.192
 5693TIP3   OH217084   2.795   1.918   2.254
 5693TIP3    H117085   2.865   1.856   2.274
 5693TIP3    H217086   2.750   1.931   2.337
 5694TIP3   OH217087   5.397   2.029   0.135
 5694TIP3    H117088   5.316   2.018   0.186
 5694TIP3    H217089   5.393   2.120   0.105
 5695TIP3   OH217090   1.808   3.462   0.882
 5695TIP3    H117091   1.851   3.469   0.797
 5695TIP3    H217092   1.851   3.388   0.924
 5696TIP3   OH217093   2.676   3.025   4.484
 5696TIP3    H117094   2.619   3.060   4.553
 5696TIP3    H217095   2.707   2.941   4.520
 5697TIP3   OH217096   4.547   0.520   2.124
 5697TIP3    H117097   4.589   0.606   2.123
 5697TIP3    H217098   4.615   0.460   2.153
 5698TIP3   OH217099   2.948   3.085   0.295
 5698TIP3    H117100   2.933   3.045   0.381
 5698TIP3    H217101   3.040   3.112   0.297
 5699TIP3   OH217102   5.543   3.944   1.059
 5699TIP3    H117103   5.594   3.974   0.984
 5699TIP3    H217104   5.525   3.852   1.041
 5700TIP3   OH217105   6.096   0.753   4.661
 5700TIP3    H117106   6.010   0.732   4.698
 5700TIP3    H217107   6.125   0.831   4.708
 5701TIP3   OH217108   0.415   0.706   2.048
 5701TIP3    H117109   0.361   0.660   1.984
 5701TIP3    H217110   0.498   0.657   2.049
 5702TIP3   OH217111   1.349   2.205   2.014
 5702TIP3    H117112   1.427   2.150   2.009
 5702TIP3    H217113   1.284   2.152   2.059
 5703TIP3   OH217114   0.383   3.485   0.420
 5703TIP3    H117115   0.385   3.538   0.500
 5703TIP3    H217116   0.330   3.409   0.443
 5704TIP3   OH217117   0.389   2.199   1.999
 5704TIP3    H117118   0.308   2.248   1.984
 5704TIP3    H217119   0.458   2.263   1.986
 5705TIP3   OH217120   5.847   4.446   4.180
 5705TIP3    H117121   5.845   4.534   4.142
 5705TIP3    H217122   5.799   4.454   4.262
 5706TIP3   OH217123   1.426   0.042   2.538
 5706TIP3    H117124   1.341   0.070   2.572
 5706TIP3    H217125   1.482   0.037   2.616
 5707TIP3   OH217126   5.949   2.367   5.093
 5707TIP3    H117127   5.956   2.316   5.013
 5707TIP3    H217128   5.865   2.413   5.086
 5708TIP3   OH217129   3.473   4.571   3.752
 5708TIP3    H117130   3.523   4.501   3.711
 5708TIP3    H217131   3.388   4.568   3.709
 5709TIP3   OH217132   0.047   0.901   2.412
 5709TIP3    H117133   0.141   0.900   2.393
 5709TIP3    H217134   0.009   0.946   2.337
 5710TIP3   OH217135   2.419   0.156   2.226
 5710TIP3    H117136   2.446   0.114   2.144
 5710TIP3    H217137   2.386   0.242   2.199
 5711TIP3   OH217138   4.751   1.010   4.915
 5711TIP3    H117139   4.751   1.040   5.006
 5711TIP3    H217140   4.844   1.006   4.892
 5712TIP3   OH217141   2.885   0.573   1.526
 5712TIP3    H117142   2.944   0.517   1.577
 5712TIP3    H217143   2.813   0.514   1.501
 5713TIP3   OH217144   5.375   3.556   4.801
 5713TIP3    H117145   5.358   3.650   4.811
 5713TIP3    H217146   5.294   3.521   4.763
 5714TIP3   OH217147   3.803   0.892   0.612
 5714TIP3    H117148   3.789   0.924   0.523
 5714TIP3    H217149   3.821   0.799   0.601
 5715TIP3   OH217150   4.719   0.660   2.628
 5715TIP3    H117151   4.677   0.727   2.573
 5715TIP3    H217152   4.797   0.703   2.662
 5716TIP3   OH217153   0.808   4.811   2.952
 5716TIP3    H117154   0.901   4.829   2.958
 5716TIP3    H217155   0.799   4.755   2.875
 5717TIP3   OH217156   1.148   1.228   0.447
 5717TIP3    H117157   1.194   1.144   0.450
 5717TIP3    H217158   1.218   1.294   0.451
 5718TIP3   OH217159   3.379   0.340   3.231
 5718TIP3    H117160   3.438   0.285   3.180
 5718TIP3    H217161   3.393   0.314   3.321
 5719TIP3   OH217162   2.556   4.373   5.010
 5719TIP3    H117163   2.528   4.450   5.058
 5719TIP3    H217164   2.540   4.394   4.918
 5720TIP3   OH217165   6.049   3.724   2.489
 5720TIP3    H117166   6.044   3.797   2.551
 5720TIP3    H217167   5.960   3.691   2.484
 5721TIP3   OH217168   3.733   1.168   1.668
 5721TIP3    H117169   3.814   1.119   1.653
 5721TIP3    H217170   3.751   1.255   1.632
 5722TIP3   OH217171   3.742   0.346   2.656
 5722TIP3    H117172   3.698   0.347   2.571
 5722TIP3    H217173   3.833   0.371   2.637
 5723TIP3   OH217174   4.963   1.904   4.167
 5723TIP3    H117175   5.043   1.927   4.120
 5723TIP3    H217176   4.892   1.923   4.104
 5724TIP3   OH217177   2.813   2.905   0.139
 5724TIP3    H117178   2.875   2.969   0.175
 5724TIP3    H217179   2.755   2.957   0.083
 5725TIP3   OH217180   0.776   3.815   1.028
 5725TIP3    H117181   0.745   3.735   1.071
 5725TIP3    H217182   0.831   3.785   0.956
 5726TIP3   OH217183   5.920   3.306   4.945
 5726TIP3    H117184   5.940   3.301   5.039
 5726TIP3    H217185   6.006   3.316   4.904
 5727TIP3   OH217186   2.105   5.457   4.402
 5727TIP3    H117187   2.198   5.468   4.385
 5727TIP3    H217188   2.092   5.362   4.407
 5728TIP3   OH217189   6.133   3.496   0.093
 5728TIP3    H117190   6.220   3.534   0.106
 5728TIP3    H217191   6.132   3.469   0.001
 5729TIP3   OH217192   5.829   1.242   2.157
 5729TIP3    H117193   5.755   1.218   2.212
 5729TIP3    H217194   5.841   1.167   2.099
 5730TIP3   OH217195   1.829   0.318   1.437
 5730TIP3    H117196   1.775   0.318   1.517
 5730TIP3    H217197   1.788   0.252   1.381
 5731TIP3   OH217198   1.175   4.894   2.000
 5731TIP3    H117199   1.190   4.883   1.906
 5731TIP3    H217200   1.087   4.931   2.006
 5732TIP3   OH217201   1.819   5.987   0.981
 5732TIP3    H117202   1.849   5.931   0.909
 5732TIP3    H217203   1.827   5.932   1.059
 5733TIP3   OH217204   5.490   3.578   0.101
 5733TIP3    H117205   5.493   3.514   0.172
 5733TIP3    H217206   5.420   3.639   0.126
 5734TIP3   OH217207   1.452   0.303   4.383
 5734TIP3    H117208   1.385   0.319   4.317
 5734TIP3    H217209   1.439   0.374   4.447
 5735TIP3   OH217210   0.935   2.704   4.715
 5735TIP3    H117211   0.944   2.707   4.620
 5735TIP3    H217212   1.024   2.696   4.748
 5736TIP3   OH217213   4.285   2.083   1.908
 5736TIP3    H117214   4.224   2.135   1.959
 5736TIP3    H217215   4.304   2.007   1.964
 5737TIP3   OH217216   3.845   1.019   4.342
 5737TIP3    H117217   3.795   0.942   4.317
 5737TIP3    H217218   3.786   1.093   4.321
 5738TIP3   OH217219   2.339   0.943   3.122
 5738TIP3    H117220   2.291   0.878   3.070
 5738TIP3    H217221   2.322   0.919   3.213
 5739TIP3   OH217222   1.630   0.161   3.350
 5739TIP3    H117223   1.550   0.140   3.399
 5739TIP3    H217224   1.661   0.242   3.389
 5740TIP3   OH217225   2.461   3.913   0.456
 5740TIP3    H117226   2.391   3.950   0.402
 5740TIP3    H217227   2.425   3.831   0.489
 5741TIP3   OH217228   4.124   2.542   2.326
 5741TIP3    H117229   4.130   2.612   2.391
 5741TIP3    H217230   4.030   2.534   2.308
 5742TIP3   OH217231   3.987   1.055   4.073
 5742TIP3    H117232   3.993   0.968   4.033
 5742TIP3    H217233   3.894   1.078   4.065
 5743TIP3   OH217234   5.240   0.207   4.944
 5743TIP3    H117235   5.244   0.115   4.971
 5743TIP3    H217236   5.148   0.230   4.951
 5744TIP3   OH217237   5.972   0.879   0.653
 5744TIP3    H117238   5.960   0.815   0.583
 5744TIP3    H217239   5.977   0.963   0.607
 5745TIP3   OH217240   5.286   4.407   1.290
 5745TIP3    H117241   5.376   4.433   1.271
 5745TIP3    H217242   5.282   4.314   1.266
 5746TIP3   OH217243   6.247   4.867   2.736
 5746TIP3    H117244   6.180   4.922   2.778
 5746TIP3    H217245   6.284   4.815   2.808
 5747TIP3   OH217246   0.488   5.492   2.214
 5747TIP3    H117247   0.476   5.469   2.306
 5747TIP3    H217248   0.559   5.556   2.215
 5748TIP3   OH217249   2.994   1.833   2.441
 5748TIP3    H117250   2.926   1.774   2.473
 5748TIP3    H217251   3.072   1.810   2.491
 5749TIP3   OH217252   3.494   0.172   4.611
 5749TIP3    H117253   3.538   0.200   4.531
 5749TIP3    H217254   3.413   0.132   4.580
 5750TIP3   OH217255   4.438   4.741   4.089
 5750TIP3    H117256   4.371   4.674   4.083
 5750TIP3    H217257   4.453   4.768   3.998
 5751TIP3   OH217258   4.076   3.062   2.677
 5751TIP3    H117259   4.124   3.063   2.760
 5751TIP3    H217260   4.023   2.983   2.682
 5752TIP3   OH217261   4.183   3.174   3.863
 5752TIP3    H117262   4.166   3.080   3.863
 5752TIP3    H217263   4.098   3.214   3.842
 5753TIP3   OH217264   6.224   2.506   0.518
 5753TIP3    H117265   6.185   2.580   0.471
 5753TIP3    H217266   6.270   2.547   0.592
 5754TIP3   OH217267   1.871   2.869   1.179
 5754TIP3    H117268   1.834   2.863   1.266
 5754TIP3    H217269   1.835   2.794   1.131
 5755TIP3   OH217270   3.745   3.034   4.819
 5755TIP3    H117271   3.797   3.058   4.896
 5755TIP3    H217272   3.753   2.939   4.813
 5756TIP3   OH217273   4.159   3.861   3.713
 5756TIP3    H117274   4.168   3.933   3.775
 5756TIP3    H217275   4.233   3.871   3.653
 5757TIP3   OH217276   1.591   4.197   1.737
 5757TIP3    H117277   1.556   4.118   1.694
 5757TIP3    H217278   1.575   4.267   1.674
 5758TIP3   OH217279   0.110   2.183   4.094
 5758TIP3    H117280   0.139   2.101   4.134
 5758TIP3    H217281   0.048   2.220   4.157
 5759TIP3   OH217282   5.407   3.213   2.957
 5759TIP3    H117283   5.419   3.308   2.964
 5759TIP3    H217284   5.409   3.182   3.048
 5760TIP3   OH217285   3.329   3.735   3.513
 5760TIP3    H117286   3.315   3.763   3.423
 5760TIP3    H217287   3.272   3.792   3.565
 5761TIP3   OH217288   5.795   5.087   2.231
 5761TIP3    H117289   5.831   5.173   2.248
 5761TIP3    H217290   5.836   5.059   2.148
 5762TIP3   OH217291   4.419   2.713   3.700
 5762TIP3    H117292   4.439   2.770   3.775
 5762TIP3    H217293   4.346   2.757   3.656
 5763TIP3   OH217294   0.270   1.411   3.088
 5763TIP3    H117295   0.343   1.459   3.048
 5763TIP3    H217296   0.309   1.331   3.123
 5764TIP3   OH217297   0.309   2.941   3.580
 5764TIP3    H117298   0.353   2.856   3.592
 5764TIP3    H217299   0.297   2.974   3.669
 5765TIP3   OH217300   2.227   3.796   3.839
 5765TIP3    H117301   2.170   3.795   3.762
 5765TIP3    H217302   2.252   3.888   3.850
 5766TIP3   OH217303   0.594   2.958   2.271
 5766TIP3    H117304   0.507   2.935   2.305
 5766TIP3    H217305   0.576   3.020   2.200
 5767TIP3   OH217306   3.697   0.640   3.112
 5767TIP3    H117307   3.681   0.550   3.138
 5767TIP3    H217308   3.610   0.680   3.106
 5768TIP3   OH217309   1.073   4.022   2.339
 5768TIP3    H117310   1.086   4.016   2.434
 5768TIP3    H217311   1.123   3.948   2.305
 5769TIP3   OH217312   0.317   0.785   4.392
 5769TIP3    H117313   0.349   0.818   4.308
 5769TIP3    H217314   0.223   0.798   4.389
 5770TIP3   OH217315   0.118   2.747   4.576
 5770TIP3    H117316   0.047   2.718   4.518
 5770TIP3    H217317   0.197   2.740   4.522
 5771TIP3   OH217318   3.293   0.083   1.455
 5771TIP3    H117319   3.351   0.007   1.464
 5771TIP3    H217320   3.345   0.147   1.406
 5772TIP3   OH217321   0.333   3.096   0.089
 5772TIP3    H117322   0.363   3.173   0.041
 5772TIP3    H217323   0.246   3.119   0.120
 5773TIP3   OH217324   0.875   3.612   0.846
 5773TIP3    H117325   0.789   3.572   0.853
 5773TIP3    H217326   0.925   3.574   0.918
 5774TIP3   OH217327   3.670   3.206   2.873
 5774TIP3    H117328   3.617   3.285   2.877
 5774TIP3    H217329   3.748   3.232   2.823
 5775TIP3   OH217330   0.665   1.838   4.275
 5775TIP3    H117331   0.612   1.766   4.310
 5775TIP3    H217332   0.723   1.863   4.347
 5776TIP3   OH217333   6.240   5.938   4.410
 5776TIP3    H117334   6.197   5.912   4.491
 5776TIP3    H217335   6.245   6.034   4.416
 5777TIP3   OH217336   6.189   3.202   5.102
 5777TIP3    H117337   6.262   3.169   5.154
 5777TIP3    H217338   6.130   3.127   5.094
 5778TIP3   OH217339   3.178   4.869   1.289
 5778TIP3    H117340   3.217   4.798   1.237
 5778TIP3    H217341   3.133   4.825   1.360
 5779TIP3   OH217342   0.978   2.965   2.493
 5779TIP3    H117343   0.956   2.879   2.528
 5779TIP3    H217344   0.937   2.967   2.407
 5780TIP3   OH217345   3.575   1.844   0.331
 5780TIP3    H117346   3.564   1.929   0.287
 5780TIP3    H217347   3.488   1.804   0.327
 5781TIP3   OH217348   3.267   1.161   4.647
 5781TIP3    H117349   3.173   1.168   4.630
 5781TIP3    H217350   3.299   1.251   4.643
 5782TIP3   OH217351   5.643   5.930   4.331
 5782TIP3    H117352   5.599   5.890   4.406
 5782TIP3    H217353   5.690   6.005   4.368
 5783TIP3   OH217354   5.733   1.223   4.731
 5783TIP3    H117355   5.659   1.211   4.790
 5783TIP3    H217356   5.716   1.163   4.658
 5784TIP3   OH217357   5.561   2.913   4.070
 5784TIP3    H117358   5.485   2.881   4.021
 5784TIP3    H217359   5.542   2.891   4.161
 5785TIP3   OH217360   3.455   5.781   0.443
 5785TIP3    H117361   3.425   5.690   0.442
 5785TIP3    H217362   3.470   5.801   0.536
 5786TIP3   OH217363   5.711   1.117   0.521
 5786TIP3    H117364   5.708   1.206   0.555
 5786TIP3    H217365   5.787   1.116   0.463
 5787TIP3   OH217366   3.539   4.609   1.415
 5787TIP3    H117367   3.527   4.606   1.320
 5787TIP3    H217368   3.451   4.620   1.450
 5788TIP3   OH217369   4.639   0.703   1.426
 5788TIP3    H117370   4.702   0.769   1.397
 5788TIP3    H217371   4.569   0.753   1.468
 5789TIP3   OH217372   4.730   2.039   1.382
 5789TIP3    H117373   4.656   2.048   1.323
 5789TIP3    H217374   4.700   1.977   1.449
 5790TIP3   OH217375   6.347   4.442   1.886
 5790TIP3    H117376   6.314   4.516   1.835
 5790TIP3    H217377   6.279   4.375   1.880
 5791TIP3   OH217378   3.371   3.736   2.806
 5791TIP3    H117379   3.325   3.796   2.748
 5791TIP3    H217380   3.464   3.756   2.795
 5792TIP3   OH217381   0.702   4.941   1.380
 5792TIP3    H117382   0.741   4.959   1.465
 5792TIP3    H217383   0.640   5.013   1.366
 5793TIP3   OH217384   6.027   4.308   3.993
 5793TIP3    H117385   5.981   4.342   4.070
 5793TIP3    H217386   6.120   4.316   4.015
 5794TIP3   OH217387   4.713   0.869   3.269
 5794TIP3    H117388   4.714   0.926   3.193
 5794TIP3    H217389   4.715   0.928   3.344
 5795TIP3   OH217390   4.680   5.255   3.032
 5795TIP3    H117391   4.732   5.231   3.109
 5795TIP3    H217392   4.649   5.344   3.051
 5796TIP3   OH217393   2.684   4.763   1.913
 5796TIP3    H117394   2.756   4.819   1.942
 5796TIP3    H217395   2.664   4.708   1.989
 5797TIP3   OH217396   5.328   0.869   1.029
 5797TIP3    H117397   5.322   0.802   0.960
 5797TIP3    H217398   5.301   0.824   1.109
 5798TIP3   OH217399   2.983   0.617   0.863
 5798TIP3    H117400   2.899   0.659   0.884
 5798TIP3    H217401   3.000   0.643   0.773
 5799TIP3   OH217402   1.057   5.029   2.633
 5799TIP3    H117403   1.139   5.038   2.683
 5799TIP3    H217404   0.993   5.081   2.682
 5800TIP3   OH217405   4.924   4.106   4.936
 5800TIP3    H117406   4.857   4.174   4.924
 5800TIP3    H217407   4.942   4.075   4.847
 5801TIP3   OH217408   6.039   0.072   2.515
 5801TIP3    H117409   6.128   0.098   2.491
 5801TIP3    H217410   5.987   0.090   2.436
 5802TIP3   OH217411   3.026   1.247   2.908
 5802TIP3    H117412   2.950   1.190   2.898
 5802TIP3    H217413   3.079   1.204   2.975
 5803TIP3   OH217414   5.079   4.615   0.435
 5803TIP3    H117415   5.171   4.642   0.439
 5803TIP3    H217416   5.037   4.661   0.508
 5804TIP3   OH217417   2.704   4.295   3.360
 5804TIP3    H117418   2.747   4.281   3.276
 5804TIP3    H217419   2.657   4.214   3.377
 5805TIP3   OH217420   4.659   5.484   0.288
 5805TIP3    H117421   4.667   5.557   0.350
 5805TIP3    H217422   4.724   5.503   0.220
 5806TIP3   OH217423   1.387   3.325   3.966
 5806TIP3    H117424   1.335   3.281   3.899
 5806TIP3    H217425   1.436   3.254   4.009
 5807TIP3   OH217426   0.265   4.777   0.991
 5807TIP3    H117427   0.336   4.713   0.984
 5807TIP3    H217428   0.278   4.817   1.077
 5808TIP3   OH217429   3.147   0.388   2.038
 5808TIP3    H117430   3.229   0.374   1.991
 5808TIP3    H217431   3.174   0.423   2.123
 5809TIP3   OH217432   3.442   0.465   4.671
 5809TIP3    H117433   3.367   0.416   4.638
 5809TIP3    H217434   3.481   0.409   4.738
 5810TIP3   OH217435   0.296   0.834   1.522
 5810TIP3    H117436   0.303   0.916   1.474
 5810TIP3    H217437   0.267   0.859   1.610
 5811TIP3   OH217438   1.494   1.589   2.841
 5811TIP3    H117439   1.589   1.599   2.839
 5811TIP3    H217440   1.461   1.673   2.808
 5812TIP3   OH217441   5.842   0.227   3.935
 5812TIP3    H117442   5.840   0.162   3.865
 5812TIP3    H217443   5.909   0.290   3.908
 5813TIP3   OH217444   2.193   0.467   1.073
 5813TIP3    H117445   2.131   0.419   1.128
 5813TIP3    H217446   2.150   0.476   0.989
 5814TIP3   OH217447   3.562   0.928   4.547
 5814TIP3    H117448   3.549   1.021   4.525
 5814TIP3    H217449   3.584   0.887   4.464
 5815TIP3   OH217450   2.599   1.212   2.811
 5815TIP3    H117451   2.529   1.214   2.746
 5815TIP3    H217452   2.582   1.133   2.863
 5816TIP3   OH217453   0.194   2.972   2.796
 5816TIP3    H117454   0.184   2.997   2.888
 5816TIP3    H217455   0.284   2.942   2.788
 5817TIP3   OH217456   5.466   2.193   3.914
 5817TIP3    H117457   5.397   2.126   3.912
 5817TIP3    H217458   5.428   2.268   3.870
 5818TIP3   OH217459   2.487   1.938   1.582
 5818TIP3    H117460   2.521   1.852   1.557
 5818TIP3    H217461   2.471   1.931   1.676
 5819TIP3   OH217462   2.979   3.915   0.320
 5819TIP3    H117463   3.033   3.839   0.296
 5819TIP3    H217464   2.955   3.899   0.411
 5820TIP3   OH217465   1.010   1.242   0.856
 5820TIP3    H117466   0.976   1.238   0.767
 5820TIP3    H217467   0.946   1.196   0.910
 5821TIP3   OH217468   2.260   3.561   2.923
 5821TIP3    H117469   2.312   3.619   2.866
 5821TIP3    H217470   2.324   3.524   2.983
 5822TIP3   OH217471   3.666   1.689   2.258
 5822TIP3    H117472   3.666   1.599   2.224
 5822TIP3    H217473   3.596   1.690   2.323
 5823TIP3   OH217474   0.066   0.872   0.933
 5823TIP3    H117475   0.060   0.951   0.986
 5823TIP3    H217476   0.155   0.840   0.948
 5824TIP3   OH217477   3.623   5.247   1.249
 5824TIP3    H117478   3.624   5.270   1.342
 5824TIP3    H217479   3.557   5.178   1.243
 5825TIP3   OH217480   2.288   5.104   1.257
 5825TIP3    H117481   2.255   5.162   1.188
 5825TIP3    H217482   2.294   5.161   1.334
 5826TIP3   OH217483   3.930   1.961   4.987
 5826TIP3    H117484   3.894   2.049   4.998
 5826TIP3    H217485   3.981   1.947   5.067
 5827TIP3   OH217486   0.327   4.027   2.803
 5827TIP3    H117487   0.395   4.083   2.766
 5827TIP3    H217488   0.355   4.011   2.893
 5828TIP3   OH217489   1.735   3.230   5.144
 5828TIP3    H117490   1.672   3.303   5.150
 5828TIP3    H217491   1.710   3.184   5.064
 5829TIP3   OH217492   1.307   0.110   4.563
 5829TIP3    H117493   1.235   0.172   4.550
 5829TIP3    H217494   1.384   0.154   4.527
 5830TIP3   OH217495   0.236   5.643   2.608
 5830TIP3    H117496   0.256   5.682   2.693
 5830TIP3    H217497   0.145   5.665   2.593
 5831TIP3   OH217498   6.299   4.533   3.078
 5831TIP3    H117499   6.315   4.440   3.096
 5831TIP3    H217500   6.339   4.579   3.152
 5832TIP3   OH217501   2.423   5.530   2.447
 5832TIP3    H117502   2.379   5.454   2.408
 5832TIP3    H217503   2.506   5.496   2.480
 5833TIP3   OH217504   1.138   2.999   4.831
 5833TIP3    H117505   1.045   3.023   4.833
 5833TIP3    H217506   1.169   3.015   4.921
 5834TIP3   OH217507   2.295   5.462   1.748
 5834TIP3    H117508   2.205   5.450   1.717
 5834TIP3    H217509   2.292   5.543   1.798
 5835TIP3   OH217510   2.796   1.904   5.058
 5835TIP3    H117511   2.886   1.910   5.091
 5835TIP3    H217512   2.785   1.983   5.005
 5836TIP3   OH217513   0.358   4.780   4.367
 5836TIP3    H117514   0.424   4.716   4.396
 5836TIP3    H217515   0.399   4.823   4.292
 5837TIP3   OH217516   1.164   4.393   0.832
 5837TIP3    H117517   1.206   4.465   0.880
 5837TIP3    H217518   1.179   4.316   0.886
 5838TIP3   OH217519   0.690   5.085   4.913
 5838TIP3    H117520   0.765   5.093   4.853
 5838TIP3    H217521   0.628   5.028   4.867
 5839TIP3   OH217522   4.822   4.473   1.161
 5839TIP3    H117523   4.834   4.541   1.227
 5839TIP3    H217524   4.770   4.515   1.092
 5840TIP3   OH217525   6.124   3.338   1.879
 5840TIP3    H117526   6.214   3.307   1.874
 5840TIP3    H217527   6.108   3.382   1.795
 5841TIP3   OH217528   4.832   4.471   4.281
 5841TIP3    H117529   4.766   4.464   4.212
 5841TIP3    H217530   4.783   4.493   4.359
 5842TIP3   OH217531   2.295   3.055   4.819
 5842TIP3    H117532   2.332   2.972   4.849
 5842TIP3    H217533   2.232   3.031   4.752
 5843TIP3   OH217534   0.260   3.826   0.110
 5843TIP3    H117535   0.214   3.804   0.029
 5843TIP3    H217536   0.191   3.854   0.170
 5844TIP3   OH217537   3.444   4.546   0.249
 5844TIP3    H117538   3.425   4.496   0.170
 5844TIP3    H217539   3.465   4.479   0.315
 5845TIP3   OH217540   1.366   3.832   4.838
 5845TIP3    H117541   1.450   3.798   4.869
 5845TIP3    H217542   1.343   3.775   4.764
 5846TIP3   OH217543   1.440   1.067   2.761
 5846TIP3    H117544   1.443   1.060   2.666
 5846TIP3    H217545   1.352   1.100   2.780
 5847TIP3   OH217546   3.202   3.224   0.260
 5847TIP3    H117547   3.276   3.201   0.204
 5847TIP3    H217548   3.168   3.305   0.223
 5848TIP3   OH217549   5.830   3.753   1.020
 5848TIP3    H117550   5.787   3.680   0.977
 5848TIP3    H217551   5.785   3.831   0.985
 5849TIP3   OH217552   2.580   3.765   3.128
 5849TIP3    H117553   2.638   3.795   3.198
 5849TIP3    H217554   2.588   3.831   3.060
 5850TIP3   OH217555   2.950   1.975   0.378
 5850TIP3    H117556   2.965   2.042   0.310
 5850TIP3    H217557   2.917   2.024   0.453
 5851TIP3   OH217558   0.818   4.489   4.761
 5851TIP3    H117559   0.841   4.406   4.720
 5851TIP3    H217560   0.765   4.465   4.837
 5852TIP3   OH217561   2.824   4.503   4.933
 5852TIP3    H117562   2.754   4.568   4.928
 5852TIP3    H217563   2.780   4.423   4.961
 5853TIP3   OH217564   1.883   2.939   3.855
 5853TIP3    H117565   1.827   2.969   3.782
 5853TIP3    H217566   1.956   3.000   3.855
 5854TIP3   OH217567   2.210   5.549   1.278
 5854TIP3    H117568   2.155   5.517   1.207
 5854TIP3    H217569   2.149   5.595   1.336
 5855TIP3   OH217570   2.091   2.035   2.790
 5855TIP3    H117571   2.068   1.945   2.814
 5855TIP3    H217572   2.100   2.033   2.695
 5856TIP3   OH217573   6.103   4.937   3.101
 5856TIP3    H117574   6.071   4.955   3.013
 5856TIP3    H217575   6.044   4.870   3.135
 5857TIP3   OH217576   5.517   0.532   2.709
 5857TIP3    H117577   5.555   0.451   2.675
 5857TIP3    H217578   5.508   0.588   2.631
 5858TIP3   OH217579   5.442   4.203   0.849
 5858TIP3    H117580   5.381   4.130   0.857
 5858TIP3    H217581   5.528   4.163   0.846
 5859TIP3   OH217582   5.325   3.727   5.191
 5859TIP3    H117583   5.334   3.686   5.104
 5859TIP3    H217584   5.347   3.819   5.176
 5860TIP3   OH217585   3.847   0.222   0.189
 5860TIP3    H117586   3.923   0.184   0.234
 5860TIP3    H217587   3.807   0.148   0.144
 5861TIP3   OH217588   5.535   3.710   0.692
 5861TIP3    H117589   5.536   3.753   0.778
 5861TIP3    H217590   5.574   3.624   0.708
 5862TIP3   OH217591   5.312   4.933   4.097
 5862TIP3    H117592   5.289   4.957   4.187
 5862TIP3    H217593   5.286   5.009   4.045
 5863TIP3   OH217594   2.347   1.051   0.758
 5863TIP3    H117595   2.393   0.967   0.769
 5863TIP3    H217596   2.408   1.117   0.790
 5864TIP3   OH217597   2.048   0.190   0.305
 5864TIP3    H117598   2.043   0.143   0.389
 5864TIP3    H217599   2.138   0.222   0.301
 5865TIP3   OH217600   2.574   3.804   4.711
 5865TIP3    H117601   2.573   3.764   4.624
 5865TIP3    H217602   2.614   3.738   4.767
 5866TIP3   OH217603   4.085   2.631   0.345
 5866TIP3    H117604   3.994   2.651   0.363
 5866TIP3    H217605   4.134   2.703   0.384
 5867TIP3   OH217606   3.328   3.175   5.005
 5867TIP3    H117607   3.238   3.204   4.990
 5867TIP3    H217608   3.368   3.174   4.918
 5868TIP3   OH217609   2.730   2.826   0.947
 5868TIP3    H117610   2.692   2.758   1.003
 5868TIP3    H217611   2.824   2.821   0.963
 5869TIP3   OH217612   4.960   2.497   0.993
 5869TIP3    H117613   4.901   2.562   1.030
 5869TIP3    H217614   5.037   2.499   1.051
 5870TIP3   OH217615   2.150   4.851   5.097
 5870TIP3    H117616   2.062   4.822   5.119
 5870TIP3    H217617   2.171   4.918   5.162
 5871TIP3   OH217618   6.144   1.031   0.864
 5871TIP3    H117619   6.061   0.988   0.841
 5871TIP3    H217620   6.211   0.970   0.834
 5872TIP3   OH217621   3.154   1.187   0.551
 5872TIP3    H117622   3.147   1.095   0.526
 5872TIP3    H217623   3.248   1.201   0.561
 5873TIP3   OH217624   3.126   2.322   2.275
 5873TIP3    H117625   3.052   2.351   2.328
 5873TIP3    H217626   3.127   2.227   2.287
 5874TIP3   OH217627   4.640   4.315   0.060
 5874TIP3    H117628   4.624   4.264   0.140
 5874TIP3    H217629   4.553   4.341   0.030
 5875TIP3   OH217630   2.927   0.991   3.893
 5875TIP3    H117631   2.989   1.061   3.913
 5875TIP3    H217632   2.978   0.911   3.898
 5876TIP3   OH217633   2.314   2.147   0.654
 5876TIP3    H117634   2.404   2.157   0.685
 5876TIP3    H217635   2.281   2.072   0.703
 5877TIP3   OH217636   3.989   5.765   1.548
 5877TIP3    H117637   3.979   5.800   1.459
 5877TIP3    H217638   4.083   5.748   1.557
 5878TIP3   OH217639   0.309   1.209   3.463
 5878TIP3    H117640   0.232   1.265   3.455
 5878TIP3    H217641   0.281   1.124   3.430
 5879TIP3   OH217642   0.560   3.896   4.321
 5879TIP3    H117643   0.468   3.868   4.321
 5879TIP3    H217644   0.594   3.865   4.237
 5880TIP3   OH217645   5.034   0.908   3.113
 5880TIP3    H117646   5.065   0.820   3.091
 5880TIP3    H217647   4.942   0.896   3.135
 5881TIP3   OH217648   6.021   3.374   2.269
 5881TIP3    H117649   6.038   3.463   2.239
 5881TIP3    H217650   6.032   3.320   2.191
 5882TIP3   OH217651   1.154   5.383   1.587
 5882TIP3    H117652   1.073   5.383   1.536
 5882TIP3    H217653   1.188   5.294   1.579
 5883TIP3   OH217654   2.382   4.073   2.862
 5883TIP3    H117655   2.452   4.133   2.887
 5883TIP3    H217656   2.302   4.126   2.868
 5884TIP3   OH217657   0.234   1.830   2.749
 5884TIP3    H117658   0.165   1.861   2.808
 5884TIP3    H217659   0.195   1.836   2.662
 5885TIP3   OH217660   0.825   4.730   2.677
 5885TIP3    H117661   0.761   4.795   2.648
 5885TIP3    H217662   0.855   4.688   2.596
 5886TIP3   OH217663   2.160   0.672   1.872
 5886TIP3    H117664   2.163   0.611   1.798
 5886TIP3    H217665   2.068   0.694   1.881
 5887TIP3   OH217666   4.686   5.519   0.680
 5887TIP3    H117667   4.760   5.572   0.708
 5887TIP3    H217668   4.639   5.498   0.762
 5888TIP3   OH217669   2.811   3.658   2.086
 5888TIP3    H117670   2.728   3.657   2.039
 5888TIP3    H217671   2.805   3.734   2.143
 5889TIP3   OH217672   4.346   2.360   2.626
 5889TIP3    H117673   4.340   2.269   2.596
 5889TIP3    H217674   4.391   2.405   2.555
 5890TIP3   OH217675   4.086   1.722   5.202
 5890TIP3    H117676   4.037   1.670   5.138
 5890TIP3    H217677   4.162   1.667   5.224
 5891TIP3   OH217678   1.070   2.345   0.746
 5891TIP3    H117679   1.070   2.373   0.837
 5891TIP3    H217680   1.055   2.251   0.749
 5892TIP3   OH217681   2.617   0.366   5.037
 5892TIP3    H117682   2.631   0.460   5.024
 5892TIP3    H217683   2.703   0.332   5.060
 5893TIP3   OH217684   2.185   5.567   4.720
 5893TIP3    H117685   2.128   5.531   4.652
 5893TIP3    H217686   2.161   5.660   4.724
 5894TIP3   OH217687   5.067   2.083   0.569
 5894TIP3    H117688   5.108   2.076   0.655
 5894TIP3    H217689   5.012   2.161   0.575
 5895TIP3   OH217690   1.455   2.127   0.698
 5895TIP3    H117691   1.371   2.101   0.661
 5895TIP3    H217692   1.513   2.053   0.680
 5896TIP3   OH217693   2.898   5.392   1.876
 5896TIP3    H117694   2.870   5.391   1.785
 5896TIP3    H217695   2.829   5.347   1.925
 5897TIP3   OH217696   4.987   3.376   2.084
 5897TIP3    H117697   4.927   3.448   2.101
 5897TIP3    H217698   4.938   3.297   2.109
 5898TIP3   OH217699   1.378   5.488   1.920
 5898TIP3    H117700   1.447   5.436   1.879
 5898TIP3    H217701   1.390   5.474   2.014
 5899TIP3   OH217702   1.026   2.559   3.230
 5899TIP3    H117703   1.049   2.595   3.144
 5899TIP3    H217704   0.932   2.545   3.226
 5900TIP3   OH217705   0.530   3.886   0.044
 5900TIP3    H117706   0.578   3.806   0.024
 5900TIP3    H217707   0.441   3.856   0.064
 5901TIP3   OH217708   1.286   1.727   1.419
 5901TIP3    H117709   1.332   1.734   1.335
 5901TIP3    H217710   1.335   1.661   1.467
 5902TIP3   OH217711   6.098   3.248   0.925
 5902TIP3    H117712   6.019   3.212   0.884
 5902TIP3    H217713   6.066   3.324   0.975
 5903TIP3   OH217714   2.698   0.441   2.556
 5903TIP3    H117715   2.754   0.436   2.478
 5903TIP3    H217716   2.617   0.481   2.526
 5904TIP3   OH217717   4.291   0.983   3.746
 5904TIP3    H117718   4.223   1.050   3.753
 5904TIP3    H217719   4.245   0.900   3.762
 5905TIP3   OH217720   4.714   1.873   4.642
 5905TIP3    H117721   4.741   1.956   4.680
 5905TIP3    H217722   4.784   1.849   4.582
 5906TIP3   OH217723   5.368   0.546   3.878
 5906TIP3    H117724   5.277   0.525   3.858
 5906TIP3    H217725   5.365   0.634   3.917
 5907TIP3   OH217726  -0.025   0.029   1.516
 5907TIP3    H117727   0.066   0.043   1.541
 5907TIP3    H217728  -0.021  -0.035   1.445
 5908TIP3   OH217729   1.777   1.930   2.270
 5908TIP3    H117730   1.751   1.838   2.263
 5908TIP3    H217731   1.784   1.945   2.365
 5909TIP3   OH217732   4.095   3.932   3.367
 5909TIP3    H117733   4.161   3.945   3.299
 5909TIP3    H217734   4.059   3.845   3.349
 5910TIP3   OH217735   5.798   0.198   0.509
 5910TIP3    H117736   5.840   0.283   0.525
 5910TIP3    H217737   5.866   0.144   0.471
 5911TIP3   OH217738   0.667   0.240   3.359
 5911TIP3    H117739   0.625   0.284   3.285
 5911TIP3    H217740   0.594   0.218   3.417
 5912TIP3   OH217741   1.327   2.607   2.756
 5912TIP3    H117742   1.304   2.689   2.712
 5912TIP3    H217743   1.421   2.597   2.741
 5913TIP3   OH217744   0.731   3.143   3.548
 5913TIP3    H117745   0.677   3.218   3.573
 5913TIP3    H217746   0.692   3.111   3.467
 5914TIP3   OH217747   0.891   0.912   3.662
 5914TIP3    H117748   0.977   0.872   3.657
 5914TIP3    H217749   0.861   0.894   3.751
 5915TIP3   OH217750   3.505   0.475   2.508
 5915TIP3    H117751   3.471   0.465   2.419
 5915TIP3    H217752   3.446   0.422   2.562
 5916TIP3   OH217753   0.927   5.191   0.008
 5916TIP3    H117754   0.846   5.213   0.054
 5916TIP3    H217755   0.929   5.096   0.004
 5917TIP3   OH217756   0.930   5.974   4.857
 5917TIP3    H117757   0.925   5.906   4.789
 5917TIP3    H217758   0.849   5.963   4.908
 5918TIP3   OH217759   5.402   2.234   2.801
 5918TIP3    H117760   5.416   2.263   2.711
 5918TIP3    H217761   5.360   2.309   2.844
 5919TIP3   OH217762   5.505  -0.022   0.912
 5919TIP3    H117763   5.580  -0.034   0.970
 5919TIP3    H217764   5.540   0.025   0.836
 5920TIP3   OH217765   4.070   3.797   2.845
 5920TIP3    H117766   4.156   3.826   2.814
 5920TIP3    H217767   4.053   3.853   2.921
 5921TIP3   OH217768   1.135   4.703   0.299
 5921TIP3    H117769   1.046   4.734   0.278
 5921TIP3    H217770   1.122   4.639   0.369
 5922TIP3   OH217771   3.026   3.114   3.478
 5922TIP3    H117772   3.037   3.201   3.440
 5922TIP3    H217773   3.115   3.082   3.490
 5923TIP3   OH217774   1.103   3.861   0.059
 5923TIP3    H117775   1.101   3.781   0.110
 5923TIP3    H217776   1.151   3.839  -0.020
 5924TIP3   OH217777   2.083   3.597   1.880
 5924TIP3    H117778   2.141   3.664   1.846
 5924TIP3    H217779   2.004   3.645   1.906
 5925TIP3   OH217780   3.263   0.136   0.753
 5925TIP3    H117781   3.298   0.168   0.836
 5925TIP3    H217782   3.339   0.125   0.697
 5926TIP3   OH217783   4.989   0.313   0.585
 5926TIP3    H117784   4.947   0.387   0.541
 5926TIP3    H217785   4.917   0.254   0.607
 5927TIP3   OH217786   5.035   5.464   5.085
 5927TIP3    H117787   5.075   5.392   5.133
 5927TIP3    H217788   5.042   5.539   5.143
 5928TIP3   OH217789   0.012   2.837   2.647
 5928TIP3    H117790  -0.033   2.913   2.609
 5928TIP3    H217791   0.075   2.875   2.708
 5929TIP3   OH217792   5.871   5.231   3.142
 5929TIP3    H117793   5.818   5.248   3.064
 5929TIP3    H217794   5.852   5.139   3.163
 5930TIP3   OH217795   0.732   4.404   1.098
 5930TIP3    H117796   0.780   4.461   1.038
 5930TIP3    H217797   0.747   4.442   1.185
 5931TIP3   OH217798   3.641   5.730   3.583
 5931TIP3    H117799   3.722   5.758   3.542
 5931TIP3    H217800   3.665   5.714   3.675
 5932TIP3   OH217801   4.973   1.090   0.659
 5932TIP3    H117802   4.934   1.109   0.744
 5932TIP3    H217803   5.039   1.024   0.677
 5933TIP3   OH217804   1.951   3.305   4.020
 5933TIP3    H117805   1.867   3.280   4.059
 5933TIP3    H217806   2.016   3.276   4.084
 5934TIP3   OH217807   3.349   0.880   1.467
 5934TIP3    H117808   3.440   0.905   1.479
 5934TIP3    H217809   3.335   0.883   1.372
 5935TIP3   OH217810   2.395   1.970   4.319
 5935TIP3    H117811   2.345   1.898   4.281
 5935TIP3    H217812   2.440   2.010   4.245
 5936TIP3   OH217813   1.019   3.432   3.452
 5936TIP3    H117814   1.081   3.503   3.468
 5936TIP3    H217815   0.994   3.402   3.540
 5937TIP3   OH217816   3.804   0.758   1.490
 5937TIP3    H117817   3.752   0.757   1.570
 5937TIP3    H217818   3.740   0.773   1.420
 5938TIP3   OH217819   2.820   5.389   3.561
 5938TIP3    H117820   2.812   5.453   3.490
 5938TIP3    H217821   2.730   5.377   3.591
 5939TIP3   OH217822   3.263   5.372   2.248
 5939TIP3    H117823   3.353   5.364   2.217
 5939TIP3    H217824   3.259   5.460   2.286
 5940TIP3   OH217825   5.459   5.254   1.728
 5940TIP3    H117826   5.497   5.337   1.699
 5940TIP3    H217827   5.394   5.232   1.661
 5941TIP3   OH217828   1.785   2.363   0.928
 5941TIP3    H117829   1.865   2.311   0.922
 5941TIP3    H217830   1.728   2.329   0.859
 5942TIP3   OH217831   4.631   4.611   0.416
 5942TIP3    H117832   4.682   4.603   0.496
 5942TIP3    H217833   4.642   4.702   0.389
 5943TIP3   OH217834   3.450   2.562   3.266
 5943TIP3    H117835   3.410   2.590   3.349
 5943TIP3    H217836   3.408   2.479   3.246
 5944TIP3   OH217837   5.974   2.962   0.934
 5944TIP3    H117838   6.066   2.980   0.952
 5944TIP3    H217839   5.926   3.018   0.995
 5945TIP3   OH217840   2.727   4.350   0.444
 5945TIP3    H117841   2.812   4.384   0.471
 5945TIP3    H217842   2.673   4.428   0.432
 5946TIP3   OH217843   3.939   3.307   3.830
 5946TIP3    H117844   3.886   3.356   3.767
 5946TIP3    H217845   3.983   3.373   3.882
 5947TIP3   OH217846   0.202   3.150   0.517
 5947TIP3    H117847   0.183   3.178   0.606
 5947TIP3    H217848   0.180   3.226   0.462
 5948TIP3   OH217849   6.172   3.863   2.284
 5948TIP3    H117850   6.120   3.816   2.349
 5948TIP3    H217851   6.229   3.920   2.336
 5949TIP3   OH217852   2.628   4.064   0.701
 5949TIP3    H117853   2.630   4.152   0.739
 5949TIP3    H217854   2.632   4.006   0.777
 5950TIP3   OH217855   4.363   4.959   2.461
 5950TIP3    H117856   4.334   5.007   2.538
 5950TIP3    H217857   4.326   4.871   2.471
 5951TIP3   OH217858   1.040   0.993   2.436
 5951TIP3    H117859   1.052   0.899   2.449
 5951TIP3    H217860   1.022   1.002   2.342
 5952TIP3   OH217861   1.650   5.543   1.141
 5952TIP3    H117862   1.645   5.572   1.050
 5952TIP3    H217863   1.591   5.468   1.146
 5953TIP3   OH217864   5.407   1.539   4.358
 5953TIP3    H117865   5.436   1.455   4.395
 5953TIP3    H217866   5.479   1.599   4.378
 5954TIP3   OH217867   6.363   2.131   3.120
 5954TIP3    H117868   6.342   2.170   3.035
 5954TIP3    H217869   6.326   2.193   3.184
 5955TIP3   OH217870   3.622   1.971   1.693
 5955TIP3    H117871   3.693   2.033   1.702
 5955TIP3    H217872   3.644   1.900   1.755
 5956TIP3   OH217873   5.541   5.182   3.643
 5956TIP3    H117874   5.546   5.132   3.724
 5956TIP3    H217875   5.518   5.118   3.576
 5957TIP3   OH217876   1.880   0.086   3.989
 5957TIP3    H117877   1.884   0.052   3.900
 5957TIP3    H217878   1.877   0.008   4.045
 5958TIP3   OH217879   3.127   3.496   1.405
 5958TIP3    H117880   3.120   3.411   1.362
 5958TIP3    H217881   3.040   3.509   1.444
 5959TIP3   OH217882   0.639   3.452   0.316
 5959TIP3    H117883   0.546   3.473   0.326
 5959TIP3    H217884   0.641   3.356   0.311
 5960TIP3   OH217885   3.810   0.761   2.099
 5960TIP3    H117886   3.832   0.851   2.124
 5960TIP3    H217887   3.721   0.768   2.063
 5961TIP3   OH217888   2.348   1.506   4.604
 5961TIP3    H117889   2.389   1.492   4.689
 5961TIP3    H217890   2.350   1.601   4.592
 5962TIP3   OH217891   2.908   3.504   2.982
 5962TIP3    H117892   2.830   3.453   3.004
 5962TIP3    H217893   2.981   3.445   3.000
 5963TIP3   OH217894   3.528   2.303   2.340
 5963TIP3    H117895   3.518   2.398   2.330
 5963TIP3    H217896   3.617   2.292   2.372
 5964TIP3   OH217897   1.079   4.817   3.982
 5964TIP3    H117898   1.024   4.745   4.014
 5964TIP3    H217899   1.161   4.775   3.957
 5965TIP3   OH217900   5.719   1.745   3.853
 5965TIP3    H117901   5.638   1.763   3.804
 5965TIP3    H217902   5.689   1.710   3.936
 5966TIP3   OH217903   3.731   4.353   3.550
 5966TIP3    H117904   3.686   4.429   3.512
 5966TIP3    H217905   3.815   4.350   3.504
 5967TIP3   OH217906   2.863   2.818   1.462
 5967TIP3    H117907   2.830   2.848   1.547
 5967TIP3    H217908   2.874   2.724   1.472
 5968TIP3   OH217909   1.556   5.670   3.540
 5968TIP3    H117910   1.597   5.584   3.547
 5968TIP3    H217911   1.481   5.666   3.599
 5969TIP3   OH217912   4.675   0.622   4.759
 5969TIP3    H117913   4.695   0.553   4.695
 5969TIP3    H217914   4.701   0.703   4.715
 5970TIP3   OH217915   1.556   3.442   5.140
 5970TIP3    H117916   1.546   3.431   5.045
 5970TIP3    H217917   1.608   3.522   5.149
 5971TIP3   OH217918   0.665   4.631   2.271
 5971TIP3    H117919   0.712   4.709   2.242
 5971TIP3    H217920   0.572   4.656   2.270
 5972TIP3   OH217921   1.230   3.311   4.461
 5972TIP3    H117922   1.257   3.227   4.499
 5972TIP3    H217923   1.312   3.351   4.433
 5973TIP3   OH217924   1.889   0.972   1.860
 5973TIP3    H117925   1.935   1.051   1.887
 5973TIP3    H217926   1.889   0.916   1.938
 5974TIP3   OH217927   3.937   2.208   1.013
 5974TIP3    H117928   3.944   2.286   0.958
 5974TIP3    H217929   3.957   2.135   0.954
 5975TIP3   OH217930   1.887   4.345   1.619
 5975TIP3    H117931   1.890   4.415   1.555
 5975TIP3    H217932   1.959   4.365   1.679
 5976TIP3   OH217933   2.239   5.561   2.099
 5976TIP3    H117934   2.244   5.598   2.011
 5976TIP3    H217935   2.260   5.635   2.156
 5977TIP3   OH217936   0.948   0.835   1.918
 5977TIP3    H117937   0.872   0.792   1.878
 5977TIP3    H217938   0.937   0.928   1.896
 5978TIP3   OH217939   3.472   2.411   0.976
 5978TIP3    H117940   3.413   2.446   1.042
 5978TIP3    H217941   3.559   2.418   1.015
 5979TIP3   OH217942   5.448   5.896   4.133
 5979TIP3    H117943   5.505   5.921   4.205
 5979TIP3    H217944   5.483   5.812   4.102
 5980TIP3   OH217945   5.384   2.748   0.662
 5980TIP3    H117946   5.340   2.783   0.585
 5980TIP3    H217947   5.430   2.670   0.631
 5981TIP3   OH217948   3.367   3.511   2.148
 5981TIP3    H117949   3.419   3.435   2.173
 5981TIP3    H217950   3.325   3.485   2.066
 5982TIP3   OH217951   0.357   4.537   3.557
 5982TIP3    H117952   0.282   4.596   3.546
 5982TIP3    H217953   0.320   4.456   3.590
 5983TIP3   OH217954   0.055   3.851   0.331
 5983TIP3    H117955  -0.034   3.828   0.303
 5983TIP3    H217956   0.053   3.946   0.341
 5984TIP3   OH217957   6.181   3.223   0.616
 5984TIP3    H117958   6.162   3.239   0.708
 5984TIP3    H217959   6.253   3.160   0.617
 5985TIP3   OH217960   4.791   0.453   2.410
 5985TIP3    H117961   4.869   0.411   2.446
 5985TIP3    H217962   4.763   0.514   2.478
 5986TIP3   OH217963   1.030   2.322   5.196
 5986TIP3    H117964   1.124   2.339   5.199
 5986TIP3    H217965   0.995   2.394   5.143
 5987TIP3   OH217966   2.390   0.533   4.189
 5987TIP3    H117967   2.413   0.491   4.272
 5987TIP3    H217968   2.359   0.620   4.213
 5988TIP3   OH217969   0.264   1.503   0.566
 5988TIP3    H117970   0.293   1.563   0.635
 5988TIP3    H217971   0.342   1.489   0.512
 5989TIP3   OH217972   4.347   2.872   0.099
 5989TIP3    H117973   4.294   2.797   0.075
 5989TIP3    H217974   4.398   2.843   0.174
 5990TIP3   OH217975   2.486   0.524   2.433
 5990TIP3    H117976   2.474   0.609   2.391
 5990TIP3    H217977   2.397   0.491   2.448
 5991TIP3   OH217978   4.355   2.917   4.235
 5991TIP3    H117979   4.431   2.929   4.178
 5991TIP3    H217980   4.282   2.898   4.176
 5992TIP3   OH217981   4.875   1.959   4.976
 5992TIP3    H117982   4.809   1.892   4.990
 5992TIP3    H217983   4.850   2.001   4.893
 5993TIP3   OH217984   1.974   4.481   4.857
 5993TIP3    H117985   2.065   4.455   4.841
 5993TIP3    H217986   1.935   4.407   4.903
 5994TIP3   OH217987   2.145   3.988   1.499
 5994TIP3    H117988   2.209   4.050   1.463
 5994TIP3    H217989   2.199   3.915   1.530
 5995TIP3   OH217990   4.543   3.127   1.755
 5995TIP3    H117991   4.604   3.105   1.826
 5995TIP3    H217992   4.578   3.083   1.678
 5996TIP3   OH217993   2.750   1.405   4.437
 5996TIP3    H117994   2.781   1.376   4.523
 5996TIP3    H217995   2.716   1.493   4.452
 5997TIP3   OH217996   3.423   5.901   4.386
 5997TIP3    H117997   3.495   5.849   4.422
 5997TIP3    H217998   3.407   5.969   4.451
 5998TIP3   OH217999   3.774   3.104   1.129
 5998TIP3    H118000   3.809   3.180   1.176
 5998TIP3    H218001   3.733   3.141   1.051
 5999TIP3   OH218002   4.562   1.093   4.164
 5999TIP3    H118003   4.489   1.068   4.108
 5999TIP3    H218004   4.628   1.026   4.149
 6000TIP3   OH218005   4.048   1.267   0.334
 6000TIP3    H118006   3.967   1.258   0.285
 6000TIP3    H218007   4.067   1.178   0.365
 6001TIP3   OH218008   4.115   3.645   0.542
 6001TIP3    H118009   4.074   3.577   0.488
 6001TIP3    H218010   4.197   3.665   0.496
 6002TIP3   OH218011   4.545   3.019   4.451
 6002TIP3    H118012   4.468   2.998   4.398
 6002TIP3    H218013   4.610   3.050   4.388
 6003TIP3   OH218014   0.399   3.727   0.530
 6003TIP3    H118015   0.454   3.777   0.469
 6003TIP3    H218016   0.314   3.721   0.485
 6004TIP3   OH218017   2.192   2.851   0.960
 6004TIP3    H118018   2.259   2.795   1.000
 6004TIP3    H218019   2.147   2.794   0.897
 6005TIP3   OH218020   5.877   2.403   4.486
 6005TIP3    H118021   5.915   2.476   4.438
 6005TIP3    H218022   5.855   2.438   4.572
 6006TIP3   OH218023   4.339   3.995   0.224
 6006TIP3    H118024   4.393   3.916   0.232
 6006TIP3    H218025   4.252   3.967   0.253
 6007TIP3   OH218026   2.056   3.882   2.818
 6007TIP3    H118027   2.129   3.936   2.849
 6007TIP3    H218028   1.978   3.931   2.843
 6008TIP3   OH218029   3.470   3.118   3.140
 6008TIP3    H118030   3.555   3.135   3.180
 6008TIP3    H218031   3.446   3.201   3.098
 6009TIP3   OH218032   2.255   5.255   4.648
 6009TIP3    H118033   2.295   5.198   4.713
 6009TIP3    H218034   2.312   5.331   4.644
 6010TIP3   OH218035   5.066   5.471   3.738
 6010TIP3    H118036   5.027   5.522   3.667
 6010TIP3    H218037   5.140   5.426   3.698
 6011TIP3   OH218038   4.210   5.493   4.505
 6011TIP3    H118039   4.178   5.436   4.436
 6011TIP3    H218040   4.132   5.513   4.557
 6012TIP3   OH218041   5.578   2.236   4.217
 6012TIP3    H118042   5.577   2.241   4.121
 6012TIP3    H218043   5.486   2.223   4.240
 6013TIP3   OH218044   2.291   0.701   3.025
 6013TIP3    H118045   2.382   0.684   3.048
 6013TIP3    H218046   2.246   0.618   3.042
 6014TIP3   OH218047   2.407   3.196   1.914
 6014TIP3    H118048   2.474   3.255   1.948
 6014TIP3    H218049   2.326   3.226   1.955
 6015TIP3   OH218050   2.484   4.924   1.228
 6015TIP3    H118051   2.512   4.913   1.319
 6015TIP3    H218052   2.411   4.984   1.232
 6016TIP3   OH218053   5.139   3.146   2.988
 6016TIP3    H118054   5.227   3.160   2.956
 6016TIP3    H218055   5.115   3.059   2.954
 6017TIP3   OH218056   0.143   5.076   3.402
 6017TIP3    H118057   0.132   5.166   3.433
 6017TIP3    H218058   0.218   5.080   3.344
 6018TIP3   OH218059   1.691   5.314   0.201
 6018TIP3    H118060   1.614   5.258   0.190
 6018TIP3    H218061   1.730   5.318   0.114
 6019TIP3   OH218062   2.025   0.452   0.179
 6019TIP3    H118063   2.103   0.466   0.233
 6019TIP3    H218064   1.998   0.362   0.200
 6020TIP3   OH218065   5.213   5.942   3.539
 6020TIP3    H118066   5.121   5.917   3.548
 6020TIP3    H218067   5.259   5.860   3.525
 6021TIP3   OH218068   5.642   4.065   1.287
 6021TIP3    H118069   5.642   4.003   1.360
 6021TIP3    H218070   5.598   4.019   1.216
 6022TIP3   OH218071   2.477   2.276   1.690
 6022TIP3    H118072   2.569   2.268   1.713
 6022TIP3    H218073   2.430   2.231   1.761
 6023TIP3   OH218074   1.663   4.010   0.719
 6023TIP3    H118075   1.658   3.981   0.810
 6023TIP3    H218076   1.583   3.978   0.678
 6024TIP3   OH218077   5.609   4.176   5.089
 6024TIP3    H118078   5.597   4.107   5.025
 6024TIP3    H218079   5.681   4.229   5.054
 6025TIP3   OH218080   4.473   4.261   5.060
 6025TIP3    H118081   4.552   4.269   5.007
 6025TIP3    H218082   4.401   4.262   4.997
 6026TIP3   OH218083   2.835   4.971   3.856
 6026TIP3    H118084   2.850   4.902   3.921
 6026TIP3    H218085   2.828   4.925   3.773
 6027TIP3   OH218086   2.089   1.766   2.599
 6027TIP3    H118087   2.034   1.736   2.526
 6027TIP3    H218088   2.156   1.699   2.608
 6028TIP3   OH218089   2.964   2.221   1.996
 6028TIP3    H118090   3.051   2.184   1.979
 6028TIP3    H218091   2.980   2.298   2.049
 6029TIP3   OH218092   3.754   5.788   1.671
 6029TIP3    H118093   3.762   5.772   1.765
 6029TIP3    H218094   3.835   5.753   1.634
 6030TIP3   OH218095   3.834   3.947   1.879
 6030TIP3    H118096   3.802   3.996   1.803
 6030TIP3    H218097   3.761   3.950   1.941
 6031TIP3   OH218098   3.300   4.511   0.643
 6031TIP3    H118099   3.290   4.417   0.654
 6031TIP3    H218100   3.223   4.538   0.594
 6032TIP3   OH218101   1.766   1.414   1.833
 6032TIP3    H118102   1.754   1.350   1.903
 6032TIP3    H218103   1.848   1.389   1.790
 6033TIP3   OH218104   1.254   0.695   2.914
 6033TIP3    H118105   1.212   0.710   2.830
 6033TIP3    H218106   1.278   0.782   2.945
 6034TIP3   OH218107   0.903   0.502   1.740
 6034TIP3    H118108   0.876   0.543   1.658
 6034TIP3    H218109   0.864   0.557   1.808
 6035TIP3   OH218110   2.296   1.570   1.570
 6035TIP3    H118111   2.390   1.588   1.572
 6035TIP3    H218112   2.280   1.516   1.648
 6036TIP3   OH218113   0.896   0.399   3.900
 6036TIP3    H118114   0.869   0.339   3.830
 6036TIP3    H218115   0.828   0.465   3.903
 6037TIP3   OH218116   5.391   4.679   2.805
 6037TIP3    H118117   5.442   4.679   2.724
 6037TIP3    H218118   5.300   4.679   2.776
 6038TIP3   OH218119   0.264   3.165   4.883
 6038TIP3    H118120   0.320   3.154   4.959
 6038TIP3    H218121   0.295   3.099   4.820
 6039TIP3   OH218122   3.305   0.413   3.725
 6039TIP3    H118123   3.342   0.336   3.769
 6039TIP3    H218124   3.300   0.388   3.633
 6040TIP3   OH218125   4.142   4.671   3.339
 6040TIP3    H118126   4.046   4.677   3.336
 6040TIP3    H218127   4.162   4.590   3.292
 6041TIP3   OH218128   3.574   3.970   4.996
 6041TIP3    H118129   3.498   4.003   4.949
 6041TIP3    H218130   3.649   4.005   4.948
 6042TIP3   OH218131   1.300   5.881   3.197
 6042TIP3    H118132   1.282   5.788   3.183
 6042TIP3    H218133   1.222   5.913   3.243
 6043TIP3   OH218134   1.970   1.478   2.068
 6043TIP3    H118135   2.015   1.425   2.003
 6043TIP3    H218136   1.877   1.455   2.058
 6044TIP3   OH218137   4.179   1.230   0.696
 6044TIP3    H118138   4.139   1.286   0.629
 6044TIP3    H218139   4.128   1.150   0.694
 6045TIP3   OH218140   6.031   5.397   4.896
 6045TIP3    H118141   6.078   5.346   4.831
 6045TIP3    H218142   5.949   5.349   4.909
 6046TIP3   OH218143   0.168   3.663   4.578
 6046TIP3    H118144   0.234   3.678   4.646
 6046TIP3    H218145   0.121   3.585   4.608
 6047TIP3   OH218146   2.578   1.276   4.735
 6047TIP3    H118147   2.640   1.344   4.710
 6047TIP3    H218148   2.602   1.253   4.824
 6048TIP3   OH218149   0.337   0.905   2.509
 6048TIP3    H118150   0.378   0.929   2.592
 6048TIP3    H218151   0.316   0.989   2.467
 6049TIP3   OH218152   0.076   2.762   2.292
 6049TIP3    H118153   0.099   2.694   2.355
 6049TIP3    H218154  -0.020   2.762   2.291
 6050TIP3   OH218155   3.331   4.340   2.883
 6050TIP3    H118156   3.413   4.324   2.836
 6050TIP3    H218157   3.349   4.416   2.938
 6051TIP3   OH218158   5.730   4.329   2.302
 6051TIP3    H118159   5.727   4.418   2.336
 6051TIP3    H218160   5.639   4.308   2.282
 6052TIP3   OH218161   3.145   1.331   3.663
 6052TIP3    H118162   3.201   1.254   3.679
 6052TIP3    H218163   3.095   1.341   3.744
 6053TIP3   OH218164   6.314   4.628   3.384
 6053TIP3    H118165   6.375   4.635   3.458
 6053TIP3    H218166   6.306   4.718   3.352
 6054TIP3   OH218167   3.229   5.437   2.576
 6054TIP3    H118168   3.323   5.440   2.559
 6054TIP3    H218169   3.205   5.346   2.559
 6055TIP3   OH218170   6.284   4.595   4.128
 6055TIP3    H118171   6.211   4.571   4.070
 6055TIP3    H218172   6.251   4.575   4.216
 6056TIP3   OH218173   1.032   3.631   0.612
 6056TIP3    H118174   0.969   3.617   0.682
 6056TIP3    H218175   0.987   3.602   0.533
 6057TIP3   OH218176   4.843   4.962   3.162
 6057TIP3    H118177   4.880   4.885   3.205
 6057TIP3    H218178   4.841   4.940   3.069
 6058TIP3   OH218179   1.595   1.524   0.638
 6058TIP3    H118180   1.605   1.590   0.706
 6058TIP3    H218181   1.641   1.561   0.562
 6059TIP3   OH218182   6.262   3.547   3.962
 6059TIP3    H118183   6.309   3.579   4.039
 6059TIP3    H218184   6.291   3.457   3.952
 6060TIP3   OH218185   0.844   5.160   4.216
 6060TIP3    H118186   0.920   5.214   4.191
 6060TIP3    H218187   0.769   5.217   4.203
 6061TIP3   OH218188   0.700   5.148   0.384
 6061TIP3    H118189   0.703   5.128   0.478
 6061TIP3    H218190   0.787   5.124   0.352
 6062TIP3   OH218191   0.646   5.346   4.114
 6062TIP3    H118192   0.674   5.344   4.022
 6062TIP3    H218193   0.594   5.266   4.125
 6063TIP3   OH218194   5.898   0.832   0.934
 6063TIP3    H118195   5.920   0.844   0.842
 6063TIP3    H218196   5.896   0.737   0.946
 6064TIP3   OH218197   4.993   3.594   2.800
 6064TIP3    H118198   4.981   3.559   2.888
 6064TIP3    H218199   4.968   3.686   2.807
 6065TIP3   OH218200   2.165   1.266   0.212
 6065TIP3    H118201   2.214   1.202   0.160
 6065TIP3    H218202   2.187   1.246   0.302
 6066TIP3   OH218203   0.232   1.457   2.537
 6066TIP3    H118204   0.322   1.472   2.507
 6066TIP3    H218205   0.241   1.422   2.625
 6067TIP3   OH218206   4.638   1.375   3.698
 6067TIP3    H118207   4.728   1.359   3.672
 6067TIP3    H218208   4.639   1.373   3.794
 6068TIP3   OH218209   2.130   5.986   3.347
 6068TIP3    H118210   2.149   5.917   3.411
 6068TIP3    H218211   2.121   5.939   3.264
 6069TIP3   OH218212   2.898   4.576   1.092
 6069TIP3    H118213   2.814   4.616   1.114
 6069TIP3    H218214   2.932   4.542   1.175
 6070TIP3   OH218215   0.908   0.919   0.838
 6070TIP3    H118216   0.858   0.977   0.895
 6070TIP3    H218217   0.845   0.886   0.775
 6071TIP3   OH218218   1.476   1.662   3.620
 6071TIP3    H118219   1.395   1.626   3.656
 6071TIP3    H218220   1.535   1.588   3.616
 6072TIP3   OH218221   3.894   3.727   0.675
 6072TIP3    H118222   3.973   3.698   0.630
 6072TIP3    H218223   3.886   3.819   0.652
 6073TIP3   OH218224   1.480   5.477   3.320
 6073TIP3    H118225   1.410   5.493   3.256
 6073TIP3    H218226   1.488   5.560   3.368
 6074TIP3   OH218227   0.631   0.580   0.350
 6074TIP3    H118228   0.720   0.615   0.352
 6074TIP3    H218229   0.603   0.591   0.259
 6075TIP3   OH218230   4.637   1.986   3.745
 6075TIP3    H118231   4.554   1.939   3.745
 6075TIP3    H218232   4.692   1.937   3.683
 6076TIP3   OH218233   6.284   3.793   2.959
 6076TIP3    H118234   6.312   3.836   2.878
 6076TIP3    H218235   6.235   3.716   2.929
 6077TIP3   OH218236   3.057   1.069   3.477
 6077TIP3    H118237   3.006   1.139   3.517
 6077TIP3    H218238   3.108   1.032   3.549
 6078TIP3   OH218239   6.073   4.381   1.171
 6078TIP3    H118240   6.017   4.313   1.209
 6078TIP3    H218241   6.041   4.391   1.081
 6079TIP3   OH218242   0.758   4.373   4.450
 6079TIP3    H118243   0.765   4.463   4.482
 6079TIP3    H218244   0.811   4.321   4.511
 6080TIP3   OH218245   5.737   0.227   4.876
 6080TIP3    H118246   5.782   0.198   4.797
 6080TIP3    H218247   5.745   0.323   4.874
 6081TIP3   OH218248   0.314   4.780   2.621
 6081TIP3    H118249   0.299   4.848   2.687
 6081TIP3    H218250   0.303   4.698   2.668
 6082TIP3   OH218251   4.302   0.635   1.484
 6082TIP3    H118252   4.293   0.565   1.548
 6082TIP3    H218253   4.338   0.709   1.534
 6083TIP3   OH218254   0.211   1.957   0.576
 6083TIP3    H118255   0.131   1.925   0.535
 6083TIP3    H218256   0.191   1.961   0.669
 6084TIP3   OH218257   2.212   5.808   4.503
 6084TIP3    H118258   2.139   5.867   4.484
 6084TIP3    H218259   2.271   5.819   4.429
 6085TIP3   OH218260   5.187   0.260   1.917
 6085TIP3    H118261   5.281   0.246   1.918
 6085TIP3    H218262   5.172   0.320   1.844
 6086TIP3   OH218263   3.113   1.172   1.245
 6086TIP3    H118264   3.132   1.245   1.186
 6086TIP3    H218265   3.196   1.125   1.253
 6087TIP3   OH218266   3.630   4.543   4.670
 6087TIP3    H118267   3.559   4.562   4.732
 6087TIP3    H218268   3.710   4.553   4.722
 6088TIP3   OH218269   3.794   1.074   2.726
 6088TIP3    H118270   3.882   1.036   2.716
 6088TIP3    H218271   3.740   1.001   2.756
 6089TIP3   OH218272   3.951   4.284   2.577
 6089TIP3    H118273   3.993   4.346   2.518
 6089TIP3    H218274   3.970   4.198   2.540
 6090TIP3   OH218275   0.785   0.949   1.249
 6090TIP3    H118276   0.721   0.931   1.181
 6090TIP3    H218277   0.740   0.928   1.331
 6091TIP3   OH218278   1.827   3.392   2.026
 6091TIP3    H118279   1.820   3.487   2.017
 6091TIP3    H218280   1.807   3.358   1.939
 6092TIP3   OH218281   1.759   2.877   1.430
 6092TIP3    H118282   1.703   2.803   1.452
 6092TIP3    H218283   1.843   2.856   1.472
 6093TIP3   OH218284   4.236   4.168   4.884
 6093TIP3    H118285   4.206   4.077   4.890
 6093TIP3    H218286   4.211   4.195   4.796
 6094TIP3   OH218287   3.180   0.579   2.619
 6094TIP3    H118288   3.235   0.575   2.697
 6094TIP3    H218289   3.110   0.641   2.642
 6095TIP3   OH218290   0.052   3.953   4.737
 6095TIP3    H118291   0.057   4.035   4.688
 6095TIP3    H218292   0.087   3.887   4.676
 6096TIP3   OH218293   2.418   0.702   3.765
 6096TIP3    H118294   2.417   0.670   3.675
 6096TIP3    H218295   2.511   0.716   3.785
 6097TIP3   OH218296   3.497   5.395   4.492
 6097TIP3    H118297   3.479   5.352   4.408
 6097TIP3    H218298   3.425   5.368   4.548
 6098TIP3   OH218299   2.018   4.168   2.572
 6098TIP3    H118300   2.048   4.104   2.507
 6098TIP3    H218301   1.935   4.132   2.604
 6099TIP3   OH218302   4.945   0.789   0.374
 6099TIP3    H118303   4.849   0.787   0.378
 6099TIP3    H218304   4.966   0.750   0.289
 6100TIP3   OH218305   4.719   0.590   1.669
 6100TIP3    H118306   4.810   0.607   1.645
 6100TIP3    H218307   4.669   0.622   1.594
 6101TIP3   OH218308   3.550   1.180   4.413
 6101TIP3    H118309   3.544   1.199   4.319
 6101TIP3    H218310   3.555   1.266   4.454
 6102TIP3   OH218311   5.231   2.329   4.935
 6102TIP3    H118312   5.219   2.285   5.019
 6102TIP3    H218313   5.179   2.409   4.942
 6103TIP3   OH218314   3.976   0.093   1.370
 6103TIP3    H118315   4.031   0.106   1.447
 6103TIP3    H218316   3.891   0.130   1.394
 6104TIP3   OH218317   5.956   3.922   2.658
 6104TIP3    H118318   5.908   3.977   2.596
 6104TIP3    H218319   5.901   3.919   2.735
 6105TIP3   OH218320   2.299   2.352   3.846
 6105TIP3    H118321   2.326   2.327   3.757
 6105TIP3    H218322   2.353   2.299   3.904
 6106TIP3   OH218323   5.480   5.436   1.522
 6106TIP3    H118324   5.471   5.472   1.434
 6106TIP3    H218325   5.469   5.511   1.580
 6107TIP3   OH218326   3.440   4.775   2.842
 6107TIP3    H118327   3.354   4.761   2.803
 6107TIP3    H218328   3.478   4.688   2.848
 6108TIP3   OH218329   0.553   5.660   0.702
 6108TIP3    H118330   0.542   5.663   0.797
 6108TIP3    H218331   0.478   5.709   0.668
 6109TIP3   OH218332   1.492   4.571   1.386
 6109TIP3    H118333   1.492   4.478   1.367
 6109TIP3    H218334   1.526   4.577   1.476
 6110TIP3   OH218335   0.130   5.114   1.558
 6110TIP3    H118336   0.151   5.025   1.585
 6110TIP3    H218337   0.084   5.104   1.475
 6111TIP3   OH218338   0.196   4.096   0.268
 6111TIP3    H118339   0.184   4.146   0.349
 6111TIP3    H218340   0.120   4.118   0.215
 6112TIP3   OH218341   1.186   2.685   4.868
 6112TIP3    H118342   1.269   2.662   4.910
 6112TIP3    H218343   1.190   2.780   4.860
 6113TIP3   OH218344   4.275   4.078   1.118
 6113TIP3    H118345   4.323   3.997   1.098
 6113TIP3    H218346   4.206   4.051   1.178
 6114TIP3   OH218347   1.824   1.090   3.043
 6114TIP3    H118348   1.887   1.092   2.971
 6114TIP3    H218349   1.799   1.181   3.057
 6115TIP3   OH218350   3.493   2.594   4.166
 6115TIP3    H118351   3.479   2.652   4.091
 6115TIP3    H218352   3.539   2.518   4.131
 6116TIP3   OH218353   4.778   1.639   2.632
 6116TIP3    H118354   4.691   1.612   2.663
 6116TIP3    H218355   4.767   1.647   2.537
 6117TIP3   OH218356   1.813   2.603   1.107
 6117TIP3    H118357   1.907   2.586   1.105
 6117TIP3    H218358   1.776   2.542   1.043
 6118TIP3   OH218359   3.720   1.148   4.089
 6118TIP3    H118360   3.644   1.207   4.096
 6118TIP3    H218361   3.711   1.109   4.002
 6119TIP3   OH218362   5.177   2.462   4.179
 6119TIP3    H118363   5.086   2.433   4.172
 6119TIP3    H218364   5.175   2.533   4.244
 6120TIP3   OH218365   3.112   4.647   2.949
 6120TIP3    H118366   3.158   4.634   2.866
 6120TIP3    H218367   3.162   4.714   2.994
 6121TIP3   OH218368   3.144   1.390   1.074
 6121TIP3    H118369   3.174   1.388   0.983
 6121TIP3    H218370   3.137   1.484   1.095
 6122TIP3   OH218371   4.857   4.217   0.282
 6122TIP3    H118372   4.870   4.233   0.375
 6122TIP3    H218373   4.830   4.301   0.246
 6123TIP3   OH218374   0.744   4.058   0.349
 6123TIP3    H118375   0.717   3.999   0.279
 6123TIP3    H218376   0.814   4.012   0.394
 6124TIP3   OH218377   5.139   4.997   2.359
 6124TIP3    H118378   5.101   4.911   2.347
 6124TIP3    H218379   5.064   5.057   2.363
 6125TIP3   OH218380   3.843   3.208   3.577
 6125TIP3    H118381   3.783   3.253   3.636
 6125TIP3    H218382   3.828   3.249   3.492
 6126TIP3   OH218383   2.091   5.480   2.852
 6126TIP3    H118384   2.173   5.436   2.830
 6126TIP3    H218385   2.046   5.492   2.768
 6127TIP3   OH218386   0.553   3.298   2.932
 6127TIP3    H118387   0.528   3.354   2.858
 6127TIP3    H218388   0.478   3.301   2.991
 6128TIP3   OH218389   1.777   5.852   3.930
 6128TIP3    H118390   1.736   5.781   3.979
 6128TIP3    H218391   1.864   5.860   3.967
 6129TIP3   OH218392   0.931   5.043   2.052
 6129TIP3    H118393   0.855   5.083   2.011
 6129TIP3    H218394   0.997   5.112   2.052
 6130TIP3   OH218395   0.538   0.142   0.653
 6130TIP3    H118396   0.608   0.207   0.645
 6130TIP3    H218397   0.490   0.148   0.570
 6131TIP3   OH218398   0.292   5.355   0.902
 6131TIP3    H118399   0.250   5.438   0.880
 6131TIP3    H218400   0.272   5.298   0.828
 6132TIP3   OH218401   0.149   4.154   1.577
 6132TIP3    H118402   0.141   4.247   1.557
 6132TIP3    H218403   0.089   4.139   1.649
 6133TIP3   OH218404   1.572   4.150   3.879
 6133TIP3    H118405   1.581   4.198   3.796
 6133TIP3    H218406   1.508   4.202   3.928
 6134TIP3   OH218407   5.671   0.259   2.248
 6134TIP3    H118408   5.740   0.324   2.260
 6134TIP3    H218409   5.596   0.308   2.216
 6135TIP3   OH218410   4.803   3.189   3.315
 6135TIP3    H118411   4.741   3.220   3.381
 6135TIP3    H218412   4.881   3.165   3.366
 6136TIP3   OH218413   6.306   0.406   3.070
 6136TIP3    H118414   6.385   0.356   3.048
 6136TIP3    H218415   6.314   0.486   3.019
 6137TIP3   OH218416   5.161   1.332   0.987
 6137TIP3    H118417   5.132   1.254   0.940
 6137TIP3    H218418   5.092   1.396   0.972
 6138TIP3   OH218419   5.650   1.108   2.357
 6138TIP3    H118420   5.580   1.052   2.324
 6138TIP3    H218421   5.697   1.054   2.420
 6139TIP3   OH218422   1.623   5.070   5.009
 6139TIP3    H118423   1.658   5.076   4.920
 6139TIP3    H218424   1.563   5.144   5.016
 6140TIP3   OH218425   1.280   2.156   4.073
 6140TIP3    H118426   1.203   2.163   4.128
 6140TIP3    H218427   1.247   2.167   3.984
 6141TIP3   OH218428   1.733   0.793   3.710
 6141TIP3    H118429   1.713   0.732   3.781
 6141TIP3    H218430   1.663   0.778   3.646
 6142TIP3   OH218431   6.153   0.073   0.428
 6142TIP3    H118432   6.094  -0.002   0.418
 6142TIP3    H218433   6.125   0.136   0.361
 6143TIP3   OH218434   0.144   0.954   3.672
 6143TIP3    H118435   0.105   1.040   3.690
 6143TIP3    H218436   0.112   0.931   3.585
 6144TIP3   OH218437   1.074   0.696   4.864
 6144TIP3    H118438   0.994   0.665   4.905
 6144TIP3    H218439   1.072   0.791   4.875
 6145TIP3   OH218440   5.944   1.064   1.110
 6145TIP3    H118441   5.865   1.019   1.138
 6145TIP3    H218442   5.981   1.008   1.042
 6146TIP3   OH218443   0.652   4.587   1.927
 6146TIP3    H118444   0.679   4.662   1.979
 6146TIP3    H218445   0.720   4.580   1.860
 6147TIP3   OH218446   1.659   0.522   0.864
 6147TIP3    H118447   1.723   0.454   0.886
 6147TIP3    H218448   1.589   0.511   0.929
 6148TIP3   OH218449   6.264   1.648   0.327
 6148TIP3    H118450   6.341   1.670   0.275
 6148TIP3    H218451   6.235   1.563   0.292
 6149TIP3   OH218452   0.915   2.172   4.061
 6149TIP3    H118453   0.868   2.158   3.979
 6149TIP3    H218454   0.847   2.168   4.129
 6150TIP3   OH218455   4.347   0.233   0.326
 6150TIP3    H118456   4.389   0.259   0.408
 6150TIP3    H218457   4.349   0.138   0.327
 6151TIP3   OH218458   4.983   1.097   0.122
 6151TIP3    H118459   4.925   1.170   0.099
 6151TIP3    H218460   5.021   1.122   0.206
 6152TIP3   OH218461   3.608   0.366   1.431
 6152TIP3    H118462   3.636   0.276   1.416
 6152TIP3    H218463   3.655   0.393   1.510
 6153TIP3   OH218464   4.905   5.196   1.354
 6153TIP3    H118465   4.956   5.184   1.274
 6153TIP3    H218466   4.844   5.267   1.333
 6154TIP3   OH218467   1.845   0.885   0.112
 6154TIP3    H118468   1.761   0.908   0.072
 6154TIP3    H218469   1.889   0.969   0.126
 6155TIP3   OH218470   0.621   3.752   2.417
 6155TIP3    H118471   0.695   3.800   2.456
 6155TIP3    H218472   0.554   3.820   2.402
 6156TIP3   OH218473   4.178   2.928   1.297
 6156TIP3    H118474   4.192   3.016   1.262
 6156TIP3    H218475   4.184   2.939   1.392
 6157TIP3   OH218476   5.267   0.510   2.834
 6157TIP3    H118477   5.362   0.521   2.828
 6157TIP3    H218478   5.231   0.577   2.776
 6158TIP3   OH218479   5.814   2.547   1.223
 6158TIP3    H118480   5.737   2.520   1.273
 6158TIP3    H218481   5.868   2.595   1.287
 6159TIP3   OH218482   3.699   4.588   4.416
 6159TIP3    H118483   3.647   4.587   4.496
 6159TIP3    H218484   3.676   4.670   4.373
 6160TIP3   OH218485   2.104   1.568   1.368
 6160TIP3    H118486   2.156   1.595   1.292
 6160TIP3    H218487   2.168   1.560   1.439
 6161TIP3   OH218488   5.812   1.551   3.520
 6161TIP3    H118489   5.857   1.634   3.507
 6161TIP3    H218490   5.870   1.502   3.579
 6162TIP3   OH218491   6.138   3.685   4.758
 6162TIP3    H118492   6.127   3.606   4.705
 6162TIP3    H218493   6.049   3.714   4.777
 6163TIP3   OH218494   1.033   1.431   0.564
 6163TIP3    H118495   1.076   1.355   0.524
 6163TIP3    H218496   0.953   1.396   0.601
 6164TIP3   OH218497   4.997   5.589   4.840
 6164TIP3    H118498   5.085   5.627   4.847
 6164TIP3    H218499   4.988   5.537   4.920
 6165TIP3   OH218500   4.770   2.116   4.788
 6165TIP3    H118501   4.814   2.197   4.762
 6165TIP3    H218502   4.683   2.144   4.816
 6166TIP3   OH218503   0.718   5.355   1.150
 6166TIP3    H118504   0.660   5.278   1.155
 6166TIP3    H218505   0.695   5.406   1.228
 6167TIP3   OH218506   5.426   1.084   1.152
 6167TIP3    H118507   5.442   1.042   1.237
 6167TIP3    H218508   5.400   1.012   1.095
 6168TIP3   OH218509   1.533   5.487   4.089
 6168TIP3    H118510   1.603   5.548   4.111
 6168TIP3    H218511   1.476   5.486   4.166
 6169TIP3   OH218512   3.091   4.445   1.645
 6169TIP3    H118513   3.086   4.351   1.663
 6169TIP3    H218514   3.001   4.476   1.650
 6170TIP3   OH218515   4.781   5.013   3.540
 6170TIP3    H118516   4.846   5.039   3.606
 6170TIP3    H218517   4.779   4.918   3.544
 6171TIP3   OH218518   1.913   3.625   3.182
 6171TIP3    H118519   1.980   3.575   3.230
 6171TIP3    H218520   1.929   3.603   3.090
 6172TIP3   OH218521   4.767   3.714   2.930
 6172TIP3    H118522   4.809   3.738   3.013
 6172TIP3    H218523   4.801   3.778   2.867
 6173TIP3   OH218524   1.045   2.389   1.701
 6173TIP3    H118525   1.068   2.388   1.794
 6173TIP3    H218526   0.951   2.404   1.699
 6174TIP3   OH218527   2.328   4.284   2.062
 6174TIP3    H118528   2.330   4.283   1.966
 6174TIP3    H218529   2.235   4.278   2.084
 6175TIP3   OH218530   1.487   4.477   2.395
 6175TIP3    H118531   1.557   4.486   2.461
 6175TIP3    H218532   1.460   4.385   2.402
 6176TIP3   OH218533   5.687   1.352   3.327
 6176TIP3    H118534   5.658   1.405   3.253
 6176TIP3    H218535   5.737   1.413   3.382
 6177TIP3   OH218536   5.107   1.015   2.787
 6177TIP3    H118537   5.189   0.978   2.822
 6177TIP3    H218538   5.131   1.050   2.702
 6178TIP3   OH218539   5.647   2.529   4.210
 6178TIP3    H118540   5.716   2.516   4.144
 6178TIP3    H218541   5.566   2.532   4.160
 6179TIP3   OH218542   3.932   1.950   4.278
 6179TIP3    H118543   3.916   1.857   4.290
 6179TIP3    H218544   3.985   1.955   4.199
 6180TIP3   OH218545   1.145   5.951   3.892
 6180TIP3    H118546   1.076   5.892   3.921
 6180TIP3    H218547   1.223   5.895   3.882
 6181TIP3   OH218548   2.383   2.947   0.212
 6181TIP3    H118549   2.423   2.867   0.246
 6181TIP3    H218550   2.379   3.006   0.288
 6182TIP3   OH218551   1.217   1.311   4.368
 6182TIP3    H118552   1.270   1.373   4.420
 6182TIP3    H218553   1.223   1.229   4.416
 6183TIP3   OH218554   5.437   0.153   1.919
 6183TIP3    H118555   5.452   0.088   1.850
 6183TIP3    H218556   5.484   0.231   1.889
 6184TIP3   OH218557   1.652   2.786   3.891
 6184TIP3    H118558   1.698   2.869   3.903
 6184TIP3    H218559   1.614   2.792   3.803
 6185TIP3   OH218560   1.440   0.732   0.934
 6185TIP3    H118561   1.471   0.647   0.965
 6185TIP3    H218562   1.440   0.787   1.012
 6186TIP3   OH218563   0.107   1.092   1.103
 6186TIP3    H118564   0.125   1.116   1.194
 6186TIP3    H218565   0.021   1.130   1.085
 6187TIP3   OH218566   3.286   5.366   3.413
 6187TIP3    H118567   3.376   5.384   3.439
 6187TIP3    H218568   3.259   5.444   3.365
 6188TIP3   OH218569   3.882   3.619   4.988
 6188TIP3    H118570   3.911   3.679   4.919
 6188TIP3    H218571   3.893   3.532   4.949
 6189TIP3   OH218572   5.099   4.860   3.740
 6189TIP3    H118573   5.055   4.895   3.818
 6189TIP3    H218574   5.033   4.804   3.699
 6190TIP3   OH218575   4.973   2.546   3.040
 6190TIP3    H118576   4.962   2.454   3.067
 6190TIP3    H218577   5.067   2.554   3.025
 6191TIP3   OH218578   6.311   1.886   0.452
 6191TIP3    H118579   6.245   1.888   0.521
 6191TIP3    H218580   6.300   1.800   0.410
 6192TIP3   OH218581   2.559   3.734   0.271
 6192TIP3    H118582   2.539   3.805   0.332
 6192TIP3    H218583   2.654   3.724   0.276
 6193TIP3   OH218584   5.368   0.740   0.503
 6193TIP3    H118585   5.293   0.681   0.496
 6193TIP3    H218586   5.383   0.749   0.597
 6194TIP3   OH218587   2.637   0.160   4.747
 6194TIP3    H118588   2.704   0.113   4.698
 6194TIP3    H218589   2.684   0.204   4.818
 6195TIP3   OH218590   4.718   2.709   0.508
 6195TIP3    H118591   4.637   2.758   0.524
 6195TIP3    H218592   4.690   2.618   0.501
 6196TIP3   OH218593   5.313   1.222   3.202
 6196TIP3    H118594   5.335   1.230   3.294
 6196TIP3    H218595   5.332   1.308   3.164
 6197TIP3   OH218596   4.342   3.024   0.621
 6197TIP3    H118597   4.328   3.119   0.624
 6197TIP3    H218598   4.434   3.014   0.595
 6198TIP3   OH218599   2.856   1.671   2.776
 6198TIP3    H118600   2.831   1.585   2.810
 6198TIP3    H218601   2.810   1.679   2.693
 6199TIP3   OH218602   2.209   1.713   2.905
 6199TIP3    H118603   2.210   1.626   2.945
 6199TIP3    H218604   2.118   1.741   2.910
 6200TIP3   OH218605   4.485   1.883   2.841
 6200TIP3    H118606   4.572   1.857   2.809
 6200TIP3    H218607   4.426   1.816   2.806
 6201TIP3   OH218608   5.628   2.886   3.623
 6201TIP3    H118609   5.700   2.938   3.657
 6201TIP3    H218610   5.671   2.818   3.570
 6202TIP3   OH218611   3.794   2.709   5.160
 6202TIP3    H118612   3.722   2.770   5.147
 6202TIP3    H218613   3.757   2.637   5.210
 6203TIP3   OH218614   4.053   5.126   0.619
 6203TIP3    H118615   4.025   5.075   0.695
 6203TIP3    H218616   3.972   5.149   0.574
 6204TIP3   OH218617   1.364   3.472   1.040
 6204TIP3    H118618   1.345   3.540   0.975
 6204TIP3    H218619   1.412   3.405   0.991
 6205TIP3   OH218620   2.736   3.680   4.455
 6205TIP3    H118621   2.668   3.721   4.400
 6205TIP3    H218622   2.739   3.589   4.425
 6206TIP3   OH218623   4.667   0.913   2.569
 6206TIP3    H118624   4.732   0.960   2.621
 6206TIP3    H218625   4.689   0.935   2.478
 6207TIP3   OH218626   4.723   5.132   0.165
 6207TIP3    H118627   4.649   5.076   0.190
 6207TIP3    H218628   4.800   5.085   0.198
 6208TIP3   OH218629   3.614   3.066   1.982
 6208TIP3    H118630   3.644   3.120   1.909
 6208TIP3    H218631   3.642   3.112   2.060
 6209TIP3   OH218632   0.102   5.334   4.927
 6209TIP3    H118633   0.070   5.361   4.841
 6209TIP3    H218634   0.140   5.413   4.966
 6210TIP3   OH218635   1.834   4.173   1.157
 6210TIP3    H118636   1.795   4.088   1.137
 6210TIP3    H218637   1.812   4.188   1.249
 6211TIP3   OH218638   2.824   1.941   4.321
 6211TIP3    H118639   2.865   1.854   4.322
 6211TIP3    H218640   2.782   1.948   4.407
 6212TIP3   OH218641   4.265   4.920   2.059
 6212TIP3    H118642   4.307   4.885   1.980
 6212TIP3    H218643   4.335   4.964   2.106
 6213TIP3   OH218644   3.881   0.832   3.745
 6213TIP3    H118645   3.912   0.754   3.699
 6213TIP3    H218646   3.819   0.798   3.810
 6214TIP3   OH218647   0.691   4.765   5.006
 6214TIP3    H118648   0.666   4.800   4.920
 6214TIP3    H218649   0.641   4.817   5.069
 6215TIP3   OH218650   5.024   3.444   3.021
 6215TIP3    H118651   5.111   3.478   3.002
 6215TIP3    H218652   5.039   3.373   3.083
 6216TIP3   OH218653   4.783   1.026   2.332
 6216TIP3    H118654   4.844   0.979   2.276
 6216TIP3    H218655   4.839   1.078   2.391
 6217TIP3   OH218656   3.978   1.222   0.932
 6217TIP3    H118657   4.007   1.306   0.967
 6217TIP3    H218658   4.031   1.209   0.853
 6218TIP3   OH218659   0.889   3.484   1.852
 6218TIP3    H118660   0.794   3.485   1.837
 6218TIP3    H218661   0.926   3.470   1.765
 6219TIP3   OH218662   4.559   0.630   1.155
 6219TIP3    H118663   4.576   0.644   1.248
 6219TIP3    H218664   4.645   0.615   1.116
 6220TIP3   OH218665   3.402   1.510   4.931
 6220TIP3    H118666   3.391   1.486   5.023
 6220TIP3    H218667   3.420   1.604   4.932
 6221TIP3   OH218668   6.068   2.284   0.567
 6221TIP3    H118669   6.122   2.354   0.531
 6221TIP3    H218670   6.057   2.307   0.659
 6222TIP3   OH218671   1.145   3.814   3.985
 6222TIP3    H118672   1.074   3.774   4.035
 6222TIP3    H218673   1.111   3.901   3.960
 6223TIP3   OH218674   1.859   0.284   4.343
 6223TIP3    H118675   1.833   0.352   4.281
 6223TIP3    H218676   1.953   0.298   4.356
 6224TIP3   OH218677   2.371   5.476   4.368
 6224TIP3    H118678   2.439   5.417   4.400
 6224TIP3    H218679   2.415   5.561   4.359
 6225TIP3   OH218680   2.564   1.943   0.743
 6225TIP3    H118681   2.476   1.955   0.776
 6225TIP3    H218682   2.605   2.029   0.753
 6226TIP3   OH218683   0.117   0.745   3.471
 6226TIP3    H118684   0.155   0.714   3.389
 6226TIP3    H218685   0.157   0.689   3.538
 6227TIP3   OH218686   4.536   0.228   4.867
 6227TIP3    H118687   4.541   0.212   4.773
 6227TIP3    H218688   4.463   0.173   4.897
 6228TIP3   OH218689   4.292   3.491   3.475
 6228TIP3    H118690   4.259   3.541   3.550
 6228TIP3    H218691   4.214   3.468   3.425
 6229TIP3   OH218692   4.186   2.261   3.955
 6229TIP3    H118693   4.109   2.263   4.012
 6229TIP3    H218694   4.151   2.245   3.867
 6230TIP3   OH218695   1.317   5.848   1.538
 6230TIP3    H118696   1.303   5.755   1.557
 6230TIP3    H218697   1.390   5.873   1.595
 6231TIP3   OH218698   4.645   1.656   4.456
 6231TIP3    H118699   4.628   1.735   4.405
 6231TIP3    H218700   4.589   1.664   4.533
 6232TIP3   OH218701   1.195   3.303   3.144
 6232TIP3    H118702   1.149   3.312   3.228
 6232TIP3    H218703   1.211   3.392   3.115
 6233TIP3   OH218704   2.696   2.486   4.927
 6233TIP3    H118705   2.776   2.495   4.979
 6233TIP3    H218706   2.625   2.497   4.990
 6234TIP3   OH218707   5.430   3.036   2.488
 6234TIP3    H118708   5.433   3.007   2.396
 6234TIP3    H218709   5.376   2.971   2.532
 6235TIP3   OH218710   2.997   1.938   3.065
 6235TIP3    H118711   2.968   1.925   2.974
 6235TIP3    H218712   2.938   2.005   3.099
 6236TIP3   OH218713   0.634   5.832   4.740
 6236TIP3    H118714   0.581   5.834   4.819
 6236TIP3    H218715   0.693   5.758   4.752
 6237TIP3   OH218716   3.845   2.327   1.970
 6237TIP3    H118717   3.876   2.353   1.884
 6237TIP3    H218718   3.783   2.395   1.996
 6238TIP3   OH218719   3.040   4.459   4.694
 6238TIP3    H118720   3.035   4.363   4.688
 6238TIP3    H218721   2.965   4.483   4.749
 6239TIP3   OH218722   4.641   1.232   1.135
 6239TIP3    H118723   4.625   1.313   1.183
 6239TIP3    H218724   4.615   1.253   1.045
 6240TIP3   OH218725   6.249   5.551   4.111
 6240TIP3    H118726   6.238   5.557   4.206
 6240TIP3    H218727   6.332   5.595   4.093
 6241TIP3   OH218728   1.231   2.615   4.011
 6241TIP3    H118729   1.161   2.555   4.038
 6241TIP3    H218730   1.301   2.601   4.075
 6242TIP3   OH218731   0.918   2.487   1.090
 6242TIP3    H118732   0.943   2.442   1.171
 6242TIP3    H218733   1.001   2.521   1.055
 6243TIP3   OH218734   3.954   0.522   1.501
 6243TIP3    H118735   3.898   0.598   1.488
 6243TIP3    H218736   3.914   0.453   1.449
 6244TIP3   OH218737   4.094   0.566   4.832
 6244TIP3    H118738   4.008   0.526   4.820
 6244TIP3    H218739   4.111   0.557   4.926
 6245TIP3   OH218740   4.822   4.778   2.380
 6245TIP3    H118741   4.817   4.820   2.295
 6245TIP3    H218742   4.787   4.843   2.441
 6246TIP3   OH218743   2.706   1.301   0.406
 6246TIP3    H118744   2.789   1.336   0.440
 6246TIP3    H218745   2.647   1.377   0.404
 6247TIP3   OH218746   4.397   0.732   4.685
 6247TIP3    H118747   4.450   0.805   4.718
 6247TIP3    H218748   4.306   0.762   4.696
 6248TIP3   OH218749   0.056   3.603   1.380
 6248TIP3    H118750   0.144   3.637   1.361
 6248TIP3    H218751   0.071   3.529   1.440
 6249TIP3   OH218752   3.015   1.705   4.367
 6249TIP3    H118753   2.956   1.683   4.439
 6249TIP3    H218754   3.099   1.666   4.390
 6250TIP3   OH218755   4.176   1.624   1.206
 6250TIP3    H118756   4.220   1.539   1.202
 6250TIP3    H218757   4.108   1.612   1.273
 6251TIP3   OH218758   5.177   4.777   1.592
 6251TIP3    H118759   5.218   4.692   1.609
 6251TIP3    H218760   5.243   4.825   1.543
 6252TIP3   OH218761   3.384   3.098   0.773
 6252TIP3    H118762   3.323   3.099   0.699
 6252TIP3    H218763   3.377   3.010   0.809
 6253TIP3   OH218764   5.335   4.888   5.068
 6253TIP3    H118765   5.349   4.846   5.153
 6253TIP3    H218766   5.240   4.886   5.056
 6254TIP3   OH218767   3.385   1.129   3.585
 6254TIP3    H118768   3.406   1.056   3.527
 6254TIP3    H218769   3.367   1.202   3.526
 6255TIP3   OH218770   0.513   1.356   3.556
 6255TIP3    H118771   0.592   1.301   3.559
 6255TIP3    H218772   0.442   1.296   3.535
 6256TIP3   OH218773   3.719   1.201   2.485
 6256TIP3    H118774   3.742   1.179   2.575
 6256TIP3    H218775   3.667   1.281   2.492
 6257TIP3   OH218776   2.617   2.204   4.737
 6257TIP3    H118777   2.570   2.218   4.819
 6257TIP3    H218778   2.549   2.184   4.674
 6258TIP3   OH218779   5.296   5.632   1.932
 6258TIP3    H118780   5.379   5.634   1.979
 6258TIP3    H218781   5.305   5.698   1.864
 6259TIP3   OH218782   1.121   4.088   3.271
 6259TIP3    H118783   1.125   4.136   3.188
 6259TIP3    H218784   1.142   3.998   3.248
 6260TIP3   OH218785   0.513   2.269   4.694
 6260TIP3    H118786   0.490   2.216   4.771
 6260TIP3    H218787   0.552   2.206   4.633
 6261TIP3   OH218788   5.251   4.235   2.668
 6261TIP3    H118789   5.336   4.263   2.636
 6261TIP3    H218790   5.190   4.258   2.598
 6262TIP3   OH218791   3.403   2.914   2.031
 6262TIP3    H118792   3.400   2.834   1.978
 6262TIP3    H218793   3.489   2.951   2.015
 6263TIP3   OH218794   4.488   4.192   4.362
 6263TIP3    H118795   4.403   4.184   4.317
 6263TIP3    H218796   4.552   4.179   4.293
 6264TIP3   OH218797   4.769   1.850   2.849
 6264TIP3    H118798   4.779   1.773   2.792
 6264TIP3    H218799   4.859   1.874   2.873
 6265TIP3   OH218800   5.807   3.280   4.179
 6265TIP3    H118801   5.900   3.296   4.161
 6265TIP3    H218802   5.762   3.356   4.142
 6266TIP3   OH218803   4.254   2.619   3.164
 6266TIP3    H118804   4.318   2.630   3.234
 6266TIP3    H218805   4.170   2.608   3.210
 6267TIP3   OH218806   2.877   3.775   1.819
 6267TIP3    H118807   2.826   3.722   1.880
 6267TIP3    H218808   2.856   3.739   1.732
 6268TIP3   OH218809   0.136   5.031   3.122
 6268TIP3    H118810   0.076   4.964   3.089
 6268TIP3    H218811   0.083   5.111   3.127
 6269TIP3   OH218812   3.384   2.781   4.713
 6269TIP3    H118813   3.342   2.864   4.694
 6269TIP3    H218814   3.341   2.749   4.792
 6270TIP3   OH218815   1.479   5.595   1.460
 6270TIP3    H118816   1.411   5.597   1.527
 6270TIP3    H218817   1.430   5.595   1.377
 6271TIP3   OH218818   1.574   3.327   4.598
 6271TIP3    H118819   1.598   3.238   4.572
 6271TIP3    H218820   1.536   3.366   4.519
 6272TIP3   OH218821   5.285   2.117   4.778
 6272TIP3    H118822   5.273   2.176   4.852
 6272TIP3    H218823   5.197   2.106   4.742
 6273TIP3   OH218824   0.086   2.859   0.959
 6273TIP3    H118825   0.166   2.911   0.950
 6273TIP3    H218826   0.029   2.913   1.014
 6274TIP3   OH218827   4.137   5.618   1.885
 6274TIP3    H118828   4.116   5.593   1.975
 6274TIP3    H218829   4.097   5.550   1.831
 6275TIP3   OH218830   4.110   3.955   1.931
 6275TIP3    H118831   4.021   3.920   1.940
 6275TIP3    H218832   4.103   4.021   1.862
 6276TIP3   OH218833   2.062   1.165   4.922
 6276TIP3    H118834   2.155   1.176   4.900
 6276TIP3    H218835   2.026   1.116   4.848
 6277TIP3   OH218836   2.213   2.866   3.246
 6277TIP3    H118837   2.215   2.956   3.214
 6277TIP3    H218838   2.282   2.822   3.196
 6278TIP3   OH218839   3.001   4.722   0.866
 6278TIP3    H118840   2.980   4.676   0.948
 6278TIP3    H218841   2.916   4.743   0.828
 6279TIP3   OH218842   5.340   4.399   1.857
 6279TIP3    H118843   5.286   4.465   1.899
 6279TIP3    H218844   5.337   4.421   1.764
 6280TIP3   OH218845   2.861   2.413   1.215
 6280TIP3    H118846   2.935   2.359   1.187
 6280TIP3    H218847   2.893   2.459   1.293
 6281TIP3   OH218848   3.576   1.081   0.210
 6281TIP3    H118849   3.641   1.147   0.188
 6281TIP3    H218850   3.541   1.053   0.126
 6282TIP3   OH218851   5.779   4.608   5.069
 6282TIP3    H118852   5.725   4.686   5.081
 6282TIP3    H218853   5.767   4.584   4.977
 6283TIP3   OH218854   3.001   5.335   1.120
 6283TIP3    H118855   3.056   5.270   1.076
 6283TIP3    H218856   2.975   5.396   1.051
 6284TIP3   OH218857   0.173   0.430   1.435
 6284TIP3    H118858   0.243   0.417   1.499
 6284TIP3    H218859   0.145   0.521   1.449
 6285TIP3   OH218860   3.086   2.949   0.742
 6285TIP3    H118861   3.009   2.919   0.791
 6285TIP3    H218862   3.093   3.042   0.763
 6286TIP3   OH218863   0.354   5.933   5.031
 6286TIP3    H118864   0.396   5.981   4.959
 6286TIP3    H218865   0.328   5.850   4.992
 6287TIP3   OH218866   2.796   3.404   5.167
 6287TIP3    H118867   2.794   3.315   5.131
 6287TIP3    H218868   2.718   3.409   5.223
 6288TIP3   OH218869   2.592   4.427   1.611
 6288TIP3    H118870   2.506   4.466   1.622
 6288TIP3    H218871   2.593   4.395   1.521
 6289TIP3   OH218872   1.325   0.575   4.941
 6289TIP3    H118873   1.314   0.480   4.937
 6289TIP3    H218874   1.248   0.609   4.895
 6290TIP3   OH218875   4.471   1.906   4.781
 6290TIP3    H118876   4.457   1.999   4.762
 6290TIP3    H218877   4.549   1.883   4.732
 6291TIP3   OH218878   5.537   3.657   1.082
 6291TIP3    H118879   5.515   3.641   1.174
 6291TIP3    H218880   5.577   3.575   1.053
 6292TIP3   OH218881   3.269   2.874   4.988
 6292TIP3    H118882   3.267   2.960   4.946
 6292TIP3    H218883   3.176   2.851   4.998
 6293TIP3   OH218884   0.737   5.619   4.226
 6293TIP3    H118885   0.703   5.536   4.193
 6293TIP3    H218886   0.817   5.633   4.177
 6294TIP3   OH218887   5.124   3.036   2.591
 6294TIP3    H118888   5.117   3.114   2.646
 6294TIP3    H218889   5.170   2.972   2.646
 6295TIP3   OH218890   3.821   3.412   0.905
 6295TIP3    H118891   3.914   3.388   0.902
 6295TIP3    H218892   3.775   3.328   0.914
 6296TIP3   OH218893   6.072   2.011   3.989
 6296TIP3    H118894   6.077   1.995   3.894
 6296TIP3    H218895   5.979   2.003   4.010
 6297TIP3   OH218896   5.698   2.883   2.234
 6297TIP3    H118897   5.691   2.791   2.260
 6297TIP3    H218898   5.733   2.927   2.311
 6298TIP3   OH218899   3.222   2.460   2.077
 6298TIP3    H118900   3.212   2.414   2.160
 6298TIP3    H218901   3.310   2.498   2.081
 6299TIP3   OH218902   1.609   0.725   1.532
 6299TIP3    H118903   1.608   0.703   1.439
 6299TIP3    H218904   1.691   0.773   1.544
 6300TIP3   OH218905   0.564   0.686   1.754
 6300TIP3    H118906   0.638   0.672   1.813
 6300TIP3    H218907   0.581   0.771   1.713
 6301TIP3   OH218908   2.478   2.625   2.012
 6301TIP3    H118909   2.414   2.577   2.065
 6301TIP3    H218910   2.451   2.608   1.921
 6302TIP3   OH218911   5.529   2.024   2.076
 6302TIP3    H118912   5.499   1.939   2.108
 6302TIP3    H218913   5.625   2.016   2.073
 6303TIP3   OH218914   2.315   0.230   3.412
 6303TIP3    H118915   2.254   0.295   3.378
 6303TIP3    H218916   2.359   0.274   3.485
 6304TIP3   OH218917   0.297   3.605   4.855
 6304TIP3    H118918   0.204   3.607   4.877
 6304TIP3    H218919   0.333   3.682   4.899
 6305TIP3   OH218920   5.535   3.473   2.937
 6305TIP3    H118921   5.607   3.496   2.879
 6305TIP3    H218922   5.525   3.549   2.994
 6306TIP3   OH218923   1.988   2.715   4.445
 6306TIP3    H118924   1.992   2.723   4.349
 6306TIP3    H218925   2.032   2.632   4.464
 6307TIP3   OH218926   3.599   1.278   5.008
 6307TIP3    H118927   3.657   1.348   4.977
 6307TIP3    H218928   3.633   1.256   5.095
 6308TIP3   OH218929   5.740   3.828   0.528
 6308TIP3    H118930   5.664   3.802   0.580
 6308TIP3    H218931   5.711   3.820   0.438
 6309TIP3   OH218932   5.534   1.914   0.609
 6309TIP3    H118933   5.491   1.870   0.682
 6309TIP3    H218934   5.463   1.933   0.547
 6310TIP3   OH218935   0.745   4.158   3.281
 6310TIP3    H118936   0.674   4.187   3.223
 6310TIP3    H218937   0.772   4.073   3.247
 6311TIP3   OH218938   1.229   5.455   0.678
 6311TIP3    H118939   1.214   5.528   0.617
 6311TIP3    H218940   1.280   5.392   0.628
 6312TIP3   OH218941   2.101   4.869   2.463
 6312TIP3    H118942   2.182   4.917   2.480
 6312TIP3    H218943   2.128   4.777   2.456
 6313TIP3   OH218944   1.163   1.278   4.686
 6313TIP3    H118945   1.134   1.206   4.629
 6313TIP3    H218946   1.104   1.273   4.761
 6314TIP3   OH218947   5.052   4.861   5.111
 6314TIP3    H118948   4.982   4.912   5.153
 6314TIP3    H218949   5.006   4.786   5.073
 6315TIP3   OH218950   4.131   3.959   4.365
 6315TIP3    H118951   4.183   3.908   4.427
 6315TIP3    H218952   4.072   3.895   4.324
 6316TIP3   OH218953   6.053   2.067   2.083
 6316TIP3    H118954   5.962   2.039   2.095
 6316TIP3    H218955   6.071   2.050   1.990
 6317TIP3   OH218956   1.171   4.202   4.646
 6317TIP3    H118957   1.239   4.136   4.632
 6317TIP3    H218958   1.174   4.219   4.740
 6318TIP3   OH218959   4.883   0.164   3.814
 6318TIP3    H118960   4.814   0.136   3.874
 6318TIP3    H218961   4.925   0.237   3.860
 6319TIP3   OH218962   2.198   3.489   3.218
 6319TIP3    H118963   2.157   3.431   3.154
 6319TIP3    H218964   2.280   3.445   3.241
 6320TIP3   OH218965   3.445   5.025   1.230
 6320TIP3    H118966   3.462   4.952   1.170
 6320TIP3    H218967   3.381   4.990   1.292
 6321TIP3   OH218968   1.521   3.428   4.872
 6321TIP3    H118969   1.578   3.387   4.808
 6321TIP3    H218970   1.511   3.518   4.841
 6322TIP3   OH218971   0.585   4.147   0.835
 6322TIP3    H118972   0.659   4.140   0.895
 6322TIP3    H218973   0.611   4.095   0.759
 6323TIP3   OH218974   2.464   2.385   2.976
 6323TIP3    H118975   2.429   2.430   2.899
 6323TIP3    H218976   2.556   2.368   2.955
 6324TIP3   OH218977   5.491   0.301   3.488
 6324TIP3    H118978   5.407   0.269   3.519
 6324TIP3    H218979   5.541   0.222   3.467
 6325TIP3   OH218980   5.467   4.684   1.182
 6325TIP3    H118981   5.552   4.728   1.179
 6325TIP3    H218982   5.485   4.593   1.159
 6326TIP3   OH218983   1.669   2.698   0.728
 6326TIP3    H118984   1.626   2.647   0.659
 6326TIP3    H218985   1.636   2.661   0.810
 6327TIP3   OH218986   0.690   4.186   4.910
 6327TIP3    H118987   0.754   4.221   4.971
 6327TIP3    H218988   0.736   4.117   4.862
 6328TIP3   OH218989   3.439   2.436   0.158
 6328TIP3    H118990   3.520   2.398   0.125
 6328TIP3    H218991   3.392   2.362   0.197
 6329TIP3   OH218992   2.950   2.857   4.363
 6329TIP3    H118993   3.001   2.858   4.281
 6329TIP3    H218994   2.984   2.781   4.411
 6330TIP3   OH218995   2.442   2.149   0.209
 6330TIP3    H118996   2.454   2.068   0.259
 6330TIP3    H218997   2.523   2.160   0.159
 6331TIP3   OH218998   5.351   5.701   3.817
 6331TIP3    H118999   5.378   5.740   3.734
 6331TIP3    H219000   5.395   5.616   3.819
 6332TIP3   OH219001   2.733   1.251   4.072
 6332TIP3    H119002   2.804   1.245   4.136
 6332TIP3    H219003   2.723   1.345   4.057
 6333TIP3   OH219004   2.066   0.245   1.762
 6333TIP3    H119005   2.009   0.322   1.765
 6333TIP3    H219006   2.039   0.192   1.837
 6334TIP3   OH219007   4.754   1.749   2.367
 6334TIP3    H119008   4.840   1.780   2.396
 6334TIP3    H219009   4.773   1.678   2.306
 6335TIP3   OH219010   2.719   2.265   1.023
 6335TIP3    H119011   2.757   2.323   1.089
 6335TIP3    H219012   2.658   2.210   1.071
 6336TIP3   OH219013   2.910   5.311   1.606
 6336TIP3    H119014   2.920   5.366   1.528
 6336TIP3    H219015   3.000   5.296   1.635
 6337TIP3   OH219016   5.779   1.893   2.099
 6337TIP3    H119017   5.751   1.928   2.184
 6337TIP3    H219018   5.817   1.808   2.120
 6338TIP3   OH219019   1.260   5.436   0.368
 6338TIP3    H119020   1.223   5.525   0.370
 6338TIP3    H219021   1.228   5.399   0.285
 6339TIP3   OH219022   5.268   2.055   1.697
 6339TIP3    H119023   5.211   2.060   1.775
 6339TIP3    H219024   5.353   2.084   1.728
 6340TIP3   OH219025   4.500   4.560   0.115
 6340TIP3    H119026   4.578   4.523   0.072
 6340TIP3    H219027   4.521   4.557   0.208
 6341TIP3   OH219028   4.314   3.261   1.822
 6341TIP3    H119029   4.292   3.281   1.731
 6341TIP3    H219030   4.393   3.208   1.817
 6342TIP3   OH219031   5.766   1.681   0.662
 6342TIP3    H119032   5.755   1.678   0.567
 6342TIP3    H219033   5.695   1.737   0.693
 6343TIP3   OH219034   2.740   2.352   2.955
 6343TIP3    H119035   2.791   2.297   3.015
 6343TIP3    H219036   2.782   2.439   2.962
 6344TIP3   OH219037   4.133   4.741   2.507
 6344TIP3    H119038   4.096   4.764   2.422
 6344TIP3    H219039   4.207   4.684   2.486
 6345TIP3   OH219040   2.157   2.677   5.031
 6345TIP3    H119041   2.126   2.710   5.115
 6345TIP3    H219042   2.237   2.726   5.013
 6346TIP3   OH219043   4.969   2.155   0.865
 6346TIP3    H119044   4.955   2.209   0.943
 6346TIP3    H219045   4.882   2.141   0.829
 6347TIP3   OH219046   2.510   5.407   4.692
 6347TIP3    H119047   2.449   5.477   4.716
 6347TIP3    H219048   2.573   5.406   4.764
 6348TIP3   OH219049   2.302   2.678   4.166
 6348TIP3    H119050   2.208   2.694   4.158
 6348TIP3    H219051   2.324   2.708   4.254
 6349TIP3   OH219052   3.305   0.949   1.214
 6349TIP3    H119053   3.355   0.998   1.149
 6349TIP3    H219054   3.256   0.885   1.163
 6350TIP3   OH219055   2.955   4.201   2.616
 6350TIP3    H119056   2.975   4.271   2.678
 6350TIP3    H219057   2.887   4.150   2.660
 6351TIP3   OH219058   0.312   5.194   0.685
 6351TIP3    H119059   0.371   5.218   0.613
 6351TIP3    H219060   0.226   5.186   0.644
 6352TIP3   OH219061   3.034   5.247   4.705
 6352TIP3    H119062   3.012   5.260   4.798
 6352TIP3    H219063   2.983   5.314   4.659
 6353TIP3   OH219064   5.450   2.309   2.521
 6353TIP3    H119065   5.507   2.299   2.444
 6353TIP3    H219066   5.363   2.282   2.490
 6354TIP3   OH219067   4.891   0.057   4.079
 6354TIP3    H119068   4.811   0.077   4.031
 6354TIP3    H219069   4.920  -0.027   4.044
 6355TIP3   OH219070   2.327   2.561   3.437
 6355TIP3    H119071   2.394   2.531   3.375
 6355TIP3    H219072   2.285   2.635   3.392
 6356TIP3   OH219073   0.893   4.369   1.434
 6356TIP3    H119074   0.905   4.426   1.510
 6356TIP3    H219075   0.852   4.425   1.368
 6357TIP3   OH219076   5.647   0.034   0.265
 6357TIP3    H119077   5.670   0.119   0.303
 6357TIP3    H219078   5.655   0.048   0.170
 6358TIP3   OH219079   3.034   2.693   0.408
 6358TIP3    H119080   2.942   2.692   0.381
 6358TIP3    H219081   3.073   2.618   0.364
 6359TIP3   OH219082   5.800   1.286   4.347
 6359TIP3    H119083   5.880   1.320   4.387
 6359TIP3    H219084   5.814   1.192   4.339
 6360TIP3   OH219085   0.229   3.481   1.141
 6360TIP3    H119086   0.248   3.566   1.100
 6360TIP3    H219087   0.270   3.487   1.228
 6361TIP3   OH219088   4.820   2.543   1.305
 6361TIP3    H119089   4.786   2.469   1.355
 6361TIP3    H219090   4.884   2.584   1.363
 6362TIP3   OH219091   1.665   5.387   3.127
 6362TIP3    H119092   1.628   5.410   3.041
 6362TIP3    H219093   1.592   5.399   3.187
 6363TIP3   OH219094   3.017   3.965   2.265
 6363TIP3    H119095   3.008   3.911   2.186
 6363TIP3    H219096   2.929   3.966   2.303
 6364TIP3   OH219097   2.291   3.783   1.280
 6364TIP3    H119098   2.319   3.874   1.271
 6364TIP3    H219099   2.206   3.780   1.236
 6365TIP3   OH219100   5.459   5.357   4.734
 6365TIP3    H119101   5.476   5.350   4.828
 6365TIP3    H219102   5.478   5.449   4.713
 6366TIP3   OH219103   4.416   0.108   4.179
 6366TIP3    H119104   4.434   0.021   4.216
 6366TIP3    H219105   4.470   0.168   4.231
 6367TIP3   OH219106   5.757   0.312   5.161
 6367TIP3    H119107   5.846   0.337   5.138
 6367TIP3    H219108   5.727   0.260   5.086
 6368TIP3   OH219109   0.503   2.099   2.208
 6368TIP3    H119110   0.456   2.078   2.128
 6368TIP3    H219111   0.588   2.130   2.178
 6369TIP3   OH219112   4.534   3.577   4.979
 6369TIP3    H119113   4.550   3.634   4.903
 6369TIP3    H219114   4.603   3.511   4.974
 6370TIP3   OH219115   4.122   0.810   1.024
 6370TIP3    H119116   4.097   0.719   1.009
 6370TIP3    H219117   4.181   0.807   1.099
 6371TIP3   OH219118   2.096   4.238   1.225
 6371TIP3    H119119   2.004   4.218   1.242
 6371TIP3    H219120   2.100   4.258   1.131
 6372TIP3   OH219121   5.631   5.412   2.967
 6372TIP3    H119122   5.665   5.348   2.905
 6372TIP3    H219123   5.593   5.481   2.913
 6373TIP3   OH219124   4.901   1.240   1.573
 6373TIP3    H119125   4.913   1.215   1.481
 6373TIP3    H219126   4.867   1.329   1.569
 6374TIP3   OH219127   5.126   1.154   3.621
 6374TIP3    H119128   5.218   1.173   3.643
 6374TIP3    H219129   5.131   1.117   3.533
 6375TIP3   OH219130   1.664   4.570   4.316
 6375TIP3    H119131   1.610   4.552   4.239
 6375TIP3    H219132   1.678   4.485   4.357
 6376TIP3   OH219133   4.567   5.646   3.617
 6376TIP3    H119134   4.476   5.671   3.626
 6376TIP3    H219135   4.608   5.671   3.700
 6377TIP3   OH219136   4.631   3.867   4.452
 6377TIP3    H119137   4.573   3.791   4.445
 6377TIP3    H219138   4.625   3.910   4.367
 6378TIP3   OH219139   2.625   5.883   1.017
 6378TIP3    H119140   2.582   5.969   1.021
 6378TIP3    H219141   2.719   5.904   1.021
 6379TIP3   OH219142   2.067   1.065   0.729
 6379TIP3    H119143   2.014   0.994   0.693
 6379TIP3    H219144   2.157   1.039   0.711
 6380TIP3   OH219145   6.055   5.436   3.285
 6380TIP3    H119146   6.008   5.510   3.324
 6380TIP3    H219147   5.987   5.384   3.243
 6381TIP3   OH219148   2.803   5.596   2.825
 6381TIP3    H119149   2.762   5.530   2.770
 6381TIP3    H219150   2.896   5.574   2.824
 6382TIP3   OH219151   4.051   0.118   1.641
 6382TIP3    H119152   4.080   0.089   1.728
 6382TIP3    H219153   4.000   0.197   1.658
 6383TIP3   OH219154   4.437   2.303   3.106
 6383TIP3    H119155   4.423   2.369   3.038
 6383TIP3    H219156   4.430   2.351   3.188
 6384TIP3   OH219157   4.576   3.431   4.333
 6384TIP3    H119158   4.599   3.395   4.247
 6384TIP3    H219159   4.483   3.451   4.326
 6385TIP3   OH219160   5.729   1.896   2.915
 6385TIP3    H119161   5.747   1.883   2.821
 6385TIP3    H219162   5.649   1.845   2.931
 6386TIP3   OH219163   3.493   3.199   4.310
 6386TIP3    H119164   3.398   3.203   4.315
 6386TIP3    H219165   3.512   3.170   4.221
 6387TIP3   OH219166   2.437   2.567   2.705
 6387TIP3    H119167   2.496   2.518   2.647
 6387TIP3    H219168   2.469   2.657   2.700
 6388TIP3   OH219169   4.826   0.499   3.425
 6388TIP3    H119170   4.877   0.502   3.506
 6388TIP3    H219171   4.860   0.423   3.378
 6389TIP3   OH219172   0.074   4.476   2.612
 6389TIP3    H119173   0.137   4.463   2.682
 6389TIP3    H219174   0.084   4.568   2.587
 6390TIP3   OH219175   0.613   5.314   0.888
 6390TIP3    H119176   0.642   5.357   0.968
 6390TIP3    H219177   0.522   5.341   0.878
 6391TIP3   OH219178   6.248   0.178   1.082
 6391TIP3    H119179   6.222   0.269   1.097
 6391TIP3    H219180   6.326   0.167   1.137
 6392TIP3   OH219181   2.476   4.120   4.651
 6392TIP3    H119182   2.393   4.123   4.605
 6392TIP3    H219183   2.478   4.033   4.692
 6393TIP3   OH219184   2.122   0.189   4.962
 6393TIP3    H119185   2.214   0.211   4.945
 6393TIP3    H219186   2.075   0.221   4.885
 6394TIP3   OH219187   2.825   2.429   4.659
 6394TIP3    H119188   2.770   2.456   4.732
 6394TIP3    H219189   2.765   2.423   4.585
 6395TIP3   OH219190   4.710   0.206   2.562
 6395TIP3    H119191   4.777   0.138   2.562
 6395TIP3    H219192   4.759   0.288   2.577
 6396TIP3   OH219193   0.313   0.493   3.339
 6396TIP3    H119194   0.352   0.542   3.267
 6396TIP3    H219195   0.372   0.506   3.412
 6397TIP3   OH219196   1.731   0.779   5.178
 6397TIP3    H119197   1.795   0.814   5.116
 6397TIP3    H219198   1.767   0.695   5.205
 6398TIP3   OH219199   5.821   2.808   3.259
 6398TIP3    H119200   5.794   2.740   3.198
 6398TIP3    H219201   5.913   2.788   3.278
 6399TIP3   OH219202   2.884   5.940   0.280
 6399TIP3    H119203   2.917   6.018   0.324
 6399TIP3    H219204   2.809   5.913   0.333
 6400TIP3   OH219205   1.161   0.405   0.216
 6400TIP3    H119206   1.170   0.319   0.176
 6400TIP3    H219207   1.105   0.391   0.293
 6401TIP3   OH219208   0.289   5.235   2.836
 6401TIP3    H119209   0.367   5.265   2.790
 6401TIP3    H219210   0.284   5.141   2.817
 6402TIP3   OH219211   5.380   1.740   1.309
 6402TIP3    H119212   5.422   1.711   1.391
 6402TIP3    H219213   5.355   1.831   1.326
 6403TIP3   OH219214   4.038   0.287   1.177
 6403TIP3    H119215   4.014   0.210   1.228
 6403TIP3    H219216   4.129   0.305   1.202
 6404TIP3   OH219217   5.685   2.298   2.016
 6404TIP3    H119218   5.624   2.285   1.943
 6404TIP3    H219219   5.770   2.311   1.974
 6405TIP3   OH219220   2.148   4.244   4.205
 6405TIP3    H119221   2.078   4.216   4.146
 6405TIP3    H219222   2.176   4.164   4.249
 6406TIP3   OH219223   0.168   3.823   4.964
 6406TIP3    H119224   0.240   3.886   4.972
 6406TIP3    H219225   0.106   3.865   4.905
 6407TIP3   OH219226   1.995   5.541   4.029
 6407TIP3    H119227   2.070   5.498   4.070
 6407TIP3    H219228   2.029   5.573   3.945
 6408TIP3   OH219229   2.649   4.408   1.895
 6408TIP3    H119230   2.599   4.475   1.849
 6408TIP3    H219231   2.667   4.341   1.829
 6409TIP3   OH219232   4.787   5.481   3.325
 6409TIP3    H119233   4.723   5.497   3.256
 6409TIP3    H219234   4.794   5.385   3.330
 6410TIP3   OH219235   6.130   1.546   0.829
 6410TIP3    H119236   6.090   1.497   0.901
 6410TIP3    H219237   6.198   1.488   0.796
 6411TIP3   OH219238   5.275   0.607   4.463
 6411TIP3    H119239   5.361   0.605   4.505
 6411TIP3    H219240   5.292   0.587   4.371
 6412TIP3   OH219241   0.607   4.183   4.305
 6412TIP3    H119242   0.655   4.211   4.383
 6412TIP3    H219243   0.600   4.088   4.314
 6413TIP3   OH219244   5.367   5.152   2.314
 6413TIP3    H119245   5.312   5.196   2.249
 6413TIP3    H219246   5.308   5.092   2.359
 6414TIP3   OH219247   5.046   2.847   3.480
 6414TIP3    H119248   5.068   2.754   3.479
 6414TIP3    H219249   4.950   2.848   3.485
 6415TIP3   OH219250   2.223   3.233   0.471
 6415TIP3    H119251   2.268   3.157   0.507
 6415TIP3    H219252   2.209   3.211   0.379
 6416TIP3   OH219253   0.817   1.281   0.669
 6416TIP3    H119254   0.781   1.193   0.675
 6416TIP3    H219255   0.767   1.332   0.733
 6417TIP3   OH219256   0.206   0.897   1.966
 6417TIP3    H119257   0.231   0.906   2.058
 6417TIP3    H219258   0.161   0.813   1.961
 6418TIP3   OH219259   1.029   1.896   3.539
 6418TIP3    H119260   1.046   1.986   3.510
 6418TIP3    H219261   0.947   1.872   3.497
 6419TIP3   OH219262   1.606   3.455   4.120
 6419TIP3    H119263   1.654   3.532   4.091
 6419TIP3    H219264   1.524   3.457   4.071
 6420TIP3   OH219265   5.705   2.578   3.620
 6420TIP3    H119266   5.658   2.620   3.693
 6420TIP3    H219267   5.731   2.493   3.655
 6421TIP3   OH219268   4.154   4.419   4.961
 6421TIP3    H119269   4.106   4.434   4.880
 6421TIP3    H219270   4.166   4.324   4.966
 6422TIP3   OH219271   1.104   4.007   2.618
 6422TIP3    H119272   1.130   4.099   2.609
 6422TIP3    H219273   1.122   3.986   2.710
 6423TIP3   OH219274   5.868   5.853   2.955
 6423TIP3    H119275   5.847   5.811   2.872
 6423TIP3    H219276   5.783   5.870   2.996
 6424TIP3   OH219277   1.053   3.617   2.262
 6424TIP3    H119278   1.026   3.601   2.352
 6424TIP3    H219279   1.137   3.663   2.269
 6425TIP3   OH219280   4.352   4.941   3.555
 6425TIP3    H119281   4.262   4.970   3.545
 6425TIP3    H219282   4.405   5.019   3.538
 6426TIP3   OH219283   0.996   4.618   2.010
 6426TIP3    H119284   1.066   4.657   2.062
 6426TIP3    H219285   0.988   4.529   2.043
 6427TIP3   OH219286   5.831   4.222   4.907
 6427TIP3    H119287   5.891   4.262   4.844
 6427TIP3    H219288   5.748   4.217   4.861
 6428TIP3   OH219289   0.612   4.464   3.793
 6428TIP3    H119290   0.526   4.497   3.819
 6428TIP3    H219291   0.670   4.490   3.865
 6429TIP3   OH219292   4.249   2.525   5.094
 6429TIP3    H119293   4.270   2.588   5.025
 6429TIP3    H219294   4.328   2.472   5.103
 6430TIP3   OH219295   3.001   1.513   4.157
 6430TIP3    H119296   2.958   1.481   4.078
 6430TIP3    H219297   2.965   1.601   4.170
 6431TIP3   OH219298   1.546   0.213   3.710
 6431TIP3    H119299   1.631   0.185   3.676
 6431TIP3    H219300   1.537   0.168   3.794
 6432TIP3   OH219301   2.429   0.418   0.863
 6432TIP3    H119302   2.408   0.451   0.775
 6432TIP3    H219303   2.393   0.484   0.922
 6433TIP3   OH219304   4.704   4.350   2.263
 6433TIP3    H119305   4.646   4.427   2.257
 6433TIP3    H219306   4.774   4.377   2.323
 6434TIP3   OH219307   3.745   4.079   1.411
 6434TIP3    H119308   3.806   4.092   1.338
 6434TIP3    H219309   3.737   3.984   1.419
 6435TIP3   OH219310   2.674   4.736   2.331
 6435TIP3    H119311   2.696   4.694   2.415
 6435TIP3    H219312   2.742   4.706   2.271
 6436TIP3   OH219313   5.661   4.944   1.540
 6436TIP3    H119314   5.708   5.021   1.507
 6436TIP3    H219315   5.607   4.915   1.466
 6437TIP3   OH219316   3.219   5.059   0.607
 6437TIP3    H119317   3.275   4.983   0.595
 6437TIP3    H219318   3.188   5.053   0.697
 6438TIP3   OH219319   0.133   3.026   4.029
 6438TIP3    H119320   0.048   2.984   4.036
 6438TIP3    H219321   0.178   3.004   4.110
 6439TIP3   OH219322   4.053   5.381   3.994
 6439TIP3    H119323   4.015   5.465   4.021
 6439TIP3    H219324   3.977   5.326   3.976
 6440TIP3   OH219325   1.471   3.646   0.384
 6440TIP3    H119326   1.469   3.579   0.316
 6440TIP3    H219327   1.560   3.681   0.380
 6441TIP3   OH219328   2.697   4.423   2.799
 6441TIP3    H119329   2.706   4.453   2.708
 6441TIP3    H219330   2.744   4.490   2.850
 6442TIP3   OH219331   5.185   2.065   2.987
 6442TIP3    H119332   5.248   2.087   3.056
 6442TIP3    H219333   5.136   2.146   2.973
 6443TIP3   OH219334   0.275   1.829   5.056
 6443TIP3    H119335   0.188   1.863   5.035
 6443TIP3    H219336   0.305   1.788   4.975
 6444TIP3   OH219337   5.999   0.039   3.274
 6444TIP3    H119338   6.078   0.046   3.220
 6444TIP3    H219339   5.932   0.088   3.225
 6445TIP3   OH219340   0.808   4.915   4.119
 6445TIP3    H119341   0.825   5.005   4.146
 6445TIP3    H219342   0.837   4.912   4.027
 6446TIP3   OH219343   1.102   3.339   5.199
 6446TIP3    H119344   1.106   3.320   5.105
 6446TIP3    H219345   1.030   3.401   5.208
 6447TIP3   OH219346   1.265   3.715   3.718
 6447TIP3    H119347   1.336   3.662   3.754
 6447TIP3    H219348   1.255   3.787   3.780
 6448TIP3   OH219349   6.174   0.908   3.810
 6448TIP3    H119350   6.205   0.826   3.771
 6448TIP3    H219351   6.118   0.946   3.743
 6449TIP3   OH219352   1.953   5.131   3.219
 6449TIP3    H119353   1.967   5.224   3.199
 6449TIP3    H219354   2.041   5.096   3.233
 6450TIP3   OH219355   4.117   4.773   4.278
 6450TIP3    H119356   4.110   4.695   4.332
 6450TIP3    H219357   4.065   4.754   4.200
 6451TIP3   OH219358   0.153   5.866   0.412
 6451TIP3    H119359   0.105   5.828   0.338
 6451TIP3    H219360   0.217   5.924   0.371
 6452TIP3   OH219361   4.509   3.328   3.443
 6452TIP3    H119362   4.476   3.239   3.460
 6452TIP3    H219363   4.432   3.384   3.451
 6453TIP3   OH219364  -0.010   5.144   0.918
 6453TIP3    H119365   0.026   5.066   0.873
 6453TIP3    H219366   0.057   5.211   0.905
 6454TIP3   OH219367   4.423   4.428   3.943
 6454TIP3    H119368   4.405   4.339   3.971
 6454TIP3    H219369   4.369   4.440   3.865
 6455TIP3   OH219370   5.804   2.907   1.944
 6455TIP3    H119371   5.777   2.901   2.036
 6455TIP3    H219372   5.721   2.909   1.895
 6456TIP3   OH219373   3.419   4.164   1.950
 6456TIP3    H119374   3.400   4.219   2.026
 6456TIP3    H219375   3.427   4.076   1.985
 6457TIP3   OH219376   5.205   3.858   1.634
 6457TIP3    H119377   5.192   3.829   1.544
 6457TIP3    H219378   5.254   3.939   1.627
 6458TIP3   OH219379   5.521   4.627   1.692
 6458TIP3    H119380   5.474   4.685   1.752
 6458TIP3    H219381   5.613   4.635   1.718
 6459TIP3   OH219382   6.367   3.566   4.856
 6459TIP3    H119383   6.348   3.660   4.860
 6459TIP3    H219384   6.286   3.527   4.824
 6460TIP3   OH219385   2.192   4.194   3.187
 6460TIP3    H119386   2.097   4.182   3.186
 6460TIP3    H219387   2.204   4.289   3.175
 6461TIP3   OH219388   2.896   2.753   3.206
 6461TIP3    H119389   2.969   2.784   3.259
 6461TIP3    H219390   2.819   2.764   3.262
 6462TIP3   OH219391   3.085   4.552   1.307
 6462TIP3    H119392   3.061   4.614   1.376
 6462TIP3    H219393   3.091   4.467   1.351
 6463TIP3   OH219394   0.185   0.198   0.186
 6463TIP3    H119395   0.137   0.116   0.192
 6463TIP3    H219396   0.122   0.260   0.150
 6464TIP3   OH219397   5.200   1.634   3.393
 6464TIP3    H119398   5.106   1.634   3.411
 6464TIP3    H219399   5.219   1.724   3.367
 6465TIP3   OH219400   0.459   5.339   4.481
 6465TIP3    H119401   0.540   5.289   4.466
 6465TIP3    H219402   0.470   5.375   4.569
 6466TIP3   OH219403   5.202   0.689   1.542
 6466TIP3    H119404   5.107   0.679   1.533
 6466TIP3    H219405   5.214   0.782   1.562
 6467TIP3   OH219406   2.914   5.482   4.611
 6467TIP3    H119407   2.890   5.446   4.526
 6467TIP3    H219408   2.851   5.553   4.626
 6468TIP3   OH219409   4.200   3.455   4.514
 6468TIP3    H119410   4.229   3.365   4.528
 6468TIP3    H219411   4.230   3.477   4.426
 6469TIP3   OH219412   3.317   2.641   0.608
 6469TIP3    H119413   3.385   2.699   0.641
 6469TIP3    H219414   3.270   2.694   0.543
 6470TIP3   OH219415   2.335   4.753   0.707
 6470TIP3    H119416   2.421   4.761   0.665
 6470TIP3    H219417   2.281   4.711   0.641
 6471TIP3   OH219418   3.552   1.748   4.886
 6471TIP3    H119419   3.580   1.718   4.973
 6471TIP3    H219420   3.634   1.754   4.836
 6472TIP3   OH219421   3.191   3.168   2.579
 6472TIP3    H119422   3.120   3.231   2.564
 6472TIP3    H219423   3.271   3.218   2.568
 6473TIP3   OH219424   4.038   3.459   3.368
 6473TIP3    H119425   3.963   3.400   3.371
 6473TIP3    H219426   4.001   3.544   3.343
 6474TIP3   OH219427   3.504   5.330   2.138
 6474TIP3    H119428   3.531   5.253   2.188
 6474TIP3    H219429   3.577   5.391   2.147
 6475TIP3   OH219430   5.145   5.254   1.611
 6475TIP3    H119431   5.079   5.203   1.659
 6475TIP3    H219432   5.203   5.187   1.574
 6476TIP3   OH219433   4.151   1.510   4.282
 6476TIP3    H119434   4.125   1.438   4.226
 6476TIP3    H219435   4.071   1.562   4.293
 6477TIP3   OH219436   5.754   1.513   4.805
 6477TIP3    H119437   5.742   1.437   4.862
 6477TIP3    H219438   5.748   1.588   4.863
 6478TIP3   OH219439   2.874   1.845   1.760
 6478TIP3    H119440   2.925   1.897   1.699
 6478TIP3    H219441   2.834   1.909   1.819
 6479TIP3   OH219442   2.989   5.091   2.234
 6479TIP3    H119443   2.906   5.048   2.216
 6479TIP3    H219444   2.978   5.180   2.198
 6480TIP3   OH219445   0.562   5.622   3.838
 6480TIP3    H119446   0.623   5.620   3.764
 6480TIP3    H219447   0.581   5.706   3.881
 6481TIP3   OH219448   1.417   0.788   2.481
 6481TIP3    H119449   1.323   0.780   2.498
 6481TIP3    H219450   1.443   0.702   2.449
 6482TIP3   OH219451   3.455   1.400   1.509
 6482TIP3    H119452   3.382   1.437   1.459
 6482TIP3    H219453   3.429   1.411   1.600
 6483TIP3   OH219454   3.967   1.813   1.704
 6483TIP3    H119455   3.992   1.856   1.622
 6483TIP3    H219456   4.009   1.865   1.772
 6484TIP3   OH219457   3.047   4.498   0.293
 6484TIP3    H119458   3.106   4.443   0.346
 6484TIP3    H219459   3.098   4.519   0.215
 6485TIP3   OH219460   4.162   0.118   0.599
 6485TIP3    H119461   4.221   0.073   0.659
 6485TIP3    H219462   4.114   0.048   0.555
 6486TIP3   OH219463   3.164   2.863   0.147
 6486TIP3    H119464   3.129   2.938   0.099
 6486TIP3    H219465   3.248   2.846   0.105
 6487TIP3   OH219466   2.727   3.583   2.617
 6487TIP3    H119467   2.650   3.528   2.631
 6487TIP3    H219468   2.755   3.562   2.528
 6488TIP3   OH219469   1.756  -0.040   4.974
 6488TIP3    H119470   1.815   0.003   4.912
 6488TIP3    H219471   1.780  -0.004   5.059
 6489TIP3   OH219472   0.153   5.564   0.818
 6489TIP3    H119473   0.123   5.620   0.746
 6489TIP3    H219474   0.152   5.621   0.895
 6490TIP3   OH219475   5.168   0.221   4.537
 6490TIP3    H119476   5.225   0.293   4.510
 6490TIP3    H219477   5.138   0.182   4.455
 6491TIP3   OH219478   4.358   1.782   1.429
 6491TIP3    H119479   4.350   1.877   1.427
 6491TIP3    H219480   4.340   1.754   1.339
 6492TIP3   OH219481   2.395   0.615   4.697
 6492TIP3    H119482   2.399   0.629   4.791
 6492TIP3    H219483   2.477   0.570   4.675
 6493TIP3   OH219484   5.535   1.129   1.685
 6493TIP3    H119485   5.486   1.104   1.764
 6493TIP3    H219486   5.596   1.197   1.715
 6494TIP3   OH219487   3.138   1.095   0.861
 6494TIP3    H119488   3.134   1.014   0.912
 6494TIP3    H219489   3.204   1.148   0.905
 6495TIP3   OH219490   3.095   2.045   4.934
 6495TIP3    H119491   3.190   2.060   4.929
 6495TIP3    H219492   3.080   2.017   5.024
 6496TIP3   OH219493   4.332   4.866   0.135
 6496TIP3    H119494   4.282   4.790   0.104
 6496TIP3    H219495   4.303   4.938   0.080
 6497TIP3   OH219496   4.804   4.230   2.884
 6497TIP3    H119497   4.850   4.162   2.933
 6497TIP3    H219498   4.824   4.213   2.792
 6498TIP3   OH219499   3.025   3.452   4.875
 6498TIP3    H119500   3.001   3.495   4.957
 6498TIP3    H219501   2.973   3.371   4.875
 6499TIP3   OH219502   4.315   4.198   4.623
 6499TIP3    H119503   4.361   4.135   4.678
 6499TIP3    H219504   4.354   4.187   4.536
 6500TIP3   OH219505   5.663   2.462   3.915
 6500TIP3    H119506   5.578   2.422   3.931
 6500TIP3    H219507   5.643   2.551   3.887
 6501TIP3   OH219508   3.374   0.219   2.684
 6501TIP3    H119509   3.420   0.266   2.754
 6501TIP3    H219510   3.433   0.148   2.660
 6502TIP3   OH219511   1.150   2.887   2.209
 6502TIP3    H119512   1.141   2.899   2.115
 6502TIP3    H219513   1.060   2.875   2.240
 6503TIP3   OH219514   1.969   0.487   2.947
 6503TIP3    H119515   1.919   0.557   2.905
 6503TIP3    H219516   2.039   0.467   2.885
 6504TIP3   OH219517   2.911   3.193   4.441
 6504TIP3    H119518   2.856   3.119   4.416
 6504TIP3    H219519   2.951   3.221   4.358
 6505TIP3   OH219520   4.495   1.330   4.857
 6505TIP3    H119521   4.470   1.277   4.781
 6505TIP3    H219522   4.424   1.315   4.920
 6506TIP3   OH219523   0.565   3.560   0.936
 6506TIP3    H119524   0.496   3.619   0.966
 6506TIP3    H219525   0.568   3.490   1.002
 6507TIP3   OH219526   6.259   5.447   3.074
 6507TIP3    H119527   6.200   5.475   3.144
 6507TIP3    H219528   6.265   5.352   3.084
 6508TIP3   OH219529   5.199   0.916   0.676
 6508TIP3    H119530   5.282   0.961   0.663
 6508TIP3    H219531   5.213   0.828   0.640
 6509TIP3   OH219532   1.959   3.165   4.848
 6509TIP3    H119533   1.991   3.075   4.845
 6509TIP3    H219534   2.037   3.218   4.863
 6510TIP3   OH219535   2.588   4.732   0.593
 6510TIP3    H119536   2.656   4.781   0.638
 6510TIP3    H219537   2.536   4.799   0.547
 6511TIP3   OH219538   4.321   1.560   2.987
 6511TIP3    H119539   4.314   1.465   2.994
 6511TIP3    H219540   4.416   1.577   2.985
 6512TIP3   OH219541   4.983   4.207   3.961
 6512TIP3    H119542   4.891   4.226   3.979
 6512TIP3    H219543   4.989   4.203   3.866
 6513TIP3   OH219544   0.910   3.761   1.584
 6513TIP3    H119545   0.816   3.772   1.576
 6513TIP3    H219546   0.923   3.666   1.586
 6514TIP3   OH219547   2.453   4.215   1.022
 6514TIP3    H119548   2.493   4.261   0.949
 6514TIP3    H219549   2.426   4.285   1.082
 6515TIP3   OH219550   4.436   5.990   4.053
 6515TIP3    H119551   4.381   6.007   4.129
 6515TIP3    H219552   4.429   5.895   4.039
 6516TIP3   OH219553   0.302   2.057   3.088
 6516TIP3    H119554   0.295   2.146   3.123
 6516TIP3    H219555   0.215   2.019   3.102
 6517TIP3   OH219556   1.312   5.543   0.924
 6517TIP3    H119557   1.295   5.520   0.833
 6517TIP3    H219558   1.318   5.638   0.924
 6518TIP3   OH219559   1.272   5.682   3.658
 6518TIP3    H119560   1.300   5.754   3.714
 6518TIP3    H219561   1.287   5.604   3.711
 6519TIP3   OH219562   4.041   2.346   1.239
 6519TIP3    H119563   3.993   2.307   1.166
 6519TIP3    H219564   4.051   2.438   1.215
 6520TIP3   OH219565   3.629   0.859   2.854
 6520TIP3    H119566   3.596   0.811   2.929
 6520TIP3    H219567   3.626   0.797   2.782
 6521TIP3   OH219568   1.083   2.650   0.947
 6521TIP3    H119569   1.074   2.712   1.019
 6521TIP3    H219570   1.166   2.673   0.905
 6522TIP3   OH219571   4.233   3.287   0.713
 6522TIP3    H119572   4.253   3.376   0.739
 6522TIP3    H219573   4.193   3.247   0.791
 6523TIP3   OH219574   1.212   0.961   1.748
 6523TIP3    H119575   1.263   1.031   1.788
 6523TIP3    H219576   1.152   0.933   1.817
 6524TIP3   OH219577   1.223   2.815   0.287
 6524TIP3    H119578   1.140   2.838   0.329
 6524TIP3    H219579   1.228   2.871   0.210
 6525TIP3   OH219580   5.240   3.481   4.185
 6525TIP3    H119581   5.164   3.529   4.153
 6525TIP3    H219582   5.258   3.415   4.118
 6526TIP3   OH219583   2.401   5.124   4.833
 6526TIP3    H119584   2.481   5.104   4.785
 6526TIP3    H219585   2.425   5.114   4.925
 6527TIP3   OH219586   2.233   2.266   2.307
 6527TIP3    H119587   2.161   2.310   2.260
 6527TIP3    H219588   2.220   2.291   2.399
 6528TIP3   OH219589   6.141   5.256   1.960
 6528TIP3    H119590   6.173   5.219   1.877
 6528TIP3    H219591   6.130   5.350   1.942
 6529TIP3   OH219592   5.809   1.377   0.394
 6529TIP3    H119593   5.807   1.471   0.377
 6529TIP3    H219594   5.902   1.357   0.406
 6530TIP3   OH219595   4.994   5.665   2.568
 6530TIP3    H119596   5.070   5.613   2.595
 6530TIP3    H219597   5.031   5.733   2.512
 6531TIP3   OH219598   1.704   1.806   3.757
 6531TIP3    H119599   1.672   1.841   3.840
 6531TIP3    H219600   1.650   1.729   3.741
 6532TIP3   OH219601   1.429   5.622   4.307
 6532TIP3    H119602   1.504   5.626   4.366
 6532TIP3    H219603   1.364   5.569   4.354
 6533TIP3   OH219604   2.612   0.801   1.805
 6533TIP3    H119605   2.610   0.822   1.711
 6533TIP3    H219606   2.705   0.789   1.825
 6534TIP3   OH219607   1.272   5.797   1.970
 6534TIP3    H119608   1.245   5.752   2.051
 6534TIP3    H219609   1.248   5.736   1.900
 6535TIP3   OH219610   5.314   0.653   2.056
 6535TIP3    H119611   5.284   0.646   2.147
 6535TIP3    H219612   5.238   0.627   2.004
 6536TIP3   OH219613   4.981   5.693   3.188
 6536TIP3    H119614   4.900   5.715   3.234
 6536TIP3    H219615   5.028   5.636   3.248
 6537TIP3   OH219616   1.966   1.810   2.963
 6537TIP3    H119617   1.912   1.764   3.028
 6537TIP3    H219618   2.007   1.881   3.013
 6538TIP3   OH219619   3.159   5.974   3.852
 6538TIP3    H119620   3.140   5.901   3.911
 6538TIP3    H219621   3.083   5.977   3.793
 6539TIP3   OH219622   0.658   3.195   2.093
 6539TIP3    H119623   0.634   3.285   2.071
 6539TIP3    H219624   0.650   3.190   2.188
 6540TIP3   OH219625   4.244   5.068   0.803
 6540TIP3    H119626   4.197   4.987   0.825
 6540TIP3    H219627   4.189   5.111   0.738
 6541TIP3   OH219628   1.482   1.689   1.227
 6541TIP3    H119629   1.522   1.663   1.310
 6541TIP3    H219630   1.555   1.708   1.169
 6542TIP3   OH219631   3.713   1.086   3.835
 6542TIP3    H119632   3.758   1.013   3.793
 6542TIP3    H219633   3.751   1.164   3.793
 6543TIP3   OH219634   3.189   1.368   0.798
 6543TIP3    H119635   3.212   1.399   0.710
 6543TIP3    H219636   3.154   1.280   0.784
 6544TIP3   OH219637   0.206   0.996   3.352
 6544TIP3    H119638   0.115   0.998   3.381
 6544TIP3    H219639   0.222   0.904   3.331
 6545TIP3   OH219640   4.158   1.032   0.438
 6545TIP3    H119641   4.123   0.998   0.520
 6545TIP3    H219642   4.187   0.954   0.390
 6546TIP3   OH219643   0.078   2.455   4.993
 6546TIP3    H119644   0.167   2.453   4.958
 6546TIP3    H219645   0.022   2.458   4.916
 6547TIP3   OH219646   4.034   3.499   4.029
 6547TIP3    H119647   4.027   3.470   4.120
 6547TIP3    H219648   4.069   3.588   4.034
 6548TIP3   OH219649   1.011   0.202   2.851
 6548TIP3    H119650   1.073   0.190   2.924
 6548TIP3    H219651   0.947   0.264   2.884
 6549TIP3   OH219652   0.670   0.636   1.213
 6549TIP3    H119653   0.662   0.630   1.308
 6549TIP3    H219654   0.674   0.729   1.195
 6550TIP3   OH219655   3.628   5.549   3.239
 6550TIP3    H119656   3.573   5.538   3.317
 6550TIP3    H219657   3.662   5.638   3.246
 6551TIP3   OH219658   4.110   2.258   0.744
 6551TIP3    H119659   4.019   2.284   0.750
 6551TIP3    H219660   4.112   2.195   0.671
 6552TIP3   OH219661   5.368   5.715   3.508
 6552TIP3    H119662   5.454   5.733   3.471
 6552TIP3    H219663   5.328   5.653   3.446
 6553TIP3   OH219664   3.833   2.929   0.656
 6553TIP3    H119665   3.762   2.991   0.640
 6553TIP3    H219666   3.884   2.931   0.575
 6554TIP3   OH219667   5.961   2.577   4.086
 6554TIP3    H119668   5.959   2.487   4.053
 6554TIP3    H219669   6.011   2.626   4.020
 6555TIP3   OH219670   1.908   0.864   0.629
 6555TIP3    H119671   1.846   0.806   0.673
 6555TIP3    H219672   1.898   0.842   0.536
 6556TIP3   OH219673   1.594   4.092   3.228
 6556TIP3    H119674   1.528   4.139   3.278
 6556TIP3    H219675   1.554   4.007   3.208
 6557TIP3   OH219676   4.170   1.425   2.074
 6557TIP3    H119677   4.188   1.405   2.166
 6557TIP3    H219678   4.108   1.357   2.047
 6558TIP3   OH219679   0.814   4.179   4.095
 6558TIP3    H119680   0.745   4.215   4.151
 6558TIP3    H219681   0.766   4.128   4.029
 6559TIP3   OH219682   4.826   5.704   5.068
 6559TIP3    H119683   4.821   5.611   5.047
 6559TIP3    H219684   4.789   5.712   5.156
 6560TIP3   OH219685   3.730   5.056   2.002
 6560TIP3    H119686   3.689   5.077   2.086
 6560TIP3    H219687   3.746   5.142   1.962
 6561TIP3   OH219688   3.063   5.107   4.323
 6561TIP3    H119689   3.088   5.199   4.316
 6561TIP3    H219690   3.084   5.083   4.413
 6562TIP3   OH219691   4.309   1.009   1.365
 6562TIP3    H119692   4.222   0.976   1.343
 6562TIP3    H219693   4.293   1.072   1.435
 6563TIP3   OH219694   5.566   1.836   3.355
 6563TIP3    H119695   5.553   1.744   3.377
 6563TIP3    H219696   5.479   1.875   3.364
 6564TIP3   OH219697   5.779   1.674   0.378
 6564TIP3    H119698   5.718   1.739   0.343
 6564TIP3    H219699   5.864   1.720   0.379
 6565TIP3   OH219700   5.488   5.020   3.123
 6565TIP3    H119701   5.556   5.046   3.061
 6565TIP3    H219702   5.432   4.961   3.074
 6566TIP3   OH219703   5.960   1.064   0.354
 6566TIP3    H119704   5.988   1.093   0.267
 6566TIP3    H219705   5.998   1.129   0.414
 6567TIP3   OH219706   0.587   0.892   3.423
 6567TIP3    H119707   0.599   0.800   3.445
 6567TIP3    H219708   0.537   0.892   3.341
 6568TIP3   OH219709   5.481   2.657   5.017
 6568TIP3    H119710   5.452   2.664   4.926
 6568TIP3    H219711   5.509   2.746   5.040
 6569TIP3   OH219712   4.716   4.772   3.895
 6569TIP3    H119713   4.757   4.773   3.809
 6569TIP3    H219714   4.636   4.824   3.884
 6570TIP3   OH219715   0.464   0.951   4.565
 6570TIP3    H119716   0.505   0.990   4.488
 6570TIP3    H219717   0.415   0.876   4.531
 6571TIP3   OH219718   3.780   1.146   3.461
 6571TIP3    H119719   3.874   1.132   3.459
 6571TIP3    H219720   3.743   1.061   3.482
 6572TIP3   OH219721   3.795   2.135   2.676
 6572TIP3    H119722   3.881   2.101   2.653
 6572TIP3    H219723   3.797   2.145   2.771
 6573TIP3   OH219724   0.161   4.105   0.553
 6573TIP3    H119725   0.170   4.020   0.595
 6573TIP3    H219726   0.243   4.150   0.572
 6574TIP3   OH219727   4.501   3.924   1.738
 6574TIP3    H119728   4.587   3.965   1.732
 6574TIP3    H219729   4.515   3.833   1.710
 6575TIP3   OH219730   4.930   4.275   4.467
 6575TIP3    H119731   4.934   4.346   4.403
 6575TIP3    H219732   4.896   4.200   4.417
 6576TIP3   OH219733   5.489   4.102   0.290
 6576TIP3    H119734   5.451   4.060   0.213
 6576TIP3    H219735   5.473   4.196   0.276
 6577TIP3   OH219736   3.194   5.599   0.193
 6577TIP3    H119737   3.119   5.656   0.208
 6577TIP3    H219738   3.179   5.562   0.106
 6578TIP3   OH219739   3.172   0.884   2.036
 6578TIP3    H119740   3.258   0.922   2.017
 6578TIP3    H219741   3.113   0.926   1.974
 6579TIP3   OH219742   2.279   4.730   0.290
 6579TIP3    H119743   2.194   4.764   0.261
 6579TIP3    H219744   2.312   4.681   0.215
 6580TIP3   OH219745   1.991   1.403   5.061
 6580TIP3    H119746   2.002   1.309   5.050
 6580TIP3    H219747   1.977   1.435   4.972
 6581TIP3   OH219748   3.352   0.130   0.060
 6581TIP3    H119749   3.336   0.069  -0.011
 6581TIP3    H219750   3.274   0.187   0.061
 6582TIP3   OH219751   4.244   2.428   4.398
 6582TIP3    H119752   4.229   2.519   4.371
 6582TIP3    H219753   4.267   2.383   4.317
 6583TIP3   OH219754   6.149   4.268   3.620
 6583TIP3    H119755   6.233   4.222   3.629
 6583TIP3    H219756   6.132   4.268   3.526
 6584TIP3   OH219757   5.094   1.249   4.882
 6584TIP3    H119758   5.087   1.343   4.863
 6584TIP3    H219759   5.099   1.245   4.977
 6585TIP3   OH219760   4.204   4.653   1.620
 6585TIP3    H119761   4.209   4.560   1.597
 6585TIP3    H219762   4.131   4.686   1.568
 6586TIP3   OH219763   2.391   1.260   2.292
 6586TIP3    H119764   2.344   1.335   2.330
 6586TIP3    H219765   2.483   1.288   2.291
 6587TIP3   OH219766   5.119   0.890   4.560
 6587TIP3    H119767   5.139   0.918   4.470
 6587TIP3    H219768   5.199   0.847   4.590
 6588TIP3   OH219769   5.132   0.266   0.276
 6588TIP3    H119770   5.190   0.212   0.330
 6588TIP3    H219771   5.180   0.347   0.262
 6589TIP3   OH219772   2.931   3.787   0.937
 6589TIP3    H119773   2.837   3.770   0.936
 6589TIP3    H219774   2.945   3.849   0.866
 6590TIP3   OH219775   4.124   4.452   3.024
 6590TIP3    H119776   4.175   4.388   2.975
 6590TIP3    H219777   4.188   4.495   3.081
 6591TIP3   OH219778   1.491   2.277   0.965
 6591TIP3    H119779   1.536   2.198   0.935
 6591TIP3    H219780   1.550   2.349   0.940
 6592TIP3   OH219781   2.584   1.734   4.520
 6592TIP3    H119782   2.496   1.729   4.558
 6592TIP3    H219783   2.635   1.783   4.584
 6593TIP3   OH219784   2.294   2.125   3.427
 6593TIP3    H119785   2.302   2.031   3.441
 6593TIP3    H219786   2.200   2.139   3.411
 6594TIP3   OH219787   2.648   2.387   2.317
 6594TIP3    H119788   2.686   2.299   2.323
 6594TIP3    H219789   2.573   2.377   2.259
 6595TIP3   OH219790   1.964   1.022   3.958
 6595TIP3    H119791   1.942   1.046   3.869
 6595TIP3    H219792   2.045   0.972   3.950
 6596TIP3   OH219793   1.366   0.255   1.339
 6596TIP3    H119794   1.311   0.181   1.365
 6596TIP3    H219795   1.389   0.238   1.248
 6597TIP3   OH219796   5.479   5.406   2.231
 6597TIP3    H119797   5.395   5.419   2.189
 6597TIP3    H219798   5.457   5.371   2.318
 6598TIP3   OH219799   6.274   2.329   0.210
 6598TIP3    H119800   6.341   2.302   0.147
 6598TIP3    H219801   6.281   2.267   0.282
 6599TIP3   OH219802   2.598   5.020   1.914
 6599TIP3    H119803   2.657   4.965   1.863
 6599TIP3    H219804   2.523   4.963   1.932
 6600TIP3   OH219805   1.131   1.082   1.527
 6600TIP3    H119806   1.147   1.016   1.595
 6600TIP3    H219807   1.155   1.165   1.568
 6601TIP3   OH219808   5.664   2.865   4.964
 6601TIP3    H119809   5.708   2.949   4.948
 6601TIP3    H219810   5.658   2.824   4.878
 6602TIP3   OH219811   2.105   4.622   1.483
 6602TIP3    H119812   2.016   4.613   1.518
 6602TIP3    H219813   2.118   4.717   1.478
 6603TIP3   OH219814   1.376   1.493   0.246
 6603TIP3    H119815   1.377   1.416   0.189
 6603TIP3    H219816   1.369   1.567   0.186
 6604TIP3   OH219817   0.794   4.891   3.615
 6604TIP3    H119818   0.797   4.832   3.539
 6604TIP3    H219819   0.730   4.851   3.674
 6605TIP3   OH219820   0.216   2.473   3.983
 6605TIP3    H119821   0.143   2.527   3.952
 6605TIP3    H219822   0.182   2.384   3.982
 6606TIP3   OH219823   1.525   1.629   1.962
 6606TIP3    H119824   1.455   1.576   1.925
 6606TIP3    H219825   1.547   1.692   1.893
 6607TIP3   OH219826   3.646   2.609   4.915
 6607TIP3    H119827   3.667   2.571   4.829
 6607TIP3    H219828   3.582   2.549   4.952
 6608TIP3   OH219829   2.675   5.108   3.080
 6608TIP3    H119830   2.734   5.128   3.007
 6608TIP3    H219831   2.645   5.019   3.061
 6609TIP3   OH219832   3.514   3.195   4.047
 6609TIP3    H119833   3.483   3.278   4.010
 6609TIP3    H219834   3.480   3.128   3.988
 6610TIP3   OH219835   6.309   1.893   4.096
 6610TIP3    H119836   6.264   1.809   4.108
 6610TIP3    H219837   6.245   1.949   4.054
 6611TIP3   OH219838   2.944   0.728   4.496
 6611TIP3    H119839   2.906   0.641   4.506
 6611TIP3    H219840   2.943   0.745   4.402
 6612TIP3   OH219841   4.456   5.440   4.630
 6612TIP3    H119842   4.364   5.445   4.605
 6612TIP3    H219843   4.467   5.352   4.665
 6613TIP3   OH219844   5.469   2.569   2.616
 6613TIP3    H119845   5.534   2.619   2.566
 6613TIP3    H219846   5.459   2.487   2.566
 6614TIP3   OH219847   6.336   2.335   2.196
 6614TIP3    H119848   6.365   2.405   2.138
 6614TIP3    H219849   6.401   2.334   2.266
 6615TIP3   OH219850   6.171   4.243   3.347
 6615TIP3    H119851   6.114   4.207   3.280
 6615TIP3    H219852   6.242   4.180   3.356
 6616TIP3   OH219853   4.628   1.894   4.288
 6616TIP3    H119854   4.566   1.922   4.220
 6616TIP3    H219855   4.677   1.973   4.309
 6617TIP3   OH219856   1.614   0.855   1.959
 6617TIP3    H119857   1.613   0.762   1.983
 6617TIP3    H219858   1.594   0.900   2.041
 6618TIP3   OH219859   0.892   0.231   4.876
 6618TIP3    H119860   0.871   0.228   4.970
 6618TIP3    H219861   0.824   0.287   4.839
 6619TIP3   OH219862   6.173   4.603   1.686
 6619TIP3    H119863   6.079   4.593   1.673
 6619TIP3    H219864   6.185   4.697   1.703
 6620TIP3   OH219865   2.578   0.284   2.744
 6620TIP3    H119866   2.525   0.237   2.680
 6620TIP3    H219867   2.644   0.330   2.691
 6621TIP3   OH219868   4.384   3.444   1.180
 6621TIP3    H119869   4.448   3.409   1.242
 6621TIP3    H219870   4.437   3.485   1.111
 6622TIP3   OH219871   2.817   3.152   2.484
 6622TIP3    H119872   2.862   3.206   2.419
 6622TIP3    H219873   2.831   3.198   2.567
 6623TIP3   OH219874   5.893   5.558   2.927
 6623TIP3    H119875   5.799   5.570   2.918
 6623TIP3    H219876   5.913   5.590   3.016
 6624TIP3   OH219877   4.341   5.790   3.707
 6624TIP3    H119878   4.332   5.881   3.736
 6624TIP3    H219879   4.265   5.776   3.651
 6625TIP3   OH219880   4.099   0.802   1.755
 6625TIP3    H119881   4.092   0.709   1.775
 6625TIP3    H219882   4.130   0.805   1.664
 6626TIP3   OH219883   0.851   5.549   0.109
 6626TIP3    H119884   0.946   5.554   0.096
 6626TIP3    H219885   0.841   5.487   0.181
 6627TIP3   OH219886   3.189   5.724   5.153
 6627TIP3    H119887   3.120   5.660   5.165
 6627TIP3    H219888   3.265   5.673   5.126
 6628TIP3   OH219889   6.055   2.751   2.192
 6628TIP3    H119890   6.030   2.682   2.254
 6628TIP3    H219891   5.994   2.822   2.210
 6629TIP3   OH219892   2.284  -0.013   3.532
 6629TIP3    H119893   2.288   0.071   3.488
 6629TIP3    H219894   2.342  -0.004   3.607
 6630TIP3   OH219895   2.367   4.258   1.795
 6630TIP3    H119896   2.444   4.267   1.739
 6630TIP3    H219897   2.354   4.163   1.803
 6631TIP3   OH219898   0.436   0.141   3.481
 6631TIP3    H119899   0.392   0.080   3.421
 6631TIP3    H219900   0.383   0.136   3.561
 6632TIP3   OH219901   1.884   4.445   2.092
 6632TIP3    H119902   1.873   4.488   2.177
 6632TIP3    H219903   1.813   4.381   2.087
 6633TIP3   OH219904   5.645   3.579   4.866
 6633TIP3    H119905   5.552   3.558   4.858
 6633TIP3    H219906   5.665   3.563   4.958
 6634TIP3   OH219907   5.922   0.423   2.289
 6634TIP3    H119908   5.896   0.471   2.211
 6634TIP3    H219909   6.015   0.441   2.299
 6635TIP3   OH219910   0.517   0.765   4.903
 6635TIP3    H119911   0.438   0.712   4.911
 6635TIP3    H219912   0.522   0.814   4.985
 6636TIP3   OH219913   3.741   3.546   2.472
 6636TIP3    H119914   3.811   3.567   2.534
 6636TIP3    H219915   3.781   3.484   2.411
 6637TIP3   OH219916   4.330   1.735   1.724
 6637TIP3    H119917   4.351   1.799   1.656
 6637TIP3    H219918   4.289   1.663   1.677
 6638TIP3   OH219919   3.429   5.956   4.127
 6638TIP3    H119920   3.450   6.049   4.122
 6638TIP3    H219921   3.434   5.935   4.221
 6639TIP3   OH219922   1.658   0.195   0.217
 6639TIP3    H119923   1.634   0.285   0.195
 6639TIP3    H219924   1.599   0.140   0.165
 6640TIP3   OH219925   5.050   1.810   2.397
 6640TIP3    H119926   5.059   1.798   2.303
 6640TIP3    H219927   5.116   1.752   2.435
 6641TIP3   OH219928   5.643   1.772   0.966
 6641TIP3    H119929   5.636   1.839   1.034
 6641TIP3    H219930   5.553   1.748   0.945
 6642TIP3   OH219931   0.961   5.237   5.164
 6642TIP3    H119932   1.015   5.269   5.236
 6642TIP3    H219933   1.020   5.180   5.114
 6643TIP3   OH219934   2.554   0.981   2.959
 6643TIP3    H119935   2.593   0.903   2.920
 6643TIP3    H219936   2.475   0.949   3.003
 6644TIP3   OH219937   5.251   1.818   4.337
 6644TIP3    H119938   5.328   1.839   4.390
 6644TIP3    H219939   5.210   1.744   4.383
 6645TIP3   OH219940   1.753   1.490   4.606
 6645TIP3    H119941   1.785   1.566   4.557
 6645TIP3    H219942   1.821   1.423   4.592
   6.34654   5.98358   5.18193   0.00000   0.00000  -2.11552   0.00000  -2.11552  -2.99179
