Title
44502
    1GLY      N    1   1.814   5.190   1.134  0.7854  0.8131 -0.2565
    1GLY    HT1    2   1.831   5.292   1.142  1.8504  0.6132  0.2176
    1GLY    HT2    3   1.836   5.166   1.035 -0.1519 -0.7756 -0.1067
    1GLY    HT3    4   1.889   5.149   1.193  0.4985 -2.9906 -2.1667
    1GLY     CA    5   1.666   5.166   1.179  0.2105  0.1638  0.3306
    1GLY    HA1    6   1.654   5.063   1.148  1.9094 -0.1151  0.4721
    1GLY    HA2    7   1.600   5.238   1.135 -0.0567 -0.4794 -0.3282
    1GLY      C    8   1.647   5.179   1.328 -0.1381 -0.4974 -0.0006
    1GLY      O    9   1.738   5.219   1.404  0.3694 -0.0768  0.1296
    2PRO      N   10   1.534   5.141   1.376 -0.2215  0.6401  0.6462
    2PRO     CD   11   1.418   5.111   1.293  0.4964  0.5907 -0.3554
    2PRO    HD1   12   1.442   5.045   1.207  0.2165  0.2858 -0.2006
    2PRO    HD2   13   1.386   5.209   1.250  0.5807  0.7023 -0.1633
    2PRO     CA   14   1.502   5.138   1.516  0.2276 -0.5232  0.0788
    2PRO     HA   15   1.481   5.240   1.543 -0.2365 -1.1698  2.2894
    2PRO     CB   16   1.374   5.051   1.522  0.4587  0.6394  0.3117
    2PRO    HB1   17   1.317   5.084   1.611 -1.0049  2.1782 -1.1353
    2PRO    HB2   18   1.403   4.947   1.546  0.6741  0.8753  1.1058
    2PRO     CG   19   1.309   5.066   1.390  0.3951  0.2385  0.5332
    2PRO    HG1   20   1.262   4.971   1.355  0.6188 -0.2720  1.5886
    2PRO    HG2   21   1.233   5.147   1.389 -0.5121 -0.5852 -0.4457
    2PRO      C   22   1.605   5.096   1.619  0.1207 -0.0603 -0.0141
    2PRO      O   23   1.672   4.991   1.598 -0.0587 -0.1643 -0.6952
    3GLY      N   24   1.632   5.176   1.722 -0.2887 -0.2805 -0.2014
    3GLY     HN   25   1.571   5.254   1.732 -0.7172 -0.1905 -2.9136
    3GLY     CA   26   1.722   5.145   1.831 -0.8054  0.1801  0.2455
    3GLY    HA1   27   1.759   5.044   1.824  1.0614  0.8668 -0.7045
    3GLY    HA2   28   1.674   5.176   1.923  0.2343  0.2922  0.7758
    3GLY      C   29   1.851   5.225   1.820 -0.1611 -0.0986 -0.0436
    3GLY      O   30   1.966   5.191   1.850 -0.6357  0.2608  0.2729
    4ASN      N   31   1.837   5.353   1.776  1.2400  0.4684  0.0116
    4ASN     HN   32   1.744   5.384   1.759  1.0213 -0.8628 -1.3688
    4ASN     CA   33   1.947   5.441   1.749 -0.2406  0.2353 -0.3827
    4ASN     HA   34   2.027   5.386   1.701 -1.0268 -0.6663 -0.6747
    4ASN     CB   35   1.890   5.551   1.663  0.7373 -0.1941  0.5986
    4ASN    HB1   36   1.813   5.618   1.707  0.6744 -0.2187  0.5266
    4ASN    HB2   37   1.839   5.501   1.578 -1.6806 -0.3941  2.0798
    4ASN     CG   38   1.995   5.642   1.615  0.0551  0.4807 -0.2193
    4ASN    OD1   39   2.017   5.751   1.671  0.2977  0.1301  0.0236
    4ASN    ND2   40   2.073   5.600   1.511  0.0283 -0.6553  0.1063
    4ASN   HD21   41   2.157   5.641   1.475  0.1368 -0.0384  1.0221
    4ASN   HD22   42   2.039   5.515   1.471  3.3347 -2.3026  0.4820
    4ASN      C   43   2.004   5.508   1.877  0.7938 -0.5341  0.3432
    4ASN      O   44   1.918   5.534   1.964  0.0514 -0.1365  0.4200
    5PRO      N   45   2.133   5.530   1.901 -0.5830  0.4001 -0.4611
    5PRO     CD   46   2.244   5.497   1.814  0.1710 -0.4330  0.0433
    5PRO    HD1   47   2.258   5.584   1.746 -0.9948  2.1649  2.8693
    5PRO    HD2   48   2.229   5.397   1.768  0.4273 -0.0157 -0.9764
    5PRO     CA   49   2.174   5.567   2.030 -0.1906  0.7778 -0.0104
    5PRO     HA   50   2.098   5.547   2.105 -1.4631  2.7481 -0.7083
    5PRO     CB   51   2.300   5.475   2.044 -0.4644 -0.4933  0.1750
    5PRO    HB1   52   2.263   5.370   2.053  1.0716 -1.3376 -2.4684
    5PRO    HB2   53   2.352   5.510   2.136 -1.6231 -0.8928  1.0174
    5PRO     CG   54   2.364   5.511   1.912 -0.2548  0.2890  0.1940
    5PRO    HG1   55   2.416   5.609   1.919 -0.9612  0.5606  2.4497
    5PRO    HG2   56   2.433   5.433   1.873  1.6857  2.4011 -0.8313
    5PRO      C   57   2.203   5.718   2.033  0.4501  0.0364 -0.5015
    5PRO      O   58   2.272   5.765   2.127 -1.1159  0.8798 -0.2960
    6GLY      N   59   2.141   5.805   1.953  0.8591  0.4103  0.7238
    6GLY     HN   60   2.080   5.770   1.882 -1.2594  2.0059  1.6413
    6GLY     CA   61   2.174   5.945   1.953 -0.6870 -0.2467  0.3184
    6GLY    HA1   62   2.169   5.981   2.055 -1.3644  1.4099 -0.2696
    6GLY    HA2   63   2.099   5.987   1.888 -0.4260 -0.9062 -0.4180
    6GLY      C   64   2.312   5.983   1.897 -0.4947  0.3473 -0.4201
    6GLY      O   65   2.388   5.891   1.861  0.7272 -0.1158 -0.0521
    7PRO      N   66   2.354   6.112   1.894  0.3982 -0.3389  0.0340
    7PRO     CD   67   2.254   6.216   1.923 -0.4880 -0.4529  0.6840
    7PRO    HD1   68   2.240   6.226   2.032 -1.2002  1.1316  0.4749
    7PRO    HD2   69   2.154   6.204   1.875 -0.3698 -2.8406  0.9130
    7PRO     CA   70   2.486   6.167   1.878  0.3875  0.1890  0.4378
    7PRO     HA   71   2.504   6.144   1.774 -1.1573 -1.3363  0.4682
    7PRO     CB   72   2.470   6.313   1.922 -0.4634 -0.1835 -0.0463
    7PRO    HB1   73   2.541   6.382   1.872  0.2555  1.0538  2.5146
    7PRO    HB2   74   2.478   6.324   2.032  0.2227  0.0247 -0.1126
    7PRO     CG   75   2.326   6.347   1.883  0.5720  0.4920  0.4816
    7PRO    HG1   76   2.284   6.438   1.930 -0.0497  0.4122  0.0814
    7PRO    HG2   77   2.327   6.360   1.773  0.8452  1.3978  0.5762
    7PRO      C   78   2.596   6.100   1.953 -0.3392 -0.0656  1.2917
    7PRO      O   79   2.568   6.047   2.059 -0.2280  0.7044  0.6366
    8GLY      N   80   2.717   6.092   1.902 -0.0931 -0.1239  0.4176
    8GLY     HN   81   2.742   6.141   1.819  1.0086  1.1251  1.4464
    8GLY     CA   82   2.825   6.011   1.971  0.3794  0.2749 -0.2562
    8GLY    HA1   83   2.897   5.983   1.896  0.2539  1.7203 -0.9533
    8GLY    HA2   84   2.781   5.926   2.020  0.1013  0.8498  0.5198
    8GLY      C   85   2.899   6.098   2.077 -0.3427  0.0757 -0.7280
    8GLY      O   86   2.892   6.219   2.077  0.0731 -0.2198 -0.7824
    9ASN      N   87   2.977   6.028   2.163  0.1147 -0.2093  0.1769
    9ASN     HN   88   2.996   5.931   2.149  1.4475 -0.0530  0.7086
    9ASN     CA   89   3.059   6.096   2.264  0.9645  0.2039 -0.1779
    9ASN     HA   90   3.004   6.179   2.307 -0.3053 -0.8748  0.3479
    9ASN     CB   91   3.094   5.998   2.378  0.2925 -0.2118 -0.1306
    9ASN    HB1   92   3.135   6.058   2.463 -0.9189 -0.6756  0.8043
    9ASN    HB2   93   3.178   5.935   2.341  0.5765  0.2577 -0.2854
    9ASN     CG   94   2.977   5.909   2.425 -0.6219 -0.4454 -0.7520
    9ASN    OD1   95   2.983   5.787   2.408 -0.2815  0.4110 -0.3962
    9ASN    ND2   96   2.874   5.965   2.495 -0.7981  0.4855  0.4827
    9ASN   HD21   97   2.800   5.907   2.529 -0.8681 -0.4794 -1.2046
    9ASN   HD22   98   2.870   6.065   2.487 -3.0965  0.3358 -1.9465
    9ASN      C   99   3.184   6.146   2.192  0.1701  0.1378 -0.3130
    9ASN      O  100   3.221   6.089   2.089 -0.8251  0.0325 -0.3802
   10PRO      N  101   3.246   6.251   2.240  0.0244 -0.2101  0.5899
   10PRO     CD  102   3.220   6.302   2.374 -0.1520  0.0446  0.3124
   10PRO    HD1  103   3.250   6.225   2.448  1.8861  0.8994  0.4493
   10PRO    HD2  104   3.115   6.336   2.387  0.5595  1.9043  1.6501
   10PRO     CA  105   3.321   6.345   2.160 -0.1989 -0.0338 -0.0078
   10PRO     HA  106   3.249   6.380   2.087 -2.6446 -1.7047  1.4467
   10PRO     CB  107   3.351   6.469   2.253  0.7124  0.7265 -0.0324
   10PRO    HB1  108   3.290   6.561   2.241  1.5253  1.2418 -0.2751
   10PRO    HB2  109   3.458   6.497   2.254  1.2612 -1.2676  0.3364
   10PRO     CG  110   3.323   6.415   2.395  0.1928  0.2374 -0.0294
   10PRO    HG1  111   3.411   6.357   2.430  1.0157 -0.7767 -3.4021
   10PRO    HG2  112   3.290   6.485   2.474  1.3542  1.9227 -0.9769
   10PRO      C  113   3.447   6.285   2.105  0.8805  0.6292  0.5799
   10PRO      O  114   3.485   6.327   1.995 -0.3680 -0.6609 -0.0310
   11GLY      N  115   3.523   6.193   2.169  0.6119  0.2038  0.6327
   11GLY     HN  116   3.481   6.149   2.248 -0.0116  0.5069  0.4750
   11GLY     CA  117   3.642   6.135   2.118  0.2626 -0.0425 -0.4296
   11GLY    HA1  118   3.706   6.128   2.205 -0.1189 -0.8331 -0.2050
   11GLY    HA2  119   3.680   6.202   2.042 -0.0318  1.6163  0.8110
   11GLY      C  120   3.602   6.001   2.060  0.4970 -0.0359 -0.2007
   11GLY      O  121   3.496   5.989   1.997 -0.0520  0.5039  0.6563
   12PRO      N  122   3.678   5.900   2.069  0.1576 -0.1503  0.2055
   12PRO     CD  123   3.811   5.914   2.125 -0.1322  0.2782 -0.8170
   12PRO    HD1  124   3.814   5.941   2.233  1.4640  1.7838 -1.1848
   12PRO    HD2  125   3.880   5.979   2.067 -1.3781  1.5204 -0.9256
   12PRO     CA  126   3.642   5.761   2.018  0.1071 -0.1751  0.1100
   12PRO     HA  127   3.589   5.766   1.924  1.4920  1.2308 -0.6320
   12PRO     CB  128   3.784   5.704   2.012 -0.7851  0.1580 -0.7630
   12PRO    HB1  129   3.824   5.738   1.914 -1.1034  2.5384 -0.1244
   12PRO    HB2  130   3.790   5.593   2.011  0.2766  0.1631  1.2444
   12PRO     CG  131   3.864   5.773   2.130 -0.6432 -0.5900  0.2566
   12PRO    HG1  132   3.829   5.719   2.221 -2.4394  0.4298  0.2085
   12PRO    HG2  133   3.975   5.766   2.124 -0.4012  2.0172  0.7102
   12PRO      C  134   3.563   5.689   2.122 -0.0219  0.5097 -0.8336
   12PRO      O  135   3.597   5.579   2.161  0.1185  0.1043 -0.0638
   13GLY      N  136   3.461   5.751   2.172 -0.2297  0.3985 -0.5157
   13GLY     HN  137   3.454   5.843   2.133 -0.9775  0.3291 -0.5461
   13GLY     CA  138   3.375   5.711   2.282 -0.5184  0.4404 -0.0507
   13GLY    HA1  139   3.296   5.645   2.249 -0.7160 -0.1426  1.4762
   13GLY    HA2  140   3.336   5.803   2.324  1.5298 -0.1443  3.5479
   13GLY      C  141   3.441   5.640   2.397 -0.2846  0.3557 -0.2931
   13GLY      O  142   3.539   5.679   2.454  0.6173 -0.1040 -0.0656
   14ASN      N  143   3.377   5.526   2.437  0.2558 -0.3558 -0.0422
   14ASN     HN  144   3.290   5.494   2.399  0.0597  0.6287 -0.4524
   14ASN     CA  145   3.424   5.445   2.549  0.1431 -0.6475 -0.3418
   14ASN     HA  146   3.532   5.447   2.547  0.1547 -1.1670 -2.4465
   14ASN     CB  147   3.357   5.489   2.680 -0.4965 -0.7081 -0.0641
   14ASN    HB1  148   3.362   5.410   2.759 -0.6316 -1.3840 -0.7146
   14ASN    HB2  149   3.249   5.503   2.657 -0.7429 -0.2743  1.2589
   14ASN     CG  150   3.421   5.613   2.753  0.5015  0.3392  1.2401
   14ASN    OD1  151   3.345   5.710   2.768 -0.0582  0.0022 -0.2797
   14ASN    ND2  152   3.557   5.615   2.772  0.1497  0.8887  0.0385
   14ASN   HD21  153   3.585   5.695   2.826 -0.1945  0.0674  1.4649
   14ASN   HD22  154   3.616   5.534   2.775  2.5703  2.5666  2.3323
   14ASN      C  155   3.387   5.299   2.513  0.2145 -0.3399  0.1367
   14ASN      O  156   3.291   5.278   2.437  0.0887  0.5114  0.1544
   15PRO      N  157   3.449   5.200   2.571  0.2326  0.0511 -0.6528
   15PRO     CD  158   3.583   5.194   2.633 -0.0135 -0.3490 -0.3760
   15PRO    HD1  159   3.576   5.222   2.740  2.5309 -0.8533 -0.0095
   15PRO    HD2  160   3.653   5.267   2.587  0.0676 -1.1035 -1.4967
   15PRO     CA  161   3.397   5.065   2.539  0.1019 -0.3673 -0.4513
   15PRO     HA  162   3.386   5.060   2.431  1.5090 -2.5489 -0.5648
   15PRO     CB  163   3.503   4.972   2.597 -0.3629  0.0568  0.1149
   15PRO    HB1  164   3.516   4.881   2.534 -0.1014  0.5695 -0.5856
   15PRO    HB2  165   3.482   4.948   2.703 -3.4066  2.3697  0.1576
   15PRO     CG  166   3.633   5.055   2.605  0.4380  0.6828 -0.1603
   15PRO    HG1  167   3.697   5.018   2.688 -0.8871  1.0864  1.0900
   15PRO    HG2  168   3.695   5.052   2.513 -1.9587  0.5646 -1.8312
   15PRO      C  169   3.257   5.034   2.602  0.0918  0.7423 -0.0413
   15PRO    OT1  170   3.162   4.998   2.528 -0.3429 -0.0478 -0.0239
   15PRO    OT2  171   3.239   5.035   2.725 -0.0114  0.0327  0.0608
   16SOD    SOD  172   4.935   4.795   4.688  0.0835 -0.3208 -0.1791
   17SOD    SOD  173   4.519   4.156   2.049 -0.6646 -0.0852 -0.2520
   18SOD    SOD  174   3.753   4.281   5.936  0.3815  0.3295  0.3239
   19SOD    SOD  175   2.966   7.110   2.865  0.6544  0.0931 -0.3812
   20SOD    SOD  176   4.131   3.852   5.836  0.1881  0.0413 -0.0143
   21SOD    SOD  177   0.341   4.010   5.262  0.0646  0.0474 -0.2468
   22SOD    SOD  178   3.516   6.872   3.299  0.5404  0.0794 -0.2189
   23SOD    SOD  179   5.322   1.471   1.714  0.2777  0.3020  0.2689
   24SOD    SOD  180   7.102   3.536   6.726 -0.2807  0.1971  0.6915
   25SOD    SOD  181   1.623   4.231   5.922  0.7955 -0.2068 -0.2074
   26SOD    SOD  182   3.165   6.846   1.376 -0.4778  0.1658  0.5707
   27SOD    SOD  183   2.919   2.597   6.261  0.1047 -0.3166  0.2187
   28SOD    SOD  184   7.806   3.188   2.239 -0.0941  0.3974  0.4114
   29SOD    SOD  185   0.773   4.094   4.151  0.0353  0.1001 -0.1801
   30SOD    SOD  186   6.161   5.961   0.179  0.3234 -0.1128 -0.2390
   31SOD    SOD  187   3.238   3.394   0.720 -0.0477 -0.2473  0.0730
   32SOD    SOD  188   2.721   6.224   3.363  0.0122 -0.5077  0.3660
   33SOD    SOD  189   0.542   2.348   2.850  0.5504 -0.0784  0.4106
   34SOD    SOD  190   0.534   1.494   2.829  0.2925  0.4322  0.1767
   35SOD    SOD  191   5.791   2.552   2.397  0.8577  0.1537  0.0262
   36SOD    SOD  192   3.962   4.798   0.198 -0.0902  0.0175  0.2055
   37SOD    SOD  193   0.889   3.967   3.017  0.5761 -0.0977  0.1472
   38SOD    SOD  194   1.561   4.510   0.680 -0.4248  0.2186 -0.2475
   39SOD    SOD  195   7.284   6.259   4.602  0.0486 -0.0439 -0.0285
   40SOD    SOD  196   7.644   6.555   5.802  0.4643 -0.3406 -0.2343
   41SOD    SOD  197   4.526   6.549   4.507 -0.4041  0.8929 -0.1201
   42SOD    SOD  198   3.903   7.173   2.514  0.0078  0.4266 -0.3375
   43SOD    SOD  199   0.074   4.923   5.097  0.0946 -0.6201 -0.0594
   44SOD    SOD  200   6.674   2.538   1.298  0.2876  0.0930  0.4523
   45SOD    SOD  201   7.634   3.982   1.405  0.0128  0.1835 -0.1982
   46SOD    SOD  202   2.879   5.020   5.393 -0.1932 -0.3039  0.4411
   47SOD    SOD  203   6.717   1.601   1.659  0.2317 -0.1036  0.3841
   48SOD    SOD  204   7.809   0.086   4.900  0.6787  0.6158  0.2928
   49SOD    SOD  205   5.642   5.206   1.285 -0.2524 -0.5230 -0.1905
   50SOD    SOD  206   6.463   7.111   0.346  0.1262  0.0510 -0.1006
   51SOD    SOD  207   2.460   2.570   4.270 -0.0760 -0.1814  0.1367
   52SOD    SOD  208   2.556   1.950   0.737 -0.4280  0.0470  0.1468
   53SOD    SOD  209   1.933   4.917   4.317  0.0564 -0.1489  0.0688
   54SOD    SOD  210   4.727   5.445   6.367  0.1837 -0.1598  0.2987
   55SOD    SOD  211   5.560   1.981   6.334 -0.2524 -0.4290 -0.0878
   56SOD    SOD  212   3.298   6.686   4.813  0.1878  0.0467  0.6440
   57SOD    SOD  213   7.059   6.000   3.542  0.0671 -0.4242  0.2272
   58CLA    CLA  214   7.132   5.135   4.294 -0.4890 -0.0287  0.0585
   59CLA    CLA  215   6.063   5.991   1.084 -0.1915  0.2150 -0.6781
   60CLA    CLA  216   3.249   4.480   5.846 -0.0103  0.1203 -0.2142
   61CLA    CLA  217   1.301   7.619   5.729  0.0639 -0.0430  0.5685
   62CLA    CLA  218   2.566   2.610   3.424 -0.3510 -0.1905  0.0888
   63CLA    CLA  219   1.503   2.367   4.420 -0.0828  0.2288  0.3523
   64CLA    CLA  220   6.820   4.588   3.082  0.2701 -0.1464  0.5041
   65CLA    CLA  221   2.073   7.287   0.434 -0.3419  0.3544  0.3906
   66CLA    CLA  222   4.993   1.390   6.346 -0.1497 -0.2671 -0.1084
   67CLA    CLA  223   7.855   3.928   2.058 -0.1570  0.3222 -0.0728
   68CLA    CLA  224   1.732   6.455   6.448  0.0356  0.0670 -0.2306
   69CLA    CLA  225   0.686   2.510   4.023  0.1203 -0.1758  0.4522
   70CLA    CLA  226   3.829   4.669   3.829  0.1660 -0.4607 -0.1589
   71CLA    CLA  227   4.366   7.282   3.522  0.0513 -0.1334  0.0597
   72CLA    CLA  228   7.290   5.829   0.609 -0.2901 -0.3590  0.1775
   73CLA    CLA  229   4.980   4.311   5.467  0.2864  0.0158 -0.2739
   74CLA    CLA  230   2.116   5.317   4.274  0.4553 -0.1800 -0.1169
   75CLA    CLA  231   8.265   7.182   2.309  0.1479 -0.2223 -0.0417
   76CLA    CLA  232   3.543   3.029   5.392 -0.4830  0.0785  0.5748
   77CLA    CLA  233   2.336   3.195   1.799  0.2028 -0.0644  0.2318
   78CLA    CLA  234   3.358   3.431   6.648 -0.1772 -0.0766  0.1563
   79CLA    CLA  235   7.288   4.758   6.349  0.3527  0.1302  0.0154
   80CLA    CLA  236   0.307   0.366   6.151  0.2529 -0.1907 -0.0270
   81CLA    CLA  237   3.143   5.072   5.378 -0.0409  0.3794 -0.1176
   82CLA    CLA  238   1.650   4.742   0.289  0.3437  0.1825 -0.5011
   83CLA    CLA  239   1.586   1.716   5.262 -0.2725 -0.1267 -0.3470
   84CLA    CLA  240   2.153   2.733   0.583 -0.3210  0.3230 -0.0515
   85CLA    CLA  241   1.779   0.422   2.935  0.3232 -0.0123 -0.0675
   86CLA    CLA  242   1.748   4.931   4.515  0.0913  0.2156 -0.0389
   87CLA    CLA  243   5.002   0.667   3.622  0.0162 -0.0405 -0.0428
   88CLA    CLA  244   4.522   6.188   3.807  0.3366 -0.4074 -0.0935
   89CLA    CLA  245   3.326   6.990   3.145  0.1089  0.0411  0.1516
   90CLA    CLA  246   1.863   5.943   3.224 -0.0990 -0.3823  0.1843
   91CLA    CLA  247   2.275   3.649   1.916  0.6936  0.1187 -0.2539
   92CLA    CLA  248   8.232   1.837   5.764 -0.0281 -0.4087 -0.2967
   93CLA    CLA  249   6.452   5.325   5.290 -0.0446 -0.1443 -0.2368
   94CLA    CLA  250   5.518   7.432   4.063 -0.1185  0.0117  0.1973
   95CLA    CLA  251   1.834   3.693   6.407  0.3894 -0.0156  0.1408
   96CLA    CLA  252   6.140   5.073   1.299  0.0353  0.0995  0.1641
   97CLA    CLA  253   2.835   0.553   5.365 -0.3479  0.1445 -0.1147
   98CLA    CLA  254   5.984   3.199   1.203 -0.2576  0.2340 -0.1691
   99CLA    CLA  255   3.358   4.945   4.717 -0.3428  0.1260 -0.5363
  100TIP3   OH2  256   1.306   3.610   3.976  0.2258 -0.2814  0.2864
  100TIP3    H1  257   1.346   3.530   3.941 -0.8261 -0.5644 -0.3233
  100TIP3    H2  258   1.333   3.613   4.067 -0.1467 -1.6346  0.4663
  101TIP3   OH2  259   0.512   3.803   4.106 -0.0575  0.4002  0.1868
  101TIP3    H1  260   0.552   3.722   4.074 -1.0071  1.0466 -2.9111
  101TIP3    H2  261   0.560   3.873   4.062 -1.5907  1.3530 -0.0584
  102TIP3   OH2  262   3.583   6.204   1.335 -0.1850 -0.2791  0.2662
  102TIP3    H1  263   3.573   6.117   1.373 -0.0743 -0.6092 -0.4369
  102TIP3    H2  264   3.532   6.201   1.254 -1.7322  0.9270  1.1521
  103TIP3   OH2  265   5.440   0.878   1.539 -0.0964  0.3937 -0.2935
  103TIP3    H1  266   5.403   0.829   1.466  0.5067 -1.1917  0.4162
  103TIP3    H2  267   5.530   0.895   1.513 -0.2977  1.1149 -0.5262
  104TIP3   OH2  268   7.100   7.137   0.115  0.0225  0.5528 -0.1758
  104TIP3    H1  269   7.188   7.157   0.147 -0.5380  3.3560 -0.1685
  104TIP3    H2  270   7.050   7.117   0.194 -0.1344  2.4569  0.2650
  105TIP3   OH2  271   1.350   3.498   3.298 -0.1357 -0.4221  0.3128
  105TIP3    H1  272   1.433   3.488   3.344  0.9202  0.6609 -1.2657
  105TIP3    H2  273   1.367   3.467   3.209 -0.8811  1.4434 -0.5299
  106TIP3   OH2  274   5.192   3.552   3.621  0.1596  0.2213  0.2103
  106TIP3    H1  275   5.218   3.600   3.543 -0.8610  0.5233  0.0345
  106TIP3    H2  276   5.273   3.518   3.657  0.6611  0.2010 -0.9032
  107TIP3   OH2  277   4.283   6.560   2.276 -0.9247  0.1807 -0.0669
  107TIP3    H1  278   4.325   6.479   2.246  0.1099  0.6584  0.0783
  107TIP3    H2  279   4.302   6.563   2.370 -2.0622 -0.0523  0.1851
  108TIP3   OH2  280   6.976   5.208   3.750 -0.2407 -0.2357 -0.0042
  108TIP3    H1  281   6.990   5.178   3.840 -0.3716  0.4979  0.2637
  108TIP3    H2  282   6.969   5.303   3.757 -0.1443 -0.1631 -0.8070
  109TIP3   OH2  283   6.385   4.712   5.728 -0.0190  0.0800 -0.0060
  109TIP3    H1  284   6.340   4.795   5.738 -0.2136 -0.0393  0.1188
  109TIP3    H2  285   6.403   4.683   5.818 -0.1232 -0.1053 -0.0444
  110TIP3   OH2  286   4.964   3.530   0.965 -0.4356  0.3918  0.1375
  110TIP3    H1  287   4.968   3.517   1.060  0.9405  0.0188  0.0504
  110TIP3    H2  288   4.962   3.625   0.954 -0.6650  0.4356  0.5369
  111TIP3   OH2  289   8.092   3.812   4.668 -0.0098  0.0646 -0.2855
  111TIP3    H1  290   8.027   3.745   4.687  0.6517 -0.6903 -0.6533
  111TIP3    H2  291   8.171   3.782   4.713  0.2432  0.6961 -0.2962
  112TIP3   OH2  292   3.404   6.640   3.358 -0.3529 -0.1371  0.6259
  112TIP3    H1  293   3.392   6.553   3.320  0.2458  0.4980 -1.0843
  112TIP3    H2  294   3.439   6.622   3.446  1.6871 -1.6055 -0.4133
  113TIP3   OH2  295   7.446   2.466   2.223 -0.0367  0.1243 -0.3293
  113TIP3    H1  296   7.462   2.525   2.150  1.4826  1.0285  0.6906
  113TIP3    H2  297   7.374   2.506   2.272 -1.7425 -0.9856 -1.7844
  114TIP3   OH2  298   1.585   4.928   0.546  0.0571  0.4209  0.4105
  114TIP3    H1  299   1.601   4.867   0.475 -0.0270  0.2392  0.5489
  114TIP3    H2  300   1.501   4.902   0.583 -0.1818  0.8773  0.2030
  115TIP3   OH2  301   5.927   1.412   1.368  0.2847  0.9753  0.3108
  115TIP3    H1  302   5.977   1.412   1.286 -0.2995  2.3682 -0.0772
  115TIP3    H2  303   5.864   1.483   1.357 -2.0540 -0.9117  0.6147
  116TIP3   OH2  304   3.089   1.346   2.257  0.3680 -0.6813  0.7198
  116TIP3    H1  305   3.064   1.292   2.332 -1.9917 -1.0165 -0.2319
  116TIP3    H2  306   3.006   1.379   2.222  1.5491  1.3989 -0.3560
  117TIP3   OH2  307   0.103   3.246   6.096  0.4578  0.2627 -0.2982
  117TIP3    H1  308   0.108   3.253   6.192  2.3779  0.2418 -0.3744
  117TIP3    H2  309   0.192   3.260   6.066  0.4452 -2.4680 -1.9207
  118TIP3   OH2  310   5.539   0.311   2.752  0.7681 -0.5269 -0.5558
  118TIP3    H1  311   5.476   0.383   2.757 -1.6867 -2.6315  1.3081
  118TIP3    H2  312   5.624   0.354   2.765 -0.6123  2.0077  1.1792
  119TIP3   OH2  313   4.733   4.645   0.762 -0.2666 -0.3630  0.2075
  119TIP3    H1  314   4.741   4.657   0.857 -0.9091  0.3942  0.1823
  119TIP3    H2  315   4.823   4.629   0.732  0.0102 -0.1222  0.8866
  120TIP3   OH2  316   7.984   7.375   6.373  0.2665  0.8401 -0.4765
  120TIP3    H1  317   7.984   7.294   6.322  1.4138  1.0886 -0.9089
  120TIP3    H2  318   7.892   7.402   6.377 -0.2654 -0.9909  0.5154
  121TIP3   OH2  319   6.889   0.389   1.086  0.7287 -0.5229  0.1798
  121TIP3    H1  320   6.937   0.309   1.066  0.3238 -0.1647 -2.6174
  121TIP3    H2  321   6.797   0.365   1.076  0.5944  0.2105 -0.4188
  122TIP3   OH2  322   5.932   1.580   2.390  0.1078 -0.3762 -0.1562
  122TIP3    H1  323   5.958   1.539   2.472  1.0303  1.8923  0.7463
  122TIP3    H2  324   5.995   1.546   2.325  0.4033 -0.9033  0.3949
  123TIP3   OH2  325   4.367   2.145   1.681  0.1368  0.1760  0.3645
  123TIP3    H1  326   4.454   2.120   1.650  0.6685  0.7286  1.3610
  123TIP3    H2  327   4.380   2.166   1.773 -1.2187 -0.5660  0.7544
  124TIP3   OH2  328   1.505   4.037   3.543  0.2527 -0.1453  0.3953
  124TIP3    H1  329   1.475   3.993   3.464 -0.4841  0.1507  0.5058
  124TIP3    H2  330   1.566   3.974   3.583 -0.3584 -0.8356  0.2656
  125TIP3   OH2  331   4.035   0.644   4.616 -0.6410 -0.1279 -0.3364
  125TIP3    H1  332   4.039   0.638   4.521  0.8151  2.8985 -0.5641
  125TIP3    H2  333   3.975   0.717   4.633 -1.3232 -0.9719  1.1340
  126TIP3   OH2  334   5.244   7.349   3.329  0.7023  0.5841 -0.2274
  126TIP3    H1  335   5.264   7.276   3.270  2.2674 -0.3015  1.3279
  126TIP3    H2  336   5.193   7.310   3.399  0.3731  1.2767 -0.0693
  127TIP3   OH2  337   3.325   1.109   6.649 -0.0477  0.3326 -0.2744
  127TIP3    H1  338   3.279   1.030   6.624 -0.4713  0.3652  0.3830
  127TIP3    H2  339   3.383   1.082   6.720 -0.2570  0.6295  0.0127
  128TIP3   OH2  340   1.698   7.591   3.206 -0.4870  0.0973 -0.2563
  128TIP3    H1  341   1.775   7.635   3.170 -1.2416  1.4662 -0.2459
  128TIP3    H2  342   1.711   7.498   3.184  1.8361  0.0614  0.9634
  129TIP3   OH2  343   5.704   4.128   2.030  0.0628 -0.1242  0.4954
  129TIP3    H1  344   5.676   4.174   1.950  1.6912  1.0146  0.5343
  129TIP3    H2  345   5.635   4.148   2.094  0.0226  1.1108  0.0968
  130TIP3   OH2  346   7.051   0.625   2.532  0.5218 -0.8670  0.5814
  130TIP3    H1  347   7.111   0.653   2.602  0.9194  1.3099 -0.5509
  130TIP3    H2  348   7.088   0.542   2.501  1.2022 -1.0906  1.9145
  131TIP3   OH2  349   5.524  -0.011   4.363 -0.0174 -0.0629 -0.0081
  131TIP3    H1  350   5.524   0.076   4.402  1.4155 -1.3361  3.2304
  131TIP3    H2  351   5.440  -0.049   4.388  0.2171 -0.3022  0.4367
  132TIP3   OH2  352   6.676   3.161   2.160  0.3662  0.3720 -0.1846
  132TIP3    H1  353   6.712   3.214   2.231 -2.0944  1.4185  0.3753
  132TIP3    H2  354   6.598   3.208   2.132  1.0652 -0.1206 -3.4693
  133TIP3   OH2  355   5.879   7.272   2.583  0.0559 -0.1890  0.3752
  133TIP3    H1  356   5.909   7.352   2.539  1.2628  0.1125  1.6766
  133TIP3    H2  357   5.786   7.266   2.560 -0.1723  1.8153  0.5453
  134TIP3   OH2  358   5.477   1.221   6.132 -0.0113 -0.0654 -0.0188
  134TIP3    H1  359   5.461   1.247   6.042  1.2518 -0.3552 -0.3446
  134TIP3    H2  360   5.459   1.299   6.184 -0.2094  0.2613 -0.5767
  135TIP3   OH2  361   6.991   0.515   1.324  0.3174 -0.1200 -0.1479
  135TIP3    H1  362   6.967   0.492   1.234 -0.4703 -0.9136  0.2445
  135TIP3    H2  363   7.069   0.462   1.342  1.2020  0.9426 -0.7500
  136TIP3   OH2  364   1.111   0.317   1.254  0.2178  0.0247  0.2307
  136TIP3    H1  365   1.200   0.291   1.276  0.5354  0.9304  0.0480
  136TIP3    H2  366   1.062   0.306   1.336  1.1654  2.3821  1.1894
  137TIP3   OH2  367   8.101   4.340   6.543  0.3127 -0.2172 -0.3808
  137TIP3    H1  368   8.182   4.289   6.548  0.1293 -0.5408 -0.5948
  137TIP3    H2  369   8.129   4.429   6.526  0.6135 -0.3830 -0.7686
  138TIP3   OH2  370   7.704   2.550   1.017  0.1607  0.0721  0.3460
  138TIP3    H1  371   7.655   2.473   0.987  0.3038  0.6948 -1.5967
  138TIP3    H2  372   7.790   2.542   0.974 -0.4255  2.2135 -1.3996
  139TIP3   OH2  373   7.584   1.455   6.000 -0.2062  0.1148  0.2843
  139TIP3    H1  374   7.532   1.535   5.999  0.2420  0.4444  1.3405
  139TIP3    H2  375   7.635   1.458   5.919 -0.8885  0.4152 -0.1417
  140TIP3   OH2  376   6.500   1.708   3.153 -0.1174  0.3057  0.2693
  140TIP3    H1  377   6.592   1.698   3.176  0.5812 -0.3431 -2.4212
  140TIP3    H2  378   6.495   1.794   3.111 -0.1689 -0.6017 -1.7060
  141TIP3   OH2  379   1.757   3.868   6.155 -0.1037 -0.1714  0.3610
  141TIP3    H1  380   1.698   3.929   6.199 -0.4125 -0.7910  0.8310
  141TIP3    H2  381   1.795   3.817   6.226  1.8343  0.9203  0.1633
  142TIP3   OH2  382   6.574   3.296   5.494 -0.5121  0.3207  0.2044
  142TIP3    H1  383   6.510   3.253   5.551 -0.6890  0.1617 -0.1080
  142TIP3    H2  384   6.620   3.357   5.551 -1.3620  0.8851  0.3059
  143TIP3   OH2  385   3.016   6.111   6.427  0.6778  0.3789 -0.1766
  143TIP3    H1  386   2.926   6.082   6.410  0.6643 -0.6509  1.4319
  143TIP3    H2  387   3.070   6.044   6.386  0.6875  0.2307  0.0755
  144TIP3   OH2  388   4.440   5.467   5.565 -0.1982  0.5335  0.0743
  144TIP3    H1  389   4.356   5.475   5.611 -0.9380 -1.2402 -0.8380
  144TIP3    H2  390   4.454   5.552   5.524 -1.9550  0.6367 -0.3783
  145TIP3   OH2  391   4.524   2.691   0.414 -0.5929  0.1482 -0.4331
  145TIP3    H1  392   4.529   2.624   0.346 -1.6468  1.2654 -1.6704
  145TIP3    H2  393   4.443   2.672   0.461 -0.1022 -0.3449  0.2353
  146TIP3   OH2  394   3.945   2.158   5.362 -0.5759 -0.7465 -0.3012
  146TIP3    H1  395   3.975   2.224   5.299  0.8274  1.4490  2.4318
  146TIP3    H2  396   3.865   2.194   5.399  0.7130  0.0597  1.9149
  147TIP3   OH2  397   4.602   2.476   3.400 -0.2137 -0.2381  0.0523
  147TIP3    H1  398   4.648   2.424   3.335 -1.4194  0.5185 -1.4641
  147TIP3    H2  399   4.671   2.514   3.454  0.8121 -0.9484 -0.7273
  148TIP3   OH2  400   0.782   5.082   0.232 -0.0476 -0.0071  0.1584
  148TIP3    H1  401   0.693   5.065   0.204 -0.3155 -0.8900  1.4891
  148TIP3    H2  402   0.828   4.999   0.220  0.3613  0.1850  0.3581
  149TIP3   OH2  403   5.126   7.776   0.193 -0.2905  0.5644  0.4728
  149TIP3    H1  404   5.162   7.728   0.119 -1.2778 -1.1640  1.0681
  149TIP3    H2  405   5.032   7.775   0.179 -0.4133  1.1586  1.2050
  150TIP3   OH2  406   5.993   3.800   2.134 -0.5381 -0.4757 -0.3948
  150TIP3    H1  407   6.079   3.760   2.146 -0.1963  0.1968 -0.5118
  150TIP3    H2  408   6.010   3.876   2.078 -1.1583 -0.1501 -0.1511
  151TIP3   OH2  409   0.419   4.279   0.871  0.5486  0.1689 -0.1131
  151TIP3    H1  410   0.506   4.298   0.904  0.1328  1.1318  0.4672
  151TIP3    H2  411   0.370   4.360   0.885 -0.6545 -0.6050  0.2951
  152TIP3   OH2  412   2.105   5.452   0.809 -0.0617 -0.4119  0.2860
  152TIP3    H1  413   2.158   5.528   0.834 -1.6508  0.8496  0.0007
  152TIP3    H2  414   2.030   5.490   0.763 -1.2832 -2.1041  0.7981
  153TIP3   OH2  415   2.326   1.849   4.779 -0.1941  0.4287 -0.2082
  153TIP3    H1  416   2.306   1.858   4.873  1.8273 -0.6183  0.3837
  153TIP3    H2  417   2.337   1.755   4.766  1.7665  0.7277 -0.9673
  154TIP3   OH2  418   3.744   6.813   3.420  0.3610  0.1782  0.2788
  154TIP3    H1  419   3.762   6.894   3.468  0.0011 -0.1566  0.9868
  154TIP3    H2  420   3.808   6.750   3.454 -1.4622 -0.7784  2.1929
  155TIP3   OH2  421   5.617   4.622   3.653  0.5304 -0.3903  0.6113
  155TIP3    H1  422   5.552   4.584   3.712  1.3550  0.2471  1.9864
  155TIP3    H2  423   5.624   4.560   3.581  0.6980 -2.0651  2.0020
  156TIP3   OH2  424   3.321   0.772   6.779  0.0343 -0.0036  0.4244
  156TIP3    H1  425   3.304   0.678   6.772 -1.0707  0.2930 -1.2868
  156TIP3    H2  426   3.410   0.782   6.747  0.6972 -0.6014  1.9551
  157TIP3   OH2  427   2.691   5.714   4.566  0.0875 -0.3525  0.3439
  157TIP3    H1  428   2.762   5.759   4.613 -0.1990  1.0215 -0.4764
  157TIP3    H2  429   2.710   5.731   4.474 -1.5465  0.4293  0.1251
  158TIP3   OH2  430   4.201   6.239   2.428 -0.3745 -0.0631 -0.3381
  158TIP3    H1  431   4.187   6.163   2.485  2.0572 -0.6710 -0.4328
  158TIP3    H2  432   4.295   6.256   2.434 -0.9627  3.9211  0.8879
  159TIP3   OH2  433   4.522   1.640   1.316 -0.6981 -0.1291  0.3444
  159TIP3    H1  434   4.528   1.591   1.234 -0.7183 -1.8302  1.3084
  159TIP3    H2  435   4.435   1.620   1.349  0.1975 -1.5507  1.9941
  160TIP3   OH2  436   3.148   2.590   3.011 -0.1733  0.3804  0.3745
  160TIP3    H1  437   3.065   2.552   3.041 -1.8599  2.4571 -1.2267
  160TIP3    H2  438   3.176   2.533   2.939  0.8169 -1.3376  2.0426
  161TIP3   OH2  439   5.779   2.139   2.941 -0.0520 -0.4065  0.2142
  161TIP3    H1  440   5.819   2.138   3.028 -0.7891  0.6982  0.5902
  161TIP3    H2  441   5.688   2.113   2.956 -0.4416  0.7223 -0.0466
  162TIP3   OH2  442   2.624   7.219   2.627  0.7018 -0.0228 -0.3177
  162TIP3    H1  443   2.570   7.289   2.662  1.4674 -0.1666  1.2131
  162TIP3    H2  444   2.582   7.196   2.544  0.0507  1.7577 -0.5204
  163TIP3   OH2  445   0.811   1.957   1.661 -0.6674  0.2185  0.0403
  163TIP3    H1  446   0.835   1.945   1.753  1.7114 -1.6914 -0.7307
  163TIP3    H2  447   0.779   2.047   1.657 -1.6130  0.1062  2.8549
  164TIP3   OH2  448   7.973   6.588   1.412 -0.1076 -0.4167 -0.0209
  164TIP3    H1  449   8.035   6.651   1.449 -1.7399  0.1352  1.9725
  164TIP3    H2  450   7.901   6.642   1.378 -0.2989 -1.1111 -0.7645
  165TIP3   OH2  451   7.973   6.830   3.505  0.2101 -0.1680  0.5118
  165TIP3    H1  452   7.892   6.847   3.457  0.3066 -2.9691 -0.8383
  165TIP3    H2  453   7.948   6.769   3.574  1.0731 -0.6818  0.3887
  166TIP3   OH2  454   7.422   5.765   6.733 -0.0984 -0.3563  0.3183
  166TIP3    H1  455   7.390   5.690   6.684 -1.4649  0.4609 -0.0887
  166TIP3    H2  456   7.446   5.829   6.666  0.4972 -0.1920  0.6761
  167TIP3   OH2  457   4.760   4.920   4.568  0.1002  0.1605  0.0765
  167TIP3    H1  458   4.670   4.903   4.594 -0.5507  0.0899 -1.9949
  167TIP3    H2  459   4.752   4.972   4.488  1.8483 -0.7040 -0.7242
  168TIP3   OH2  460   1.383   5.715   3.164  0.2568 -0.0707  0.5027
  168TIP3    H1  461   1.451   5.781   3.176 -0.3792  0.6135  0.3396
  168TIP3    H2  462   1.422   5.652   3.102  2.0016 -1.4726  2.8255
  169TIP3   OH2  463   5.212   4.832   0.582  0.1707 -0.0514  0.5772
  169TIP3    H1  464   5.210   4.776   0.659 -1.1852 -1.7660 -0.6117
  169TIP3    H2  465   5.225   4.772   0.509  1.9361  1.5682 -0.5472
  170TIP3   OH2  466   8.035   7.548   1.481 -0.0643  0.2154  0.1395
  170TIP3    H1  467   8.027   7.559   1.575 -0.0106 -3.9240  0.8135
  170TIP3    H2  468   8.129   7.543   1.465 -0.0649  1.1538 -0.2040
  171TIP3   OH2  469   5.190   4.764   5.981 -0.2889 -0.5108  0.1205
  171TIP3    H1  470   5.223   4.683   5.943 -0.3382 -0.7922  0.6588
  171TIP3    H2  471   5.200   4.830   5.912  3.4700 -0.0450  0.8987
  172TIP3   OH2  472   7.053   4.534   4.940  0.3289  0.2157  0.0241
  172TIP3    H1  473   7.143   4.565   4.937  1.2356 -1.9299  2.1637
  172TIP3    H2  474   7.051   4.470   5.011 -2.9376  0.2984  0.1717
  173TIP3   OH2  475   4.476   3.372   0.184  0.3545 -0.2474  0.3071
  173TIP3    H1  476   4.440   3.318   0.254 -0.4089 -3.7814 -2.4982
  173TIP3    H2  477   4.402   3.425   0.154  0.3464  0.3231  1.3108
  174TIP3   OH2  478   7.173   0.927   0.559  0.3209 -0.1383  0.2623
  174TIP3    H1  479   7.138   1.013   0.584 -0.1155  0.4408 -2.0986
  174TIP3    H2  480   7.126   0.865   0.614 -0.8800  1.0105  0.5795
  175TIP3   OH2  481   0.468   1.282   4.988 -0.5865 -0.1001  0.1353
  175TIP3    H1  482   0.435   1.362   4.947 -0.0938  0.0079 -0.0500
  175TIP3    H2  483   0.563   1.291   4.985 -0.4829 -1.3369 -1.1672
  176TIP3   OH2  484   0.358   3.753   4.776 -0.1083 -0.0262  0.4492
  176TIP3    H1  485   0.441   3.794   4.798 -1.3741  2.9473  0.1465
  176TIP3    H2  486   0.349   3.681   4.838  2.5248 -0.2707  0.6489
  177TIP3   OH2  487   5.859   3.158   5.818 -0.1070  1.0698  0.4155
  177TIP3    H1  488   5.904   3.074   5.819 -1.0050  0.5840  0.7902
  177TIP3    H2  489   5.775   3.140   5.777  0.1645  2.0499 -0.6246
  178TIP3   OH2  490   5.103   3.002   1.268  0.3668 -0.2758  0.0283
  178TIP3    H1  491   5.151   2.919   1.260 -1.1592 -1.1938 -0.1752
  178TIP3    H2  492   5.106   3.023   1.361  0.2555 -0.9106  0.1851
  179TIP3   OH2  493   3.861   3.216   0.981  0.2286 -0.2208 -0.1257
  179TIP3    H1  494   3.821   3.142   0.935 -1.3957  1.0193 -0.8164
  179TIP3    H2  495   3.822   3.293   0.940  1.2699  1.0203  1.1195
  180TIP3   OH2  496   7.486   5.011   5.337  0.1195  0.0714 -0.3157
  180TIP3    H1  497   7.513   4.953   5.408 -1.4323 -1.0760 -0.6106
  180TIP3    H2  498   7.445   5.086   5.381 -2.6180 -1.5317  0.0622
  181TIP3   OH2  499   5.077   3.209   1.097 -0.1870 -0.1196 -0.2154
  181TIP3    H1  500   5.034   3.179   1.017  0.8258 -0.8136 -0.5264
  181TIP3    H2  501   5.078   3.131   1.153 -2.0069  0.6754  1.0064
  182TIP3   OH2  502   4.551   4.123   6.775  0.2260  0.0058  0.4202
  182TIP3    H1  503   4.530   4.107   6.683  1.3121 -1.6338  0.4202
  182TIP3    H2  504   4.477   4.085   6.823  0.5146 -0.8067  0.2514
  183TIP3   OH2  505   0.191   2.288   3.490 -0.4226 -0.9065 -0.4139
  183TIP3    H1  506   0.283   2.281   3.465 -0.4498  1.3533 -1.4376
  183TIP3    H2  507   0.191   2.287   3.586  0.8641  0.5270 -0.3706
  184TIP3   OH2  508   4.672   7.063   1.251 -0.1640  0.0103  0.3291
  184TIP3    H1  509   4.646   7.154   1.233  2.7657  0.9495  0.3181
  184TIP3    H2  510   4.686   7.025   1.164  0.0041  0.0046  0.3587
  185TIP3   OH2  511   6.618   3.668   3.872  0.1893  0.3100  0.5909
  185TIP3    H1  512   6.608   3.641   3.964  0.7276  1.3896  0.9901
  185TIP3    H2  513   6.534   3.708   3.850 -0.6679 -1.7480 -0.0549
  186TIP3   OH2  514   0.006   4.838   0.935 -0.5461  0.0070  0.6394
  186TIP3    H1  515   0.068   4.782   0.887 -0.1453  0.4056  0.6794
  186TIP3    H2  516   0.019   4.814   1.027 -0.9050 -0.3552  0.5957
  187TIP3   OH2  517   6.833   4.660   1.781 -0.2634  0.3030 -0.5567
  187TIP3    H1  518   6.743   4.653   1.812  0.6420 -1.1170  2.0519
  187TIP3    H2  519   6.832   4.733   1.719 -3.0532  0.7359 -0.1116
  188TIP3   OH2  520   0.247   2.058   5.627 -0.2993 -0.3330 -0.5328
  188TIP3    H1  521   0.296   1.976   5.633  0.2396  0.0255  0.2202
  188TIP3    H2  522   0.243   2.089   5.717 -1.8122 -0.2806 -0.5951
  189TIP3   OH2  523   6.354   0.171   6.311 -0.4839 -0.0568  0.3949
  189TIP3    H1  524   6.388   0.217   6.388  0.1857 -0.0130  0.0792
  189TIP3    H2  525   6.367   0.231   6.239  1.0096 -0.9704 -0.1348
  190TIP3   OH2  526   6.672   0.804   6.030  0.5002  0.0821  0.2586
  190TIP3    H1  527   6.750   0.825   5.979  0.8020  0.5479  0.9006
  190TIP3    H2  528   6.649   0.886   6.074 -2.1085  0.8155 -2.1701
  191TIP3   OH2  529   4.201   5.728   6.410  0.2685  0.6306 -0.2577
  191TIP3    H1  530   4.112   5.763   6.412 -0.1232 -0.3749  1.0198
  191TIP3    H2  531   4.232   5.748   6.322 -1.4989  0.3333 -0.9913
  192TIP3   OH2  532   2.801   3.152   0.977 -0.2408 -0.1744 -0.3080
  192TIP3    H1  533   2.776   3.172   0.887  1.9258 -1.2326 -1.2141
  192TIP3    H2  534   2.828   3.237   1.013  0.1342  0.0561 -1.1052
  193TIP3   OH2  535   3.779   0.397   5.420  0.0570 -0.0143  0.1923
  193TIP3    H1  536   3.823   0.331   5.367 -1.1173  1.0123 -2.1693
  193TIP3    H2  537   3.755   0.466   5.359 -3.8159  0.0327  1.4871
  194TIP3   OH2  538   2.997   0.767   3.750  0.0586 -0.0022 -0.2506
  194TIP3    H1  539   3.087   0.750   3.722  0.9503  2.6891  0.6515
  194TIP3    H2  540   2.945   0.760   3.670  1.1419 -1.0125 -0.8954
  195TIP3   OH2  541   3.651   1.195   4.917 -0.1091 -0.1512 -0.0820
  195TIP3    H1  542   3.596   1.259   4.871  0.2635  1.0490  1.1009
  195TIP3    H2  543   3.720   1.174   4.854 -1.2534 -0.8286 -1.1670
  196TIP3   OH2  544   7.859   0.937   2.622 -0.3140  0.3124 -0.3365
  196TIP3    H1  545   7.898   1.015   2.663  1.4804 -0.8645  0.3590
  196TIP3    H2  546   7.784   0.916   2.678  0.6177  0.1905  0.9258
  197TIP3   OH2  547   5.416   0.007   4.823 -0.1693 -0.1241  0.1292
  197TIP3    H1  548   5.387   0.078   4.880 -1.0263  0.3366 -0.8405
  197TIP3    H2  549   5.363  -0.068   4.849 -0.6364  0.1150 -0.1190
  198TIP3   OH2  550   4.936   4.904   2.546 -0.8898 -0.0274  0.1435
  198TIP3    H1  551   4.993   4.848   2.494 -0.1077  1.4394 -0.6655
  198TIP3    H2  552   4.966   4.892   2.636 -0.4851 -0.6011 -0.0615
  199TIP3   OH2  553   1.143   2.730   3.301 -0.0904  0.3333  0.3130
  199TIP3    H1  554   1.225   2.723   3.351  1.2844 -0.6559 -1.9031
  199TIP3    H2  555   1.108   2.641   3.301  0.7311 -0.0546 -1.6120
  200TIP3   OH2  556   2.151   5.916   0.299 -0.7501 -0.0448  0.2546
  200TIP3    H1  557   2.244   5.930   0.317 -0.6283 -1.1464  0.5518
  200TIP3    H2  558   2.117   6.004   0.281  0.0974  0.5301  1.2925
  201TIP3   OH2  559   7.415   3.793   3.061 -0.0438 -0.1725 -0.6103
  201TIP3    H1  560   7.494   3.765   3.106 -0.0777  0.9890  0.2139
  201TIP3    H2  561   7.442   3.868   3.008 -0.4833 -0.0639 -0.6889
  202TIP3   OH2  562   6.635   0.446   4.009 -0.3771  0.0900 -0.0581
  202TIP3    H1  563   6.720   0.411   4.036 -0.1925  0.7897  0.3013
  202TIP3    H2  564   6.587   0.458   4.091 -0.1517  1.3811 -0.0935
  203TIP3   OH2  565   0.942   3.522   5.763  0.4448 -0.4967  0.6809
  203TIP3    H1  566   1.019   3.557   5.807 -0.5418  0.7187  1.4980
  203TIP3    H2  567   0.975   3.490   5.679  1.3795  3.0166 -0.4548
  204TIP3   OH2  568   1.159   2.008   5.682  0.0621  0.1706 -0.2940
  204TIP3    H1  569   1.212   1.952   5.625  0.9725 -1.0251  1.6102
  204TIP3    H2  570   1.188   2.097   5.663  2.8145 -0.4189  0.6224
  205TIP3   OH2  571   3.319   2.079   0.822 -0.1191 -0.3767 -0.9216
  205TIP3    H1  572   3.385   2.138   0.785 -0.0186 -0.4020 -0.7861
  205TIP3    H2  573   3.257   2.136   0.866  0.1100 -0.3861 -0.5838
  206TIP3   OH2  574   5.024   4.418   0.558 -0.5760  0.4811  0.0417
  206TIP3    H1  575   4.948   4.434   0.503  0.1750  0.4894 -1.0179
  206TIP3    H2  576   5.092   4.388   0.498  0.2910  0.5560  0.9497
  207TIP3   OH2  577   1.138   2.039   4.682  0.5231 -0.0951  0.2731
  207TIP3    H1  578   1.150   1.992   4.600  2.1474  0.7711 -0.0448
  207TIP3    H2  579   1.219   2.023   4.731 -1.3145 -2.5412  2.8067
  208TIP3   OH2  580   5.957   1.956   0.856 -0.6325  0.0159  0.4012
  208TIP3    H1  581   5.981   2.010   0.780  0.1526 -0.7420  0.1008
  208TIP3    H2  582   5.974   2.013   0.931 -0.4230  0.4188  0.0554
  209TIP3   OH2  583   1.810   5.116   4.226 -0.1079  0.1636  0.1046
  209TIP3    H1  584   1.880   5.182   4.236  0.8559 -0.6794 -0.8631
  209TIP3    H2  585   1.742   5.161   4.176  0.6609  0.3722 -0.7927
  210TIP3   OH2  586   7.870   6.508   5.802  0.2152 -0.3610 -0.3510
  210TIP3    H1  587   7.925   6.567   5.751 -0.3009  1.4375  1.0568
  210TIP3    H2  588   7.929   6.467   5.865  0.0346  1.5095  1.1098
  211TIP3   OH2  589   4.984   4.784   3.341  0.0004 -0.0492 -0.4810
  211TIP3    H1  590   4.959   4.873   3.364  0.6184 -0.2017  0.8659
  211TIP3    H2  591   4.910   4.730   3.369  0.2361 -0.1020  0.0583
  212TIP3   OH2  592   6.095   1.182   4.530 -0.2985 -0.0136 -0.0119
  212TIP3    H1  593   6.109   1.097   4.489  0.1178  0.5583 -1.1031
  212TIP3    H2  594   6.152   1.181   4.607  0.9246 -0.1378 -0.8880
  213TIP3   OH2  595   0.021   0.497   1.347 -0.0735  0.2759 -0.0965
  213TIP3    H1  596   0.101   0.483   1.296 -0.1473 -1.6264  0.2486
  213TIP3    H2  597   0.051   0.519   1.434  0.0603  0.9746 -0.3156
  214TIP3   OH2  598   5.683   6.381   1.947 -0.7249 -0.2780 -0.6559
  214TIP3    H1  599   5.770   6.418   1.964 -0.6516 -0.1510 -1.2960
  214TIP3    H2  600   5.676   6.307   2.008  0.4634 -1.2872 -1.6973
  215TIP3   OH2  601   2.043   7.617   4.080 -0.5388  0.1425 -0.1675
  215TIP3    H1  602   2.013   7.701   4.115  0.7696 -0.2904  2.1601
  215TIP3    H2  603   1.970   7.557   4.098 -0.8993  0.4576 -0.5433
  216TIP3   OH2  604   7.219   2.017   1.813  0.0683  0.1826  0.6049
  216TIP3    H1  605   7.297   1.992   1.863  0.0012  1.4921  1.4221
  216TIP3    H2  606   7.253   2.059   1.735  0.1749 -0.1704  0.4582
  217TIP3   OH2  607   4.104   1.450   5.033  0.1478 -0.5226  0.4129
  217TIP3    H1  608   4.101   1.439   5.128 -1.6060 -0.8246  0.3627
  217TIP3    H2  609   4.094   1.362   4.998 -0.8657 -0.2465 -0.0291
  218TIP3   OH2  610   2.228   4.525   5.472 -0.1575 -0.1980  0.2222
  218TIP3    H1  611   2.263   4.582   5.540 -0.7032  2.0702 -1.2873
  218TIP3    H2  612   2.273   4.552   5.392 -1.5838 -0.7844 -0.8247
  219TIP3   OH2  613   4.935   4.242   0.075 -0.5489  0.2794 -0.0799
  219TIP3    H1  614   4.925   4.182   0.149  1.0615 -0.0733 -0.1115
  219TIP3    H2  615   4.972   4.187   0.005  2.0481  1.4773  0.2387
  220TIP3   OH2  616   1.091   7.394   1.182 -0.7822  0.2324  0.2182
  220TIP3    H1  617   1.181   7.416   1.156 -0.3368  0.1024  1.5641
  220TIP3    H2  618   1.039   7.469   1.154 -0.6486 -0.6312 -2.5452
  221TIP3   OH2  619   6.864   5.040   3.530 -0.4255  0.2504 -0.0115
  221TIP3    H1  620   6.831   5.129   3.544 -0.0301  0.3525  0.3144
  221TIP3    H2  621   6.923   5.025   3.604  2.6009  1.1898 -2.0468
  222TIP3   OH2  622   5.459   6.350   3.967  0.4077 -0.2394 -0.0814
  222TIP3    H1  623   5.513   6.271   3.971 -0.4957 -0.9367 -1.1313
  222TIP3    H2  624   5.515   6.415   3.924  0.8090 -0.6141 -0.1326
  223TIP3   OH2  625   6.283   7.434   3.616  0.3441 -0.2426 -0.5401
  223TIP3    H1  626   6.377   7.423   3.631  0.3572  0.5580 -0.0004
  223TIP3    H2  627   6.250   7.474   3.697 -0.3021  0.3139 -1.0682
  224TIP3   OH2  628   1.460   4.089   4.047 -0.3208  0.1956  0.3944
  224TIP3    H1  629   1.404   4.156   4.008 -1.6673  1.5078  4.1313
  224TIP3    H2  630   1.549   4.123   4.036 -0.4333 -0.1395 -2.4028
  225TIP3   OH2  631   5.336   1.064   1.978  0.3340  0.0697 -0.2759
  225TIP3    H1  632   5.371   0.985   1.935 -2.6885 -1.9377  0.6349
  225TIP3    H2  633   5.248   1.039   2.005  0.5841  2.5636  3.4947
  226TIP3   OH2  634   1.910   1.272   0.804 -0.2484 -0.3872 -0.1966
  226TIP3    H1  635   1.931   1.181   0.824 -0.7866  0.0010  2.5661
  226TIP3    H2  636   1.817   1.280   0.825  0.1767  1.1655  1.2978
  227TIP3   OH2  637   2.038   3.013   0.538 -0.5187 -0.1764 -0.1920
  227TIP3    H1  638   1.952   3.036   0.575 -0.3328  0.4615 -0.1503
  227TIP3    H2  639   2.052   2.923   0.566 -0.8648 -0.0554  0.3979
  228TIP3   OH2  640   4.269   0.960   3.588 -0.4058  0.2935 -0.1205
  228TIP3    H1  641   4.267   0.991   3.678 -0.7044 -0.2843  0.0787
  228TIP3    H2  642   4.356   0.922   3.577 -0.8062 -0.7828  0.3299
  229TIP3   OH2  643   1.953   1.876   5.995 -0.4235 -0.0473 -0.1249
  229TIP3    H1  644   1.958   1.795   6.046  0.4961 -0.2028 -0.4354
  229TIP3    H2  645   1.914   1.940   6.055  2.0219  0.1816  1.3357
  230TIP3   OH2  646   7.794   4.127   0.560 -0.4178  0.9055 -0.0773
  230TIP3    H1  647   7.713   4.169   0.530 -1.0979 -0.0212  0.4239
  230TIP3    H2  648   7.806   4.054   0.500  1.7114  2.7249 -2.0644
  231TIP3   OH2  649   4.052   2.283   3.318  0.1809 -0.2178 -0.4682
  231TIP3    H1  650   4.052   2.309   3.411 -0.6127  1.0472 -0.7941
  231TIP3    H2  651   4.143   2.293   3.291  0.2483  0.3694 -0.0573
  232TIP3   OH2  652   6.202   7.466   2.654 -0.2271  0.3970 -0.2917
  232TIP3    H1  653   6.190   7.434   2.744  0.6327  0.4896 -0.1356
  232TIP3    H2  654   6.116   7.499   2.628 -0.6166 -0.1388  0.2994
  233TIP3   OH2  655   1.775   1.169   6.159  0.0531  0.0778 -0.2522
  233TIP3    H1  656   1.790   1.251   6.207  0.4464  0.2447 -0.6472
  233TIP3    H2  657   1.838   1.107   6.196 -1.9351 -0.8238  1.8172
  234TIP3   OH2  658   7.340   0.581   4.181  0.0923 -0.0911  0.4194
  234TIP3    H1  659   7.412   0.607   4.240  0.1680  2.1599 -0.5757
  234TIP3    H2  660   7.276   0.539   4.239  1.6911 -1.1567  1.5055
  235TIP3   OH2  661   4.670   5.123   0.594  0.1951  0.1865 -0.1966
  235TIP3    H1  662   4.690   5.103   0.502  0.5444  2.1546 -0.5892
  235TIP3    H2  663   4.628   5.044   0.627  0.2444 -0.6380 -1.9921
  236TIP3   OH2  664   5.100   2.377   5.585 -0.2647 -0.5506 -0.3263
  236TIP3    H1  665   5.030   2.371   5.520  0.6805 -0.3703 -1.3944
  236TIP3    H2  666   5.147   2.457   5.562 -0.3546 -0.0846  1.0525
  237TIP3   OH2  667   1.535   5.215   4.212  0.2863 -0.1498  0.2520
  237TIP3    H1  668   1.560   5.235   4.302 -0.9154 -0.1424  0.5964
  237TIP3    H2  669   1.532   5.119   4.209 -2.1971 -0.1680  0.9881
  238TIP3   OH2  670   0.820   5.492   5.169 -0.6355 -0.4002 -0.1188
  238TIP3    H1  671   0.823   5.417   5.110 -1.5143  1.6180 -2.9566
  238TIP3    H2  672   0.894   5.547   5.143 -0.8056  0.3908  0.9574
  239TIP3   OH2  673   4.809   0.228   1.999  0.4699 -0.2781 -0.4734
  239TIP3    H1  674   4.886   0.243   2.054 -1.0756 -0.7656  1.9782
  239TIP3    H2  675   4.827   0.145   1.954  1.8540  0.2244 -0.8880
  240TIP3   OH2  676   0.492   5.722   2.953 -0.0568 -0.1912 -0.3166
  240TIP3    H1  677   0.502   5.676   3.036  1.7607  0.7541  0.0203
  240TIP3    H2  678   0.405   5.761   2.958  0.3761  0.6417  1.5712
  241TIP3   OH2  679   0.169   0.853   6.012  0.0575 -0.7090  0.5104
  241TIP3    H1  680   0.199   0.849   5.921 -1.9837 -2.9449 -0.1622
  241TIP3    H2  681   0.173   0.763   6.043 -2.7549 -0.6486  1.3636
  242TIP3   OH2  682   2.834   2.089   1.312  0.0311 -0.0240  0.3394
  242TIP3    H1  683   2.901   2.097   1.380  0.1774  0.6000  0.1216
  242TIP3    H2  684   2.753   2.071   1.361 -0.0186  1.2080  0.7593
  243TIP3   OH2  685   2.481   3.297   6.516 -0.5609 -0.5129  0.4168
  243TIP3    H1  686   2.400   3.246   6.511 -0.2579 -0.9984  0.4127
  243TIP3    H2  687   2.528   3.260   6.592  0.4285 -1.3820 -0.5857
  244TIP3   OH2  688   4.115   0.664   3.444  0.4678 -0.4068  0.2482
  244TIP3    H1  689   4.091   0.592   3.502 -1.6556 -0.1557 -0.2352
  244TIP3    H2  690   4.065   0.739   3.477  0.4973  0.1475 -0.9253
  245TIP3   OH2  691   7.116   4.342   6.447  0.3674  0.1698  0.1281
  245TIP3    H1  692   7.130   4.369   6.356 -1.9938  2.4318  0.3305
  245TIP3    H2  693   7.194   4.375   6.493  0.5387  1.0209 -0.7315
  246TIP3   OH2  694   6.865   4.525   4.712 -0.6713  0.2090 -0.1890
  246TIP3    H1  695   6.855   4.619   4.697 -0.2419  0.3091  0.1187
  246TIP3    H2  696   6.923   4.519   4.788  0.6575 -0.3148 -1.2100
  247TIP3   OH2  697   5.980   4.949   2.467 -0.2094 -0.5012 -0.7318
  247TIP3    H1  698   5.956   5.023   2.523 -0.8028 -0.8922 -0.4642
  247TIP3    H2  699   5.945   4.972   2.381  1.3294  0.4370 -1.1466
  248TIP3   OH2  700   6.353   1.277   1.203 -0.1092  0.2211  0.0753
  248TIP3    H1  701   6.263   1.246   1.197 -0.2757  0.6017  0.6329
  248TIP3    H2  702   6.406   1.198   1.190 -0.5313 -0.2321  1.0194
  249TIP3   OH2  703   1.503   0.888   1.396 -0.2571 -0.2441  0.2568
  249TIP3    H1  704   1.587   0.919   1.428  0.8400 -1.2000 -1.5453
  249TIP3    H2  705   1.498   0.797   1.426  0.6297 -1.0426 -1.8350
  250TIP3   OH2  706   0.241   1.746   3.184 -0.1629  0.1573  0.2407
  250TIP3    H1  707   0.190   1.826   3.189  0.0165  0.3101 -0.3413
  250TIP3    H2  708   0.178   1.678   3.159 -0.1154  0.3217 -0.3493
  251TIP3   OH2  709   4.281   6.248   4.729 -0.4281 -0.2468 -0.3874
  251TIP3    H1  710   4.216   6.293   4.674 -1.0439 -0.9047 -0.2207
  251TIP3    H2  711   4.297   6.165   4.683 -1.6687 -1.2350  0.8820
  252TIP3   OH2  712   6.456   1.955   1.471 -0.0196 -0.0713 -0.2805
  252TIP3    H1  713   6.416   1.963   1.557  1.6647 -1.1059  0.6434
  252TIP3    H2  714   6.449   2.042   1.432 -1.1586  0.3055  0.7068
  253TIP3   OH2  715   0.181   1.564   1.020  0.0451 -0.0377 -0.0805
  253TIP3    H1  716   0.263   1.579   1.068  0.6440 -0.2542 -1.0156
  253TIP3    H2  717   0.115   1.610   1.072  0.8480  0.6252  0.3919
  254TIP3   OH2  718   5.406   1.184   4.332 -0.2686 -0.2072 -0.0480
  254TIP3    H1  719   5.408   1.265   4.281 -1.2138 -0.7612 -1.0013
  254TIP3    H2  720   5.446   1.208   4.416  2.4070  0.4590 -1.3770
  255TIP3   OH2  721   1.109   0.731   1.558 -0.1073  0.1818  0.0827
  255TIP3    H1  722   1.116   0.657   1.618 -2.6469 -0.7035 -0.5736
  255TIP3    H2  723   1.149   0.700   1.476  2.2614  0.9708  0.8430
  256TIP3   OH2  724   3.418   4.885   5.846 -0.1141  0.3719  0.0627
  256TIP3    H1  725   3.343   4.943   5.857  0.3655  0.8904  0.6686
  256TIP3    H2  726   3.428   4.876   5.752 -0.0698  1.4326 -0.0371
  257TIP3   OH2  727   5.536   4.492   6.682 -0.2600  0.1248 -0.2942
  257TIP3    H1  728   5.492   4.565   6.638  1.9133  0.8469 -1.4148
  257TIP3    H2  729   5.491   4.484   6.766 -1.8126  1.4596 -0.9327
  258TIP3   OH2  730   8.075   2.218   3.318 -0.0051  0.2529 -0.1582
  258TIP3    H1  731   8.150   2.239   3.263  1.6211  0.1418  1.9096
  258TIP3    H2  732   8.075   2.122   3.324  1.2659  0.3060  1.7832
  259TIP3   OH2  733   5.492   3.713   4.217 -0.2732 -0.1935 -0.2263
  259TIP3    H1  734   5.435   3.637   4.205  1.8981 -1.7874 -1.2329
  259TIP3    H2  735   5.535   3.724   4.133  1.8396  0.0988  0.8230
  260TIP3   OH2  736   7.135   4.678   1.250 -0.1371  0.5582  0.7273
  260TIP3    H1  737   7.074   4.716   1.312 -1.4251  1.7333 -1.1435
  260TIP3    H2  738   7.080   4.647   1.178  1.2618 -0.9678  0.2421
  261TIP3   OH2  739   6.101   2.097   4.289  0.2873  0.2931 -0.5957
  261TIP3    H1  740   6.061   2.165   4.235  0.0605 -0.2925 -1.1723
  261TIP3    H2  741   6.167   2.144   4.341 -0.1525  1.0182 -0.6792
  262TIP3   OH2  742   2.001   3.834   4.933  0.1464 -0.3898  0.1521
  262TIP3    H1  743   2.008   3.786   4.850 -1.5849 -1.1560  0.4200
  262TIP3    H2  744   1.946   3.909   4.913  1.8387  0.8873  0.0362
  263TIP3   OH2  745   5.782   0.026   1.304  0.1213 -0.5326 -0.1160
  263TIP3    H1  746   5.753   0.112   1.276  0.5205 -0.3029  0.1680
  263TIP3    H2  747   5.709  -0.009   1.355 -0.6510 -0.9882 -1.4598
  264TIP3   OH2  748   6.641   7.726   3.962  0.2325 -0.0982  0.0551
  264TIP3    H1  749   6.563   7.725   3.906  0.6585 -1.1128 -0.5558
  264TIP3    H2  750   6.659   7.819   3.977 -0.9920  0.1479  0.0695
  265TIP3   OH2  751   1.573   5.067   2.900 -0.0981  0.1833  0.2813
  265TIP3    H1  752   1.520   5.092   2.825 -2.3756 -2.3246  0.9035
  265TIP3    H2  753   1.528   5.105   2.976 -1.2814 -2.0950  0.8295
  266TIP3   OH2  754   2.023   2.343   1.647 -0.3747  0.0286  0.0326
  266TIP3    H1  755   2.114   2.366   1.661 -0.6631  1.4500 -0.2392
  266TIP3    H2  756   1.992   2.312   1.732  0.3748 -0.5980  0.0913
  267TIP3   OH2  757   8.186   6.793   6.605  0.4930  0.2768  0.7985
  267TIP3    H1  758   8.122   6.728   6.633 -0.4710  0.8713  0.0366
  267TIP3    H2  759   8.143   6.877   6.621  2.0272  0.8107  2.5321
  268TIP3   OH2  760   2.781   0.875   2.623  0.0224  0.5014 -0.0716
  268TIP3    H1  761   2.692   0.910   2.613  0.0849  1.1079  1.3646
  268TIP3    H2  762   2.835   0.934   2.570 -0.2778  0.8374 -0.0112
  269TIP3   OH2  763   3.128   4.421   3.064 -0.0068  0.5733 -0.5831
  269TIP3    H1  764   3.117   4.513   3.087 -2.9638  0.2105 -0.1522
  269TIP3    H2  765   3.150   4.423   2.971 -0.2895  1.7137 -0.6460
  270TIP3   OH2  766   6.187   3.203   5.157 -0.1640 -0.2556 -0.4879
  270TIP3    H1  767   6.131   3.229   5.084 -1.2716 -0.4633  0.2586
  270TIP3    H2  768   6.182   3.108   5.157 -0.9277 -0.2351  0.3973
  271TIP3   OH2  769   4.105   1.168   4.933 -0.4593  0.1525  0.1103
  271TIP3    H1  770   4.173   1.174   5.001 -1.4299  1.8238  0.9710
  271TIP3    H2  771   4.088   1.074   4.926  0.0197 -0.1001  1.8348
  272TIP3   OH2  772   7.050   1.273   4.699 -0.2839 -0.3439  0.4709
  272TIP3    H1  773   7.085   1.361   4.691 -1.1143  0.1369  1.6987
  272TIP3    H2  774   7.012   1.254   4.614  0.9932 -0.0201 -0.1871
  273TIP3   OH2  775   2.220   7.333   3.507  0.0934  0.0458  0.0983
  273TIP3    H1  776   2.230   7.267   3.576 -0.0154  0.8256  0.8681
  273TIP3    H2  777   2.308   7.367   3.494 -0.1168  0.9049  0.8672
  274TIP3   OH2  778   7.700   6.931   0.015  0.4427  0.4358 -0.1754
  274TIP3    H1  779   7.725   6.915   0.106 -1.4585 -0.8898  0.1817
  274TIP3    H2  780   7.767   6.886  -0.036  0.6162 -0.2505  0.6255
  275TIP3   OH2  781  -0.000   5.847   1.617 -0.0352 -0.6428  0.2646
  275TIP3    H1  782   0.046   5.929   1.598  0.5244 -1.1283 -0.5416
  275TIP3    H2  783   0.022   5.789   1.544 -0.5322 -1.4734  0.7501
  276TIP3   OH2  784   4.109   0.927   2.781  0.6904  0.0550  0.3344
  276TIP3    H1  785   4.131   0.898   2.869  1.0614 -2.5108 -0.5282
  276TIP3    H2  786   4.191   0.923   2.732  0.0825 -0.7718 -0.6682
  277TIP3   OH2  787   8.110   7.677   2.109 -0.0746  0.1294  0.0423
  277TIP3    H1  788   8.107   7.665   2.014  1.2344 -1.4308  0.1625
  277TIP3    H2  789   8.148   7.596   2.143 -0.0133  0.8658  1.8587
  278TIP3   OH2  790   2.738   6.593   6.602 -0.4040 -0.4429  0.4078
  278TIP3    H1  791   2.698   6.507   6.616  0.1257 -0.6862  0.4806
  278TIP3    H2  792   2.680   6.654   6.647 -1.9715 -0.4695 -1.4513
  279TIP3   OH2  793   0.566   3.977   5.236 -0.2185  0.8337  0.0768
  279TIP3    H1  794   0.595   3.986   5.145  0.8663  1.6808  0.4907
  279TIP3    H2  795   0.641   3.938   5.281  0.3697  3.0345  1.1600
  280TIP3   OH2  796   1.488   4.875   3.437 -0.1336  0.4099 -0.0213
  280TIP3    H1  797   1.464   4.914   3.521  0.2378 -0.9919  0.7670
  280TIP3    H2  798   1.582   4.892   3.428 -0.6202  2.8322 -1.4418
  281TIP3   OH2  799   1.583   2.627   5.291 -0.1364 -0.5271  0.0189
  281TIP3    H1  800   1.529   2.701   5.320 -0.1316 -0.1807 -0.8281
  281TIP3    H2  801   1.520   2.560   5.264 -0.1580 -0.0696 -1.1032
  282TIP3   OH2  802   7.817   7.108   6.568  0.6951  0.0140  0.0092
  282TIP3    H1  803   7.903   7.130   6.532  0.7275 -1.3293 -0.7858
  282TIP3    H2  804   7.758   7.175   6.533  1.0943 -0.1159 -0.9348
  283TIP3   OH2  805   1.382   2.420   5.256 -0.4274  0.1389  0.9602
  283TIP3    H1  806   1.378   2.338   5.304 -1.3252 -0.6691 -0.4322
  283TIP3    H2  807   1.291   2.448   5.247 -0.1388  1.2921  1.4046
  284TIP3   OH2  808   5.847   1.859   1.811  0.0976 -0.3057 -0.4969
  284TIP3    H1  809   5.926   1.896   1.771 -0.4092 -0.2785 -1.4956
  284TIP3    H2  810   5.831   1.914   1.888  1.7499 -1.0663  0.4620
  285TIP3   OH2  811   0.497   6.535   4.228  0.1276 -0.6276 -0.2620
  285TIP3    H1  812   0.441   6.573   4.160  0.0319 -1.8732 -0.8961
  285TIP3    H2  813   0.452   6.556   4.310 -0.1084  0.3043 -0.6164
  286TIP3   OH2  814   8.001   0.658   0.603  0.1218  0.3581  0.0601
  286TIP3    H1  815   7.923   0.674   0.551  1.2002  0.6444 -1.5351
  286TIP3    H2  816   8.003   0.563   0.617 -1.3143  0.4889  1.5070
  287TIP3   OH2  817   3.256   4.750   2.760  0.8881  0.1448  0.4085
  287TIP3    H1  818   3.236   4.843   2.757  0.8141  0.1195 -0.0964
  287TIP3    H2  819   3.319   4.740   2.831  2.3904  0.8831 -0.7437
  288TIP3   OH2  820   5.672   5.394   0.508 -0.2999 -0.4531  0.3054
  288TIP3    H1  821   5.715   5.476   0.535  1.6629 -1.4855  0.4884
  288TIP3    H2  822   5.730   5.359   0.440 -2.0084 -0.8819 -0.9790
  289TIP3   OH2  823   6.726   4.381   5.728  0.6201  0.8935 -0.0021
  289TIP3    H1  824   6.773   4.325   5.666  2.3352  1.2322  0.9215
  289TIP3    H2  825   6.786   4.454   5.744  0.2571  0.7938  2.0723
  290TIP3   OH2  826   3.431   6.538   6.507  0.6623  0.6185  0.1876
  290TIP3    H1  827   3.488   6.586   6.446  0.6933  0.1504 -0.1569
  290TIP3    H2  828   3.452   6.446   6.491 -1.4335  0.3310 -1.1981
  291TIP3   OH2  829   1.858   2.613   1.614 -0.2794 -0.4469  0.6541
  291TIP3    H1  830   1.782   2.628   1.670 -0.6774  0.2636 -0.0677
  291TIP3    H2  831   1.877   2.520   1.624 -2.5712 -1.1571 -0.7715
  292TIP3   OH2  832   4.944   3.768   0.438  0.2367  0.1598  0.3188
  292TIP3    H1  833   4.938   3.860   0.466  1.3306  0.6271 -0.8942
  292TIP3    H2  834   4.995   3.771   0.357 -0.4349 -1.4375 -0.2001
  293TIP3   OH2  835   0.834   7.564   6.272  0.1621  0.4949  0.0614
  293TIP3    H1  836   0.866   7.581   6.361 -0.5570 -0.6853  0.5833
  293TIP3    H2  837   0.900   7.602   6.215  2.4514 -1.6554  1.0752
  294TIP3   OH2  838   2.250   0.561   4.787  0.1744 -0.3231  0.0798
  294TIP3    H1  839   2.209   0.644   4.760 -1.5561 -1.0371  0.4336
  294TIP3    H2  840   2.321   0.588   4.846  0.6399  0.9756 -1.0176
  295TIP3   OH2  841   6.712   2.689   4.254 -0.1584 -0.0871  0.5763
  295TIP3    H1  842   6.698   2.742   4.332  2.0914  2.2624 -0.4763
  295TIP3    H2  843   6.737   2.751   4.186 -0.6194 -2.1889 -1.6743
  296TIP3   OH2  844   6.084   3.273   5.396 -0.1934  0.1087  0.4773
  296TIP3    H1  845   6.022   3.212   5.436  0.3624 -0.5720  0.3071
  296TIP3    H2  846   6.109   3.232   5.313  0.0002  0.6801  0.2480
  297TIP3   OH2  847   4.831   0.965   5.475  0.6693  0.3157 -0.7835
  297TIP3    H1  848   4.904   0.963   5.414  0.4449  0.6202 -1.0658
  297TIP3    H2  849   4.830   1.055   5.508  0.8956  0.1100 -0.2005
  298TIP3   OH2  850   3.906   3.416   3.206 -0.3204  0.6735  0.0015
  298TIP3    H1  851   3.971   3.486   3.202  1.3818 -0.6736  1.6167
  298TIP3    H2  852   3.909   3.375   3.120 -1.6617  2.7405 -1.1273
  299TIP3   OH2  853   4.137   4.782   4.812 -0.6075 -0.2579  0.0835
  299TIP3    H1  854   4.169   4.798   4.901  0.3160  0.2548 -0.3419
  299TIP3    H2  855   4.060   4.839   4.804  0.0762  0.6840  0.1012
  300TIP3   OH2  856   2.457   3.343   4.256 -0.2882  0.7075  0.3458
  300TIP3    H1  857   2.411   3.324   4.174 -0.4868 -0.2452  0.6629
  300TIP3    H2  858   2.547   3.362   4.229 -0.4223  0.7046 -0.1132
  301TIP3   OH2  859   6.624   3.007   4.825 -0.5851  0.3753 -0.2540
  301TIP3    H1  860   6.625   3.065   4.902 -3.7044 -0.2240  0.3927
  301TIP3    H2  861   6.645   2.921   4.861  0.1494  0.4480 -0.4999
  302TIP3   OH2  862   7.931   0.503   2.625  0.7352  0.0056  0.3545
  302TIP3    H1  863   7.980   0.557   2.687  2.8080 -0.4372 -0.8019
  302TIP3    H2  864   7.893   0.433   2.678 -0.4785  1.5024  1.5941
  303TIP3   OH2  865   4.574   6.057   0.714  0.1199  0.4108 -0.0905
  303TIP3    H1  866   4.487   6.017   0.706  0.6042 -1.0564  1.4454
  303TIP3    H2  867   4.561   6.129   0.775  0.0540 -0.0592  0.4543
  304TIP3   OH2  868   2.611   5.043   4.976 -0.2779 -0.1948  0.2264
  304TIP3    H1  869   2.563   5.126   4.979  0.0684 -0.0277  2.1967
  304TIP3    H2  870   2.622   5.025   4.883 -0.6341  1.8124 -0.2425
  305TIP3   OH2  871  -0.005   6.276   4.290  0.1401 -0.0579 -0.4697
  305TIP3    H1  872   0.025   6.219   4.219 -0.7495 -0.0162 -0.8974
  305TIP3    H2  873   0.053   6.256   4.363 -0.9601 -2.5200 -0.1496
  306TIP3   OH2  874   5.707   3.798   2.698  0.1487  0.8995  0.1218
  306TIP3    H1  875   5.726   3.711   2.663  5.0154  2.0263 -0.7373
  306TIP3    H2  876   5.631   3.829   2.648 -0.2568 -1.9177 -1.1687
  307TIP3   OH2  877   0.634   6.795   4.235 -0.0231 -0.1005 -0.3550
  307TIP3    H1  878   0.579   6.863   4.273 -1.1442  0.1946 -2.3850
  307TIP3    H2  879   0.622   6.720   4.292 -0.4722  0.7390  0.6935
  308TIP3   OH2  880   7.803   5.695   4.080  0.1442  0.4920  0.2970
  308TIP3    H1  881   7.871   5.748   4.039 -0.2798  0.7672 -0.0600
  308TIP3    H2  882   7.782   5.741   4.161  1.0008 -0.0670  0.8566
  309TIP3   OH2  883   1.394   0.318   4.752  0.1668  0.1929  0.3177
  309TIP3    H1  884   1.474   0.371   4.753 -0.0330  0.5459  2.2510
  309TIP3    H2  885   1.327   0.376   4.789 -1.0755 -0.0161 -1.5124
  310TIP3   OH2  886   6.342   2.765   4.940  0.5470 -0.1341  0.3604
  310TIP3    H1  887   6.279   2.816   4.890  1.2987  0.0831 -0.3909
  310TIP3    H2  888   6.382   2.706   4.876  1.1858 -0.1909  0.7991
  311TIP3   OH2  889   6.371   7.159   2.027  0.4959 -0.1876  0.1383
  311TIP3    H1  890   6.385   7.219   1.954  0.9142 -0.1638  0.2369
  311TIP3    H2  891   6.333   7.081   1.987 -0.7207  0.3921  0.0991
  312TIP3   OH2  892   3.788   7.111   5.239 -0.5493  0.5808 -1.1389
  312TIP3    H1  893   3.869   7.115   5.290 -0.6550 -0.0941 -0.9138
  312TIP3    H2  894   3.754   7.023   5.253 -1.8416  1.1537 -0.4525
  313TIP3   OH2  895   7.008   7.728   6.644 -0.3524 -0.4994 -0.1272
  313TIP3    H1  896   7.009   7.819   6.612  1.1536 -0.4058  0.0905
  313TIP3    H2  897   6.985   7.736   6.737  3.4673  0.1504  0.9512
  314TIP3   OH2  898   6.964   5.300   4.852  0.0219  0.7940  0.1117
  314TIP3    H1  899   7.048   5.343   4.866  0.4600  0.5702 -1.6036
  314TIP3    H2  900   6.973   5.258   4.766 -0.3970 -2.6811  1.6360
  315TIP3   OH2  901   5.936   3.699   3.812  0.2305  0.0607  0.4619
  315TIP3    H1  902   5.857   3.744   3.782 -0.0410  0.2527  1.4299
  315TIP3    H2  903   5.945   3.624   3.752 -0.9631 -0.2395  0.6319
  316TIP3   OH2  904   2.223   5.037   0.383  0.2412 -0.3408  0.0865
  316TIP3    H1  905   2.316   5.043   0.408  0.4072 -0.1504 -0.5666
  316TIP3    H2  906   2.200   5.126   0.355 -0.1087 -0.4130  0.1374
  317TIP3   OH2  907   2.352   3.926   6.545  0.4270 -0.0163  0.1576
  317TIP3    H1  908   2.321   3.941   6.456  0.4765  0.3610  0.2028
  317TIP3    H2  909   2.428   3.984   6.554  0.7070 -0.4027  0.2872
  318TIP3   OH2  910   0.013   2.125   5.493  0.6219 -0.2410 -0.2471
  318TIP3    H1  911   0.082   2.080   5.542  0.1709 -1.1849 -0.4669
  318TIP3    H2  912  -0.052   2.149   5.559  1.5714  1.5267  0.1225
  319TIP3   OH2  913   6.421   3.391   3.110  0.3444  0.4136  0.1770
  319TIP3    H1  914   6.439   3.398   3.203 -1.0082  1.6641  0.3791
  319TIP3    H2  915   6.412   3.482   3.080  0.0002  0.0116 -1.0060
  320TIP3   OH2  916   1.895   1.118   3.389  0.0046  0.2488 -0.6512
  320TIP3    H1  917   1.844   1.126   3.469  1.3284  1.8158  0.0965
  320TIP3    H2  918   1.901   1.208   3.355  1.3920 -0.0350 -1.2433
  321TIP3   OH2  919   1.020   3.469   1.610  0.2085 -0.2525 -0.2619
  321TIP3    H1  920   1.079   3.537   1.575 -1.0130  0.8838 -0.1806
  321TIP3    H2  921   1.009   3.493   1.702  0.4272 -1.0605 -0.0195
  322TIP3   OH2  922   5.123   6.046   5.095  0.5385 -0.0859  0.3217
  322TIP3    H1  923   5.202   6.096   5.074  0.6132 -0.6983 -0.9309
  322TIP3    H2  924   5.075   6.043   5.013 -1.7735  1.9216  1.4803
  323TIP3   OH2  925   0.327   3.395   6.457 -0.4080  0.0780 -0.3683
  323TIP3    H1  926   0.275   3.322   6.424 -1.1778  0.3465  0.2141
  323TIP3    H2  927   0.375   3.358   6.531  3.3627 -1.2434 -3.1944
  324TIP3   OH2  928   1.705   7.502   5.792  0.0237 -0.0181  0.5418
  324TIP3    H1  929   1.663   7.499   5.706 -0.0498  2.3617  0.4318
  324TIP3    H2  930   1.649   7.449   5.848 -0.8849 -0.2007 -0.5002
  325TIP3   OH2  931   3.190   7.170   2.909 -0.4132 -0.5244  0.1442
  325TIP3    H1  932   3.249   7.119   2.854 -2.1698 -2.8844  0.3256
  325TIP3    H2  933   3.215   7.148   2.999  0.6512  1.2136  0.3330
  326TIP3   OH2  934   8.276   5.577   2.681  1.0527  0.5801 -0.5801
  326TIP3    H1  935   8.226   5.644   2.729  0.3965 -1.0080  1.1064
  326TIP3    H2  936   8.225   5.562   2.602 -0.3204  0.1539  0.3367
  327TIP3   OH2  937   5.917   4.158   2.227 -0.3647 -0.1494 -0.8673
  327TIP3    H1  938   5.857   4.143   2.154 -0.2921  0.1090 -0.9798
  327TIP3    H2  939   5.862   4.192   2.297 -0.3547  0.0729 -0.9657
  328TIP3   OH2  940   2.618   2.740   5.351 -0.0377 -0.1292  0.4891
  328TIP3    H1  941   2.589   2.831   5.359 -0.6622 -0.4466  2.3332
  328TIP3    H2  942   2.597   2.716   5.261  0.7959  1.7524 -0.2646
  329TIP3   OH2  943   4.800   6.591   5.401  0.5142  0.2565  0.6187
  329TIP3    H1  944   4.800   6.685   5.420 -0.5991  0.5241 -0.5200
  329TIP3    H2  945   4.835   6.585   5.312  0.5841 -0.4214  0.6853
  330TIP3   OH2  946   1.416   2.175   5.381  0.0167  0.1828  0.4932
  330TIP3    H1  947   1.350   2.111   5.354 -0.2594  1.5432 -2.3912
  330TIP3    H2  948   1.499   2.137   5.355 -0.0491  0.5018 -0.1882
  331TIP3   OH2  949   0.549   3.504   5.809  0.1727 -0.2920 -0.5426
  331TIP3    H1  950   0.500   3.538   5.885  0.6622  0.7005 -0.6569
  331TIP3    H2  951   0.503   3.424   5.785  0.0002 -0.6260  0.8055
  332TIP3   OH2  952   7.863   3.052   3.362 -0.4693  0.0331  0.3510
  332TIP3    H1  953   7.860   2.970   3.313  0.8694 -0.4717  1.0481
  332TIP3    H2  954   7.935   3.040   3.423  0.5837  2.1843 -0.3555
  333TIP3   OH2  955   0.948   4.969   1.319 -0.6208 -0.6547  0.0721
  333TIP3    H1  956   1.012   4.900   1.304 -0.2450 -0.5828  1.1947
  333TIP3    H2  957   0.920   4.997   1.232  0.1661 -1.3475 -0.4095
  334TIP3   OH2  958   5.742   2.996   0.423 -0.2485 -0.5428 -0.0048
  334TIP3    H1  959   5.817   2.936   0.431  0.6304  0.4016 -0.8377
  334TIP3    H2  960   5.675   2.944   0.378  1.7460 -0.0051 -4.0638
  335TIP3   OH2  961   6.776   4.945   5.470  0.9711  0.7207  0.1585
  335TIP3    H1  962   6.784   5.034   5.505  2.5116  0.2707  1.0865
  335TIP3    H2  963   6.861   4.928   5.429 -0.0533  0.4279 -1.9860
  336TIP3   OH2  964   2.668   3.435   4.112 -0.1476 -0.1857  0.2545
  336TIP3    H1  965   2.641   3.443   4.021 -0.7014  0.7142  0.4892
  336TIP3    H2  966   2.748   3.382   4.109  1.2017  1.7908 -0.9822
  337TIP3   OH2  967   0.899   5.361   0.165 -0.1270 -0.4078  0.0671
  337TIP3    H1  968   0.855   5.282   0.195 -0.3798 -1.1498 -2.0252
  337TIP3    H2  969   0.857   5.432   0.212 -1.7801 -1.3183  0.0559
  338TIP3   OH2  970   4.752   0.903   0.645 -0.2555  0.3877 -0.6404
  338TIP3    H1  971   4.843   0.934   0.649  0.1728 -0.8054 -0.9582
  338TIP3    H2  972   4.759   0.808   0.644 -1.5654  0.2581  0.4767
  339TIP3   OH2  973   5.878   6.533   3.156  0.3698 -0.6880 -0.3622
  339TIP3    H1  974   5.790   6.505   3.178  0.8863 -1.4584  0.8143
  339TIP3    H2  975   5.875   6.629   3.158 -0.5113 -0.7013 -0.7061
  340TIP3   OH2  976   6.349   7.360   1.805  0.7125 -0.4017 -0.2210
  340TIP3    H1  977   6.434   7.361   1.762  0.8708  2.0262  0.0089
  340TIP3    H2  978   6.293   7.415   1.750  0.2246  0.6917  1.2909
  341TIP3   OH2  979   1.983   5.031   6.165 -0.0563 -0.1215  0.0154
  341TIP3    H1  980   1.898   5.075   6.160  0.3424  0.5649 -1.2764
  341TIP3    H2  981   2.028   5.057   6.084  0.3736 -2.5556 -0.5951
  342TIP3   OH2  982   7.053   7.524   2.193 -0.1380 -0.0035 -0.6170
  342TIP3    H1  983   7.137   7.555   2.227 -0.4097 -0.5519  0.6062
  342TIP3    H2  984   7.051   7.431   2.216 -1.7437  0.3231  0.8191
  343TIP3   OH2  985   1.469   2.401   0.983  0.2837 -0.2572  0.7755
  343TIP3    H1  986   1.415   2.391   0.904  0.1324  2.2579  0.4653
  343TIP3    H2  987   1.528   2.474   0.962  0.3956  0.3228  2.9057
  344TIP3   OH2  988   4.813   5.143   3.133 -0.7906 -0.5619  0.4510
  344TIP3    H1  989   4.865   5.221   3.115 -0.1705 -1.1229 -0.2785
  344TIP3    H2  990   4.877   5.072   3.138 -1.5151 -1.4050 -1.3148
  345TIP3   OH2  991   7.198   1.685   0.290 -0.3295  0.0809  0.3070
  345TIP3    H1  992   7.134   1.743   0.249 -1.2163 -0.4975  0.8049
  345TIP3    H2  993   7.158   1.662   0.374 -0.5999 -2.1781 -0.3567
  346TIP3   OH2  994   4.686   2.322   2.486 -0.7747  0.2112  0.3090
  346TIP3    H1  995   4.712   2.258   2.420 -1.1556  1.2416 -0.8903
  346TIP3    H2  996   4.625   2.276   2.543 -0.8315 -0.5531 -0.3645
  347TIP3   OH2  997   0.834   5.559   5.444  0.1721 -0.2212 -0.4719
  347TIP3    H1  998   0.821   5.548   5.350  0.9508 -0.5882 -0.5431
  347TIP3    H2  999   0.922   5.525   5.460  1.0164  1.9984 -0.0188
  348TIP3   OH2 1000   5.327   4.547   0.047  0.0275 -0.2622 -0.1749
  348TIP3    H1 1001   5.253   4.515   0.099 -0.1482  0.8460  0.2979
  348TIP3    H2 1002   5.381   4.470   0.031 -1.1237 -1.0490 -0.3409
  349TIP3   OH2 1003   2.717   1.362   2.966  0.5392  0.9808 -0.0054
  349TIP3    H1 1004   2.731   1.394   3.055 -0.0265  1.9120 -0.2431
  349TIP3    H2 1005   2.805   1.348   2.931  0.7840 -0.7179  1.1470
  350TIP3   OH2 1006   3.707   2.152   0.150 -0.0757 -0.3566  0.6999
  350TIP3    H1 1007   3.748   2.232   0.117  1.4054 -1.2541  0.2883
  350TIP3    H2 1008   3.618   2.179   0.174 -0.0565  1.1116 -0.7103
  351TIP3   OH2 1009   6.910   0.720   0.144  0.1472  0.0748  0.0578
  351TIP3    H1 1010   6.976   0.674   0.092 -2.7995 -3.9373 -0.6968
  351TIP3    H2 1011   6.877   0.789   0.087  0.6477 -0.8041 -1.3463
  352TIP3   OH2 1012   1.140   6.980   0.773 -0.1224 -0.4225 -0.2065
  352TIP3    H1 1013   1.168   6.889   0.782 -1.9135 -0.9414  0.4943
  352TIP3    H2 1014   1.133   7.012   0.863  0.2622  0.3475 -0.4403
  353TIP3   OH2 1015   6.401   7.200   2.578  0.6725  0.0656  0.0461
  353TIP3    H1 1016   6.345   7.147   2.635 -0.1842 -0.9448 -1.6655
  353TIP3    H2 1017   6.369   7.290   2.589  0.0464 -0.2151  0.5823
  354TIP3   OH2 1018   7.941   6.567   3.674  0.3277 -0.5065 -0.5500
  354TIP3    H1 1019   8.020   6.527   3.638  1.6893  1.3726  0.2020
  354TIP3    H2 1020   7.973   6.626   3.742 -1.7391  0.2947 -0.2122
  355TIP3   OH2 1021   4.287   0.084   3.372  0.0261  0.2868 -0.3041
  355TIP3    H1 1022   4.224   0.015   3.392  0.0588 -0.0179 -1.1819
  355TIP3    H2 1023   4.277   0.098   3.278  0.7995  0.7008 -0.3335
  356TIP3   OH2 1024   5.011   1.217   5.358  0.6054 -0.0575  0.1758
  356TIP3    H1 1025   4.949   1.224   5.430 -0.3735  1.9506 -0.7806
  356TIP3    H2 1026   5.085   1.272   5.385  1.7193 -1.8600  0.9886
  357TIP3   OH2 1027   3.760   4.386   2.757  0.0470 -0.5280 -0.3983
  357TIP3    H1 1028   3.734   4.342   2.677  0.0737  0.4220 -0.9443
  357TIP3    H2 1029   3.680   4.430   2.787  0.3594  0.2181 -0.6390
  358TIP3   OH2 1030   4.669   5.128   3.741 -0.3607  0.7182  0.6095
  358TIP3    H1 1031   4.724   5.052   3.758 -1.7936 -0.5691 -0.2709
  358TIP3    H2 1032   4.692   5.156   3.653  0.7466  1.8512  1.2333
  359TIP3   OH2 1033   2.972   0.213   2.005  0.4463  1.0224 -0.1894
  359TIP3    H1 1034   2.949   0.300   1.973  1.1779  1.8218  1.3275
  359TIP3    H2 1035   2.966   0.220   2.100  0.6884 -0.5378 -0.0309
  360TIP3   OH2 1036   2.701   2.124   4.284 -0.0663  0.4838  0.1450
  360TIP3    H1 1037   2.774   2.158   4.233  0.8768 -2.5775 -0.7497
  360TIP3    H2 1038   2.626   2.129   4.225 -0.4294  2.7146  0.7221
  361TIP3   OH2 1039   5.296   5.640   5.332  0.5059  0.3705 -0.2764
  361TIP3    H1 1040   5.332   5.573   5.273  0.4928  0.6143 -0.5603
  361TIP3    H2 1041   5.267   5.710   5.274  1.6232  1.1646  0.0908
  362TIP3   OH2 1042   7.112   0.386   3.222 -0.2918  0.4551 -0.2788
  362TIP3    H1 1043   7.149   0.368   3.309 -1.2707  0.4377  0.1503
  362TIP3    H2 1044   7.147   0.471   3.198  1.2528 -0.2313 -0.5856
  363TIP3   OH2 1045   7.157   3.937   2.796  0.1368 -0.0780  0.2828
  363TIP3    H1 1046   7.229   3.998   2.814  0.2317 -0.0404 -0.2167
  363TIP3    H2 1047   7.148   3.887   2.877 -0.3911  1.0537  0.9503
  364TIP3   OH2 1048   2.798   4.401   1.096 -0.7839  0.4570  0.0892
  364TIP3    H1 1049   2.854   4.445   1.160 -2.8281 -0.3568  2.6019
  364TIP3    H2 1050   2.751   4.473   1.053  0.4938  1.0112 -0.4328
  365TIP3   OH2 1051   2.547   4.125   4.235  0.6021  0.0225  0.1008
  365TIP3    H1 1052   2.531   4.141   4.142  1.9551  0.6850 -0.0393
  365TIP3    H2 1053   2.587   4.038   4.238  2.3785  0.8028 -0.1594
  366TIP3   OH2 1054   3.058   2.413   0.968  0.3523 -0.1738 -0.0795
  366TIP3    H1 1055   3.147   2.402   1.001 -0.1444 -1.4048  0.9510
  366TIP3    H2 1056   3.003   2.368   1.032 -1.0170  0.5495 -0.6987
  367TIP3   OH2 1057   1.308   1.311   1.814 -0.2895  0.3321  0.5437
  367TIP3    H1 1058   1.343   1.375   1.876  1.0456 -0.0234  0.1902
  367TIP3    H2 1059   1.378   1.247   1.804 -1.0969 -0.4699 -0.1301
  368TIP3   OH2 1060   7.332   2.250   1.032 -0.0047 -0.0824 -0.3956
  368TIP3    H1 1061   7.373   2.330   1.001 -0.6816 -0.2767 -1.9004
  368TIP3    H2 1062   7.307   2.203   0.952 -2.4121 -0.3284  0.4224
  369TIP3   OH2 1063   1.226   1.670   5.837 -0.0024 -0.3379  0.2417
  369TIP3    H1 1064   1.210   1.746   5.894 -0.7558 -0.8774  0.7635
  369TIP3    H2 1065   1.321   1.669   5.826  0.2124 -0.4051  1.7689
  370TIP3   OH2 1066   4.027   2.903   6.455 -0.4024  0.1327 -0.3403
  370TIP3    H1 1067   3.988   2.936   6.536 -0.2299 -1.0947  0.2680
  370TIP3    H2 1068   3.953   2.868   6.406 -0.3212 -0.4251 -0.0657
  371TIP3   OH2 1069   3.130   5.124   4.410  0.4809 -0.0828  0.0359
  371TIP3    H1 1070   3.124   5.044   4.357  0.2498 -0.2554  0.3206
  371TIP3    H2 1071   3.129   5.093   4.500 -2.5785  0.3918  0.2540
  372TIP3   OH2 1072   2.527   4.305   1.239  0.2622  0.4266  0.0647
  372TIP3    H1 1073   2.484   4.283   1.156  0.7928 -1.3106  0.2092
  372TIP3    H2 1074   2.620   4.315   1.217  0.2858  0.7816  0.3137
  373TIP3   OH2 1075   2.445   1.551   2.134  0.4464  1.1037  0.3253
  373TIP3    H1 1076   2.382   1.501   2.083  1.1119  1.6693 -1.1296
  373TIP3    H2 1077   2.499   1.485   2.178  0.2229  0.5881 -0.1649
  374TIP3   OH2 1078   0.065   6.566   0.574  0.4077  0.3351  0.0839
  374TIP3    H1 1079   0.110   6.494   0.616 -0.9546 -1.1035 -0.7965
  374TIP3    H2 1080   0.070   6.546   0.480 -4.3189 -1.5014 -0.0376
  375TIP3   OH2 1081   6.861   0.320   1.846 -0.2892 -0.3765 -0.4250
  375TIP3    H1 1082   6.863   0.315   1.941  0.7493  0.5291 -0.3752
  375TIP3    H2 1083   6.789   0.263   1.820 -1.6343  0.6098  0.9853
  376TIP3   OH2 1084   5.596   5.815   6.579  0.2278 -0.6400  0.6182
  376TIP3    H1 1085   5.544   5.738   6.602 -0.1382 -1.5154 -2.6641
  376TIP3    H2 1086   5.533   5.876   6.540  1.0204 -0.0196  0.2767
  377TIP3   OH2 1087   0.939   4.337   1.199  0.4470  0.1562 -0.2229
  377TIP3    H1 1088   1.010   4.344   1.135  1.2775 -0.6344  0.5588
  377TIP3    H2 1089   0.954   4.252   1.241 -0.6529  0.2214  0.3429
  378TIP3   OH2 1090   3.012   5.026   3.215  0.1213  0.1534  0.6738
  378TIP3    H1 1091   3.021   5.008   3.309 -0.6967 -0.4082  0.6538
  378TIP3    H2 1092   3.013   5.121   3.208  0.5537  0.1917  1.2131
  379TIP3   OH2 1093   5.196   4.578   5.780  0.0892  0.1491  0.0612
  379TIP3    H1 1094   5.272   4.536   5.741  0.2577  0.0282  0.5095
  379TIP3    H2 1095   5.165   4.641   5.714  0.1361 -0.3215 -0.4080
  380TIP3   OH2 1096   5.579   7.037   0.517 -0.7543  0.0635  0.2876
  380TIP3    H1 1097   5.671   7.048   0.494 -0.7826  0.8649  0.5226
  380TIP3    H2 1098   5.532   7.058   0.436 -0.7420  0.0187  0.2689
  381TIP3   OH2 1099   4.332   1.196   6.329 -0.2073 -0.1882  0.3180
  381TIP3    H1 1100   4.416   1.228   6.361  0.6361  0.2915 -2.2179
  381TIP3    H2 1101   4.346   1.102   6.316 -0.2584 -0.2139  0.4447
  382TIP3   OH2 1102   0.063   1.935   0.919  0.2581  0.0897  0.5589
  382TIP3    H1 1103   0.076   1.958   1.011  2.2354 -0.6422  0.5151
  382TIP3    H2 1104   0.029   1.845   0.921  0.5366 -0.0158  0.5735
  383TIP3   OH2 1105   4.647   3.867   2.304 -0.1377  0.4700 -0.1137
  383TIP3    H1 1106   4.566   3.826   2.336  0.7137 -0.1657  1.3426
  383TIP3    H2 1107   4.690   3.900   2.383  1.6910 -0.4611 -0.6631
  384TIP3   OH2 1108   0.098   0.923   4.412  0.5510  0.1049  0.0926
  384TIP3    H1 1109   0.163   0.982   4.450  0.8068  0.1792 -0.4601
  384TIP3    H2 1110   0.138   0.891   4.332  0.4464 -0.8918  0.4229
  385TIP3   OH2 1111   6.538   7.844   6.177 -0.5392  0.5091  0.1399
  385TIP3    H1 1112   6.468   7.782   6.198  0.7581 -0.8525  0.6384
  385TIP3    H2 1113   6.603   7.831   6.247  0.6167  1.0883 -0.7958
  386TIP3   OH2 1114   2.913   2.271   1.130  0.2464  0.7932 -0.0738
  386TIP3    H1 1115   2.843   2.317   1.084  0.1974  0.5885 -0.2063
  386TIP3    H2 1116   2.868   2.214   1.192  0.2906  0.5580 -0.2569
  387TIP3   OH2 1117   0.943   4.859   0.113 -0.0055 -0.3996  0.5504
  387TIP3    H1 1118   0.904   4.772   0.098 -1.3277  0.5347 -2.0036
  387TIP3    H2 1119   1.032   4.851   0.081 -0.4027 -0.6009 -0.5384
  388TIP3   OH2 1120   4.520   1.922   3.296  0.0649 -0.4711 -0.2207
  388TIP3    H1 1121   4.538   1.869   3.219  0.5691 -0.0742 -0.3778
  388TIP3    H2 1122   4.602   1.968   3.315 -0.5004  0.6532 -0.4029
  389TIP3   OH2 1123   1.838   3.386   1.719  0.1857  0.2490 -0.3180
  389TIP3    H1 1124   1.834   3.290   1.720  0.1437  0.1792 -2.4117
  389TIP3    H2 1125   1.916   3.407   1.768 -0.6931 -0.7482  1.6335
  390TIP3   OH2 1126   6.548   4.222   3.994  0.4002  0.4499  0.1936
  390TIP3    H1 1127   6.513   4.211   4.082 -1.8986  1.6225 -0.4873
  390TIP3    H2 1128   6.541   4.135   3.954 -1.0992  0.4720  0.3455
  391TIP3   OH2 1129   5.340   6.385   5.607  0.2758 -0.5258  0.0586
  391TIP3    H1 1130   5.369   6.422   5.524 -0.2086 -0.5757 -0.1411
  391TIP3    H2 1131   5.414   6.333   5.637  0.6832 -0.0109 -0.0320
  392TIP3   OH2 1132   3.879   4.077   0.105 -0.0023  0.5503 -0.1286
  392TIP3    H1 1133   3.832   4.159   0.122  1.1000  1.0439  0.7083
  392TIP3    H2 1134   3.892   4.076   0.011 -0.4811  1.0856 -0.2086
  393TIP3   OH2 1135   2.570   1.457   1.425  0.0559  0.2106  0.3161
  393TIP3    H1 1136   2.520   1.377   1.443  2.1386 -1.3366 -0.3624
  393TIP3    H2 1137   2.613   1.478   1.507 -0.2436  0.4798  0.4084
  394TIP3   OH2 1138   4.093   4.458   6.138 -0.2930  0.3345 -0.4914
  394TIP3    H1 1139   4.017   4.432   6.086 -0.8539  1.7090 -0.3879
  394TIP3    H2 1140   4.160   4.479   6.073 -0.3488  0.1694 -0.6047
  395TIP3   OH2 1141   4.142   5.375   5.716  0.2619  0.4285  0.3648
  395TIP3    H1 1142   4.185   5.291   5.699  1.4294  1.0571  0.0675
  395TIP3    H2 1143   4.075   5.355   5.782  0.1977 -0.8110 -0.0511
  396TIP3   OH2 1144   5.859   0.038   2.523  0.3598 -0.5631 -0.0686
  396TIP3    H1 1145   5.905  -0.043   2.499  1.7848  0.1220  0.2648
  396TIP3    H2 1146   5.797   0.011   2.590  0.9194 -1.3776  0.1440
  397TIP3   OH2 1147   5.763   0.941   0.954  0.0796 -0.0322 -0.2900
  397TIP3    H1 1148   5.673   0.940   0.986  0.3537 -3.3504  0.7442
  397TIP3    H2 1149   5.789   1.033   0.959 -2.8887  0.8875  0.3290
  398TIP3   OH2 1150   7.770   2.044   1.281 -0.6631 -0.0603  0.0200
  398TIP3    H1 1151   7.790   2.118   1.339 -0.7150  0.8920 -1.1501
  398TIP3    H2 1152   7.675   2.049   1.268 -0.8497 -1.0213  0.8029
  399TIP3   OH2 1153   0.213   6.352   0.081 -0.3560  0.2524  0.0065
  399TIP3    H1 1154   0.140   6.415   0.080  0.1175  0.8704  1.2176
  399TIP3    H2 1155   0.234   6.338  -0.011 -2.2728 -0.2718 -0.3962
  400TIP3   OH2 1156   4.284   5.124   0.093 -0.4964 -0.0730  0.6999
  400TIP3    H1 1157   4.228   5.194   0.060 -0.2929  0.8612  2.2395
  400TIP3    H2 1158   4.347   5.168   0.150  0.8018 -1.3012  0.2976
  401TIP3   OH2 1159   7.763   3.569   2.686  0.6465  0.0189 -0.3499
  401TIP3    H1 1160   7.823   3.640   2.663 -0.6183  1.2470  0.0245
  401TIP3    H2 1161   7.677   3.610   2.685  0.1260 -0.8383  2.6117
  402TIP3   OH2 1162   5.107   6.147   6.589 -0.0035 -0.3967  0.2659
  402TIP3    H1 1163   5.025   6.194   6.603  0.4212  0.5023 -0.2035
  402TIP3    H2 1164   5.133   6.118   6.677 -0.3083  0.1978  0.5587
  403TIP3   OH2 1165   5.338   1.073   0.535 -0.3989  0.2427 -0.1396
  403TIP3    H1 1166   5.286   1.152   0.543 -0.7306 -0.0370  0.5395
  403TIP3    H2 1167   5.318   1.023   0.614  0.4735 -0.1214 -0.1359
  404TIP3   OH2 1168   4.324   7.565   2.403  0.0451  0.1757 -0.0854
  404TIP3    H1 1169   4.309   7.627   2.474  1.1075  0.0175  0.2967
  404TIP3    H2 1170   4.304   7.614   2.323  3.6764  2.0370 -0.0293
  405TIP3   OH2 1171   4.152   3.503   0.681 -0.4214  0.2065 -0.4608
  405TIP3    H1 1172   4.120   3.442   0.613 -2.8809  2.1059 -1.1715
  405TIP3    H2 1173   4.109   3.473   0.761  1.1033 -0.9874 -0.0487
  406TIP3   OH2 1174   7.779   4.642   0.744 -0.2415 -0.7475  0.6471
  406TIP3    H1 1175   7.781   4.688   0.660 -1.7679  0.5319  1.2695
  406TIP3    H2 1176   7.833   4.565   0.730  0.1856 -0.1536 -1.2668
  407TIP3   OH2 1177   8.097   3.537   3.294  0.5116 -0.1796  0.0668
  407TIP3    H1 1178   8.040   3.585   3.353  1.6487  1.8371 -0.3939
  407TIP3    H2 1179   8.117   3.455   3.341  0.0294  0.6125  1.7207
  408TIP3   OH2 1180   3.792   6.310   4.418  0.0861  0.3743 -0.1023
  408TIP3    H1 1181   3.832   6.390   4.385 -1.3701  0.9005 -0.6497
  408TIP3    H2 1182   3.713   6.340   4.464  0.9497 -0.5091  2.1232
  409TIP3   OH2 1183   7.573   2.082   4.096 -0.3162  0.2130 -0.1056
  409TIP3    H1 1184   7.537   2.171   4.100 -1.6444 -0.2913 -0.3991
  409TIP3    H2 1185   7.623   2.080   4.014 -0.6033  0.5642 -0.2894
  410TIP3   OH2 1186   1.405   5.453   5.708  0.0797  0.0990 -0.0986
  410TIP3    H1 1187   1.389   5.493   5.622  0.4116  0.2433 -0.0931
  410TIP3    H2 1188   1.498   5.429   5.707  0.3272  0.9810  0.5834
  411TIP3   OH2 1189   1.800   3.637   4.528  0.3466 -0.3952  0.1480
  411TIP3    H1 1190   1.748   3.684   4.463 -0.0800  0.8744  1.3428
  411TIP3    H2 1191   1.866   3.590   4.478  0.4981  1.1413 -1.1546
  412TIP3   OH2 1192   7.229   7.630   3.893  0.5336  0.0921  0.2028
  412TIP3    H1 1193   7.266   7.711   3.927  2.2223 -0.2988 -0.5627
  412TIP3    H2 1194   7.135   7.643   3.897  0.7550  1.8785  0.5902
  413TIP3   OH2 1195   5.978   5.116   0.414  0.6428  0.3944 -0.2228
  413TIP3    H1 1196   5.915   5.162   0.359 -0.1437 -0.2493  0.1081
  413TIP3    H2 1197   5.944   5.126   0.503  0.7831 -0.2946 -0.0826
  414TIP3   OH2 1198   6.125   3.627   3.212 -0.2680  0.1468 -0.0416
  414TIP3    H1 1199   6.209   3.633   3.167 -1.0508 -0.8146 -1.7480
  414TIP3    H2 1200   6.087   3.715   3.204  0.2656  0.4026  0.1577
  415TIP3   OH2 1201   8.162   0.048   0.627 -0.0206 -0.4741  0.0720
  415TIP3    H1 1202   8.145   0.066   0.535  0.9299 -1.5549 -0.3482
  415TIP3    H2 1203   8.188  -0.044   0.629 -1.3726 -0.8590  1.6251
  416TIP3   OH2 1204   0.106   3.372   0.645 -0.4098  0.2714 -0.4398
  416TIP3    H1 1205   0.116   3.464   0.670 -0.1004 -0.0268  0.5819
  416TIP3    H2 1206   0.017   3.349   0.671 -0.9523  0.6419 -1.9252
  417TIP3   OH2 1207   0.236   3.848   4.566  0.1817  0.2709 -0.0311
  417TIP3    H1 1208   0.263   3.805   4.647 -1.0044  1.2365  0.9197
  417TIP3    H2 1209   0.301   3.916   4.551 -1.0389  1.9388  1.7031
  418TIP3   OH2 1210   0.333   4.621   0.420 -0.1044 -0.5192  0.2200
  418TIP3    H1 1211   0.398   4.585   0.360  2.3490  2.2464  1.0209
  418TIP3    H2 1212   0.364   4.596   0.507 -1.1168 -0.6047  0.5778
  419TIP3   OH2 1213   4.722   5.307   1.842 -0.4718  0.1463 -0.1810
  419TIP3    H1 1214   4.731   5.211   1.841 -1.1205  0.0795 -0.1425
  419TIP3    H2 1215   4.795   5.338   1.788 -0.3997 -0.3838 -0.4016
  420TIP3   OH2 1216   4.176   2.148   2.566 -0.0627  0.1187 -0.5139
  420TIP3    H1 1217   4.088   2.134   2.532 -0.0100 -0.5522 -0.3774
  420TIP3    H2 1218   4.196   2.239   2.542 -0.2398 -0.1559 -1.7770
  421TIP3   OH2 1219   5.126   4.740   2.411 -0.0072  0.1394 -0.0812
  421TIP3    H1 1220   5.108   4.647   2.393 -2.6988  0.6859 -0.6604
  421TIP3    H2 1221   5.190   4.738   2.482  1.0973 -2.1343 -1.0113
  422TIP3   OH2 1222   5.205   4.552   2.979  0.5319 -0.1873  0.3522
  422TIP3    H1 1223   5.214   4.456   2.980  1.8988 -0.0812  0.5358
  422TIP3    H2 1224   5.251   4.579   2.900 -1.4326  0.2180 -0.6980
  423TIP3   OH2 1225   2.491   7.090   5.079 -0.1085 -0.6676 -0.0979
  423TIP3    H1 1226   2.583   7.106   5.060 -0.2141 -2.2661 -2.3780
  423TIP3    H2 1227   2.471   7.149   5.152  1.9413  1.8348 -1.3933
  424TIP3   OH2 1228   4.418   1.338   1.614  0.4452  0.1217  0.2182
  424TIP3    H1 1229   4.347   1.402   1.618 -1.7757 -2.1963  0.1579
  424TIP3    H2 1230   4.424   1.314   1.522  1.7520  0.7011  0.1262
  425TIP3   OH2 1231   7.031   0.380   3.564  0.7470 -0.3154  0.0559
  425TIP3    H1 1232   6.953   0.435   3.557  0.6422 -0.1372  2.0483
  425TIP3    H2 1233   7.001   0.292   3.540 -0.6806 -0.6789  2.7444
  426TIP3   OH2 1234   1.189   7.384   3.091 -0.8286  0.0960  0.1098
  426TIP3    H1 1235   1.140   7.399   3.172 -0.8795 -1.1341  0.3280
  426TIP3    H2 1236   1.273   7.428   3.105 -1.0523  0.3711  0.5977
  427TIP3   OH2 1237   0.939   2.719   6.529  0.0503 -0.4824  0.1230
  427TIP3    H1 1238   0.993   2.690   6.602  0.5481 -2.1770 -0.8606
  427TIP3    H2 1239   0.984   2.687   6.451 -0.5283  1.1519 -0.9528
  428TIP3   OH2 1240   5.011   5.283   4.328 -0.0997 -0.1150 -0.0548
  428TIP3    H1 1241   5.098   5.323   4.335 -1.3273  2.6948  0.5805
  428TIP3    H2 1242   4.988   5.293   4.236  0.2974 -1.0910 -0.2777
  429TIP3   OH2 1243   4.519   7.779   6.262  0.4522 -0.1685 -0.0817
  429TIP3    H1 1244   4.580   7.850   6.279  1.9797 -1.2931 -0.6644
  429TIP3    H2 1245   4.559   7.702   6.302 -0.7851 -0.8717 -0.1282
  430TIP3   OH2 1246   8.191   5.670   6.359 -0.4119 -0.1899  0.7422
  430TIP3    H1 1247   8.118   5.672   6.297  0.5757  1.3818 -0.4915
  430TIP3    H2 1248   8.201   5.762   6.386 -0.2013 -0.7109  2.5142
  431TIP3   OH2 1249   1.283   3.356   0.451  0.0968 -0.2561 -0.2337
  431TIP3    H1 1250   1.309   3.365   0.359 -0.5885 -1.6824 -0.6011
  431TIP3    H2 1251   1.211   3.418   0.462 -1.1097 -1.4089 -1.2323
  432TIP3   OH2 1252   4.775   3.871   5.466  0.0096 -0.2425  0.1022
  432TIP3    H1 1253   4.791   3.960   5.498 -1.8797 -0.1888  0.9746
  432TIP3    H2 1254   4.720   3.883   5.388 -1.1913 -0.6835  0.8714
  433TIP3   OH2 1255   6.143   7.092   3.235 -0.4937 -0.4725  0.2325
  433TIP3    H1 1256   6.171   7.033   3.304 -2.1079 -0.0305  1.3293
  433TIP3    H2 1257   6.048   7.079   3.229 -0.9447  2.0537  0.6350
  434TIP3   OH2 1258   8.023   1.020   1.814  0.2036  0.0796 -0.6128
  434TIP3    H1 1259   8.116   1.011   1.797 -0.0068 -0.0508 -1.7804
  434TIP3    H2 1260   8.011   0.987   1.903  1.5296  1.8296  0.2704
  435TIP3   OH2 1261   4.489   0.033   4.832 -0.3093 -0.2261 -0.4514
  435TIP3    H1 1262   4.429  -0.032   4.867 -1.5151  1.3283  0.5353
  435TIP3    H2 1263   4.434   0.110   4.815  1.0350  0.5167 -1.6376
  436TIP3   OH2 1264   0.525   1.482   3.594  0.0970 -0.5173 -0.3257
  436TIP3    H1 1265   0.572   1.408   3.633 -0.4853 -0.0692  1.2942
  436TIP3    H2 1266   0.519   1.546   3.665  0.7250  1.1726 -1.7366
  437TIP3   OH2 1267   4.845   1.978   5.990 -0.1194  0.3712  0.3688
  437TIP3    H1 1268   4.762   1.992   5.945  0.0105  1.2509  0.3890
  437TIP3    H2 1269   4.824   1.914   6.058 -0.9300  1.0398  0.7712
  438TIP3   OH2 1270   2.051   5.618   4.414 -0.1618  0.0917  0.1348
  438TIP3    H1 1271   1.958   5.607   4.434 -0.6463  1.8008 -0.9359
  438TIP3    H2 1272   2.083   5.529   4.397 -1.2415 -0.6810  1.8582
  439TIP3   OH2 1273   3.205   3.378   5.674 -0.5892 -0.0334 -0.5158
  439TIP3    H1 1274   3.252   3.450   5.632 -0.6737  0.1149 -0.3583
  439TIP3    H2 1275   3.208   3.307   5.610  1.3450 -0.6215  0.1634
  440TIP3   OH2 1276   5.394   1.686   5.718  0.0488 -0.5755  0.4058
  440TIP3    H1 1277   5.307   1.720   5.741 -1.8165 -2.9645 -2.3370
  440TIP3    H2 1278   5.429   1.749   5.655 -0.1005 -0.0471  0.8529
  441TIP3   OH2 1279   0.278   6.981   4.739 -0.4737 -0.1057 -0.3835
  441TIP3    H1 1280   0.287   6.901   4.688 -0.0486 -0.9472  0.9472
  441TIP3    H2 1281   0.188   6.980   4.771 -0.2111 -0.5343  0.3693
  442TIP3   OH2 1282   5.005   3.940   2.010 -0.0057  0.4999 -0.3988
  442TIP3    H1 1283   5.010   4.035   2.015  0.8230  0.4295  0.5708
  442TIP3    H2 1284   5.079   3.914   1.955 -1.3733  0.5044 -2.3048
  443TIP3   OH2 1285   4.786   0.289   2.893  0.4689 -0.2882 -0.2342
  443TIP3    H1 1286   4.868   0.268   2.938  0.1137 -0.2617  0.4301
  443TIP3    H2 1287   4.774   0.383   2.906  0.3342 -0.2890 -0.3447
  444TIP3   OH2 1288   4.818   7.184   4.973  0.4994  0.2879  0.0500
  444TIP3    H1 1289   4.865   7.241   5.034 -0.7189  3.2832 -1.5944
  444TIP3    H2 1290   4.867   7.190   4.892 -0.0833 -0.4044 -0.3624
  445TIP3   OH2 1291   4.494   3.718   4.063 -1.0109 -0.1704  0.1608
  445TIP3    H1 1292   4.447   3.721   3.980 -0.2743 -1.3730 -0.3298
  445TIP3    H2 1293   4.448   3.652   4.115  0.3846 -1.7968 -0.5459
  446TIP3   OH2 1294   8.044   2.358   5.441  0.3702  0.3646  0.0600
  446TIP3    H1 1295   8.029   2.266   5.418 -2.7228  1.0291 -1.0997
  446TIP3    H2 1296   8.106   2.355   5.514  1.4700 -2.5224 -0.8514
  447TIP3   OH2 1297   7.915   5.250   3.949 -0.1422  0.0992 -0.0333
  447TIP3    H1 1298   7.994   5.211   3.988 -1.0638 -2.2928 -0.3898
  447TIP3    H2 1299   7.867   5.287   4.024  1.3440  1.7771  0.1645
  448TIP3   OH2 1300   2.883   5.735   3.732 -0.1761  0.0683 -0.2163
  448TIP3    H1 1301   2.874   5.782   3.815 -0.0758  0.6573 -0.5358
  448TIP3    H2 1302   2.922   5.652   3.756 -1.9567 -0.5933  0.5949
  449TIP3   OH2 1303   3.259   0.816   2.179 -0.3754  0.1656 -0.3976
  449TIP3    H1 1304   3.221   0.900   2.204 -0.7381 -0.0817 -0.1058
  449TIP3    H2 1305   3.273   0.823   2.085 -0.3178  0.5843 -0.3614
  450TIP3   OH2 1306   1.321   2.551   2.477 -0.4032 -0.2109  0.2669
  450TIP3    H1 1307   1.361   2.536   2.563 -0.2788  0.4397  0.3328
  450TIP3    H2 1308   1.282   2.639   2.485 -0.9785 -0.4288 -0.1201
  451TIP3   OH2 1309   8.271   1.722   1.123 -0.5581 -0.1200  0.0508
  451TIP3    H1 1310   8.186   1.756   1.098  0.5461  0.6101 -3.2079
  451TIP3    H2 1311   8.318   1.798   1.158 -0.2661  0.2277 -1.0570
  452TIP3   OH2 1312   6.468   0.185   0.824  0.2449 -0.3908  0.1850
  452TIP3    H1 1313   6.500   0.257   0.772  0.2138  0.0578  0.7722
  452TIP3    H2 1314   6.373   0.198   0.828  0.3281  0.0386  1.0107
  453TIP3   OH2 1315   2.158   3.927   5.216  0.2016  0.5983  0.0794
  453TIP3    H1 1316   2.186   3.874   5.141  0.0223  0.9516 -0.2442
  453TIP3    H2 1317   2.226   3.914   5.282  1.5869  2.0661 -0.9837
  454TIP3   OH2 1318   1.867   5.717   3.472 -0.0208  0.2272 -0.0232
  454TIP3    H1 1319   1.816   5.792   3.440 -1.6892 -0.7063  0.3483
  454TIP3    H2 1320   1.888   5.667   3.393 -0.8950 -0.1037 -0.0568
  455TIP3   OH2 1321   4.565   4.969   2.757  0.3947 -0.7850  0.2539
  455TIP3    H1 1322   4.546   5.044   2.814  0.8917  0.0106 -0.5937
  455TIP3    H2 1323   4.521   4.895   2.799 -1.7937  0.3393  0.1107
  456TIP3   OH2 1324   6.358   1.627   1.347 -0.3646 -0.2356 -0.5719
  456TIP3    H1 1325   6.408   1.694   1.299 -0.7297  0.0386 -0.5720
  456TIP3    H2 1326   6.424   1.581   1.398 -0.2377  0.8432  0.2807
  457TIP3   OH2 1327   0.963   2.390   1.238 -0.3669  0.0940 -0.1292
  457TIP3    H1 1328   1.057   2.369   1.234 -0.0272  1.5372 -2.7813
  457TIP3    H2 1329   0.921   2.311   1.270  1.5719 -1.4707 -1.2239
  458TIP3   OH2 1330   6.231   2.523   2.591 -0.5552 -0.1304  0.0085
  458TIP3    H1 1331   6.202   2.563   2.673 -0.6469  2.0743 -1.0285
  458TIP3    H2 1332   6.320   2.555   2.579  0.1231 -1.8652  0.0703
  459TIP3   OH2 1333   0.221   2.577   4.247  0.0941  0.4486  0.0241
  459TIP3    H1 1334   0.165   2.639   4.294  0.7744  1.5574 -0.5696
  459TIP3    H2 1335   0.309   2.615   4.253  0.8273 -1.2575  0.9506
  460TIP3   OH2 1336   0.331   4.573   6.456 -0.0506  0.1350 -0.2067
  460TIP3    H1 1337   0.330   4.666   6.478 -1.0071 -0.0373  0.5469
  460TIP3    H2 1338   0.281   4.531   6.526  1.0220 -1.0516 -0.0957
  461TIP3   OH2 1339   7.038   6.735   3.573  0.6557  0.0107  0.1705
  461TIP3    H1 1340   6.944   6.752   3.565  0.9520  1.0977 -1.4324
  461TIP3    H2 1341   7.075   6.814   3.611  0.9595 -0.3132  0.5614
  462TIP3   OH2 1342   0.877   7.182   2.151 -0.4539  0.3425 -0.5152
  462TIP3    H1 1343   0.810   7.114   2.152 -0.1163  0.0018 -0.8756
  462TIP3    H2 1344   0.842   7.250   2.209 -0.2754 -0.6162  0.7673
  463TIP3   OH2 1345   3.458   7.206   3.554  0.0189 -0.2598 -0.4720
  463TIP3    H1 1346   3.377   7.214   3.505 -0.9477 -0.0573  1.0823
  463TIP3    H2 1347   3.438   7.244   3.640  0.8986 -2.6729  0.9053
  464TIP3   OH2 1348   4.662   3.214   3.612 -0.2110  0.0023 -0.2847
  464TIP3    H1 1349   4.661   3.273   3.687 -0.8818  0.2570 -0.4888
  464TIP3    H2 1350   4.755   3.197   3.597  0.0718  1.7801 -0.8280
  465TIP3   OH2 1351   7.721   1.365   0.595  0.2828  0.0191 -0.3750
  465TIP3    H1 1352   7.735   1.306   0.669  3.3548  0.7812 -0.2027
  465TIP3    H2 1353   7.711   1.452   0.635 -0.8001  0.1025 -0.7802
  466TIP3   OH2 1354   0.482   0.644   4.280  0.0014  0.3819  0.3857
  466TIP3    H1 1355   0.482   0.585   4.204 -0.3619 -0.0221  0.6920
  466TIP3    H2 1356   0.574   0.648   4.307 -0.2258 -1.9699  1.8101
  467TIP3   OH2 1357   3.820   5.614   1.391 -0.2515  0.1921  0.3096
  467TIP3    H1 1358   3.886   5.654   1.448 -1.4758  0.5722  1.5158
  467TIP3    H2 1359   3.792   5.685   1.334  1.2234 -0.2727 -1.0716
  468TIP3   OH2 1360   6.606   1.432   6.482  0.4083  0.3560  0.7015
  468TIP3    H1 1361   6.638   1.404   6.396  0.5953 -2.7082  1.6628
  468TIP3    H2 1362   6.682   1.474   6.522  0.2725  1.9799 -0.6145
  469TIP3   OH2 1363   0.754   3.481   0.549 -0.4355 -0.1362  0.2058
  469TIP3    H1 1364   0.816   3.554   0.546  0.4759 -0.8783 -2.0876
  469TIP3    H2 1365   0.803   3.409   0.590 -0.7713  0.0728  0.9809
  470TIP3   OH2 1366   2.082   6.543   3.726  0.0086 -0.1146  0.2214
  470TIP3    H1 1367   2.013   6.565   3.788  0.0993 -0.6682  0.5241
  470TIP3    H2 1368   2.066   6.600   3.651 -0.5942 -0.0206  0.4181
  471TIP3   OH2 1369   0.139   0.319   3.733  0.0283  0.1474 -0.1234
  471TIP3    H1 1370   0.176   0.391   3.683  0.0624  0.4849  0.3800
  471TIP3    H2 1371   0.078   0.276   3.673 -1.5696  1.8433  0.1983
  472TIP3   OH2 1372   6.855   5.178   1.718 -0.1375 -0.1645 -0.1552
  472TIP3    H1 1373   6.795   5.133   1.659 -0.0354 -0.6190  0.0842
  472TIP3    H2 1374   6.852   5.270   1.690 -0.5361 -0.2754 -0.4840
  473TIP3   OH2 1375   0.852   4.821   5.286 -0.1779 -0.1705 -0.1427
  473TIP3    H1 1376   0.844   4.838   5.380 -0.9206 -0.3963 -0.1576
  473TIP3    H2 1377   0.945   4.830   5.268 -0.2320  1.5917  0.2820
  474TIP3   OH2 1378   3.037   0.940   3.985  0.4791  1.0053 -0.2717
  474TIP3    H1 1379   3.078   1.004   3.926 -0.5733  0.9896 -1.0309
  474TIP3    H2 1380   3.036   0.858   3.936  0.2674  0.8139  0.0469
  475TIP3   OH2 1381   8.298   3.948   4.459 -0.3310  0.0786  0.4536
  475TIP3    H1 1382   8.220   3.931   4.407 -0.5371 -0.5894  0.9699
  475TIP3    H2 1383   8.345   3.865   4.460  0.1320  0.3378  0.5680
  476TIP3   OH2 1384   4.477   3.818   5.616 -0.0900  0.3337 -0.1283
  476TIP3    H1 1385   4.558   3.803   5.665 -0.7399 -0.3062  0.7742
  476TIP3    H2 1386   4.502   3.805   5.524  1.0589  1.1906  0.0457
  477TIP3   OH2 1387   5.812   5.081   4.127  0.1390  0.0070  0.3198
  477TIP3    H1 1388   5.873   5.151   4.149 -0.1085  0.6906 -1.0504
  477TIP3    H2 1389   5.807   5.082   4.031 -0.7804 -1.0973  0.3298
  478TIP3   OH2 1390   3.957   2.262   0.477  0.1365 -0.4780 -0.2160
  478TIP3    H1 1391   3.923   2.263   0.567 -1.2614  1.6167 -0.7098
  478TIP3    H2 1392   4.001   2.177   0.470 -0.9217 -1.3051  1.9906
  479TIP3   OH2 1393   3.414   2.378   6.051 -0.4791 -0.6235 -0.7846
  479TIP3    H1 1394   3.477   2.311   6.076  1.5817  1.4665 -0.0763
  479TIP3    H2 1395   3.376   2.345   5.970  1.4456 -2.0249 -1.1965
  480TIP3   OH2 1396   1.526   1.052   5.202 -0.3217  0.1302 -0.2264
  480TIP3    H1 1397   1.582   1.120   5.239 -0.7497 -0.3074  1.3073
  480TIP3    H2 1398   1.515   1.077   5.111  0.3801  1.5440  0.0453
  481TIP3   OH2 1399   1.117   3.891   6.338 -0.1146 -0.9664 -0.0089
  481TIP3    H1 1400   1.094   3.982   6.357 -1.2686 -1.2095 -0.1798
  481TIP3    H2 1401   1.172   3.896   6.260  0.0045 -0.3988  0.1067
  482TIP3   OH2 1402   7.610   3.485   0.555 -0.6994  0.4041 -0.3029
  482TIP3    H1 1403   7.642   3.467   0.467 -0.9492  1.0517 -0.5281
  482TIP3    H2 1404   7.562   3.405   0.580 -0.0218 -0.0642 -0.4596
  483TIP3   OH2 1405   4.303   3.875   1.682 -0.7967 -0.2895  0.1461
  483TIP3    H1 1406   4.210   3.858   1.703 -0.7486 -0.7299  0.0110
  483TIP3    H2 1407   4.349   3.799   1.718 -0.4271  0.1616  0.6479
  484TIP3   OH2 1408   7.156   0.276   2.143 -0.3633 -0.7586 -0.5703
  484TIP3    H1 1409   7.186   0.344   2.083 -0.9528  0.5707  0.5943
  484TIP3    H2 1410   7.062   0.270   2.128 -0.6514  0.1546  0.7477
  485TIP3   OH2 1411   8.149   0.754   5.771  0.3879  0.6811 -0.4728
  485TIP3    H1 1412   8.072   0.806   5.750  0.4733  0.3318 -1.6903
  485TIP3    H2 1413   8.204   0.758   5.693  0.5186 -1.0241 -0.5140
  486TIP3   OH2 1414   5.530   7.483   1.283 -0.7260  0.7848 -0.5831
  486TIP3    H1 1415   5.519   7.391   1.258 -0.2943  0.3770  0.6351
  486TIP3    H2 1416   5.445   7.523   1.264 -0.8081  0.2321 -1.4777
  487TIP3   OH2 1417   4.463   0.712   3.791 -0.3204  0.3040 -0.5289
  487TIP3    H1 1418   4.482   0.725   3.698  0.5583  1.6178 -0.2008
  487TIP3    H2 1419   4.441   0.619   3.798  0.4781 -0.0225 -1.9083
  488TIP3   OH2 1420   5.165   3.272   2.106  0.1159 -0.5352  0.5564
  488TIP3    H1 1421   5.193   3.326   2.180  0.6753 -1.2203  0.8653
  488TIP3    H2 1422   5.204   3.313   2.029 -0.6514  0.3092  0.6180
  489TIP3   OH2 1423   5.336   0.155   6.397 -0.2581 -0.3500  0.2507
  489TIP3    H1 1424   5.331   0.250   6.406  1.2374 -0.3634  1.6087
  489TIP3    H2 1425   5.245   0.127   6.386 -0.7998  1.1678  0.6890
  490TIP3   OH2 1426   1.052   0.634   2.682  0.1161 -0.3177  0.2945
  490TIP3    H1 1427   1.134   0.683   2.674 -0.1431 -0.1799 -2.0382
  490TIP3    H2 1428   1.074   0.546   2.651  0.1456 -1.2951  2.8263
  491TIP3   OH2 1429   4.440   1.510   4.969 -0.2659  0.0521  0.1393
  491TIP3    H1 1430   4.412   1.525   4.879  0.5996 -0.6521 -0.2692
  491TIP3    H2 1431   4.359   1.503   5.018 -0.7632  2.5482 -0.1811
  492TIP3   OH2 1432   1.294   4.836   5.863 -0.0600 -0.4547 -0.8276
  492TIP3    H1 1433   1.247   4.810   5.943 -0.7939  0.2212 -1.0198
  492TIP3    H2 1434   1.267   4.772   5.797  0.1185 -0.6916 -0.6719
  493TIP3   OH2 1435   4.951   4.079   4.818 -0.3629  0.1759 -0.1245
  493TIP3    H1 1436   5.002   4.020   4.762  1.6720  2.1400 -0.4816
  493TIP3    H2 1437   4.908   4.021   4.881 -0.5048 -1.8590 -1.9745
  494TIP3   OH2 1438   7.858   4.113   3.157  0.1408 -0.6986 -0.1301
  494TIP3    H1 1439   7.833   4.163   3.235  1.7878  0.3050 -0.1884
  494TIP3    H2 1440   7.947   4.083   3.176  1.2169  0.8992 -2.1918
  495TIP3   OH2 1441   0.710   6.206   5.068  0.6263 -0.0669  0.2916
  495TIP3    H1 1442   0.681   6.270   5.134 -1.5329  0.2424 -0.8752
  495TIP3    H2 1443   0.773   6.255   5.015  0.9194  0.2835  0.9417
  496TIP3   OH2 1444   0.167   3.288   2.867 -0.0371  0.2611 -0.6066
  496TIP3    H1 1445   0.182   3.331   2.783 -0.4985 -0.2480 -0.9544
  496TIP3    H2 1446   0.118   3.209   2.845  1.2587 -0.7280 -0.0363
  497TIP3   OH2 1447   5.162   4.075   3.993  0.7487  0.0654  0.1613
  497TIP3    H1 1448   5.173   4.048   4.084  0.5159 -1.7998 -0.3250
  497TIP3    H2 1449   5.115   4.158   3.998 -0.4347 -0.6529  1.7107
  498TIP3   OH2 1450   4.299   4.762   5.498 -0.2970 -0.3828  0.1152
  498TIP3    H1 1451   4.264   4.712   5.424 -2.3066  2.3011 -0.8724
  498TIP3    H2 1452   4.389   4.782   5.472 -0.1973 -1.4664 -0.4773
  499TIP3   OH2 1453   0.047   2.992   1.924 -0.1853  0.6076  0.7531
  499TIP3    H1 1454   0.108   2.929   1.884 -0.9751 -0.0771  0.6062
  499TIP3    H2 1455   0.003   3.033   1.849  1.8291  2.9438  0.7216
  500TIP3   OH2 1456   4.982   2.938   0.955 -0.0302  0.1142  0.1946
  500TIP3    H1 1457   4.987   2.996   0.879  0.1118 -1.9683 -1.4482
  500TIP3    H2 1458   5.071   2.939   0.991  0.2528  0.0357 -0.4953
  501TIP3   OH2 1459   0.646   0.969   2.420  0.6660 -0.0368  0.0093
  501TIP3    H1 1460   0.669   0.916   2.344  1.4607 -0.5722  0.6020
  501TIP3    H2 1461   0.724   0.964   2.476  0.1870  0.5585  0.7339
  502TIP3   OH2 1462   3.450   5.432   3.065  0.4472 -0.3994  0.8009
  502TIP3    H1 1463   3.359   5.428   3.035  1.0443  0.8753 -1.4160
  502TIP3    H2 1464   3.477   5.341   3.075 -0.5782 -0.8384 -0.2219
  503TIP3   OH2 1465   6.829   3.057   5.753  0.7087  0.1881  0.3106
  503TIP3    H1 1466   6.917   3.087   5.777  0.0805  1.8375  0.6389
  503TIP3    H2 1467   6.816   3.088   5.664 -0.5107  2.3228  1.1641
  504TIP3   OH2 1468   1.159   6.704   2.089 -0.3130  0.2130 -0.4000
  504TIP3    H1 1469   1.187   6.785   2.131  1.3570  0.3755 -1.7307
  504TIP3    H2 1470   1.231   6.642   2.106 -0.6347 -0.3722 -1.1185
  505TIP3   OH2 1471   6.540   3.270   4.548 -0.1310 -0.3142 -0.0449
  505TIP3    H1 1472   6.594   3.197   4.517  1.3722 -0.2977  2.2841
  505TIP3    H2 1473   6.578   3.293   4.632 -2.1895  1.4954  0.4632
  506TIP3   OH2 1474   0.709   3.608   2.189 -0.0878 -0.7673  0.0105
  506TIP3    H1 1475   0.635   3.582   2.242 -1.0552  1.0737 -0.3457
  506TIP3    H2 1476   0.692   3.700   2.168  1.1544 -0.9338 -1.9736
  507TIP3   OH2 1477   2.496   3.964   5.134 -0.1577 -0.2080  0.0858
  507TIP3    H1 1478   2.523   3.941   5.223 -0.3972  1.3343  0.5948
  507TIP3    H2 1479   2.430   3.899   5.110  1.0108 -1.5545  0.4247
  508TIP3   OH2 1480   5.349   5.381   0.151  0.2644 -0.2558 -0.1365
  508TIP3    H1 1481   5.337   5.293   0.115  1.2287 -0.3275 -0.3079
  508TIP3    H2 1482   5.261   5.408   0.178 -0.3315 -0.5786 -1.6558
  509TIP3   OH2 1483   1.992   2.474   0.191 -0.5718  0.2304 -0.3701
  509TIP3    H1 1484   2.079   2.441   0.212 -1.9208 -1.5365  3.1511
  509TIP3    H2 1485   1.988   2.560   0.231 -0.7013 -0.0671  0.2717
  510TIP3   OH2 1486   0.625   7.380   3.967 -0.2077  0.0246  0.3484
  510TIP3    H1 1487   0.709   7.419   3.992 -0.6007  0.1413  1.5976
  510TIP3    H2 1488   0.583   7.361   4.051 -1.4253 -0.0326 -0.2578
  511TIP3   OH2 1489   2.304   6.263   3.514  0.8823  0.1592 -0.0892
  511TIP3    H1 1490   2.352   6.197   3.563  0.7627  0.8444  0.9815
  511TIP3    H2 1491   2.213   6.235   3.518  1.1544 -1.3290 -2.4161
  512TIP3   OH2 1492   0.051   3.141   0.376 -0.3420 -0.5015  0.4049
  512TIP3    H1 1493   0.086   3.052   0.378  0.5517 -0.1523  0.6923
  512TIP3    H2 1494  -0.017   3.141   0.443  1.6509 -0.1886  2.5440
  513TIP3   OH2 1495   3.012   3.476   1.848  0.1738 -0.4413 -0.6631
  513TIP3    H1 1496   3.039   3.452   1.937  1.0868 -1.8557 -1.2988
  513TIP3    H2 1497   3.068   3.424   1.791  1.0955  1.9841 -2.1263
  514TIP3   OH2 1498   3.419   4.069   0.283 -0.3175 -0.0901 -0.4695
  514TIP3    H1 1499   3.415   3.980   0.319  0.7872  0.0637  0.0952
  514TIP3    H2 1500   3.411   4.057   0.189 -1.5051 -0.6658 -0.3145
  515TIP3   OH2 1501   7.047   2.052   6.377 -0.5860  0.2457  0.4741
  515TIP3    H1 1502   7.038   1.961   6.407  1.5208  0.2420  1.2589
  515TIP3    H2 1503   7.105   2.092   6.442  2.0758  0.9608 -2.1673
  516TIP3   OH2 1504   3.598   7.186   4.590 -0.3047  0.3340 -0.1953
  516TIP3    H1 1505   3.599   7.207   4.497 -2.0521 -2.4377 -0.9534
  516TIP3    H2 1506   3.534   7.247   4.627 -2.6860 -1.1164 -1.6511
  517TIP3   OH2 1507   7.625   0.270   2.417  0.2892 -0.3909  0.2904
  517TIP3    H1 1508   7.641   0.190   2.468  0.9570 -0.6651 -0.3257
  517TIP3    H2 1509   7.549   0.249   2.363 -0.3513 -0.1395  1.0694
  518TIP3   OH2 1510   1.939   5.715   6.443 -0.8626 -0.1078  0.5790
  518TIP3    H1 1511   1.890   5.634   6.459  0.1914 -0.6777  1.0140
  518TIP3    H2 1512   1.915   5.771   6.517 -0.1820 -0.7225  1.2840
  519TIP3   OH2 1513   3.989   1.112   3.349 -0.8839  0.2068  0.2833
  519TIP3    H1 1514   4.017   1.049   3.415 -0.3092  1.3134  1.1330
  519TIP3    H2 1515   3.907   1.148   3.384 -1.3532 -0.2498 -0.3266
  520TIP3   OH2 1516   1.330   2.643   0.759  0.1106 -0.0856  0.3405
  520TIP3    H1 1517   1.417   2.617   0.727  0.1474  0.9641 -0.4516
  520TIP3    H2 1518   1.278   2.657   0.680 -0.4348  0.4456  0.7840
  521TIP3   OH2 1519   4.829   5.487   2.416 -0.0853  0.3654 -0.4785
  521TIP3    H1 1520   4.801   5.570   2.455 -0.6869  0.4078 -0.9706
  521TIP3    H2 1521   4.749   5.435   2.412  0.3929 -0.4464  0.3103
  522TIP3   OH2 1522   0.316   0.680   1.841  0.2400  0.3310  0.0616
  522TIP3    H1 1523   0.294   0.733   1.918 -0.8679 -1.0470  0.7388
  522TIP3    H2 1524   0.359   0.741   1.781  0.6187  1.5660  1.5365
  523TIP3   OH2 1525   4.726   4.041   1.491  0.6481 -0.5143 -0.2545
  523TIP3    H1 1526   4.666   3.967   1.483  0.6361 -0.4280 -0.9643
  523TIP3    H2 1527   4.684   4.112   1.442 -0.1570  0.4969  1.7484
  524TIP3   OH2 1528   3.550   7.683   0.210  0.0591  0.2508  0.2651
  524TIP3    H1 1529   3.461   7.717   0.222 -0.0431  0.0609  0.0455
  524TIP3    H2 1530   3.571   7.701   0.119  0.7012  1.3713  0.6053
  525TIP3   OH2 1531   4.570   3.433   6.738  0.0985  0.2156  0.0450
  525TIP3    H1 1532   4.635   3.364   6.750  0.6241  0.7568  0.3897
  525TIP3    H2 1533   4.620   3.509   6.708 -0.3095  0.7500  0.6695
  526TIP3   OH2 1534   5.954   3.156   4.734 -0.3409 -0.4674  0.1554
  526TIP3    H1 1535   5.927   3.247   4.727 -0.6153 -0.4772  0.9572
  526TIP3    H2 1536   5.888   3.115   4.791  1.5275 -0.3839  2.5792
  527TIP3   OH2 1537   5.025   1.806   1.079 -0.1258  0.1667 -0.4156
  527TIP3    H1 1538   5.108   1.851   1.093  0.6907 -1.7353  1.2917
  527TIP3    H2 1539   4.990   1.846   0.999  1.8858  1.7655 -0.5949
  528TIP3   OH2 1540   1.717   1.295   4.465 -0.4306 -0.3056  0.1622
  528TIP3    H1 1541   1.722   1.373   4.409  0.5828 -0.6886 -0.3008
  528TIP3    H2 1542   1.628   1.262   4.453 -0.1911 -0.4659 -1.3576
  529TIP3   OH2 1543   0.709   3.644   5.639  0.1257  0.1647 -0.6075
  529TIP3    H1 1544   0.624   3.630   5.681  0.3039  0.9093  0.0034
  529TIP3    H2 1545   0.773   3.608   5.701  0.4030  1.4418 -0.1188
  530TIP3   OH2 1546   7.608   4.897   3.946  0.1137  0.3210  0.2539
  530TIP3    H1 1547   7.634   4.949   3.870 -0.2137 -0.5825 -0.4990
  530TIP3    H2 1548   7.530   4.941   3.980 -1.4446 -0.8054 -1.6480
  531TIP3   OH2 1549   0.857   0.228   6.610  0.4458 -0.1081 -0.0083
  531TIP3    H1 1550   0.795   0.230   6.537  0.2586 -0.9029  0.1149
  531TIP3    H2 1551   0.943   0.222   6.569  0.5390  1.9565 -0.2023
  532TIP3   OH2 1552   5.658   7.374   0.984  0.1198 -0.2733 -0.0995
  532TIP3    H1 1553   5.726   7.312   0.957 -0.1928 -0.8805  0.4848
  532TIP3    H2 1554   5.694   7.460   0.961  0.7522 -0.6343 -0.5025
  533TIP3   OH2 1555   7.615   5.954   1.832  0.3767 -0.4003 -0.2530
  533TIP3    H1 1556   7.548   6.021   1.840 -0.9775 -1.6336 -0.8869
  533TIP3    H2 1557   7.698   6.003   1.832 -0.5470  1.2244 -0.3758
  534TIP3   OH2 1558   2.880   0.707   3.986 -0.0926  0.4906 -0.2446
  534TIP3    H1 1559   2.802   0.762   3.993  0.0257  0.5837  0.3945
  534TIP3    H2 1560   2.918   0.730   3.901  0.1570  1.6743  0.1672
  535TIP3   OH2 1561   3.612   2.565   6.128 -0.3753 -0.0578 -0.7446
  535TIP3    H1 1562   3.533   2.524   6.092 -0.6556 -1.7186  1.5529
  535TIP3    H2 1563   3.635   2.510   6.203 -0.0416  3.3569  1.8545
  536TIP3   OH2 1564   5.061   4.639   0.716 -0.2837 -0.1922  0.3491
  536TIP3    H1 1565   5.056   4.571   0.648 -1.6109  1.5648 -1.4243
  536TIP3    H2 1566   5.086   4.591   0.795  0.1848 -2.5238 -1.0949
  537TIP3   OH2 1567   6.411   3.264   0.544 -0.4233  0.4369  0.7573
  537TIP3    H1 1568   6.495   3.303   0.566 -0.8140  1.0376  1.2205
  537TIP3    H2 1569   6.376   3.232   0.627 -0.3602 -0.4069  0.4662
  538TIP3   OH2 1570   6.193   5.728   0.179  0.0315  0.0152  0.2059
  538TIP3    H1 1571   6.126   5.662   0.162 -1.0626  0.7594  1.4367
  538TIP3    H2 1572   6.237   5.697   0.259  0.6954 -0.1005 -0.1937
  539TIP3   OH2 1573   4.900   5.017   1.499 -0.4167  0.3529 -0.1239
  539TIP3    H1 1574   4.988   4.980   1.489  0.1711  1.6963 -0.1665
  539TIP3    H2 1575   4.869   5.030   1.409  0.7897  3.0860 -0.2407
  540TIP3   OH2 1576   6.193   0.096   2.320 -0.2438  0.0940 -0.0374
  540TIP3    H1 1577   6.224   0.121   2.233 -1.1134  0.0289 -0.3814
  540TIP3    H2 1578   6.222   0.005   2.331 -1.6874 -0.5194 -1.0379
  541TIP3   OH2 1579   4.518   0.936   0.800 -0.0149  0.4357  0.2372
  541TIP3    H1 1580   4.442   0.902   0.751  1.0057 -5.3669  1.9139
  541TIP3    H2 1581   4.593   0.911   0.746  0.8772 -1.0335  2.0564
  542TIP3   OH2 1582   1.825   2.677   3.134 -0.5417  0.0808 -0.0451
  542TIP3    H1 1583   1.877   2.712   3.207 -1.5778 -1.9905  1.8049
  542TIP3    H2 1584   1.888   2.664   3.064  0.5578  1.8522  0.5426
  543TIP3   OH2 1585   1.819   4.486   3.736 -0.0437 -0.4500  0.1747
  543TIP3    H1 1586   1.852   4.468   3.823 -0.7793 -1.2888  0.2863
  543TIP3    H2 1587   1.872   4.431   3.678  0.4293  0.0897  0.0749
  544TIP3   OH2 1588   0.556   7.311   5.550 -0.1161  0.0150  0.0035
  544TIP3    H1 1589   0.467   7.278   5.535  0.3944 -0.1768 -3.2839
  544TIP3    H2 1590   0.612   7.234   5.545  0.3654  0.2739  1.0544
  545TIP3   OH2 1591   7.527   2.857   4.933  0.2885 -0.0222  0.1642
  545TIP3    H1 1592   7.433   2.862   4.947  0.4180 -0.1520  1.1492
  545TIP3    H2 1593   7.558   2.947   4.936  0.6415 -0.1259  3.3589
  546TIP3   OH2 1594   5.024   1.658   2.212  0.3799  0.0878  0.5802
  546TIP3    H1 1595   4.956   1.610   2.163  0.1088  1.1632 -0.1373
  546TIP3    H2 1596   5.019   1.622   2.300 -0.3546 -0.6463  0.2624
  547TIP3   OH2 1597   5.538   3.555   3.327  0.8098 -0.6836 -0.0226
  547TIP3    H1 1598   5.570   3.539   3.415  0.4585  1.9071  0.6781
  547TIP3    H2 1599   5.455   3.601   3.340  1.6099  1.4031 -1.5838
  548TIP3   OH2 1600   5.148   6.002   5.830 -0.3214  0.3321  0.1626
  548TIP3    H1 1601   5.235   6.028   5.801  1.1844 -0.9861  3.1098
  548TIP3    H2 1602   5.129   5.922   5.780  0.0656  0.6915 -0.5806
  549TIP3   OH2 1603   4.989   3.433   3.490 -0.0316  0.3744 -0.2706
  549TIP3    H1 1604   4.941   3.362   3.533 -0.0638  0.7905  0.4059
  549TIP3    H2 1605   5.051   3.463   3.557  0.9067  0.1018 -0.9978
  550TIP3   OH2 1606   1.154   4.837   2.170  0.1069  0.4812  0.1835
  550TIP3    H1 1607   1.145   4.771   2.101  0.2126  1.0983 -0.4313
  550TIP3    H2 1608   1.235   4.812   2.215 -0.8643 -0.9423  1.2201
  551TIP3   OH2 1609   4.597   5.094   5.624 -0.0370 -0.3337  0.0354
  551TIP3    H1 1610   4.554   5.010   5.632  0.9031 -0.8315  0.0292
  551TIP3    H2 1611   4.569   5.144   5.700 -0.8850 -0.5173 -0.1531
  552TIP3   OH2 1612   3.067   1.935   0.225 -1.0538  0.4680 -0.3037
  552TIP3    H1 1613   3.051   2.003   0.291  0.2029  0.0624  0.4535
  552TIP3    H2 1614   3.056   1.853   0.272  0.4249  0.1771 -0.4030
  553TIP3   OH2 1615   0.179   1.528   2.269 -0.2050 -0.4680  0.0758
  553TIP3    H1 1616   0.103   1.480   2.237 -1.4594  1.1510  0.5024
  553TIP3    H2 1617   0.252   1.495   2.215 -1.0392 -2.5092  0.0926
  554TIP3   OH2 1618   0.476   5.883   6.487  0.4635  0.6158  0.4199
  554TIP3    H1 1619   0.527   5.836   6.420  0.0340  0.8579 -0.0764
  554TIP3    H2 1620   0.428   5.950   6.439 -0.5883  0.1803  0.8426
  555TIP3   OH2 1621   1.750   4.951   3.661 -0.2952  0.4764 -0.3689
  555TIP3    H1 1622   1.841   4.934   3.685 -0.1675  1.7163  0.0974
  555TIP3    H2 1623   1.715   4.865   3.638  0.1569 -0.5483  2.3037
  556TIP3   OH2 1624   4.044   5.955   1.797 -0.4966 -0.1101 -0.1133
  556TIP3    H1 1625   4.127   5.907   1.799 -0.2066  0.2615 -1.7184
  556TIP3    H2 1626   3.983   5.897   1.751 -1.0540 -0.2434  0.7672
  557TIP3   OH2 1627   6.908   4.522   3.509 -0.3041 -0.0532 -0.1734
  557TIP3    H1 1628   6.978   4.464   3.539 -0.5924 -0.7123 -0.7515
  557TIP3    H2 1629   6.953   4.597   3.471  0.0733  0.2764  0.8831
  558TIP3   OH2 1630   7.113   5.003   5.636 -0.6957  0.1893 -0.1070
  558TIP3    H1 1631   7.067   5.041   5.561  0.7189  0.4817 -0.8614
  558TIP3    H2 1632   7.202   4.988   5.604 -0.3053 -0.5169  1.2532
  559TIP3   OH2 1633   2.032   1.432   5.930 -0.6811  0.2707 -0.2477
  559TIP3    H1 1634   2.070   1.505   5.881 -0.5172  1.2864  1.3231
  559TIP3    H2 1635   1.989   1.378   5.863 -1.1192  1.9886 -1.4100
  560TIP3   OH2 1636   4.569   4.781   6.034 -0.0278  0.1531 -0.1544
  560TIP3    H1 1637   4.557   4.875   6.042  0.6076  0.2455 -0.2731
  560TIP3    H2 1638   4.518   4.757   5.956 -0.0242  0.4323 -0.2439
  561TIP3   OH2 1639   5.648   1.113   4.854 -0.1163 -0.4542  0.0260
  561TIP3    H1 1640   5.739   1.137   4.835  0.4103 -1.5495  0.9828
  561TIP3    H2 1641   5.606   1.194   4.881 -0.1094  0.5615 -2.7646
  562TIP3   OH2 1642   1.370   4.328   3.892  0.4351 -0.1253 -0.1481
  562TIP3    H1 1643   1.401   4.342   3.803  2.3060 -0.9080  0.3194
  562TIP3    H2 1644   1.352   4.416   3.925  1.0366  0.2844 -0.8774
  563TIP3   OH2 1645   5.830   4.292   5.016  0.0360  0.1822  0.6579
  563TIP3    H1 1646   5.841   4.262   5.107 -2.1479  0.8490  1.1881
  563TIP3    H2 1647   5.867   4.221   4.963  0.0579 -0.8615  2.0242
  564TIP3   OH2 1648   3.369   3.035   3.776 -0.2259  0.4032 -0.7472
  564TIP3    H1 1649   3.425   3.019   3.851  0.5725 -1.0516 -1.6002
  564TIP3    H2 1650   3.368   3.130   3.766 -0.7024  0.6651  1.3115
  565TIP3   OH2 1651   2.754   1.877   0.621 -0.4460  0.9387 -0.4935
  565TIP3    H1 1652   2.784   1.787   0.627  1.6046  1.6288  0.6143
  565TIP3    H2 1653   2.762   1.900   0.529  1.5651  0.7619 -0.4007
  566TIP3   OH2 1654   1.836   0.062   3.954  0.0814 -0.3105  0.0243
  566TIP3    H1 1655   1.878   0.135   3.908  3.4586 -1.8315  0.4177
  566TIP3    H2 1656   1.804   0.100   4.035 -0.7058  1.2295 -0.9499
  567TIP3   OH2 1657   1.130   4.651   4.884 -0.2279 -0.3704 -0.3676
  567TIP3    H1 1658   1.138   4.573   4.940 -0.9477 -1.0353 -1.1785
  567TIP3    H2 1659   1.174   4.720   4.934 -1.0841 -0.8784  1.1450
  568TIP3   OH2 1660   6.194   2.890   5.959  0.2658 -0.4530 -0.0176
  568TIP3    H1 1661   6.167   2.839   6.035  0.3512  0.1110  0.3983
  568TIP3    H2 1662   6.287   2.910   5.975 -0.1145  0.9872  0.4955
  569TIP3   OH2 1663   4.067   7.224   6.051  0.7037  0.3516  0.6306
  569TIP3    H1 1664   4.063   7.280   5.973  0.0047 -1.0985 -0.4128
  569TIP3    H2 1665   4.004   7.264   6.111  0.5304  0.9393  0.0843
  570TIP3   OH2 1666   7.566   6.254   2.954  0.0934 -0.2416 -0.0981
  570TIP3    H1 1667   7.545   6.317   3.023 -0.5160 -0.9930  0.4240
  570TIP3    H2 1668   7.618   6.187   2.999  2.4796  0.8577 -1.0633
  571TIP3   OH2 1669   1.843   4.995   0.231 -0.4741  0.5368  0.0004
  571TIP3    H1 1670   1.787   4.919   0.244 -1.5307  0.9833 -1.7059
  571TIP3    H2 1671   1.927   4.958   0.204 -0.8842 -0.0460 -0.4996
  572TIP3   OH2 1672   5.675   1.900   5.867  0.2001 -0.4120 -0.0219
  572TIP3    H1 1673   5.730   1.859   5.800  0.5417 -0.5668  0.3448
  572TIP3    H2 1674   5.630   1.971   5.821 -0.2034 -1.0366 -0.5990
  573TIP3   OH2 1675   3.971   1.135   1.918  0.3354  0.0992  0.2037
  573TIP3    H1 1676   3.905   1.132   1.987  1.8036 -0.0446  1.6535
  573TIP3    H2 1677   3.995   1.043   1.904  1.3291  0.2557  0.8106
  574TIP3   OH2 1678   6.650   4.890   1.325  0.4802 -0.3009 -0.2310
  574TIP3    H1 1679   6.587   4.844   1.381 -0.8983 -0.3373 -1.7033
  574TIP3    H2 1680   6.597   4.920   1.251  1.9843  0.8291 -0.8928
  575TIP3   OH2 1681   7.777   0.951   4.916 -0.5881 -0.0847  0.3835
  575TIP3    H1 1682   7.725   0.966   4.996 -0.7259 -0.5352  0.3775
  575TIP3    H2 1683   7.721   0.983   4.845 -1.3948 -1.7267  0.2492
  576TIP3   OH2 1684   0.360   3.791   2.406 -0.9024  0.6297 -0.2466
  576TIP3    H1 1685   0.394   3.871   2.445 -1.9657  1.0434 -0.1308
  576TIP3    H2 1686   0.267   3.809   2.391 -1.6943 -1.2894  1.7724
  577TIP3   OH2 1687   2.773   1.456   3.206  0.3797 -0.3230 -0.0900
  577TIP3    H1 1688   2.732   1.450   3.293  0.2908  0.6820 -0.0434
  577TIP3    H2 1689   2.866   1.473   3.225  0.0383  1.8837 -0.1440
  578TIP3   OH2 1690   3.511   0.131   0.236 -0.0773 -0.3574 -0.5730
  578TIP3    H1 1691   3.466   0.161   0.316  0.5138 -1.2445  0.1105
  578TIP3    H2 1692   3.456   0.060   0.203 -0.9082  0.7339 -1.5918
  579TIP3   OH2 1693   2.903   2.419   2.403 -0.3601  0.1674 -0.1567
  579TIP3    H1 1694   2.980   2.457   2.359  0.1320 -0.9977 -0.3292
  579TIP3    H2 1695   2.930   2.410   2.494  0.0695 -1.0998 -0.3876
  580TIP3   OH2 1696   5.960   7.133   2.891  0.0725  0.4537  0.0168
  580TIP3    H1 1697   5.894   7.180   2.942  0.5282  2.5012 -1.1674
  580TIP3    H2 1698   6.037   7.190   2.894  0.2039  0.5326 -2.6723
  581TIP3   OH2 1699   7.985   7.069   6.337  0.2664 -0.3906  0.1053
  581TIP3    H1 1700   8.020   7.070   6.248  0.6386  1.4306  0.2454
  581TIP3    H2 1701   8.060   7.044   6.392  0.6320  0.7115  0.1215
  582TIP3   OH2 1702   0.271   7.515   2.256  0.2023  0.0874 -0.4999
  582TIP3    H1 1703   0.205   7.526   2.325 -0.4156 -1.7630 -0.7324
  582TIP3    H2 1704   0.296   7.604   2.232 -1.1304  0.8064  0.6345
  583TIP3   OH2 1705   0.378   4.399   2.113 -0.2742 -0.1462  0.0665
  583TIP3    H1 1706   0.444   4.344   2.155 -0.3256 -2.5068 -2.6651
  583TIP3    H2 1707   0.423   4.481   2.095  0.3457  0.1766  2.7048
  584TIP3   OH2 1708   5.675   1.189   1.956 -0.2355 -0.5548 -0.1740
  584TIP3    H1 1709   5.689   1.181   1.861  0.0235  0.2840 -0.2096
  584TIP3    H2 1710   5.625   1.110   1.979 -3.6645  0.9544 -1.6794
  585TIP3   OH2 1711   5.979   1.114   3.411  0.4645  0.2047 -0.2682
  585TIP3    H1 1712   6.038   1.188   3.398 -0.1722  0.9575  0.8928
  585TIP3    H2 1713   5.892   1.154   3.424  0.3715 -0.5734  2.0294
  586TIP3   OH2 1714   0.921   2.087   2.911 -0.6483  0.1162  0.8235
  586TIP3    H1 1715   0.960   2.130   2.836 -0.0977 -0.1828  0.9328
  586TIP3    H2 1716   0.886   2.158   2.965  1.0453  0.5054  1.4535
  587TIP3   OH2 1717   5.254   2.137   6.633 -0.2864 -0.4351 -0.7216
  587TIP3    H1 1718   5.292   2.134   6.720  1.0710  1.7570 -1.1423
  587TIP3    H2 1719   5.235   2.046   6.611  1.3691 -1.2577  1.0053
  588TIP3   OH2 1720   2.234   5.738   3.171 -0.4789  0.0698  0.2966
  588TIP3    H1 1721   2.202   5.662   3.123 -0.9078  2.1525 -3.0925
  588TIP3    H2 1722   2.156   5.792   3.185  0.0733  0.7263  0.9384
  589TIP3   OH2 1723   7.691   3.118   2.048 -0.0942  0.3442 -0.2253
  589TIP3    H1 1724   7.739   3.043   2.013  0.9845  0.7250  0.4289
  589TIP3    H2 1725   7.692   3.182   1.977 -1.1759 -0.2999 -0.8548
  590TIP3   OH2 1726   4.922   2.505   4.208 -0.1340  0.0764 -0.1706
  590TIP3    H1 1727   4.830   2.480   4.202 -0.2961  0.6315 -0.0861
  590TIP3    H2 1728   4.964   2.432   4.252 -0.5975 -0.0421  0.0860
  591TIP3   OH2 1729   3.159   7.353   2.494  0.1983 -0.5708  0.0199
  591TIP3    H1 1730   3.103   7.327   2.567 -0.5617  0.9129  0.0007
  591TIP3    H2 1731   3.167   7.274   2.441 -1.3389 -1.0032  0.3791
  592TIP3   OH2 1732   5.482   6.065   5.341  0.0503  0.2658  0.1312
  592TIP3    H1 1733   5.571   6.093   5.317  0.8006 -2.7280 -0.9922
  592TIP3    H2 1734   5.435   6.062   5.258 -0.8599  0.8999  0.6074
  593TIP3   OH2 1735   3.213   1.863   4.244 -0.2164  0.8015  0.1883
  593TIP3    H1 1736   3.237   1.789   4.300 -0.2114  1.7176  1.4610
  593TIP3    H2 1737   3.145   1.829   4.186  1.5492 -0.8706 -1.0260
  594TIP3   OH2 1738   0.949   7.611   1.135 -0.4458  0.5530 -0.6231
  594TIP3    H1 1739   0.859   7.597   1.107 -0.8092 -1.8584  1.4054
  594TIP3    H2 1740   0.942   7.668   1.211 -0.4183 -0.4028  0.1243
  595TIP3   OH2 1741   2.169   5.748   0.960 -0.3384  0.1733 -0.1031
  595TIP3    H1 1742   2.209   5.709   1.038 -0.7952  0.4298  0.2642
  595TIP3    H2 1743   2.147   5.837   0.986 -1.7802 -0.1734 -0.0757
  596TIP3   OH2 1744   7.237   5.167   3.711 -0.0591  0.4161 -0.2813
  596TIP3    H1 1745   7.145   5.178   3.734  0.1735  1.3978  0.2299
  596TIP3    H2 1746   7.236   5.108   3.636 -1.0925  0.3039 -0.1953
  597TIP3   OH2 1747   3.623   5.928   4.207 -0.3671 -0.2572 -0.3368
  597TIP3    H1 1748   3.585   5.990   4.144 -1.5754 -0.0555  0.5479
  597TIP3    H2 1749   3.555   5.862   4.219 -0.8898  0.6080  1.9929
  598TIP3   OH2 1750   0.790   7.097   3.070 -0.0890 -0.7378  0.0344
  598TIP3    H1 1751   0.723   7.124   3.132 -0.5691 -2.1624  0.1593
  598TIP3    H2 1752   0.772   7.149   2.991  0.1345  0.6057  0.8374
  599TIP3   OH2 1753   0.678   0.730   4.739 -0.2688 -0.1701 -0.3681
  599TIP3    H1 1754   0.645   0.820   4.740 -2.3341 -0.8615 -0.5545
  599TIP3    H2 1755   0.690   0.707   4.831 -0.9058 -0.0917 -0.2644
  600TIP3   OH2 1756   5.814   4.052   5.191  0.0381 -0.1820  0.0031
  600TIP3    H1 1757   5.792   4.068   5.283 -0.0538  0.7277 -0.1653
  600TIP3    H2 1758   5.895   4.001   5.193  0.8822  1.1233  0.5898
  601TIP3   OH2 1759   0.258   5.846   2.908 -0.5148 -0.5381  0.0759
  601TIP3    H1 1760   0.194   5.778   2.884 -2.7453  0.5887  2.3580
  601TIP3    H2 1761   0.271   5.895   2.827 -1.9362 -1.3316 -0.6825
  602TIP3   OH2 1762   5.896   2.848   2.690  0.3238 -0.1348 -0.1680
  602TIP3    H1 1763   5.968   2.895   2.646  1.0925 -0.2752  0.8851
  602TIP3    H2 1764   5.899   2.880   2.780  0.6048 -1.8588  0.4869
  603TIP3   OH2 1765   8.036   1.106   1.466 -0.2304 -0.1543 -0.2655
  603TIP3    H1 1766   8.112   1.162   1.450  1.2790 -1.6593  1.1597
  603TIP3    H2 1767   8.072   1.029   1.511 -2.7501 -0.4964  1.3670
  604TIP3   OH2 1768   2.392   0.174   6.693  0.1085  0.4590  0.1137
  604TIP3    H1 1769   2.438   0.097   6.661 -0.3444 -0.1357  0.8720
  604TIP3    H2 1770   2.409   0.176   6.787 -1.9816 -0.2134  0.5565
  605TIP3   OH2 1771   0.830   2.376   1.775 -0.3204  0.1533 -0.2015
  605TIP3    H1 1772   0.920   2.394   1.804 -0.4317  1.4680 -0.6313
  605TIP3    H2 1773   0.805   2.298   1.825  0.1969  1.1750  1.7689
  606TIP3   OH2 1774   0.744   6.533   6.646 -0.4106 -0.3222 -0.2817
  606TIP3    H1 1775   0.677   6.596   6.620  1.3938  0.8879 -2.2997
  606TIP3    H2 1776   0.757   6.549   6.740 -1.3103  1.0348 -0.3611
  607TIP3   OH2 1777   1.843   3.809   1.796  0.0807  0.5022 -0.3731
  607TIP3    H1 1778   1.762   3.857   1.812 -0.6882 -0.8452 -0.0253
  607TIP3    H2 1779   1.878   3.789   1.883  0.5242  0.6452 -0.5130
  608TIP3   OH2 1780   3.405   7.064   0.185  0.2302  0.6557 -0.7419
  608TIP3    H1 1781   3.427   7.143   0.234  0.6734  0.2628 -0.2898
  608TIP3    H2 1782   3.310   7.068   0.173  0.3696  1.7310 -1.5735
  609TIP3   OH2 1783   4.706   0.584   4.011  0.2996  0.0696 -0.3230
  609TIP3    H1 1784   4.784   0.612   4.057  0.3104  1.0811 -0.9166
  609TIP3    H2 1785   4.729   0.592   3.918 -0.3906  0.0505 -0.5014
  610TIP3   OH2 1786   4.087   3.625   3.104 -0.2538  0.5543 -0.8198
  610TIP3    H1 1787   4.174   3.592   3.122 -0.9567 -1.3433 -0.6723
  610TIP3    H2 1788   4.071   3.602   3.012 -0.3732  1.4281 -1.0239
  611TIP3   OH2 1789   3.957   3.455   5.741  0.0600  0.2938  0.2025
  611TIP3    H1 1790   4.020   3.384   5.754  0.4148  0.5506 -0.0730
  611TIP3    H2 1791   3.944   3.492   5.828  0.7967  0.6590  0.1618
  612TIP3   OH2 1792   5.403   0.897   2.996  0.4954 -0.6102 -0.5029
  612TIP3    H1 1793   5.364   0.982   2.975 -0.1584 -0.5611  0.8367
  612TIP3    H2 1794   5.495   0.906   2.970  0.0900 -0.0432 -1.8226
  613TIP3   OH2 1795   6.359   5.008   2.619 -0.0687  0.0867  0.3653
  613TIP3    H1 1796   6.284   5.036   2.566 -0.7922  0.7274  1.6743
  613TIP3    H2 1797   6.377   4.918   2.590 -0.1148  0.5785 -1.2866
  614TIP3   OH2 1798   0.434   2.983   0.636  0.0499 -0.3028 -0.0928
  614TIP3    H1 1799   0.375   3.042   0.685  1.3409  0.8320  0.1724
  614TIP3    H2 1800   0.381   2.906   0.617 -1.5666  0.7391 -0.0076
  615TIP3   OH2 1801   0.606   4.779   1.784 -0.0955  0.3493 -0.6471
  615TIP3    H1 1802   0.641   4.864   1.811 -0.6331  0.5221 -0.4917
  615TIP3    H2 1803   0.644   4.764   1.697  3.1494 -1.0598  0.8437
  616TIP3   OH2 1804   1.661   5.940   1.635 -0.0158 -0.0124  0.1937
  616TIP3    H1 1805   1.663   5.915   1.727 -1.7894  0.2144  0.3296
  616TIP3    H2 1806   1.590   6.003   1.629 -0.1749 -0.3057 -1.3974
  617TIP3   OH2 1807   0.384   3.360   2.213 -0.2295 -0.1640 -0.4313
  617TIP3    H1 1808   0.298   3.400   2.198  0.6175  1.9375 -0.1228
  617TIP3    H2 1809   0.423   3.353   2.125  0.0811  0.8883 -0.3939
  618TIP3   OH2 1810   6.656   0.134   5.431  0.3517 -0.2297 -0.4973
  618TIP3    H1 1811   6.587   0.098   5.487  1.9670 -0.1274  1.6686
  618TIP3    H2 1812   6.648   0.229   5.441 -0.6997 -0.0872 -2.2227
  619TIP3   OH2 1813   1.651   2.084   5.342 -0.1457 -0.4216 -0.5380
  619TIP3    H1 1814   1.736   2.099   5.384 -1.3047  3.3047  0.8105
  619TIP3    H2 1815   1.649   1.989   5.326  3.2702 -0.9975  1.4738
  620TIP3   OH2 1816   4.422   2.344   6.531  0.2143  0.3055 -0.2790
  620TIP3    H1 1817   4.415   2.435   6.501  0.3977  0.6842  0.7997
  620TIP3    H2 1818   4.452   2.296   6.453  2.7868  1.6141 -0.2181
  621TIP3   OH2 1819   0.226   7.488   2.714 -0.0937 -0.2287  0.1818
  621TIP3    H1 1820   0.153   7.475   2.774 -1.3683  0.3943 -1.2016
  621TIP3    H2 1821   0.217   7.418   2.649  1.0446 -0.6549  0.4456
  622TIP3   OH2 1822   3.918   4.934   5.858 -0.3860  0.5327 -0.0007
  622TIP3    H1 1823   3.868   4.864   5.900  0.5931 -0.0683  0.1910
  622TIP3    H2 1824   3.989   4.889   5.812 -0.4038  1.3159 -0.8268
  623TIP3   OH2 1825   2.791   0.547   5.067  0.1365  0.7191  0.0175
  623TIP3    H1 1826   2.791   0.537   5.162 -0.3102  0.6603  0.0132
  623TIP3    H2 1827   2.814   0.461   5.034  1.4514  1.0259  0.0925
  624TIP3   OH2 1828   0.001   7.076   5.952 -0.1538 -0.3829  0.1976
  624TIP3    H1 1829  -0.011   7.043   5.863 -1.3858 -0.4597  0.3744
  624TIP3    H2 1830   0.037   7.164   5.941 -1.9976  0.3459 -0.4653
  625TIP3   OH2 1831   2.819   3.004   5.530 -0.1800  0.7672 -0.3367
  625TIP3    H1 1832   2.823   3.055   5.449 -2.2987 -1.9093 -2.2861
  625TIP3    H2 1833   2.834   2.913   5.503  1.2364 -0.0316  2.6525
  626TIP3   OH2 1834   3.652   1.691   5.189 -0.3431  0.8704 -0.2256
  626TIP3    H1 1835   3.709   1.632   5.140  0.4801  0.6763  0.9167
  626TIP3    H2 1836   3.706   1.768   5.207 -0.1288  0.3560  1.5539
  627TIP3   OH2 1837   2.487   1.462   3.080  0.2072 -0.0480 -0.1255
  627TIP3    H1 1838   2.545   1.401   3.035 -0.3310 -1.1606  0.6256
  627TIP3    H2 1839   2.476   1.424   3.167  0.8380  1.7983  0.7892
  628TIP3   OH2 1840   3.264   0.993   2.500 -0.0690  0.3599 -0.5986
  628TIP3    H1 1841   3.289   0.940   2.576  2.0098  0.1061 -1.3774
  628TIP3    H2 1842   3.334   1.058   2.493 -1.0145  1.3211 -1.4235
  629TIP3   OH2 1843   6.870   2.450   0.091  0.1516  0.3765 -0.3914
  629TIP3    H1 1844   6.915   2.388   0.148 -0.8650 -1.5685 -1.5848
  629TIP3    H2 1845   6.934   2.473   0.024  0.5629  0.7070  0.1094
  630TIP3   OH2 1846   7.385   5.864   0.928 -0.1999 -0.2802  0.5575
  630TIP3    H1 1847   7.449   5.802   0.963  0.9498  1.0124  0.8359
  630TIP3    H2 1848   7.357   5.826   0.845  0.7649 -0.9841  0.5421
  631TIP3   OH2 1849   5.402   0.206   0.826  0.3937  0.5938 -0.0786
  631TIP3    H1 1850   5.407   0.301   0.827  2.1645  0.6527 -3.1302
  631TIP3    H2 1851   5.320   0.187   0.781 -0.2402  0.5912  1.0203
  632TIP3   OH2 1852   0.035   6.129   4.915 -0.0065 -0.2461 -0.0887
  632TIP3    H1 1853   0.077   6.065   4.858  0.0691  0.4544 -0.8308
  632TIP3    H2 1854   0.098   6.200   4.922 -0.1183 -0.2082  0.6766
  633TIP3   OH2 1855   1.376   4.372   1.367 -0.3802  0.6429  0.2344
  633TIP3    H1 1856   1.443   4.363   1.434 -0.1778  0.7085  0.0430
  633TIP3    H2 1857   1.317   4.298   1.382  1.6010 -1.5005 -1.7096
  634TIP3   OH2 1858   3.427   3.769   2.900 -0.5433  0.3294  0.3331
  634TIP3    H1 1859   3.414   3.841   2.961  0.6413  1.4390 -0.6633
  634TIP3    H2 1860   3.341   3.728   2.893 -1.1445  1.3750  1.2426
  635TIP3   OH2 1861   0.333   0.142   2.851  0.1214  0.4074  0.1974
  635TIP3    H1 1862   0.246   0.154   2.812 -0.3234 -2.5628  0.0285
  635TIP3    H2 1863   0.388   0.114   2.778  0.4689 -0.5726  0.8216
  636TIP3   OH2 1864   2.933   1.221   3.377  0.8083 -0.0420  0.0174
  636TIP3    H1 1865   2.987   1.143   3.385 -0.9787 -1.6184 -1.9414
  636TIP3    H2 1866   2.942   1.247   3.285  0.0367  1.0287  0.2213
  637TIP3   OH2 1867   8.077   5.438   5.274 -0.4837 -0.5062 -0.0606
  637TIP3    H1 1868   8.060   5.529   5.298  0.8512 -0.7162  1.9035
  637TIP3    H2 1869   7.990   5.401   5.257 -1.5778  0.0630  3.4441
  638TIP3   OH2 1870   5.052   3.534   5.200 -0.4421  0.1930 -0.7972
  638TIP3    H1 1871   5.023   3.448   5.229 -1.6905  0.9009  0.1527
  638TIP3    H2 1872   5.143   3.521   5.173  0.2100 -0.9385  1.6414
  639TIP3   OH2 1873   7.819   5.826   1.185  0.2214  0.1518 -0.0006
  639TIP3    H1 1874   7.897   5.779   1.213  0.0708  0.3700  0.8196
  639TIP3    H2 1875   7.852   5.895   1.128  0.9579  1.9253  2.4139
  640TIP3   OH2 1876   1.379   1.100   2.101 -0.1062 -0.8311 -0.0259
  640TIP3    H1 1877   1.465   1.095   2.143 -0.6657 -1.0383  1.1301
  640TIP3    H2 1878   1.336   1.018   2.123 -0.6718 -0.6580 -0.4491
  641TIP3   OH2 1879   7.700   4.072   6.138  0.4622  0.1789  0.4708
  641TIP3    H1 1880   7.781   4.123   6.149 -0.1397  1.1561  0.5142
  641TIP3    H2 1881   7.641   4.131   6.091 -0.3734 -0.3606  0.8266
  642TIP3   OH2 1882   6.545   6.344   0.473 -0.7572  0.0829  0.5025
  642TIP3    H1 1883   6.480   6.327   0.540 -1.9321  0.0041 -0.6132
  642TIP3    H2 1884   6.508   6.416   0.421  1.4620  2.2221  1.6801
  643TIP3   OH2 1885   1.710   0.267   2.392  0.3902 -0.0722 -0.5580
  643TIP3    H1 1886   1.759   0.230   2.465 -0.2762  0.3857  0.1270
  643TIP3    H2 1887   1.701   0.194   2.330  0.4124 -0.6432  0.0953
  644TIP3   OH2 1888   5.048   5.567   0.652 -0.4979 -0.3363 -0.3985
  644TIP3    H1 1889   5.069   5.527   0.737  0.8089  0.4107 -0.3509
  644TIP3    H2 1890   5.002   5.498   0.604  1.0520 -1.6935 -0.0444
  645TIP3   OH2 1891   0.710   1.379   2.708 -0.1653 -0.0140  0.1192
  645TIP3    H1 1892   0.787   1.377   2.764 -0.4810  1.9120  0.6968
  645TIP3    H2 1893   0.681   1.288   2.704  0.9566 -0.4767  1.5564
  646TIP3   OH2 1894   7.379   7.187   3.311  0.6568 -0.8743  0.4759
  646TIP3    H1 1895   7.414   7.204   3.398 -0.2782  1.9594  0.4121
  646TIP3    H2 1896   7.293   7.229   3.311  0.7511 -0.5284 -1.8927
  647TIP3   OH2 1897   4.883   4.709   4.244  0.3245 -0.0486  0.6600
  647TIP3    H1 1898   4.975   4.698   4.220  0.2193 -0.3326  0.3702
  647TIP3    H2 1899   4.847   4.767   4.177  0.1146 -0.5600  0.3126
  648TIP3   OH2 1900   5.383   5.656   5.598 -0.3342 -0.2029 -0.1679
  648TIP3    H1 1901   5.338   5.661   5.514 -1.1675  0.4908  0.3088
  648TIP3    H2 1902   5.476   5.651   5.575 -0.5135  0.5409 -1.1203
  649TIP3   OH2 1903   4.864   3.138   1.757  0.3523  0.5023 -0.7884
  649TIP3    H1 1904   4.828   3.223   1.782 -0.1025  0.0698  0.0903
  649TIP3    H2 1905   4.832   3.078   1.825 -1.8298 -0.9584 -2.9411
  650TIP3   OH2 1906   8.080   0.566   1.212  0.5308 -0.5119  0.0388
  650TIP3    H1 1907   8.140   0.532   1.279  0.1779 -2.4374 -0.5438
  650TIP3    H2 1908   8.021   0.624   1.260  1.5249 -0.2513  1.0035
  651TIP3   OH2 1909   7.639   5.292   6.057  0.1640 -0.2668 -0.5246
  651TIP3    H1 1910   7.668   5.254   6.140 -2.5641  0.8271  1.0529
  651TIP3    H2 1911   7.648   5.386   6.069  0.1332 -0.1039 -1.6726
  652TIP3   OH2 1912   3.140   5.536   3.005 -0.1444  0.1631  0.0028
  652TIP3    H1 1913   3.094   5.594   2.944 -0.3526 -1.1621 -1.1575
  652TIP3    H2 1914   3.125   5.574   3.091 -0.4518  1.6956 -0.6929
  653TIP3   OH2 1915   6.555   5.859   2.241 -0.2294  0.3595  0.0968
  653TIP3    H1 1916   6.637   5.892   2.205  0.1707 -0.6959  0.0125
  653TIP3    H2 1917   6.555   5.765   2.220 -1.2376  0.2525  0.5035
  654TIP3   OH2 1918   1.532   1.168   4.950 -0.3562  0.1165  0.3170
  654TIP3    H1 1919   1.581   1.235   4.902 -0.7310 -0.5943 -1.1306
  654TIP3    H2 1920   1.440   1.185   4.929 -0.4316 -1.0964 -0.4588
  655TIP3   OH2 1921   7.303   4.295   1.043  0.0700 -0.8952 -0.2196
  655TIP3    H1 1922   7.214   4.331   1.049  0.5002  0.2922 -0.5612
  655TIP3    H2 1923   7.316   4.278   0.950  1.5384  2.7029 -0.8432
  656TIP3   OH2 1924   3.977   3.696   4.851 -0.2292 -0.3778  0.9974
  656TIP3    H1 1925   3.897   3.659   4.888 -0.7696 -0.9079 -0.6193
  656TIP3    H2 1926   3.963   3.693   4.756  1.5917 -0.2151  0.6919
  657TIP3   OH2 1927   3.424   2.552   0.908  0.0278  0.1339  0.4713
  657TIP3    H1 1928   3.502   2.590   0.867 -0.5223 -0.0027 -0.7334
  657TIP3    H2 1929   3.355   2.616   0.890 -0.4861 -0.5214  0.1168
  658TIP3   OH2 1930   5.704   1.453   5.815 -0.0527 -0.0025 -0.8104
  658TIP3    H1 1931   5.661   1.376   5.778 -0.2359  0.1271 -0.8677
  658TIP3    H2 1932   5.633   1.507   5.848  0.1895 -0.8249  1.1716
  659TIP3   OH2 1933   6.675   7.443   4.120  0.1326 -0.2932  0.4590
  659TIP3    H1 1934   6.758   7.427   4.166  0.7046 -1.9702 -1.0721
  659TIP3    H2 1935   6.691   7.522   4.068  1.4646 -1.6437 -1.2841
  660TIP3   OH2 1936   1.230   5.357   1.661 -0.2990 -0.0726  0.1255
  660TIP3    H1 1937   1.180   5.437   1.643  1.8454  1.3324  0.0984
  660TIP3    H2 1938   1.261   5.328   1.575 -1.0865 -0.9960  0.1305
  661TIP3   OH2 1939   6.813   0.192   4.963  0.2424 -0.0278 -0.0939
  661TIP3    H1 1940   6.766   0.109   4.960  2.5656 -1.5148  1.3288
  661TIP3    H2 1941   6.879   0.185   4.894  0.3841  0.6769 -0.0404
  662TIP3   OH2 1942   6.416   3.819   3.512  0.2452 -0.4088  0.0786
  662TIP3    H1 1943   6.419   3.911   3.486  3.0973 -0.0036  1.4814
  662TIP3    H2 1944   6.488   3.778   3.464 -0.2063 -1.6349  0.4231
  663TIP3   OH2 1945   6.081   4.994   0.868  0.4573  0.1994  0.0078
  663TIP3    H1 1946   6.153   5.037   0.915  0.1653 -1.7026  2.3680
  663TIP3    H2 1947   6.081   4.905   0.901 -3.2034  0.1869  0.3368
  664TIP3   OH2 1948   5.363   1.335   5.889  0.2986 -0.5345 -0.3910
  664TIP3    H1 1949   5.369   1.417   5.841 -0.2100 -0.7354 -0.8091
  664TIP3    H2 1950   5.271   1.329   5.915  0.4092 -0.7942 -0.0548
  665TIP3   OH2 1951   5.598   2.471   5.937  0.3813  0.3810  0.5902
  665TIP3    H1 1952   5.586   2.394   5.991  0.3199 -0.0851 -0.0731
  665TIP3    H2 1953   5.510   2.504   5.921  0.5156  2.6289  3.6934
  666TIP3   OH2 1954   1.660   1.318   2.447 -0.4467 -0.5649  0.6165
  666TIP3    H1 1955   1.597   1.324   2.518 -1.9892 -0.2818 -0.7184
  666TIP3    H2 1956   1.614   1.272   2.377  0.5243  0.4301 -0.7276
  667TIP3   OH2 1957   4.840   4.079   5.602 -0.2695  0.0233 -0.1983
  667TIP3    H1 1958   4.853   4.094   5.695  1.2749  0.3007 -0.4383
  667TIP3    H2 1959   4.882   4.154   5.559 -0.8357 -0.1686 -1.1197
  668TIP3   OH2 1960   5.182   3.799   0.607 -0.2742 -0.2378 -0.3526
  668TIP3    H1 1961   5.214   3.723   0.655 -1.2737 -0.0338  0.7018
  668TIP3    H2 1962   5.208   3.784   0.517  0.5953 -1.2420  0.0463
  669TIP3   OH2 1963   0.958   4.632   4.054 -0.0354 -0.7742  0.0863
  669TIP3    H1 1964   0.962   4.723   4.083 -0.6783 -0.2637 -1.3719
  669TIP3    H2 1965   1.020   4.586   4.111  1.6722  0.8909 -0.3372
  670TIP3   OH2 1966   1.852   2.505   4.906  0.1088 -0.3495 -0.1835
  670TIP3    H1 1967   1.919   2.570   4.929  0.8847 -0.7873 -1.1129
  670TIP3    H2 1968   1.783   2.556   4.864 -0.6994  0.2632  1.7937
  671TIP3   OH2 1969   5.344   7.121   2.767  0.2067  0.1173  0.0566
  671TIP3    H1 1970   5.437   7.112   2.749  0.3928 -0.6362  1.2423
  671TIP3    H2 1971   5.332   7.078   2.852 -1.2938 -0.1776 -0.2731
  672TIP3   OH2 1972   6.902   2.812   3.221  0.1872  0.1433  0.1092
  672TIP3    H1 1973   6.908   2.905   3.198 -0.9616 -0.5707 -4.0118
  672TIP3    H2 1974   6.978   2.772   3.179 -1.8033 -1.2764 -2.4037
  673TIP3   OH2 1975   4.981   5.330   5.743 -0.1730  0.4256  0.0189
  673TIP3    H1 1976   5.008   5.422   5.749 -1.3537  0.8579 -0.8646
  673TIP3    H2 1977   5.063   5.281   5.734  0.4048  1.5495 -1.2253
  674TIP3   OH2 1978   6.508   5.735   6.362 -0.3950 -0.0080 -0.1387
  674TIP3    H1 1979   6.482   5.687   6.441  1.0455  0.1243  0.4406
  674TIP3    H2 1980   6.485   5.826   6.381 -0.5369 -0.0512 -0.0987
  675TIP3   OH2 1981   3.741   5.505   3.030  0.1677 -0.2792  0.9023
  675TIP3    H1 1982   3.783   5.481   3.112  0.8315 -1.6336  0.2069
  675TIP3    H2 1983   3.654   5.465   3.034  0.7041 -1.5558  0.3995
  676TIP3   OH2 1984   7.725   3.727   5.313  0.4037 -0.2045  0.2833
  676TIP3    H1 1985   7.788   3.736   5.384 -1.3337 -0.8670  1.9986
  676TIP3    H2 1986   7.716   3.633   5.300  0.4386 -0.0973 -0.5831
  677TIP3   OH2 1987   7.890   5.054   4.495  0.0407 -0.2478 -0.1447
  677TIP3    H1 1988   7.795   5.067   4.503 -0.0391 -0.4951 -0.6334
  677TIP3    H2 1989   7.928   5.115   4.558 -0.4131  0.5327 -0.6012
  678TIP3   OH2 1990   5.008   2.359   6.142  0.2311  0.6329 -0.2273
  678TIP3    H1 1991   5.018   2.330   6.233  1.0215  0.4529 -0.3591
  678TIP3    H2 1992   4.924   2.405   6.140 -0.2973 -0.2779  0.3502
  679TIP3   OH2 1993   2.378   7.786   0.497 -0.3711  0.2801 -0.0631
  679TIP3    H1 1994   2.293   7.811   0.461 -0.3140  1.2019  0.4066
  679TIP3    H2 1995   2.419   7.734   0.428 -1.6048 -0.8231 -0.0127
  680TIP3   OH2 1996   6.476   7.740   2.221 -0.4253  0.2599 -0.3301
  680TIP3    H1 1997   6.404   7.696   2.174 -1.4828  0.7036  0.8019
  680TIP3    H2 1998   6.450   7.734   2.314  1.8838 -1.1244  0.2908
  681TIP3   OH2 1999   7.009   6.801   0.470  0.3139  0.5669 -0.2772
  681TIP3    H1 2000   7.005   6.848   0.553 -0.6206  1.7718 -0.9482
  681TIP3    H2 2001   7.097   6.818   0.437  0.3188  1.0346 -0.0406
  682TIP3   OH2 2002   0.820   7.322   0.275  0.0186  0.2343  0.3067
  682TIP3    H1 2003   0.843   7.320   0.182 -1.5217  1.1188 -0.1332
  682TIP3    H2 2004   0.799   7.231   0.296 -0.3521  0.1347 -0.4392
  683TIP3   OH2 2005   0.458   0.112   4.987  0.5897  0.0178 -0.2425
  683TIP3    H1 2006   0.511   0.069   5.055  0.4441  0.0357 -0.1185
  683TIP3    H2 2007   0.516   0.115   4.911  0.3286 -1.1426 -0.5176
  684TIP3   OH2 2008   0.676   1.884   2.660 -0.0363  0.1261 -0.3880
  684TIP3    H1 2009   0.767   1.867   2.634  0.1202  0.8652 -0.3608
  684TIP3    H2 2010   0.660   1.974   2.630 -1.1853 -0.4369 -1.5601
  685TIP3   OH2 2011   2.468   2.305   1.000  0.6705  0.8361  0.0216
  685TIP3    H1 2012   2.457   2.291   0.906  1.4507  0.2301  0.0184
  685TIP3    H2 2013   2.424   2.389   1.016  0.9000  1.1612 -0.9601
  686TIP3   OH2 2014   8.241   0.810   4.137  0.2307  0.0186  0.4246
  686TIP3    H1 2015   8.210   0.896   4.166  2.0703  1.7513 -2.3024
  686TIP3    H2 2016   8.335   0.813   4.152  0.6701 -0.5050 -1.9458
  687TIP3   OH2 2017   7.415   1.834   3.508 -0.7511 -0.4128  0.0026
  687TIP3    H1 2018   7.359   1.757   3.497 -2.5993  0.9639 -0.8696
  687TIP3    H2 2019   7.379   1.898   3.447  1.2262  0.9050  0.1139
  688TIP3   OH2 2020   0.764   1.242   3.201 -0.0094  0.2032  0.2981
  688TIP3    H1 2021   0.843   1.193   3.223  0.3215  0.1353 -0.9564
  688TIP3    H2 2022   0.743   1.291   3.281  1.6658  0.7247  0.4532
  689TIP3   OH2 2023   0.444   3.351   4.197 -0.0244  0.0226  0.2855
  689TIP3    H1 2024   0.478   3.286   4.259 -0.8842  0.5366  1.3362
  689TIP3    H2 2025   0.415   3.423   4.252 -1.1914  0.3335 -0.6894
  690TIP3   OH2 2026   3.061   0.234   3.020  0.3350 -0.0637  0.0968
  690TIP3    H1 2027   3.109   0.317   3.011  0.1408  0.1989  1.2800
  690TIP3    H2 2028   3.122   0.167   2.992  1.1286  0.3351  0.8363
  691TIP3   OH2 2029   4.148   7.527   5.498  0.5970  0.1836 -0.0083
  691TIP3    H1 2030   4.090   7.564   5.565  0.7836 -0.7668  0.6889
  691TIP3    H2 2031   4.163   7.437   5.526  0.9166 -0.1393 -1.1826
  692TIP3   OH2 2032   4.857   5.682   6.763 -0.4421  0.3134 -0.5828
  692TIP3    H1 2033   4.873   5.768   6.724  1.7839  1.0349  1.6542
  692TIP3    H2 2034   4.781   5.694   6.818 -0.8465  0.5144 -1.1783
  693TIP3   OH2 2035   7.462   2.434   3.342 -0.3391 -0.3420  0.9760
  693TIP3    H1 2036   7.384   2.378   3.345 -0.7645  0.2651  2.8653
  693TIP3    H2 2037   7.533   2.376   3.368 -0.7003 -0.1809  2.4280
  694TIP3   OH2 2038   0.051   2.420   0.207 -0.0276  0.2570  0.3202
  694TIP3    H1 2039   0.073   2.328   0.225 -1.4479 -0.0241  0.7968
  694TIP3    H2 2040  -0.015   2.416   0.138 -0.9994  0.8145  1.1765
  695TIP3   OH2 2041   5.267   0.134   0.239 -0.3159 -0.0533 -0.4059
  695TIP3    H1 2042   5.213   0.117   0.161  0.1009 -1.0153 -0.4939
  695TIP3    H2 2043   5.313   0.052   0.255 -0.5008  0.0796  0.9507
  696TIP3   OH2 2044   6.128   4.460   6.321 -0.1535 -0.5630  0.5554
  696TIP3    H1 2045   6.165   4.394   6.262 -0.5053 -1.9582  1.8249
  696TIP3    H2 2046   6.085   4.522   6.263  1.9056 -0.3184 -0.8046
  697TIP3   OH2 2047   2.548   4.730   6.581  0.0860 -0.7316 -0.5496
  697TIP3    H1 2048   2.499   4.810   6.564 -3.0808 -2.3039  0.2865
  697TIP3    H2 2049   2.540   4.679   6.500  1.6448 -0.4637 -0.9032
  698TIP3   OH2 2050   6.736   4.128   2.895  0.3062 -0.0593 -0.5114
  698TIP3    H1 2051   6.799   4.074   2.943  1.5275  0.9500 -0.9332
  698TIP3    H2 2052   6.763   4.120   2.803 -1.1885 -0.8923 -0.9206
  699TIP3   OH2 2053   5.478   4.398   0.521  0.3639 -0.6207 -0.2209
  699TIP3    H1 2054   5.569   4.406   0.492  1.0070 -0.8046  1.5752
  699TIP3    H2 2055   5.461   4.303   0.522  0.5861 -0.6645  0.5850
  700TIP3   OH2 2056   7.950   4.136   6.335 -0.2455 -0.1418  0.5283
  700TIP3    H1 2057   7.941   4.209   6.274 -0.9652 -0.6510  0.0238
  700TIP3    H2 2058   7.992   4.175   6.412 -0.9139  0.8763  0.3919
  701TIP3   OH2 2059   1.357   7.629   0.714  0.3648 -0.6933 -0.1590
  701TIP3    H1 2060   1.332   7.638   0.806 -0.5635 -0.7271 -0.3985
  701TIP3    H2 2061   1.451   7.610   0.717  0.2683 -1.1044  0.7975
  702TIP3   OH2 2062   0.118   2.257   0.927 -0.0697 -0.2356 -0.6916
  702TIP3    H1 2063   0.144   2.184   0.870  0.4707  0.2405 -1.0532
  702TIP3    H2 2064   0.049   2.219   0.982  1.5415 -1.6014  0.4921
  703TIP3   OH2 2065   2.952   3.665   2.410 -0.9759  0.3996  0.2923
  703TIP3    H1 2066   2.899   3.728   2.362 -0.3171  1.5003  0.9602
  703TIP3    H2 2067   3.022   3.642   2.349 -1.7302 -0.4174 -0.2869
  704TIP3   OH2 2068   5.765   7.312   4.230 -0.2135  0.1760  0.1420
  704TIP3    H1 2069   5.691   7.329   4.172  0.0893  0.5675 -0.1334
  704TIP3    H2 2070   5.736   7.342   4.316 -0.5339 -0.0795  0.1253
  705TIP3   OH2 2071   3.919   3.624   1.853  0.2083  0.0320 -0.0074
  705TIP3    H1 2072   3.879   3.538   1.864 -0.5700  0.1274 -1.7954
  705TIP3    H2 2073   3.847   3.681   1.825  0.9023  1.0588  0.2236
  706TIP3   OH2 2074   3.876   6.812   1.998 -0.2724  0.3964  0.0000
  706TIP3    H1 2075   3.920   6.737   2.038 -1.1476 -0.4314 -0.5718
  706TIP3    H2 2076   3.897   6.886   2.056  1.3644 -0.0884  0.0588
  707TIP3   OH2 2077   1.717   4.466   0.500  0.2513  0.4493  0.1874
  707TIP3    H1 2078   1.757   4.391   0.456 -1.4563 -0.8406  0.7421
  707TIP3    H2 2079   1.733   4.539   0.441  0.8679 -0.5829 -0.9881
  708TIP3   OH2 2080   3.990   3.496   0.885  0.2226 -0.0640  0.4854
  708TIP3    H1 2081   3.961   3.587   0.879  1.1859  0.2109 -0.5271
  708TIP3    H2 2082   4.017   3.485   0.976 -1.3832  0.1652  1.0221
  709TIP3   OH2 2083   8.022   7.110   2.715  0.1877  0.0940  0.0310
  709TIP3    H1 2084   7.992   7.071   2.797  0.3028 -1.0800 -0.4676
  709TIP3    H2 2085   8.116   7.123   2.727  0.2416 -0.2710  0.0149
  710TIP3   OH2 2086   3.648   0.923   3.624  0.9493 -0.1735 -0.3941
  710TIP3    H1 2087   3.677   0.935   3.534 -0.5163 -0.7943 -0.9650
  710TIP3    H2 2088   3.720   0.874   3.665  2.4419  1.6292 -0.6938
  711TIP3   OH2 2089   3.654   0.274   2.212  0.1085 -0.0581  0.1179
  711TIP3    H1 2090   3.653   0.351   2.270  1.0816  0.2749 -0.2911
  711TIP3    H2 2091   3.636   0.310   2.125 -0.1033 -0.3883  0.0261
  712TIP3   OH2 2092   5.649   2.358   5.320 -0.0493  0.4209 -0.5183
  712TIP3    H1 2093   5.728   2.314   5.290  0.0834  0.7236 -0.6162
  712TIP3    H2 2094   5.680   2.416   5.390 -0.4181 -0.6272  0.5472
  713TIP3   OH2 2095   4.751   5.715   4.566 -0.4924  0.9050 -0.0621
  713TIP3    H1 2096   4.791   5.776   4.504 -1.4180  1.7182  0.1236
  713TIP3    H2 2097   4.805   5.636   4.560  0.1317  1.3891 -1.0316
  714TIP3   OH2 2098   3.578   3.454   5.959 -0.1464 -0.1726 -0.0420
  714TIP3    H1 2099   3.628   3.418   6.032  2.1809 -2.2407 -2.4288
  714TIP3    H2 2100   3.506   3.392   5.945  0.1378 -0.4645 -0.2327
  715TIP3   OH2 2101   0.812   6.226   4.527 -0.6314  0.0096  0.9598
  715TIP3    H1 2102   0.754   6.278   4.471  0.8558  0.0602 -0.6146
  715TIP3    H2 2103   0.866   6.290   4.573  0.5817 -0.0459 -0.3019
  716TIP3   OH2 2104   2.226   0.596   6.733  1.0056  0.2972  0.0074
  716TIP3    H1 2105   2.221   0.517   6.788  2.1816  0.1411 -0.0834
  716TIP3    H2 2106   2.142   0.599   6.688  0.9625 -0.9456 -0.0363
  717TIP3   OH2 2107   5.422   1.442   5.152 -0.1688 -0.6137 -0.9123
  717TIP3    H1 2108   5.442   1.535   5.164 -0.5616 -0.2811 -2.6906
  717TIP3    H2 2109   5.360   1.421   5.222  1.4055 -0.0671  0.7291
  718TIP3   OH2 2110   0.401   5.582   0.954  0.0808  0.4309 -0.0121
  718TIP3    H1 2111   0.384   5.490   0.934  1.4046 -0.2636  1.7696
  718TIP3    H2 2112   0.317   5.625   0.943 -0.7691 -1.1634 -0.0485
  719TIP3   OH2 2113   5.926   5.012   5.705 -0.2645  0.0254  0.3289
  719TIP3    H1 2114   5.902   4.920   5.716 -0.9592 -0.1324 -1.9458
  719TIP3    H2 2115   5.850   5.061   5.739 -0.7635 -0.3060 -0.2933
  720TIP3   OH2 2116   4.502   6.826   5.703  0.5109 -0.4220  0.7833
  720TIP3    H1 2117   4.466   6.779   5.628  0.6326  0.6148  0.0511
  720TIP3    H2 2118   4.583   6.779   5.724  0.4112 -0.7991  0.3484
  721TIP3   OH2 2119   2.082   7.286   1.732 -0.1768  0.2651 -0.0610
  721TIP3    H1 2120   2.024   7.211   1.717  0.7430 -0.5848  0.4693
  721TIP3    H2 2121   2.030   7.362   1.707 -1.4421 -0.4812  0.1868
  722TIP3   OH2 2122   7.204   2.626   2.209  0.0676 -0.4651  0.5411
  722TIP3    H1 2123   7.129   2.685   2.220  0.4816  0.1973 -0.0549
  722TIP3    H2 2124   7.279   2.685   2.201  0.6355 -1.1201  1.0241
  723TIP3   OH2 2125   5.796   6.499   3.530  0.2330 -0.2389  0.3455
  723TIP3    H1 2126   5.808   6.404   3.517  0.1786 -0.2967  0.7222
  723TIP3    H2 2127   5.880   6.537   3.504  0.4190 -0.4329  0.6522
  724TIP3   OH2 2128   2.959   1.038   4.873 -0.0358  0.3139  0.2035
  724TIP3    H1 2129   3.044   1.078   4.889  0.3937 -0.3588 -0.3510
  724TIP3    H2 2130   2.951   0.970   4.940  0.2937 -0.2516 -0.3097
  725TIP3   OH2 2131   7.941   5.295   1.829  0.0412 -0.2653  0.2151
  725TIP3    H1 2132   7.908   5.286   1.918  1.8246  1.6598  1.1473
  725TIP3    H2 2133   7.973   5.385   1.824  0.0443 -0.3383 -2.3722
  726TIP3   OH2 2134   6.782   6.913   4.656  0.7549  0.1035 -0.4958
  726TIP3    H1 2135   6.713   6.847   4.656  0.7893  0.0416 -2.2203
  726TIP3    H2 2136   6.851   6.876   4.712  0.0366 -0.5013  0.0070
  727TIP3   OH2 2137   2.400   7.226   6.329 -0.4301  0.6260  0.0952
  727TIP3    H1 2138   2.458   7.283   6.380 -0.5469 -0.0135  0.9620
  727TIP3    H2 2139   2.458   7.182   6.267 -0.1781  0.8684  0.1551
  728TIP3   OH2 2140   0.397   6.458   4.655  0.0130 -0.0418  0.2112
  728TIP3    H1 2141   0.341   6.503   4.718  1.2553  1.1145  0.5312
  728TIP3    H2 2142   0.441   6.390   4.706 -0.4826 -0.4377  0.1261
  729TIP3   OH2 2143   5.280   0.526   4.239  0.5554 -0.0187 -0.4762
  729TIP3    H1 2144   5.263   0.620   4.230  0.0865  0.0227  0.7019
  729TIP3    H2 2145   5.219   0.485   4.177  0.5001  0.4294 -0.7282
  730TIP3   OH2 2146   1.208   1.158   3.074 -0.1115 -0.4877 -0.0423
  730TIP3    H1 2147   1.274   1.168   3.142 -0.0377  0.1361 -0.2002
  730TIP3    H2 2148   1.241   1.209   3.000 -0.6775 -0.3255 -0.1916
  731TIP3   OH2 2149   0.690   6.483   0.446 -0.5775  0.0757 -0.0161
  731TIP3    H1 2150   0.601   6.480   0.481 -0.0558 -0.8805  1.2948
  731TIP3    H2 2151   0.721   6.571   0.466 -0.3969 -0.3496  1.7545
  732TIP3   OH2 2152   1.441   0.589   2.191  0.0473  0.5999 -0.4149
  732TIP3    H1 2153   1.489   0.507   2.189  0.5680  0.8992 -1.9692
  732TIP3    H2 2154   1.352   0.565   2.215  0.1714 -0.4261 -0.9485
  733TIP3   OH2 2155   3.203   1.245   1.776  0.0047  0.1474 -0.4422
  733TIP3    H1 2156   3.233   1.304   1.707  0.6413  1.7253  1.0975
  733TIP3    H2 2157   3.186   1.303   1.851 -0.4693 -1.5058  0.7836
  734TIP3   OH2 2158   7.666   0.251   6.685 -0.3604  0.2645  0.2120
  734TIP3    H1 2159   7.681   0.265   6.779 -0.9109 -0.2213  0.3781
  734TIP3    H2 2160   7.682   0.158   6.672  1.0145  0.5670 -0.4434
  735TIP3   OH2 2161   7.208   1.697   6.300 -0.0598  0.1340  0.3378
  735TIP3    H1 2162   7.258   1.768   6.339  1.1432 -0.2898 -0.3656
  735TIP3    H2 2163   7.260   1.619   6.316 -0.3156 -0.2733 -0.7058
  736TIP3   OH2 2164   7.486   6.598   2.086  0.9778  0.0977 -0.0920
  736TIP3    H1 2165   7.392   6.601   2.070  0.7338  1.3277  1.3300
  736TIP3    H2 2166   7.500   6.517   2.135  0.8562 -0.6725 -1.2979
  737TIP3   OH2 2167   4.816   0.391   6.705  0.3110 -0.0602 -0.8620
  737TIP3    H1 2168   4.877   0.461   6.686  1.3426 -0.9301 -0.8675
  737TIP3    H2 2169   4.754   0.392   6.632  1.4217 -0.3418 -1.8369
  738TIP3   OH2 2170   5.653   6.097   3.022 -0.1966  0.6144  0.3120
  738TIP3    H1 2171   5.584   6.156   2.991  0.1748  1.8168  1.6867
  738TIP3    H2 2172   5.710   6.152   3.075  1.4038 -0.5257 -0.1413
  739TIP3   OH2 2173   4.398   1.961   6.387 -0.1801 -0.2525 -0.5104
  739TIP3    H1 2174   4.474   1.973   6.330 -1.1249  1.5537 -1.4514
  739TIP3    H2 2175   4.396   1.866   6.404  1.9560 -0.4075 -0.8688
  740TIP3   OH2 2176   8.196   6.656   6.137  0.2318  0.1340  0.5857
  740TIP3    H1 2177   8.204   6.743   6.175  0.4972  0.4869 -0.2659
  740TIP3    H2 2178   8.150   6.669   6.055 -2.5968 -0.9266  1.8467
  741TIP3   OH2 2179   2.434   6.685   3.922  0.0031 -0.1584 -0.0492
  741TIP3    H1 2180   2.382   6.711   3.998  2.3026  0.3884  1.4324
  741TIP3    H2 2181   2.377   6.625   3.874 -2.7483  1.9933  0.2961
  742TIP3   OH2 2182   0.506   1.399   0.975 -0.4554 -0.1275 -0.7939
  742TIP3    H1 2183   0.570   1.328   0.986 -1.7141 -0.9367  2.0419
  742TIP3    H2 2184   0.529   1.464   1.041 -3.2302 -1.0660  1.2768
  743TIP3   OH2 2185   3.285   3.314   1.269  0.2102 -0.0251 -0.6650
  743TIP3    H1 2186   3.210   3.360   1.308  0.8083 -0.6311  1.2883
  743TIP3    H2 2187   3.247   3.234   1.233 -0.4594  0.8540 -2.0010
  744TIP3   OH2 2188   2.092   5.989   6.442 -0.1387  0.5318  0.0087
  744TIP3    H1 2189   2.024   6.056   6.433 -3.1150 -2.0997  0.9473
  744TIP3    H2 2190   2.054   5.910   6.402  1.3311 -1.7261  2.6674
  745TIP3   OH2 2191   3.104   0.151   0.660 -0.1769  0.3949  0.4179
  745TIP3    H1 2192   3.059   0.234   0.648 -1.1796 -0.0462  1.0072
  745TIP3    H2 2193   3.188   0.176   0.701  0.5529  1.2927 -1.5149
  746TIP3   OH2 2194   4.793   4.476   0.407  0.3957 -0.0916 -0.0683
  746TIP3    H1 2195   4.793   4.572   0.398 -1.7300  0.0333  0.8663
  746TIP3    H2 2196   4.754   4.444   0.326 -1.3203  0.0164  0.6755
  747TIP3   OH2 2197   1.288   4.057   2.425 -0.5767 -0.5296  0.6289
  747TIP3    H1 2198   1.379   4.074   2.451 -0.3617  0.3148 -0.6068
  747TIP3    H2 2199   1.265   3.975   2.470  0.7890 -0.7512  0.9620
  748TIP3   OH2 2200   0.174   5.528   2.853  0.0115 -0.1556 -0.0299
  748TIP3    H1 2201   0.118   5.568   2.787 -0.0047 -0.4715 -0.2085
  748TIP3    H2 2202   0.143   5.565   2.936  0.3203  0.5800 -0.2338
  749TIP3   OH2 2203   7.651   2.796   1.561  0.0519 -0.2800  0.2581
  749TIP3    H1 2204   7.610   2.814   1.476 -0.4554 -1.4721  0.2304
  749TIP3    H2 2205   7.661   2.701   1.562 -0.7351 -0.3714  1.8816
  750TIP3   OH2 2206   4.306   0.535   4.712  0.1069 -0.1543  0.5499
  750TIP3    H1 2207   4.332   0.578   4.794 -1.4872 -0.5903  1.3267
  750TIP3    H2 2208   4.240   0.593   4.674  0.5745 -0.1374 -0.2520
  751TIP3   OH2 2209   7.335   4.350   3.493 -0.0640  0.0409 -0.1935
  751TIP3    H1 2210   7.285   4.310   3.422 -1.3784  1.4105 -0.0842
  751TIP3    H2 2211   7.383   4.277   3.533  1.2880 -0.6800 -2.8955
  752TIP3   OH2 2212   5.760   1.254   1.552 -0.1290 -0.2086 -0.1046
  752TIP3    H1 2213   5.856   1.259   1.560 -0.0365  0.9689 -1.6129
  752TIP3    H2 2214   5.745   1.187   1.485 -0.3214  0.2343 -0.5078
  753TIP3   OH2 2215   8.186   6.221   4.618 -0.1662  0.6476  0.0323
  753TIP3    H1 2216   8.262   6.205   4.562 -0.8040  0.7842 -0.8912
  753TIP3    H2 2217   8.192   6.314   4.641 -0.1415  0.6980 -0.1745
  754TIP3   OH2 2218   5.982   5.153   1.791 -0.1622  0.9916  0.0184
  754TIP3    H1 2219   6.009   5.171   1.701 -1.0779 -0.4663 -0.5897
  754TIP3    H2 2220   5.887   5.149   1.788 -0.1466 -1.5588  0.4740
  755TIP3   OH2 2221   7.888   3.240   0.378  0.3402  0.9445 -0.3823
  755TIP3    H1 2222   7.974   3.279   0.366  0.4577  0.2653 -1.9724
  755TIP3    H2 2223   7.827   3.308   0.349  0.2563  1.6962  1.4158
  756TIP3   OH2 2224   3.145   0.706   6.282 -0.4785  0.1862  0.0456
  756TIP3    H1 2225   3.150   0.782   6.224  0.1271 -0.6301 -1.0063
  756TIP3    H2 2226   3.082   0.648   6.239 -0.2541 -0.2979  0.3691
  757TIP3   OH2 2227   7.430   1.942   6.079 -0.7454  0.0316 -0.2712
  757TIP3    H1 2228   7.341   1.977   6.085 -0.5158  0.7677 -0.9526
  757TIP3    H2 2229   7.486   2.019   6.074 -0.1018 -0.4279 -0.3235
  758TIP3   OH2 2230   2.912   4.181   4.624 -0.5959  0.3420 -0.3691
  758TIP3    H1 2231   2.867   4.246   4.677 -0.3234  1.2841 -1.2484
  758TIP3    H2 2232   2.845   4.117   4.601 -0.4988 -0.6678  1.9132
  759TIP3   OH2 2233   4.858   7.746   0.595 -0.1129 -0.2069 -0.1237
  759TIP3    H1 2234   4.779   7.692   0.599 -0.7440  0.7322  0.6102
  759TIP3    H2 2235   4.869   7.765   0.502  0.3061 -1.8233 -0.4401
  760TIP3   OH2 2236   5.686   1.807   6.226  0.1635 -0.1433 -0.3885
  760TIP3    H1 2237   5.705   1.725   6.271 -1.7737 -0.1016  0.6002
  760TIP3    H2 2238   5.770   1.834   6.188  1.3341 -1.4113  1.1674
  761TIP3   OH2 2239   4.195   1.768   5.204  0.1054  0.1622 -0.4501
  761TIP3    H1 2240   4.195   1.810   5.290  0.0084  2.0709 -1.3307
  761TIP3    H2 2241   4.287   1.767   5.178  0.2129 -0.9916 -0.0896
  762TIP3   OH2 2242   5.766   5.696   0.272  0.6282 -0.1780  0.1685
  762TIP3    H1 2243   5.812   5.693   0.188  0.3778 -1.3390  0.0664
  762TIP3    H2 2244   5.679   5.662   0.253  0.5162 -0.2989  0.8642
  763TIP3   OH2 2245   4.083   0.972   6.037  0.1387 -0.2641 -0.2693
  763TIP3    H1 2246   4.095   0.878   6.050 -1.8321 -0.9034 -2.3970
  763TIP3    H2 2247   4.130   0.992   5.957 -0.3654  0.3076 -0.4348
  764TIP3   OH2 2248   5.814   3.359   2.958  0.3658 -0.2641 -0.2398
  764TIP3    H1 2249   5.908   3.356   2.942  0.2938 -0.0972 -0.7069
  764TIP3    H2 2250   5.774   3.349   2.872 -0.0488 -0.4170 -0.0375
  765TIP3   OH2 2251   6.572   2.392   5.075 -0.4229 -0.3311 -0.1871
  765TIP3    H1 2252   6.573   2.337   5.153  1.1112  0.9411  0.7510
  765TIP3    H2 2253   6.621   2.470   5.100 -0.0160  0.1933 -2.3869
  766TIP3   OH2 2254   2.677   1.507   6.012  0.1641 -0.0231 -0.2393
  766TIP3    H1 2255   2.698   1.417   5.990  1.2541  0.8165 -3.0133
  766TIP3    H2 2256   2.669   1.507   6.108  1.2398 -2.8027 -0.0650
  767TIP3   OH2 2257   2.279   6.490   2.236 -0.1011 -0.4604  0.1857
  767TIP3    H1 2258   2.326   6.473   2.318  0.6966 -0.3921 -0.2392
  767TIP3    H2 2259   2.218   6.417   2.228 -0.8185 -0.0023  1.2707
  768TIP3   OH2 2260   6.405   6.663   4.453  0.0005 -0.3343  0.1089
  768TIP3    H1 2261   6.338   6.677   4.387  1.8169 -1.0360 -2.0152
  768TIP3    H2 2262   6.406   6.743   4.505  0.8025  1.8106 -2.9498
  769TIP3   OH2 2263   3.927   1.620   5.469 -0.2620 -0.5553 -0.1076
  769TIP3    H1 2264   3.888   1.704   5.443  0.2501  0.9655  3.3759
  769TIP3    H2 2265   3.866   1.584   5.533 -0.0917 -2.5455 -0.9989
  770TIP3   OH2 2266   6.473   7.337   3.215 -0.2910 -0.5426  0.0889
  770TIP3    H1 2267   6.568   7.332   3.215 -0.1421  1.3465  0.0740
  770TIP3    H2 2268   6.445   7.285   3.140  0.6586 -1.7111  0.5132
  771TIP3   OH2 2269   7.058   6.972   4.057 -0.2058  0.1656  0.5748
  771TIP3    H1 2270   7.111   6.908   4.009 -0.3110 -2.4165  3.5808
  771TIP3    H2 2271   7.119   7.010   4.120 -1.1345 -0.4760  1.9099
  772TIP3   OH2 2272   2.770   4.785   0.295 -0.2471 -0.1710 -0.4353
  772TIP3    H1 2273   2.775   4.694   0.326  1.2518  0.0594  0.0744
  772TIP3    H2 2274   2.830   4.789   0.221 -0.7670  0.2709 -0.8390
  773TIP3   OH2 2275   5.756   0.292   0.850  0.0712 -0.6100 -0.0027
  773TIP3    H1 2276   5.778   0.385   0.845  0.9257 -0.8738 -2.9179
  773TIP3    H2 2277   5.687   0.280   0.785 -1.6659 -1.6809  1.9088
  774TIP3   OH2 2278   7.716   5.025   0.727  0.0395  0.1392 -0.0677
  774TIP3    H1 2279   7.624   5.001   0.738 -0.0095  0.6131  0.6856
  774TIP3    H2 2280   7.754   5.013   0.814  0.8644 -0.7267 -0.5289
  775TIP3   OH2 2281   4.819   0.343   1.590  0.4333 -0.2868 -0.6325
  775TIP3    H1 2282   4.855   0.426   1.558  0.1186  0.8009  1.6585
  775TIP3    H2 2283   4.777   0.365   1.673  0.5507 -2.7917  0.1853
  776TIP3   OH2 2284   7.348   6.119   4.432  0.3650  0.0055  0.2116
  776TIP3    H1 2285   7.428   6.125   4.379  0.3580 -1.1164  0.0389
  776TIP3    H2 2286   7.306   6.039   4.402 -1.1735  0.9203 -0.1409
  777TIP3   OH2 2287   8.276   0.532   2.280  0.4195 -0.8806 -0.5137
  777TIP3    H1 2288   8.368   0.508   2.268  0.8992 -0.3255  1.6368
  777TIP3    H2 2289   8.242   0.467   2.342 -1.0764 -1.9276 -2.3256
  778TIP3   OH2 2290   5.528   5.528   2.798  0.7228 -0.3664  0.5711
  778TIP3    H1 2291   5.502   5.452   2.746 -0.9195  1.1883 -1.0056
  778TIP3    H2 2292   5.520   5.499   2.889 -1.7717 -1.5527  0.0543
  779TIP3   OH2 2293   3.800   0.786   5.996 -0.0714  0.0220  0.4193
  779TIP3    H1 2294   3.855   0.723   5.950  1.1227  0.5161  1.1148
  779TIP3    H2 2295   3.860   0.831   6.056 -1.5011 -0.4332  2.2990
  780TIP3   OH2 2296   7.791   1.856   5.143 -0.0771 -0.1755 -0.3334
  780TIP3    H1 2297   7.872   1.817   5.176 -0.3589  0.4961  1.2919
  780TIP3    H2 2298   7.819   1.935   5.098  0.2903 -0.8593 -1.3263
  781TIP3   OH2 2299   1.764   2.132   0.239 -0.2216 -0.2374 -0.0488
  781TIP3    H1 2300   1.719   2.156   0.158  0.1276  3.2354  0.6116
  781TIP3    H2 2301   1.694   2.113   0.301 -1.0255  3.8247  0.5953
  782TIP3   OH2 2302   6.630   7.208   1.449 -0.1842 -0.3248  0.2265
  782TIP3    H1 2303   6.667   7.121   1.462 -0.1959 -0.4430 -0.4971
  782TIP3    H2 2304   6.549   7.208   1.500 -0.9811 -1.2768 -0.9765
  783TIP3   OH2 2305   4.562   2.075   4.371 -0.4847  0.0145 -0.7912
  783TIP3    H1 2306   4.592   2.116   4.291  1.3013  1.8033  0.6909
  783TIP3    H2 2307   4.469   2.098   4.377 -0.1254  1.7052 -1.2965
  784TIP3   OH2 2308   0.611   4.140   0.605  0.0588 -0.0923  0.8805
  784TIP3    H1 2309   0.601   4.118   0.698  1.6118 -0.7839  0.9062
  784TIP3    H2 2310   0.586   4.061   0.558 -1.6499  0.5527  0.6309
  785TIP3   OH2 2311   5.430   2.713   1.874  0.6516 -0.7464  0.2835
  785TIP3    H1 2312   5.416   2.712   1.969  1.6516 -1.3923  0.4483
  785TIP3    H2 2313   5.352   2.755   1.838  0.1248 -0.7578  1.3700
  786TIP3   OH2 2314   3.785   1.044   3.981 -0.0271 -0.1773 -0.4398
  786TIP3    H1 2315   3.831   1.111   4.033 -0.0229  1.6324 -2.6213
  786TIP3    H2 2316   3.816   1.058   3.891 -2.1737 -1.2419 -1.4189
  787TIP3   OH2 2317   3.565   2.077   6.071 -0.7256  0.1012  0.5682
  787TIP3    H1 2318   3.519   2.088   5.988 -1.5829  0.9491  1.1236
  787TIP3    H2 2319   3.533   1.994   6.105 -0.6920 -0.0473  0.2381
  788TIP3   OH2 2320   5.011   6.202   4.863  0.3486  0.0146  0.3984
  788TIP3    H1 2321   4.927   6.169   4.830  0.3425 -0.6459  1.0433
  788TIP3    H2 2322   4.989   6.284   4.908 -0.3889 -1.3496  2.7140
  789TIP3   OH2 2323   7.442   0.183   6.241  0.1635  0.6722 -0.1626
  789TIP3    H1 2324   7.479   0.231   6.315 -0.5935  2.0025 -0.6120
  789TIP3    H2 2325   7.516   0.170   6.182  0.8379 -0.6545  0.9114
  790TIP3   OH2 2326   3.454   2.335   4.094  0.3715  0.1935  0.3045
  790TIP3    H1 2327   3.462   2.276   4.169 -0.5345 -0.7637 -0.3141
  790TIP3    H2 2328   3.476   2.281   4.018  0.3830  0.8891 -0.1998
  791TIP3   OH2 2329   4.844   1.590   5.367 -0.4436 -0.1184  0.3255
  791TIP3    H1 2330   4.752   1.615   5.364 -0.7786 -1.3639 -0.7853
  791TIP3    H2 2331   4.844   1.508   5.418  0.0178 -0.2226  0.1623
  792TIP3   OH2 2332   0.047   3.913   3.239  0.5759 -0.3986 -0.0873
  792TIP3    H1 2333   0.124   3.940   3.189  1.4688  0.4276  1.6393
  792TIP3    H2 2334   0.074   3.832   3.283  0.9018  0.4640  1.3827
  793TIP3   OH2 2335   5.106   4.404   6.479 -0.2626 -0.1602 -0.6790
  793TIP3    H1 2336   5.107   4.345   6.555 -1.5266 -0.2819 -0.7431
  793TIP3    H2 2337   5.082   4.349   6.405 -1.4588  0.4066 -0.7408
  794TIP3   OH2 2338   2.327   0.402   4.561 -0.1171 -0.3920 -0.5501
  794TIP3    H1 2339   2.285   0.456   4.629  0.0899 -0.7324 -0.1440
  794TIP3    H2 2340   2.405   0.451   4.537 -0.0728 -0.3772 -0.3788
  795TIP3   OH2 2341   4.024   6.384   1.975 -0.0083  0.4277  0.3249
  795TIP3    H1 2342   4.101   6.411   1.925  0.1791  0.3750  0.5875
  795TIP3    H2 2343   4.007   6.458   2.034 -0.5408  0.7174 -0.1687
  796TIP3   OH2 2344   7.849   0.888   0.333 -0.6968 -0.0292 -0.1938
  796TIP3    H1 2345   7.817   0.976   0.353 -1.2919 -0.2121 -0.3330
  796TIP3    H2 2346   7.942   0.900   0.314 -0.9128  0.6647 -0.8406
  797TIP3   OH2 2347   4.735   0.281   0.338 -0.3385  0.5021 -0.4110
  797TIP3    H1 2348   4.810   0.229   0.309  0.1117  0.2664  1.0945
  797TIP3    H2 2349   4.661   0.220   0.335  0.5164 -0.9569  3.1882
  798TIP3   OH2 2350   5.731   2.843   3.890  0.1411  0.5611 -0.1822
  798TIP3    H1 2351   5.798   2.794   3.842 -0.8581 -1.3444  0.2752
  798TIP3    H2 2352   5.722   2.796   3.973  0.1186  2.3914  0.8961
  799TIP3   OH2 2353   1.523   6.770   1.358  0.3704  0.2978 -0.0690
  799TIP3    H1 2354   1.484   6.804   1.439 -0.3238  0.8292 -0.6216
  799TIP3    H2 2355   1.497   6.832   1.290 -1.0607 -1.4016 -1.1447
  800TIP3   OH2 2356   1.679   3.795   0.934 -0.1415  0.2907 -0.7263
  800TIP3    H1 2357   1.657   3.722   0.992  1.4323  0.1661 -0.2447
  800TIP3    H2 2358   1.728   3.755   0.862  0.2615  0.8000 -0.7430
  801TIP3   OH2 2359   2.321   1.123   5.308 -0.5804  0.0727  0.2744
  801TIP3    H1 2360   2.297   1.034   5.336 -0.8894  0.0950  0.0880
  801TIP3    H2 2361   2.298   1.178   5.383  1.8386 -0.2609  1.3854
  802TIP3   OH2 2362   5.373   0.441   1.037 -0.0128  0.5001 -0.1034
  802TIP3    H1 2363   5.385   0.534   1.058  0.0726  0.6690 -0.8645
  802TIP3    H2 2364   5.425   0.428   0.958 -0.7097  0.0113 -0.4903
  803TIP3   OH2 2365   2.253   3.429   5.300  0.1720  0.4650  0.4313
  803TIP3    H1 2366   2.167   3.410   5.337 -0.0276  1.6189  0.5971
  803TIP3    H2 2367   2.235   3.450   5.208  0.5364 -1.2870 -0.0883
  804TIP3   OH2 2368   8.283   7.698   3.294  0.0767 -0.1111 -0.0316
  804TIP3    H1 2369   8.286   7.603   3.305 -0.2698 -0.1197 -0.0091
  804TIP3    H2 2370   8.327   7.714   3.211  2.4407 -0.0715  1.1376
  805TIP3   OH2 2371   1.275   1.716   5.545  0.0673 -0.4580  0.2457
  805TIP3    H1 2372   1.238   1.666   5.618  1.2589 -1.5748  0.1062
  805TIP3    H2 2373   1.369   1.705   5.553  0.3369  1.1813 -0.2300
  806TIP3   OH2 2374   2.965   3.539   5.545 -0.4484  0.2282 -0.0747
  806TIP3    H1 2375   2.915   3.501   5.472 -0.4374 -0.2699  0.1728
  806TIP3    H2 2376   3.014   3.465   5.581 -1.9311  0.0231  1.6756
  807TIP3   OH2 2377   5.121   1.399   6.626  0.3253 -0.0079 -0.1806
  807TIP3    H1 2378   5.104   1.389   6.533 -0.0754 -0.8166 -0.0315
  807TIP3    H2 2379   5.035   1.390   6.668  0.5634 -0.1418  0.2951
  808TIP3   OH2 2380   2.328   1.910   5.310 -0.4290  0.0176 -0.4732
  808TIP3    H1 2381   2.325   1.900   5.406 -1.5273  0.9513 -0.3991
  808TIP3    H2 2382   2.419   1.889   5.288 -0.5092 -1.6731  0.5860
  809TIP3   OH2 2383   3.039   5.497   1.084  0.5449  0.2218 -0.0709
  809TIP3    H1 2384   3.107   5.530   1.142 -0.7507  0.4919  1.3327
  809TIP3    H2 2385   2.976   5.455   1.141  0.4362 -1.7386 -1.5148
  810TIP3   OH2 2386   8.228   4.388   4.110  0.3965 -0.0884 -0.6682
  810TIP3    H1 2387   8.160   4.394   4.043  1.1310 -2.9519 -1.8572
  810TIP3    H2 2388   8.197   4.319   4.169  1.4415 -0.1684 -0.1893
  811TIP3   OH2 2389   7.920   4.325   5.399  0.0530  0.5017 -0.0105
  811TIP3    H1 2390   7.869   4.290   5.325 -0.8153  1.0257  0.3238
  811TIP3    H2 2391   7.955   4.247   5.443  0.3323  0.1739 -0.8005
  812TIP3   OH2 2392   3.918   7.641   3.148  0.1643 -0.1695 -0.0538
  812TIP3    H1 2393   3.904   7.653   3.054 -1.5375  1.2808  0.3424
  812TIP3    H2 2394   3.903   7.547   3.162 -0.6575 -0.2105 -1.0745
  813TIP3   OH2 2395   2.762   1.138   2.283  0.4656 -0.6132 -0.0861
  813TIP3    H1 2396   2.779   1.052   2.245 -2.0508 -1.2482  0.0146
  813TIP3    H2 2397   2.746   1.121   2.376  2.9905  0.4376  0.6110
  814TIP3   OH2 2398   8.134   7.727   5.438  0.2846  0.2073 -0.0478
  814TIP3    H1 2399   8.137   7.785   5.514 -0.2771 -1.2756  1.1494
  814TIP3    H2 2400   8.194   7.768   5.375  1.8309  0.7669  1.6905
  815TIP3   OH2 2401   0.610   0.484   0.431  0.3594  0.1116  0.5402
  815TIP3    H1 2402   0.547   0.543   0.391  1.7412  0.9704 -0.4759
  815TIP3    H2 2403   0.568   0.398   0.430 -1.6041  0.9921  1.8492
  816TIP3   OH2 2404   1.002   2.243   1.976 -0.4201 -0.6374  0.7692
  816TIP3    H1 2405   1.047   2.303   1.916 -1.6806  0.2309  0.6587
  816TIP3    H2 2406   1.045   2.257   2.060 -0.2222 -0.1076  0.5819
  817TIP3   OH2 2407   2.229   2.970   0.894  0.3299 -0.5686  0.3193
  817TIP3    H1 2408   2.243   2.877   0.874  0.9419 -0.5091  0.4603
  817TIP3    H2 2409   2.135   2.976   0.912 -0.0550 -0.8271 -1.4223
  818TIP3   OH2 2410   0.102   0.200   4.465  0.4673 -0.1072 -0.9060
  818TIP3    H1 2411   0.042   0.252   4.519  0.7769  0.1363 -0.7940
  818TIP3    H2 2412   0.117   0.120   4.515 -2.3703 -1.7202 -2.3732
  819TIP3   OH2 2413   0.409   7.704   0.129  0.0216 -0.0686  0.6294
  819TIP3    H1 2414   0.356   7.740   0.200  0.9339 -1.8852  2.3205
  819TIP3    H2 2415   0.376   7.615   0.118  1.0853 -0.3905 -0.0029
  820TIP3   OH2 2416   2.861   5.903   4.853  0.1769  0.0760 -0.2620
  820TIP3    H1 2417   2.835   5.818   4.890 -1.5712  0.4847 -0.4705
  820TIP3    H2 2418   2.945   5.886   4.811  0.5250 -1.2267  0.8803
  821TIP3   OH2 2419   0.371   4.204   3.798  0.0890  0.0913  0.0153
  821TIP3    H1 2420   0.377   4.139   3.869  1.1328  1.5536  1.3368
  821TIP3    H2 2421   0.351   4.286   3.843 -4.4138  0.2682 -1.8893
  822TIP3   OH2 2422   0.889   5.831   0.622 -0.9324  0.2682 -0.7011
  822TIP3    H1 2423   0.916   5.864   0.707 -0.1926  2.3623 -1.6837
  822TIP3    H2 2424   0.848   5.746   0.641 -2.2441  1.3856  1.8955
  823TIP3   OH2 2425   7.127   2.254   0.042 -0.3641  0.0429  0.0149
  823TIP3    H1 2426   7.163   2.166   0.052 -0.7418 -0.1435 -0.2199
  823TIP3    H2 2427   7.202   2.309   0.020 -0.4326 -0.6597 -2.3013
  824TIP3   OH2 2428   2.313   6.548   3.094 -0.0064 -0.5968  0.5969
  824TIP3    H1 2429   2.343   6.583   3.010 -1.1542  0.2793  0.5228
  824TIP3    H2 2430   2.355   6.605   3.160 -2.4324  1.5373  0.4600
  825TIP3   OH2 2431   4.603   2.461   5.933  0.3065 -0.0278  0.4809
  825TIP3    H1 2432   4.555   2.530   5.888  0.4359  0.0625  0.4805
  825TIP3    H2 2433   4.695   2.487   5.926  0.4261 -0.6140 -0.2200
  826TIP3   OH2 2434   4.329   7.508   0.747 -0.4620 -0.3437 -0.1729
  826TIP3    H1 2435   4.373   7.454   0.682  1.4357  0.5266  0.3113
  826TIP3    H2 2436   4.390   7.511   0.821 -1.6016  0.4649  0.7822
  827TIP3   OH2 2437   6.217   7.550   3.864  0.5858  0.3235  0.4259
  827TIP3    H1 2438   6.226   7.642   3.891  1.0737  0.8057 -1.2833
  827TIP3    H2 2439   6.122   7.536   3.859  0.4858  1.2570 -0.8852
  828TIP3   OH2 2440   8.199   2.501   1.300  0.5440 -0.1967  0.5711
  828TIP3    H1 2441   8.265   2.570   1.290  0.7678 -0.6146 -1.0944
  828TIP3    H2 2442   8.200   2.455   1.217 -2.5365  0.3905  0.1037
  829TIP3   OH2 2443   8.039   5.523   4.187 -0.8778  0.1521 -0.5118
  829TIP3    H1 2444   8.112   5.586   4.189  0.6905 -1.5261 -1.9884
  829TIP3    H2 2445   7.982   5.555   4.117 -2.0539  1.8791  1.1178
  830TIP3   OH2 2446   5.885   5.107   0.689  0.2476 -0.4956 -0.0629
  830TIP3    H1 2447   5.949   5.058   0.739 -1.3739 -0.4886  2.1665
  830TIP3    H2 2448   5.858   5.178   0.747  2.0053  2.8017 -2.8814
  831TIP3   OH2 2449   1.651   6.483   1.844  0.7881 -0.5294  0.1664
  831TIP3    H1 2450   1.658   6.436   1.927  1.1626 -1.8507 -0.5675
  831TIP3    H2 2451   1.742   6.502   1.820  0.6160  1.0592  0.6906
  832TIP3   OH2 2452   3.913   0.091   3.530 -0.0803 -0.4394 -0.2743
  832TIP3    H1 2453   3.989   0.134   3.570  1.3738 -2.6199 -0.5539
  832TIP3    H2 2454   3.946   0.006   3.502 -2.8508 -1.8049  0.3294
  833TIP3   OH2 2455   0.722   3.315   2.593  0.1641 -0.2822 -0.0257
  833TIP3    H1 2456   0.774   3.372   2.650 -0.0739  1.1146 -1.1713
  833TIP3    H2 2457   0.636   3.311   2.635 -0.0661  0.8976 -0.3675
  834TIP3   OH2 2458   3.178   1.609   4.076 -0.5179 -0.2767  0.2122
  834TIP3    H1 2459   3.270   1.623   4.052 -0.2449 -0.7174  0.9504
  834TIP3    H2 2460   3.182   1.550   4.152 -1.3400  0.8840  1.1877
  835TIP3   OH2 2461   4.255   7.626   6.487 -0.0224  0.3793  0.2861
  835TIP3    H1 2462   4.169   7.667   6.498 -1.0159 -1.7144  0.7818
  835TIP3    H2 2463   4.244   7.565   6.415  0.3317 -1.6175  1.8356
  836TIP3   OH2 2464   2.395   7.132   4.496  0.3487 -0.2946 -0.5027
  836TIP3    H1 2465   2.345   7.190   4.553 -0.4887  0.8758 -2.3489
  836TIP3    H2 2466   2.349   7.048   4.502  0.1226 -0.1228  0.3199
  837TIP3   OH2 2467   2.095   5.140   2.341  0.3663 -0.4783  0.3256
  837TIP3    H1 2468   2.175   5.170   2.384 -0.0630  2.6510 -0.8603
  837TIP3    H2 2469   2.124   5.113   2.253  0.4601 -1.9476  0.7764
  838TIP3   OH2 2470   4.184   2.615   6.138 -0.8340  0.0184  0.5570
  838TIP3    H1 2471   4.097   2.646   6.163 -0.7444 -1.0500  2.3331
  838TIP3    H2 2472   4.194   2.531   6.182  0.4717 -0.6814 -0.9451
  839TIP3   OH2 2473   5.009   3.973   1.356 -0.2017 -0.3282 -0.5481
  839TIP3    H1 2474   4.941   3.917   1.393 -0.1493 -0.3087 -0.4207
  839TIP3    H2 2475   5.083   3.963   1.416 -0.0890 -0.3584 -0.6934
  840TIP3   OH2 2476   5.569   0.288   5.480 -0.1455  0.0444 -0.2980
  840TIP3    H1 2477   5.536   0.376   5.462  1.3605  0.5547 -0.7615
  840TIP3    H2 2478   5.541   0.236   5.404  1.0371  0.7507 -1.2655
  841TIP3   OH2 2479   0.209   1.932   2.523 -0.0184  0.8882  0.1152
  841TIP3    H1 2480   0.197   1.944   2.617  1.3240  2.1843  0.1627
  841TIP3    H2 2481   0.166   1.849   2.503  1.1457 -0.2901  2.1782
  842TIP3   OH2 2482   6.351   0.799   4.987  0.1780  0.2751 -0.4203
  842TIP3    H1 2483   6.333   0.766   4.899 -0.6571  1.9900 -0.9419
  842TIP3    H2 2484   6.285   0.757   5.042 -0.2662  0.3353 -0.8958
  843TIP3   OH2 2485   1.730   1.484   2.235  0.1450  0.1207 -0.1507
  843TIP3    H1 2486   1.663   1.435   2.188 -0.1177 -0.0054  0.3430
  843TIP3    H2 2487   1.732   1.444   2.322  0.0962  0.8348  0.1834
  844TIP3   OH2 2488   3.330   7.234   1.185  0.0311 -0.7571  0.5208
  844TIP3    H1 2489   3.254   7.245   1.243  0.0220  0.7214  0.2638
  844TIP3    H2 2490   3.313   7.151   1.140 -1.6413 -0.2939  0.2006
  845TIP3   OH2 2491   7.435   2.704   5.826 -0.1336  0.3037 -0.3034
  845TIP3    H1 2492   7.378   2.695   5.903 -1.0090  1.7944 -0.7407
  845TIP3    H2 2493   7.427   2.796   5.801  1.4557  0.2313 -1.1794
  846TIP3   OH2 2494   1.883   0.741   0.942 -0.1220 -0.5630  0.1659
  846TIP3    H1 2495   1.902   0.712   0.852 -0.4585  1.0231 -0.4407
  846TIP3    H2 2496   1.789   0.728   0.952 -0.0826 -0.7504  0.3094
  847TIP3   OH2 2497   3.324   5.419   2.089 -0.2531 -0.3801 -0.6306
  847TIP3    H1 2498   3.287   5.401   2.176 -0.9414  1.3959 -0.5223
  847TIP3    H2 2499   3.404   5.367   2.086  0.8481  1.0445  1.8702
  848TIP3   OH2 2500   0.206   4.383   5.048 -0.0341  0.3898 -0.9245
  848TIP3    H1 2501   0.247   4.426   5.123  0.0289 -0.2142 -0.6016
  848TIP3    H2 2502   0.113   4.377   5.072 -0.1649  0.9807 -1.2774
  849TIP3   OH2 2503   1.329   2.215   1.660 -0.1381  0.3960  0.4409
  849TIP3    H1 2504   1.327   2.231   1.566  0.5538  0.9257  0.5123
  849TIP3    H2 2505   1.291   2.127   1.670  2.9978 -1.2348 -0.6937
  850TIP3   OH2 2506   5.430   7.439   3.604 -0.2373  0.1366 -0.0422
  850TIP3    H1 2507   5.504   7.466   3.657  0.2473 -0.3458 -0.4516
  850TIP3    H2 2508   5.399   7.359   3.646  0.1124 -0.2149 -0.4376
  851TIP3   OH2 2509   2.137   1.048   6.081  0.5084  0.4716 -0.0399
  851TIP3    H1 2510   2.055   1.023   6.123  1.0485 -0.8920  0.2346
  851TIP3    H2 2511   2.147   1.141   6.102 -0.5875  0.4641  0.5617
  852TIP3   OH2 2512   5.477   5.815   1.059 -0.0574 -0.1819 -0.0849
  852TIP3    H1 2513   5.451   5.869   1.134  1.0165 -1.3341  1.1606
  852TIP3    H2 2514   5.521   5.875   1.000  0.9162  0.3764  1.1721
  853TIP3   OH2 2515   2.196   0.314   3.418 -0.1246 -0.4405  0.5752
  853TIP3    H1 2516   2.192   0.270   3.333  0.1456 -2.6274  1.6411
  853TIP3    H2 2517   2.105   0.329   3.442 -0.1988  0.4037 -0.1735
  854TIP3   OH2 2518   2.760   3.998   3.381 -0.1544  0.4196  0.7099
  854TIP3    H1 2519   2.713   3.968   3.304  0.1940 -0.5409  0.8574
  854TIP3    H2 2520   2.783   4.088   3.361 -0.3441  0.2823 -0.1772
  855TIP3   OH2 2521   4.167   5.396   6.111  0.2794 -0.1230 -0.2278
  855TIP3    H1 2522   4.113   5.448   6.051  0.5724  0.5147  0.0602
  855TIP3    H2 2523   4.127   5.409   6.197  0.6721  0.0633 -0.0715
  856TIP3   OH2 2524   0.613   7.057   6.288 -0.4238 -0.3830  0.2967
  856TIP3    H1 2525   0.672   6.982   6.289 -0.3827 -0.3482  0.4490
  856TIP3    H2 2526   0.536   7.028   6.337 -0.0351 -0.0240  1.1433
  857TIP3   OH2 2527   6.516   4.410   6.523  0.6602 -0.1270 -0.0437
  857TIP3    H1 2528   6.445   4.462   6.560  1.4050  1.3184 -0.5889
  857TIP3    H2 2529   6.594   4.436   6.572  1.2164 -0.0076 -0.9663
  858TIP3   OH2 2530   1.233   7.032   3.795 -0.2406 -0.5633 -0.1222
  858TIP3    H1 2531   1.254   7.113   3.841 -0.4736 -0.4814 -0.1587
  858TIP3    H2 2532   1.240   7.055   3.702  0.0915 -0.6910 -0.1318
  859TIP3   OH2 2533   5.521   4.869   2.758  0.4160  0.4363 -0.4898
  859TIP3    H1 2534   5.535   4.792   2.813  1.1561  0.2013 -0.9879
  859TIP3    H2 2535   5.443   4.911   2.794  0.9434  0.3425  0.7772
  860TIP3   OH2 2536   5.196   5.729   3.710 -0.0929  0.4100  0.3548
  860TIP3    H1 2537   5.272   5.787   3.705 -0.0111  0.2337 -0.5963
  860TIP3    H2 2538   5.126   5.778   3.667 -0.1145 -0.0438 -0.1383
  861TIP3   OH2 2539   5.024   7.034   3.223 -0.5408 -0.3254  0.5961
  861TIP3    H1 2540   5.091   7.097   3.251  0.8300 -0.6043 -1.8080
  861TIP3    H2 2541   5.019   7.045   3.128 -1.6858 -2.4840  0.3476
  862TIP3   OH2 2542   6.119   5.013   4.914 -0.2912  0.0540  0.1971
  862TIP3    H1 2543   6.194   5.052   4.869 -0.1666  0.0363  0.3893
  862TIP3    H2 2544   6.155   4.978   4.995  0.0520 -2.4206 -0.9204
  863TIP3   OH2 2545   5.486   1.650   0.532  0.0165 -0.1614 -0.5350
  863TIP3    H1 2546   5.463   1.705   0.607 -0.6692 -1.8942  0.5867
  863TIP3    H2 2547   5.410   1.593   0.520  0.4834 -0.5090 -1.9984
  864TIP3   OH2 2548   1.467   0.818   6.697 -0.0139 -0.4373  0.0245
  864TIP3    H1 2549   1.521   0.776   6.631 -1.0721  1.5438 -2.2738
  864TIP3    H2 2550   1.529   0.863   6.754  0.8850 -0.4695 -0.8996
  865TIP3   OH2 2551   3.896   1.222   3.743  0.0606  0.3525 -0.5384
  865TIP3    H1 2552   3.840   1.268   3.681 -1.6166 -0.0431  0.6332
  865TIP3    H2 2553   3.936   1.291   3.796 -1.5249  0.5605  0.4421
  866TIP3   OH2 2554   5.849   6.963   6.521  0.0694  0.2361  0.4972
  866TIP3    H1 2555   5.754   6.958   6.524 -0.0444  0.7714 -1.0175
  866TIP3    H2 2556   5.869   7.056   6.535  0.5410 -0.1642  2.9218
  867TIP3   OH2 2557   5.179   7.730   2.962 -0.4666 -0.2754 -0.1576
  867TIP3    H1 2558   5.207   7.663   2.900  2.6820 -0.3385  1.1275
  867TIP3    H2 2559   5.103   7.772   2.921  0.8056 -1.0119 -3.5132
  868TIP3   OH2 2560   7.219   5.227   2.635 -0.0410 -0.4733 -0.7268
  868TIP3    H1 2561   7.274   5.197   2.563 -0.4346  1.9264 -2.1181
  868TIP3    H2 2562   7.130   5.228   2.599 -0.4222 -0.4000  0.1805
  869TIP3   OH2 2563   2.422   2.881   1.829  0.5628 -0.0309  0.5614
  869TIP3    H1 2564   2.518   2.886   1.832  0.6009  0.8643 -1.1405
  869TIP3    H2 2565   2.394   2.968   1.804 -0.6442 -0.5747 -0.0529
  870TIP3   OH2 2566   0.747   5.990   0.440 -0.1710  0.2942  0.1866
  870TIP3    H1 2567   0.799   6.064   0.409 -1.4827  2.1349  2.1139
  870TIP3    H2 2568   0.792   5.960   0.519 -1.2828  1.0880  1.1550
  871TIP3   OH2 2569  -0.002   7.473   5.233  0.1560  0.3955 -0.1039
  871TIP3    H1 2570   0.002   7.471   5.138  0.2464  1.1469 -0.1165
  871TIP3    H2 2571   0.090   7.476   5.261  0.2208 -1.4827  0.0655
  872TIP3   OH2 2572   2.848   5.863   6.776  0.3846  0.1606 -0.1632
  872TIP3    H1 2573   2.815   5.785   6.732  0.4130 -0.3828  0.7617
  872TIP3    H2 2574   2.941   5.865   6.756  0.6344 -0.7540  0.8453
  873TIP3   OH2 2575   1.519   1.105   4.307 -0.6320  0.2433  0.5818
  873TIP3    H1 2576   1.507   1.156   4.227  1.5488  2.1804  1.3958
  873TIP3    H2 2577   1.447   1.134   4.364 -0.8133  0.6029  0.1802
  874TIP3   OH2 2578   7.051   7.436   4.217 -0.0565  0.0952 -0.0894
  874TIP3    H1 2579   6.965   7.433   4.258 -0.6127 -0.8926 -1.2735
  874TIP3    H2 2580   7.062   7.527   4.190 -1.2034  0.0132 -0.8784
  875TIP3   OH2 2581   6.963   0.933   5.943 -0.2727  0.0960  0.4646
  875TIP3    H1 2582   6.920   0.955   5.861  0.9734  0.6428 -0.0596
  875TIP3    H2 2583   6.981   0.839   5.937  1.5380  0.4795 -0.7510
  876TIP3   OH2 2584   7.386   2.277   4.932 -0.4886 -0.1261 -0.3600
  876TIP3    H1 2585   7.343   2.197   4.902 -0.6387 -0.0843 -0.2598
  876TIP3    H2 2586   7.446   2.248   5.000  0.4606 -0.3325 -1.2516
  877TIP3   OH2 2587   3.313   7.659   2.195  0.1612 -0.2045  0.2535
  877TIP3    H1 2588   3.257   7.630   2.267 -0.6947 -1.3379 -0.8274
  877TIP3    H2 2589   3.274   7.620   2.116  0.7103  1.4908 -0.9208
  878TIP3   OH2 2590   3.696   4.084   6.043  0.1174  0.5379 -0.0275
  878TIP3    H1 2591   3.624   4.085   6.106 -0.0029  1.3445 -0.1702
  878TIP3    H2 2592   3.718   3.991   6.034 -0.2909  0.3559  0.7096
  879TIP3   OH2 2593   6.307   2.431   5.932 -0.1661 -0.1421  0.1632
  879TIP3    H1 2594   6.377   2.459   5.874 -0.3094 -1.2185 -0.5634
  879TIP3    H2 2595   6.299   2.336   5.918 -0.8702 -0.2707  1.2145
  880TIP3   OH2 2596   5.984   0.327   2.524  0.2118  0.4547 -0.3658
  880TIP3    H1 2597   5.960   0.245   2.481 -0.2352  1.7829 -2.8527
  880TIP3    H2 2598   6.066   0.353   2.482  1.7942  0.0708  2.2449
  881TIP3   OH2 2599   4.525   5.293   5.800 -0.4165 -0.0130  0.4339
  881TIP3    H1 2600   4.475   5.344   5.737  0.6393 -0.3466 -0.7128
  881TIP3    H2 2601   4.581   5.357   5.844 -0.6006  0.1095  0.4919
  882TIP3   OH2 2602   7.348   5.175   2.390  0.1125 -0.2677  0.1804
  882TIP3    H1 2603   7.307   5.168   2.304  0.9844 -1.1024 -0.1875
  882TIP3    H2 2604   7.416   5.241   2.378  0.8326 -1.0346 -0.0290
  883TIP3   OH2 2605   6.691   4.928   3.804 -0.0153 -0.2531  0.3302
  883TIP3    H1 2606   6.629   4.964   3.740  0.5286 -0.8852 -0.5666
  883TIP3    H2 2607   6.700   4.997   3.870 -0.1412  0.6485 -0.5736
  884TIP3   OH2 2608   2.330   7.555   4.952  0.5080 -0.0498 -0.7401
  884TIP3    H1 2609   2.422   7.535   4.968  0.6894  1.1599 -0.1600
  884TIP3    H2 2610   2.289   7.550   5.038 -0.5299 -3.0481 -1.2986
  885TIP3   OH2 2611   2.285   4.954   5.440  0.5650  0.8412 -0.1403
  885TIP3    H1 2612   2.262   5.045   5.459  2.4767  1.6977 -1.5352
  885TIP3    H2 2613   2.363   4.961   5.384  1.2030 -1.6842  0.3295
  886TIP3   OH2 2614   6.114   5.520   0.964 -0.5648  0.1854  0.0689
  886TIP3    H1 2615   6.155   5.607   0.958  1.2281 -0.6705 -0.9438
  886TIP3    H2 2616   6.025   5.534   0.933 -0.2252  1.6139 -0.3644
  887TIP3   OH2 2617   3.001   4.384   4.954  0.1018 -0.1740  0.3694
  887TIP3    H1 2618   2.916   4.355   4.921 -0.1094  2.2373 -1.4534
  887TIP3    H2 2619   3.062   4.318   4.923 -0.7419 -0.4540 -0.7748
  888TIP3   OH2 2620   7.453   4.806   3.061  0.3891  0.0735  0.6371
  888TIP3    H1 2621   7.477   4.715   3.048  0.3548  0.2849 -1.2171
  888TIP3    H2 2622   7.431   4.813   3.154  0.2849 -1.8225  0.7815
  889TIP3   OH2 2623   3.065   5.986   0.534 -0.8210  0.6202 -0.1049
  889TIP3    H1 2624   3.053   6.080   0.550 -0.1238  0.5089  1.1302
  889TIP3    H2 2625   3.031   5.944   0.612  0.0644 -0.0975 -0.0975
  890TIP3   OH2 2626   7.550   4.054   6.719 -0.2219 -0.1818  0.1420
  890TIP3    H1 2627   7.595   4.125   6.766 -1.2590  0.5353  0.1001
  890TIP3    H2 2628   7.610   4.030   6.648  0.0502  0.8307  0.0100
  891TIP3   OH2 2629   8.081   5.259   4.366  0.4525 -0.0763  0.3540
  891TIP3    H1 2630   8.074   5.344   4.321  3.1535  0.6595  1.1600
  891TIP3    H2 2631   8.045   5.275   4.453  0.3788  0.0530  0.3004
  892TIP3   OH2 2632   5.947   4.295   4.214 -0.0141  0.1505 -0.1877
  892TIP3    H1 2633   5.954   4.341   4.297  0.7904  1.9049 -1.1637
  892TIP3    H2 2634   6.032   4.309   4.172 -0.8163  0.3929 -1.8191
  893TIP3   OH2 2635   4.569   5.509   2.864 -0.1561 -0.2851 -0.6489
  893TIP3    H1 2636   4.643   5.536   2.811 -0.6896 -0.3097 -1.4196
  893TIP3    H2 2637   4.495   5.508   2.804 -0.4229 -2.1877 -0.3606
  894TIP3   OH2 2638   6.479   1.610   6.146 -0.0782  0.4372 -0.3317
  894TIP3    H1 2639   6.470   1.515   6.151  0.9099  0.2887 -1.0279
  894TIP3    H2 2640   6.398   1.644   6.184 -0.6793 -0.6847 -0.5683
  895TIP3   OH2 2641   6.650   4.911   3.427 -0.8942  0.3684  0.4561
  895TIP3    H1 2642   6.700   4.983   3.466  0.1210 -0.0735 -0.0151
  895TIP3    H2 2643   6.653   4.842   3.493 -1.1850  0.4624  0.5707
  896TIP3   OH2 2644   4.986   6.647   6.025  0.1976 -0.4755  0.1163
  896TIP3    H1 2645   5.078   6.659   6.046  0.0717  1.0503 -0.0978
  896TIP3    H2 2646   4.981   6.653   5.930 -0.1869 -0.0086  0.1606
  897TIP3   OH2 2647   7.115   3.654   1.635  0.0192  0.4533 -0.2680
  897TIP3    H1 2648   7.118   3.624   1.545 -0.7249 -0.1305 -0.1055
  897TIP3    H2 2649   7.204   3.686   1.653  1.0339 -2.1101 -0.3177
  898TIP3   OH2 2650   1.095   2.072   1.779  0.2868 -0.2054 -0.4085
  898TIP3    H1 2651   1.037   2.099   1.708  1.2131  1.0391 -0.7312
  898TIP3    H2 2652   1.071   2.129   1.852  0.5250 -0.2676 -0.2818
  899TIP3   OH2 2653   5.600   6.256   0.971 -0.0476 -0.6633  0.1382
  899TIP3    H1 2654   5.603   6.351   0.980  1.3270 -0.3290 -2.7072
  899TIP3    H2 2655   5.681   6.225   1.011  0.3180 -0.4390 -0.4173
  900TIP3   OH2 2656   2.481   6.392   5.295  0.0462 -0.3847 -0.1902
  900TIP3    H1 2657   2.491   6.310   5.247 -1.4839 -1.4782  1.2543
  900TIP3    H2 2658   2.426   6.370   5.370  1.5215  1.4669  1.5587
  901TIP3   OH2 2659   2.706   1.132   1.385 -0.1125 -0.4051 -0.3159
  901TIP3    H1 2660   2.685   1.062   1.448 -0.6437 -0.3407 -0.4173
  901TIP3    H2 2661   2.622   1.173   1.366  0.1973  0.2705 -0.2531
  902TIP3   OH2 2662   5.717   4.575   0.753 -0.5393 -0.2520  0.0075
  902TIP3    H1 2663   5.782   4.602   0.688 -0.3029  0.4216  0.5103
  902TIP3    H2 2664   5.715   4.648   0.816  0.9259 -1.8386  2.0349
  903TIP3   OH2 2665   7.185   7.012   5.457  0.1443  0.5597 -0.0450
  903TIP3    H1 2666   7.256   7.006   5.521 -0.9092 -0.4497  1.0932
  903TIP3    H2 2667   7.221   6.970   5.379  0.1245 -2.1044  1.2305
  904TIP3   OH2 2668   6.474   6.957   2.473  0.1333  0.0533  0.0340
  904TIP3    H1 2669   6.478   7.000   2.388  0.7368 -0.3902 -0.1641
  904TIP3    H2 2670   6.476   7.028   2.537  0.0069  0.3677 -0.3129
  905TIP3   OH2 2671   7.284   6.903   6.512 -0.0991 -0.3821  0.3464
  905TIP3    H1 2672   7.360   6.956   6.536 -0.2561 -0.4526  1.0437
  905TIP3    H2 2673   7.253   6.867   6.596 -2.1807  1.3648  0.4352
  906TIP3   OH2 2674   7.977   1.903   4.846  0.2973  0.4744 -0.4288
  906TIP3    H1 2675   7.953   1.983   4.799  0.9182 -0.5964 -2.7192
  906TIP3    H2 2676   7.928   1.834   4.802  0.1860 -0.5090  1.1570
  907TIP3   OH2 2677   4.413   2.675   5.351  0.3037 -0.2808  0.2542
  907TIP3    H1 2678   4.324   2.707   5.333  1.3726  2.7903 -0.2189
  907TIP3    H2 2679   4.460   2.689   5.269  1.4519 -0.9637  0.7804
  908TIP3   OH2 2680   2.059   0.810   3.094  0.2019  0.3118  0.4248
  908TIP3    H1 2681   2.015   0.840   3.015 -1.4827 -0.5973  0.9672
  908TIP3    H2 2682   2.107   0.732   3.067  1.1898  1.0717 -0.0799
  909TIP3   OH2 2683   3.187   4.929   1.497  0.5370 -0.5211  0.2138
  909TIP3    H1 2684   3.196   4.971   1.582  0.3430  2.8731 -1.2944
  909TIP3    H2 2685   3.104   4.961   1.462  1.5846 -0.0758 -2.0803
  910TIP3   OH2 2686   5.329   3.139   6.378 -0.5154  0.0441  0.2896
  910TIP3    H1 2687   5.419   3.170   6.368  0.0775 -1.5632  0.2674
  910TIP3    H2 2688   5.309   3.096   6.294 -0.6013 -1.2475  0.9445
  911TIP3   OH2 2689   3.055   5.859   1.257  0.2714  0.1217 -0.7008
  911TIP3    H1 2690   3.028   5.951   1.259  2.2734  0.7387  0.4158
  911TIP3    H2 2691   3.147   5.860   1.282 -0.1040 -2.3477  1.2368
  912TIP3   OH2 2692   6.307   6.996   2.915  0.1586  0.6390 -0.0785
  912TIP3    H1 2693   6.245   6.928   2.944 -0.5884  1.0774 -0.5946
  912TIP3    H2 2694   6.278   7.017   2.826  0.7558  1.2060 -0.1428
  913TIP3   OH2 2695   3.593   5.772   3.826 -0.1368  0.3854  0.1479
  913TIP3    H1 2696   3.534   5.825   3.881 -0.0411 -1.3460  2.0490
  913TIP3    H2 2697   3.659   5.834   3.796 -1.2101  1.7606  0.5081
  914TIP3   OH2 2698   0.607   1.529   0.265  0.2021 -0.2754  0.0314
  914TIP3    H1 2699   0.620   1.624   0.256  4.3334 -0.3209  2.7648
  914TIP3    H2 2700   0.521   1.521   0.304  1.2941  2.8681  3.7112
  915TIP3   OH2 2701   2.684   3.711   6.587 -0.8034 -0.3314  0.2331
  915TIP3    H1 2702   2.648   3.664   6.512  0.2755  0.3364 -0.7350
  915TIP3    H2 2703   2.737   3.646   6.633 -0.3640 -0.3917 -0.3616
  916TIP3   OH2 2704   3.578   0.565   2.713  0.1437 -0.2477 -0.5465
  916TIP3    H1 2705   3.521   0.586   2.787  1.1269 -0.7260  0.3845
  916TIP3    H2 2706   3.527   0.505   2.659 -0.7139  0.3648 -0.4327
  917TIP3   OH2 2707   3.886   4.877   5.342  0.2915  0.4862  0.0292
  917TIP3    H1 2708   3.828   4.802   5.324 -0.6635  0.6628  2.0193
  917TIP3    H2 2709   3.924   4.899   5.257  0.7819 -2.3819 -0.5941
  918TIP3   OH2 2710   4.762   0.108   6.505 -0.5881 -0.3085 -0.7034
  918TIP3    H1 2711   4.802   0.046   6.444 -0.7427 -0.0331 -1.0888
  918TIP3    H2 2712   4.669   0.086   6.504 -0.7017  0.1839 -1.1428
  919TIP3   OH2 2713   3.039   5.282   0.062  0.0621 -0.4486  0.1299
  919TIP3    H1 2714   3.124   5.243   0.078  0.4282  0.4592  0.4673
  919TIP3    H2 2715   3.022   5.335   0.139 -1.4070 -1.6172  0.6574
  920TIP3   OH2 2716   0.400   6.820   0.175 -0.3446 -0.1805 -0.9194
  920TIP3    H1 2717   0.373   6.869   0.252  1.9071 -0.4746  0.1408
  920TIP3    H2 2718   0.402   6.729   0.204  1.1960 -0.2182 -1.0621
  921TIP3   OH2 2719   2.953   6.293   3.360  0.8741 -0.0457 -0.6194
  921TIP3    H1 2720   3.021   6.333   3.414  0.0948 -0.5184  0.7568
  921TIP3    H2 2721   2.996   6.276   3.276  1.9186  1.3690 -0.4180
  922TIP3   OH2 2722   4.735   3.590   5.948  0.1969  0.0798  0.2487
  922TIP3    H1 2723   4.827   3.592   5.975 -0.2260  0.0051  1.8026
  922TIP3    H2 2724   4.736   3.622   5.858  1.8190 -0.5333  0.0030
  923TIP3   OH2 2725   6.937   4.290   3.065  0.0635  0.3033 -0.5989
  923TIP3    H1 2726   6.902   4.379   3.074 -1.6699 -0.1139 -2.3972
  923TIP3    H2 2727   6.939   4.256   3.154 -1.0056  1.5218 -0.0772
  924TIP3   OH2 2728   7.042   1.086   1.042 -0.2639  0.4050 -0.0289
  924TIP3    H1 2729   7.049   1.162   1.101 -1.2203  0.4668  0.0169
  924TIP3    H2 2730   7.132   1.055   1.033 -0.1719 -0.1566  2.1964
  925TIP3   OH2 2731   1.690   4.066   6.360 -0.3075  0.5213  0.4647
  925TIP3    H1 2732   1.670   4.058   6.454 -1.2536  3.6228  0.6279
  925TIP3    H2 2733   1.768   4.121   6.357  0.4436 -0.5579 -0.5768
  926TIP3   OH2 2734   3.324   5.202   5.753 -0.0569 -0.3791 -0.3942
  926TIP3    H1 2735   3.311   5.108   5.760  0.1454 -0.3426  0.5630
  926TIP3    H2 2736   3.330   5.218   5.659  0.2559 -1.3716 -0.5569
  927TIP3   OH2 2737   3.526   0.607   4.639 -0.1908  0.1411  0.4293
  927TIP3    H1 2738   3.545   0.578   4.550 -1.4453  1.9263 -0.4974
  927TIP3    H2 2739   3.436   0.578   4.655 -0.1926  0.3739  0.8632
  928TIP3   OH2 2740   5.296   7.284   4.583 -0.6526 -0.9967  0.6045
  928TIP3    H1 2741   5.371   7.289   4.523 -0.3944 -1.4096  0.8854
  928TIP3    H2 2742   5.328   7.231   4.656 -0.6220  0.3633  1.6120
  929TIP3   OH2 2743   0.933   7.334   1.832  0.1012 -0.6910 -0.3030
  929TIP3    H1 2744   0.983   7.277   1.773 -0.7945 -0.6005 -1.1787
  929TIP3    H2 2745   0.999   7.390   1.873  1.2411 -3.3041  1.7740
  930TIP3   OH2 2746   0.579   4.738   0.112 -0.2801  0.4244 -0.3032
  930TIP3    H1 2747   0.600   4.681   0.186  1.5856  2.5924  0.9810
  930TIP3    H2 2748   0.486   4.722   0.094 -0.6730 -0.5100  2.2131
  931TIP3   OH2 2749   7.192   3.402   6.534 -0.1093 -0.4136  0.2544
  931TIP3    H1 2750   7.162   3.327   6.587  1.1864 -0.8020  0.4682
  931TIP3    H2 2751   7.170   3.377   6.444 -3.0387  0.5797  0.5645
  932TIP3   OH2 2752   2.367   2.998   0.606  0.3899  0.0403  0.6531
  932TIP3    H1 2753   2.439   2.940   0.628  0.6186  0.0449 -0.0622
  932TIP3    H2 2754   2.290   2.941   0.601  0.6302 -0.2313 -0.1394
  933TIP3   OH2 2755   7.689   5.115   3.060  0.6762  0.1431 -0.2938
  933TIP3    H1 2756   7.615   5.129   3.118 -0.2036 -0.7859 -1.1695
  933TIP3    H2 2757   7.680   5.024   3.030  1.7027  0.2732 -1.0573
  934TIP3   OH2 2758   2.181   2.550   6.481 -0.1160 -0.1635  0.6971
  934TIP3    H1 2759   2.121   2.601   6.536 -0.7956  0.3778 -0.5134
  934TIP3    H2 2760   2.223   2.615   6.424 -1.9533 -1.0108 -1.7873
  935TIP3   OH2 2761   0.776   5.364   1.377  0.1415  0.1214 -0.1848
  935TIP3    H1 2762   0.756   5.339   1.468 -0.3275 -0.1924 -0.3683
  935TIP3    H2 2763   0.702   5.418   1.351 -0.0424 -0.3271 -0.5932
  936TIP3   OH2 2764   0.795   3.779   0.365  0.0590 -0.4437 -0.1939
  936TIP3    H1 2765   0.847   3.732   0.300 -0.8702 -0.2945 -1.0700
  936TIP3    H2 2766   0.832   3.752   0.449  1.2946 -0.6327 -0.7690
  937TIP3   OH2 2767   6.808   0.583   0.836  0.7543  0.2475 -0.2991
  937TIP3    H1 2768   6.869   0.586   0.910 -0.6448 -1.1044  0.9735
  937TIP3    H2 2769   6.766   0.669   0.837  0.4529  0.1055  0.7612
  938TIP3   OH2 2770   4.990   2.807   3.482  0.6184  0.4350 -0.6519
  938TIP3    H1 2771   5.065   2.861   3.507  0.5472 -0.1574  0.9782
  938TIP3    H2 2772   4.949   2.855   3.410  2.5461  0.7591 -1.5988
  939TIP3   OH2 2773   1.205   3.799   5.365 -0.0144 -0.0071  0.4073
  939TIP3    H1 2774   1.176   3.722   5.316  1.5757 -0.5099  0.1895
  939TIP3    H2 2775   1.158   3.873   5.325 -1.8140 -0.8644  0.8344
  940TIP3   OH2 2776   7.329   0.605   2.610  0.0436  0.1458  0.1446
  940TIP3    H1 2777   7.362   0.649   2.689 -0.9588  0.9530  0.1267
  940TIP3    H2 2778   7.402   0.550   2.581  1.1898  1.4908  0.4050
  941TIP3   OH2 2779   1.725   6.940   3.818  0.4870 -0.0519  0.3575
  941TIP3    H1 2780   1.725   7.031   3.847  0.4656  0.3549 -0.8720
  941TIP3    H2 2781   1.636   6.910   3.835  0.5008  0.1389  0.7935
  942TIP3   OH2 2782   2.173   4.704   4.667  0.0868  0.6974 -0.0246
  942TIP3    H1 2783   2.196   4.612   4.680  0.0103  0.5370 -0.9555
  942TIP3    H2 2784   2.166   4.740   4.755  0.1189 -0.1895  0.3444
  943TIP3   OH2 2785   3.500   7.701   0.921 -0.9310 -0.2139  0.2710
  943TIP3    H1 2786   3.580   7.672   0.877 -0.3396 -1.1247  1.8505
  943TIP3    H2 2787   3.437   7.632   0.903 -1.7439  0.9976 -1.8438
  944TIP3   OH2 2788   4.878   4.093   3.869 -0.0255  0.1719 -0.3991
  944TIP3    H1 2789   4.949   4.041   3.905  1.4748  2.5056  0.2606
  944TIP3    H2 2790   4.827   4.121   3.945 -0.3061  0.3565 -0.6503
  945TIP3   OH2 2791   4.376   6.076   5.597 -0.1836  0.2491  0.0320
  945TIP3    H1 2792   4.318   6.010   5.559  0.2401 -0.6846  0.9591
  945TIP3    H2 2793   4.464   6.048   5.571 -0.0291  0.7074  0.0586
  946TIP3   OH2 2794   1.226   3.579   6.435 -0.3899 -0.5149 -0.4479
  946TIP3    H1 2795   1.268   3.532   6.506 -0.5938  0.3520  0.2643
  946TIP3    H2 2796   1.287   3.650   6.414 -1.2650  0.4808  0.2893
  947TIP3   OH2 2797   4.836   4.558   5.213 -0.1538  0.2130 -0.0557
  947TIP3    H1 2798   4.877   4.510   5.141 -1.4125 -0.3696 -0.4065
  947TIP3    H2 2799   4.885   4.640   5.218  0.7604 -0.2727 -0.7410
  948TIP3   OH2 2800   1.002   0.224   1.556  0.6961 -0.4824 -0.0935
  948TIP3    H1 2801   1.064   0.170   1.507  1.1299  0.4205 -0.5794
  948TIP3    H2 2802   0.919   0.177   1.551  0.9996 -0.9623 -0.7370
  949TIP3   OH2 2803   4.797   1.769   4.203 -0.7842  0.1744  0.0106
  949TIP3    H1 2804   4.748   1.689   4.222 -0.8159  0.2913  0.4178
  949TIP3    H2 2805   4.782   1.826   4.279  0.9227 -0.2380  0.7021
  950TIP3   OH2 2806   6.515   4.268   5.017 -0.0424 -1.1841  0.2088
  950TIP3    H1 2807   6.468   4.186   5.002 -0.1910 -1.5224  2.1798
  950TIP3    H2 2808   6.520   4.275   5.113 -0.6362  1.4544  0.1082
  951TIP3   OH2 2809   7.654   2.087   3.072 -0.1110 -0.0497  0.0269
  951TIP3    H1 2810   7.632   2.075   3.165  0.5935 -0.0279  0.1968
  951TIP3    H2 2811   7.660   1.998   3.037  0.0773 -0.0709  0.1111
  952TIP3   OH2 2812   3.952   2.867   1.780  1.1053  0.1916 -0.2183
  952TIP3    H1 2813   3.934   2.776   1.755  3.6722 -0.2813 -0.6796
  952TIP3    H2 2814   3.921   2.919   1.705 -0.5617 -0.2358  0.1354
  953TIP3   OH2 2815   0.309   0.079   6.037 -0.0110  0.1080  0.4166
  953TIP3    H1 2816   0.215   0.074   6.021 -0.2648 -1.2140  2.0502
  953TIP3    H2 2817   0.322   0.164   6.080 -0.3444  0.5633 -0.3639
  954TIP3   OH2 2818   2.396   4.806   0.085 -0.0641  0.6229  0.8041
  954TIP3    H1 2819   2.479   4.853   0.084 -0.5666  1.5486 -0.9859
  954TIP3    H2 2820   2.381   4.788   0.178  0.6795  3.0890  1.4971
  955TIP3   OH2 2821   3.485   5.246   4.898 -0.5678  0.4905 -0.1940
  955TIP3    H1 2822   3.487   5.159   4.939  0.5182  0.6870  0.2190
  955TIP3    H2 2823   3.510   5.230   4.807 -0.3748  0.3560 -0.1191
  956TIP3   OH2 2824   5.842   2.391   0.925 -0.2073 -0.2772 -0.3564
  956TIP3    H1 2825   5.788   2.392   0.846 -0.4100  0.5171 -0.2150
  956TIP3    H2 2826   5.809   2.464   0.978  0.8329  0.0569 -0.1543
  957TIP3   OH2 2827   6.253   4.854   4.263 -0.5013  0.2538  0.6375
  957TIP3    H1 2828   6.199   4.787   4.222  0.0993 -0.6661  1.2932
  957TIP3    H2 2829   6.191   4.915   4.303 -1.0725 -1.0561  1.8163
  958TIP3   OH2 2830   7.673   6.547   1.503  0.1167 -0.1170 -0.2272
  958TIP3    H1 2831   7.676   6.610   1.574 -1.0707 -1.2191  0.8528
  958TIP3    H2 2832   7.740   6.482   1.525 -0.2102 -0.4299 -0.1537
  959TIP3   OH2 2833   0.138   7.079   0.806 -0.1116  0.1085  0.1368
  959TIP3    H1 2834   0.148   7.036   0.891 -2.2119 -0.2522  0.2437
  959TIP3    H2 2835   0.087   7.017   0.753  1.4395  0.1701 -1.5462
  960TIP3   OH2 2836   5.632   6.579   4.106 -0.4356  0.3412  0.6787
  960TIP3    H1 2837   5.711   6.527   4.121  0.2065  0.5855 -1.5019
  960TIP3    H2 2838   5.581   6.569   4.186  1.4365 -0.4763  1.8261
  961TIP3   OH2 2839   3.463   6.444   0.737  0.2962 -0.1795 -0.0209
  961TIP3    H1 2840   3.493   6.424   0.648  0.3450  0.2615 -0.1070
  961TIP3    H2 2841   3.501   6.530   0.756 -0.3214  0.0562  0.1480
  962TIP3   OH2 2842   1.959   2.670   3.761 -0.2452  0.0315  0.0806
  962TIP3    H1 2843   2.045   2.702   3.737 -0.2533 -0.5654 -0.7901
  962TIP3    H2 2844   1.952   2.584   3.719 -0.9103 -0.3297  0.8832
  963TIP3   OH2 2845   7.114   3.625   1.920  0.1369 -0.0791 -0.0041
  963TIP3    H1 2846   7.109   3.595   2.011 -0.1856  0.9021  0.3102
  963TIP3    H2 2847   7.158   3.553   1.874  0.1389 -0.6665  0.8850
  964TIP3   OH2 2848   5.208   5.025   5.876  0.5821  0.2953 -0.1301
  964TIP3    H1 2849   5.239   5.078   5.950 -0.6384  0.4338  0.3001
  964TIP3    H2 2850   5.214   5.084   5.801 -0.8373  1.1209  0.3568
  965TIP3   OH2 2851   1.437   4.294   5.480 -0.7050 -0.4830  0.4845
  965TIP3    H1 2852   1.378   4.230   5.518 -1.9123 -0.4887 -1.3098
  965TIP3    H2 2853   1.400   4.314   5.394  1.0110  0.7470 -0.0306
  966TIP3   OH2 2854   8.057   3.348   6.276 -0.4585 -0.0084  0.4705
  966TIP3    H1 2855   8.084   3.436   6.250 -0.8588 -0.1240 -0.3678
  966TIP3    H2 2856   7.962   3.350   6.273 -0.5107 -0.0956  1.7370
  967TIP3   OH2 2857   4.915   4.503   3.367 -0.0936  0.0580  0.5400
  967TIP3    H1 2858   4.948   4.516   3.278  0.4833 -0.1829  0.7157
  967TIP3    H2 2859   4.831   4.457   3.355  1.1296 -2.2309  0.1865
  968TIP3   OH2 2860   0.054   7.184   1.597  0.7876  1.0774 -0.0978
  968TIP3    H1 2861  -0.013   7.153   1.658 -0.3660 -0.6197 -2.0835
  968TIP3    H2 2862   0.082   7.268   1.632 -0.1600  0.4196  2.4590
  969TIP3   OH2 2863   5.854   3.095   3.205  0.5241 -0.1190 -0.1128
  969TIP3    H1 2864   5.772   3.047   3.189  0.5694 -0.5664  0.9174
  969TIP3    H2 2865   5.830   3.187   3.192 -0.2963 -0.1962  0.7125
  970TIP3   OH2 2866   2.079   3.004   1.672 -0.4283  0.2115 -0.3156
  970TIP3    H1 2867   2.147   3.068   1.649  1.1407 -1.3240 -0.1537
  970TIP3    H2 2868   2.108   2.923   1.630 -1.7967 -0.6691  0.3804
  971TIP3   OH2 2869   4.572   4.376   5.234 -0.8229  0.3315  0.4375
  971TIP3    H1 2870   4.508   4.416   5.176 -0.1212  0.3025 -0.3710
  971TIP3    H2 2871   4.563   4.425   5.316 -0.9829  1.1881 -0.0807
  972TIP3   OH2 2872   0.709   3.121   5.415  0.7130 -0.4458  0.1449
  972TIP3    H1 2873   0.657   3.060   5.467 -2.0327  0.2226 -1.6262
  972TIP3    H2 2874   0.728   3.193   5.475  0.9117 -1.3797  1.2477
  973TIP3   OH2 2875   3.333   4.279   1.525  0.2708  0.1977  0.0546
  973TIP3    H1 2876   3.381   4.298   1.445 -1.5100  0.3773 -1.0229
  973TIP3    H2 2877   3.331   4.183   1.530  0.6440  0.1886  0.0597
  974TIP3   OH2 2878   3.562   7.343   3.173  0.2990  0.2039  0.3352
  974TIP3    H1 2879   3.546   7.329   3.080  1.1562 -1.8929  0.4611
  974TIP3    H2 2880   3.650   7.382   3.176 -0.1052  1.1605  0.2511
  975TIP3   OH2 2881   5.764   6.341   5.296 -0.5035 -0.3612  0.1249
  975TIP3    H1 2882   5.773   6.386   5.380 -0.4287 -0.3597  0.1159
  975TIP3    H2 2883   5.705   6.398   5.246  0.6238  0.4203 -0.3669
  976TIP3   OH2 2884   6.761   7.535   1.923  0.1935 -0.4351  0.0327
  976TIP3    H1 2885   6.726   7.593   1.990  0.5027  1.1638 -1.1384
  976TIP3    H2 2886   6.832   7.584   1.882  0.5631 -1.6860 -0.9155
  977TIP3   OH2 2887   1.169   6.896   6.348 -0.0344 -0.0287  0.0043
  977TIP3    H1 2888   1.212   6.913   6.264  2.4058 -0.5388  1.0590
  977TIP3    H2 2889   1.179   6.802   6.362 -1.0072 -0.0587  0.5724
  978TIP3   OH2 2890   6.392   2.614   1.514  0.3948  0.1561  0.2553
  978TIP3    H1 2891   6.341   2.691   1.539 -1.7176 -1.5183  1.4120
  978TIP3    H2 2892   6.454   2.602   1.586  0.3762  0.4602  0.3239
  979TIP3   OH2 2893   5.125   7.169   2.956 -0.5636 -0.4644 -1.0036
  979TIP3    H1 2894   5.200   7.163   3.015 -2.9837  0.5546  2.4867
  979TIP3    H2 2895   5.096   7.079   2.943  1.5289 -0.9668 -3.0615
  980TIP3   OH2 2896   4.331   4.589   5.721 -0.8609 -0.0694 -0.0263
  980TIP3    H1 2897   4.306   4.498   5.738 -1.4926 -0.2982 -1.9146
  980TIP3    H2 2898   4.350   4.591   5.627 -0.9791  1.7752 -0.0445
  981TIP3   OH2 2899   6.385   7.381   4.792  0.4928  0.5221  0.0355
  981TIP3    H1 2900   6.474   7.411   4.808  0.6132  0.3926 -0.3807
  981TIP3    H2 2901   6.376   7.384   4.696  0.2470 -0.0284  0.0395
  982TIP3   OH2 2902   1.962   1.329   2.492  0.2869  0.3229  0.0234
  982TIP3    H1 2903   1.867   1.339   2.495  0.0109 -1.5092 -0.9936
  982TIP3    H2 2904   1.994   1.377   2.568 -1.3431  1.8501 -0.1795
  983TIP3   OH2 2905   7.486   1.571   6.564 -0.2495 -0.4705  1.0573
  983TIP3    H1 2906   7.521   1.659   6.557 -2.8947  0.7487  1.7170
  983TIP3    H2 2907   7.462   1.547   6.475 -0.8839  0.1243  1.0590
  984TIP3   OH2 2908   5.261   0.236   5.648  0.5287 -0.2069  0.0693
  984TIP3    H1 2909   5.171   0.267   5.647  1.2272  1.9886  0.1115
  984TIP3    H2 2910   5.271   0.192   5.732 -0.0675  0.9901  0.7886
  985TIP3   OH2 2911   5.826   0.847   3.944  0.3739 -0.1300  0.4547
  985TIP3    H1 2912   5.886   0.921   3.938  1.0460 -0.7708 -1.4100
  985TIP3    H2 2913   5.845   0.807   4.029  1.4721  0.6087  0.5706
  986TIP3   OH2 2914   2.211   1.642   5.809 -0.3402  0.2407  0.5182
  986TIP3    H1 2915   2.217   1.598   5.725  3.2092  1.3815  0.0142
  986TIP3    H2 2916   2.199   1.734   5.788 -0.7810  0.3780  1.3171
  987TIP3   OH2 2917   7.878   1.055   6.343 -0.0212 -0.0952 -0.6359
  987TIP3    H1 2918   7.872   1.120   6.273 -0.8894 -0.8622 -1.3102
  987TIP3    H2 2919   7.872   1.105   6.424 -0.8446  0.6510 -1.1460
  988TIP3   OH2 2920   4.724   5.653   1.414 -0.1782 -0.2723 -0.0112
  988TIP3    H1 2921   4.789   5.698   1.361 -0.5310  0.0372 -0.1835
  988TIP3    H2 2922   4.773   5.623   1.491  0.6903 -2.0927 -1.2026
  989TIP3   OH2 2923   1.132   4.445   4.190 -0.4365 -0.1573 -0.0218
  989TIP3    H1 2924   1.195   4.501   4.144 -1.0766 -0.0932 -0.8500
  989TIP3    H2 2925   1.159   4.356   4.168 -0.0942 -0.1492  0.3665
  990TIP3   OH2 2926   3.640   5.313   6.371  0.2916 -0.0825  0.0400
  990TIP3    H1 2927   3.683   5.384   6.418  1.9234  0.1954 -1.7780
  990TIP3    H2 2928   3.596   5.263   6.440  0.0189  2.0037  1.4939
  991TIP3   OH2 2929   1.233   0.444   3.898  0.0414  0.2265  0.2091
  991TIP3    H1 2930   1.158   0.503   3.893  0.2000  0.3922 -0.2249
  991TIP3    H2 2931   1.281   0.459   3.817 -0.7323 -1.6007 -0.6686
  992TIP3   OH2 2932   8.040   1.357   5.695 -0.2104  0.3879  0.3763
  992TIP3    H1 2933   8.081   1.294   5.755 -2.3422 -0.9600  0.5255
  992TIP3    H2 2934   8.102   1.430   5.691  2.2718 -1.5538  0.4123
  993TIP3   OH2 2935   6.718   3.054   5.455  0.0395  0.1102  0.1993
  993TIP3    H1 2936   6.796   3.105   5.434 -0.1617 -0.0353 -0.9809
  993TIP3    H2 2937   6.645   3.114   5.440 -0.1235 -0.0702  0.2570
  994TIP3   OH2 2938   3.455   4.858   3.399  0.3388 -0.1036 -0.2680
  994TIP3    H1 2939   3.525   4.803   3.435  0.3241  0.8923  1.4149
  994TIP3    H2 2940   3.378   4.801   3.399  0.1154  0.0833  2.2785
  995TIP3   OH2 2941   1.021   2.702   1.914  0.3966  0.3186 -0.2322
  995TIP3    H1 2942   0.950   2.666   1.861 -1.5727 -1.2197  3.1351
  995TIP3    H2 2943   0.991   2.789   1.940  0.3429  0.1930  0.1289
  996TIP3   OH2 2944   1.431   1.986   1.028  0.4905  0.3002 -0.4662
  996TIP3    H1 2945   1.521   1.969   0.999  2.1624  1.5457  3.4229
  996TIP3    H2 2946   1.418   1.926   1.101 -0.6571  2.2740  1.0241
  997TIP3   OH2 2947   4.901   2.375   0.672 -0.2587  0.8770  0.1776
  997TIP3    H1 2948   4.922   2.284   0.690  0.4117  0.7638 -1.0758
  997TIP3    H2 2949   4.824   2.393   0.727  0.3531 -0.0526  1.3877
  998TIP3   OH2 2950   3.186   2.853   5.604 -0.1936 -0.0115  0.3686
  998TIP3    H1 2951   3.129   2.886   5.535 -0.6629 -0.8341  0.3527
  998TIP3    H2 2952   3.263   2.818   5.558 -0.2367 -0.0188  0.3031
  999TIP3   OH2 2953   1.326   6.192   3.701  0.9153  0.1016  0.2391
  999TIP3    H1 2954   1.332   6.169   3.793 -0.5808 -2.1817 -0.1523
  999TIP3    H2 2955   1.290   6.114   3.659  3.6866  0.1634 -2.6761
 1000TIP3   OH2 2956   3.068   3.520   0.547  0.1748 -0.2354 -0.0723
 1000TIP3    H1 2957   2.995   3.480   0.500  0.1400 -1.5602  1.0219
 1000TIP3    H2 2958   3.144   3.503   0.492  0.3466 -2.9013  0.8163
 1001TIP3   OH2 2959   1.387   1.389   1.042  0.1359 -0.0363 -0.3722
 1001TIP3    H1 2960   1.378   1.304   0.999 -0.7366  0.9774 -2.2920
 1001TIP3    H2 2961   1.306   1.436   1.021  1.0890  1.7061 -0.3474
 1002TIP3   OH2 2962   1.911   4.592   1.189  0.1002  0.6963  0.0514
 1002TIP3    H1 2963   1.821   4.622   1.201  0.3542  1.1605  0.9971
 1002TIP3    H2 2964   1.906   4.497   1.188 -0.1620  0.5906  2.8505
 1003TIP3   OH2 2965   5.110   4.304   2.732  0.1162 -0.3233  0.3206
 1003TIP3    H1 2966   5.201   4.307   2.705 -0.6047  0.3083 -2.4096
 1003TIP3    H2 2967   5.071   4.233   2.680 -1.2564  0.4259  0.2677
 1004TIP3   OH2 2968   4.980   7.787   6.690 -0.6451  0.0641 -0.3054
 1004TIP3    H1 2969   5.067   7.779   6.651 -0.4391  0.4551  0.0675
 1004TIP3    H2 2970   4.996   7.822   6.778 -1.0031 -1.8096  0.5735
 1005TIP3   OH2 2971   4.389   4.609   4.079  0.0840  0.0806  0.0610
 1005TIP3    H1 2972   4.378   4.518   4.108 -3.4511  0.2831 -0.1272
 1005TIP3    H2 2973   4.459   4.644   4.135  2.5205 -3.0122 -0.7826
 1006TIP3   OH2 2974   4.220   0.158   2.262  0.0763  0.0516 -0.1919
 1006TIP3    H1 2975   4.158   0.151   2.334 -1.6141 -0.5662 -1.6473
 1006TIP3    H2 2976   4.302   0.125   2.297 -0.4538  0.6671  1.7215
 1007TIP3   OH2 2977   7.676   6.201   1.487  0.1716 -0.1385 -0.2975
 1007TIP3    H1 2978   7.703   6.201   1.395  0.6852  0.5788 -0.1552
 1007TIP3    H2 2979   7.583   6.220   1.484  0.4711  1.4132 -0.6134
 1008TIP3   OH2 2980   1.815   6.504   3.078 -0.4617 -0.5050 -0.1316
 1008TIP3    H1 2981   1.886   6.462   3.030  0.9774  1.0432  0.5609
 1008TIP3    H2 2982   1.799   6.585   3.031 -1.0409 -0.3236  0.3601
 1009TIP3   OH2 2983   6.570   1.412   3.772  0.0938  0.1557  0.7776
 1009TIP3    H1 2984   6.506   1.341   3.773 -1.0710  1.1526  0.3632
 1009TIP3    H2 2985   6.578   1.436   3.679  0.8424  0.2370  0.8614
 1010TIP3   OH2 2986   3.153   2.515   2.312 -0.5410  0.0327  0.0613
 1010TIP3    H1 2987   3.216   2.585   2.330 -1.4945  0.8683  0.2614
 1010TIP3    H2 2988   3.183   2.475   2.231 -0.7862  1.6629 -0.8802
 1011TIP3   OH2 2989   4.155   6.666   5.271  0.6202  0.1586  0.7196
 1011TIP3    H1 2990   4.174   6.579   5.237  0.5325  0.2206  0.5094
 1011TIP3    H2 2991   4.176   6.725   5.199  0.1138  0.2673  0.6537
 1012TIP3   OH2 2992   0.846   6.137   4.044 -0.1135 -0.2653 -0.1184
 1012TIP3    H1 2993   0.912   6.182   4.097 -0.9695  0.7396  0.1321
 1012TIP3    H2 2994   0.861   6.044   4.061 -0.7953  0.0084  2.5178
 1013TIP3   OH2 2995   8.123   5.177   6.448  0.1101  0.2224 -0.1561
 1013TIP3    H1 2996   8.201   5.159   6.501  0.5698 -0.7469 -1.1265
 1013TIP3    H2 2997   8.058   5.114   6.478  0.8198 -1.2883 -1.6452
 1014TIP3   OH2 2998   0.114   7.199   5.257 -0.4926 -0.1501 -0.2304
 1014TIP3    H1 2999   0.188   7.180   5.200  0.9629 -0.5709  1.6929
 1014TIP3    H2 3000   0.092   7.290   5.238 -0.6963 -0.5672 -2.1132
 1015TIP3   OH2 3001   2.381   1.095   6.665 -0.0494  0.6424 -0.0471
 1015TIP3    H1 3002   2.357   1.110   6.573  2.1138  1.7478 -0.4874
 1015TIP3    H2 3003   2.377   1.000   6.675 -0.2542  0.4966 -1.3133
 1016TIP3   OH2 3004   3.773   2.879   1.377  0.3215 -0.2818  0.4420
 1016TIP3    H1 3005   3.783   2.807   1.315 -0.1247 -0.4410  0.5497
 1016TIP3    H2 3006   3.743   2.953   1.324  0.3323 -0.3050  0.4041
 1017TIP3   OH2 3007   3.668   0.136   3.252  0.0445 -0.0211  0.5301
 1017TIP3    H1 3008   3.707   0.129   3.165 -0.3235 -0.1699  0.3729
 1017TIP3    H2 3009   3.574   0.125   3.236  0.1568 -2.4885  1.2261
 1018TIP3   OH2 3010   4.882   0.926   4.046  0.2120 -0.0841  0.1314
 1018TIP3    H1 3011   4.902   1.020   4.045  0.8778 -0.2198  0.1462
 1018TIP3    H2 3012   4.916   0.895   3.962  0.2092 -0.3534  0.2314
 1019TIP3   OH2 3013   4.293   1.231   6.598 -0.6332  0.4179 -0.4009
 1019TIP3    H1 3014   4.387   1.242   6.613 -0.4989  0.0376 -0.9321
 1019TIP3    H2 3015   4.284   1.223   6.503 -1.0274 -1.0637 -0.2672
 1020TIP3   OH2 3016   2.939   7.772   3.342 -0.1561 -0.7522 -0.2091
 1020TIP3    H1 3017   2.862   7.802   3.294 -1.4479 -0.7194  1.7746
 1020TIP3    H2 3018   2.980   7.852   3.375  0.1263 -0.8290 -0.3684
 1021TIP3   OH2 3019   1.695   2.873   0.957  0.4557  0.1047 -0.3326
 1021TIP3    H1 3020   1.719   2.808   0.890  0.2733 -0.8811  0.5354
 1021TIP3    H2 3021   1.609   2.904   0.930  0.7551  0.3644 -1.0251
 1022TIP3   OH2 3022   0.337   1.899   2.991 -0.2582 -0.1692  0.4093
 1022TIP3    H1 3023   0.416   1.945   3.019 -0.4418  0.3738  0.0592
 1022TIP3    H2 3024   0.309   1.849   3.067 -1.6042  2.4317  1.7430
 1023TIP3   OH2 3025   4.253   2.452   2.737 -0.4628 -0.2147 -0.1851
 1023TIP3    H1 3026   4.275   2.442   2.644  0.9906 -3.3558  0.3516
 1023TIP3    H2 3027   4.290   2.537   2.762  0.9681 -0.2402 -2.0166
 1024TIP3   OH2 3028   0.094   7.516   5.628 -0.1961  0.0510 -0.3939
 1024TIP3    H1 3029   0.152   7.517   5.552 -1.8412 -1.9615 -1.7857
 1024TIP3    H2 3030   0.016   7.562   5.599 -0.1266  0.9675  0.7834
 1025TIP3   OH2 3031   2.828   1.229   1.888  0.4616  0.0035 -0.1238
 1025TIP3    H1 3032   2.854   1.299   1.829 -1.1320  0.5857 -0.1848
 1025TIP3    H2 3033   2.832   1.268   1.976  0.3447 -0.0660 -0.0868
 1026TIP3   OH2 3034   0.151   3.805   6.673 -0.1448  0.1766 -0.4488
 1026TIP3    H1 3035   0.131   3.887   6.719  0.9781  1.6574 -2.4859
 1026TIP3    H2 3036   0.208   3.757   6.734 -1.6708  0.3480  1.2168
 1027TIP3   OH2 3037   6.907   7.587   5.121  0.3233  0.8812 -0.3166
 1027TIP3    H1 3038   6.852   7.576   5.043 -0.8240  0.4872  0.5076
 1027TIP3    H2 3039   6.980   7.526   5.108 -0.1531  0.4145 -0.8308
 1028TIP3   OH2 3040   2.250   0.948   0.361  0.1754 -0.4106  0.1504
 1028TIP3    H1 3041   2.337   0.947   0.321  1.0761 -1.0268  2.0202
 1028TIP3    H2 3042   2.192   0.975   0.290  1.8710 -0.0059 -1.1581
 1029TIP3   OH2 3043   6.302   3.596   1.470 -0.1746  0.2842  0.0018
 1029TIP3    H1 3044   6.262   3.631   1.391  0.6376  0.8332 -0.1804
 1029TIP3    H2 3045   6.313   3.672   1.527  1.4832  0.3577 -0.3409
 1030TIP3   OH2 3046   7.634   0.106   5.597 -0.2281 -0.5870 -0.3488
 1030TIP3    H1 3047   7.569   0.121   5.528  0.1682 -1.0349 -0.8231
 1030TIP3    H2 3048   7.687   0.034   5.564 -0.4633 -1.2693  0.7335
 1031TIP3   OH2 3049   0.422   2.345   0.501 -0.3160 -0.1873 -0.0057
 1031TIP3    H1 3050   0.337   2.386   0.516 -0.4852 -0.6174  0.2302
 1031TIP3    H2 3051   0.437   2.356   0.407 -0.1677  0.7655  0.1165
 1032TIP3   OH2 3052   2.830   5.368   3.497  0.3832  0.3601 -0.3512
 1032TIP3    H1 3053   2.815   5.423   3.421  1.0530  0.1069 -0.6774
 1032TIP3    H2 3054   2.763   5.394   3.560  0.5039  1.3294 -0.6148
 1033TIP3   OH2 3055   2.268   1.504   0.853 -0.1947 -0.6345  0.1160
 1033TIP3    H1 3056   2.278   1.523   0.946  1.0339 -0.9646  0.0706
 1033TIP3    H2 3057   2.228   1.417   0.850 -4.0252  0.9228  0.3131
 1034TIP3   OH2 3058   1.812   0.172   6.706  0.2302  0.1579  0.2408
 1034TIP3    H1 3059   1.810   0.227   6.628  0.8316 -0.3518 -0.1509
 1034TIP3    H2 3060   1.892   0.120   6.696  0.2741  0.0312  1.1590
 1035TIP3   OH2 3061   2.262   1.503   1.202  0.3244  0.5139 -0.7388
 1035TIP3    H1 3062   2.175   1.466   1.212  0.8825 -1.1715 -1.7248
 1035TIP3    H2 3063   2.276   1.553   1.283 -0.9862 -0.3746  0.0713
 1036TIP3   OH2 3064   1.065   0.598   6.188  0.1582  0.9989  0.1519
 1036TIP3    H1 3065   0.975   0.602   6.157 -0.4782 -0.2447  1.7085
 1036TIP3    H2 3066   1.108   0.536   6.128 -0.4052  0.4720  0.2880
 1037TIP3   OH2 3067   7.371   7.290   0.470  0.3968 -0.4713  0.3390
 1037TIP3    H1 3068   7.288   7.302   0.423 -1.2207 -0.5853  2.9683
 1037TIP3    H2 3069   7.418   7.372   0.457 -0.4023 -0.1561 -0.6990
 1038TIP3   OH2 3070   6.494   3.378   3.370  0.2286  0.1314  0.2690
 1038TIP3    H1 3071   6.588   3.373   3.351  0.0364 -1.5344 -0.4168
 1038TIP3    H2 3072   6.488   3.374   3.465  0.8608  0.7188  0.3435
 1039TIP3   OH2 3073   0.210   3.102   0.995 -0.1804  0.4441  0.3966
 1039TIP3    H1 3074   0.141   3.074   1.056 -0.6189  1.3267  0.3333
 1039TIP3    H2 3075   0.279   3.037   1.005 -0.7778 -0.1303  0.9042
 1040TIP3   OH2 3076   6.314   2.990   5.436 -0.0805  0.1122  0.3949
 1040TIP3    H1 3077   6.364   3.013   5.357 -1.8196  1.0864 -0.4721
 1040TIP3    H2 3078   6.331   3.063   5.496  0.4141 -0.1200  0.5474
 1041TIP3   OH2 3079   5.650   4.036   3.945 -0.2931  0.1006 -0.1236
 1041TIP3    H1 3080   5.620   4.119   3.906  1.0249  0.7446  0.1879
 1041TIP3    H2 3081   5.648   4.052   4.039 -2.4191 -1.0931  0.1127
 1042TIP3   OH2 3082   3.321   1.342   0.019 -0.4686  0.1976 -0.1275
 1042TIP3    H1 3083   3.385   1.277   0.049  1.7943  1.8101 -1.1742
 1042TIP3    H2 3084   3.370   1.424   0.016 -2.8176  1.6747 -0.3284
 1043TIP3   OH2 3085   3.470   2.085   0.498 -0.6144 -0.2613 -0.4756
 1043TIP3    H1 3086   3.379   2.095   0.526 -0.5677 -1.6840  0.3201
 1043TIP3    H2 3087   3.466   2.021   0.427 -0.2783  0.0247 -0.7509
 1044TIP3   OH2 3088   5.788   6.449   2.581  0.4755 -0.0603 -0.2294
 1044TIP3    H1 3089   5.693   6.445   2.573  0.2767  1.4841  0.9520
 1044TIP3    H2 3090   5.820   6.394   2.509 -1.2953 -2.2107  0.4888
 1045TIP3   OH2 3091   4.087   6.105   1.041  0.3058 -0.2513  0.0659
 1045TIP3    H1 3092   4.008   6.061   1.072  0.3023 -0.1072  0.2613
 1045TIP3    H2 3093   4.068   6.128   0.950  0.5735 -1.2967 -0.2692
 1046TIP3   OH2 3094   0.583   1.207   2.481  0.2776 -0.3703  0.5202
 1046TIP3    H1 3095   0.592   1.111   2.476  1.1933 -0.3263  1.1756
 1046TIP3    H2 3096   0.648   1.240   2.419 -1.0721 -0.1712 -0.8642
 1047TIP3   OH2 3097   4.275   5.817   1.797 -0.4361  0.0433 -0.2456
 1047TIP3    H1 3098   4.337   5.808   1.869 -0.4619  0.3141 -0.1855
 1047TIP3    H2 3099   4.319   5.777   1.722 -0.1788  0.2499 -0.2087
 1048TIP3   OH2 3100   7.660   4.315   2.766 -0.4686  0.2556 -0.5265
 1048TIP3    H1 3101   7.725   4.272   2.821 -0.9977 -0.2698 -0.2946
 1048TIP3    H2 3102   7.704   4.327   2.682  0.6955  1.9714  0.2598
 1049TIP3   OH2 3103   3.606   1.885   3.570 -0.4848 -0.3958  0.1020
 1049TIP3    H1 3104   3.640   1.970   3.596 -0.7630 -0.2532 -0.0022
 1049TIP3    H2 3105   3.606   1.887   3.474 -0.1044 -0.6668  0.0910
 1050TIP3   OH2 3106   1.649   5.826   3.010  0.8326 -0.0724  0.3064
 1050TIP3    H1 3107   1.701   5.824   3.090  1.3882 -1.0138 -0.0591
 1050TIP3    H2 3108   1.641   5.918   2.988  0.6083  0.2072  1.4822
 1051TIP3   OH2 3109   7.983   0.721   3.385  0.0688  0.4118  0.3549
 1051TIP3    H1 3110   7.906   0.739   3.438  0.5509  1.7302  0.6350
 1051TIP3    H2 3111   7.977   0.627   3.366 -1.1925  0.3384  1.0007
 1052TIP3   OH2 3112   1.439   0.636   0.768  0.0549 -0.1362 -0.4825
 1052TIP3    H1 3113   1.505   0.670   0.707  0.8095 -1.0394 -0.2102
 1052TIP3    H2 3114   1.375   0.706   0.776  0.4365  0.3651 -1.5787
 1053TIP3   OH2 3115   2.503   5.927   0.915  0.0224 -0.0310 -0.1716
 1053TIP3    H1 3116   2.446   5.862   0.873 -0.6794 -0.2172  1.0281
 1053TIP3    H2 3117   2.506   6.000   0.853  1.0782 -1.3076 -1.6932
 1054TIP3   OH2 3118   2.486   1.763   3.135  0.2122 -0.2003 -0.3005
 1054TIP3    H1 3119   2.518   1.674   3.150 -1.2587 -0.6223  0.5218
 1054TIP3    H2 3120   2.522   1.814   3.208 -1.3611 -0.7877  0.9314
 1055TIP3   OH2 3121   5.882   0.324   1.253 -0.2934  0.2386  0.1514
 1055TIP3    H1 3122   5.944   0.330   1.180  1.0383  0.1882  1.2377
 1055TIP3    H2 3123   5.923   0.264   1.315 -0.8146  1.1915  1.4767
 1056TIP3   OH2 3124   3.416   1.859   4.714  0.4390 -0.4475  0.2627
 1056TIP3    H1 3125   3.444   1.810   4.791  0.4140  0.5933  0.9537
 1056TIP3    H2 3126   3.331   1.822   4.690  0.4502 -0.7772  0.7341
 1057TIP3   OH2 3127   7.590   3.705   0.755  0.2686 -0.4318  0.6055
 1057TIP3    H1 3128   7.635   3.779   0.715 -0.5347  0.7329  1.7912
 1057TIP3    H2 3129   7.592   3.637   0.688  0.8954  0.7014 -0.5685
 1058TIP3   OH2 3130   6.500   4.374   6.117  0.2992  0.1442  0.3007
 1058TIP3    H1 3131   6.531   4.316   6.048  0.5007 -0.2038  0.6802
 1058TIP3    H2 3132   6.469   4.316   6.186 -0.4148  0.4897  0.2844
 1059TIP3   OH2 3133   6.265   6.671   5.918  0.0707 -0.0301  0.3605
 1059TIP3    H1 3134   6.343   6.616   5.917 -0.5724 -0.9573  0.2046
 1059TIP3    H2 3135   6.293   6.751   5.963  1.3212 -0.0205 -0.3728
 1060TIP3   OH2 3136   2.397   7.280   0.291  0.3573  0.0819  0.0677
 1060TIP3    H1 3137   2.408   7.185   0.288  0.1189  0.0648 -1.0234
 1060TIP3    H2 3138   2.305   7.293   0.314  0.3230  0.0386 -0.0439
 1061TIP3   OH2 3139   8.088   3.024   3.534  0.2831 -0.0387 -0.1091
 1061TIP3    H1 3140   8.099   2.934   3.503  0.0491 -0.2571  0.4336
 1061TIP3    H2 3141   8.170   3.043   3.580  0.4524  0.1304 -0.4785
 1062TIP3   OH2 3142   7.177   2.631   0.326 -0.3617 -0.1918 -0.1916
 1062TIP3    H1 3143   7.121   2.688   0.378  0.2185  0.9211 -0.7407
 1062TIP3    H2 3144   7.181   2.673   0.240 -0.2286 -1.2782 -0.7443
 1063TIP3   OH2 3145   3.443   6.027   2.440 -0.4043 -0.9042 -0.4303
 1063TIP3    H1 3146   3.514   5.964   2.449 -0.0918 -0.5385 -0.3316
 1063TIP3    H2 3147   3.391   6.016   2.520  0.8875  0.4934  0.6697
 1064TIP3   OH2 3148   5.800   4.253   1.269  0.1045 -0.1906 -0.8244
 1064TIP3    H1 3149   5.849   4.302   1.334 -0.4587  0.7999 -1.1195
 1064TIP3    H2 3150   5.840   4.277   1.185  0.2334 -0.7393 -0.9241
 1065TIP3   OH2 3151   8.095   1.867   3.134 -0.5130  0.5736  0.3447
 1065TIP3    H1 3152   8.046   1.910   3.204  0.1162  1.0205  0.5212
 1065TIP3    H2 3153   8.187   1.875   3.160 -0.3086  0.2300 -0.2459
 1066TIP3   OH2 3154   7.692   0.742   2.794 -0.4156 -0.4262  0.1625
 1066TIP3    H1 3155   7.656   0.691   2.867 -0.4939 -0.6823 -0.0525
 1066TIP3    H2 3156   7.615   0.776   2.749 -0.3571  0.3480  0.6243
 1067TIP3   OH2 3157   3.880   6.309   3.097  0.4292  0.3386  0.4580
 1067TIP3    H1 3158   3.898   6.267   3.181  1.0409 -0.2496  0.0490
 1067TIP3    H2 3159   3.877   6.236   3.034 -1.1137  0.6556  0.1309
 1068TIP3   OH2 3160   1.501   0.039   4.564  0.3627 -0.2601 -0.3967
 1068TIP3    H1 3161   1.585   0.082   4.581  0.6035 -0.7638 -0.3042
 1068TIP3    H2 3162   1.453   0.049   4.646 -0.7678  2.4333 -1.2635
 1069TIP3   OH2 3163   1.186   7.420   2.701 -0.6374 -0.0314  0.1628
 1069TIP3    H1 3164   1.225   7.487   2.756 -2.1597  2.1048 -1.2060
 1069TIP3    H2 3165   1.119   7.379   2.756  0.2507 -0.4276  0.9797
 1070TIP3   OH2 3166   4.983   5.454   6.297  0.4852 -0.0482  0.2483
 1070TIP3    H1 3167   5.072   5.489   6.291  0.5962 -0.0253  1.7985
 1070TIP3    H2 3168   4.947   5.465   6.208  1.3358  1.7883  0.0902
 1071TIP3   OH2 3169   1.072   1.724   3.983  0.1044 -0.8722  0.0941
 1071TIP3    H1 3170   1.020   1.798   3.953 -1.5398 -1.5773  1.0224
 1071TIP3    H2 3171   1.044   1.711   4.074  1.4557 -1.6966  0.4087
 1072TIP3   OH2 3172   2.094   2.617   4.967 -0.2589  0.6557 -0.3988
 1072TIP3    H1 3173   2.063   2.707   4.953 -2.1268 -0.3180 -3.9252
 1072TIP3    H2 3174   2.179   2.614   4.922 -0.2127  0.6588 -0.3113
 1073TIP3   OH2 3175   5.704   3.076   6.388  0.2386 -0.2064  0.5527
 1073TIP3    H1 3176   5.673   3.076   6.297  1.5725  0.1790  0.0715
 1073TIP3    H2 3177   5.678   3.162   6.422  1.6816  0.5714 -0.2037
 1074TIP3   OH2 3178   2.408   5.241   5.046 -0.2705  0.0567  0.3176
 1074TIP3    H1 3179   2.429   5.312   4.985 -1.3119 -0.7015 -0.9979
 1074TIP3    H2 3180   2.321   5.211   5.017 -0.4779 -0.7986  1.7537
 1075TIP3   OH2 3181   0.870   4.299   6.273 -0.2331 -0.1048 -0.1989
 1075TIP3    H1 3182   0.963   4.276   6.272 -0.6151 -1.7561  0.1293
 1075TIP3    H2 3183   0.847   4.301   6.366 -0.3225  1.3238 -0.2194
 1076TIP3   OH2 3184   5.286   3.541   0.695 -0.0216 -0.0352  0.4207
 1076TIP3    H1 3185   5.245   3.494   0.767 -0.2556 -0.4852 -0.0004
 1076TIP3    H2 3186   5.377   3.553   0.723 -0.4475  1.1053  1.4248
 1077TIP3   OH2 3187   4.355   2.905   5.573  0.2305  0.1999  0.1149
 1077TIP3    H1 3188   4.270   2.881   5.535 -0.3823  0.8943  1.0209
 1077TIP3    H2 3189   4.408   2.826   5.564 -1.4306 -1.2491  2.1780
 1078TIP3   OH2 3190   0.810   6.463   5.225  0.1726  0.2388 -0.2764
 1078TIP3    H1 3191   0.796   6.437   5.316  1.0998  1.3279  0.1891
 1078TIP3    H2 3192   0.902   6.489   5.220  0.5928 -1.3170 -1.9156
 1079TIP3   OH2 3193   6.437   6.503   2.115 -0.4594  0.2190 -0.1271
 1079TIP3    H1 3194   6.342   6.515   2.116 -0.4771  0.0597  0.8736
 1079TIP3    H2 3195   6.450   6.413   2.142 -0.1088 -0.6213 -2.7987
 1080TIP3   OH2 3196   4.505   7.422   3.263  0.0613  0.1104 -0.2378
 1080TIP3    H1 3197   4.446   7.390   3.332  0.2580 -0.9312 -0.5436
 1080TIP3    H2 3198   4.551   7.495   3.304 -1.4258  0.9552  0.0175
 1081TIP3   OH2 3199   2.650   5.019   5.461  0.0171  0.0361  0.0384
 1081TIP3    H1 3200   2.593   5.017   5.384 -1.0806 -0.8213  0.8436
 1081TIP3    H2 3201   2.612   5.087   5.517  1.2463  1.1838 -0.4614
 1082TIP3   OH2 3202   3.936   5.264   1.020  0.0589 -0.4656 -0.2785
 1082TIP3    H1 3203   3.945   5.251   0.925 -0.0262 -1.0018 -0.2174
 1082TIP3    H2 3204   3.896   5.351   1.028  0.5527 -0.1904 -0.7129
 1083TIP3   OH2 3205   6.408   0.332   5.151  0.3584 -0.0899 -0.1050
 1083TIP3    H1 3206   6.500   0.313   5.132  1.1859 -0.2563  3.3144
 1083TIP3    H2 3207   6.369   0.247   5.171 -0.4088  0.0469 -0.9815
 1084TIP3   OH2 3208   7.082   2.961   0.869  0.5443 -0.1291  0.5687
 1084TIP3    H1 3209   7.105   2.879   0.913  0.5091  0.2571  1.3143
 1084TIP3    H2 3210   7.089   3.028   0.937 -0.4469  0.3396  0.2178
 1085TIP3   OH2 3211   6.095   7.025   0.672 -0.1233 -0.6789  0.0787
 1085TIP3    H1 3212   6.017   6.987   0.631 -0.1126  0.1542 -0.7508
 1085TIP3    H2 3213   6.145   7.061   0.599 -0.3487  1.3243  0.8395
 1086TIP3   OH2 3214   1.652   6.182   1.223 -0.8133  0.2356  0.2731
 1086TIP3    H1 3215   1.625   6.271   1.243  0.3529  0.4407  1.0352
 1086TIP3    H2 3216   1.726   6.165   1.282  0.3098 -0.4943 -1.2714
 1087TIP3   OH2 3217   6.713   1.183   4.740 -0.0217 -0.1799  0.1813
 1087TIP3    H1 3218   6.622   1.160   4.756  0.2500 -1.1203  0.4696
 1087TIP3    H2 3219   6.720   1.274   4.767 -1.0860  0.1958 -0.7572
 1088TIP3   OH2 3220   7.775   5.775   6.482  0.6245  0.1531 -0.3535
 1088TIP3    H1 3221   7.711   5.703   6.484  0.3935  0.2749 -1.8768
 1088TIP3    H2 3222   7.741   5.834   6.415  0.5378  1.9828  1.2321
 1089TIP3   OH2 3223   2.782   1.792   4.706  0.1737  0.1683 -0.2897
 1089TIP3    H1 3224   2.768   1.723   4.642 -0.3459 -0.6625  0.6855
 1089TIP3    H2 3225   2.737   1.868   4.669  1.3946  0.2300 -1.7327
 1090TIP3   OH2 3226   5.163   7.022   2.588 -0.0932 -0.2593  0.1994
 1090TIP3    H1 3227   5.198   6.934   2.573  1.0793  0.2183  0.0192
 1090TIP3    H2 3228   5.218   7.058   2.658  0.2109  0.7444 -0.5289
 1091TIP3   OH2 3229   6.777   2.996   6.579  0.5064 -0.5735  0.1662
 1091TIP3    H1 3230   6.767   2.987   6.674  0.0071 -0.1069  0.1616
 1091TIP3    H2 3231   6.708   2.941   6.542 -2.6422  3.0195  0.1371
 1092TIP3   OH2 3232   7.701   7.360   1.894 -0.5162  0.6624  0.6645
 1092TIP3    H1 3233   7.681   7.267   1.904 -1.0785  0.7793  0.6565
 1092TIP3    H2 3234   7.636   7.405   1.948  0.9349  0.9867  2.2420
 1093TIP3   OH2 3235   8.134   1.311   6.528  0.6101  1.0133  0.0292
 1093TIP3    H1 3236   8.060   1.250   6.521  1.6860 -0.3813  0.4281
 1093TIP3    H2 3237   8.093   1.398   6.535 -0.9857  0.2679  0.3090
 1094TIP3   OH2 3238   4.428   3.080   1.447 -0.0143 -0.2255 -0.3063
 1094TIP3    H1 3239   4.460   3.068   1.536  0.4167 -1.8188 -0.6407
 1094TIP3    H2 3240   4.494   3.136   1.406  0.6251 -0.7569 -0.0413
 1095TIP3   OH2 3241   5.371   1.028   4.684  0.1181 -0.6256 -0.8949
 1095TIP3    H1 3242   5.304   1.037   4.617  0.0962 -2.2898 -1.1445
 1095TIP3    H2 3243   5.324   1.042   4.767 -0.2640 -0.5224 -1.1277
 1096TIP3   OH2 3244   0.621   3.238   0.834 -0.0063  0.3698  0.2566
 1096TIP3    H1 3245   0.683   3.261   0.764 -0.3541 -0.5473 -0.3772
 1096TIP3    H2 3246   0.536   3.264   0.799 -0.2686 -0.7582  0.0134
 1097TIP3   OH2 3247   1.670   1.168   1.463  0.0304  0.1660  0.2693
 1097TIP3    H1 3248   1.699   1.082   1.491 -1.6638 -0.9739 -1.2341
 1097TIP3    H2 3249   1.625   1.204   1.539 -0.2697 -0.7858  0.5574
 1098TIP3   OH2 3250   8.034   0.404   3.991  0.5472 -0.0031  0.1608
 1098TIP3    H1 3251   7.940   0.421   3.980  0.8769  1.7320 -0.3121
 1098TIP3    H2 3252   8.044   0.311   3.969 -1.0225 -0.1705  0.0318
 1099TIP3   OH2 3253   7.640   2.825   1.115  0.1267  0.0768 -0.6398
 1099TIP3    H1 3254   7.626   2.743   1.068  0.6302  0.6380 -1.8267
 1099TIP3    H2 3255   7.734   2.841   1.105  0.8036 -1.0096  2.6929
 1100TIP3   OH2 3256   4.205   5.376   2.566 -0.0133  0.1309  0.3035
 1100TIP3    H1 3257   4.209   5.344   2.656 -0.8227  1.3276  0.7971
 1100TIP3    H2 3258   4.115   5.356   2.538  0.0321  0.3593  0.0009
 1101TIP3   OH2 3259   0.404   5.125   1.563 -0.2123 -0.2111  0.5865
 1101TIP3    H1 3260   0.314   5.096   1.573 -0.0955 -0.9089 -0.2766
 1101TIP3    H2 3261   0.444   5.060   1.505  0.4938  0.8031 -0.0862
 1102TIP3   OH2 3262   5.105   4.647   4.753 -0.4465  0.2448 -0.3649
 1102TIP3    H1 3263   5.179   4.652   4.694 -0.7119  0.7304 -0.6700
 1102TIP3    H2 3264   5.074   4.557   4.747 -0.6149  0.3459 -1.1539
 1103TIP3   OH2 3265   6.903   0.455   5.388  0.2187 -0.1564  0.1998
 1103TIP3    H1 3266   6.858   0.414   5.314 -0.6874 -1.9325  1.6363
 1103TIP3    H2 3267   6.833   0.471   5.452  1.1385  0.2549  1.1295
 1104TIP3   OH2 3268   7.322   4.746   5.777 -1.2315  0.0768  0.3390
 1104TIP3    H1 3269   7.352   4.663   5.739 -1.1935  0.2337  0.0319
 1104TIP3    H2 3270   7.251   4.720   5.836 -2.5399  0.0052 -1.2030
 1105TIP3   OH2 3271   6.455   2.936   6.006  0.7458  0.2230 -0.0005
 1105TIP3    H1 3272   6.536   2.970   5.969  1.8559  0.8971  2.7754
 1105TIP3    H2 3273   6.483   2.873   6.072 -1.0210 -0.1633  0.4415
 1106TIP3   OH2 3274   1.721   5.097   6.180 -0.1441 -0.0689 -0.2667
 1106TIP3    H1 3275   1.647   5.131   6.231  0.0180 -0.7650  0.4531
 1106TIP3    H2 3276   1.700   5.120   6.090 -1.6505 -0.9346 -0.1773
 1107TIP3   OH2 3277   8.250   2.707   4.653 -0.1800 -0.1525 -0.0327
 1107TIP3    H1 3278   8.302   2.727   4.575  0.9421 -0.1681  0.6953
 1107TIP3    H2 3279   8.235   2.793   4.693 -0.2859 -0.2007  0.0295
 1108TIP3   OH2 3280   2.872   2.110   5.104 -0.4097  0.0806 -0.1040
 1108TIP3    H1 3281   2.783   2.119   5.138 -0.9102 -1.6436 -0.8780
 1108TIP3    H2 3282   2.927   2.109   5.182 -1.2448 -0.7213  0.4943
 1109TIP3   OH2 3283   2.386   4.954   6.498 -0.2379  0.0006  0.1186
 1109TIP3    H1 3284   2.309   4.976   6.447 -0.7310 -0.3538  0.6901
 1109TIP3    H2 3285   2.386   5.017   6.570 -0.4768 -0.5246  0.5900
 1110TIP3   OH2 3286   4.100   7.634   5.263 -0.4020 -0.4593  0.3212
 1110TIP3    H1 3287   4.131   7.721   5.290 -2.2911  0.2042  0.5172
 1110TIP3    H2 3288   4.115   7.578   5.340  0.3951 -0.2151  0.3563
 1111TIP3   OH2 3289   4.659   5.031   1.620 -0.0915  0.4308 -0.4803
 1111TIP3    H1 3290   4.745   4.997   1.593  0.0241 -0.2017  0.6526
 1111TIP3    H2 3291   4.666   5.044   1.714 -1.2988  0.2156 -0.3447
 1112TIP3   OH2 3292   6.130   5.940   3.232 -0.4645  0.0163 -0.7405
 1112TIP3    H1 3293   6.210   5.985   3.258 -1.1860  1.0088 -0.1949
 1112TIP3    H2 3294   6.098   5.989   3.156 -1.4491  0.6857  0.0803
 1113TIP3   OH2 3295   6.358   0.496   4.744 -1.0750 -0.1103 -0.2686
 1113TIP3    H1 3296   6.324   0.584   4.724  0.8858  1.0113  0.9819
 1113TIP3    H2 3297   6.322   0.476   4.830 -2.2822 -0.9796 -0.9586
 1114TIP3   OH2 3298   6.507   1.901   3.913  0.1577  0.1016  0.2179
 1114TIP3    H1 3299   6.452   1.824   3.930 -0.0333  0.0661 -0.5206
 1114TIP3    H2 3300   6.596   1.872   3.934 -0.0313 -0.0254  0.8527
 1115TIP3   OH2 3301   1.798   0.968   1.104 -0.5386  0.1883 -0.0561
 1115TIP3    H1 3302   1.792   1.063   1.118  1.0511  0.3389 -0.2092
 1115TIP3    H2 3303   1.836   0.959   1.017 -0.7305 -0.6042 -0.0654
 1116TIP3   OH2 3304   5.720   7.148   2.055 -0.2641  0.0014 -0.3462
 1116TIP3    H1 3305   5.692   7.200   1.981 -0.8841  1.6329  0.9818
 1116TIP3    H2 3306   5.640   7.111   2.092  0.1268 -1.6570 -1.0360
 1117TIP3   OH2 3307   7.401   6.432   4.991 -0.5665 -0.4148 -0.5236
 1117TIP3    H1 3308   7.469   6.482   4.946 -1.7969  1.1646 -0.7462
 1117TIP3    H2 3309   7.384   6.358   4.933 -0.1170  0.0244 -1.2397
 1118TIP3   OH2 3310   2.531   4.719   4.992  0.1308  0.2786 -0.2432
 1118TIP3    H1 3311   2.559   4.791   4.935  1.0216 -1.6202 -2.3531
 1118TIP3    H2 3312   2.594   4.718   5.063  0.5244  1.1340 -0.5634
 1119TIP3   OH2 3313   4.079   3.892   0.092  0.6166 -0.3178  0.4243
 1119TIP3    H1 3314   4.137   3.914   0.165 -0.9360  0.8074  1.3632
 1119TIP3    H2 3315   4.005   3.951   0.102  0.2201 -0.3588 -1.9166
 1120TIP3   OH2 3316   2.573   5.450   2.332 -0.1032  0.2708  0.0456
 1120TIP3    H1 3317   2.528   5.531   2.308 -0.7488 -0.0837  0.0450
 1120TIP3    H2 3318   2.588   5.405   2.248 -0.5572 -0.0264  0.1178
 1121TIP3   OH2 3319   0.400   2.386   3.052  0.3363 -0.2853  0.4776
 1121TIP3    H1 3320   0.441   2.443   3.117 -0.3648  0.2808  0.4307
 1121TIP3    H2 3321   0.307   2.386   3.074 -0.2512  1.5074 -1.6752
 1122TIP3   OH2 3322   6.855   6.719   2.825 -0.4822 -0.6556  0.7536
 1122TIP3    H1 3323   6.867   6.778   2.750 -1.2337 -1.1717  0.2144
 1122TIP3    H2 3324   6.929   6.739   2.883  0.1565 -0.2937 -0.1516
 1123TIP3   OH2 3325   2.208   2.197   3.635 -0.2028  0.1194  0.0922
 1123TIP3    H1 3326   2.266   2.220   3.708  0.0255 -2.0994  0.7051
 1123TIP3    H2 3327   2.257   2.219   3.557  0.8866 -0.3430  0.6196
 1124TIP3   OH2 3328   5.954   3.827   4.421 -0.5682 -0.5700 -0.5246
 1124TIP3    H1 3329   5.970   3.901   4.362  0.5003  0.0536  0.4923
 1124TIP3    H2 3330   5.917   3.867   4.499  0.4395 -1.0322  0.2121
 1125TIP3   OH2 3331   1.982   7.591   5.118 -0.3592  0.5692 -0.0801
 1125TIP3    H1 3332   1.893   7.581   5.152 -0.6226  1.5115 -0.4549
 1125TIP3    H2 3333   1.971   7.595   5.023  0.2699 -1.0575 -0.2459
 1126TIP3   OH2 3334   5.701   2.863   3.270  0.5052  0.5366  0.0076
 1126TIP3    H1 3335   5.658   2.802   3.331  1.2849  0.2206  0.2541
 1126TIP3    H2 3336   5.791   2.832   3.266  0.2654 -0.0450 -2.0662
 1127TIP3   OH2 3337   6.648   6.428   2.891 -0.2908  0.5983 -0.4471
 1127TIP3    H1 3338   6.690   6.397   2.972 -0.9115  1.3200  0.1773
 1127TIP3    H2 3339   6.558   6.397   2.898  0.0966 -0.9653 -1.7891
 1128TIP3   OH2 3340   1.840   2.935   0.171  0.0263  0.0313  0.0891
 1128TIP3    H1 3341   1.800   2.880   0.238 -0.1354 -0.1246 -0.1304
 1128TIP3    H2 3342   1.889   2.874   0.116  0.4603  0.2059  0.2791
 1129TIP3   OH2 3343   4.406   3.051   4.200 -0.1405 -0.8875  0.4676
 1129TIP3    H1 3344   4.359   2.971   4.228 -2.7325  0.3484 -0.0185
 1129TIP3    H2 3345   4.492   3.044   4.242 -1.3006 -2.5523  2.8244
 1130TIP3   OH2 3346   1.814   0.747   5.535  0.4472  0.2165 -0.2352
 1130TIP3    H1 3347   1.896   0.709   5.503 -0.4897 -1.9769 -0.2315
 1130TIP3    H2 3348   1.842   0.814   5.598  2.2300 -0.3853 -0.3181
 1131TIP3   OH2 3349   0.254   1.671   4.300  0.3097 -0.0637 -0.3371
 1131TIP3    H1 3350   0.275   1.637   4.387  0.5778  0.1055 -0.3363
 1131TIP3    H2 3351   0.159   1.684   4.302  0.1931 -0.8548 -0.3542
 1132TIP3   OH2 3352   0.042   2.042   3.992  0.2765 -0.5440 -0.4908
 1132TIP3    H1 3353  -0.014   2.107   4.033 -0.1053 -1.5376  0.6260
 1132TIP3    H2 3354   0.116   2.032   4.052  1.3069  0.2079 -1.5804
 1133TIP3   OH2 3355   5.076   6.903   1.859  0.1164  0.0663 -0.1812
 1133TIP3    H1 3356   5.086   6.908   1.954  1.6602  1.3145 -0.3664
 1133TIP3    H2 3357   5.149   6.954   1.825 -1.5091  1.2791 -2.0148
 1134TIP3   OH2 3358   6.961   3.496   6.118  0.4759  0.3765  0.3850
 1134TIP3    H1 3359   6.873   3.533   6.126  0.1388 -0.1370 -0.7806
 1134TIP3    H2 3360   7.019   3.565   6.152 -0.3416  0.8285  0.8983
 1135TIP3   OH2 3361   4.590   2.131   2.668  0.1966 -0.2073  0.5550
 1135TIP3    H1 3362   4.569   2.158   2.757 -0.2657 -1.3579  0.8103
 1135TIP3    H2 3363   4.529   2.059   2.649 -0.7674  0.9901 -1.2431
 1136TIP3   OH2 3364   0.791   1.511   5.342  0.0097 -0.2453 -0.1888
 1136TIP3    H1 3365   0.733   1.444   5.377 -1.2804  0.9153 -0.0059
 1136TIP3    H2 3366   0.771   1.589   5.394 -0.2424  0.8898 -1.8988
 1137TIP3   OH2 3367   7.306   3.584   2.719 -0.4074  0.1238 -0.1947
 1137TIP3    H1 3368   7.260   3.501   2.706 -1.2892  0.4660  0.5686
 1137TIP3    H2 3369   7.269   3.643   2.654  0.3551 -0.1208 -0.8632
 1138TIP3   OH2 3370   4.447   3.376   1.786  0.2692 -0.0784  0.1974
 1138TIP3    H1 3371   4.450   3.281   1.793 -1.7794 -0.1873  0.0441
 1138TIP3    H2 3372   4.481   3.408   1.869 -1.0114 -0.9995  1.1047
 1139TIP3   OH2 3373   7.590   3.219   1.657  0.4878 -0.4436  0.1973
 1139TIP3    H1 3374   7.501   3.190   1.637 -0.6766  2.0334  1.3359
 1139TIP3    H2 3375   7.634   3.141   1.690 -2.2414 -1.1475  2.5902
 1140TIP3   OH2 3376   5.165   1.914   1.562 -0.6140 -0.1772 -0.3724
 1140TIP3    H1 3377   5.073   1.898   1.541  0.0456 -2.5948 -1.8003
 1140TIP3    H2 3378   5.164   1.994   1.615 -3.5281 -0.2449 -0.1658
 1141TIP3   OH2 3379   0.324   6.956   2.997  0.3500  0.9315  0.0441
 1141TIP3    H1 3380   0.388   6.887   2.977  0.6802  1.9453 -2.7620
 1141TIP3    H2 3381   0.377   7.028   3.031  0.2413  0.5864  0.9894
 1142TIP3   OH2 3382   3.387   2.956   3.245  0.5268  0.9263  0.2204
 1142TIP3    H1 3383   3.320   2.917   3.302  3.0999 -0.7771  2.3550
 1142TIP3    H2 3384   3.387   2.901   3.167  0.0684  0.3429  0.6213
 1143TIP3   OH2 3385   4.398   0.422   6.202  0.0922  0.1056  0.2116
 1143TIP3    H1 3386   4.428   0.382   6.120  1.3745 -0.1922  0.8118
 1143TIP3    H2 3387   4.441   0.371   6.271 -1.1299  0.2261  1.0886
 1144TIP3   OH2 3388   7.330   1.194   3.611 -0.2622 -0.3232 -0.0337
 1144TIP3    H1 3389   7.384   1.133   3.661 -0.9003 -1.0043 -0.1494
 1144TIP3    H2 3390   7.256   1.140   3.580 -2.5569  1.1293  2.4784
 1145TIP3   OH2 3391   7.650   3.528   5.067  0.1656  0.1397  0.4909
 1145TIP3    H1 3392   7.584   3.509   5.133 -0.9037 -2.7542 -1.2413
 1145TIP3    H2 3393   7.606   3.586   5.004  0.1080  0.2186  0.6047
 1146TIP3   OH2 3394   6.601   7.151   4.966 -0.3736 -0.2955  0.1960
 1146TIP3    H1 3395   6.523   7.192   5.002 -0.6870  0.3153 -1.1399
 1146TIP3    H2 3396   6.662   7.223   4.952  0.0996 -0.6534  0.3763
 1147TIP3   OH2 3397   0.955   3.389   6.575  0.2950 -0.0591  0.4212
 1147TIP3    H1 3398   0.997   3.435   6.648 -0.4126 -0.0966  0.8577
 1147TIP3    H2 3399   0.891   3.452   6.541 -1.9386 -1.2737  2.1290
 1148TIP3   OH2 3400   2.104   2.383   5.515 -0.3212  0.1057 -0.0364
 1148TIP3    H1 3401   2.107   2.397   5.420 -2.8451  0.4913 -0.1286
 1148TIP3    H2 3402   2.137   2.465   5.551 -0.0085  0.2302 -0.5832
 1149TIP3   OH2 3403   0.363   3.845   1.659  0.0777  0.4953 -0.2492
 1149TIP3    H1 3404   0.380   3.923   1.712 -1.4854  1.2760 -0.8391
 1149TIP3    H2 3405   0.379   3.772   1.719  1.4265  1.2537  0.3606
 1150TIP3   OH2 3406   5.478   2.018   1.969 -0.3958 -0.1978  0.2004
 1150TIP3    H1 3407   5.387   1.996   1.947 -0.2729 -2.2298  1.4777
 1150TIP3    H2 3408   5.531   1.962   1.913  0.1346  1.4029 -0.9594
 1151TIP3   OH2 3409   6.218   5.893   2.131  0.1694  0.1085 -0.3626
 1151TIP3    H1 3410   6.128   5.885   2.101 -0.2444 -0.5689  1.0019
 1151TIP3    H2 3411   6.252   5.804   2.130  0.1221  0.0563  1.2024
 1152TIP3   OH2 3412   2.359   0.294   5.803  0.1507 -0.6255 -0.2412
 1152TIP3    H1 3413   2.390   0.301   5.893 -1.0469  0.6896  0.1024
 1152TIP3    H2 3414   2.274   0.251   5.810  0.1353 -0.6867 -0.7675
 1153TIP3   OH2 3415   3.315   3.603   1.921 -0.1359 -0.5556 -0.3415
 1153TIP3    H1 3416   3.249   3.567   1.981 -0.3004 -0.0870 -0.2364
 1153TIP3    H2 3417   3.268   3.671   1.873  0.3146 -0.0991 -0.1453
 1154TIP3   OH2 3418   7.368   0.750   0.093  0.0802 -0.0572  0.3810
 1154TIP3    H1 3419   7.306   0.750   0.166 -1.8399  1.3285 -1.1385
 1154TIP3    H2 3420   7.453   0.734   0.134 -0.9302  0.4871  2.8837
 1155TIP3   OH2 3421   6.937   3.918   0.226 -1.2672 -0.1021 -0.4747
 1155TIP3    H1 3422   6.916   3.892   0.136  1.2483  2.2080 -1.8891
 1155TIP3    H2 3423   7.027   3.887   0.239 -0.9290  1.2417  0.5280
 1156TIP3   OH2 3424   0.447   5.516   1.730  0.6176  0.3523  0.2522
 1156TIP3    H1 3425   0.454   5.498   1.824  1.1596 -0.5155  0.0537
 1156TIP3    H2 3426   0.481   5.606   1.721 -1.1513  1.1609  1.1113
 1157TIP3   OH2 3427   4.936   6.389   1.203 -0.1045 -0.0497 -0.1174
 1157TIP3    H1 3428   4.909   6.461   1.147  0.9708  1.8903  1.6795
 1157TIP3    H2 3429   4.855   6.344   1.226 -0.7284  0.1309 -1.8256
 1158TIP3   OH2 3430   1.040   1.210   5.939  0.2949  0.1084  0.3905
 1158TIP3    H1 3431   1.098   1.134   5.933 -1.0068 -0.8469 -0.6649
 1158TIP3    H2 3432   1.083   1.278   5.887  0.0848 -0.8698 -1.1243
 1159TIP3   OH2 3433   7.326   5.665   2.474 -0.4986  0.5643  0.4127
 1159TIP3    H1 3434   7.290   5.742   2.428 -2.2068  0.8168  2.0275
 1159TIP3    H2 3435   7.251   5.629   2.521  0.4277 -1.7381  0.2292
 1160TIP3   OH2 3436   5.393   1.422   2.779 -0.1777  0.4281 -0.3240
 1160TIP3    H1 3437   5.380   1.515   2.796  1.1233  0.6506 -0.4491
 1160TIP3    H2 3438   5.327   1.401   2.712 -1.2301  0.9721  0.4997
 1161TIP3   OH2 3439   6.519   4.568   1.589  0.1944 -0.0620  0.5469
 1161TIP3    H1 3440   6.505   4.612   1.673 -0.5760  1.1475 -0.1769
 1161TIP3    H2 3441   6.487   4.630   1.524  0.6497 -1.0290 -0.6447
 1162TIP3   OH2 3442   5.363   3.993   4.915  0.2129 -0.2018  0.1499
 1162TIP3    H1 3443   5.350   3.899   4.923 -0.0956 -0.4535 -2.5342
 1162TIP3    H2 3444   5.455   4.007   4.938  0.7728 -1.4433 -1.2559
 1163TIP3   OH2 3445   1.567   3.607   3.674 -0.1315 -0.4794 -0.2215
 1163TIP3    H1 3446   1.485   3.559   3.660  0.1648 -0.5120 -2.1322
 1163TIP3    H2 3447   1.542   3.699   3.674 -0.1927 -0.4942 -0.6815
 1164TIP3   OH2 3448   7.833   5.342   5.261 -0.0353  0.0631  0.3110
 1164TIP3    H1 3449   7.745   5.335   5.226 -0.6403  2.0663  1.2627
 1164TIP3    H2 3450   7.821   5.346   5.356  1.1293 -0.2285  0.4862
 1165TIP3   OH2 3451   0.632   5.817   0.275  0.1914  0.2597 -0.2974
 1165TIP3    H1 3452   0.608   5.739   0.324  1.6112 -1.3201 -1.9646
 1165TIP3    H2 3453   0.700   5.860   0.327  1.1011 -0.9495 -0.4491
 1166TIP3   OH2 3454   2.771   0.098   6.508  0.1178 -0.6212 -0.3292
 1166TIP3    H1 3455   2.828   0.070   6.437  1.5037 -0.9049  0.8380
 1166TIP3    H2 3456   2.817   0.172   6.548  0.6251 -1.9684  1.7442
 1167TIP3   OH2 3457   4.072   2.552   1.515  0.1440  0.1689  0.6525
 1167TIP3    H1 3458   4.118   2.599   1.446  0.1839 -0.1290  0.4753
 1167TIP3    H2 3459   4.134   2.485   1.544 -0.1460 -0.1741  0.4778
 1168TIP3   OH2 3460   1.823   3.217   2.555  0.6534 -0.1152  0.3624
 1168TIP3    H1 3461   1.813   3.257   2.641  4.3900 -1.5610  1.6976
 1168TIP3    H2 3462   1.897   3.263   2.515  1.1511 -1.6392 -0.6005
 1169TIP3   OH2 3463   5.762   3.493   6.524  0.0401  0.0495  0.2705
 1169TIP3    H1 3464   5.837   3.545   6.497 -0.3272  0.2001 -0.5051
 1169TIP3    H2 3465   5.751   3.512   6.617  0.5361  0.5620  0.2256
 1170TIP3   OH2 3466   8.236   5.004   4.333  0.6941  0.2842  0.2800
 1170TIP3    H1 3467   8.197   5.092   4.333  0.7766  0.3215  0.5138
 1170TIP3    H2 3468   8.272   4.995   4.244  0.2682  0.2965  0.1025
 1171TIP3   OH2 3469   5.513   5.556   3.882 -0.3444 -0.2695 -0.5139
 1171TIP3    H1 3470   5.529   5.647   3.858 -0.3626  0.3526  1.6481
 1171TIP3    H2 3471   5.565   5.543   3.961 -1.4843 -1.6990  0.0405
 1172TIP3   OH2 3472   5.198   0.910   0.071  0.0085 -0.1078 -0.0348
 1172TIP3    H1 3473   5.277   0.946   0.029 -1.0594  3.1136  0.4861
 1172TIP3    H2 3474   5.224   0.821   0.097  2.7084  0.0124 -1.8697
 1173TIP3   OH2 3475   5.969   2.450   1.610 -0.5933 -0.1657 -0.7307
 1173TIP3    H1 3476   5.981   2.439   1.516  0.0311  0.6127 -0.7518
 1173TIP3    H2 3477   6.008   2.536   1.630 -3.3462  1.0968 -0.2569
 1174TIP3   OH2 3478   3.265   1.385   4.253 -0.2758  0.0050  0.4114
 1174TIP3    H1 3479   3.238   1.322   4.320 -2.0415  0.3932  0.1192
 1174TIP3    H2 3480   3.248   1.341   4.170 -0.1075  0.3242  0.2068
 1175TIP3   OH2 3481   6.327   1.479   2.239 -0.4095  0.2319 -0.1135
 1175TIP3    H1 3482   6.237   1.457   2.217 -0.6339  1.1532 -0.1896
 1175TIP3    H2 3483   6.379   1.447   2.166 -0.5990 -0.8378  0.2092
 1176TIP3   OH2 3484   1.549   0.121   2.637  0.0993 -0.0587  0.5141
 1176TIP3    H1 3485   1.544   0.073   2.554 -1.4231 -0.0479  0.5727
 1176TIP3    H2 3486   1.636   0.098   2.672 -0.1836 -2.0165  0.0946
 1177TIP3   OH2 3487   3.969   4.863   2.028 -0.2505  0.0627  0.0083
 1177TIP3    H1 3488   3.913   4.915   1.970 -1.8245 -1.3941  0.1417
 1177TIP3    H2 3489   3.910   4.831   2.096  0.7187 -1.5982  0.1136
 1178TIP3   OH2 3490   6.781   3.505   1.947  0.2190  0.3074  0.0836
 1178TIP3    H1 3491   6.698   3.551   1.964  0.4278  1.1279 -0.9548
 1178TIP3    H2 3492   6.805   3.466   2.031 -1.7940 -0.9307  0.1573
 1179TIP3   OH2 3493   6.931   6.805   4.406 -0.0502 -0.0185  0.2687
 1179TIP3    H1 3494   6.935   6.897   4.378  0.1591  0.1356  0.7924
 1179TIP3    H2 3495   6.845   6.797   4.448  0.0974  0.0511  0.5912
 1180TIP3   OH2 3496   4.305   1.502   0.888 -0.6478 -0.2193 -0.1747
 1180TIP3    H1 3497   4.343   1.516   0.801 -0.4267  0.3417  0.0106
 1180TIP3    H2 3498   4.212   1.487   0.871 -0.4118 -1.3524 -0.6092
 1181TIP3   OH2 3499   0.267   3.344   3.272  0.5488 -0.7149 -0.3015
 1181TIP3    H1 3500   0.287   3.281   3.203  1.2615 -0.2485 -0.5242
 1181TIP3    H2 3501   0.347   3.348   3.325 -0.2076 -1.5730  0.9696
 1182TIP3   OH2 3502   3.162   2.172   6.655  0.2243 -0.9728 -0.5472
 1182TIP3    H1 3503   3.116   2.134   6.580  2.1320 -1.0264 -1.7700
 1182TIP3    H2 3504   3.179   2.262   6.630 -1.8881  0.0186  1.2213
 1183TIP3   OH2 3505   0.354   2.358   0.200 -0.1784 -0.1090  0.2763
 1183TIP3    H1 3506   0.269   2.399   0.183 -0.7082 -1.0417  0.5813
 1183TIP3    H2 3507   0.336   2.264   0.194  0.7031 -0.3296  0.9556
 1184TIP3   OH2 3508   6.283   1.769   2.051  0.3808 -0.1129 -0.3238
 1184TIP3    H1 3509   6.318   1.835   2.111  0.5766 -1.7207  1.4506
 1184TIP3    H2 3510   6.192   1.757   2.079  0.2882 -0.4450 -0.7565
 1185TIP3   OH2 3511   1.832   0.644   2.738 -0.0242 -0.5044  0.2015
 1185TIP3    H1 3512   1.813   0.570   2.796  1.8659 -4.1621 -3.3852
 1185TIP3    H2 3513   1.927   0.651   2.739 -0.0751  0.6679 -0.9957
 1186TIP3   OH2 3514   4.718   6.603   3.833  0.3279 -0.0578  0.1849
 1186TIP3    H1 3515   4.714   6.630   3.741 -0.4785  1.2935  0.5991
 1186TIP3    H2 3516   4.724   6.684   3.882  1.5570 -0.7930  1.3199
 1187TIP3   OH2 3517   4.873   2.856   4.232  0.6724 -0.1619 -0.2478
 1187TIP3    H1 3518   4.885   2.771   4.275 -0.0399  0.5899  1.5367
 1187TIP3    H2 3519   4.959   2.877   4.197  0.9501 -1.4510 -0.4086
 1188TIP3   OH2 3520   4.288   5.690   3.776 -0.6417 -0.3621  0.1509
 1188TIP3    H1 3521   4.347   5.734   3.715 -1.1798  0.3822  0.1611
 1188TIP3    H2 3522   4.332   5.697   3.861 -0.7088  0.1265  0.1476
 1189TIP3   OH2 3523   1.532   1.600   1.496  0.1348  0.4254  0.0951
 1189TIP3    H1 3524   1.536   1.553   1.578  0.2363  0.7291  0.2665
 1189TIP3    H2 3525   1.489   1.540   1.435  0.1473  0.1666  0.3448
 1190TIP3   OH2 3526   5.136   4.018   4.463  0.0044  0.5695  0.0863
 1190TIP3    H1 3527   5.092   3.974   4.536 -3.0362  1.6578 -0.9381
 1190TIP3    H2 3528   5.188   3.949   4.422 -0.2515 -0.6770  1.7536
 1191TIP3   OH2 3529   0.092   1.939   4.452 -0.2449 -0.3550  0.5528
 1191TIP3    H1 3530   0.058   1.858   4.413  0.8530 -0.9065  0.7105
 1191TIP3    H2 3531   0.017   1.977   4.498 -0.4911 -1.8678  1.4307
 1192TIP3   OH2 3532   7.375   0.296   2.618 -0.0911 -0.3243  0.2034
 1192TIP3    H1 3533   7.322   0.309   2.696  0.1839 -0.3325  0.3924
 1192TIP3    H2 3534   7.437   0.369   2.617  0.3831 -0.7134  0.3898
 1193TIP3   OH2 3535   1.510   3.585   4.702  0.1044  0.2587 -0.5271
 1193TIP3    H1 3536   1.558   3.512   4.740  1.1600 -0.2158 -2.6391
 1193TIP3    H2 3537   1.577   3.653   4.688 -0.5993  1.1015  0.1179
 1194TIP3   OH2 3538   0.065   6.609   4.559 -0.1063  0.5858  0.2935
 1194TIP3    H1 3539   0.102   6.697   4.548 -1.0061  0.9692  0.2614
 1194TIP3    H2 3540   0.015   6.593   4.480 -0.9454  0.5468  0.8198
 1195TIP3   OH2 3541   6.665   5.274   3.522  0.0209 -0.1017 -0.7566
 1195TIP3    H1 3542   6.598   5.217   3.559  0.0005  0.1060 -0.4695
 1195TIP3    H2 3543   6.674   5.345   3.586  1.4566 -0.8037 -0.1334
 1196TIP3   OH2 3544   2.090   5.559   2.381 -0.8538  0.0810  0.2451
 1196TIP3    H1 3545   2.160   5.523   2.436 -0.3880  1.8622  0.8920
 1196TIP3    H2 3546   2.040   5.483   2.353 -0.7889 -0.9632  2.7291
 1197TIP3   OH2 3547   5.394   5.864   4.920  0.2817  0.4312  0.2556
 1197TIP3    H1 3548   5.351   5.788   4.881 -0.4474  1.4583 -1.0384
 1197TIP3    H2 3549   5.472   5.878   4.866  0.1997  0.8260  0.2328
 1198TIP3   OH2 3550   6.367   2.500   5.622 -0.4331 -0.8464 -0.2938
 1198TIP3    H1 3551   6.455   2.524   5.592 -0.5211  0.9623  0.7328
 1198TIP3    H2 3552   6.313   2.505   5.543  0.0230  0.1557 -0.5690
 1199TIP3   OH2 3553   2.329   3.533   4.042 -0.2557 -0.6475 -0.4267
 1199TIP3    H1 3554   2.288   3.454   4.007  0.0313 -0.8312 -0.3412
 1199TIP3    H2 3555   2.349   3.586   3.964  0.3742 -1.0525 -0.5466
 1200TIP3   OH2 3556   0.189   1.102   3.859 -0.4346 -0.1431  0.1241
 1200TIP3    H1 3557   0.134   1.164   3.907 -0.8118 -1.1854  1.0783
 1200TIP3    H2 3558   0.247   1.065   3.925 -1.4867 -2.1837 -0.0107
 1201TIP3   OH2 3559   3.996   1.126   0.126  0.0228  0.5764  0.3238
 1201TIP3    H1 3560   4.013   1.128   0.032 -0.3609  0.7668  0.2564
 1201TIP3    H2 3561   4.062   1.066   0.161 -1.1626 -1.1863 -0.3285
 1202TIP3   OH2 3562   4.534   0.788   0.223 -0.0827 -0.7181  0.1896
 1202TIP3    H1 3563   4.590   0.815   0.151  1.4267 -2.0719  0.8151
 1202TIP3    H2 3564   4.540   0.693   0.224 -1.3349 -0.8074  1.1285
 1203TIP3   OH2 3565   6.577   6.818   1.988 -0.0417  0.0180 -0.0513
 1203TIP3    H1 3566   6.513   6.762   1.945 -1.0116 -1.1185  2.6642
 1203TIP3    H2 3567   6.656   6.765   1.993  0.5238  0.6707 -1.5920
 1204TIP3   OH2 3568   8.289   1.725   4.342  0.1506  0.0959 -0.1405
 1204TIP3    H1 3569   8.213   1.779   4.320 -0.4290 -0.9779 -0.8622
 1204TIP3    H2 3570   8.262   1.677   4.421  0.2724  0.1045 -0.0943
 1205TIP3   OH2 3571   0.026   4.191   1.293 -0.1659 -0.1540 -0.7767
 1205TIP3    H1 3572  -0.005   4.117   1.242 -0.9260 -0.4602  0.1010
 1205TIP3    H2 3573   0.037   4.262   1.230 -0.7606 -0.6194 -1.4040
 1206TIP3   OH2 3574   6.841   2.719   2.784 -0.1388 -0.1283 -0.0369
 1206TIP3    H1 3575   6.906   2.663   2.742  0.2208  0.7202 -0.6430
 1206TIP3    H2 3576   6.756   2.683   2.756  0.0874  0.7506 -1.9912
 1207TIP3   OH2 3577   5.320   4.622   4.526  0.1028  0.0539 -0.4605
 1207TIP3    H1 3578   5.375   4.597   4.452  0.1602  0.9783 -0.7448
 1207TIP3    H2 3579   5.281   4.705   4.500 -0.4440  0.0318  0.2564
 1208TIP3   OH2 3580   8.110   3.301   5.042 -0.3772  0.2544 -0.2930
 1208TIP3    H1 3581   8.046   3.360   5.083  0.2316 -0.2841  1.4978
 1208TIP3    H2 3582   8.098   3.217   5.086 -1.5939 -1.2120 -3.1671
 1209TIP3   OH2 3583   7.766   7.131   6.141 -0.2863  0.7557  0.0868
 1209TIP3    H1 3584   7.826   7.157   6.210 -0.6386  0.2719  0.5852
 1209TIP3    H2 3585   7.809   7.057   6.098  0.0936  1.2803 -0.4465
 1210TIP3   OH2 3586   5.102   1.718   3.089 -0.0620 -0.3077  0.6810
 1210TIP3    H1 3587   5.150   1.666   3.024 -1.8009  0.5921 -1.4886
 1210TIP3    H2 3588   5.038   1.657   3.125  1.5392 -1.0707  2.3576
 1211TIP3   OH2 3589   1.878   1.100   6.481 -0.7238  0.3467  0.1425
 1211TIP3    H1 3590   1.884   1.065   6.570  0.7322 -0.3845 -0.2110
 1211TIP3    H2 3591   1.928   1.182   6.484  1.1814 -0.7166 -0.4404
 1212TIP3   OH2 3592   3.167   4.718   6.506 -0.0055 -0.3918 -0.4338
 1212TIP3    H1 3593   3.126   4.787   6.453 -2.2026 -0.0946  1.5031
 1212TIP3    H2 3594   3.219   4.668   6.443  1.4266  2.7592 -1.9793
 1213TIP3   OH2 3595   2.619   3.728   1.087 -0.6639 -0.1584  0.6289
 1213TIP3    H1 3596   2.685   3.706   1.153 -0.8861  0.1620  0.9600
 1213TIP3    H2 3597   2.535   3.710   1.130 -0.8006 -0.4414  0.2545
 1214TIP3   OH2 3598   4.449   2.801   4.542  0.0246  0.3676  0.8623
 1214TIP3    H1 3599   4.372   2.856   4.522 -0.9671 -1.3317 -0.2173
 1214TIP3    H2 3600   4.509   2.818   4.470 -0.2954  0.0173  0.5104
 1215TIP3   OH2 3601   3.312   6.456   4.845  0.0948  0.4250 -0.6944
 1215TIP3    H1 3602   3.256   6.397   4.794 -4.0045  3.3756 -0.0652
 1215TIP3    H2 3603   3.324   6.411   4.929  0.5178 -1.1613 -1.5528
 1216TIP3   OH2 3604   3.337   3.536   3.985  0.1425 -0.7759  0.0378
 1216TIP3    H1 3605   3.340   3.591   4.063  0.8286 -3.1516  1.8027
 1216TIP3    H2 3606   3.413   3.478   3.993  1.2434 -0.0398 -3.3132
 1217TIP3   OH2 3607   8.210   7.254   1.960 -0.6077 -0.2365 -0.9271
 1217TIP3    H1 3608   8.251   7.176   1.995  1.0033  1.5026  1.2994
 1217TIP3    H2 3609   8.139   7.274   2.021  1.6869  2.3385  1.1267
 1218TIP3   OH2 3610   4.352   3.963   6.219 -0.2298  0.2580  0.0911
 1218TIP3    H1 3611   4.432   3.977   6.270 -0.0602 -1.8222  0.4857
 1218TIP3    H2 3612   4.286   4.017   6.262  0.5823  0.7055  0.7936
 1219TIP3   OH2 3613   5.166   6.141   4.389  0.1896  0.6256 -0.2659
 1219TIP3    H1 3614   5.207   6.172   4.309 -0.6405  2.6482  0.0330
 1219TIP3    H2 3615   5.122   6.060   4.364  2.5399 -0.5039 -1.0648
 1220TIP3   OH2 3616   2.854   1.153   4.353 -0.3523 -0.4371 -0.2129
 1220TIP3    H1 3617   2.861   1.245   4.380  0.3211 -0.6532  0.3853
 1220TIP3    H2 3618   2.892   1.104   4.426  1.5837 -1.0433 -1.5487
 1221TIP3   OH2 3619   7.431   5.121   6.018  0.0881 -0.0543  0.4407
 1221TIP3    H1 3620   7.501   5.186   6.022  0.5646 -0.5813  0.8312
 1221TIP3    H2 3621   7.388   5.137   5.934  1.6450 -0.7011 -0.5187
 1222TIP3   OH2 3622   4.114   4.568   1.093 -0.2331  0.3552 -0.6382
 1222TIP3    H1 3623   4.157   4.610   1.167 -1.4318  0.3570  0.0773
 1222TIP3    H2 3624   4.130   4.475   1.105  1.3162  0.4683 -1.5212
 1223TIP3   OH2 3625   1.784   4.837   1.349 -0.5008  0.2679 -0.0792
 1223TIP3    H1 3626   1.867   4.876   1.374 -0.7338  1.1776 -0.6468
 1223TIP3    H2 3627   1.724   4.860   1.420 -1.4496  3.8113 -1.7588
 1224TIP3   OH2 3628   4.327   2.919   3.484 -0.7198 -0.2827 -0.5025
 1224TIP3    H1 3629   4.358   2.834   3.515 -0.2632  0.4403  1.1428
 1224TIP3    H2 3630   4.354   2.981   3.552  0.1810  1.4168 -2.2809
 1225TIP3   OH2 3631   4.783   4.187   4.586 -0.5989  0.1153 -0.4978
 1225TIP3    H1 3632   4.742   4.107   4.618  0.0907 -0.0642 -0.0409
 1225TIP3    H2 3633   4.823   4.162   4.502 -4.1189  1.0606 -2.6740
 1226TIP3   OH2 3634   1.393   5.608   1.539  0.4378  0.4470  0.1130
 1226TIP3    H1 3635   1.462   5.618   1.473  0.2892  1.4719  0.0861
 1226TIP3    H2 3636   1.326   5.556   1.496 -0.4267  2.5139 -1.2049
 1227TIP3   OH2 3637   7.808   3.892   5.889 -0.0109  0.1170 -0.0001
 1227TIP3    H1 3638   7.739   3.949   5.924 -0.3576 -0.0331 -0.4374
 1227TIP3    H2 3639   7.888   3.945   5.895 -0.6193  1.4114 -2.1737
 1228TIP3   OH2 3640   6.272   3.519   4.195 -0.1848  0.1821 -0.0056
 1228TIP3    H1 3641   6.254   3.608   4.225  0.2048 -0.0228  0.8674
 1228TIP3    H2 3642   6.211   3.465   4.245 -1.0837  0.0427 -1.2305
 1229TIP3   OH2 3643   3.787   2.658   1.044  0.2252  0.6259  0.5832
 1229TIP3    H1 3644   3.864   2.612   1.078  0.0699 -0.7934 -0.8411
 1229TIP3    H2 3645   3.765   2.610   0.963 -1.6356  1.5305  0.5082
 1230TIP3   OH2 3646   6.158   2.975   4.803  0.3300  0.0698  0.4111
 1230TIP3    H1 3647   6.111   2.931   4.874 -0.3872  1.6419  0.9451
 1230TIP3    H2 3648   6.095   3.037   4.767  0.8864 -0.2762 -1.2268
 1231TIP3   OH2 3649   5.972   7.513   3.207  0.0379 -0.4334  0.2709
 1231TIP3    H1 3650   6.045   7.451   3.207 -0.0475 -0.6311  2.8429
 1231TIP3    H2 3651   5.990   7.571   3.133  0.0676 -3.4871 -2.3847
 1232TIP3   OH2 3652   3.089   3.174   1.921  0.0923 -0.2635 -0.3396
 1232TIP3    H1 3653   2.996   3.187   1.940 -0.4137 -0.5748 -2.4114
 1232TIP3    H2 3654   3.130   3.162   2.007 -1.5252  1.3420  0.7307
 1233TIP3   OH2 3655   7.527   7.727   5.066 -0.2342  0.3247  0.2598
 1233TIP3    H1 3656   7.607   7.745   5.116 -0.9842  0.7274  1.3689
 1233TIP3    H2 3657   7.506   7.809   5.023 -0.8111  0.6480  1.1243
 1234TIP3   OH2 3658   4.636   6.871   6.499  0.4471 -0.7285 -0.4266
 1234TIP3    H1 3659   4.723   6.872   6.461  0.3758  3.3781 -0.8342
 1234TIP3    H2 3660   4.577   6.876   6.423  0.0131  0.1963 -0.0321
 1235TIP3   OH2 3661   3.540   6.698   6.018  0.4683 -0.1893  0.5505
 1235TIP3    H1 3662   3.468   6.749   5.981  1.2641 -0.0912 -0.9500
 1235TIP3    H2 3663   3.617   6.753   6.007  1.3281 -1.5969 -0.9677
 1236TIP3   OH2 3664   6.603   2.274   2.773  0.0491 -0.5865  0.6018
 1236TIP3    H1 3665   6.687   2.250   2.732 -0.4723 -0.7039 -0.4314
 1236TIP3    H2 3666   6.613   2.366   2.795 -0.9030  0.5760 -3.1739
 1237TIP3   OH2 3667   0.401   4.782   5.837 -0.6535  0.0433 -0.2121
 1237TIP3    H1 3668   0.471   4.821   5.784  0.8235 -0.2105  1.4569
 1237TIP3    H2 3669   0.347   4.856   5.864 -1.1525  0.2308 -1.5962
 1238TIP3   OH2 3670   2.445   2.579   0.167  0.0814 -0.5549 -1.0895
 1238TIP3    H1 3671   2.539   2.584   0.147  0.5938 -1.2945  0.8520
 1238TIP3    H2 3672   2.435   2.634   0.245 -0.9891 -0.9624 -0.9316
 1239TIP3   OH2 3673   0.752   6.863   2.942  0.0013 -0.2166 -0.1547
 1239TIP3    H1 3674   0.776   6.946   2.983  1.5778 -0.4390 -0.5574
 1239TIP3    H2 3675   0.830   6.837   2.894 -0.8567 -1.3822 -0.9599
 1240TIP3   OH2 3676   3.766   0.906   1.201 -0.2571  0.5597 -0.2750
 1240TIP3    H1 3677   3.716   0.845   1.147  1.3747 -2.3728  1.2742
 1240TIP3    H2 3678   3.717   0.912   1.283 -1.1063  2.5603 -0.8444
 1241TIP3   OH2 3679   7.636   0.524   4.856  0.0544 -0.0446  0.0226
 1241TIP3    H1 3680   7.623   0.511   4.762 -1.5655  2.2174 -0.1393
 1241TIP3    H2 3681   7.549   0.510   4.894  0.5616 -0.3238  1.1202
 1242TIP3   OH2 3682   2.552   7.310   5.265  0.8024 -0.1528  0.6527
 1242TIP3    H1 3683   2.486   7.362   5.311  0.3295 -0.9222  0.8766
 1242TIP3    H2 3684   2.593   7.371   5.203  0.9507  0.7165  1.5910
 1243TIP3   OH2 3685   2.512   1.286   2.364 -0.0029 -0.0713  0.7868
 1243TIP3    H1 3686   2.586   1.254   2.416  0.3703  2.0230  1.6605
 1243TIP3    H2 3687   2.447   1.314   2.429 -0.3197  0.8657  0.0959
 1244TIP3   OH2 3688   7.067   4.923   1.714 -0.0853 -0.1478  0.2632
 1244TIP3    H1 3689   6.976   4.936   1.688 -0.6465 -0.2559  2.0283
 1244TIP3    H2 3690   7.074   4.829   1.729  0.5395 -0.2450 -0.6254
 1245TIP3   OH2 3691   7.684   2.608   4.886  0.0516 -0.4228 -0.1288
 1245TIP3    H1 3692   7.595   2.573   4.880  0.4031 -1.1542 -1.4555
 1245TIP3    H2 3693   7.673   2.703   4.877 -0.6462 -0.4484  0.3821
 1246TIP3   OH2 3694   3.650   4.967   6.686  0.1117  0.5062  0.3639
 1246TIP3    H1 3695   3.746   4.961   6.684  0.0883  0.2734 -0.2629
 1246TIP3    H2 3696   3.621   4.902   6.624 -0.4185  1.4757 -0.4304
 1247TIP3   OH2 3697   0.460   7.015   5.297 -0.2897 -0.5518  0.6424
 1247TIP3    H1 3698   0.527   6.965   5.344 -1.4050 -1.7482  0.9873
 1247TIP3    H2 3699   0.496   7.026   5.209 -0.1354 -2.2052  0.4772
 1248TIP3   OH2 3700   1.645   4.808   1.107  0.2010 -0.5599  0.1769
 1248TIP3    H1 3701   1.567   4.756   1.128 -0.4692  0.1741 -0.4212
 1248TIP3    H2 3702   1.695   4.811   1.188 -0.3602 -1.1102  0.5459
 1249TIP3   OH2 3703   4.773   4.271   1.015 -0.0911 -0.3826  0.4062
 1249TIP3    H1 3704   4.782   4.214   1.091  0.2975 -0.7953  0.0545
 1249TIP3    H2 3705   4.831   4.233   0.949 -1.9507 -1.2334 -0.8151
 1250TIP3   OH2 3706   5.110   1.056   4.584 -0.0298  0.4270  0.2182
 1250TIP3    H1 3707   5.026   1.096   4.605 -0.5987 -0.6110 -0.0094
 1250TIP3    H2 3708   5.106   0.970   4.626  1.0971  0.5212  0.5672
 1251TIP3   OH2 3709   6.774   2.979   0.516  0.3951 -0.2459  0.2667
 1251TIP3    H1 3710   6.681   2.962   0.499 -0.5977  2.3351  2.3179
 1251TIP3    H2 3711   6.807   3.018   0.435 -0.4537 -0.7455 -0.3312
 1252TIP3   OH2 3712   8.250   2.390   5.651  0.1004 -0.0708  0.2042
 1252TIP3    H1 3713   8.330   2.442   5.652 -1.5487  2.6128  0.5983
 1252TIP3    H2 3714   8.234   2.368   5.742  0.6971 -1.2456  0.0571
 1253TIP3   OH2 3715   6.836   2.160   0.606  0.3810  0.0513 -0.0268
 1253TIP3    H1 3716   6.810   2.068   0.600  2.2291 -0.4425 -2.1811
 1253TIP3    H2 3717   6.843   2.177   0.700  0.2830 -2.1019  0.4322
 1254TIP3   OH2 3718   0.702   7.615   3.495  0.2043  0.3498  0.4638
 1254TIP3    H1 3719   0.632   7.613   3.429  0.3939 -1.4128  0.2552
 1254TIP3    H2 3720   0.656   7.630   3.578 -0.4378 -0.7022  0.3233
 1255TIP3   OH2 3721   6.656   6.775   4.356  0.2288  0.0421  0.0390
 1255TIP3    H1 3722   6.604   6.701   4.387  0.1282 -0.1247 -0.5070
 1255TIP3    H2 3723   6.663   6.760   4.261  2.4433 -0.7047  0.2708
 1256TIP3   OH2 3724   3.095   2.221   5.242 -0.6797 -0.0415 -0.1170
 1256TIP3    H1 3725   3.099   2.155   5.312  1.7448 -1.0738 -1.1213
 1256TIP3    H2 3726   3.125   2.174   5.164  0.4704  2.0780 -1.0169
 1257TIP3   OH2 3727   4.123   6.167   2.774  0.0335  0.5696 -0.2495
 1257TIP3    H1 3728   4.154   6.111   2.703  0.2291  0.9733 -0.4882
 1257TIP3    H2 3729   4.190   6.161   2.842 -0.8646 -0.9946  0.5464
 1258TIP3   OH2 3730   4.025   5.476   6.337 -1.1576 -0.1707  0.1384
 1258TIP3    H1 3731   4.048   5.512   6.423  0.4702 -0.1717 -0.2703
 1258TIP3    H2 3732   3.995   5.552   6.287  0.0970  0.2677  0.0044
 1259TIP3   OH2 3733   2.105   6.318   3.100 -0.1146 -0.4192  0.4335
 1259TIP3    H1 3734   2.154   6.396   3.127 -2.5858  1.1875  0.5790
 1259TIP3    H2 3735   2.172   6.250   3.093  1.8871  1.1944  2.1878
 1260TIP3   OH2 3736   1.850   5.859   4.352  0.7352 -0.2177 -0.7653
 1260TIP3    H1 3737   1.905   5.849   4.430  2.4175 -0.8959 -2.0034
 1260TIP3    H2 3738   1.764   5.882   4.388  1.8093  1.0417  1.2328
 1261TIP3   OH2 3739   3.383   6.619   3.646 -0.4117 -0.0096 -0.1374
 1261TIP3    H1 3740   3.393   6.689   3.711 -1.9199  1.6086 -1.5487
 1261TIP3    H2 3741   3.423   6.542   3.687  1.1059  1.6018  1.5829
 1262TIP3   OH2 3742   0.279   5.980   2.009  0.2978 -0.5988  0.8337
 1262TIP3    H1 3743   0.302   5.924   2.083  0.6288 -2.0937 -0.3605
 1262TIP3    H2 3744   0.193   5.949   1.980  1.3065 -1.8304 -1.0220
 1263TIP3   OH2 3745   3.977   7.268   0.907  0.2398 -0.3890 -0.0765
 1263TIP3    H1 3746   3.910   7.200   0.914  0.4365 -0.4657  1.2724
 1263TIP3    H2 3747   4.059   7.220   0.898  0.4510 -0.3659  1.5268
 1264TIP3   OH2 3748   2.454   6.040   3.564  0.3801 -0.2744  0.3615
 1264TIP3    H1 3749   2.532   5.995   3.597  1.2391  0.1201 -1.0262
 1264TIP3    H2 3750   2.436   5.999   3.480 -0.0689  0.5759  0.0282
 1265TIP3   OH2 3751   7.417   6.646   5.703 -0.1097 -0.0275  0.0197
 1265TIP3    H1 3752   7.406   6.659   5.609  1.1603 -1.4044 -0.3639
 1265TIP3    H2 3753   7.354   6.706   5.743 -0.4255  0.8554 -1.6872
 1266TIP3   OH2 3754   6.177   5.176   6.335  0.2456  0.4106 -0.4869
 1266TIP3    H1 3755   6.191   5.091   6.377 -0.3064  0.0308 -1.0405
 1266TIP3    H2 3756   6.255   5.227   6.356  0.6897 -0.3191 -0.3372
 1267TIP3   OH2 3757   1.717   7.708   1.010 -0.0572 -0.4395  0.0631
 1267TIP3    H1 3758   1.739   7.680   1.099  0.2185 -1.4066 -0.2950
 1267TIP3    H2 3759   1.692   7.800   1.019 -0.0811 -0.5421  1.1446
 1268TIP3   OH2 3760   0.223   4.108   4.350  0.0414  0.0481  0.4565
 1268TIP3    H1 3761   0.172   4.033   4.382 -0.9590  0.3320 -0.3898
 1268TIP3    H2 3762   0.189   4.123   4.261  2.0515 -0.1199 -0.3888
 1269TIP3   OH2 3763   4.660   3.682   6.265  0.1607 -0.4506 -0.0770
 1269TIP3    H1 3764   4.672   3.587   6.270  0.8221 -0.3729 -0.1992
 1269TIP3    H2 3765   4.565   3.693   6.258  0.0482 -1.0856  0.3218
 1270TIP3   OH2 3766   2.785   7.638   1.047  0.3721 -0.1304 -0.7093
 1270TIP3    H1 3767   2.749   7.683   0.971 -0.9872 -1.0420 -0.6603
 1270TIP3    H2 3768   2.788   7.705   1.116  0.8493  0.4992 -1.3300
 1271TIP3   OH2 3769   2.384   0.387   6.362  0.6306  0.3357 -0.2477
 1271TIP3    H1 3770   2.411   0.465   6.411  0.3907  0.4526 -0.2971
 1271TIP3    H2 3771   2.304   0.358   6.405 -2.0701  2.9031 -3.0274
 1272TIP3   OH2 3772   1.679   1.791   1.400 -0.1109 -0.0919  0.5637
 1272TIP3    H1 3773   1.738   1.831   1.463  1.4933 -1.4050 -0.0437
 1272TIP3    H2 3774   1.656   1.707   1.440 -0.6680 -0.0845  0.2691
 1273TIP3   OH2 3775   0.268   0.648   0.936 -0.2517  0.5999 -0.0679
 1273TIP3    H1 3776   0.253   0.675   1.026 -0.3988 -1.4956  0.5868
 1273TIP3    H2 3777   0.309   0.723   0.894  2.4084  0.7034  2.4749
 1274TIP3   OH2 3778   1.793   3.033   2.823 -0.1497 -0.4353  0.1754
 1274TIP3    H1 3779   1.835   3.116   2.798 -0.1930 -0.5650 -0.3424
 1274TIP3    H2 3780   1.796   3.032   2.919  0.0798  0.0474  0.1747
 1275TIP3   OH2 3781   4.445   3.444   5.258  0.1488 -0.6062  0.0518
 1275TIP3    H1 3782   4.361   3.436   5.214 -0.2398 -0.1282  0.6889
 1275TIP3    H2 3783   4.423   3.448   5.351  0.8233  0.1464  0.1933
 1276TIP3   OH2 3784   7.004   1.216   4.355 -0.2887 -0.2429  0.4832
 1276TIP3    H1 3785   6.909   1.229   4.359 -0.2779  0.2764 -0.6674
 1276TIP3    H2 3786   7.021   1.150   4.422 -1.4766 -0.4381  0.6266
 1277TIP3   OH2 3787   7.234   4.448   0.605  0.0427  0.5595 -0.6943
 1277TIP3    H1 3788   7.238   4.470   0.512 -2.2980  0.5470 -0.8367
 1277TIP3    H2 3789   7.198   4.526   0.647 -0.5144 -0.0421 -0.0403
 1278TIP3   OH2 3790   7.638   2.620   6.333  0.1606 -0.7713 -0.4684
 1278TIP3    H1 3791   7.671   2.673   6.406 -1.2832  1.5193 -1.3720
 1278TIP3    H2 3792   7.572   2.563   6.372  2.7723 -3.1694  0.7915
 1279TIP3   OH2 3793   6.321   5.383   3.586 -0.0023 -0.4532 -0.3609
 1279TIP3    H1 3794   6.240   5.349   3.624 -0.3850 -0.6888 -1.3602
 1279TIP3    H2 3795   6.324   5.345   3.498  1.9719 -1.6802  0.1733
 1280TIP3   OH2 3796   1.336   4.123   2.121  0.7624  0.0812 -0.1467
 1280TIP3    H1 3797   1.304   4.161   2.202 -1.3141 -0.4663 -0.6383
 1280TIP3    H2 3798   1.291   4.038   2.115  0.0341  0.5519 -2.3497
 1281TIP3   OH2 3799   1.761   6.640   2.164  0.1648 -0.1711 -0.4122
 1281TIP3    H1 3800   1.833   6.681   2.211  0.0901 -1.1728  0.6238
 1281TIP3    H2 3801   1.724   6.577   2.226  1.6522 -3.4250 -2.5307
 1282TIP3   OH2 3802   4.580   0.667   3.143 -0.3146  1.1229 -0.3321
 1282TIP3    H1 3803   4.511   0.655   3.208 -0.1411  1.5102 -0.0750
 1282TIP3    H2 3804   4.563   0.753   3.105 -1.1746  0.3781 -1.7206
 1283TIP3   OH2 3805   3.659   1.925   0.942 -0.9407  0.2994  0.4741
 1283TIP3    H1 3806   3.753   1.909   0.944 -1.1093 -0.6898  1.3066
 1283TIP3    H2 3807   3.620   1.841   0.966 -2.0928  0.2407 -1.4157
 1284TIP3   OH2 3808   5.293   1.265   1.790  0.2431  0.4430 -0.4558
 1284TIP3    H1 3809   5.238   1.213   1.731 -2.3342  1.0012  1.3232
 1284TIP3    H2 3810   5.335   1.200   1.847  0.3785  0.1007 -0.9296
 1285TIP3   OH2 3811   6.285   2.864   4.373 -0.0781  0.1067  0.4774
 1285TIP3    H1 3812   6.289   2.839   4.465  1.1423  1.4046  0.8074
 1285TIP3    H2 3813   6.377   2.866   4.344 -0.2443  2.1505 -0.0547
 1286TIP3   OH2 3814   4.146   4.159   6.361  1.0125 -0.0975 -0.2842
 1286TIP3    H1 3815   4.144   4.255   6.364  1.9338  0.1278 -3.2732
 1286TIP3    H2 3816   4.054   4.133   6.358  0.7578  0.8364 -1.1678
 1287TIP3   OH2 3817   3.821   2.334   6.564 -0.9105  0.0794  0.0572
 1287TIP3    H1 3818   3.821   2.287   6.647 -0.1212 -0.7887 -0.4150
 1287TIP3    H2 3819   3.800   2.268   6.499 -0.3681  0.4964 -0.5625
 1288TIP3   OH2 3820   1.554   3.486   0.829  0.2142  0.3345  0.0604
 1288TIP3    H1 3821   1.518   3.402   0.799  2.0779 -0.6440  0.4512
 1288TIP3    H2 3822   1.525   3.492   0.920  0.4265 -0.0987  0.1608
 1289TIP3   OH2 3823   5.588   0.961   2.335 -0.0888  0.6394  0.5235
 1289TIP3    H1 3824   5.551   1.034   2.285 -0.6573  1.7265  2.4416
 1289TIP3    H2 3825   5.673   0.945   2.295 -0.6317  1.2819 -0.9548
 1290TIP3   OH2 3826   1.091   5.436   5.482 -0.7028 -0.1364  0.3237
 1290TIP3    H1 3827   1.089   5.483   5.566  2.4091 -0.6556  0.8126
 1290TIP3    H2 3828   1.155   5.484   5.429 -0.8039 -1.2477 -0.8530
 1291TIP3   OH2 3829   5.852   4.942   4.922 -0.0540  0.1876 -0.1182
 1291TIP3    H1 3830   5.842   4.860   4.971 -0.4143 -0.5169 -1.3227
 1291TIP3    H2 3831   5.947   4.956   4.917  0.0515 -0.6484 -0.6565
 1292TIP3   OH2 3832   0.452   6.701   2.634  0.1995  0.4210  0.1826
 1292TIP3    H1 3833   0.390   6.639   2.595 -1.4016  0.1374  2.9253
 1292TIP3    H2 3834   0.538   6.664   2.614 -0.5046 -0.1433 -2.1926
 1293TIP3   OH2 3835   0.618   3.672   4.487 -0.7952  0.3973 -0.5709
 1293TIP3    H1 3836   0.671   3.747   4.456 -0.6291  0.7819  0.5958
 1293TIP3    H2 3837   0.635   3.668   4.581  0.9831 -2.5180 -0.8982
 1294TIP3   OH2 3838   3.643   2.656   3.479  0.8683  0.1286 -0.2006
 1294TIP3    H1 3839   3.572   2.715   3.453  0.1271 -0.3230  0.7279
 1294TIP3    H2 3840   3.698   2.709   3.537 -0.1829 -0.2637  1.1983
 1295TIP3   OH2 3841   0.463   4.306   3.390  0.1660  0.3284  0.3260
 1295TIP3    H1 3842   0.521   4.320   3.315 -0.8433  0.1573 -0.5047
 1295TIP3    H2 3843   0.435   4.215   3.382  1.8170 -0.4219  2.2173
 1296TIP3   OH2 3844   5.220   3.340   1.524 -0.0895  0.2741 -0.5664
 1296TIP3    H1 3845   5.268   3.294   1.456  0.1537  0.4221 -0.4955
 1296TIP3    H2 3846   5.288   3.381   1.578 -0.3032  0.7348 -0.6426
 1297TIP3   OH2 3847   5.154   3.004   5.359 -0.2427 -0.0643  0.4887
 1297TIP3    H1 3848   5.078   3.061   5.357  0.3057  0.6675  0.3183
 1297TIP3    H2 3849   5.218   3.047   5.303 -1.1452 -2.7717 -3.0024
 1298TIP3   OH2 3850   7.435   3.618   6.035 -0.2441 -0.0688 -0.7020
 1298TIP3    H1 3851   7.440   3.640   5.942  0.9973 -1.2824 -0.9581
 1298TIP3    H2 3852   7.519   3.643   6.070  0.3818 -2.1552 -0.5402
 1299TIP3   OH2 3853   2.799   3.421   2.456  0.6556 -0.3491 -0.0176
 1299TIP3    H1 3854   2.779   3.375   2.375  0.3276 -0.6774  0.2483
 1299TIP3    H2 3855   2.852   3.495   2.429  0.3085 -0.2969 -0.5677
 1300TIP3   OH2 3856   3.039   2.878   0.166 -0.2298  0.0924  0.2838
 1300TIP3    H1 3857   2.972   2.894   0.100 -0.2580 -0.7050  0.1046
 1300TIP3    H2 3858   3.009   2.926   0.243  0.5247  2.2378 -0.6877
 1301TIP3   OH2 3859   3.846   4.563   0.603  0.0584  0.4700 -0.6930
 1301TIP3    H1 3860   3.764   4.594   0.642 -0.6552 -1.1225 -0.8745
 1301TIP3    H2 3861   3.892   4.519   0.674  0.3440  0.5536 -0.8240
 1302TIP3   OH2 3862   5.573   4.375   1.148  0.0957 -0.7111  0.1566
 1302TIP3    H1 3863   5.551   4.354   1.057  0.5846 -0.2063 -0.0834
 1302TIP3    H2 3864   5.662   4.342   1.159  0.6484  0.6463 -0.0416
 1303TIP3   OH2 3865   1.216   0.968   5.571 -0.6077  0.1842  0.0916
 1303TIP3    H1 3866   1.290   1.028   5.562  0.3059 -0.8164  0.7119
 1303TIP3    H2 3867   1.230   0.903   5.502 -0.4282 -0.4824  0.7412
 1304TIP3   OH2 3868   1.063   3.962   5.726  0.2991  0.1330 -0.5499
 1304TIP3    H1 3869   0.998   4.015   5.773 -0.1969 -2.1207  1.5047
 1304TIP3    H2 3870   1.012   3.897   5.679  0.9441  0.8082 -2.2755
 1305TIP3   OH2 3871   4.200   3.874   2.520 -0.2494  0.2294  0.0211
 1305TIP3    H1 3872   4.213   3.781   2.538  2.2521  0.6528  0.7942
 1305TIP3    H2 3873   4.115   3.895   2.559 -1.8866 -2.1038 -1.9812
 1306TIP3   OH2 3874   5.431   4.880   3.880 -0.1441  0.3652 -0.1391
 1306TIP3    H1 3875   5.411   4.969   3.849  0.1138 -0.0044 -1.4467
 1306TIP3    H2 3876   5.492   4.894   3.953 -1.6610  1.3168  1.0031
 1307TIP3   OH2 3877   1.803   4.721   1.880 -0.1993  0.5368 -0.4830
 1307TIP3    H1 3878   1.880   4.665   1.873  1.7049  2.7955  1.0754
 1307TIP3    H2 3879   1.813   4.767   1.963 -0.9114  4.1824 -2.2222
 1308TIP3   OH2 3880   6.637   5.292   0.178 -0.9096 -0.6656 -0.7508
 1308TIP3    H1 3881   6.625   5.358   0.246  1.7491 -0.5808 -0.2843
 1308TIP3    H2 3882   6.663   5.213   0.225 -0.7933 -1.1182 -1.5501
 1309TIP3   OH2 3883   3.242   5.790   1.938  0.0290  0.2302  0.3124
 1309TIP3    H1 3884   3.164   5.760   1.985  0.0078 -0.1515  0.0381
 1309TIP3    H2 3885   3.255   5.880   1.967 -1.7743  1.0520 -1.2057
 1310TIP3   OH2 3886   2.741   6.156   5.732  0.7661 -0.4838 -0.2641
 1310TIP3    H1 3887   2.782   6.070   5.724  2.3600  0.3431 -1.8317
 1310TIP3    H2 3888   2.815   6.217   5.734 -0.2762  1.1082 -3.2849
 1311TIP3   OH2 3889   1.139   2.004   0.582 -0.5120  0.0948 -0.2364
 1311TIP3    H1 3890   1.177   2.031   0.666 -1.2028  0.1118  0.0776
 1311TIP3    H2 3891   1.151   1.909   0.580 -0.3230  0.1181 -0.2025
 1312TIP3   OH2 3892   6.696   3.043   4.566 -0.4553  0.2203  0.3083
 1312TIP3    H1 3893   6.782   3.007   4.548 -1.4281 -2.0308 -0.2284
 1312TIP3    H2 3894   6.693   3.053   4.661  0.8521  1.7154  0.2322
 1313TIP3   OH2 3895   1.727   4.742   5.987  0.0032 -0.2168  0.3390
 1313TIP3    H1 3896   1.735   4.824   6.036  1.5766  0.6949 -1.3166
 1313TIP3    H2 3897   1.817   4.719   5.965 -0.5622 -1.2050 -1.0986
 1314TIP3   OH2 3898   3.718   4.281   0.708 -0.0451  0.8347  0.2423
 1314TIP3    H1 3899   3.656   4.252   0.642 -0.0501 -0.6251  0.8491
 1314TIP3    H2 3900   3.675   4.260   0.792  1.0776  0.1507  0.6707
 1315TIP3   OH2 3901   1.228   1.857   2.004  0.1698 -0.5117 -0.1179
 1315TIP3    H1 3902   1.266   1.890   1.923  1.8711 -0.0127  0.8376
 1315TIP3    H2 3903   1.299   1.810   2.047 -0.6427 -0.6313  1.1723
 1316TIP3   OH2 3904   2.390   1.953   6.272  0.1446 -0.8880 -0.2014
 1316TIP3    H1 3905   2.330   2.013   6.228  0.3933 -0.2144  0.3526
 1316TIP3    H2 3906   2.476   1.971   6.232  0.1008 -1.3820 -0.5292
 1317TIP3   OH2 3907   0.048   5.011   3.351 -0.3181 -0.6286 -0.0799
 1317TIP3    H1 3908   0.115   5.076   3.329 -0.6708  0.0133  0.6783
 1317TIP3    H2 3909  -0.026   5.063   3.382  0.3511 -1.3799  3.2690
 1318TIP3   OH2 3910   3.481   6.757   1.901 -0.4721 -0.1301  0.0879
 1318TIP3    H1 3911   3.559   6.791   1.859 -1.1785 -0.1580 -1.3026
 1318TIP3    H2 3912   3.510   6.677   1.945  0.2358 -0.2652 -0.6072
 1319TIP3   OH2 3913   4.781   6.329   5.049  0.1098 -0.3258  0.1367
 1319TIP3    H1 3914   4.850   6.389   5.021  0.8490 -0.9883  0.5086
 1319TIP3    H2 3915   4.825   6.268   5.108 -1.1546  0.3264  1.8303
 1320TIP3   OH2 3916   6.365   4.492   2.969  1.2078  0.1677 -0.6896
 1320TIP3    H1 3917   6.348   4.398   2.974  0.3760  0.2769 -1.2278
 1320TIP3    H2 3918   6.399   4.515   3.055  1.5079 -0.6433 -0.5831
 1321TIP3   OH2 3919   6.071   0.036   4.982  0.2766 -0.3147  0.2468
 1321TIP3    H1 3920   6.035   0.091   4.912 -0.4981 -0.3833  0.5884
 1321TIP3    H2 3921   6.048   0.081   5.063  0.8218 -0.4486  0.4836
 1322TIP3   OH2 3922   7.132   5.582   2.984  0.5560  0.8138 -0.2780
 1322TIP3    H1 3923   7.216   5.549   3.016  0.3397 -0.1395 -0.6429
 1322TIP3    H2 3924   7.081   5.597   3.064  0.1785 -1.1257 -0.0932
 1323TIP3   OH2 3925   4.961   6.419   0.082  0.0803 -0.7226 -0.1685
 1323TIP3    H1 3926   5.017   6.355   0.038 -0.2511 -0.0328 -1.6498
 1323TIP3    H2 3927   5.017   6.496   0.094  0.5479 -1.3167  1.8151
 1324TIP3   OH2 3928   7.404   0.983   3.808  0.3328 -0.4607  0.3275
 1324TIP3    H1 3929   7.405   0.905   3.863  2.2622 -0.0250  0.9982
 1324TIP3    H2 3930   7.486   1.028   3.829 -0.4349  1.4323 -0.4965
 1325TIP3   OH2 3931   2.257   4.766   2.754 -0.7216 -0.1004  0.0677
 1325TIP3    H1 3932   2.277   4.823   2.828  0.7280  0.0623 -0.4203
 1325TIP3    H2 3933   2.179   4.805   2.715 -1.0416  0.2641  1.0278
 1326TIP3   OH2 3934   0.223   0.585   5.053 -0.4924  0.4109  0.0922
 1326TIP3    H1 3935   0.136   0.596   5.015 -0.9371 -0.7947  0.7137
 1326TIP3    H2 3936   0.206   0.566   5.145  0.4134 -0.0682  0.1683
 1327TIP3   OH2 3937   5.438   6.067   5.076  0.1984 -0.2450 -0.1239
 1327TIP3    H1 3938   5.534   6.057   5.073  0.4187  1.6376 -1.2250
 1327TIP3    H2 3939   5.405   6.003   5.014  0.9402  0.6069 -1.4514
 1328TIP3   OH2 3940   2.500   1.828   6.729  0.4588 -0.4756  0.0947
 1328TIP3    H1 3941   2.507   1.850   6.822  0.3055  2.1777 -0.4385
 1328TIP3    H2 3942   2.407   1.809   6.716  0.1437  0.9112  0.1799
 1329TIP3   OH2 3943   5.176   2.623   3.951 -0.3259 -0.3487 -0.4034
 1329TIP3    H1 3944   5.248   2.683   3.932 -0.7751  0.1002 -0.6936
 1329TIP3    H2 3945   5.193   2.593   4.041  1.2756 -1.7290 -1.1135
 1330TIP3   OH2 3946   4.261   6.815   0.964 -0.1554  0.5053  0.0517
 1330TIP3    H1 3947   4.179   6.778   0.998 -1.0614  1.0358 -1.4293
 1330TIP3    H2 3948   4.293   6.749   0.902  0.8552  0.0521  1.0410
 1331TIP3   OH2 3949   4.061   7.708   0.907  0.2601 -0.5377 -0.2459
 1331TIP3    H1 3950   4.070   7.789   0.857  1.1182 -1.1936 -1.1881
 1331TIP3    H2 3951   4.145   7.698   0.952 -0.2265 -0.3618  0.7192
 1332TIP3   OH2 3952   5.089   1.543   1.725  0.1395 -0.2779  0.3482
 1332TIP3    H1 3953   5.034   1.618   1.703 -0.2974 -1.0890 -1.6233
 1332TIP3    H2 3954   5.039   1.495   1.791 -0.3258  0.3480  0.4614
 1333TIP3   OH2 3955   5.593   6.738   3.439 -0.4497 -0.2798  0.3227
 1333TIP3    H1 3956   5.525   6.729   3.372 -0.3984  0.1428  0.2129
 1333TIP3    H2 3957   5.614   6.648   3.463 -1.1054 -0.4171  0.4166
 1334TIP3   OH2 3958   2.129   7.397   2.139  0.2400 -0.3673  0.3636
 1334TIP3    H1 3959   2.107   7.355   2.222 -1.4651 -1.1601 -0.4592
 1334TIP3    H2 3960   2.200   7.457   2.162 -1.4624  0.9057  2.8184
 1335TIP3   OH2 3961   0.433   0.358   0.199 -0.6104  0.4411 -0.0984
 1335TIP3    H1 3962   0.367   0.294   0.225 -0.0284 -0.1064  0.0524
 1335TIP3    H2 3963   0.409   0.438   0.246 -1.0968  0.2107  0.0452
 1336TIP3   OH2 3964   5.932   4.304   1.012  0.2053  1.1776  0.7025
 1336TIP3    H1 3965   5.936   4.308   0.916 -2.0118  1.7371  0.5762
 1336TIP3    H2 3966   5.959   4.215   1.033  3.3644  1.7752 -0.1648
 1337TIP3   OH2 3967   6.304   5.964   3.786  1.2096 -0.7100 -0.3130
 1337TIP3    H1 3968   6.317   6.058   3.798 -0.4544 -0.5884  0.7399
 1337TIP3    H2 3969   6.283   5.954   3.693 -0.5178  0.2351 -0.0615
 1338TIP3   OH2 3970   7.198   1.747   4.478 -0.9179  0.0523  0.3554
 1338TIP3    H1 3971   7.165   1.721   4.392 -2.1113 -1.7704  1.3019
 1338TIP3    H2 3972   7.269   1.686   4.495 -1.7348 -0.6414  1.3267
 1339TIP3   OH2 3973   3.214   2.900   4.612 -0.2526  0.4574  0.0262
 1339TIP3    H1 3974   3.293   2.897   4.559  1.5201 -0.4512  2.5433
 1339TIP3    H2 3975   3.166   2.821   4.588  0.9512 -0.4055  0.3582
 1340TIP3   OH2 3976   0.057   3.550   4.664  0.0983  0.3654  0.1496
 1340TIP3    H1 3977   0.140   3.504   4.655 -0.3151  0.0034 -4.2294
 1340TIP3    H2 3978   0.007   3.498   4.727  2.2861 -0.8006  1.0263
 1341TIP3   OH2 3979   3.732   3.860   3.109  0.4232  0.3289  0.2908
 1341TIP3    H1 3980   3.694   3.901   3.031 -0.0754 -1.1030 -0.2501
 1341TIP3    H2 3981   3.827   3.868   3.096  0.3521 -0.2103 -0.6551
 1342TIP3   OH2 3982   3.475   6.116   4.647  0.1271  0.0002 -0.3849
 1342TIP3    H1 3983   3.421   6.158   4.580  0.3408  0.3423 -0.3438
 1342TIP3    H2 3984   3.525   6.049   4.600  1.2991  1.1456 -0.8311
 1343TIP3   OH2 3985   6.591   2.538   2.866 -0.4859 -0.0427 -0.3463
 1343TIP3    H1 3986   6.639   2.573   2.941  1.8610  0.2119 -1.8615
 1343TIP3    H2 3987   6.506   2.582   2.870  0.3378  1.5617  0.9589
 1344TIP3   OH2 3988   1.989   1.285   0.264 -0.3144  0.0653 -0.0817
 1344TIP3    H1 3989   1.944   1.370   0.266  0.5130  0.5192 -0.1865
 1344TIP3    H2 3990   2.037   1.282   0.346 -0.5762 -0.4414  0.0547
 1345TIP3   OH2 3991   2.222   7.781   2.021  0.5458 -0.0875 -0.1953
 1345TIP3    H1 3992   2.199   7.722   1.949  1.4800 -0.7810  0.0606
 1345TIP3    H2 3993   2.247   7.862   1.978 -1.0609  0.2707 -0.5396
 1346TIP3   OH2 3994   0.073   3.512   5.965 -0.1891 -0.1513  0.1462
 1346TIP3    H1 3995  -0.014   3.542   5.993 -0.1961  0.4486 -0.4940
 1346TIP3    H2 3996   0.078   3.422   5.995 -0.5001  0.2259  1.4081
 1347TIP3   OH2 3997   3.202   2.952   3.558 -0.2031 -0.4680 -0.2103
 1347TIP3    H1 3998   3.224   2.969   3.649 -0.1318 -0.6298 -0.1970
 1347TIP3    H2 3999   3.198   3.039   3.518  2.7312 -0.4484 -0.7419
 1348TIP3   OH2 4000   2.804   1.765   3.287  0.0428 -0.0735 -0.1941
 1348TIP3    H1 4001   2.763   1.735   3.368  0.5554  0.6885  0.3574
 1348TIP3    H2 4002   2.892   1.729   3.289  0.3107  0.5717 -0.0364
 1349TIP3   OH2 4003   3.767   0.960   5.177 -0.2320  0.0190 -0.0143
 1349TIP3    H1 4004   3.785   0.870   5.204 -1.1378 -0.2289 -0.2004
 1349TIP3    H2 4005   3.682   0.955   5.133  1.3930  0.2364 -3.5370
 1350TIP3   OH2 4006   4.554   7.075   2.982 -0.6084  0.5936  0.0800
 1350TIP3    H1 4007   4.518   7.064   3.070 -2.9665 -1.5016 -1.0230
 1350TIP3    H2 4008   4.626   7.012   2.978 -0.1335  1.0858  0.6606
 1351TIP3   OH2 4009   0.264   4.974   1.201 -0.2386 -0.1722 -1.0674
 1351TIP3    H1 4010   0.170   4.971   1.184 -0.5421  0.1214  0.4472
 1351TIP3    H2 4011   0.279   4.906   1.267  0.2672  1.0478  0.1252
 1352TIP3   OH2 4012   3.717   1.874   1.750 -0.2220  0.2658 -0.2559
 1352TIP3    H1 4013   3.700   1.808   1.683 -1.5342  1.0060 -0.7075
 1352TIP3    H2 4014   3.680   1.837   1.830 -2.1622  0.9380 -0.7774
 1353TIP3   OH2 4015   2.438   1.234   0.480  0.2198  0.6233 -0.2479
 1353TIP3    H1 4016   2.392   1.150   0.480 -1.6496  1.5876 -0.6071
 1353TIP3    H2 4017   2.472   1.243   0.569  0.4252 -0.5085 -0.2051
 1354TIP3   OH2 4018   1.205   0.315   3.441 -0.2233  0.0527  0.0244
 1354TIP3    H1 4019   1.132   0.371   3.415 -0.0205  0.9823  1.3317
 1354TIP3    H2 4020   1.215   0.253   3.369 -1.7875  0.4029 -0.5329
 1355TIP3   OH2 4021   2.436   3.731   6.740 -0.2126  0.3974  0.3498
 1355TIP3    H1 4022   2.532   3.738   6.733 -0.1998 -0.0359  0.0326
 1355TIP3    H2 4023   2.404   3.793   6.674 -0.0935 -2.6493 -2.8258
 1356TIP3   OH2 4024   2.468   6.547   3.564 -0.2112 -0.1989 -0.0542
 1356TIP3    H1 4025   2.398   6.482   3.571 -0.3238 -0.0438  0.2767
 1356TIP3    H2 4026   2.429   6.628   3.598  0.0761 -0.0702 -0.0293
 1357TIP3   OH2 4027   7.598   2.508   1.277 -0.1512  0.1660  0.1628
 1357TIP3    H1 4028   7.645   2.528   1.358  0.7594 -2.1611  0.3019
 1357TIP3    H2 4029   7.655   2.540   1.208  0.6107 -0.6386  0.3959
 1358TIP3   OH2 4030   3.316   6.074   5.364  0.0076  0.3233 -0.0138
 1358TIP3    H1 4031   3.269   6.118   5.435  0.0251  0.0517  0.1710
 1358TIP3    H2 4032   3.247   6.042   5.306 -0.2113 -1.9106  1.3262
 1359TIP3   OH2 4033   4.623   7.739   0.990  0.2690  0.3723  0.1665
 1359TIP3    H1 4034   4.563   7.723   1.063 -0.2557  0.6608 -0.1935
 1359TIP3    H2 4035   4.695   7.789   1.028 -0.4787  1.3804  0.3039
 1360TIP3   OH2 4036   2.479   5.506   5.821  0.4674  0.3751 -0.1221
 1360TIP3    H1 4037   2.450   5.538   5.906  1.2656  1.2387 -0.1582
 1360TIP3    H2 4038   2.567   5.541   5.811  0.1630  0.8108 -1.5638
 1361TIP3   OH2 4039   5.627   0.870   3.505 -0.0577 -0.5690  0.3496
 1361TIP3    H1 4040   5.642   0.776   3.491 -2.0512 -0.9748  0.6159
 1361TIP3    H2 4041   5.636   0.909   3.418  0.4528 -1.0466  0.1789
 1362TIP3   OH2 4042   0.996   0.737   6.624 -0.1528  0.1237 -0.0982
 1362TIP3    H1 4043   0.959   0.825   6.614 -1.4980 -0.1148  2.1116
 1362TIP3    H2 4044   0.928   0.679   6.589  0.0563 -0.1233 -0.0936
 1363TIP3   OH2 4045   4.697   4.387   0.160 -0.3272  0.1814 -0.1734
 1363TIP3    H1 4046   4.610   4.361   0.132 -0.4363 -0.6766  0.9157
 1363TIP3    H2 4047   4.757   4.344   0.099 -0.6465  1.3521 -1.3802
 1364TIP3   OH2 4048   5.527   0.944   6.408  0.1522  0.8223  0.6563
 1364TIP3    H1 4049   5.566   0.984   6.330 -0.0336  0.6920  0.4968
 1364TIP3    H2 4050   5.451   0.999   6.427 -0.9365 -0.2768 -0.4025
 1365TIP3   OH2 4051   7.471   1.784   5.428 -0.2956 -0.0276 -0.0746
 1365TIP3    H1 4052   7.427   1.828   5.501 -0.4399  0.6822 -0.5776
 1365TIP3    H2 4053   7.412   1.712   5.404 -0.8734  0.5184 -0.3158
 1366TIP3   OH2 4054   1.671   0.114   1.920 -0.3398 -0.7138 -0.2155
 1366TIP3    H1 4055   1.615   0.082   1.990 -0.4815  0.4793  0.2449
 1366TIP3    H2 4056   1.696   0.202   1.947 -0.7488 -0.0481 -1.8535
 1367TIP3   OH2 4057   7.212   5.197   6.789 -0.0050  0.0237  0.0591
 1367TIP3    H1 4058   7.181   5.146   6.714 -0.2718 -0.2367  0.3463
 1367TIP3    H2 4059   7.192   5.287   6.766 -0.9628 -0.1360  0.2297
 1368TIP3   OH2 4060   3.250   4.676   3.652  0.0064  0.1083 -0.2555
 1368TIP3    H1 4061   3.180   4.658   3.714 -0.4186 -1.0844 -1.0450
 1368TIP3    H2 4062   3.288   4.759   3.682  0.5808 -0.9652  2.2957
 1369TIP3   OH2 4063   2.532   0.213   6.128  0.1002 -0.3665  0.5011
 1369TIP3    H1 4064   2.567   0.130   6.095  2.5860  0.2162  1.4541
 1369TIP3    H2 4065   2.569   0.222   6.215 -0.5878  1.4869  0.6566
 1370TIP3   OH2 4066   5.711   6.542   2.247 -0.5211 -0.2837  0.2175
 1370TIP3    H1 4067   5.772   6.469   2.232 -0.8810 -0.4889 -0.3023
 1370TIP3    H2 4068   5.766   6.620   2.244 -0.0675 -0.5602  1.1938
 1371TIP3   OH2 4069   6.039   0.991   5.151 -0.0025 -0.3377 -0.1715
 1371TIP3    H1 4070   5.980   0.956   5.085  0.1426 -1.2294  0.1638
 1371TIP3    H2 4071   5.985   1.053   5.200  0.2357  1.3901 -1.9445
 1372TIP3   OH2 4072   3.419   1.600   3.155 -0.4832 -0.5170 -0.2696
 1372TIP3    H1 4073   3.504   1.565   3.128 -0.9690 -1.0740 -1.0935
 1372TIP3    H2 4074   3.394   1.660   3.085 -0.2109  0.5892  0.5619
 1373TIP3   OH2 4075   6.185   2.149   3.791 -0.0826 -0.4096 -0.1361
 1373TIP3    H1 4076   6.259   2.201   3.823  0.3952 -1.1688  0.0314
 1373TIP3    H2 4077   6.142   2.117   3.870  0.1511 -0.9796 -0.2339
 1374TIP3   OH2 4078   6.144   4.814   5.981 -0.1680 -0.2481 -0.2482
 1374TIP3    H1 4079   6.087   4.859   6.043  2.1507 -0.5543  2.2947
 1374TIP3    H2 4080   6.138   4.866   5.901 -0.0999  2.7311  1.5311
 1375TIP3   OH2 4081   6.827   4.400   1.302  0.2432 -0.1108  0.2348
 1375TIP3    H1 4082   6.748   4.451   1.320  1.7952  2.8904 -0.7689
 1375TIP3    H2 4083   6.842   4.410   1.208  1.5401 -1.0667  0.3044
 1376TIP3   OH2 4084   1.138   6.311   0.691 -0.5225  0.5561  0.2753
 1376TIP3    H1 4085   1.188   6.346   0.764  0.4531  0.8398 -0.5058
 1376TIP3    H2 4086   1.057   6.362   0.692 -0.5971  0.4337  1.2525
 1377TIP3   OH2 4087   5.354   4.595   1.559 -0.0204 -0.6468 -0.0450
 1377TIP3    H1 4088   5.394   4.538   1.494 -0.8027 -0.4287 -0.7492
 1377TIP3    H2 4089   5.426   4.646   1.594  0.5828 -1.5911  0.1040
 1378TIP3   OH2 4090   4.829   5.050   0.318 -0.4883 -0.1207  0.2904
 1378TIP3    H1 4091   4.915   5.076   0.349  0.0055  0.1145 -1.1804
 1378TIP3    H2 4092   4.840   5.036   0.224 -2.4094  1.5884 -0.2748
 1379TIP3   OH2 4093   0.278   3.642   5.639  0.3469  0.5294  0.1802
 1379TIP3    H1 4094   0.190   3.604   5.632  0.1276  1.3541 -3.0002
 1379TIP3    H2 4095   0.336   3.566   5.639 -0.2722  0.0216 -1.1399
 1380TIP3   OH2 4096   2.262   0.256   2.705 -0.1084  0.0139 -0.7272
 1380TIP3    H1 4097   2.185   0.236   2.758  0.3604  0.5866  0.1920
 1380TIP3    H2 4098   2.231   0.251   2.615 -1.4732  1.2457 -0.3616
 1381TIP3   OH2 4099   7.237   5.691   0.188  0.3281  0.1626 -0.1845
 1381TIP3    H1 4100   7.287   5.717   0.266  1.5092  1.1380 -1.2200
 1381TIP3    H2 4101   7.259   5.756   0.123  0.2529 -1.2554 -1.6921
 1382TIP3   OH2 4102   4.972   2.694   2.272 -0.0891  0.0190 -0.5127
 1382TIP3    H1 4103   5.013   2.618   2.231 -1.6508 -1.1625  0.0405
 1382TIP3    H2 4104   5.016   2.701   2.357  0.7307  0.3506 -0.9503
 1383TIP3   OH2 4105   0.828   7.687   0.388  0.6757 -0.5590  0.0680
 1383TIP3    H1 4106   0.793   7.775   0.393  0.2855 -0.7291  0.3994
 1383TIP3    H2 4107   0.868   7.682   0.301  2.0761  0.4386  0.6203
 1384TIP3   OH2 4108   0.493   6.037   2.374  0.4655  0.0136  0.7754
 1384TIP3    H1 4109   0.545   5.958   2.394 -0.4202 -0.5226  0.9993
 1384TIP3    H2 4110   0.405   6.004   2.356  0.2291  0.9050  0.2509
 1385TIP3   OH2 4111   0.082   0.090   2.942  0.7482 -0.1905 -0.2611
 1385TIP3    H1 4112   0.074   0.185   2.952  0.2565 -0.1809 -0.7615
 1385TIP3    H2 4113   0.070   0.056   3.031 -0.9540  0.0945 -0.3498
 1386TIP3   OH2 4114   0.914   5.789   3.644 -0.1019 -0.3607  0.6017
 1386TIP3    H1 4115   0.970   5.815   3.718 -0.6343 -2.2616  1.7375
 1386TIP3    H2 4116   0.839   5.747   3.685 -0.9886 -0.4302 -1.0145
 1387TIP3   OH2 4117   8.226   0.670   4.469  0.1791  0.3936  0.0469
 1387TIP3    H1 4118   8.298   0.608   4.458  0.9905  1.3812 -0.3921
 1387TIP3    H2 4119   8.261   0.753   4.437 -1.5987  0.6193 -1.4610
 1388TIP3   OH2 4120   7.777   2.096   4.745 -0.0776 -0.2929 -0.1246
 1388TIP3    H1 4121   7.786   2.186   4.777 -1.4922 -0.2118  0.0859
 1388TIP3    H2 4122   7.694   2.096   4.698 -0.4156 -1.6460  0.4374
 1389TIP3   OH2 4123   3.558   3.628   0.651 -0.4322  0.1125 -0.3485
 1389TIP3    H1 4124   3.540   3.690   0.580  0.0245  0.3957 -0.2204
 1389TIP3    H2 4125   3.652   3.611   0.646 -0.4632 -0.1655 -0.0530
 1390TIP3   OH2 4126   2.059   5.110   3.170  0.3429 -0.2405 -0.2767
 1390TIP3    H1 4127   2.047   5.163   3.091 -0.2063  0.1142  0.0394
 1390TIP3    H2 4128   2.130   5.154   3.218  1.8231 -1.3658 -1.3214
 1391TIP3   OH2 4129   6.428   7.263   5.133  0.5056 -0.0563 -0.3720
 1391TIP3    H1 4130   6.467   7.350   5.123 -0.4564  0.3132 -1.0633
 1391TIP3    H2 4131   6.406   7.257   5.226 -0.1269  0.7562 -0.4586
 1392TIP3   OH2 4132   1.300   0.408   0.689  0.4657  0.5450  0.0614
 1392TIP3    H1 4133   1.342   0.491   0.714 -1.2846  1.3656  0.4659
 1392TIP3    H2 4134   1.215   0.434   0.653  0.4103 -1.0182 -1.0393
 1393TIP3   OH2 4135   3.800   5.865   1.285  0.1271 -0.3191  0.1826
 1393TIP3    H1 4136   3.807   5.849   1.190 -0.2894 -2.3578  0.4482
 1393TIP3    H2 4137   3.884   5.903   1.308  0.9289 -1.4168 -0.7581
 1394TIP3   OH2 4138   2.204   2.425   0.573  0.5349 -0.0165  0.5189
 1394TIP3    H1 4139   2.278   2.432   0.513  0.6054  1.3428  0.7278
 1394TIP3    H2 4140   2.168   2.514   0.576 -1.1671 -0.6577  0.3384
 1395TIP3   OH2 4141   1.303   1.276   4.759 -0.1003 -0.3282 -0.0810
 1395TIP3    H1 4142   1.274   1.330   4.832  0.9087  0.3872 -0.1799
 1395TIP3    H2 4143   1.359   1.335   4.707  2.2235 -1.8224  0.5790
 1396TIP3   OH2 4144   5.289   7.569   5.005  0.0328  0.0618  0.0917
 1396TIP3    H1 4145   5.209   7.564   5.057 -1.5376 -1.4581 -2.2684
 1396TIP3    H2 4146   5.306   7.479   4.978  0.4636  0.7873 -2.3474
 1397TIP3   OH2 4147   7.203   0.528   5.503 -0.1535  0.0511  0.1598
 1397TIP3    H1 4148   7.222   0.584   5.428  0.5312  0.0878  0.3475
 1397TIP3    H2 4149   7.113   0.498   5.489 -0.1902  0.4210 -0.4370
 1398TIP3   OH2 4150   5.558   3.718   0.155  0.1096  0.3396 -0.0773
 1398TIP3    H1 4151   5.598   3.636   0.184  0.7744  1.0363  1.0414
 1398TIP3    H2 4152   5.632   3.777   0.137 -0.3676  1.4088  1.3101
 1399TIP3   OH2 4153   8.106   0.910   0.227  0.0480 -0.5272  0.2720
 1399TIP3    H1 4154   8.089   0.977   0.161 -1.4174 -2.3922 -1.3424
 1399TIP3    H2 4155   8.190   0.872   0.202 -0.6950 -1.5107 -0.8405
 1400TIP3   OH2 4156   7.214   7.259   2.204  0.1281  0.2589 -0.1690
 1400TIP3    H1 4157   7.262   7.184   2.239 -2.1055 -0.7834  0.8479
 1400TIP3    H2 4158   7.192   7.312   2.281  0.8913  1.5111 -0.7823
 1401TIP3   OH2 4159   5.933   0.790   0.278 -0.1685 -0.0689  0.1304
 1401TIP3    H1 4160   5.917   0.790   0.372 -1.8565 -0.2119 -0.1346
 1401TIP3    H2 4161   5.948   0.698   0.256  0.3982 -0.0162  0.2631
 1402TIP3   OH2 4162   1.386   2.477   4.995  0.0019 -0.2484 -0.7518
 1402TIP3    H1 4163   1.300   2.462   4.956  0.1537  1.1432 -1.6974
 1402TIP3    H2 4164   1.379   2.442   5.083 -2.0815  1.2721 -0.2440
 1403TIP3   OH2 4165   7.988   2.748   4.192  0.7186  0.1466 -0.3574
 1403TIP3    H1 4166   7.912   2.690   4.201  1.1443 -0.4160 -0.3671
 1403TIP3    H2 4167   8.012   2.771   4.282 -0.1828  1.2869 -0.3831
 1404TIP3   OH2 4168   1.663   5.984   3.702  0.6482 -0.7579 -0.5019
 1404TIP3    H1 4169   1.598   5.915   3.714  1.0053 -1.1793 -0.9752
 1404TIP3    H2 4170   1.731   5.966   3.767  0.2125 -0.2095  0.1205
 1405TIP3   OH2 4171   6.114   2.598   5.693  0.3205 -0.3214 -0.3654
 1405TIP3    H1 4172   6.099   2.680   5.647 -0.4555  0.1020  0.5883
 1405TIP3    H2 4173   6.208   2.594   5.705  0.4198  0.1195 -0.9832
 1406TIP3   OH2 4174   5.413   7.036   5.177  0.0835  0.4554 -0.5923
 1406TIP3    H1 4175   5.334   7.085   5.156  0.7754  1.3587 -1.2019
 1406TIP3    H2 4176   5.438   7.066   5.264 -0.0123  0.4967 -0.5794
 1407TIP3   OH2 4177   7.483   2.731   2.901 -0.0439  0.1991  0.2758
 1407TIP3    H1 4178   7.415   2.735   2.969 -0.9228  0.6509 -0.6059
 1407TIP3    H2 4179   7.471   2.645   2.860  1.6095 -0.8421  1.7602
 1408TIP3   OH2 4180   4.496   6.396   4.690 -0.2965 -0.3423  0.0395
 1408TIP3    H1 4181   4.512   6.316   4.640 -2.0129 -0.9677  0.4033
 1408TIP3    H2 4182   4.415   6.377   4.739 -1.2629  1.9616 -0.5696
 1409TIP3   OH2 4183   2.389   2.115   0.352 -0.1016  0.1855 -0.0735
 1409TIP3    H1 4184   2.460   2.158   0.305 -0.1601  1.5463  1.0165
 1409TIP3    H2 4185   2.413   2.022   0.352  2.5188  0.7443  1.5526
 1410TIP3   OH2 4186   7.210   6.453   4.719  0.0403  0.1212  0.3331
 1410TIP3    H1 4187   7.155   6.530   4.707  0.9753  0.5733 -1.3026
 1410TIP3    H2 4188   7.299   6.489   4.731  0.3650 -0.6770  0.3794
 1411TIP3   OH2 4189   5.876   4.555   0.274  0.0207 -0.8121 -0.7855
 1411TIP3    H1 4190   5.866   4.624   0.208 -1.1985 -0.3860 -0.1936
 1411TIP3    H2 4191   5.927   4.487   0.231 -0.4425 -0.3911 -2.0538
 1412TIP3   OH2 4192   2.814   5.448   2.433  0.5127 -0.6977  0.2130
 1412TIP3    H1 4193   2.730   5.473   2.396  1.3004  0.2187 -1.0103
 1412TIP3    H2 4194   2.810   5.353   2.441 -1.4724 -0.5317  2.3069
 1413TIP3   OH2 4195   0.339   1.698   5.300  0.0748  0.3910 -0.0904
 1413TIP3    H1 4196   0.272   1.723   5.364  0.7033 -0.1022  0.7937
 1413TIP3    H2 4197   0.418   1.684   5.353  0.8497  0.8534 -1.0998
 1414TIP3   OH2 4198   0.052   4.566   2.572 -0.3209 -0.0361 -0.0609
 1414TIP3    H1 4199   0.034   4.574   2.666 -0.3022 -0.9785  0.0327
 1414TIP3    H2 4200  -0.030   4.532   2.535 -1.0808  2.3318 -0.7428
 1415TIP3   OH2 4201   1.336   3.722   0.134  0.5770  0.0338  0.2334
 1415TIP3    H1 4202   1.326   3.801   0.187 -1.1101  0.2344 -0.3289
 1415TIP3    H2 4203   1.416   3.737   0.083  0.8363  0.9142  0.8732
 1416TIP3   OH2 4204   3.323   7.565   2.636 -0.6856  0.4316 -0.1681
 1416TIP3    H1 4205   3.285   7.506   2.701  0.4122 -0.3726 -0.2352
 1416TIP3    H2 4206   3.284   7.537   2.553  1.5164 -1.7882 -0.5600
 1417TIP3   OH2 4207   3.319   0.225   6.181 -0.4936 -0.2304 -0.4782
 1417TIP3    H1 4208   3.312   0.318   6.202 -0.5213 -0.1242 -0.9622
 1417TIP3    H2 4209   3.395   0.195   6.231  0.1147  0.2685 -1.0864
 1418TIP3   OH2 4210   4.188   4.815   0.273  0.2448 -0.3770 -0.2239
 1418TIP3    H1 4211   4.208   4.742   0.332 -0.5341 -2.2612 -2.1588
 1418TIP3    H2 4212   4.257   4.812   0.207  0.5399  1.0580 -0.0208
 1419TIP3   OH2 4213   4.144   6.004   5.145 -0.3305 -0.0094  0.5117
 1419TIP3    H1 4214   4.203   6.040   5.078 -2.5271 -1.2266 -2.2986
 1419TIP3    H2 4215   4.188   5.925   5.175  0.3897  0.1695 -0.0314
 1420TIP3   OH2 4216   7.600   5.266   3.378 -0.4292 -0.3216 -0.6014
 1420TIP3    H1 4217   7.667   5.279   3.445 -1.9309 -1.7169  1.3025
 1420TIP3    H2 4218   7.586   5.171   3.375 -0.8056 -0.2473 -2.5277
 1421TIP3   OH2 4219   4.499   5.578   1.283  0.5504  0.2554 -0.3862
 1421TIP3    H1 4220   4.578   5.627   1.308  0.1613  0.7079 -0.0199
 1421TIP3    H2 4221   4.532   5.502   1.235  1.1710  0.9599 -1.1139
 1422TIP3   OH2 4222   4.571   3.240   2.947 -0.0690  0.3444 -0.0135
 1422TIP3    H1 4223   4.576   3.288   2.865 -0.5272  1.3530  0.5220
 1422TIP3    H2 4224   4.642   3.277   3.000 -1.5685  1.8098  1.0761
 1423TIP3   OH2 4225   7.284   7.033   3.102 -0.0327 -0.8840 -0.4452
 1423TIP3    H1 4226   7.311   7.069   3.017  3.1800 -2.2700 -0.1757
 1423TIP3    H2 4227   7.319   7.095   3.166 -1.3809 -0.4708 -0.0917
 1424TIP3   OH2 4228   1.712   6.513   2.396  0.9886  0.4381 -0.3174
 1424TIP3    H1 4229   1.750   6.594   2.430  0.0422  0.7713 -0.0277
 1424TIP3    H2 4230   1.646   6.487   2.460 -1.0053  1.2089 -1.9107
 1425TIP3   OH2 4231   2.979   1.482   6.658  0.5188 -0.2753 -0.0457
 1425TIP3    H1 4232   2.928   1.438   6.726  1.2014 -1.4807 -0.2811
 1425TIP3    H2 4233   3.019   1.410   6.608  0.8800  0.6056 -1.0623
 1426TIP3   OH2 4234   8.052   3.127   1.877  0.2688  0.2468  0.0427
 1426TIP3    H1 4235   8.009   3.171   1.803  0.9091 -0.2891 -0.6651
 1426TIP3    H2 4236   8.038   3.034   1.861  2.3301 -0.0089 -0.6735
 1427TIP3   OH2 4237   1.294   3.773   5.622  0.2785  0.4607 -0.2914
 1427TIP3    H1 4238   1.253   3.782   5.536  1.5483  1.1760 -0.8333
 1427TIP3    H2 4239   1.227   3.806   5.683 -0.2731  0.8446 -1.0816
 1428TIP3   OH2 4240   7.802   0.425   4.294 -0.2320  0.0844  0.2030
 1428TIP3    H1 4241   7.791   0.347   4.348  0.9901 -1.3735 -1.5484
 1428TIP3    H2 4242   7.894   0.450   4.307  0.1483 -0.4294 -1.3149
 1429TIP3   OH2 4243   5.768   4.751   0.974  0.5252  0.5015  0.0798
 1429TIP3    H1 4244   5.700   4.720   1.033  1.9524 -0.9885  1.0482
 1429TIP3    H2 4245   5.845   4.699   0.997  1.0760 -0.4546 -3.3229
 1430TIP3   OH2 4246   4.584   6.395   0.554  0.0308  0.4282 -0.4640
 1430TIP3    H1 4247   4.546   6.336   0.489  2.2072 -0.3168 -1.1722
 1430TIP3    H2 4248   4.571   6.482   0.518 -1.3766  0.2566 -0.4289
 1431TIP3   OH2 4249   3.972   2.975   2.861 -0.0558  0.3429 -0.7637
 1431TIP3    H1 4250   3.953   3.066   2.835 -1.0005  0.1824 -0.6645
 1431TIP3    H2 4251   3.954   2.924   2.782 -0.3982  0.1405 -0.5546
 1432TIP3   OH2 4252   1.626   6.241   2.922 -0.7501  0.1495  0.3582
 1432TIP3    H1 4253   1.694   6.261   2.986  1.1088 -0.2941 -1.4003
 1432TIP3    H2 4254   1.575   6.171   2.961 -0.3382  0.6217  1.7883
 1433TIP3   OH2 4255   6.439   1.800   5.563 -0.1796  0.0678 -0.3630
 1433TIP3    H1 4256   6.435   1.803   5.467 -0.6073  0.0787 -0.3488
 1433TIP3    H2 4257   6.467   1.711   5.583 -0.2309  0.0197 -0.4992
 1434TIP3   OH2 4258   4.080   3.982   1.454  0.3001  0.5532  0.5214
 1434TIP3    H1 4259   4.108   3.897   1.421  1.1165  1.0972 -0.2206
 1434TIP3    H2 4260   4.018   3.961   1.524 -1.3270 -0.6341 -1.1838
 1435TIP3   OH2 4261   7.326   3.032   5.513  0.3726  0.7970  0.3163
 1435TIP3    H1 4262   7.343   2.983   5.433  0.4021 -1.2111  1.4825
 1435TIP3    H2 4263   7.253   3.091   5.490  0.3997  0.2933 -1.1700
 1436TIP3   OH2 4264   1.658   1.383   4.818 -0.4890 -0.7237 -0.1373
 1436TIP3    H1 4265   1.658   1.424   4.732  0.8177 -0.7760 -0.1867
 1436TIP3    H2 4266   1.627   1.452   4.878 -0.5592 -0.4114 -0.5311
 1437TIP3   OH2 4267   3.628   4.526   3.161 -0.7318 -0.3454  0.6505
 1437TIP3    H1 4268   3.671   4.447   3.193 -1.2517 -0.3822  1.2760
 1437TIP3    H2 4269   3.542   4.525   3.203 -1.2874 -0.1856 -0.4430
 1438TIP3   OH2 4270   4.136   0.022   1.764 -0.8467 -0.3649  0.6775
 1438TIP3    H1 4271   4.179   0.049   1.683 -1.2572 -1.0170  0.2310
 1438TIP3    H2 4272   4.143   0.098   1.822 -0.8734  0.2371 -0.0962
 1439TIP3   OH2 4273   4.279   0.667   6.246 -0.4127 -0.4569 -0.1266
 1439TIP3    H1 4274   4.293   0.711   6.330 -1.0818  1.7008 -1.0518
 1439TIP3    H2 4275   4.334   0.589   6.250  1.9204  1.1106  1.1769
 1440TIP3   OH2 4276   1.583   1.795   2.929 -0.4632  0.3805 -0.2479
 1440TIP3    H1 4277   1.563   1.808   2.836  1.9604  0.7463 -0.7681
 1440TIP3    H2 4278   1.615   1.880   2.960  0.4096 -0.1864  0.4608
 1441TIP3   OH2 4279   6.463   6.909   3.816  0.0629 -0.0050 -0.2589
 1441TIP3    H1 4280   6.430   6.948   3.897  0.2305  0.0484 -0.2170
 1441TIP3    H2 4281   6.423   6.962   3.747 -0.8132 -0.6136 -0.2410
 1442TIP3   OH2 4282   0.383   0.273   2.389  0.0511  0.7058  0.1368
 1442TIP3    H1 4283   0.296   0.249   2.358  0.1766  1.1708 -0.5991
 1442TIP3    H2 4284   0.368   0.345   2.450  0.0187  1.8888 -1.2128
 1443TIP3   OH2 4285   3.837   3.477   4.515 -0.4986  0.6064  0.4958
 1443TIP3    H1 4286   3.846   3.381   4.513  1.2839  0.6929  1.4749
 1443TIP3    H2 4287   3.796   3.500   4.432 -0.9455 -1.0099  0.2423
 1444TIP3   OH2 4288   7.375   1.963   4.512 -0.2380 -0.0909  0.3743
 1444TIP3    H1 4289   7.406   1.918   4.433  0.1673  0.5815  0.1332
 1444TIP3    H2 4290   7.311   1.904   4.550  0.6635 -1.0958  0.3619
 1445TIP3   OH2 4291   3.638   0.525   6.100 -0.3373  0.5812  0.1472
 1445TIP3    H1 4292   3.597   0.570   6.173  2.9704  1.0842  1.9038
 1445TIP3    H2 4293   3.665   0.595   6.041  1.1484  0.6218  0.8348
 1446TIP3   OH2 4294   3.217   4.195   4.926  0.0357 -0.2587  0.3724
 1446TIP3    H1 4295   3.303   4.185   4.966 -0.2039  1.3653  1.3801
 1446TIP3    H2 4296   3.216   4.131   4.855  2.5522  0.5055 -0.4585
 1447TIP3   OH2 4297   4.387   2.107   0.449 -0.1381 -0.3142 -0.5725
 1447TIP3    H1 4298   4.428   2.102   0.362 -1.4545  1.7892 -1.4073
 1447TIP3    H2 4299   4.460   2.109   0.510  0.9620  0.9571 -1.8432
 1448TIP3   OH2 4300   2.898   5.098   4.208 -0.6956  0.0212  0.0239
 1448TIP3    H1 4301   2.968   5.085   4.272 -1.0779  2.3884  1.0275
 1448TIP3    H2 4302   2.939   5.148   4.137 -0.5288 -1.7148 -1.1603
 1449TIP3   OH2 4303   2.612   0.688   0.115 -0.1789  0.8323  0.1242
 1449TIP3    H1 4304   2.588   0.780   0.107  1.4891  1.1963 -1.6361
 1449TIP3    H2 4305   2.535   0.640   0.085 -0.1697  1.7852 -1.5571
 1450TIP3   OH2 4306   1.463   6.609   2.692  0.0489  0.5332 -0.1498
 1450TIP3    H1 4307   1.550   6.613   2.650 -0.1495  0.4077 -0.5830
 1450TIP3    H2 4308   1.413   6.551   2.635 -0.2278  0.3587  0.2740
 1451TIP3   OH2 4309   6.864   2.658   3.467  0.1294  0.1932 -0.4988
 1451TIP3    H1 4310   6.785   2.697   3.504  1.2598  0.5689  1.6530
 1451TIP3    H2 4311   6.883   2.712   3.390 -0.5183  1.4371  0.1866
 1452TIP3   OH2 4312   1.558   2.230   0.060 -0.3857  0.2409  0.1384
 1452TIP3    H1 4313   1.484   2.292   0.059 -0.9059 -0.3040 -2.2829
 1452TIP3    H2 4314   1.520   2.148   0.031  1.4238  0.3797 -3.0337
 1453TIP3   OH2 4315   3.824   7.434   0.044 -0.1619 -0.2249  0.5052
 1453TIP3    H1 4316   3.912   7.421   0.007 -0.5648 -1.9470  0.0342
 1453TIP3    H2 4317   3.839   7.480   0.126  1.2403 -0.8164  0.6128
 1454TIP3   OH2 4318   0.959   6.663   3.169 -0.5196 -0.5409 -0.4379
 1454TIP3    H1 4319   1.041   6.647   3.122  0.4167 -1.0276  1.2782
 1454TIP3    H2 4320   0.945   6.585   3.222 -1.3289  0.1178  0.3644
 1455TIP3   OH2 4321   6.498   3.978   2.990  0.4646  0.0845  0.1104
 1455TIP3    H1 4322   6.559   4.051   2.984 -1.0564  1.5957  1.7073
 1455TIP3    H2 4323   6.537   3.919   3.055  1.1620  0.0356 -0.3482
 1456TIP3   OH2 4324   2.993   2.690   0.900 -0.2856 -0.2126 -0.2371
 1456TIP3    H1 4325   2.959   2.724   0.983 -1.2739  0.9718 -1.0943
 1456TIP3    H2 4326   2.998   2.595   0.914  0.2979  0.0286  1.4225
 1457TIP3   OH2 4327   0.577   6.317   4.820  0.1972 -0.3045  0.2012
 1457TIP3    H1 4328   0.564   6.357   4.905 -0.6185  0.0869 -0.0990
 1457TIP3    H2 4329   0.665   6.279   4.824  1.7621  2.9744 -0.0779
 1458TIP3   OH2 4330   3.875   2.314   2.045  0.3616  0.2276 -0.7477
 1458TIP3    H1 4331   3.878   2.227   2.004 -0.1474  0.4247 -1.2215
 1458TIP3    H2 4332   3.781   2.332   2.053  0.2994 -0.9013  2.8701
 1459TIP3   OH2 4333   6.200   0.143   1.372 -0.3036  0.0844 -0.5126
 1459TIP3    H1 4334   6.197   0.096   1.289 -1.6979 -0.1466 -0.3623
 1459TIP3    H2 4335   6.289   0.129   1.405 -0.1804 -1.0485 -1.2722
 1460TIP3   OH2 4336   1.202   5.754   2.551  0.2095  0.2802 -0.1507
 1460TIP3    H1 4337   1.289   5.772   2.588  0.6637  1.3031 -1.6088
 1460TIP3    H2 4338   1.218   5.692   2.480 -0.3051  0.1339 -0.1419
 1461TIP3   OH2 4339   2.581   6.195   1.515 -0.1499 -0.5568  0.1339
 1461TIP3    H1 4340   2.540   6.234   1.438  0.7375  0.4958  0.1853
 1461TIP3    H2 4341   2.522   6.123   1.538 -0.9820 -0.2406 -0.8966
 1462TIP3   OH2 4342   6.888   7.353   5.570 -0.1624  0.0776  0.2517
 1462TIP3    H1 4343   6.866   7.278   5.625  0.2001  0.1273  0.4698
 1462TIP3    H2 4344   6.819   7.355   5.503  0.3437 -1.0229 -0.3242
 1463TIP3   OH2 4345   0.346   0.613   0.649 -0.1827  0.5577 -0.2288
 1463TIP3    H1 4346   0.306   0.581   0.730  2.5788 -0.7670  0.7590
 1463TIP3    H2 4347   0.367   0.534   0.599 -0.6809  1.2960 -1.6716
 1464TIP3   OH2 4348   0.933   1.073   3.619 -0.3557 -0.6000 -0.1642
 1464TIP3    H1 4349   1.012   1.019   3.619 -0.6526 -1.1210 -2.1866
 1464TIP3    H2 4350   0.886   1.047   3.540 -1.0662  1.8491 -0.6329
 1465TIP3   OH2 4351   3.342   2.751   3.920  0.0700  0.4948 -0.1898
 1465TIP3    H1 4352   3.410   2.784   3.861 -0.4899  0.5588 -0.8121
 1465TIP3    H2 4353   3.262   2.754   3.868 -0.1225 -1.1897 -0.0411
 1466TIP3   OH2 4354   7.457   4.433   5.234 -0.2449  0.1487 -0.1329
 1466TIP3    H1 4355   7.485   4.443   5.325 -0.5304  0.0201 -0.0310
 1466TIP3    H2 4356   7.539   4.420   5.185 -0.2056 -2.2023  0.4235
 1467TIP3   OH2 4357   7.731   2.160   6.753  0.2732 -0.1540  0.3584
 1467TIP3    H1 4358   7.794   2.087   6.749  0.1018 -0.2806 -0.2052
 1467TIP3    H2 4359   7.646   2.118   6.760  0.2425  0.0171  1.0259
 1468TIP3   OH2 4360   0.496   5.315   6.071  0.3030 -0.1866  0.2562
 1468TIP3    H1 4361   0.448   5.313   5.989  0.7815 -0.1087 -0.0334
 1468TIP3    H2 4362   0.500   5.407   6.095 -1.2903 -0.3421  1.2564
 1469TIP3   OH2 4363   1.648   0.424   4.723 -0.2830 -0.2232 -0.7421
 1469TIP3    H1 4364   1.734   0.436   4.763 -1.0021 -0.5803  0.9856
 1469TIP3    H2 4365   1.634   0.504   4.672 -0.1972  1.2669  1.4330
 1470TIP3   OH2 4366   4.405   4.923   1.079 -0.3465 -0.0621  0.0205
 1470TIP3    H1 4367   4.379   5.008   1.043 -1.0809  0.2655  1.2662
 1470TIP3    H2 4368   4.498   4.915   1.057 -0.4729  0.6627 -0.8582
 1471TIP3   OH2 4369   4.364   4.473   3.508 -0.1810 -0.6679 -0.0811
 1471TIP3    H1 4370   4.331   4.504   3.592  0.1508 -0.1931 -0.1219
 1471TIP3    H2 4371   4.329   4.385   3.500 -0.8497 -0.4305  0.1959
 1472TIP3   OH2 4372   5.199   1.987   3.825  0.1339 -0.5076 -0.3887
 1472TIP3    H1 4373   5.174   1.957   3.913  0.3944 -1.3558 -0.5942
 1472TIP3    H2 4374   5.124   1.964   3.770 -0.3758  0.7696 -0.2513
 1473TIP3   OH2 4375   7.893   4.620   4.272  0.0876  0.0996 -0.8933
 1473TIP3    H1 4376   7.879   4.675   4.195  0.4432 -0.5175 -1.4077
 1473TIP3    H2 4377   7.911   4.681   4.343 -1.4195  0.7526 -1.0237
 1474TIP3   OH2 4378   5.936   5.495   2.759 -0.6547  0.1153  0.0348
 1474TIP3    H1 4379   5.950   5.412   2.805 -1.0093 -1.0970 -1.9493
 1474TIP3    H2 4380   5.956   5.476   2.668 -1.8741  1.9093 -0.6627
 1475TIP3   OH2 4381   7.910   5.021   6.489 -0.1722 -0.3288  0.9062
 1475TIP3    H1 4382   7.858   4.962   6.543 -0.7924 -0.4216  0.2184
 1475TIP3    H2 4383   7.869   5.107   6.502 -1.5498 -0.6728 -0.9009
 1476TIP3   OH2 4384   3.911   3.035   4.600  0.1999  0.1442  0.4390
 1476TIP3    H1 4385   3.932   2.976   4.529  0.3769  2.1927 -1.3218
 1476TIP3    H2 4386   3.974   3.014   4.668  2.3070  0.3475 -1.3530
 1477TIP3   OH2 4387   5.267   1.428   5.419 -0.3794 -0.1019 -0.1871
 1477TIP3    H1 4388   5.220   1.480   5.354 -0.4355 -2.4894 -2.1936
 1477TIP3    H2 4389   5.209   1.427   5.496 -2.7993 -1.3140 -1.8897
 1478TIP3   OH2 4390   3.242   0.792   0.490 -0.3287 -0.0727  0.4065
 1478TIP3    H1 4391   3.200   0.782   0.404 -1.6030  0.6686  0.9171
 1478TIP3    H2 4392   3.262   0.885   0.496 -0.6174 -0.0469  1.0727
 1479TIP3   OH2 4393   6.278   1.929   0.116 -0.4279 -1.0499  0.6273
 1479TIP3    H1 4394   6.215   1.956   0.049 -1.3172 -1.8168  1.1323
 1479TIP3    H2 4395   6.311   1.845   0.084  0.6986 -0.4461  0.1436
 1480TIP3   OH2 4396   2.510   4.119   2.617 -0.0856 -0.2524  0.3011
 1480TIP3    H1 4397   2.546   4.198   2.575  1.7311 -1.2980 -0.2178
 1480TIP3    H2 4398   2.526   4.049   2.554 -0.8212 -1.1993  1.1407
 1481TIP3   OH2 4399   1.659   6.800   0.934 -0.5067 -0.2429  0.4060
 1481TIP3    H1 4400   1.731   6.822   0.993  0.0680 -0.2250 -0.2904
 1481TIP3    H2 4401   1.669   6.860   0.861 -0.2205 -1.3370 -0.4882
 1482TIP3   OH2 4402   0.247   3.482   5.118 -0.6672  0.0165 -0.2197
 1482TIP3    H1 4403   0.251   3.465   5.024 -0.3414  0.2638 -0.2527
 1482TIP3    H2 4404   0.336   3.463   5.149 -0.2545  1.6994 -0.2735
 1483TIP3   OH2 4405   1.936   6.340   3.851  0.2133 -0.4828 -0.2088
 1483TIP3    H1 4406   1.989   6.351   3.772  0.2861 -1.3180 -0.2911
 1483TIP3    H2 4407   1.864   6.283   3.823  0.0073 -0.4426  0.2284
 1484TIP3   OH2 4408   0.917   7.590   2.720 -0.4261  0.0495 -0.6028
 1484TIP3    H1 4409   0.951   7.517   2.771  1.5377  0.4133 -1.2671
 1484TIP3    H2 4410   0.904   7.554   2.632  0.9764  0.5308 -1.0484
 1485TIP3   OH2 4411   0.613   4.654   3.547 -0.0064  0.4129 -0.6500
 1485TIP3    H1 4412   0.572   4.710   3.482 -0.1509  2.0297  0.7661
 1485TIP3    H2 4413   0.691   4.702   3.575  0.0090 -0.1882  0.4078
 1486TIP3   OH2 4414   1.516   6.372   5.023 -0.5731  0.0580 -0.1399
 1486TIP3    H1 4415   1.561   6.436   4.969  2.0366  0.2043  2.0013
 1486TIP3    H2 4416   1.468   6.424   5.088 -0.3913 -0.1510  0.1629
 1487TIP3   OH2 4417   2.897   0.273   5.238 -0.1362  0.3777 -0.1726
 1487TIP3    H1 4418   2.904   0.360   5.279  1.7005  0.4052 -0.4577
 1487TIP3    H2 4419   2.957   0.218   5.289 -0.3160 -0.4146 -0.7941
 1488TIP3   OH2 4420   6.444   1.421   4.954 -0.2551 -0.2838  0.4814
 1488TIP3    H1 4421   6.496   1.459   4.883  0.4024  0.2456  1.2390
 1488TIP3    H2 4422   6.483   1.455   5.034 -0.6679 -1.2803  1.1263
 1489TIP3   OH2 4423   7.044   2.646   5.093 -0.1099 -0.1247 -0.0547
 1489TIP3    H1 4424   7.069   2.588   5.020  0.0243 -0.6966  0.4412
 1489TIP3    H2 4425   7.043   2.589   5.170  0.5325  0.6477  0.5367
 1490TIP3   OH2 4426   7.404   7.765   5.430 -0.3672 -0.6195  0.2094
 1490TIP3    H1 4427   7.357   7.807   5.359  0.5529  2.9964  1.5112
 1490TIP3    H2 4428   7.340   7.706   5.470 -2.4563  0.9975 -0.5931
 1491TIP3   OH2 4429   8.262   5.174   6.711  0.8214 -0.4666 -0.2497
 1491TIP3    H1 4430   8.223   5.201   6.794 -1.4824 -1.1065 -1.0451
 1491TIP3    H2 4431   8.338   5.231   6.700  0.1430  0.8280  1.4483
 1492TIP3   OH2 4432   0.708   2.278   3.004 -0.1034  0.5952  0.7436
 1492TIP3    H1 4433   0.741   2.351   3.056  2.2488  0.0016  0.2103
 1492TIP3    H2 4434   0.672   2.217   3.068  0.1138  1.1495  1.4019
 1493TIP3   OH2 4435   6.599   4.055   5.470  0.1927  0.3140 -0.9911
 1493TIP3    H1 4436   6.529   4.027   5.529  0.1958 -0.0318 -1.1543
 1493TIP3    H2 4437   6.657   4.106   5.526  0.0319  0.2497 -0.7626
 1494TIP3   OH2 4438   7.134   3.468   4.794  0.1573  0.1135  0.5608
 1494TIP3    H1 4439   7.097   3.556   4.788  0.8653  0.3164 -1.7837
 1494TIP3    H2 4440   7.082   3.415   4.734  2.2579 -0.0634 -1.2309
 1495TIP3   OH2 4441   7.063   3.880   4.927  0.4082 -0.2695 -0.2323
 1495TIP3    H1 4442   7.067   3.939   4.852 -0.5307  1.6236  1.1225
 1495TIP3    H2 4443   6.973   3.848   4.927  0.4798 -0.4717 -0.0566
 1496TIP3   OH2 4444   5.734   0.337   0.078 -0.3356 -0.3739  0.2631
 1496TIP3    H1 4445   5.724   0.338   0.174  0.3912  1.5577  0.3518
 1496TIP3    H2 4446   5.828   0.339   0.064 -0.4031 -1.5404 -0.5352
 1497TIP3   OH2 4447   3.305   6.912   2.062 -0.1744 -0.3573 -0.5754
 1497TIP3    H1 4448   3.293   6.983   1.999 -2.2731 -1.2605 -1.3061
 1497TIP3    H2 4449   3.340   6.840   2.011  0.9565 -0.1998 -0.0490
 1498TIP3   OH2 4450   1.345   1.899   5.348 -0.1247 -0.1323 -0.0329
 1498TIP3    H1 4451   1.405   1.846   5.296  1.7833  1.7923  0.0601
 1498TIP3    H2 4452   1.320   1.842   5.421  0.9471 -1.2627 -0.5115
 1499TIP3   OH2 4453   3.495   1.206   6.449  0.2961 -0.1316 -0.0964
 1499TIP3    H1 4454   3.571   1.153   6.475 -0.9780 -3.0110 -1.7898
 1499TIP3    H2 4455   3.423   1.173   6.502 -0.2294  1.1215  0.0042
 1500TIP3   OH2 4456   4.952   5.747   1.269  0.2567 -0.2272 -0.1395
 1500TIP3    H1 4457   5.007   5.807   1.320 -0.8475  0.4743  0.2499
 1500TIP3    H2 4458   5.010   5.716   1.199  1.8918 -1.4057  1.6252
 1501TIP3   OH2 4459   6.879   6.357   4.678 -0.4680  0.2930 -0.3458
 1501TIP3    H1 4460   6.788   6.332   4.690 -0.5804  0.8442 -0.0129
 1501TIP3    H2 4461   6.925   6.319   4.752 -0.5256  0.4984 -0.2040
 1502TIP3   OH2 4462   0.093   3.211   6.716  0.0896 -0.1021  0.4151
 1502TIP3    H1 4463   0.054   3.160   6.645  2.8976 -1.9685  0.0474
 1502TIP3    H2 4464   0.103   3.299   6.680  0.2540 -0.7003 -1.0610
 1503TIP3   OH2 4465   6.971   0.591   1.799  0.6796  0.4271  0.2397
 1503TIP3    H1 4466   6.948   0.667   1.747  2.4536  0.0184 -1.2256
 1503TIP3    H2 4467   6.985   0.521   1.736 -0.5944 -1.0874  1.5261
 1504TIP3   OH2 4468   6.893   3.522   0.161  0.1694 -0.1255 -0.5904
 1504TIP3    H1 4469   6.960   3.587   0.185 -0.9898  0.1921  2.0980
 1504TIP3    H2 4470   6.830   3.572   0.109  0.5983  0.2354 -0.7821
 1505TIP3   OH2 4471   2.956   1.923   1.706  0.0423 -0.1631 -0.5141
 1505TIP3    H1 4472   2.860   1.920   1.708 -0.0286  0.0945 -2.4238
 1505TIP3    H2 4473   2.982   1.904   1.797 -1.7454 -2.4857 -0.3865
 1506TIP3   OH2 4474   1.797   4.958   0.944  0.1224 -0.0899  0.8226
 1506TIP3    H1 4475   1.744   4.920   1.014 -0.5495  0.0159  0.3867
 1506TIP3    H2 4476   1.734   5.008   0.891  0.4888 -0.7213 -0.2509
 1507TIP3   OH2 4477   0.447   6.099   0.901  0.0354  0.2669  0.4381
 1507TIP3    H1 4478   0.502   6.022   0.890  0.0044  0.1756  0.9201
 1507TIP3    H2 4479   0.484   6.164   0.841 -0.2915 -0.3013 -0.4095
 1508TIP3   OH2 4480   6.033   1.379   1.645 -0.0380  0.0854  0.4306
 1508TIP3    H1 4481   6.056   1.464   1.682  0.2744 -0.0857  0.6428
 1508TIP3    H2 4482   6.000   1.398   1.557  1.0438  0.3465  0.0598
 1509TIP3   OH2 4483   6.027   1.865   1.292  0.2781  0.2550  0.1511
 1509TIP3    H1 4484   6.012   1.960   1.285 -0.3225  0.2490  1.1351
 1509TIP3    H2 4485   6.074   1.842   1.212 -0.7057  1.1620 -0.7251
 1510TIP3   OH2 4486   6.067   6.783   2.982  0.1386  0.3495 -1.0418
 1510TIP3    H1 4487   6.015   6.791   2.902  0.1387 -0.4523 -1.1328
 1510TIP3    H2 4488   6.003   6.761   3.050  0.4137 -1.3775 -1.2918
 1511TIP3   OH2 4489   0.044   2.782   4.108 -0.1246 -0.6126 -0.2782
 1511TIP3    H1 4490  -0.024   2.835   4.066 -0.7863 -1.6858 -0.6346
 1511TIP3    H2 4491   0.032   2.695   4.069  1.3205 -0.8741 -0.1691
 1512TIP3   OH2 4492   0.742   4.646   2.911 -0.0835 -0.1848  0.3412
 1512TIP3    H1 4493   0.748   4.741   2.913  1.0538 -0.2283 -0.2387
 1512TIP3    H2 4494   0.821   4.618   2.866 -0.9196 -1.3588 -0.4522
 1513TIP3   OH2 4495   3.368   2.146   3.611 -0.4575  0.4892 -0.2930
 1513TIP3    H1 4496   3.390   2.238   3.597 -0.9676  0.4868 -1.1604
 1513TIP3    H2 4497   3.305   2.125   3.542  1.3037 -1.1155 -1.5213
 1514TIP3   OH2 4498   1.218   0.861   2.693 -0.2973  0.2192  0.2782
 1514TIP3    H1 4499   1.278   0.852   2.619 -0.0257 -0.8352  0.5952
 1514TIP3    H2 4500   1.272   0.897   2.763 -0.1336 -0.3165  0.4337
 1515TIP3   OH2 4501   7.726   1.875   1.678  0.5283 -0.3799  0.2945
 1515TIP3    H1 4502   7.729   1.790   1.634 -0.5468 -0.4588  0.3552
 1515TIP3    H2 4503   7.689   1.934   1.612  3.1196  0.5409 -0.4865
 1516TIP3   OH2 4504   6.317   5.662   5.738 -0.3199  0.3139  0.0193
 1516TIP3    H1 4505   6.297   5.603   5.666  0.4992  0.4797 -0.3603
 1516TIP3    H2 4506   6.270   5.742   5.718  0.7370  0.7301 -0.8989
 1517TIP3   OH2 4507   2.666   1.233   5.016 -0.0886  0.0972 -0.1084
 1517TIP3    H1 4508   2.694   1.192   4.934  0.1458 -0.1848  0.1072
 1517TIP3    H2 4509   2.575   1.205   5.027 -0.1681  0.2620 -0.3490
 1518TIP3   OH2 4510   2.175   1.718   0.727 -0.3755  0.1196 -0.1346
 1518TIP3    H1 4511   2.115   1.727   0.801  0.6477  1.2160  0.5902
 1518TIP3    H2 4512   2.221   1.635   0.743  0.5099  0.8049  0.9842
 1519TIP3   OH2 4513   0.639   0.215   6.771 -0.1268 -0.3636  0.5081
 1519TIP3    H1 4514   0.556   0.175   6.745 -0.0090  0.3412 -1.0884
 1519TIP3    H2 4515   0.697   0.199   6.696  0.9602 -0.2349  1.3092
 1520TIP3   OH2 4516   4.500   0.977   3.825 -0.2925 -0.4706 -0.1906
 1520TIP3    H1 4517   4.490   0.884   3.805 -1.2631 -0.6156  0.8975
 1520TIP3    H2 4518   4.591   0.985   3.855 -1.0619 -1.7476  2.9322
 1521TIP3   OH2 4519   2.099   1.213   1.998  0.3208  0.4127  0.0513
 1521TIP3    H1 4520   2.097   1.277   1.927  0.5761  2.5226  1.8528
 1521TIP3    H2 4521   2.170   1.154   1.975 -0.0255  0.6345 -1.7571
 1522TIP3   OH2 4522   4.689   5.145   2.563 -0.1683  0.0085  0.0644
 1522TIP3    H1 4523   4.765   5.087   2.561  0.5709  0.7338  2.6607
 1522TIP3    H2 4524   4.620   5.092   2.602 -1.3149 -0.8653 -2.9032
 1523TIP3   OH2 4525   2.141   4.458   6.086 -0.0823 -0.6591 -0.0892
 1523TIP3    H1 4526   2.088   4.526   6.126  0.0895 -1.0354  0.8130
 1523TIP3    H2 4527   2.217   4.504   6.049  0.3736 -0.4264  1.1061
 1524TIP3   OH2 4528   1.798   6.373   6.786  0.7237  0.3329  0.3113
 1524TIP3    H1 4529   1.810   6.368   6.691  0.2013 -0.5150  0.2820
 1524TIP3    H2 4530   1.752   6.456   6.799  1.7393  0.9729 -0.0687
 1525TIP3   OH2 4531   2.596   6.333   5.589 -0.0119  0.2641  0.6176
 1525TIP3    H1 4532   2.631   6.418   5.616  0.7231  0.5892 -1.2299
 1525TIP3    H2 4533   2.657   6.270   5.627 -1.2083  0.4150  3.0086
 1526TIP3   OH2 4534   7.026   1.922   1.467 -0.5252 -0.0604 -0.3126
 1526TIP3    H1 4535   7.107   1.874   1.485 -0.5626 -0.6954 -1.7277
 1526TIP3    H2 4536   7.048   1.981   1.395 -1.1282  0.3182 -0.1916
 1527TIP3   OH2 4537   5.474   3.598   5.831 -0.0861  0.5094 -0.1925
 1527TIP3    H1 4538   5.420   3.537   5.880 -1.4676  0.1802 -2.0047
 1527TIP3    H2 4539   5.439   3.684   5.853 -0.5113  0.3848 -0.3695
 1528TIP3   OH2 4540   6.368   1.340   3.193  0.7284  0.1251 -0.1401
 1528TIP3    H1 4541   6.383   1.265   3.251  0.5672  0.0548 -0.1860
 1528TIP3    H2 4542   6.450   1.351   3.146  0.5857 -0.3597 -0.5142
 1529TIP3   OH2 4543   2.666   4.222   1.575  0.5519  0.2457  0.1142
 1529TIP3    H1 4544   2.641   4.302   1.530  2.7217  0.9791  0.0844
 1529TIP3    H2 4545   2.748   4.244   1.619 -0.5657 -0.9561  3.0371
 1530TIP3   OH2 4546   0.092   1.120   5.557 -0.0374 -0.2250  0.0447
 1530TIP3    H1 4547   0.179   1.080   5.554 -0.7546 -1.8872 -0.0357
 1530TIP3    H2 4548   0.053   1.100   5.472 -1.5624 -2.1928  1.1043
 1531TIP3   OH2 4549   6.861   1.539   6.587 -0.3995 -0.1004  0.3169
 1531TIP3    H1 4550   6.910   1.519   6.507 -0.4761 -1.0647  0.4992
 1531TIP3    H2 4551   6.929   1.553   6.653 -0.3481 -0.1085  0.2664
 1532TIP3   OH2 4552   5.074   3.638   2.117  0.3208  0.0220  0.2027
 1532TIP3    H1 4553   5.045   3.622   2.028  1.5254 -0.3756 -0.1396
 1532TIP3    H2 4554   5.010   3.699   2.153 -0.0824  0.3291 -0.9901
 1533TIP3   OH2 4555   3.894   1.405   2.212 -0.5080  0.1570 -0.4372
 1533TIP3    H1 4556   3.944   1.405   2.294  1.4160 -1.0267 -1.5303
 1533TIP3    H2 4557   3.811   1.448   2.234 -0.1454 -0.3379  2.1591
 1534TIP3   OH2 4558   4.868   3.366   2.363 -0.0518  0.0206 -0.4098
 1534TIP3    H1 4559   4.836   3.450   2.396 -0.1928 -0.5026  0.8137
 1534TIP3    H2 4560   4.954   3.356   2.403 -0.2373 -0.6382 -0.1695
 1535TIP3   OH2 4561   5.150   7.275   2.425 -0.8734  0.6993 -0.9643
 1535TIP3    H1 4562   5.160   7.214   2.498 -0.7322  2.3928  0.5206
 1535TIP3    H2 4563   5.082   7.237   2.370 -1.2057 -0.4731  0.2214
 1536TIP3   OH2 4564   7.858   1.361   2.254  0.5457 -0.2371  0.0321
 1536TIP3    H1 4565   7.905   1.292   2.207  1.3948 -0.0659  0.5946
 1536TIP3    H2 4566   7.868   1.337   2.346 -0.8516 -0.4182  0.1628
 1537TIP3   OH2 4567   1.991   6.802   2.176 -0.3704 -0.3575 -0.2522
 1537TIP3    H1 4568   1.962   6.871   2.236  1.5441 -1.4432  2.0821
 1537TIP3    H2 4569   1.935   6.813   2.099 -1.1284  2.8503  0.5804
 1538TIP3   OH2 4570   6.312   5.090   4.728 -0.0669  0.2256  0.8074
 1538TIP3    H1 4571   6.358   5.023   4.677 -2.0548 -1.6275  1.3021
 1538TIP3    H2 4572   6.381   5.131   4.780  1.3199 -0.9791  0.0153
 1539TIP3   OH2 4573   2.889   3.071   3.637  0.8954  0.4314 -0.4500
 1539TIP3    H1 4574   2.857   2.982   3.619  1.5175  0.0844  0.1153
 1539TIP3    H2 4575   2.911   3.069   3.730 -0.7000  1.6802  0.0093
 1540TIP3   OH2 4576   3.389   4.941   2.016  0.1452 -0.5707  0.0431
 1540TIP3    H1 4577   3.425   5.015   2.065 -0.2546 -1.5056  1.8487
 1540TIP3    H2 4578   3.330   4.980   1.953 -0.0580  0.6579  0.9531
 1541TIP3   OH2 4579   0.540   6.289   5.644  0.0027  0.4990 -0.4686
 1541TIP3    H1 4580   0.471   6.278   5.709 -1.4923  4.0253 -1.2443
 1541TIP3    H2 4581   0.517   6.228   5.574 -2.2578  1.4222 -0.5997
 1542TIP3   OH2 4582   6.981   0.770   3.259  0.5962  0.8407  0.2895
 1542TIP3    H1 4583   6.895   0.760   3.301  0.7666  1.0850  0.7040
 1542TIP3    H2 4584   7.043   0.767   3.331  1.2063 -2.2180 -0.2343
 1543TIP3   OH2 4585   0.943   0.583   5.795 -0.0736 -0.1852 -0.2747
 1543TIP3    H1 4586   0.912   0.553   5.881 -0.1058  0.5477 -0.0241
 1543TIP3    H2 4587   1.030   0.544   5.786  0.0486 -0.0395  0.2238
 1544TIP3   OH2 4588   6.616   5.005   5.864  0.1927 -0.6908 -0.0482
 1544TIP3    H1 4589   6.711   5.007   5.871  0.2574 -3.4673  0.8324
 1544TIP3    H2 4590   6.586   4.977   5.951 -1.3425 -1.0726 -0.6702
 1545TIP3   OH2 4591   7.681   6.521   4.110  0.3362  0.5711 -0.1634
 1545TIP3    H1 4592   7.694   6.426   4.105  0.1447  0.5568 -0.4305
 1545TIP3    H2 4593   7.663   6.547   4.019  2.1695  1.1340 -0.4077
 1546TIP3   OH2 4594   5.943   0.417   2.009 -0.0039  0.0640  0.2789
 1546TIP3    H1 4595   5.949   0.418   1.914 -1.8497  2.2628  0.0980
 1546TIP3    H2 4596   5.881   0.346   2.029 -0.2099  0.1008 -0.2202
 1547TIP3   OH2 4597   6.888   2.796   1.044  0.0177 -0.5119 -0.4474
 1547TIP3    H1 4598   6.846   2.792   0.958  0.3891 -1.4836 -0.5878
 1547TIP3    H2 4599   6.980   2.775   1.027  0.9233  2.7632 -0.3239
 1548TIP3   OH2 4600   2.324   0.819   4.310 -0.3275 -0.0831 -0.2974
 1548TIP3    H1 4601   2.273   0.900   4.304  1.3041  0.9820 -0.3985
 1548TIP3    H2 4602   2.278   0.758   4.254 -1.7966  0.6528  0.0454
 1549TIP3   OH2 4603   6.333   0.778   5.863 -0.3617  0.2985  0.0248
 1549TIP3    H1 4604   6.314   0.833   5.939  0.9211  0.4688  0.2449
 1549TIP3    H2 4605   6.360   0.839   5.794 -4.3363  0.4796 -1.6371
 1550TIP3   OH2 4606   1.955   1.465   2.984 -0.0849 -0.1521 -0.2241
 1550TIP3    H1 4607   2.015   1.433   3.052  0.5153  0.9752 -0.1897
 1550TIP3    H2 4608   1.870   1.469   3.027  0.2913  0.5625  0.4851
 1551TIP3   OH2 4609   7.596   6.754   6.175 -0.2171 -0.0945 -0.3549
 1551TIP3    H1 4610   7.659   6.790   6.238 -1.3336 -1.1862  1.4747
 1551TIP3    H2 4611   7.558   6.679   6.219 -2.2148  0.0302 -1.7289
 1552TIP3   OH2 4612   7.628   1.523   4.453 -0.0860  0.5169 -0.0055
 1552TIP3    H1 4613   7.679   1.601   4.429  0.8244 -0.0436  0.0792
 1552TIP3    H2 4614   7.680   1.449   4.423 -1.1296 -0.0715 -0.4414
 1553TIP3   OH2 4615   2.475   5.802   4.411 -0.2010 -0.0027  0.0169
 1553TIP3    H1 4616   2.437   5.839   4.491 -0.5304 -0.0565 -0.1115
 1553TIP3    H2 4617   2.570   5.809   4.424 -0.2447 -0.3386  0.5653
 1554TIP3   OH2 4618   8.173   7.602   0.626  0.1455 -0.3201 -0.0958
 1554TIP3    H1 4619   8.080   7.579   0.624 -0.5632  2.0976  0.7818
 1554TIP3    H2 4620   8.176   7.681   0.680  2.7761 -0.5092  0.1503
 1555TIP3   OH2 4621   0.179   1.105   4.659 -0.0805  0.7094  0.7623
 1555TIP3    H1 4622   0.142   1.167   4.722  1.2970  2.6764 -0.2731
 1555TIP3    H2 4623   0.176   1.152   4.575 -0.1653 -1.1418 -0.3193
 1556TIP3   OH2 4624   4.850   4.063   3.066  0.0194  0.0351  0.1009
 1556TIP3    H1 4625   4.786   4.093   3.131 -0.5515  1.2812 -0.9723
 1556TIP3    H2 4626   4.871   4.142   3.016  1.0335 -0.7311 -0.7203
 1557TIP3   OH2 4627   6.969   5.849   2.540  0.1021 -0.3881  0.0251
 1557TIP3    H1 4628   6.957   5.787   2.468 -1.1195 -0.3842  0.1932
 1557TIP3    H2 4629   6.914   5.924   2.516  0.0949 -0.1682  0.7017
 1558TIP3   OH2 4630   5.037   6.339   0.422  0.5216 -0.5292  0.4537
 1558TIP3    H1 4631   5.009   6.281   0.351 -2.1816  1.1839 -0.0237
 1558TIP3    H2 4632   4.974   6.323   0.492  1.4915 -0.2257  1.4079
 1559TIP3   OH2 4633   1.927   5.289   4.902  0.1456 -0.4537 -0.1547
 1559TIP3    H1 4634   1.879   5.253   4.828  1.3430 -1.6272 -0.4071
 1559TIP3    H2 4635   2.017   5.297   4.870  1.0097 -2.4158  1.5919
 1560TIP3   OH2 4636   0.574   3.989   0.836 -0.1096 -0.2441 -0.2883
 1560TIP3    H1 4637   0.505   3.929   0.807 -1.0424  0.6666 -0.0131
 1560TIP3    H2 4638   0.564   3.992   0.931 -0.0729  0.3630 -0.3043
 1561TIP3   OH2 4639   7.442   2.751   2.261 -0.2529 -0.7063  0.1924
 1561TIP3    H1 4640   7.534   2.727   2.273 -0.3800 -1.3598 -0.0932
 1561TIP3    H2 4641   7.443   2.846   2.248  0.0664 -0.1818  3.4386
 1562TIP3   OH2 4642   6.484   3.585   2.442 -0.6620  0.5793 -0.0072
 1562TIP3    H1 4643   6.438   3.503   2.425 -0.5417  0.6305 -0.6081
 1562TIP3    H2 4644   6.441   3.621   2.520 -1.1706  0.2804 -0.1475
 1563TIP3   OH2 4645   2.353   6.639   5.638  0.6348  0.4460 -0.2940
 1563TIP3    H1 4646   2.437   6.655   5.595 -0.2266  0.5777 -2.0088
 1563TIP3    H2 4647   2.299   6.714   5.615 -0.6747 -0.7193 -1.1806
 1564TIP3   OH2 4648   3.675   0.355   6.586  0.4573  0.0823 -0.3040
 1564TIP3    H1 4649   3.698   0.264   6.569 -0.3780 -0.1265 -0.3732
 1564TIP3    H2 4650   3.746   0.406   6.546 -0.3333 -0.4679 -2.5802
 1565TIP3   OH2 4651   3.100   7.358   1.590 -0.1229 -0.4035 -0.5388
 1565TIP3    H1 4652   3.110   7.372   1.496 -0.6809  0.2263 -0.5166
 1565TIP3    H2 4653   3.009   7.382   1.608  0.3150  0.7026  0.3564
 1566TIP3   OH2 4654   1.122   5.698   2.925 -0.0471 -0.3293 -0.1067
 1566TIP3    H1 4655   1.105   5.674   3.016 -1.6817  0.6880 -0.1143
 1566TIP3    H2 4656   1.093   5.621   2.875 -2.8731  0.5286  0.0326
 1567TIP3   OH2 4657   0.715   6.768   6.491 -0.3465 -0.7502 -0.0418
 1567TIP3    H1 4658   0.721   6.774   6.396  0.9867  0.3888  0.0822
 1567TIP3    H2 4659   0.782   6.828   6.524 -2.0877  0.4082  1.6266
 1568TIP3   OH2 4660   0.690   6.367   0.192  0.1862 -0.0636  0.1400
 1568TIP3    H1 4661   0.693   6.396   0.283 -0.4909  0.0215  0.1393
 1568TIP3    H2 4662   0.614   6.308   0.189 -0.1787  0.4425 -0.5185
 1569TIP3   OH2 4663   5.263   6.612   3.004  0.0485 -0.0151 -0.5087
 1569TIP3    H1 4664   5.171   6.620   2.983 -0.2260  0.1121  0.6754
 1569TIP3    H2 4665   5.306   6.596   2.920 -1.0587 -0.2010 -1.0511
 1570TIP3   OH2 4666   1.199   2.486   0.919  0.5723  0.2081 -0.0721
 1570TIP3    H1 4667   1.248   2.563   0.890  0.3358  0.6848  0.7720
 1570TIP3    H2 4668   1.207   2.486   1.014  0.3236 -0.6519 -0.0387
 1571TIP3   OH2 4669   7.460   6.129   5.905 -0.5451  0.0042  0.5025
 1571TIP3    H1 4670   7.539   6.075   5.897 -0.1692  0.5525  0.4453
 1571TIP3    H2 4671   7.395   6.084   5.852 -0.0363 -0.0293 -0.1080
 1572TIP3   OH2 4672   6.389   1.373   6.675 -0.0420 -0.3001 -0.1898
 1572TIP3    H1 4673   6.412   1.406   6.762  1.2581  1.1486 -1.0380
 1572TIP3    H2 4674   6.455   1.411   6.617  0.4783 -2.9648 -1.5314
 1573TIP3   OH2 4675   7.540   1.384   1.368  0.2940 -0.4652  0.4045
 1573TIP3    H1 4676   7.539   1.477   1.346  0.4533 -0.2469  1.2806
 1573TIP3    H2 4677   7.592   1.344   1.298  0.3787  0.1260  0.1173
 1574TIP3   OH2 4678   0.534   4.503   0.284 -0.4327 -0.4105 -0.0912
 1574TIP3    H1 4679   0.474   4.435   0.313 -0.7169  0.2366  0.8982
 1574TIP3    H2 4680   0.614   4.487   0.333 -0.7906  0.4686  0.8145
 1575TIP3   OH2 4681   3.287   1.834   0.431  0.3531 -0.4591 -0.5129
 1575TIP3    H1 4682   3.290   1.740   0.418  3.4898 -0.5853  0.2910
 1575TIP3    H2 4683   3.246   1.846   0.517  0.0884 -1.1074 -0.5506
 1576TIP3   OH2 4684   4.976   4.703   0.189 -0.1298 -0.2144  0.0916
 1576TIP3    H1 4685   5.002   4.677   0.100 -0.0717 -0.0821  0.0701
 1576TIP3    H2 4686   4.881   4.707   0.185 -0.0714  2.8379 -0.8452
 1577TIP3   OH2 4687   7.427   6.118   0.649  0.3061  0.1171  0.2137
 1577TIP3    H1 4688   7.458   6.095   0.562  2.4908 -0.3367  1.0462
 1577TIP3    H2 4689   7.390   6.036   0.683  0.3937  0.0263  0.0920
 1578TIP3   OH2 4690   1.239   2.154   0.054  0.9057 -0.4567  0.2317
 1578TIP3    H1 4691   1.183   2.077   0.044  0.3929 -0.2501  1.4045
 1578TIP3    H2 4692   1.273   2.149   0.143  1.8421  0.0345 -0.0884
 1579TIP3   OH2 4693   6.277   3.496   4.936 -0.5539 -0.2658  0.4293
 1579TIP3    H1 4694   6.311   3.465   5.020 -0.6927 -0.4300  0.4260
 1579TIP3    H2 4695   6.193   3.451   4.926 -1.3928  1.1051  1.0465
 1580TIP3   OH2 4696   3.670   3.603   1.705 -0.7855  0.2099 -0.0960
 1580TIP3    H1 4697   3.616   3.579   1.780 -0.8046  0.9842  0.1513
 1580TIP3    H2 4698   3.610   3.649   1.646 -0.4858  0.7836  0.0331
 1581TIP3   OH2 4699   5.662   4.289   2.965 -0.2948  0.0025  0.2029
 1581TIP3    H1 4700   5.718   4.327   2.897  0.1624  0.7702  0.9898
 1581TIP3    H2 4701   5.680   4.195   2.961  1.4427  0.2792  0.7493
 1582TIP3   OH2 4702   7.320   3.286   0.257 -0.3364 -0.1050  0.3457
 1582TIP3    H1 4703   7.324   3.256   0.348 -0.9104 -1.3049 -0.0015
 1582TIP3    H2 4704   7.354   3.375   0.259  0.7667 -0.5312  1.5494
 1583TIP3   OH2 4705   7.914   4.863   2.260 -0.1336 -0.0990 -0.8694
 1583TIP3    H1 4706   7.848   4.866   2.329 -0.9213  1.9859 -1.6486
 1583TIP3    H2 4707   7.996   4.844   2.307 -1.0674 -1.5537  0.2502
 1584TIP3   OH2 4708   0.849   4.785   3.622 -0.0846 -0.1966 -0.9289
 1584TIP3    H1 4709   0.924   4.816   3.572  1.8165  1.3482  2.5189
 1584TIP3    H2 4710   0.867   4.693   3.638  0.6534 -0.0336 -0.8095
 1585TIP3   OH2 4711   0.403   2.825   5.743  0.2668  0.9143  0.0404
 1585TIP3    H1 4712   0.314   2.788   5.744  0.0932  1.2255 -1.4876
 1585TIP3    H2 4713   0.394   2.910   5.785  0.0245  0.6067  0.6372
 1586TIP3   OH2 4714   3.595   0.863   1.410 -0.3415 -0.5420  0.0595
 1586TIP3    H1 4715   3.524   0.871   1.346 -0.9163 -0.1919  0.7380
 1586TIP3    H2 4716   3.574   0.926   1.478  0.7342 -0.2890  0.1769
 1587TIP3   OH2 4717   4.172   1.747   6.663 -0.4147  0.3645 -0.5357
 1587TIP3    H1 4718   4.223   1.745   6.582 -1.6222  1.2347 -1.3517
 1587TIP3    H2 4719   4.222   1.805   6.721 -1.1853  2.4827 -1.8742
 1588TIP3   OH2 4720   3.429   7.103   0.848  0.0503 -0.0319 -0.2568
 1588TIP3    H1 4721   3.334   7.091   0.852 -0.2536  1.9602 -0.3733
 1588TIP3    H2 4722   3.464   7.039   0.909 -1.4512  0.0006  0.6813
 1589TIP3   OH2 4723   5.448   7.393   5.482  0.1416 -0.4379 -0.1507
 1589TIP3    H1 4724   5.353   7.380   5.488  0.0564 -0.3866 -1.1646
 1589TIP3    H2 4725   5.460   7.440   5.399  0.7981  2.0881  1.2648
 1590TIP3   OH2 4726   3.308   0.677   5.543  0.0545  0.3321  0.6511
 1590TIP3    H1 4727   3.240   0.612   5.521  0.4572 -0.4204  1.5843
 1590TIP3    H2 4728   3.277   0.718   5.624 -0.2260  1.3700  0.0373
 1591TIP3   OH2 4729   0.127   3.241   4.484 -0.5470  0.4465  0.6227
 1591TIP3    H1 4730   0.057   3.197   4.533 -1.2573  1.7666  0.8272
 1591TIP3    H2 4731   0.158   3.174   4.423 -2.1118 -0.1358  0.3957
 1592TIP3   OH2 4732   8.228   6.199   0.449 -0.0071  0.8020  0.0607
 1592TIP3    H1 4733   8.270   6.147   0.381  1.8713  1.1719  0.8894
 1592TIP3    H2 4734   8.209   6.136   0.519 -2.0417  0.3999 -0.7896
 1593TIP3   OH2 4735   3.975   6.100   4.747  0.1061 -0.1762  0.1230
 1593TIP3    H1 4736   4.031   6.062   4.680  0.9662  1.0431  0.1297
 1593TIP3    H2 4737   4.008   6.063   4.829  0.5317  0.0997  0.0771
 1594TIP3   OH2 4738   7.517   6.552   1.282 -0.0735 -0.6510 -0.0397
 1594TIP3    H1 4739   7.424   6.549   1.306 -0.3070  0.8310 -0.6633
 1594TIP3    H2 4740   7.563   6.557   1.365 -0.6504  0.2982  0.2295
 1595TIP3   OH2 4741   2.851   3.673   5.151 -0.3886 -0.3972  0.7716
 1595TIP3    H1 4742   2.862   3.583   5.120  0.4619 -0.6626  1.8038
 1595TIP3    H2 4743   2.780   3.667   5.214 -0.2069 -0.3766  0.9770
 1596TIP3   OH2 4744   5.996   5.659   3.835 -0.4524  0.3040 -0.0336
 1596TIP3    H1 4745   5.953   5.731   3.881  0.0933  1.0894 -0.7390
 1596TIP3    H2 4746   6.003   5.688   3.744 -0.8810 -0.9441 -0.4887
 1597TIP3   OH2 4747   6.890   1.889   5.787 -0.1073 -0.3516 -0.1788
 1597TIP3    H1 4748   6.841   1.972   5.782  4.0600  2.4803  0.7403
 1597TIP3    H2 4749   6.878   1.861   5.878 -0.3528  0.0650 -0.0746
 1598TIP3   OH2 4750   5.073   0.321   2.916 -0.4185  0.3897 -0.0326
 1598TIP3    H1 4751   5.122   0.243   2.888  0.9716  1.9360 -2.2236
 1598TIP3    H2 4752   5.123   0.356   2.990 -0.0314  0.1873 -0.1954
 1599TIP3   OH2 4753   3.453   4.610   2.589  0.0804 -0.3781  0.2107
 1599TIP3    H1 4754   3.392   4.675   2.623  0.5680  0.4696 -0.5096
 1599TIP3    H2 4755   3.505   4.583   2.665  0.6465  0.9292  0.3145
 1600TIP3   OH2 4756   2.399   1.446   5.333 -0.3553 -0.0304 -0.0002
 1600TIP3    H1 4757   2.451   1.468   5.255 -1.4020 -0.2888 -0.7904
 1600TIP3    H2 4758   2.463   1.408   5.394  0.1063 -2.1410 -1.6780
 1601TIP3   OH2 4759   4.565   4.691   5.433  0.1239  0.6365  0.2581
 1601TIP3    H1 4760   4.550   4.598   5.451  0.2301  0.4963 -0.3646
 1601TIP3    H2 4761   4.604   4.725   5.514 -0.1086  0.1887  0.5609
 1602TIP3   OH2 4762   2.963   5.247   3.712  0.2905 -0.1151 -0.1210
 1602TIP3    H1 4763   2.909   5.275   3.638  0.3392 -1.1311 -0.5437
 1602TIP3    H2 4764   2.937   5.157   3.728  0.4339  0.0250  0.9733
 1603TIP3   OH2 4765   5.207   1.848   5.371 -0.4000  0.3937 -0.0743
 1603TIP3    H1 4766   5.174   1.938   5.376 -0.3520  0.4116 -0.0749
 1603TIP3    H2 4767   5.131   1.796   5.346 -0.5934  0.3439  0.5799
 1604TIP3   OH2 4768   4.677   5.561   6.571 -0.3674  0.2842  0.5334
 1604TIP3    H1 4769   4.615   5.550   6.643 -1.2892  1.0362 -0.1103
 1604TIP3    H2 4770   4.751   5.606   6.610 -0.5306  0.0059  1.1743
 1605TIP3   OH2 4771   0.382   6.341   2.929 -0.0935 -0.4066  1.2043
 1605TIP3    H1 4772   0.293   6.309   2.923 -1.1625  2.1548  1.8699
 1605TIP3    H2 4773   0.418   6.330   2.841 -1.4976 -0.3196  0.5911
 1606TIP3   OH2 4774   4.374   1.284   1.932 -0.1351 -0.0749 -0.3114
 1606TIP3    H1 4775   4.354   1.265   1.840 -0.0744  1.4272 -0.6590
 1606TIP3    H2 4776   4.342   1.207   1.979 -1.1222 -0.4216 -1.4858
 1607TIP3   OH2 4777   3.256   7.239   4.172  0.4356  0.5452  0.2142
 1607TIP3    H1 4778   3.274   7.333   4.173  0.2636  0.5691  1.4397
 1607TIP3    H2 4779   3.258   7.212   4.263 -1.2002 -0.3235  0.0344
 1608TIP3   OH2 4780   7.353   3.826   0.546 -0.2320  0.5635  0.1083
 1608TIP3    H1 4781   7.441   3.859   0.532 -0.5916  1.5113  0.0184
 1608TIP3    H2 4782   7.299   3.904   0.560 -1.2079  0.0537 -0.6711
 1609TIP3   OH2 4783   0.774   4.040   1.696  0.2212 -0.2116  0.2549
 1609TIP3    H1 4784   0.830   4.117   1.689  1.8435 -1.2440  1.2306
 1609TIP3    H2 4785   0.695   4.072   1.740 -0.7568  1.6230 -2.5936
 1610TIP3   OH2 4786   4.998   1.146   3.162  0.1658 -0.2641 -0.6300
 1610TIP3    H1 4787   4.947   1.104   3.231  1.4213  1.4616  1.5051
 1610TIP3    H2 4788   4.938   1.212   3.125  0.5810  1.4269  1.5297
 1611TIP3   OH2 4789   1.327   1.343   6.748 -0.5650 -0.3452 -0.0019
 1611TIP3    H1 4790   1.265   1.363   6.818  0.7562 -0.8252  1.3514
 1611TIP3    H2 4791   1.299   1.399   6.675 -1.2965  1.0345  1.2758
 1612TIP3   OH2 4792   2.520   7.661   1.481 -0.3990 -0.0703  0.4253
 1612TIP3    H1 4793   2.484   7.742   1.444  0.8309  0.3905  0.1799
 1612TIP3    H2 4794   2.542   7.684   1.571  0.1337 -0.0778  0.2967
 1613TIP3   OH2 4795   1.677   0.908   6.466 -0.2485 -0.2559  0.6922
 1613TIP3    H1 4796   1.770   0.928   6.475 -0.3883 -0.2827  2.6150
 1613TIP3    H2 4797   1.640   0.985   6.422  0.5080  0.2505  0.9251
 1614TIP3   OH2 4798   4.635   2.383   6.748 -0.1279  0.1483  0.2625
 1614TIP3    H1 4799   4.541   2.400   6.755 -0.0069  0.5674  0.9508
 1614TIP3    H2 4800   4.657   2.407   6.658 -0.9681 -1.4816 -0.4212
 1615TIP3   OH2 4801   3.313   5.994   2.696  0.1384  0.0215  0.1611
 1615TIP3    H1 4802   3.366   6.012   2.774 -2.5473  1.0681  1.9322
 1615TIP3    H2 4803   3.223   6.005   2.727 -1.0789 -0.3976 -2.9404
 1616TIP3   OH2 4804   5.191   4.555   6.159 -0.0065 -0.1600 -0.3211
 1616TIP3    H1 4805   5.164   4.597   6.241 -0.1973 -0.1801 -0.3740
 1616TIP3    H2 4806   5.224   4.627   6.105 -1.1263  0.0608 -0.7403
 1617TIP3   OH2 4807   2.278   5.444   5.634 -0.1113  0.7437 -0.1334
 1617TIP3    H1 4808   2.199   5.449   5.688  0.4024 -3.2061  1.3268
 1617TIP3    H2 4809   2.349   5.469   5.693  0.0805  0.3682 -0.2004
 1618TIP3   OH2 4810   2.369   3.789   3.433  0.0966  0.4664  0.5433
 1618TIP3    H1 4811   2.432   3.781   3.505 -0.1787 -0.0380  0.7342
 1618TIP3    H2 4812   2.309   3.858   3.460 -0.2946 -0.0550  1.0237
 1619TIP3   OH2 4813   5.060   3.696   6.309 -0.4069 -0.1135  0.3268
 1619TIP3    H1 4814   5.008   3.736   6.379  2.4282 -1.5700  3.6085
 1619TIP3    H2 4815   5.128   3.761   6.289  0.1097 -0.5653  0.5896
 1620TIP3   OH2 4816   7.940   5.017   3.478  0.3604 -0.2082 -0.0754
 1620TIP3    H1 4817   7.930   5.092   3.536 -0.5618 -0.6442  0.3447
 1620TIP3    H2 4818   7.964   4.945   3.536 -0.6986 -0.6783 -0.2057
 1621TIP3   OH2 4819   7.956   5.441   6.026  0.1519 -0.2201 -0.2157
 1621TIP3    H1 4820   7.957   5.358   6.073 -0.7822 -0.4447 -0.5732
 1621TIP3    H2 4821   7.929   5.418   5.937 -0.1616  0.4787 -0.3069
 1622TIP3   OH2 4822   6.407   5.042   5.359  0.2083 -0.5184  0.0127
 1622TIP3    H1 4823   6.426   5.057   5.452 -1.1109 -0.1360  0.2335
 1622TIP3    H2 4824   6.410   5.129   5.319  0.9807 -0.7043 -0.3624
 1623TIP3   OH2 4825   8.190   2.037   4.615  0.4350 -0.1504  0.0275
 1623TIP3    H1 4826   8.221   2.084   4.692  0.3731 -1.5267  0.9166
 1623TIP3    H2 4827   8.113   2.086   4.586  0.8731  0.7839  0.3986
 1624TIP3   OH2 4828   5.570   0.982   3.254 -0.0282  0.4374  0.0834
 1624TIP3    H1 4829   5.497   1.027   3.296 -1.3579 -0.4347 -1.1766
 1624TIP3    H2 4830   5.573   1.019   3.165 -1.2069 -1.8630 -1.0157
 1625TIP3   OH2 4831   5.470   3.651   6.670 -0.8828  0.4871  0.1848
 1625TIP3    H1 4832   5.484   3.557   6.686 -1.3970  0.8633  3.7343
 1625TIP3    H2 4833   5.374   3.660   6.668 -0.8317  0.8819 -0.6806
 1626TIP3   OH2 4834   3.598   6.632   5.329 -0.1158 -0.4034  0.5279
 1626TIP3    H1 4835   3.593   6.568   5.258 -1.4166 -0.0341  0.2620
 1626TIP3    H2 4836   3.563   6.588   5.405 -1.8234  0.2130  0.1477
 1627TIP3   OH2 4837   3.383   2.406   3.555 -0.2581 -0.2553 -0.5168
 1627TIP3    H1 4838   3.358   2.392   3.464  0.8345  1.9884 -1.2514
 1627TIP3    H2 4839   3.324   2.476   3.585 -1.9737 -2.3192  1.2152
 1628TIP3   OH2 4840   7.284   4.278   6.216  0.0540 -0.4678  0.1626
 1628TIP3    H1 4841   7.351   4.281   6.147 -0.5597 -1.9497 -0.5348
 1628TIP3    H2 4842   7.298   4.194   6.260 -1.4487 -0.9121 -0.1314
 1629TIP3   OH2 4843   1.251   1.062   1.461 -0.1154 -0.1444 -0.1333
 1629TIP3    H1 4844   1.195   1.009   1.405 -0.5064  0.5404 -0.4081
 1629TIP3    H2 4845   1.324   1.005   1.484 -0.9171 -1.0563  0.2334
 1630TIP3   OH2 4846   2.176   7.327   4.895 -0.2509  0.4816 -0.0444
 1630TIP3    H1 4847   2.226   7.249   4.917 -1.3943 -0.2556  0.0366
 1630TIP3    H2 4848   2.225   7.400   4.934  0.2676 -0.3058  0.8039
 1631TIP3   OH2 4849   4.770   3.800   2.069 -0.5999 -0.8802  0.4808
 1631TIP3    H1 4850   4.741   3.811   2.159  0.2662 -0.2619  0.6899
 1631TIP3    H2 4851   4.831   3.872   2.054 -0.0752 -1.4775 -0.3225
 1632TIP3   OH2 4852   6.995   0.162   2.558  0.3605  0.3603 -0.1526
 1632TIP3    H1 4853   7.003   0.077   2.600  1.1851  0.5480  0.0784
 1632TIP3    H2 4854   6.913   0.197   2.591  0.5657  0.1305  0.6136
 1633TIP3   OH2 4855   0.274   7.111   2.262  0.0681  0.4635  0.0674
 1633TIP3    H1 4856   0.180   7.118   2.275 -0.0476  0.5798 -0.7930
 1633TIP3    H2 4857   0.309   7.093   2.349 -0.7226  0.6554  0.4291
 1634TIP3   OH2 4858   6.007   4.780   5.080 -0.0573  0.5745 -0.2637
 1634TIP3    H1 4859   6.031   4.733   5.000 -1.4784 -0.1621 -0.2932
 1634TIP3    H2 4860   6.082   4.769   5.138 -0.3546 -1.9088 -0.2209
 1635TIP3   OH2 4861   8.074   6.541   1.071  0.1881 -0.5294 -0.3272
 1635TIP3    H1 4862   8.069   6.556   0.977 -0.3398 -0.6159 -0.3199
 1635TIP3    H2 4863   8.090   6.628   1.108 -0.1395 -0.4083 -0.4634
 1636TIP3   OH2 4864   0.331   5.027   6.373  0.2004 -0.2886  0.3896
 1636TIP3    H1 4865   0.426   5.014   6.384  0.2196 -1.4561 -0.8807
 1636TIP3    H2 4866   0.320   5.122   6.371  1.4670 -0.1312 -0.2004
 1637TIP3   OH2 4867   4.069   7.630   3.639 -0.8711 -0.1403  0.1847
 1637TIP3    H1 4868   4.110   7.659   3.558 -0.1122  1.5819  1.1367
 1637TIP3    H2 4869   4.130   7.656   3.708 -1.5227 -1.5109  1.3300
 1638TIP3   OH2 4870   7.648   5.349   6.719 -0.3856 -0.4713 -0.1451
 1638TIP3    H1 4871   7.719   5.411   6.735 -1.7634  1.0860  0.1763
 1638TIP3    H2 4872   7.572   5.389   6.761 -1.5325 -1.9269 -0.7813
 1639TIP3   OH2 4873   4.251   6.498   1.883 -0.1303 -0.1445  0.6516
 1639TIP3    H1 4874   4.296   6.575   1.917  0.1025 -0.0562  0.1427
 1639TIP3    H2 4875   4.321   6.432   1.873 -0.4794 -0.7699  2.0668
 1640TIP3   OH2 4876   2.301   7.471   0.556 -0.0392 -0.2874  0.3939
 1640TIP3    H1 4877   2.263   7.546   0.602 -1.6588 -1.1090  0.4389
 1640TIP3    H2 4878   2.226   7.421   0.524  1.0147 -1.6879  0.0047
 1641TIP3   OH2 4879   2.649   2.163   5.262 -0.4484 -0.4771  0.3582
 1641TIP3    H1 4880   2.637   2.242   5.314 -1.0183  0.0119 -0.5048
 1641TIP3    H2 4881   2.697   2.104   5.320  1.0367  0.9095  0.6093
 1642TIP3   OH2 4882   6.382   5.515   0.644  0.4504  0.1265 -0.3614
 1642TIP3    H1 4883   6.329   5.447   0.685  0.6088  0.6274  0.6937
 1642TIP3    H2 4884   6.458   5.469   0.609  0.2957 -0.3109 -0.1224
 1643TIP3   OH2 4885   4.332   3.666   0.806 -0.1922  0.3752 -0.0844
 1643TIP3    H1 4886   4.260   3.616   0.768 -1.2105  0.8592  1.1121
 1643TIP3    H2 4887   4.410   3.636   0.759 -0.9765 -1.1719 -0.4830
 1644TIP3   OH2 4888   2.805   7.429   0.861 -0.5697 -0.0588  0.1204
 1644TIP3    H1 4889   2.785   7.465   0.775 -0.7232 -0.5888 -0.0722
 1644TIP3    H2 4890   2.779   7.497   0.922 -3.4392 -0.8074 -0.0823
 1645TIP3   OH2 4891   0.824   1.667   5.601  0.0158  0.1975 -0.1349
 1645TIP3    H1 4892   0.865   1.600   5.656 -0.7731 -0.8132 -0.7354
 1645TIP3    H2 4893   0.897   1.711   5.557  0.5452 -0.2339  0.3018
 1646TIP3   OH2 4894   1.564   3.505   4.160 -0.0275 -0.1449  0.7288
 1646TIP3    H1 4895   1.546   3.471   4.072  0.8177  0.3618  0.3449
 1646TIP3    H2 4896   1.479   3.533   4.194 -0.3220 -0.1376 -0.0081
 1647TIP3   OH2 4897   6.281   7.826   4.931  0.3623  0.2514 -0.2408
 1647TIP3    H1 4898   6.337   7.878   4.989  0.2471 -0.5949  0.6577
 1647TIP3    H2 4899   6.237   7.764   4.989 -1.0014  0.4519 -1.0242
 1648TIP3   OH2 4900   6.984   0.702   4.176 -0.0764  0.2601 -0.0215
 1648TIP3    H1 4901   7.038   0.771   4.137  1.6990  0.2439  2.2612
 1648TIP3    H2 4902   6.993   0.628   4.116  0.6779  0.9393 -0.7755
 1649TIP3   OH2 4903   5.734   2.553   2.884 -0.6345  0.2385  0.7091
 1649TIP3    H1 4904   5.801   2.607   2.925 -0.9175  0.5611  0.7491
 1649TIP3    H2 4905   5.652   2.599   2.901 -1.0241 -0.8058  1.7757
 1650TIP3   OH2 4906   7.820   5.283   1.320 -0.2366  0.1862  0.4251
 1650TIP3    H1 4907   7.915   5.273   1.313 -0.2460  0.5033 -0.2861
 1650TIP3    H2 4908   7.789   5.198   1.350  0.0440 -0.8155 -1.8641
 1651TIP3   OH2 4909   1.499   7.503   6.533  0.7376 -0.5013  0.4406
 1651TIP3    H1 4910   1.457   7.476   6.451  0.2630 -0.0781  0.5410
 1651TIP3    H2 4911   1.590   7.520   6.509  1.0707 -2.2058  0.3827
 1652TIP3   OH2 4912   6.004   4.461   1.396  0.2761 -0.2944  0.4636
 1652TIP3    H1 4913   6.012   4.531   1.461  2.8378  1.2664 -1.3567
 1652TIP3    H2 4914   6.081   4.407   1.410  0.0029 -0.8775 -0.2491
 1653TIP3   OH2 4915   4.539   1.578   2.523 -0.8027  0.9357 -0.1890
 1653TIP3    H1 4916   4.501   1.491   2.510 -0.5575  0.5587  1.4682
 1653TIP3    H2 4917   4.628   1.561   2.555 -0.9035  1.7841  0.5774
 1654TIP3   OH2 4918   5.004   6.472   4.968  0.1461 -0.2132  0.3990
 1654TIP3    H1 4919   5.037   6.527   4.897 -1.1919 -2.7860 -2.4520
 1654TIP3    H2 4920   5.082   6.448   5.018  0.8841  3.3046  1.2340
 1655TIP3   OH2 4921   7.230   3.388   1.850  0.0731 -0.0327 -0.1429
 1655TIP3    H1 4922   7.171   3.380   1.775 -0.8450  4.0426 -0.0621
 1655TIP3    H2 4923   7.314   3.415   1.812  0.2672 -0.2384  0.1360
 1656TIP3   OH2 4924   5.373   2.299   4.841  0.1250 -0.0396 -0.0003
 1656TIP3    H1 4925   5.358   2.291   4.935 -2.2506 -2.0043 -0.4341
 1656TIP3    H2 4926   5.433   2.228   4.820 -0.2900 -0.3659 -0.1081
 1657TIP3   OH2 4927   2.929   2.239   1.906  0.0710  0.3223 -0.0660
 1657TIP3    H1 4928   2.969   2.282   1.831  1.7170 -1.3721 -0.2467
 1657TIP3    H2 4929   2.955   2.147   1.897 -0.3338 -0.0673  2.1619
 1658TIP3   OH2 4930   1.025   6.055   0.774  0.4136 -0.0687  0.4193
 1658TIP3    H1 4931   1.002   6.119   0.707 -2.3982 -1.8366 -0.4729
 1658TIP3    H2 4932   0.970   6.078   0.849 -0.3490 -1.1277  0.2204
 1659TIP3   OH2 4933   1.978   2.228   0.070 -0.5166  0.3507  0.0138
 1659TIP3    H1 4934   2.013   2.314   0.096  0.9940 -0.4224  0.6333
 1659TIP3    H2 4935   1.940   2.192   0.150  0.4149 -0.2712  0.1953
 1660TIP3   OH2 4936   3.515   1.274   1.405 -0.1111 -0.2725  0.2774
 1660TIP3    H1 4937   3.570   1.315   1.472  0.8109  2.6946 -2.0648
 1660TIP3    H2 4938   3.574   1.262   1.330 -1.8692 -0.0512 -1.2254
 1661TIP3   OH2 4939   1.522   7.119   1.619 -0.4730  0.3405  0.5111
 1661TIP3    H1 4940   1.538   7.056   1.688  0.2854  0.8484  0.8221
 1661TIP3    H2 4941   1.604   7.169   1.614  0.6653 -1.5301 -2.7113
 1662TIP3   OH2 4942   2.245   3.734   5.603  0.3320  0.5309 -0.1983
 1662TIP3    H1 4943   2.259   3.796   5.531  0.7131  1.1116  0.3608
 1662TIP3    H2 4944   2.191   3.783   5.666  0.5808  0.2720  0.2173
 1663TIP3   OH2 4945   4.694   6.958   2.698  0.2480 -0.6402 -0.4027
 1663TIP3    H1 4946   4.638   7.035   2.702 -0.2450 -1.0321  2.0795
 1663TIP3    H2 4947   4.656   6.905   2.628 -0.3129  0.6760 -1.1326
 1664TIP3   OH2 4948   2.056   2.759   4.264 -0.1698 -0.3909  0.2777
 1664TIP3    H1 4949   2.011   2.838   4.233 -1.5722 -1.1873  0.1711
 1664TIP3    H2 4950   2.005   2.687   4.226  1.2132 -1.3511  0.1863
 1665TIP3   OH2 4951   5.510   0.984   4.192  0.0784 -0.1027  0.2189
 1665TIP3    H1 4952   5.488   1.065   4.239  0.7989 -1.4041  3.0392
 1665TIP3    H2 4953   5.539   1.014   4.106 -0.5624  2.5524  0.8065
 1666TIP3   OH2 4954   7.266   7.054   4.227 -0.2168  0.5890 -0.7174
 1666TIP3    H1 4955   7.346   7.030   4.181  1.1219  2.5530  0.4445
 1666TIP3    H2 4956   7.285   7.039   4.320 -1.1668  1.1224 -0.4111
 1667TIP3   OH2 4957   4.533   6.857   6.254  0.1637  0.1212 -0.2031
 1667TIP3    H1 4958   4.483   6.804   6.191  1.0796 -2.9318  1.4505
 1667TIP3    H2 4959   4.623   6.853   6.222  0.2367  0.7591 -0.0833
 1668TIP3   OH2 4960   5.921   1.466   5.986  0.1470  0.3722  0.7668
 1668TIP3    H1 4961   5.862   1.492   5.915  0.7463 -0.7280 -0.1642
 1668TIP3    H2 4962   6.006   1.455   5.943  0.6919  0.4245  1.8106
 1669TIP3   OH2 4963   7.430   3.579   0.936  0.7018 -0.2339 -0.2452
 1669TIP3    H1 4964   7.507   3.624   0.900 -0.2712  3.1308  1.4906
 1669TIP3    H2 4965   7.356   3.620   0.893 -0.2576 -0.5697  1.0423
 1670TIP3   OH2 4966   3.093   3.083   0.950 -0.5920  0.2227  0.1162
 1670TIP3    H1 4967   3.165   3.082   0.886 -1.7931  0.4589 -1.2955
 1670TIP3    H2 4968   3.020   3.042   0.904 -1.7840  1.2904  1.0012
 1671TIP3   OH2 4969   0.806   4.381   4.952  0.3174  0.7971  0.2481
 1671TIP3    H1 4970   0.802   4.289   4.928  1.5332  1.1859 -1.7163
 1671TIP3    H2 4971   0.717   4.403   4.980 -0.2145 -0.7409 -0.1469
 1672TIP3   OH2 4972   2.054   5.855   1.255  0.2192 -0.1673  0.1008
 1672TIP3    H1 4973   2.056   5.920   1.324 -2.1112 -0.3681  0.4274
 1672TIP3    H2 4974   2.056   5.905   1.173 -0.0415  0.2290  0.3396
 1673TIP3   OH2 4975   7.970   4.788   5.783 -0.1248  0.0810 -0.1922
 1673TIP3    H1 4976   7.966   4.718   5.848  1.0368 -0.4660 -0.7025
 1673TIP3    H2 4977   8.062   4.814   5.781 -0.2168  0.3729 -1.3262
 1674TIP3   OH2 4978   3.096   0.691   2.836 -0.5605  0.0805 -0.2478
 1674TIP3    H1 4979   3.115   0.677   2.743  2.2919 -2.5734  0.5563
 1674TIP3    H2 4980   3.048   0.613   2.863 -0.9661  0.6055  0.6139
 1675TIP3   OH2 4981   4.634   7.313   2.833 -0.4149  0.0077 -0.4339
 1675TIP3    H1 4982   4.713   7.351   2.872 -0.0880 -0.4681 -0.6209
 1675TIP3    H2 4983   4.613   7.238   2.889  0.2325 -0.8638 -1.3184
 1676TIP3   OH2 4984   0.761   2.930   6.059  0.1830 -0.2919  0.0902
 1676TIP3    H1 4985   0.732   2.907   5.971  0.2928 -1.0039  0.2331
 1676TIP3    H2 4986   0.727   3.018   6.074  0.1131 -0.1907 -0.6394
 1677TIP3   OH2 4987   1.518   2.987   6.351  0.3023 -0.2669 -0.2695
 1677TIP3    H1 4988   1.592   3.047   6.352  0.1036  0.0240  1.8209
 1677TIP3    H2 4989   1.548   2.911   6.401 -0.6984 -0.2690  0.3632
 1678TIP3   OH2 4990   0.427   4.049   4.506 -0.0627 -0.3195  0.7540
 1678TIP3    H1 4991   0.360   4.074   4.442 -0.2548 -0.5468  0.8645
 1678TIP3    H2 4992   0.466   4.132   4.534 -0.9709 -0.0978  1.4253
 1679TIP3   OH2 4993   2.117   3.421   1.811  0.2003 -0.0078  0.6791
 1679TIP3    H1 4994   2.160   3.502   1.837 -1.0024  0.7572  0.3513
 1679TIP3    H2 4995   2.184   3.354   1.822  0.6368  0.7029  2.8966
 1680TIP3   OH2 4996   3.776   6.544   3.815  0.1307 -0.4156 -0.3300
 1680TIP3    H1 4997   3.760   6.530   3.908  0.1733 -1.1126 -0.4201
 1680TIP3    H2 4998   3.822   6.628   3.811  0.3247 -0.4861  0.2952
 1681TIP3   OH2 4999   0.526   0.830   1.040 -0.3291  0.2753  0.3291
 1681TIP3    H1 5000   0.473   0.772   1.095 -0.2019 -1.3133 -1.1303
 1681TIP3    H2 5001   0.466   0.899   1.011 -1.2127 -0.6191 -0.0300
 1682TIP3   OH2 5002   3.734   1.689   4.306  0.0969 -0.3075  0.4651
 1682TIP3    H1 5003   3.701   1.776   4.285  1.9986  0.2334 -0.5472
 1682TIP3    H2 5004   3.794   1.703   4.379  0.8231 -0.6734 -0.0540
 1683TIP3   OH2 5005   6.076   1.936   5.483 -0.1091 -0.0306 -0.6535
 1683TIP3    H1 5006   6.160   1.981   5.490  0.1621 -0.7476  1.2171
 1683TIP3    H2 5007   6.095   1.846   5.510 -1.5114 -0.1452  0.0401
 1684TIP3   OH2 5008   1.066   2.913   2.209 -1.0690 -0.0946  0.2440
 1684TIP3    H1 5009   1.013   2.986   2.242 -1.3679  0.0737 -0.5777
 1684TIP3    H2 5010   1.073   2.929   2.115 -0.0043 -0.4066  0.2511
 1685TIP3   OH2 5011   1.825   3.923   0.597  0.0394  0.1576  0.2084
 1685TIP3    H1 5012   1.881   3.858   0.555 -0.5725 -1.7149  2.1469
 1685TIP3    H2 5013   1.740   3.881   0.606 -0.8693  1.8439  0.0612
 1686TIP3   OH2 5014   2.382   2.620   2.162  0.6451  0.1395 -0.4331
 1686TIP3    H1 5015   2.424   2.596   2.080  1.4623  0.8371 -0.2334
 1686TIP3    H2 5016   2.454   2.628   2.225 -0.0433 -1.2116  0.5754
 1687TIP3   OH2 5017   7.696   0.990   4.161  0.4798 -0.0251 -0.6684
 1687TIP3    H1 5018   7.629   0.993   4.230 -1.2546  0.5147 -2.2921
 1687TIP3    H2 5019   7.667   1.054   4.097  1.8303 -0.7834 -2.0930
 1688TIP3   OH2 5020   6.289   6.263   0.926 -0.0884 -0.0706  0.5190
 1688TIP3    H1 5021   6.242   6.190   0.965 -1.6958  1.3448  1.3686
 1688TIP3    H2 5022   6.251   6.341   0.966 -0.1279  1.3788 -2.0752
 1689TIP3   OH2 5023   7.265   4.618   3.453 -0.1463  0.4451 -0.4767
 1689TIP3    H1 5024   7.189   4.578   3.410 -0.4180  0.6540 -0.2001
 1689TIP3    H2 5025   7.324   4.545   3.470  0.2533  0.4457 -1.7663
 1690TIP3   OH2 5026   8.117   5.293   1.347 -0.3592 -0.5208 -0.0130
 1690TIP3    H1 5027   8.150   5.221   1.294 -1.3709 -0.9621 -0.0722
 1690TIP3    H2 5028   8.160   5.371   1.312  0.5758 -1.0661 -0.0982
 1691TIP3   OH2 5029   1.165   0.178   6.600 -0.6459 -0.1420 -0.7379
 1691TIP3    H1 5030   1.249   0.138   6.579 -1.3834 -1.2887 -1.6190
 1691TIP3    H2 5031   1.136   0.217   6.517 -0.1822  1.8422 -0.0271
 1692TIP3   OH2 5032   4.186   1.936   5.419 -0.0307 -0.8452  0.0307
 1692TIP3    H1 5033   4.229   1.986   5.349 -0.2097 -0.2566  0.3318
 1692TIP3    H2 5034   4.207   1.984   5.499  0.8814 -1.9910  0.4946
 1693TIP3   OH2 5035   6.218   0.446   6.471 -0.1765  0.0036  0.3434
 1693TIP3    H1 5036   6.157   0.502   6.518 -0.7719 -1.1708  1.0254
 1693TIP3    H2 5037   6.192   0.357   6.496  0.1345 -0.6194 -1.4209
 1694TIP3   OH2 5038   6.176   4.018   2.011  0.0935 -0.2652 -0.0699
 1694TIP3    H1 5039   6.190   4.044   1.920 -0.2034  1.0769  0.2440
 1694TIP3    H2 5040   6.261   4.034   2.053 -0.0689  0.1393  0.1095
 1695TIP3   OH2 5041   6.759   4.179   4.769 -0.0722 -0.3302  0.4245
 1695TIP3    H1 5042   6.836   4.128   4.741  0.4945  0.4599  0.5300
 1695TIP3    H2 5043   6.734   4.228   4.691  1.1542  1.4286  1.0737
 1696TIP3   OH2 5044   0.410   1.107   4.024  0.0498  0.9460 -0.1550
 1696TIP3    H1 5045   0.505   1.099   4.030  0.1929  1.6633 -1.2907
 1696TIP3    H2 5046   0.387   1.170   4.093 -0.0389 -1.6502  2.4121
 1697TIP3   OH2 5047   7.113   1.080   2.882 -0.2238 -0.2053 -0.2480
 1697TIP3    H1 5048   7.136   0.987   2.888 -0.3874 -0.1724  1.6737
 1697TIP3    H2 5049   7.018   1.081   2.877 -0.1920 -0.1523 -0.8630
 1698TIP3   OH2 5050   4.458   7.240   0.614 -0.0781  0.1361  0.6053
 1698TIP3    H1 5051   4.529   7.178   0.596 -0.0492  0.0609  0.9747
 1698TIP3    H2 5052   4.455   7.296   0.536  0.5624  0.3144  0.7042
 1699TIP3   OH2 5053   0.178   2.656   6.313 -0.3324  0.4337  0.6444
 1699TIP3    H1 5054   0.206   2.606   6.389 -0.5349  0.3103  0.6403
 1699TIP3    H2 5055   0.090   2.686   6.335 -0.5223  0.1162  0.3274
 1700TIP3   OH2 5056   4.610   3.337   5.975  0.1552  0.5142  0.2240
 1700TIP3    H1 5057   4.657   3.419   5.959  0.1044  0.3586 -0.7591
 1700TIP3    H2 5058   4.571   3.314   5.891  0.3764 -0.6621  0.4219
 1701TIP3   OH2 5059   2.955   3.776   0.618 -0.0300  0.5738  0.4068
 1701TIP3    H1 5060   3.015   3.704   0.601 -2.7109 -1.2873 -2.1628
 1701TIP3    H2 5061   3.007   3.855   0.605  1.9902 -0.9108 -1.1613
 1702TIP3   OH2 5062   4.428   6.615   6.474  0.2427  0.2688 -0.4836
 1702TIP3    H1 5063   4.382   6.696   6.452 -0.0720  0.1030 -0.4311
 1702TIP3    H2 5064   4.482   6.597   6.398  0.0996  0.3749 -0.6103
 1703TIP3   OH2 5065   3.113   7.320   2.142 -0.1816  0.2442 -0.2951
 1703TIP3    H1 5066   3.117   7.305   2.047 -2.0706  0.1740 -0.4150
 1703TIP3    H2 5067   3.086   7.411   2.150 -0.0812  0.2319  0.1681
 1704TIP3   OH2 5068   2.490   6.141   0.715 -0.5724  0.4389 -0.6778
 1704TIP3    H1 5069   2.570   6.133   0.663 -0.4116 -0.5940 -0.2925
 1704TIP3    H2 5070   2.469   6.234   0.714  2.0707  1.1648  1.3471
 1705TIP3   OH2 5071   2.309   7.756   5.388  0.1008  0.0583 -0.6057
 1705TIP3    H1 5072   2.284   7.712   5.469  0.7020  1.4990  0.4097
 1705TIP3    H2 5073   2.405   7.754   5.388  0.2405  2.8304  0.3936
 1706TIP3   OH2 5074   0.637   5.141   4.739  0.4044 -0.3963 -0.3604
 1706TIP3    H1 5075   0.732   5.154   4.738  0.4866 -0.9710 -0.4071
 1706TIP3    H2 5076   0.623   5.063   4.685 -0.2270  0.5289 -1.5935
 1707TIP3   OH2 5077   7.435   6.191   2.491  0.1259 -0.2837  0.0759
 1707TIP3    H1 5078   7.358   6.211   2.544  1.7611  0.8942  2.1394
 1707TIP3    H2 5079   7.499   6.155   2.552  1.7628  0.2311 -1.2387
 1708TIP3   OH2 5080   7.572   2.077   0.140  0.0978  0.2297 -0.2706
 1708TIP3    H1 5081   7.649   2.058   0.194 -0.2193  0.7166  0.3727
 1708TIP3    H2 5082   7.503   2.022   0.177  0.2789 -0.6880 -1.2528
 1709TIP3   OH2 5083   3.574   0.131   4.059 -0.4752  0.3867  0.1308
 1709TIP3    H1 5084   3.498   0.160   4.009 -0.0639 -0.7089 -1.1868
 1709TIP3    H2 5085   3.588   0.041   4.032  0.2327 -0.0151  1.6953
 1710TIP3   OH2 5086   1.702   7.102   1.388 -0.1087  0.2040 -0.2245
 1710TIP3    H1 5087   1.621   7.085   1.436 -0.6580  0.4798 -1.0265
 1710TIP3    H2 5088   1.673   7.130   1.301  0.8670 -0.8634 -0.9223
 1711TIP3   OH2 5089   0.811   5.859   6.028  0.0576 -0.8458  0.5700
 1711TIP3    H1 5090   0.854   5.923   6.084 -0.6441 -1.5903  2.0161
 1711TIP3    H2 5091   0.825   5.891   5.939 -0.0584  1.1771  1.2364
 1712TIP3   OH2 5092   4.263   0.349   6.457 -0.1172 -0.0901  0.2755
 1712TIP3    H1 5093   4.194   0.340   6.392  0.0397  1.0618 -0.0700
 1712TIP3    H2 5094   4.339   0.305   6.418 -0.8517 -2.2004  1.0523
 1713TIP3   OH2 5095   2.460   5.433   1.252  0.3189 -0.0824 -0.3740
 1713TIP3    H1 5096   2.461   5.371   1.325  0.5472 -2.2159 -2.0778
 1713TIP3    H2 5097   2.511   5.507   1.283 -0.3161 -0.5202  1.9229
 1714TIP3   OH2 5098   0.506   4.911   5.520 -0.0202  0.1510  0.0505
 1714TIP3    H1 5099   0.575   4.976   5.508  0.4725 -0.4119 -0.2445
 1714TIP3    H2 5100   0.547   4.841   5.570 -0.4179 -0.1281 -0.0031
 1715TIP3   OH2 5101   6.513   1.126   2.857  0.5476  0.7754 -0.6974
 1715TIP3    H1 5102   6.472   1.075   2.926  0.6638  1.6364  0.0199
 1715TIP3    H2 5103   6.559   1.061   2.803  0.3120  0.0826 -0.0705
 1716TIP3   OH2 5104   6.283   5.612   4.904 -0.1386  0.5411  0.3451
 1716TIP3    H1 5105   6.343   5.625   4.830 -1.2787  0.1348 -0.7006
 1716TIP3    H2 5106   6.201   5.653   4.875 -0.3045  1.2945  1.8301
 1717TIP3   OH2 5107   1.178   4.575   0.437 -0.7679 -0.0540 -0.7904
 1717TIP3    H1 5108   1.162   4.511   0.367  0.2367  0.9232 -1.9500
 1717TIP3    H2 5109   1.110   4.641   0.425  0.1060  0.7135 -1.5908
 1718TIP3   OH2 5110   6.652   2.631   5.176  0.7965 -0.1492  0.3269
 1718TIP3    H1 5111   6.559   2.644   5.196  0.2636 -1.0812 -1.3314
 1718TIP3    H2 5112   6.698   2.692   5.234 -0.7788 -0.3462  1.8623
 1719TIP3   OH2 5113   4.484   2.043   5.721  0.1153 -0.0961 -0.3473
 1719TIP3    H1 5114   4.442   2.118   5.680  0.6461 -0.8361 -2.3714
 1719TIP3    H2 5115   4.418   1.973   5.717  0.1879 -0.1925  0.0576
 1720TIP3   OH2 5116   1.801   7.651   2.150  0.5634  0.0546 -0.0865
 1720TIP3    H1 5117   1.795   7.566   2.193  2.7852  0.5512  1.3984
 1720TIP3    H2 5118   1.805   7.630   2.056  3.5431 -1.7896  0.2993
 1721TIP3   OH2 5119   0.650   2.999   2.244 -0.6628  0.7744  0.2287
 1721TIP3    H1 5120   0.574   3.055   2.256 -2.1950 -1.0049 -0.7992
 1721TIP3    H2 5121   0.616   2.910   2.244  1.1140 -0.0231 -2.2162
 1722TIP3   OH2 5122   3.429   3.736   3.463  0.2134  0.0285 -0.0048
 1722TIP3    H1 5123   3.434   3.642   3.477 -1.6660 -0.4230 -1.8095
 1722TIP3    H2 5124   3.519   3.762   3.440  0.4958 -1.6069 -0.8987
 1723TIP3   OH2 5125   7.445   7.480   5.140 -0.2004  0.2190 -0.4847
 1723TIP3    H1 5126   7.463   7.487   5.233 -0.4557  0.7834 -0.4674
 1723TIP3    H2 5127   7.473   7.565   5.104  0.6659 -0.2968 -1.0596
 1724TIP3   OH2 5128   4.677   3.353   6.426 -0.4579  0.0742  0.3384
 1724TIP3    H1 5129   4.582   3.351   6.436 -0.7255  0.5395 -1.7363
 1724TIP3    H2 5130   4.699   3.265   6.394 -0.1298 -0.1322  1.1045
 1725TIP3   OH2 5131   3.833   7.693   1.196  0.4222  0.0785  0.5754
 1725TIP3    H1 5132   3.843   7.623   1.132 -3.4252 -0.1499 -0.0234
 1725TIP3    H2 5133   3.851   7.651   1.281  0.8755 -0.8693  0.0231
 1726TIP3   OH2 5134   5.026   4.074   3.627  0.1321 -0.0652 -0.1044
 1726TIP3    H1 5135   4.981   4.075   3.711 -0.0273  0.4350 -0.1889
 1726TIP3    H2 5136   5.003   3.990   3.588  1.8930 -1.2234  1.2305
 1727TIP3   OH2 5137   6.557   3.753   4.715  0.3233  0.1057  0.3026
 1727TIP3    H1 5138   6.475   3.737   4.668  1.8253 -0.8856 -2.2082
 1727TIP3    H2 5139   6.607   3.809   4.655  1.8127 -0.0265  1.3867
 1728TIP3   OH2 5140   7.336   5.262   4.505  0.5171  0.1189  0.0155
 1728TIP3    H1 5141   7.321   5.214   4.586  2.7585  0.2092  0.5244
 1728TIP3    H2 5142   7.279   5.218   4.441 -0.5813 -0.5384  1.3822
 1729TIP3   OH2 5143   0.423   2.721   0.171 -0.1397 -0.0382  0.0562
 1729TIP3    H1 5144   0.358   2.695   0.106  0.7150 -1.5988 -0.2082
 1729TIP3    H2 5145   0.465   2.639   0.197  0.6862  0.7674  1.3333
 1730TIP3   OH2 5146   5.818   7.687   4.958  0.3319 -0.4371 -1.0608
 1730TIP3    H1 5147   5.724   7.702   4.966  0.1307 -1.6479 -0.9146
 1730TIP3    H2 5148   5.856   7.774   4.956 -0.5250  0.1299  2.0302
 1731TIP3   OH2 5149   8.036   2.426   1.509  0.1368  0.1231 -0.9821
 1731TIP3    H1 5150   8.079   2.468   1.584 -0.8840 -1.9751  0.9217
 1731TIP3    H2 5151   8.085   2.456   1.433  1.8440  1.6262  0.6147
 1732TIP3   OH2 5152   5.126   5.715   4.553 -0.6760 -0.2745  0.0028
 1732TIP3    H1 5153   5.089   5.630   4.532  0.9686 -0.9189 -0.4153
 1732TIP3    H2 5154   5.087   5.738   4.638 -1.4567 -1.2249 -0.0805
 1733TIP3   OH2 5155   4.638   5.834   5.004 -0.5264 -0.5100 -0.4649
 1733TIP3    H1 5156   4.676   5.804   4.922  0.0686 -0.4566 -0.2169
 1733TIP3    H2 5157   4.558   5.783   5.014 -0.3003 -0.9324 -0.7891
 1734TIP3   OH2 5158   7.418   0.592   3.549 -0.0422 -0.2650  0.0741
 1734TIP3    H1 5159   7.425   0.687   3.546 -1.4320 -0.1202  0.7066
 1734TIP3    H2 5160   7.486   0.561   3.490 -0.0035  1.1436 -0.6585
 1735TIP3   OH2 5161   6.544   7.296   0.467 -0.5892 -0.0195  0.1691
 1735TIP3    H1 5162   6.531   7.310   0.561 -3.0455  0.2415 -0.1436
 1735TIP3    H2 5163   6.551   7.384   0.431  0.1388 -0.1123  0.0856
 1736TIP3   OH2 5164   4.688   5.001   0.932 -0.3552  0.4258 -0.0201
 1736TIP3    H1 5165   4.779   5.022   0.955 -0.5725  3.5088 -1.4007
 1736TIP3    H2 5166   4.695   4.940   0.859  0.5293 -0.3459  0.6791
 1737TIP3   OH2 5167   6.583   4.672   2.584  0.1708  0.5034 -0.4881
 1737TIP3    H1 5168   6.492   4.643   2.577  0.6956 -1.6635  0.9072
 1737TIP3    H2 5169   6.607   4.658   2.675  1.4628  2.5606 -0.4372
 1738TIP3   OH2 5170   6.444   7.687   1.138 -0.0328 -0.0326 -0.1193
 1738TIP3    H1 5171   6.451   7.592   1.128 -1.0659 -0.1296 -0.0022
 1738TIP3    H2 5172   6.425   7.719   1.049  1.4625  0.1996 -0.3847
 1739TIP3   OH2 5173   3.261   2.798   0.422 -0.3114  0.3988 -0.5615
 1739TIP3    H1 5174   3.289   2.865   0.484 -0.0794 -1.5629  1.5706
 1739TIP3    H2 5175   3.331   2.794   0.358  1.7003 -0.5411  1.5574
 1740TIP3   OH2 5176   7.142   0.288   4.072 -0.0497  0.0161 -0.3390
 1740TIP3    H1 5177   7.238   0.288   4.079 -0.0110  0.6937 -0.7432
 1740TIP3    H2 5178   7.120   0.379   4.050 -0.8427  0.0288  0.4411
 1741TIP3   OH2 5179   6.321   4.508   3.573  0.4288  0.7324 -0.0850
 1741TIP3    H1 5180   6.231   4.519   3.606  0.5646  1.0528  0.1872
 1741TIP3    H2 5181   6.339   4.415   3.585  0.5333  0.8635  0.9292
 1742TIP3   OH2 5182   3.570   5.517   3.725 -0.2377  0.7706  0.3729
 1742TIP3    H1 5183   3.570   5.608   3.755 -0.6044  0.9646 -0.1973
 1742TIP3    H2 5184   3.656   5.504   3.686 -0.0621  0.7672  0.7570
 1743TIP3   OH2 5185   3.416   5.719   4.313 -0.3672  0.1039 -0.0231
 1743TIP3    H1 5186   3.438   5.649   4.251  0.2416  1.3397 -1.2569
 1743TIP3    H2 5187   3.321   5.729   4.304 -0.7365 -1.6397  1.3884
 1744TIP3   OH2 5188   3.801   4.366   0.169 -0.5473 -0.0828  0.2862
 1744TIP3    H1 5189   3.838   4.378   0.081 -0.9870  0.1740  0.1311
 1744TIP3    H2 5190   3.789   4.455   0.202 -3.0618 -0.0224 -0.5398
 1745TIP3   OH2 5191   3.012   1.111   4.600 -0.4456  0.5351 -0.0755
 1745TIP3    H1 5192   3.053   1.196   4.615  0.5181  0.6045 -2.5676
 1745TIP3    H2 5193   2.972   1.088   4.684 -1.4330  3.7981  0.4946
 1746TIP3   OH2 5194   1.337   1.178   0.493 -0.1759 -0.3787 -0.2547
 1746TIP3    H1 5195   1.251   1.214   0.471 -1.0496 -0.9023  1.9950
 1746TIP3    H2 5196   1.342   1.096   0.444 -1.0355 -0.4189 -0.2944
 1747TIP3   OH2 5197   8.127   3.968   2.775 -0.1283 -0.3168  0.1212
 1747TIP3    H1 5198   8.065   3.900   2.800  0.7080 -0.9443  0.5294
 1747TIP3    H2 5199   8.212   3.924   2.774  0.5405  0.8691  1.1441
 1748TIP3   OH2 5200   5.505   3.569   2.274 -0.4610  0.2988  0.4472
 1748TIP3    H1 5201   5.446   3.511   2.322 -1.8150 -1.3461 -2.8511
 1748TIP3    H2 5202   5.479   3.657   2.300 -3.7789 -0.3917 -0.1134
 1749TIP3   OH2 5203   5.927   2.838   0.734 -0.1957 -0.4954  0.2120
 1749TIP3    H1 5204   5.992   2.866   0.799  0.0992 -2.5343  0.8683
 1749TIP3    H2 5205   5.860   2.906   0.736  0.5744  0.2649  1.5277
 1750TIP3   OH2 5206   5.450   1.844   0.752 -0.0278 -0.5068  0.0108
 1750TIP3    H1 5207   5.410   1.921   0.711  0.3572  0.9903  2.2783
 1750TIP3    H2 5208   5.496   1.878   0.828  2.1948 -2.7028 -0.2123
 1751TIP3   OH2 5209   5.852   2.100   4.109 -0.5292 -0.8029 -0.6615
 1751TIP3    H1 5210   5.868   2.063   4.196 -2.1667  1.7454  0.8862
 1751TIP3    H2 5211   5.904   2.180   4.107 -0.3635 -0.9222 -2.1346
 1752TIP3   OH2 5212   6.412   7.232   2.970  0.1306 -0.1982 -0.4358
 1752TIP3    H1 5213   6.484   7.229   2.907  3.6867  0.8828  3.1338
 1752TIP3    H2 5214   6.383   7.141   2.979  1.1217 -0.6866 -1.8967
 1753TIP3   OH2 5215   0.413   1.487   1.708 -0.3288 -0.1986  0.3191
 1753TIP3    H1 5216   0.370   1.487   1.622  0.1153  0.2687  0.0925
 1753TIP3    H2 5217   0.486   1.426   1.698 -1.1630 -1.3240  0.8325
 1754TIP3   OH2 5218   6.475   4.389   5.678  0.4981  0.0202  0.2215
 1754TIP3    H1 5219   6.555   4.370   5.728  0.3921 -1.2735 -0.0591
 1754TIP3    H2 5220   6.500   4.457   5.616  1.1085  0.3449  0.8139
 1755TIP3   OH2 5221   0.528   4.394   1.217  0.3791 -0.0626  0.0531
 1755TIP3    H1 5222   0.586   4.341   1.271  1.2167  1.5392  0.7955
 1755TIP3    H2 5223   0.572   4.400   1.132  0.4357 -0.2886  0.0662
 1756TIP3   OH2 5224   8.016   6.710   5.047  0.0941  0.5752 -0.1160
 1756TIP3    H1 5225   8.044   6.668   5.129 -0.5972  1.2087  0.4605
 1756TIP3    H2 5226   8.014   6.804   5.068 -2.0208  0.6170 -0.2196
 1757TIP3   OH2 5227   3.836   6.673   1.438 -0.3235  0.2942  0.4960
 1757TIP3    H1 5228   3.813   6.593   1.390 -1.1237  0.2625  0.9190
 1757TIP3    H2 5229   3.928   6.689   1.416  0.4663 -1.8507  1.9543
 1758TIP3   OH2 5230   7.999   3.027   5.041 -0.3713  0.3004  0.7930
 1758TIP3    H1 5231   7.937   3.043   4.970  0.4288 -0.2195 -0.0555
 1758TIP3    H2 5232   7.944   3.002   5.116 -1.1752 -0.3528  0.0091
 1759TIP3   OH2 5233   6.263   3.741   1.218  0.0028 -0.1330 -0.1294
 1759TIP3    H1 5234   6.264   3.834   1.194 -2.1329  0.2984  1.1865
 1759TIP3    H2 5235   6.286   3.695   1.137 -1.0894  1.4761 -1.4199
 1760TIP3   OH2 5236   1.800   3.619   0.791  0.3676  1.0596  0.1828
 1760TIP3    H1 5237   1.846   3.554   0.737 -0.1917  2.0268 -1.5571
 1760TIP3    H2 5238   1.711   3.583   0.799  1.0349 -0.2360  2.5478
 1761TIP3   OH2 5239   4.375   5.138   6.450 -0.4739 -0.5463  0.0224
 1761TIP3    H1 5240   4.289   5.156   6.488 -0.3944 -0.3245  0.1012
 1761TIP3    H2 5241   4.436   5.156   6.521 -0.3377 -0.3389 -0.1456
 1762TIP3   OH2 5242   7.578   7.137   3.511  0.5172 -1.0398 -0.0374
 1762TIP3    H1 5243   7.595   7.137   3.605  0.6183 -2.1286 -0.0397
 1762TIP3    H2 5244   7.565   7.045   3.489 -0.4978 -0.7056 -0.9226
 1763TIP3   OH2 5245   7.429   5.598   5.976  0.1062 -0.7543 -1.1831
 1763TIP3    H1 5246   7.488   5.590   6.051 -1.3802  0.3677  0.1886
 1763TIP3    H2 5247   7.487   5.614   5.902  1.5250  0.6797  0.1490
 1764TIP3   OH2 5248   1.195   4.718   5.588 -0.1115 -0.4553  0.0336
 1764TIP3    H1 5249   1.194   4.700   5.494  0.7632 -1.5076  0.1995
 1764TIP3    H2 5250   1.254   4.651   5.624  1.2173  1.1897  1.0598
 1765TIP3   OH2 5251   0.118   3.148   5.771 -0.3795  0.0450 -0.4964
 1765TIP3    H1 5252   0.093   3.120   5.683  0.8623 -0.0965 -0.8143
 1765TIP3    H2 5253   0.039   3.135   5.824 -1.3802  0.8490 -1.7421
 1766TIP3   OH2 5254   0.450   1.561   5.735 -0.8148 -0.0061  0.0268
 1766TIP3    H1 5255   0.405   1.645   5.729 -0.0247  0.4478  0.3470
 1766TIP3    H2 5256   0.525   1.578   5.792  1.9028  0.2652 -3.2936
 1767TIP3   OH2 5257   0.031   3.965   6.370 -0.2057  0.0197 -0.4312
 1767TIP3    H1 5258   0.057   3.876   6.393  0.7948  0.6917  1.1360
 1767TIP3    H2 5259   0.113   4.014   6.366 -0.8398  1.1232 -0.1483
 1768TIP3   OH2 5260   4.838   0.775   5.666  0.1830 -0.0001 -0.0245
 1768TIP3    H1 5261   4.838   0.843   5.599 -0.3112 -1.4752 -1.5844
 1768TIP3    H2 5262   4.895   0.707   5.632 -0.9060 -1.2459  0.5483
 1769TIP3   OH2 5263   3.238   7.094   3.934 -0.1412 -0.1117 -0.0740
 1769TIP3    H1 5264   3.144   7.099   3.915 -0.1915  0.2592  0.2614
 1769TIP3    H2 5265   3.249   7.143   4.015  0.6558  1.6700 -1.1808
 1770TIP3   OH2 5266   5.645   7.428   6.463  0.6049  0.1971 -0.4830
 1770TIP3    H1 5267   5.670   7.370   6.391  0.0752 -2.5988  1.3859
 1770TIP3    H2 5268   5.677   7.383   6.542 -1.3077  1.6215  1.2199
 1771TIP3   OH2 5269   2.646   6.813   5.916 -0.4615  0.9287 -0.4369
 1771TIP3    H1 5270   2.693   6.798   5.834 -1.8065 -0.4422 -1.0059
 1771TIP3    H2 5271   2.715   6.816   5.983  0.5336  0.3356 -1.4000
 1772TIP3   OH2 5272   5.916   0.455   0.410  0.0950  0.7591 -0.3264
 1772TIP3    H1 5273   5.823   0.475   0.400  0.1533  2.5662  1.9370
 1772TIP3    H2 5274   5.951   0.458   0.321 -1.6256  2.1668 -0.9999
 1773TIP3   OH2 5275   3.645   0.054   3.511  0.3463 -0.4560  0.1012
 1773TIP3    H1 5276   3.653   0.091   3.424 -0.7551 -0.5632 -0.0625
 1773TIP3    H2 5277   3.732   0.064   3.550  0.4019  1.2030 -0.3612
 1774TIP3   OH2 5278   1.120   2.471   5.161 -0.9147 -0.5257 -0.2152
 1774TIP3    H1 5279   1.069   2.518   5.227 -0.3517  2.2727 -1.6166
 1774TIP3    H2 5280   1.130   2.534   5.089 -0.6143 -3.0454 -2.5537
 1775TIP3   OH2 5281   0.671   6.025   2.028 -0.4427  0.1619  0.1485
 1775TIP3    H1 5282   0.639   6.111   2.056  1.1236  0.3356  1.5529
 1775TIP3    H2 5283   0.742   6.045   1.967 -0.2487 -0.1352  0.2753
 1776TIP3   OH2 5284   3.530   4.539   4.447  0.5423  0.6556 -0.2181
 1776TIP3    H1 5285   3.469   4.588   4.392 -0.3324 -0.6682 -0.4857
 1776TIP3    H2 5286   3.568   4.474   4.389  1.3953  0.7538  0.2166
 1777TIP3   OH2 5287   4.825   3.539   6.559 -0.1034 -0.2039  0.0943
 1777TIP3    H1 5288   4.781   3.478   6.499 -0.5660  3.3240 -3.6902
 1777TIP3    H2 5289   4.918   3.532   6.538 -0.2880  1.2101 -1.4521
 1778TIP3   OH2 5290   7.021   4.971   4.814  0.0818  0.0509  0.0732
 1778TIP3    H1 5291   7.099   4.936   4.772 -0.2871  1.2174 -1.6879
 1778TIP3    H2 5292   7.031   5.066   4.810 -0.0602  0.2247  2.5465
 1779TIP3   OH2 5293   6.286   3.191   3.560 -0.2109 -0.0652 -0.2974
 1779TIP3    H1 5294   6.224   3.183   3.488  0.0011  0.3106 -0.5241
 1779TIP3    H2 5295   6.234   3.175   3.639 -0.2815 -1.2740 -0.5762
 1780TIP3   OH2 5296   4.383   3.934   4.598  0.6290 -0.1630  0.8146
 1780TIP3    H1 5297   4.372   3.918   4.692  1.9643 -2.3702  0.6497
 1780TIP3    H2 5298   4.472   3.967   4.589  0.0834  1.2963  0.4086
 1781TIP3   OH2 5299   1.043   4.347   5.633  0.3671 -0.3437  0.0091
 1781TIP3    H1 5300   1.105   4.275   5.618 -0.8829 -1.1738 -1.4999
 1781TIP3    H2 5301   0.968   4.305   5.674  0.9419  0.7406  2.2949
 1782TIP3   OH2 5302   1.566   4.034   4.751  0.0620 -0.1245 -0.5724
 1782TIP3    H1 5303   1.626   3.969   4.785 -1.1068 -1.3055 -0.6912
 1782TIP3    H2 5304   1.622   4.097   4.706  1.4701  0.5258  1.9381
 1783TIP3   OH2 5305   2.063   6.748   0.226 -0.6698 -0.1588 -0.2921
 1783TIP3    H1 5306   2.045   6.659   0.257 -1.8494  0.2974  0.3858
 1783TIP3    H2 5307   1.979   6.792   0.229  0.1123  1.3575  0.5978
 1784TIP3   OH2 5308   7.924   5.557   4.445  0.0965  0.3148 -0.0074
 1784TIP3    H1 5309   7.998   5.617   4.454  0.4903 -0.3856  1.7979
 1784TIP3    H2 5310   7.926   5.531   4.352  2.5354 -0.1718  0.1006
 1785TIP3   OH2 5311   2.989   3.407   2.960 -0.4595 -0.5415  0.3847
 1785TIP3    H1 5312   3.022   3.317   2.956 -0.4267 -0.5950  1.4393
 1785TIP3    H2 5313   3.038   3.447   3.032  0.5355  0.7716 -0.9814
 1786TIP3   OH2 5314   0.324   4.858   0.208  0.5385 -0.3321  0.2677
 1786TIP3    H1 5315   0.402   4.914   0.205 -0.5835  1.3854  1.2710
 1786TIP3    H2 5316   0.327   4.816   0.294  1.2889 -1.7371 -0.4181
 1787TIP3   OH2 5317   2.719   0.355   2.853 -0.1838 -0.1105  0.8220
 1787TIP3    H1 5318   2.717   0.274   2.905  1.9622 -1.1739 -0.5813
 1787TIP3    H2 5319   2.676   0.420   2.908 -0.4319 -1.8020  2.7575
 1788TIP3   OH2 5320   3.993   6.284   6.630 -0.9519 -0.0279  0.5738
 1788TIP3    H1 5321   4.070   6.341   6.640  0.4700 -1.1630 -2.5983
 1788TIP3    H2 5322   4.003   6.218   6.699  1.0021 -0.1906  0.1906
 1789TIP3   OH2 5323   6.893   2.060   3.702  0.2917  0.4336  0.4838
 1789TIP3    H1 5324   6.897   2.027   3.612  2.2935 -0.6022  0.9051
 1789TIP3    H2 5325   6.954   2.134   3.703  0.7858  0.0165  1.1550
 1790TIP3   OH2 5326   6.899   5.200   2.232  0.3662 -0.4644 -0.1874
 1790TIP3    H1 5327   6.866   5.110   2.227 -2.4856  0.4910  0.0556
 1790TIP3    H2 5328   6.877   5.239   2.148  1.5837  0.0706 -0.2919
 1791TIP3   OH2 5329   7.849   3.921   1.335  0.1950  0.3465 -0.1053
 1791TIP3    H1 5330   7.931   3.938   1.381 -0.0652  0.7006  0.2369
 1791TIP3    H2 5331   7.874   3.910   1.243  0.7200 -0.3398  0.1070
 1792TIP3   OH2 5332   5.607   7.595   3.783 -0.0497 -0.4512 -0.2864
 1792TIP3    H1 5333   5.703   7.585   3.779  0.1030  0.2778  1.0357
 1792TIP3    H2 5334   5.581   7.548   3.862 -0.5152  1.0404  0.4870
 1793TIP3   OH2 5335   5.665   5.738   6.003 -0.1156  0.4261 -0.1588
 1793TIP3    H1 5336   5.741   5.689   5.970 -0.7238  0.2668 -1.3551
 1793TIP3    H2 5337   5.703   5.805   6.059  0.8085 -0.7017  0.6118
 1794TIP3   OH2 5338   7.667   0.526   1.985 -0.1885 -0.2405 -0.3346
 1794TIP3    H1 5339   7.707   0.496   2.067 -0.8701 -0.5592 -0.1119
 1794TIP3    H2 5340   7.705   0.612   1.969 -3.0896  1.7958  2.5562
 1795TIP3   OH2 5341   5.735   6.500   4.776 -0.2241  0.2710  0.1518
 1795TIP3    H1 5342   5.787   6.437   4.827  1.0013  0.7266 -0.4790
 1795TIP3    H2 5343   5.760   6.483   4.685 -1.6226  0.1491 -0.2312
 1796TIP3   OH2 5344   7.147   5.500   3.703  0.6610  0.2042  0.2369
 1796TIP3    H1 5345   7.176   5.467   3.618  0.1615 -1.1714  0.5807
 1796TIP3    H2 5346   7.220   5.481   3.762 -0.0431 -1.3132  0.6570
 1797TIP3   OH2 5347   2.510   1.719   3.807  0.2614  0.2112 -0.1930
 1797TIP3    H1 5348   2.478   1.656   3.742 -0.1364 -0.8321  0.9791
 1797TIP3    H2 5349   2.485   1.682   3.891  1.8880  0.8957  0.6416
 1798TIP3   OH2 5350   2.582   3.084   3.337 -1.1908  0.0127  0.2722
 1798TIP3    H1 5351   2.632   3.142   3.278 -1.3607 -0.2512 -0.1342
 1798TIP3    H2 5352   2.513   3.047   3.282 -0.4666 -1.3837  0.2570
 1799TIP3   OH2 5353   1.628   3.326   6.073 -0.2380 -0.0715  0.2783
 1799TIP3    H1 5354   1.671   3.343   6.156  0.2915 -0.1421  0.0230
 1799TIP3    H2 5355   1.692   3.354   6.007 -0.1563 -1.1667 -0.1217
 1800TIP3   OH2 5356   6.764   5.460   5.888 -0.0970  0.4593 -0.6790
 1800TIP3    H1 5357   6.686   5.406   5.873  1.5395 -1.5450 -2.6737
 1800TIP3    H2 5358   6.730   5.549   5.894 -2.6417 -0.4394 -0.3133
 1801TIP3   OH2 5359   3.113   2.013   5.820 -0.3651  0.0221  0.5321
 1801TIP3    H1 5360   3.070   2.031   5.737  0.3548 -0.9554 -0.0723
 1801TIP3    H2 5361   3.181   1.948   5.799  0.5451  0.5573  1.6806
 1802TIP3   OH2 5362   2.493   4.271   4.472 -0.0571 -0.5958  0.0781
 1802TIP3    H1 5363   2.560   4.222   4.425  0.2804 -0.3358  0.2867
 1802TIP3    H2 5364   2.498   4.239   4.562 -0.6266 -1.0124 -0.0319
 1803TIP3   OH2 5365   6.413   5.661   2.933  0.2183  0.3644  0.6770
 1803TIP3    H1 5366   6.380   5.737   2.885 -0.3877  0.4221  1.1696
 1803TIP3    H2 5367   6.505   5.681   2.948  0.2930  0.5680 -0.0280
 1804TIP3   OH2 5368   6.417   5.290   4.047  0.4511 -0.1552  0.5121
 1804TIP3    H1 5369   6.427   5.196   4.031 -0.7135 -0.4365  1.3419
 1804TIP3    H2 5370   6.390   5.296   4.138  0.7908  1.0156  0.5476
 1805TIP3   OH2 5371   3.225   2.135   5.019 -0.1098 -0.1899 -0.4942
 1805TIP3    H1 5372   3.242   2.044   4.994 -0.9640 -0.2742 -0.7959
 1805TIP3    H2 5373   3.296   2.185   4.980  1.9352 -1.0067  1.8729
 1806TIP3   OH2 5374   2.993   4.508   0.105  0.0399 -0.1122 -0.0775
 1806TIP3    H1 5375   2.929   4.536   0.172  0.4285 -0.0309  0.2630
 1806TIP3    H2 5376   2.961   4.423   0.075  0.8156 -1.0152  1.5006
 1807TIP3   OH2 5377   6.169   0.641   1.934 -0.2795 -0.0491  0.1250
 1807TIP3    H1 5378   6.104   0.572   1.930 -0.0867 -0.2507  0.3941
 1807TIP3    H2 5379   6.247   0.603   1.893 -0.1033 -0.0714  0.4788
 1808TIP3   OH2 5380   1.795   7.739   5.994  0.3625 -0.0556  0.5067
 1808TIP3    H1 5381   1.714   7.779   6.026  0.7932 -0.1029  1.7073
 1808TIP3    H2 5382   1.782   7.730   5.900 -0.7569  0.5596  0.5891
 1809TIP3   OH2 5383   6.150   4.014   4.666 -0.9956 -0.0160  0.0376
 1809TIP3    H1 5384   6.128   3.920   4.667 -0.2114 -0.2040 -0.1816
 1809TIP3    H2 5385   6.242   4.018   4.689 -1.3623  0.8180  1.5059
 1810TIP3   OH2 5386   2.090   0.700   5.370  0.7307  0.2973 -0.3270
 1810TIP3    H1 5387   2.158   0.764   5.392  1.9241 -0.7034 -0.9325
 1810TIP3    H2 5388   2.126   0.616   5.399 -1.1764 -0.0440  1.2525
 1811TIP3   OH2 5389   1.909   3.021   6.047  0.0539  0.3656 -0.0654
 1811TIP3    H1 5390   1.956   2.976   6.117 -0.7752  0.6214  0.6653
 1811TIP3    H2 5391   1.823   3.039   6.083  0.1741  2.0295 -0.5550
 1812TIP3   OH2 5392   5.609   6.490   0.128  0.4827 -0.0762 -0.2868
 1812TIP3    H1 5393   5.589   6.532   0.212  2.4556 -0.5754  0.4887
 1812TIP3    H2 5394   5.620   6.563   0.067 -2.1731  0.2610 -0.4743
 1813TIP3   OH2 5395   2.843   0.542   4.500 -0.2881 -0.4327  0.5691
 1813TIP3    H1 5396   2.849   0.447   4.495 -3.0724 -0.6876  0.1496
 1813TIP3    H2 5397   2.809   0.568   4.414  0.4184  0.9540  0.6820
 1814TIP3   OH2 5398   2.762   7.318   2.244  0.5565 -0.5300  0.1307
 1814TIP3    H1 5399   2.854   7.339   2.263  0.3225  0.1739  0.5175
 1814TIP3    H2 5400   2.767   7.238   2.191  1.3945 -0.4599  0.0773
 1815TIP3   OH2 5401   0.904   4.867   2.049 -0.2287  0.4577  0.4027
 1815TIP3    H1 5402   0.828   4.883   2.105 -1.0200 -0.5690 -0.3426
 1815TIP3    H2 5403   0.980   4.879   2.107 -1.0260 -1.0206  1.8211
 1816TIP3   OH2 5404   0.913   0.111   5.126  0.3598 -0.3722 -0.3989
 1816TIP3    H1 5405   0.839   0.166   5.151 -0.2972 -1.8416  1.0209
 1816TIP3    H2 5406   0.990   0.166   5.143 -0.3521  1.3543 -2.3759
 1817TIP3   OH2 5407   2.298   2.166   2.254 -0.0080 -0.3185 -0.0840
 1817TIP3    H1 5408   2.285   2.095   2.317 -0.1206  0.9401  1.3683
 1817TIP3    H2 5409   2.317   2.122   2.172  0.3808 -2.0249  0.8752
 1818TIP3   OH2 5410   1.184   0.160   3.948  0.3979 -0.1060 -0.7534
 1818TIP3    H1 5411   1.146   0.159   3.860  2.0053 -0.8932 -1.4859
 1818TIP3    H2 5412   1.271   0.198   3.937  1.0598 -1.2202  0.2739
 1819TIP3   OH2 5413   0.607   6.668   0.728  0.1471 -0.1611  0.1968
 1819TIP3    H1 5414   0.690   6.697   0.690  0.7100 -1.5021  0.3280
 1819TIP3    H2 5415   0.629   6.643   0.818 -0.7700  1.0974  0.8021
 1820TIP3   OH2 5416   5.137   2.686   5.887  0.1189  0.6029  0.2097
 1820TIP3    H1 5417   5.058   2.688   5.833 -1.4227  2.7900  2.3184
 1820TIP3    H2 5418   5.141   2.773   5.926  3.4099  0.4439  0.5190
 1821TIP3   OH2 5419   5.980   1.741   4.058 -0.3780  0.0823 -0.1373
 1821TIP3    H1 5420   5.954   1.657   4.020  3.1637 -0.8491 -0.9024
 1821TIP3    H2 5421   6.011   1.719   4.146  0.2363  0.6426 -0.2077
 1822TIP3   OH2 5422   1.825   0.467   4.320  0.2386 -0.0925  0.3000
 1822TIP3    H1 5423   1.894   0.528   4.293 -0.2225  0.2932 -0.0327
 1822TIP3    H2 5424   1.863   0.418   4.392 -0.8735  3.8093  3.9526
 1823TIP3   OH2 5425   0.246   1.712   1.858  0.2520  0.0449 -0.0800
 1823TIP3    H1 5426   0.179   1.644   1.864  0.8169 -0.4867  0.3217
 1823TIP3    H2 5427   0.328   1.664   1.841  0.5982  0.6493 -0.1516
 1824TIP3   OH2 5428   5.354   2.557   4.695 -0.3180  0.0402  0.7540
 1824TIP3    H1 5429   5.287   2.554   4.763 -1.5044 -1.5645 -0.4102
 1824TIP3    H2 5430   5.389   2.467   4.691  0.4687  0.3603 -0.0344
 1825TIP3   OH2 5431   2.988   1.621   6.378  0.0042  0.1252 -0.7917
 1825TIP3    H1 5432   2.963   1.591   6.465  0.4304 -1.5247 -1.2138
 1825TIP3    H2 5433   3.068   1.673   6.393  0.0985 -0.1761 -0.2107
 1826TIP3   OH2 5434   3.704   5.102   4.444 -0.4230  0.0676  0.0333
 1826TIP3    H1 5435   3.709   5.197   4.438  1.5338  0.0001  0.1518
 1826TIP3    H2 5436   3.707   5.083   4.537 -0.7607 -0.1316  0.0084
 1827TIP3   OH2 5437   0.980   6.759   2.859  0.2109 -0.3332  0.2578
 1827TIP3    H1 5438   0.939   6.673   2.853 -0.1236 -0.0675 -2.6225
 1827TIP3    H2 5439   1.069   6.747   2.827  0.5163  0.2280  0.8532
 1828TIP3   OH2 5440   1.790   6.766   2.916  0.5637  0.1451 -0.3590
 1828TIP3    H1 5441   1.882   6.745   2.899  0.4674 -2.5101  1.6802
 1828TIP3    H2 5442   1.790   6.859   2.938  2.3675  0.7415 -2.5435
 1829TIP3   OH2 5443   5.512   1.608   4.266  0.2381 -0.0823  0.0598
 1829TIP3    H1 5444   5.606   1.627   4.260  0.4525 -0.3860  2.0092
 1829TIP3    H2 5445   5.492   1.613   4.359 -1.2525 -2.1097 -0.0887
 1830TIP3   OH2 5446   3.107   3.170   5.513  0.6689 -0.2779  0.0478
 1830TIP3    H1 5447   3.104   3.099   5.449  0.5394  1.3742 -1.8522
 1830TIP3    H2 5448   3.069   3.131   5.593  1.4953 -2.6011 -0.6009
 1831TIP3   OH2 5449   1.760   1.117   3.641 -0.5096  0.1288 -0.0828
 1831TIP3    H1 5450   1.816   1.110   3.719  0.8193  0.0765 -1.0098
 1831TIP3    H2 5451   1.764   1.030   3.601  0.0640  0.5800 -1.0305
 1832TIP3   OH2 5452   5.498   3.683   0.898 -0.0548  0.5662 -0.5410
 1832TIP3    H1 5453   5.580   3.637   0.881  0.8611  1.6233  0.8106
 1832TIP3    H2 5454   5.484   3.737   0.820  0.0012 -0.3404 -1.1949
 1833TIP3   OH2 5455   4.518   4.373   2.682  0.5930 -0.0357 -0.5171
 1833TIP3    H1 5456   4.469   4.368   2.600  0.8754  1.3259 -0.7871
 1833TIP3    H2 5457   4.610   4.372   2.655  0.6834  1.1859 -0.2800
 1834TIP3   OH2 5458   7.281   7.346   1.026  0.3938  0.0851  0.1875
 1834TIP3    H1 5459   7.234   7.360   1.109  0.5785  1.7950  0.0502
 1834TIP3    H2 5460   7.212   7.328   0.962  0.1192  0.2592  0.4286
 1835TIP3   OH2 5461   7.565   6.684   3.002 -0.2361 -0.0557  0.1913
 1835TIP3    H1 5462   7.653   6.662   2.970 -0.3513  0.2074 -0.3120
 1835TIP3    H2 5463   7.534   6.753   2.944 -1.5334 -1.4431 -0.8661
 1836TIP3   OH2 5464   4.677   3.260   4.441  0.2777  0.6344 -0.0642
 1836TIP3    H1 5465   4.721   3.188   4.485 -1.6187  0.5065  1.7806
 1836TIP3    H2 5466   4.712   3.339   4.483  0.0988  0.6282  0.0971
 1837TIP3   OH2 5467   8.052   2.056   5.673 -0.3704 -0.4859  0.5338
 1837TIP3    H1 5468   8.020   2.006   5.598  1.7230  1.4764 -1.8265
 1837TIP3    H2 5469   8.122   2.002   5.710  2.4397  0.7509 -2.4900
 1838TIP3   OH2 5470   0.355   4.174   1.169 -0.5319 -0.1069 -0.2569
 1838TIP3    H1 5471   0.317   4.206   1.087 -0.8309 -0.2554 -0.1817
 1838TIP3    H2 5472   0.435   4.224   1.181 -0.9223  0.5145 -0.2126
 1839TIP3   OH2 5473   3.600   1.745   6.244 -0.5062  0.5304  0.4855
 1839TIP3    H1 5474   3.608   1.807   6.316 -0.8967  0.1361  0.8725
 1839TIP3    H2 5475   3.667   1.679   6.262 -0.4787  0.5309  0.3850
 1840TIP3   OH2 5476   0.395   4.451   5.541 -0.1035  0.0078 -0.7374
 1840TIP3    H1 5477   0.313   4.424   5.581 -0.4274 -0.0422 -1.4194
 1840TIP3    H2 5478   0.374   4.533   5.495  0.4414  0.4707 -0.1815
 1841TIP3   OH2 5479   5.162   7.314   5.399  0.2434  0.2105  0.3418
 1841TIP3    H1 5480   5.072   7.326   5.430  0.3365  0.4654  0.5156
 1841TIP3    H2 5481   5.154   7.258   5.322 -0.0873  0.4739  0.1879
 1842TIP3   OH2 5482   8.105   3.627   6.060  1.0991  0.4712  0.3047
 1842TIP3    H1 5483   8.010   3.629   6.048  1.2793  2.1269 -1.2097
 1842TIP3    H2 5484   8.116   3.626   6.155 -0.3946 -2.1920  0.5610
 1843TIP3   OH2 5485   7.152   5.833   4.021  0.1905  0.2013  0.0981
 1843TIP3    H1 5486   7.095   5.758   4.037 -0.5181  0.2472 -1.8456
 1843TIP3    H2 5487   7.092   5.903   3.994  1.0935  0.3570 -1.6433
 1844TIP3   OH2 5488   4.358   4.100   1.830 -0.3128 -0.3710 -0.7573
 1844TIP3    H1 5489   4.334   4.162   1.760  1.1150  1.1824  0.0570
 1844TIP3    H2 5490   4.355   4.015   1.787  1.2538  0.5826 -2.9805
 1845TIP3   OH2 5491   8.061   3.974   1.521  0.2274 -0.1442 -0.4001
 1845TIP3    H1 5492   8.090   4.065   1.520  0.2336 -0.1372  0.3609
 1845TIP3    H2 5493   8.041   3.955   1.613  2.5211 -1.6384 -0.1123
 1846TIP3   OH2 5494   1.137   2.989   5.011  0.0015 -0.0046 -0.4037
 1846TIP3    H1 5495   1.217   3.042   5.012  0.9227 -1.3147  1.1299
 1846TIP3    H2 5496   1.167   2.900   4.994 -1.0337 -0.6315  0.8569
 1847TIP3   OH2 5497   0.110   7.612   2.461 -0.0549  0.0855 -0.2333
 1847TIP3    H1 5498   0.046   7.548   2.492  0.4189 -0.3281 -0.0809
 1847TIP3    H2 5499   0.173   7.620   2.533 -0.3178  1.0264 -0.0936
 1848TIP3   OH2 5500   5.239   2.986   2.152  0.1118 -0.1800 -0.1608
 1848TIP3    H1 5501   5.239   3.076   2.120 -0.8508  0.3535  1.2317
 1848TIP3    H2 5502   5.167   2.944   2.105  0.5546 -0.2252 -0.8054
 1849TIP3   OH2 5503   1.638   4.319   4.729  0.8736 -0.3284  0.5379
 1849TIP3    H1 5504   1.682   4.309   4.813  0.3259 -1.9563  0.6713
 1849TIP3    H2 5505   1.545   4.303   4.748  0.7647 -0.8661 -0.3831
 1850TIP3   OH2 5506   3.015   5.411   0.300 -0.2784  0.3649 -0.4731
 1850TIP3    H1 5507   3.037   5.330   0.345 -1.4574  0.0329 -0.4619
 1850TIP3    H2 5508   2.952   5.455   0.358 -0.0416  1.0444 -0.7115
 1851TIP3   OH2 5509   7.230   4.142   0.089 -0.2968  0.7384 -0.4276
 1851TIP3    H1 5510   7.179   4.218   0.061 -0.5209  0.8798  0.3277
 1851TIP3    H2 5511   7.216   4.077   0.021 -1.1618  0.9252 -0.4414
 1852TIP3   OH2 5512   3.248   1.566   0.580  0.7745  0.2817 -0.5597
 1852TIP3    H1 5513   3.204   1.558   0.495  1.0742  0.1252 -0.7019
 1852TIP3    H2 5514   3.190   1.519   0.641  1.1710 -0.6752 -0.9032
 1853TIP3   OH2 5515   3.164   6.154   4.111 -0.3746 -0.6428  0.2690
 1853TIP3    H1 5516   3.138   6.080   4.056 -0.6035  0.6892 -1.5265
 1853TIP3    H2 5517   3.236   6.121   4.164  1.3555 -1.4612 -2.3986
 1854TIP3   OH2 5518   5.755   2.004   4.361 -0.6942 -0.1947 -0.3979
 1854TIP3    H1 5519   5.663   1.990   4.385 -0.7999 -0.4150 -0.9379
 1854TIP3    H2 5520   5.794   1.917   4.362 -0.4774 -0.0989 -0.1419
 1855TIP3   OH2 5521   2.302   2.902   2.952  0.0686  1.0680 -0.5787
 1855TIP3    H1 5522   2.339   2.953   2.881  2.2346 -2.3036 -2.1066
 1855TIP3    H2 5523   2.212   2.884   2.925  0.7259  0.2232 -2.3020
 1856TIP3   OH2 5524   4.432   7.214   5.863 -0.0499 -0.3950 -0.1171
 1856TIP3    H1 5525   4.389   7.241   5.944  1.6094 -3.3336  1.9459
 1856TIP3    H2 5526   4.509   7.269   5.855 -0.6389  0.4344 -0.1801
 1857TIP3   OH2 5527   4.506   5.711   2.024  0.6799  0.0249 -0.8194
 1857TIP3    H1 5528   4.536   5.622   2.007 -2.5446 -1.1111 -1.3900
 1857TIP3    H2 5529   4.520   5.723   2.118 -0.7294 -2.0022 -0.2687
 1858TIP3   OH2 5530   3.715   0.427   4.439  0.5591  0.2748  0.1558
 1858TIP3    H1 5531   3.701   0.434   4.344 -1.5320  1.4603  0.4832
 1858TIP3    H2 5532   3.743   0.515   4.466  1.6719 -0.1920  0.5978
 1859TIP3   OH2 5533   5.135   4.930   4.668 -0.1903 -0.2873  0.6625
 1859TIP3    H1 5534   5.183   4.936   4.750 -0.5110 -1.7677  0.9865
 1859TIP3    H2 5535   5.203   4.933   4.600  0.1812 -0.2892  1.0334
 1860TIP3   OH2 5536   7.400   0.871   3.564  0.5202  0.3881  0.3358
 1860TIP3    H1 5537   7.367   0.900   3.649 -0.2313  1.7329 -0.3755
 1860TIP3    H2 5538   7.470   0.934   3.543  1.0693 -0.2588  0.1913
 1861TIP3   OH2 5539   0.164   5.542   5.745  0.3446 -0.5115 -0.9027
 1861TIP3    H1 5540   0.112   5.622   5.740 -0.6705 -0.9422  1.4661
 1861TIP3    H2 5541   0.234   5.563   5.806  0.7903 -1.0801 -1.2082
 1862TIP3   OH2 5542   2.982   5.732   4.654 -0.0063 -0.1891  0.3418
 1862TIP3    H1 5543   3.041   5.741   4.580 -0.1199 -0.6014  0.2002
 1862TIP3    H2 5544   3.037   5.702   4.726  0.0670  0.0124  0.3694
 1863TIP3   OH2 5545   2.189   1.742   3.341 -0.1861  0.0176 -0.5045
 1863TIP3    H1 5546   2.229   1.745   3.254 -0.1661 -1.3769 -0.5704
 1863TIP3    H2 5547   2.136   1.662   3.340  0.3894 -0.4159  0.9861
 1864TIP3   OH2 5548   5.125   5.084   1.883 -0.0846 -0.9161  0.1317
 1864TIP3    H1 5549   5.053   5.109   1.942 -0.4611 -0.1491 -0.6417
 1864TIP3    H2 5550   5.106   4.993   1.860 -0.7181 -0.7681  0.0567
 1865TIP3   OH2 5551   7.417   4.290   2.500 -0.4044 -0.0928  0.7940
 1865TIP3    H1 5552   7.415   4.210   2.552 -0.2560 -0.0091  0.9274
 1865TIP3    H2 5553   7.447   4.262   2.413 -0.7608 -0.2518  0.7183
 1866TIP3   OH2 5554   3.534   0.835   2.163  0.4927  0.9081 -0.5411
 1866TIP3    H1 5555   3.527   0.926   2.137 -0.7637  1.4079  1.3613
 1866TIP3    H2 5556   3.443   0.806   2.176  0.9249 -0.1101  0.4204
 1867TIP3   OH2 5557   4.066   5.442   3.036  0.2770  0.1825 -0.0535
 1867TIP3    H1 5558   4.040   5.533   3.035 -2.6432 -0.5629 -1.2741
 1867TIP3    H2 5559   4.027   5.407   3.117 -0.0013 -0.3105 -0.3951
 1868TIP3   OH2 5560   8.096   4.447   0.805  0.1555 -0.3726 -0.3404
 1868TIP3    H1 5561   8.130   4.361   0.831  2.2220 -0.1953 -2.1633
 1868TIP3    H2 5562   8.039   4.430   0.731 -1.1796 -0.3216  0.6298
 1869TIP3   OH2 5563   4.779   0.070   4.742  0.5837  0.0334 -0.2641
 1869TIP3    H1 5564   4.874   0.081   4.755  0.6316 -0.0666 -0.5343
 1869TIP3    H2 5565   4.743   0.158   4.754  0.6359 -0.0315  0.4594
 1870TIP3   OH2 5566   1.917   1.524   6.603 -0.0039  0.0428 -0.7627
 1870TIP3    H1 5567   1.835   1.487   6.636  0.7251 -0.4713  0.5646
 1870TIP3    H2 5568   1.958   1.452   6.555  1.6963 -1.2388  2.3238
 1871TIP3   OH2 5569   7.039   6.896   6.670 -0.2255  0.4758 -0.2919
 1871TIP3    H1 5570   7.041   6.892   6.765 -0.2715  1.3886 -0.2522
 1871TIP3    H2 5571   7.034   6.989   6.649 -2.0070  0.2288 -1.1413
 1872TIP3   OH2 5572   3.564   2.729   1.509 -0.3943 -0.0603 -0.3090
 1872TIP3    H1 5573   3.628   2.787   1.469 -0.1166  0.2508  0.5796
 1872TIP3    H2 5574   3.583   2.643   1.472 -1.1545  0.4729 -2.0614
 1873TIP3   OH2 5575   6.867   7.535   2.403 -0.7124  0.1072 -0.3912
 1873TIP3    H1 5576   6.951   7.517   2.361 -1.1777 -0.7336 -0.9859
 1873TIP3    H2 5577   6.873   7.627   2.429 -0.3830  0.6491 -2.2411
 1874TIP3   OH2 5578   1.298   6.443   1.908 -0.3579  0.1698 -0.5949
 1874TIP3    H1 5579   1.222   6.385   1.896 -0.6094  0.2338  0.5831
 1874TIP3    H2 5580   1.291   6.473   1.998  1.0911  0.1754 -0.4708
 1875TIP3   OH2 5581   3.715   0.661   1.978 -0.9492  0.0682 -0.7267
 1875TIP3    H1 5582   3.653   0.685   2.047 -0.2331 -0.8692  0.2509
 1875TIP3    H2 5583   3.801   0.669   2.018 -0.6115 -3.0531 -0.6510
 1876TIP3   OH2 5584   7.533   6.564   6.349 -0.1195  0.5366 -0.1516
 1876TIP3    H1 5585   7.593   6.492   6.364  0.4249  0.4198 -2.5019
 1876TIP3    H2 5586   7.499   6.586   6.436  2.3751 -0.1949  1.0968
 1877TIP3   OH2 5587   7.866   4.720   1.984  0.0038  0.2985 -0.0924
 1877TIP3    H1 5588   7.912   4.750   1.905  1.1083 -1.1535 -0.0368
 1877TIP3    H2 5589   7.930   4.731   2.054  0.0644 -1.1348  0.0971
 1878TIP3   OH2 5590   5.305   5.899   1.605 -0.1681  0.1831 -0.0225
 1878TIP3    H1 5591   5.341   5.951   1.533 -1.0922  1.0660  0.1259
 1878TIP3    H2 5592   5.212   5.923   1.607  0.1193  1.3298  2.4144
 1879TIP3   OH2 5593   6.244   2.455   6.324 -0.0520  0.0421 -0.5295
 1879TIP3    H1 5594   6.273   2.368   6.351 -3.2339 -0.4729  1.7833
 1879TIP3    H2 5595   6.258   2.510   6.401 -0.9774  0.7827 -0.8665
 1880TIP3   OH2 5596   3.283   3.639   0.054 -0.4458 -0.0592  0.0500
 1880TIP3    H1 5597   3.244   3.720   0.022 -0.8798 -0.7347 -1.2250
 1880TIP3    H2 5598   3.234   3.570   0.008  2.7075 -0.9841 -2.2794
 1881TIP3   OH2 5599   4.583   2.151   5.956 -0.7756  0.5476  0.1254
 1881TIP3    H1 5600   4.513   2.119   5.900 -0.0545 -1.6685  0.3868
 1881TIP3    H2 5601   4.590   2.245   5.935 -0.0130 -0.2469 -4.1117
 1882TIP3   OH2 5602   0.838   4.038   0.845  0.0315  0.0189 -0.0379
 1882TIP3    H1 5603   0.844   3.974   0.916  0.4979 -0.7418 -0.7409
 1882TIP3    H2 5604   0.755   4.019   0.803  0.2469 -0.2400 -0.3501
 1883TIP3   OH2 5605   4.278   0.658   4.022 -0.4745  0.2328  0.4771
 1883TIP3    H1 5606   4.292   0.683   4.114  0.3903  3.7573 -0.4398
 1883TIP3    H2 5607   4.363   0.675   3.980 -1.6114  1.5514 -1.4328
 1884TIP3   OH2 5608   7.184   4.144   4.778 -0.2289  0.0526  0.4936
 1884TIP3    H1 5609   7.242   4.204   4.731  1.9899 -0.1892  2.6879
 1884TIP3    H2 5610   7.165   4.189   4.860  0.1817 -1.5493  1.5115
 1885TIP3   OH2 5611   2.200   6.101   1.249  0.4345  0.2738 -0.5586
 1885TIP3    H1 5612   2.277   6.155   1.269  0.5197 -0.3222  0.8908
 1885TIP3    H2 5613   2.236   6.014   1.230  0.1183 -0.9318  3.3406
 1886TIP3   OH2 5614   0.926   0.881   0.611 -0.4450  0.5983  0.7750
 1886TIP3    H1 5615   0.849   0.825   0.620  0.9029 -1.3233  0.9587
 1886TIP3    H2 5616   0.941   0.915   0.700  0.5571 -1.3827  1.4260
 1887TIP3   OH2 5617   3.696   4.549   1.456  0.0576 -0.2417 -0.7182
 1887TIP3    H1 5618   3.734   4.626   1.413 -0.0487  0.6462  0.6922
 1887TIP3    H2 5619   3.762   4.481   1.447  0.7165  0.4052 -0.8544
 1888TIP3   OH2 5620   3.154   7.537   3.175 -0.1322 -0.1550  0.2028
 1888TIP3    H1 5621   3.236   7.509   3.217 -0.0890 -4.4267 -2.1171
 1888TIP3    H2 5622   3.086   7.486   3.219 -0.8664 -0.1901 -0.9353
 1889TIP3   OH2 5623   0.833   0.700   3.038  0.4967  0.6297 -0.5074
 1889TIP3    H1 5624   0.781   0.677   3.115  0.0853  0.6394 -0.7809
 1889TIP3    H2 5625   0.901   0.758   3.072  0.1712  0.8292 -0.1884
 1890TIP3   OH2 5626   7.408   3.623   1.516 -0.1323 -0.1368  0.0931
 1890TIP3    H1 5627   7.433   3.644   1.426  0.1933  0.7927  0.3860
 1890TIP3    H2 5628   7.489   3.630   1.566 -0.7957  2.5614  0.9919
 1891TIP3   OH2 5629   6.154   1.460   1.185  0.5452 -0.2078  0.0404
 1891TIP3    H1 5630   6.229   1.411   1.216  0.1241 -0.3946  0.7896
 1891TIP3    H2 5631   6.187   1.549   1.170  1.2986 -0.6714 -1.2669
 1892TIP3   OH2 5632   4.382   3.297   0.760  0.2984  0.3097  0.6875
 1892TIP3    H1 5633   4.372   3.296   0.855  1.0317  3.2037  0.8782
 1892TIP3    H2 5634   4.297   3.267   0.727  0.3721 -1.7488  2.1883
 1893TIP3   OH2 5635   6.110   6.271   3.727 -0.2129 -0.1110 -0.0665
 1893TIP3    H1 5636   6.194   6.244   3.764  0.4453  1.5178 -0.2783
 1893TIP3    H2 5637   6.105   6.365   3.747 -1.2202  0.1562 -1.4752
 1894TIP3   OH2 5638   1.382   4.830   6.521  0.2861  0.5629 -0.3464
 1894TIP3    H1 5639   1.292   4.841   6.549 -0.0841 -2.2460 -0.1532
 1894TIP3    H2 5640   1.377   4.815   6.427  0.2592 -1.7479 -0.0238
 1895TIP3   OH2 5641   7.110   2.039   4.097  0.0709  0.5629  0.1353
 1895TIP3    H1 5642   7.175   2.047   4.027 -0.6286 -2.3785 -1.0052
 1895TIP3    H2 5643   7.028   2.020   4.052 -1.0955  1.7101  1.6666
 1896TIP3   OH2 5644   5.304   3.403   5.973 -0.1443 -0.3900 -0.2690
 1896TIP3    H1 5645   5.219   3.386   6.014  1.1628 -1.5527  2.1713
 1896TIP3    H2 5646   5.314   3.334   5.908 -1.1125 -0.1230 -0.7266
 1897TIP3   OH2 5647   1.991   3.984   2.030  0.7837  0.4711 -0.2576
 1897TIP3    H1 5648   2.043   3.975   1.949  0.5721  1.2872 -0.4905
 1897TIP3    H2 5649   2.055   4.008   2.096  1.2013 -1.5645  0.1646
 1898TIP3   OH2 5650   6.976   0.739   5.373  0.3696 -0.6977 -0.5720
 1898TIP3    H1 5651   6.951   0.648   5.391  1.9477 -0.9637  0.5303
 1898TIP3    H2 5652   6.928   0.790   5.438 -0.6103 -0.7101 -1.2668
 1899TIP3   OH2 5653   0.050   4.777   1.953 -0.2177 -0.0432  0.7488
 1899TIP3    H1 5654   0.136   4.820   1.956  0.0726 -0.5602  0.1644
 1899TIP3    H2 5655   0.071   4.686   1.929 -0.8810 -0.3200  1.1937
 1900TIP3   OH2 5656   6.031   3.784   4.781 -0.0382  0.2660 -0.0436
 1900TIP3    H1 5657   6.066   3.763   4.867  0.2387  2.2817  0.3827
 1900TIP3    H2 5658   5.961   3.848   4.799 -1.6865 -1.1421 -1.1398
 1901TIP3   OH2 5659   2.933   0.312   0.197 -0.1581  0.6966  0.0583
 1901TIP3    H1 5660   2.970   0.337   0.113 -0.0825  0.2427 -0.0449
 1901TIP3    H2 5661   2.839   0.303   0.180  0.0117 -0.5540 -0.2610
 1902TIP3   OH2 5662   4.926   0.248   6.069 -0.7817 -0.1904  0.1460
 1902TIP3    H1 5663   4.935   0.195   5.989 -0.4409  1.2575 -0.8245
 1902TIP3    H2 5664   4.843   0.219   6.108 -1.0498 -0.8082 -0.8540
 1903TIP3   OH2 5665   6.337   6.432   2.443  0.0120 -0.1742 -0.5995
 1903TIP3    H1 5666   6.388   6.389   2.512  3.5783 -0.3411 -3.0374
 1903TIP3    H2 5667   6.329   6.523   2.472 -2.1301 -0.9983  1.7363
 1904TIP3   OH2 5668   5.971   6.701   2.244 -0.0675  0.0187 -0.4855
 1904TIP3    H1 5669   5.942   6.692   2.334  1.1408  1.0557  0.0399
 1904TIP3    H2 5670   5.988   6.794   2.233  2.0356 -0.3804 -1.0437
 1905TIP3   OH2 5671   2.785   7.540   3.818 -0.2010 -0.0201  0.0098
 1905TIP3    H1 5672   2.822   7.621   3.783  1.9585 -1.0595 -0.3172
 1905TIP3    H2 5673   2.807   7.542   3.911 -1.4977  0.4319  0.3288
 1906TIP3   OH2 5674   5.697   2.138   1.075 -0.3185  0.2215 -0.3339
 1906TIP3    H1 5675   5.687   2.206   1.008  1.4478 -0.5173 -1.4238
 1906TIP3    H2 5676   5.784   2.102   1.059  0.1338 -0.0302  2.3575
 1907TIP3   OH2 5677   6.054   0.244   4.767  0.5887 -0.1616  0.3758
 1907TIP3    H1 5678   6.055   0.286   4.853  2.4193  0.2525  0.1892
 1907TIP3    H2 5679   6.036   0.315   4.706 -1.0145 -0.5087  0.4193
 1908TIP3   OH2 5680   3.862   5.036   1.830 -0.0257 -0.0930  0.3173
 1908TIP3    H1 5681   3.900   5.109   1.878  1.8327  0.1611 -1.3922
 1908TIP3    H2 5682   3.865   5.063   1.738 -1.2610 -1.4842 -0.1711
 1909TIP3   OH2 5683   7.117   7.320   0.340  0.3794  0.2216 -0.0907
 1909TIP3    H1 5684   7.113   7.375   0.262 -0.0585 -1.0573 -1.0084
 1909TIP3    H2 5685   7.025   7.309   0.366  0.3968 -0.6585 -0.3655
 1910TIP3   OH2 5686   4.995   1.545   2.444 -0.9183  0.0668  0.5690
 1910TIP3    H1 5687   4.944   1.464   2.450 -2.4994  1.1329  3.8245
 1910TIP3    H2 5688   5.035   1.555   2.531 -0.8685  2.7870  0.3247
 1911TIP3   OH2 5689   2.053   6.633   5.078 -0.0377  0.1820 -0.4481
 1911TIP3    H1 5690   2.056   6.586   5.161  0.0573  0.3991 -0.3286
 1911TIP3    H2 5691   2.118   6.589   5.023 -0.2135 -0.0632 -0.4635
 1912TIP3   OH2 5692   5.800   5.211   4.890 -0.0830 -0.1428 -0.3629
 1912TIP3    H1 5693   5.818   5.119   4.907 -0.8036 -0.0026  1.4267
 1912TIP3    H2 5694   5.880   5.257   4.916 -0.1445 -0.1826 -0.0943
 1913TIP3   OH2 5695   1.538   4.938   4.302 -0.0660  0.6093 -0.4463
 1913TIP3    H1 5696   1.624   4.930   4.343  1.3326 -0.7847 -3.3653
 1913TIP3    H2 5697   1.482   4.974   4.371  2.5860  0.6444  1.8720
 1914TIP3   OH2 5698   6.514   2.944   0.389  0.3549 -0.3381  0.3693
 1914TIP3    H1 5699   6.498   3.006   0.318  0.8134  0.1770  0.7072
 1914TIP3    H2 5700   6.469   2.864   0.362  0.1529 -0.0058 -0.2909
 1915TIP3   OH2 5701   2.381   0.933   1.661  0.5687  0.8019 -0.3896
 1915TIP3    H1 5702   2.321   0.934   1.587  0.5678 -0.6648 -0.4408
 1915TIP3    H2 5703   2.417   0.844   1.662  1.3017  1.0816  0.7816
 1916TIP3   OH2 5704   0.148   3.905   2.255 -0.3615 -0.5336 -0.2364
 1916TIP3    H1 5705   0.088   3.858   2.197 -0.4254  0.0955 -0.6820
 1916TIP3    H2 5706   0.176   3.981   2.205 -0.3971  0.0102  0.5574
 1917TIP3   OH2 5707   1.376   3.607   0.662  0.1015 -0.8569 -0.1445
 1917TIP3    H1 5708   1.414   3.548   0.728 -1.4451 -0.1730  1.4238
 1917TIP3    H2 5709   1.368   3.691   0.707 -1.2447 -0.4398 -1.1126
 1918TIP3   OH2 5710   0.935   6.648   1.029  0.0800  0.0870  0.0627
 1918TIP3    H1 5711   0.970   6.728   1.069 -0.2639  0.2167  0.1085
 1918TIP3    H2 5712   1.009   6.610   0.981  0.5289 -0.1209  0.8983
 1919TIP3   OH2 5713   1.387   0.711   5.636  0.1774  0.1270 -0.2102
 1919TIP3    H1 5714   1.453   0.776   5.612  0.5161 -0.5420 -1.1248
 1919TIP3    H2 5715   1.325   0.710   5.563  0.4502 -0.9305 -0.4492
 1920TIP3   OH2 5716   6.635   5.129   1.511 -0.9252 -0.0616 -0.3790
 1920TIP3    H1 5717   6.643   5.194   1.441  0.2255  0.3503  0.1192
 1920TIP3    H2 5718   6.543   5.136   1.539 -1.4042 -0.2281 -1.8125
 1921TIP3   OH2 5719   0.136   3.556   1.570  0.5800 -0.2604 -0.0788
 1921TIP3    H1 5720   0.149   3.649   1.549 -0.1304 -0.2927 -0.7081
 1921TIP3    H2 5721   0.197   3.539   1.642  0.6337  0.7226  0.1248
 1922TIP3   OH2 5722   1.665   7.057   3.349 -0.0668 -0.3326  0.3217
 1922TIP3    H1 5723   1.592   7.013   3.392  0.4907 -1.4221  0.1895
 1922TIP3    H2 5724   1.684   7.133   3.404 -2.8897  1.4753 -0.9119
 1923TIP3   OH2 5725   0.626   5.712   1.680  0.7427  0.7659 -0.3571
 1923TIP3    H1 5726   0.665   5.661   1.751 -1.6672 -1.2950 -0.3721
 1923TIP3    H2 5727   0.604   5.796   1.720  0.2682 -0.0200  1.0947
 1924TIP3   OH2 5728   3.146   6.443   3.537 -0.0111  0.4122 -0.1933
 1924TIP3    H1 5729   3.226   6.424   3.487  1.0822 -0.0429  1.6182
 1924TIP3    H2 5730   3.140   6.538   3.537 -1.4300  0.4230 -3.1914
 1925TIP3   OH2 5731   5.565   7.685   6.327 -0.2038  0.6995  0.2044
 1925TIP3    H1 5732   5.628   7.743   6.370  0.4167  1.4072 -1.5488
 1925TIP3    H2 5733   5.578   7.600   6.370  0.7807  1.2215  0.9884
 1926TIP3   OH2 5734   5.452   6.257   2.943 -0.0134 -0.5679  0.3288
 1926TIP3    H1 5735   5.461   6.337   2.892  2.4358 -0.1472  1.2886
 1926TIP3    H2 5736   5.368   6.221   2.917 -0.7482  1.8159 -0.8268
 1927TIP3   OH2 5737   3.179   1.840   4.934 -0.3263 -0.1540 -0.1485
 1927TIP3    H1 5738   3.213   1.750   4.932  2.0861  0.6724  0.3323
 1927TIP3    H2 5739   3.084   1.829   4.937 -0.0930 -2.7557  2.0585
 1928TIP3   OH2 5740   7.491   6.137   6.169 -0.2389 -0.5756  0.0651
 1928TIP3    H1 5741   7.429   6.210   6.175  2.3402  1.6854  0.8796
 1928TIP3    H2 5742   7.502   6.123   6.075  0.4868  1.3291 -0.1909
 1929TIP3   OH2 5743   2.297   5.775   2.577  0.2876  0.2573  0.7589
 1929TIP3    H1 5744   2.213   5.770   2.623  0.9997  1.6436  2.3217
 1929TIP3    H2 5745   2.300   5.863   2.541  0.2622 -0.4311 -1.0517
 1930TIP3   OH2 5746   5.951   5.250   5.360  0.4754 -0.0128  0.0609
 1930TIP3    H1 5747   5.998   5.295   5.289 -1.3484  0.0704 -1.1642
 1930TIP3    H2 5748   6.003   5.172   5.377  0.0341 -1.0412 -2.7168
 1931TIP3   OH2 5749   7.339   1.852   2.134  0.5442 -0.0124  0.4065
 1931TIP3    H1 5750   7.385   1.879   2.054 -0.0538 -0.0422  0.0459
 1931TIP3    H2 5751   7.297   1.931   2.166  2.7074  0.5519  2.0310
 1932TIP3   OH2 5752   1.517   0.341   3.543 -0.2991  0.4278  0.5723
 1932TIP3    H1 5753   1.505   0.250   3.570 -0.6891  0.0891 -0.6333
 1932TIP3    H2 5754   1.536   0.335   3.449 -1.5439  1.6433  0.1996
 1933TIP3   OH2 5755   6.242   5.836   4.594  0.3346  0.1503 -0.8046
 1933TIP3    H1 5756   6.314   5.892   4.567  0.7556  0.1833  0.3289
 1933TIP3    H2 5757   6.205   5.803   4.512  1.3758  0.4553 -1.4148
 1934TIP3   OH2 5758   1.201   1.965   4.423  0.0129 -0.4893 -0.1027
 1934TIP3    H1 5759   1.220   1.928   4.337  1.5881  0.8550 -0.4014
 1934TIP3    H2 5760   1.214   2.059   4.411  1.0010 -0.3434  1.7687
 1935TIP3   OH2 5761   5.632   5.874   2.115 -0.1352 -0.2426  0.6405
 1935TIP3    H1 5762   5.701   5.809   2.117 -0.6902 -0.8704 -0.1502
 1935TIP3    H2 5763   5.555   5.827   2.083 -0.5277  0.8092 -0.0198
 1936TIP3   OH2 5764   0.868   6.094   0.983  0.3241  0.1507  0.0057
 1936TIP3    H1 5765   0.813   6.173   0.988 -2.5277 -1.6485 -0.5024
 1936TIP3    H2 5766   0.844   6.043   1.061  2.2375 -0.2198  0.4101
 1937TIP3   OH2 5767   0.596   4.769   6.707 -0.4601 -0.0415 -0.3237
 1937TIP3    H1 5768   0.501   4.774   6.722 -0.5670  2.5105 -1.4127
 1937TIP3    H2 5769   0.635   4.807   6.785 -0.2682 -1.5512  0.3448
 1938TIP3   OH2 5770   3.202   1.757   6.456 -0.0957  0.1650 -0.1288
 1938TIP3    H1 5771   3.232   1.819   6.389  0.6304 -1.1057 -1.0350
 1938TIP3    H2 5772   3.282   1.722   6.494 -0.4936 -0.1105  0.4629
 1939TIP3   OH2 5773   7.617   0.756   2.317  0.5231  0.2516  0.2952
 1939TIP3    H1 5774   7.698   0.719   2.353  0.8905  0.4349 -0.3368
 1939TIP3    H2 5775   7.646   0.831   2.265 -0.1505  1.0060  0.9709
 1940TIP3   OH2 5776   8.119   0.372   1.710 -0.3225 -0.0486  0.4619
 1940TIP3    H1 5777   8.038   0.423   1.698 -1.1393 -1.4196 -0.0814
 1940TIP3    H2 5778   8.099   0.313   1.783  1.0493  1.2007  1.9318
 1941TIP3   OH2 5779   0.419   2.252   1.421  0.6376  0.3276  0.0697
 1941TIP3    H1 5780   0.502   2.296   1.440  1.5125 -1.0740 -0.3720
 1941TIP3    H2 5781   0.352   2.316   1.444  1.8498  1.7009 -0.1082
 1942TIP3   OH2 5782   0.237   3.798   5.118 -0.1076  0.0035  0.5166
 1942TIP3    H1 5783   0.256   3.710   5.152 -0.8717  0.2589  1.6640
 1942TIP3    H2 5784   0.154   3.787   5.072 -0.0445  0.0622  0.3899
 1943TIP3   OH2 5785   6.670   4.822   0.275  0.1113  0.1138  0.2548
 1943TIP3    H1 5786   6.748   4.877   0.277 -0.1293  0.6537 -1.9794
 1943TIP3    H2 5787   6.597   4.884   0.281 -0.2087  0.4301 -3.9787
 1944TIP3   OH2 5788   1.396   0.541   5.840 -0.1897 -0.1617 -0.4791
 1944TIP3    H1 5789   1.397   0.622   5.789  2.3245 -0.7072 -1.4481
 1944TIP3    H2 5790   1.412   0.472   5.775 -0.6627 -1.2600  0.5501
 1945TIP3   OH2 5791   5.104   2.782   3.144  0.1220  0.3409  0.3051
 1945TIP3    H1 5792   5.127   2.874   3.151 -1.1404  0.6228  1.0431
 1945TIP3    H2 5793   5.008   2.781   3.145  0.1142 -0.9368 -0.2662
 1946TIP3   OH2 5794   7.398   4.815   0.489 -0.1434 -0.5477 -0.3359
 1946TIP3    H1 5795   7.437   4.850   0.570 -0.8074 -0.9041  0.1389
 1946TIP3    H2 5796   7.318   4.866   0.478 -0.1436 -0.6242 -0.6756
 1947TIP3   OH2 5797   7.327   6.025   1.352 -0.2156  0.4210  0.5631
 1947TIP3    H1 5798   7.342   6.117   1.372 -1.2438  0.5976  0.5860
 1947TIP3    H2 5799   7.403   5.999   1.300 -0.4536  1.5870 -0.4064
 1948TIP3   OH2 5800   7.151   7.342   3.246  0.4000 -0.2351  0.2949
 1948TIP3    H1 5801   7.074   7.311   3.198  0.1090 -0.3182  0.8101
 1948TIP3    H2 5802   7.116   7.373   3.330  0.9134 -0.1596  0.4836
 1949TIP3   OH2 5803   0.148   2.442   3.040  0.3834  0.0159  0.9005
 1949TIP3    H1 5804   0.127   2.509   3.105  1.2212  0.7445  0.4367
 1949TIP3    H2 5805   0.117   2.480   2.957  0.1460 -0.5158  0.7442
 1950TIP3   OH2 5806   4.492   7.537   1.859  0.2010 -0.4008  0.2535
 1950TIP3    H1 5807   4.516   7.627   1.835  1.0307 -0.9720 -1.1506
 1950TIP3    H2 5808   4.565   7.508   1.915  1.1848 -0.9776 -1.2516
 1951TIP3   OH2 5809   1.061   2.593   2.219  0.4272 -0.6379 -0.4369
 1951TIP3    H1 5810   1.072   2.669   2.162 -0.4653  0.4335  0.7722
 1951TIP3    H2 5811   0.966   2.579   2.222  0.3624 -0.0276  1.5572
 1952TIP3   OH2 5812   6.050   0.954   4.819  0.3614 -0.1187 -0.2966
 1952TIP3    H1 5813   6.010   1.041   4.809  0.7829  0.5641  2.9387
 1952TIP3    H2 5814   5.980   0.901   4.857  1.0245 -0.2931  0.6982
 1953TIP3   OH2 5815   5.271   5.246   6.320 -0.0439 -0.2135  0.2508
 1953TIP3    H1 5816   5.287   5.315   6.256 -0.4142 -1.2846 -1.0333
 1953TIP3    H2 5817   5.223   5.178   6.272  1.7269 -2.1224  0.9984
 1954TIP3   OH2 5818   4.560   1.304   2.975  0.6124 -0.2531  0.3003
 1954TIP3    H1 5819   4.541   1.214   3.001 -2.2852 -0.1048 -0.9039
 1954TIP3    H2 5820   4.495   1.357   3.021  2.2534  1.2828  0.9669
 1955TIP3   OH2 5821   5.175   6.095   0.756 -0.4370  0.1091 -0.2388
 1955TIP3    H1 5822   5.219   6.150   0.691  0.4701 -0.6165 -0.2611
 1955TIP3    H2 5823   5.120   6.155   0.805 -1.4587  0.6327 -1.9251
 1956TIP3   OH2 5824   2.428   6.994   0.235  0.1454  0.1413 -0.5164
 1956TIP3    H1 5825   2.390   6.907   0.246 -0.8782  0.5104 -1.0160
 1956TIP3    H2 5826   2.479   6.987   0.154  1.0506 -0.3101  0.0715
 1957TIP3   OH2 5827   7.448   3.113   6.718  0.3019  0.3496 -0.2198
 1957TIP3    H1 5828   7.460   3.101   6.624  0.7721  0.5247 -0.1878
 1957TIP3    H2 5829   7.355   3.099   6.733  0.4916 -1.3804 -0.4636
 1958TIP3   OH2 5830   7.975   4.089   4.774  0.1604  0.0237 -0.5596
 1958TIP3    H1 5831   8.053   4.073   4.722 -0.0777 -0.2429 -0.8414
 1958TIP3    H2 5832   7.926   4.156   4.726 -0.2058 -0.4378 -0.8507
 1959TIP3   OH2 5833   1.462   7.492   2.020  0.4785  0.1001 -0.3124
 1959TIP3    H1 5834   1.449   7.567   2.078  1.9682  0.3724 -0.2868
 1959TIP3    H2 5835   1.521   7.434   2.068 -0.3883 -0.9513 -0.4733
 1960TIP3   OH2 5836   7.038   4.397   5.165 -0.7673 -0.5504 -0.3169
 1960TIP3    H1 5837   7.118   4.365   5.207 -0.6775 -0.8910 -0.7467
 1960TIP3    H2 5838   6.974   4.327   5.178 -0.9003 -0.4238 -0.2758
 1961TIP3   OH2 5839   0.500   0.302   5.544 -0.1919 -0.1581 -0.6962
 1961TIP3    H1 5840   0.412   0.304   5.581 -1.3868 -2.6359 -3.0522
 1961TIP3    H2 5841   0.505   0.379   5.487 -1.2525 -0.5168 -1.2987
 1962TIP3   OH2 5842   5.508   3.454   2.857  0.5211 -0.8559 -0.3578
 1962TIP3    H1 5843   5.499   3.364   2.889  0.6318 -0.4040  1.0175
 1962TIP3    H2 5844   5.587   3.452   2.803  0.0708 -1.7529 -1.0048
 1963TIP3   OH2 5845   1.797   7.459   0.564  0.1803 -0.0522  0.2660
 1963TIP3    H1 5846   1.879   7.417   0.538 -1.2350 -3.8524  1.3240
 1963TIP3    H2 5847   1.743   7.458   0.485  0.0893 -0.3416  0.3332
 1964TIP3   OH2 5848   6.192   4.024   5.644  0.0719  0.2850 -0.5797
 1964TIP3    H1 5849   6.175   4.019   5.738  0.5639 -2.1349 -0.5337
 1964TIP3    H2 5850   6.118   3.978   5.604  0.5902  0.0140 -1.2517
 1965TIP3   OH2 5851   4.874   3.140   6.353 -0.2141 -0.0684 -0.5387
 1965TIP3    H1 5852   4.864   3.148   6.258 -0.4586 -3.1170 -0.8616
 1965TIP3    H2 5853   4.839   3.053   6.373 -0.2306  0.5293  2.3806
 1966TIP3   OH2 5854   6.664   1.196   2.356  0.7734  0.3291 -0.5758
 1966TIP3    H1 5855   6.568   1.195   2.354  0.7352  0.5860  0.4598
 1966TIP3    H2 5856   6.689   1.108   2.327  0.0964 -1.0100  2.4741
 1967TIP3   OH2 5857   6.619   5.851   4.231 -0.3981 -0.1360 -0.2521
 1967TIP3    H1 5858   6.615   5.853   4.327  2.6251 -0.9855 -0.0108
 1967TIP3    H2 5859   6.612   5.943   4.205 -0.3348  0.1922  0.8419
 1968TIP3   OH2 5860   2.149   5.142   2.064  0.4495 -0.1969 -0.5116
 1968TIP3    H1 5861   2.089   5.156   1.990 -1.2160  1.8843  1.1103
 1968TIP3    H2 5862   2.227   5.104   2.024 -0.6206  0.2398 -3.2519
 1969TIP3   OH2 5863   3.260   1.578   5.989  0.6386  0.1434 -0.4944
 1969TIP3    H1 5864   3.336   1.558   5.934 -0.7122  0.5622 -2.6756
 1969TIP3    H2 5865   3.229   1.492   6.019  0.8908 -0.1959 -1.1710
 1970TIP3   OH2 5866   2.790   2.603   5.740  0.3223 -0.4271  0.3987
 1970TIP3    H1 5867   2.777   2.548   5.663  0.5991 -0.9603  0.7290
 1970TIP3    H2 5868   2.819   2.687   5.705 -1.9478  0.1702 -0.2496
 1971TIP3   OH2 5869   3.086   0.039   2.450 -0.1877  0.4707 -0.6215
 1971TIP3    H1 5870   3.124  -0.025   2.510 -2.0062 -0.3850 -0.3024
 1971TIP3    H2 5871   3.072   0.117   2.503 -0.9258  0.0288 -0.1415
 1972TIP3   OH2 5872   5.304   6.010   3.927 -0.3530 -0.2511  0.5453
 1972TIP3    H1 5873   5.381   6.014   3.984  0.8808 -1.4697 -0.9209
 1972TIP3    H2 5874   5.317   5.930   3.876 -2.0331  0.1258 -0.5515
 1973TIP3   OH2 5875   3.679   1.723   6.681  0.7211 -0.1424  0.3022
 1973TIP3    H1 5876   3.670   1.639   6.635  1.2291 -0.2715  0.4363
 1973TIP3    H2 5877   3.764   1.757   6.653 -0.1402  1.0786 -0.9757
 1974TIP3   OH2 5878   3.701   2.784   4.392  0.2555 -0.4945 -0.1569
 1974TIP3    H1 5879   3.773   2.837   4.358 -0.5451  2.3096  2.1261
 1974TIP3    H2 5880   3.628   2.801   4.332 -0.3469  2.1671  1.1956
 1975TIP3   OH2 5881   2.443   7.401   0.048 -0.4641  0.7423  0.5241
 1975TIP3    H1 5882   2.439   7.354   0.131 -0.9936 -1.1450 -0.5162
 1975TIP3    H2 5883   2.452   7.333  -0.018 -1.8991  2.0390 -1.1168
 1976TIP3   OH2 5884   0.660   4.204   3.223 -0.3423 -0.4629  0.1745
 1976TIP3    H1 5885   0.632   4.131   3.168 -1.8915 -0.1137  0.4788
 1976TIP3    H2 5886   0.664   4.167   3.312  0.3998 -0.5614  0.1082
 1977TIP3   OH2 5887   4.653   0.963   6.033 -0.1915 -0.2944 -0.9911
 1977TIP3    H1 5888   4.692   0.994   6.115 -1.6384 -2.8418  0.8072
 1977TIP3    H2 5889   4.657   1.038   5.974  1.0124  1.6180  1.3631
 1978TIP3   OH2 5890   1.355   6.369   3.315 -0.0772  0.5962 -0.4597
 1978TIP3    H1 5891   1.436   6.325   3.290  0.0229 -0.6946  1.8777
 1978TIP3    H2 5892   1.363   6.458   3.279  1.8923  0.1969 -1.1166
 1979TIP3   OH2 5893   5.955   2.910   5.836 -0.0466 -0.0433  0.0419
 1979TIP3    H1 5894   5.926   2.819   5.840 -1.3416  0.3558  0.1386
 1979TIP3    H2 5895   6.021   2.918   5.905  0.9857 -1.2049 -0.7690
 1980TIP3   OH2 5896   6.618   7.147   0.182  0.0646 -0.2755  0.3669
 1980TIP3    H1 5897   6.612   7.143   0.087  0.6803  2.2604  0.1668
 1980TIP3    H2 5898   6.689   7.209   0.200  0.8393 -1.6406  2.5143
 1981TIP3   OH2 5899   6.036   6.611   3.479  0.2859  0.4975 -0.3590
 1981TIP3    H1 5900   6.100   6.550   3.442  0.4888  1.5490 -1.8333
 1981TIP3    H2 5901   6.087   6.690   3.499 -0.4208  1.1506 -1.0420
 1982TIP3   OH2 5902   0.235   2.584   3.959 -0.3545 -0.5288 -0.6139
 1982TIP3    H1 5903   0.234   2.576   4.054 -0.3856  1.1707 -0.4337
 1982TIP3    H2 5904   0.143   2.597   3.935 -0.4420 -1.7408 -0.9693
 1983TIP3   OH2 5905   0.654   2.048   1.379  0.2120 -0.0938 -0.1351
 1983TIP3    H1 5906   0.593   1.994   1.429 -1.1039  0.3529 -1.1970
 1983TIP3    H2 5907   0.632   2.138   1.402  1.2947  0.0614  0.3710
 1984TIP3   OH2 5908   1.580   6.602   4.873 -0.2609  0.3989  0.5810
 1984TIP3    H1 5909   1.610   6.693   4.877 -0.2594  0.3668  1.6200
 1984TIP3    H2 5910   1.620   6.567   4.793  1.2325  0.7979  1.1082
 1985TIP3   OH2 5911   6.433   2.964   3.923 -0.8074 -0.2733 -0.3416
 1985TIP3    H1 5912   6.472   2.905   3.987 -1.2831 -0.6543 -0.3967
 1985TIP3    H2 5913   6.393   3.034   3.976 -2.4392 -1.3203 -0.1062
 1986TIP3   OH2 5914   6.396   7.428   6.764  0.0280 -0.2984 -0.5815
 1986TIP3    H1 5915   6.472   7.486   6.757  0.2762 -0.5317  0.0547
 1986TIP3    H2 5916   6.371   7.409   6.674  1.0974 -0.7034 -0.7994
 1987TIP3   OH2 5917   3.268   5.411   4.763  0.2785  0.1284  0.7935
 1987TIP3    H1 5918   3.252   5.453   4.678  0.1709  0.8893  1.1747
 1987TIP3    H2 5919   3.359   5.382   4.759  0.2487  0.0836  0.3882
 1988TIP3   OH2 5920   8.207   1.467   1.206  0.2255 -0.3205  0.6583
 1988TIP3    H1 5921   8.254   1.543   1.172  1.3893 -0.8517  1.0460
 1988TIP3    H2 5922   8.181   1.419   1.127  0.9117 -0.3622  0.4515
 1989TIP3   OH2 5923   0.067   1.996   6.151 -0.2098  0.2443 -0.0181
 1989TIP3    H1 5924   0.025   1.944   6.219  0.8275  0.6607  0.9766
 1989TIP3    H2 5925   0.102   2.072   6.197 -1.1386  1.5315 -1.3292
 1990TIP3   OH2 5926   5.208   2.500   1.961 -0.1427 -0.2589  0.4802
 1990TIP3    H1 5927   5.120   2.508   1.923  0.2880  2.1903 -0.1482
 1990TIP3    H2 5928   5.222   2.582   2.008  2.5713  0.3526 -1.1681
 1991TIP3   OH2 5929   2.367   0.654   5.920  0.5568  0.4368  0.0738
 1991TIP3    H1 5930   2.396   0.610   5.999 -0.8435  0.0505  0.4034
 1991TIP3    H2 5931   2.272   0.641   5.919  0.4550  1.1206 -1.2493
 1992TIP3   OH2 5932   3.567   6.707   3.109  0.1250 -0.3355 -0.1926
 1992TIP3    H1 5933   3.594   6.615   3.120  1.0445 -0.0449  0.0835
 1992TIP3    H2 5934   3.640   6.748   3.063 -0.8474 -0.0206 -1.5116
 1993TIP3   OH2 5935   5.546   6.671   5.504 -0.5638 -0.1063 -0.2766
 1993TIP3    H1 5936   5.524   6.689   5.595  0.1536 -1.2084  0.1414
 1993TIP3    H2 5937   5.462   6.646   5.464 -0.9400  0.7270 -0.0134
 1994TIP3   OH2 5938   6.466   5.530   4.281  0.5167  0.5839  0.5474
 1994TIP3    H1 5939   6.543   5.503   4.330  0.1379  0.7584  1.2423
 1994TIP3    H2 5940   6.408   5.453   4.284  0.6829  0.4292 -0.0281
 1995TIP3   OH2 5941   1.872   4.784   3.158  0.2087 -0.0269  0.7788
 1995TIP3    H1 5942   1.869   4.821   3.246  0.1918 -2.1998  1.7261
 1995TIP3    H2 5943   1.817   4.843   3.106 -1.3048  0.2735  2.6256
 1996TIP3   OH2 5944   5.037   2.132   0.520 -0.4010 -0.3859  0.6051
 1996TIP3    H1 5945   5.000   2.108   0.605  0.8333 -0.8686  1.0332
 1996TIP3    H2 5946   5.002   2.067   0.459  0.3077 -1.2715  1.1345
 1997TIP3   OH2 5947   1.538   0.214   3.289  0.1090  0.4329  0.3410
 1997TIP3    H1 5948   1.573   0.172   3.210 -0.3219  1.1582 -0.2453
 1997TIP3    H2 5949   1.446   0.188   3.292  0.1783  0.2209  0.7391
 1998TIP3   OH2 5950   3.941   1.395   0.105 -0.0049  0.1263 -0.4166
 1998TIP3    H1 5951   3.958   1.303   0.126  2.3007  0.6922  0.6017
 1998TIP3    H2 5952   4.021   1.424   0.060 -0.0371  1.9539  0.5824
 1999TIP3   OH2 5953   8.285   3.828   5.904  0.5607 -0.3533 -0.7127
 1999TIP3    H1 5954   8.218   3.796   5.964  0.3713 -0.2521 -0.8704
 1999TIP3    H2 5955   8.341   3.751   5.889 -0.1147 -0.7291 -1.3908
 2000TIP3   OH2 5956   5.129   5.888   3.275  0.5967 -0.0503  0.2261
 2000TIP3    H1 5957   5.157   5.802   3.244  0.3290  0.1233 -0.5078
 2000TIP3    H2 5958   5.080   5.925   3.202  0.0874  0.4306  0.7968
 2001TIP3   OH2 5959   8.108   6.342   1.377  0.1064  0.0108 -0.8703
 2001TIP3    H1 5960   8.075   6.431   1.372  0.7702  0.2673 -0.7392
 2001TIP3    H2 5961   8.032   6.287   1.356 -0.6505  0.5384  0.3377
 2002TIP3   OH2 5962   1.345   6.289   5.474 -0.2518 -0.1007 -0.0926
 2002TIP3    H1 5963   1.255   6.257   5.466  0.5226 -2.3483 -0.4296
 2002TIP3    H2 5964   1.368   6.319   5.386 -0.3231 -0.4946 -0.2452
 2003TIP3   OH2 5965   7.857   1.184   5.870  0.8198  0.0244 -0.0600
 2003TIP3    H1 5966   7.779   1.152   5.915 -0.9017  0.8463 -2.2953
 2003TIP3    H2 5967   7.899   1.242   5.933 -0.6364 -0.0423  1.0196
 2004TIP3   OH2 5968   5.448   2.252   2.423  0.2594 -0.0972 -0.8402
 2004TIP3    H1 5969   5.408   2.165   2.418 -0.4062  0.0923  0.7428
 2004TIP3    H2 5970   5.445   2.284   2.333 -3.1477 -0.1540 -0.8782
 2005TIP3   OH2 5971   6.828   1.856   0.874 -0.1090  0.1090 -0.0600
 2005TIP3    H1 5972   6.805   1.865   0.782 -0.2608  0.6617  0.0252
 2005TIP3    H2 5973   6.812   1.764   0.894 -0.8232  0.1506 -0.3899
 2006TIP3   OH2 5974   3.617   2.062   4.149 -0.1462  0.2074 -0.2683
 2006TIP3    H1 5975   3.702   2.076   4.190  0.5029  0.3248 -1.6031
 2006TIP3    H2 5976   3.554   2.067   4.221  0.9262  0.6289  0.6592
 2007TIP3   OH2 5977   8.184   1.134   5.778 -0.2733  0.2193  0.4265
 2007TIP3    H1 5978   8.249   1.139   5.848  0.1995 -0.5657  0.0522
 2007TIP3    H2 5979   8.234   1.141   5.697 -0.6929 -0.0243  0.1389
 2008TIP3   OH2 5980   2.274   2.212   5.272 -0.3003 -0.1965  0.1271
 2008TIP3    H1 5981   2.300   2.140   5.330  0.8758 -1.0605 -1.3792
 2008TIP3    H2 5982   2.280   2.290   5.326  0.9632 -0.9485  1.1341
 2009TIP3   OH2 5983   3.093   1.402   4.513  0.1911  0.3606 -0.6380
 2009TIP3    H1 5984   3.138   1.443   4.586 -0.4971 -0.5531  0.3296
 2009TIP3    H2 5985   3.037   1.470   4.477  0.3137  0.7305 -0.1267
 2010TIP3   OH2 5986   0.797   2.728   3.136  0.5787  0.2515 -0.4679
 2010TIP3    H1 5987   0.773   2.773   3.217 -2.7085  0.9569 -1.7023
 2010TIP3    H2 5988   0.856   2.789   3.091 -0.0799  1.2600  0.0082
 2011TIP3   OH2 5989   1.593   2.514   6.555  0.7462 -0.4347 -0.5419
 2011TIP3    H1 5990   1.643   2.434   6.573 -0.9401 -1.3480  0.3184
 2011TIP3    H2 5991   1.520   2.484   6.500 -1.2611  0.0004  1.7507
 2012TIP3   OH2 5992   3.774   4.975   3.924 -0.0461 -0.1613 -0.2202
 2012TIP3    H1 5993   3.796   4.884   3.904  0.4247  0.0755 -0.8173
 2012TIP3    H2 5994   3.762   4.976   4.019  1.9126 -0.4524  0.0775
 2013TIP3   OH2 5995   1.022   6.639   4.352  0.2504 -0.0484  0.2038
 2013TIP3    H1 5996   1.021   6.726   4.313 -0.0198  0.5366  1.4469
 2013TIP3    H2 5997   1.112   6.627   4.382  0.5449 -0.6402 -0.8691
 2014TIP3   OH2 5998   2.832   0.697   1.430  0.3558  0.5989  0.2901
 2014TIP3    H1 5999   2.753   0.672   1.478 -0.6529  1.6601 -0.7671
 2014TIP3    H2 6000   2.853   0.784   1.463  1.3873  0.1270  0.9162
 2015TIP3   OH2 6001   4.667   1.934   4.925 -0.1813 -0.4599 -0.8930
 2015TIP3    H1 6002   4.575   1.906   4.927  0.3080 -2.3711 -2.6977
 2015TIP3    H2 6003   4.714   1.866   4.973  0.2159  1.1663  1.1635
 2016TIP3   OH2 6004   4.273   2.404   2.470  0.9329  0.2067 -0.4504
 2016TIP3    H1 6005   4.236   2.491   2.453  0.0402 -0.1550 -0.3670
 2016TIP3    H2 6006   4.301   2.373   2.384 -3.1815 -1.4428 -1.4028
 2017TIP3   OH2 6007   2.803   5.892   0.967 -0.0266  0.6839  0.2316
 2017TIP3    H1 6008   2.806   5.910   1.061 -1.9589 -1.7475  0.8490
 2017TIP3    H2 6009   2.711   5.873   0.949  0.6503 -1.1374 -1.6509
 2018TIP3   OH2 6010   3.035   1.202   5.473 -0.1407  0.3826  0.3874
 2018TIP3    H1 6011   3.037   1.297   5.485  0.6567  0.9173 -2.9357
 2018TIP3    H2 6012   2.955   1.186   5.422 -0.2123 -0.7359  0.8159
 2019TIP3   OH2 6013   7.766   3.883   0.051 -0.2758  0.7112  0.1730
 2019TIP3    H1 6014   7.837   3.948   0.047 -1.1624  1.6867 -0.2224
 2019TIP3    H2 6015   7.687   3.933   0.033 -1.0348 -0.4325  0.2302
 2020TIP3   OH2 6016   4.705   3.526   1.157 -0.4093  0.2832  0.4022
 2020TIP3    H1 6017   4.664   3.589   1.216  0.6827 -0.9237  2.5463
 2020TIP3    H2 6018   4.799   3.542   1.167 -0.1835  0.9282 -2.0750
 2021TIP3   OH2 6019   7.532   2.657   4.306  0.3101  0.0771  0.5455
 2021TIP3    H1 6020   7.437   2.652   4.291  0.1956 -0.6231  1.4648
 2021TIP3    H2 6021   7.541   2.677   4.399  1.0797 -0.4198  0.5823
 2022TIP3   OH2 6022   2.619   7.080   0.738  0.3581 -0.4815  0.3295
 2022TIP3    H1 6023   2.561   7.081   0.662 -0.5390  1.2760  0.9869
 2022TIP3    H2 6024   2.560   7.063   0.812  0.5213  1.9906  1.0843
 2023TIP3   OH2 6025   4.190   3.487   0.122  0.2145  0.3407 -0.2751
 2023TIP3    H1 6026   4.187   3.549   0.195 -1.4795  0.0515 -0.0623
 2023TIP3    H2 6027   4.099   3.480   0.093  0.9348  1.1795 -3.0428
 2024TIP3   OH2 6028   5.956   5.518   1.653 -0.4298 -0.4495  1.1676
 2024TIP3    H1 6029   5.990   5.596   1.607  0.0338 -1.4015 -0.1622
 2024TIP3    H2 6030   5.932   5.551   1.740  0.7355  0.9716  1.0024
 2025TIP3   OH2 6031   3.113   7.705   5.091 -0.7713  0.0372  0.3727
 2025TIP3    H1 6032   3.142   7.706   5.183 -0.3417  1.0299  0.2462
 2025TIP3    H2 6033   3.194   7.715   5.041 -1.0478 -0.0674 -0.0964
 2026TIP3   OH2 6034   4.081   4.061   4.175  0.1096  0.1113  0.1105
 2026TIP3    H1 6035   4.080   4.037   4.083 -1.9952  0.2463  0.0471
 2026TIP3    H2 6036   4.133   3.993   4.217 -0.1628 -0.7936 -0.9748
 2027TIP3   OH2 6037   3.385   5.527   4.512 -0.1491  0.1140  0.2076
 2027TIP3    H1 6038   3.406   5.596   4.449  2.1612  0.0907  0.8594
 2027TIP3    H2 6039   3.440   5.453   4.486 -0.0966 -0.3288  1.4996
 2028TIP3   OH2 6040   3.753   6.220   3.740  0.6943  0.0958 -0.4645
 2028TIP3    H1 6041   3.749   6.259   3.828 -1.7649  0.2043 -0.5585
 2028TIP3    H2 6042   3.793   6.288   3.686  1.9155  0.1631  0.4751
 2029TIP3   OH2 6043   1.135   4.000   3.404  0.3387  0.5739 -0.3825
 2029TIP3    H1 6044   1.102   4.084   3.436  2.7729  1.5446 -0.2027
 2029TIP3    H2 6045   1.205   4.023   3.344  0.9210 -1.3447 -0.5155
 2030TIP3   OH2 6046   0.704   3.854   1.919 -0.1340 -0.3405  0.2321
 2030TIP3    H1 6047   0.761   3.835   1.994  1.0300 -0.7044 -0.6896
 2030TIP3    H2 6048   0.758   3.908   1.862 -0.7322 -0.6588 -0.6566
 2031TIP3   OH2 6049   7.204   3.490   1.133  0.4739 -0.2319  0.2413
 2031TIP3    H1 6050   7.181   3.558   1.070  1.4646  0.1482  0.2673
 2031TIP3    H2 6051   7.263   3.431   1.086  0.2186 -0.6561  0.4429
 2032TIP3   OH2 6052   3.253   6.249   5.072 -0.1506  0.7626  0.1211
 2032TIP3    H1 6053   3.215   6.176   5.123 -0.3548  0.7986  0.0193
 2032TIP3    H2 6054   3.333   6.212   5.035  0.4432  0.9786  1.1515
 2033TIP3   OH2 6055   1.942   5.303   0.276 -0.0974  0.1705 -0.5571
 2033TIP3    H1 6056   1.874   5.236   0.278  0.1145 -0.0852 -1.4176
 2033TIP3    H2 6057   2.000   5.276   0.204  0.1065  1.1538 -0.7776
 2034TIP3   OH2 6058   0.574   0.250   3.656  0.5982  0.2860  0.6909
 2034TIP3    H1 6059   0.587   0.189   3.583  0.8541 -0.0128  0.9842
 2034TIP3    H2 6060   0.663   0.268   3.688  0.6920  2.1301 -0.4514
 2035TIP3   OH2 6061   5.345   1.144   3.285  0.2408 -1.1861  0.2319
 2035TIP3    H1 6062   5.351   1.238   3.265  1.0731 -1.3131 -0.1599
 2035TIP3    H2 6063   5.260   1.117   3.249  0.9302 -1.0322 -1.6391
 2036TIP3   OH2 6064   0.301   7.122   3.576 -0.7656 -0.2765 -0.0751
 2036TIP3    H1 6065   0.284   7.151   3.666 -1.6122  0.3750 -0.4254
 2036TIP3    H2 6066   0.304   7.027   3.581 -2.0023 -0.3071  0.4626
 2037TIP3   OH2 6067   5.665   5.408   5.968  0.1470  0.3209 -0.3603
 2037TIP3    H1 6068   5.710   5.493   5.959  1.1497 -0.0772  0.5745
 2037TIP3    H2 6069   5.685   5.362   5.886 -1.3268  1.3758 -1.3512
 2038TIP3   OH2 6070   7.767   4.450   5.758  0.4043 -0.2031  0.0800
 2038TIP3    H1 6071   7.695   4.390   5.777  1.1749 -1.2496 -0.1889
 2038TIP3    H2 6072   7.761   4.464   5.663  0.2537  0.1129  0.1355
 2039TIP3   OH2 6073   1.525   0.275   1.374  0.1943 -0.3488 -0.5787
 2039TIP3    H1 6074   1.564   0.193   1.343  1.5259 -1.0239  2.4438
 2039TIP3    H2 6075   1.596   0.321   1.418 -0.9429  1.6470 -0.6977
 2040TIP3   OH2 6076   1.463   0.157   6.515  0.1182  0.0499  0.1928
 2040TIP3    H1 6077   1.527   0.226   6.530  1.0025 -0.0671 -2.5843
 2040TIP3    H2 6078   1.408   0.189   6.445 -2.7631 -0.0197  2.2306
 2041TIP3   OH2 6079   2.869   7.234   0.403 -0.2427 -0.6225 -0.1951
 2041TIP3    H1 6080   2.961   7.210   0.412 -0.0386 -0.2177 -1.1000
 2041TIP3    H2 6081   2.855   7.240   0.308 -1.2660 -0.9251 -0.0748
 2042TIP3   OH2 6082   4.800   5.151   4.742 -0.1623  0.3249  0.0626
 2042TIP3    H1 6083   4.841   5.169   4.657 -1.8270  1.0063 -0.6340
 2042TIP3    H2 6084   4.857   5.086   4.783 -1.6583 -3.6611 -3.5164
 2043TIP3   OH2 6085   1.895   7.165   3.209  0.0246  0.3741  0.4076
 2043TIP3    H1 6086   1.970   7.153   3.267  0.2559 -2.4085 -0.3032
 2043TIP3    H2 6087   1.820   7.137   3.260  0.2434 -2.2011 -0.5408
 2044TIP3   OH2 6088   2.149   7.463   0.935 -0.5697  0.2188  0.0746
 2044TIP3    H1 6089   2.210   7.389   0.932  0.0865  0.7460  0.3910
 2044TIP3    H2 6090   2.065   7.423   0.961 -1.1792 -1.0368 -3.2736
 2045TIP3   OH2 6091   4.643   1.547   4.234 -0.1284  0.3045 -0.5451
 2045TIP3    H1 6092   4.558   1.544   4.191  0.4721  0.7478 -1.8198
 2045TIP3    H2 6093   4.674   1.456   4.233 -0.5630  0.1498 -0.1080
 2046TIP3   OH2 6094   1.680   6.560   1.390 -0.4590  0.5285  0.0512
 2046TIP3    H1 6095   1.695   6.548   1.296  0.7431  2.3382 -0.0574
 2046TIP3    H2 6096   1.623   6.637   1.395 -3.0026 -1.3141  0.7704
 2047TIP3   OH2 6097   7.930   0.580   1.644  0.0889 -0.6900  0.0326
 2047TIP3    H1 6098   7.952   0.649   1.706 -0.3190 -1.1804  0.7416
 2047TIP3    H2 6099   7.945   0.619   1.558  2.8274 -0.7053  0.4329
 2048TIP3   OH2 6100   1.691   4.545   5.084 -0.2160  0.1241 -0.5026
 2048TIP3    H1 6101   1.715   4.453   5.069 -2.0642 -0.2535 -1.3942
 2048TIP3    H2 6102   1.596   4.545   5.088 -0.3255  2.1768 -1.7147
 2049TIP3   OH2 6103   1.722   4.482   4.517  0.1898 -0.1680 -0.4517
 2049TIP3    H1 6104   1.700   4.425   4.591  1.3375 -1.6058 -1.1628
 2049TIP3    H2 6105   1.799   4.530   4.547  0.2247 -0.2215 -0.4555
 2050TIP3   OH2 6106   1.295   1.148   1.141 -0.3824  0.1891 -0.4433
 2050TIP3    H1 6107   1.294   1.164   1.235 -3.3901  1.0092 -0.5100
 2050TIP3    H2 6108   1.319   1.056   1.132 -0.0437  0.1041  1.1244
 2051TIP3   OH2 6109   1.336   6.212   0.315 -0.1212  0.7025  0.0607
 2051TIP3    H1 6110   1.372   6.136   0.362  0.0806 -0.0837 -1.2917
 2051TIP3    H2 6111   1.351   6.286   0.373  0.2847 -0.1986  1.1393
 2052TIP3   OH2 6112   2.800   2.904   6.476  0.2479 -0.2812 -0.0044
 2052TIP3    H1 6113   2.869   2.969   6.493  0.1737 -0.4529  0.9697
 2052TIP3    H2 6114   2.748   2.943   6.406  0.2785  0.6614  0.4797
 2053TIP3   OH2 6115   7.995   5.650   5.573  0.2247 -0.1857  0.3820
 2053TIP3    H1 6116   8.075   5.597   5.575  0.7175  0.5575  1.6603
 2053TIP3    H2 6117   8.027   5.741   5.576 -0.5564  0.2861 -2.6520
 2054TIP3   OH2 6118   7.130   0.595   3.426 -0.6096  0.6523  0.2388
 2054TIP3    H1 6119   7.097   0.533   3.491 -0.3561  1.1535  0.8544
 2054TIP3    H2 6120   7.223   0.602   3.444 -0.4066  0.3033 -0.6070
 2055TIP3   OH2 6121   6.006   7.466   5.948  0.0198 -0.1204 -0.1875
 2055TIP3    H1 6122   6.080   7.431   5.997 -1.0567 -0.1504  1.4953
 2055TIP3    H2 6123   5.958   7.389   5.917 -0.4456 -0.1300  0.5357
 2056TIP3   OH2 6124   5.273   2.978   5.750  0.0189 -0.2307 -0.0542
 2056TIP3    H1 6125   5.342   3.042   5.763 -1.4294  0.9443  2.8941
 2056TIP3    H2 6126   5.197   3.029   5.723 -0.6424 -0.9565  0.3628
 2057TIP3   OH2 6127   6.559   1.738   1.154 -0.2587  0.0212 -0.0984
 2057TIP3    H1 6128   6.639   1.753   1.205 -0.8585  1.9930  0.3800
 2057TIP3    H2 6129   6.573   1.785   1.072 -0.9524  0.4920  0.0383
 2058TIP3   OH2 6130   2.083   0.419   5.441  0.5893  0.2713  0.2182
 2058TIP3    H1 6131   1.990   0.394   5.443  0.5756  0.3647  1.1948
 2058TIP3    H2 6132   2.128   0.347   5.484  0.7987  0.8922  1.0577
 2059TIP3   OH2 6133   2.958   0.187   1.389  0.3147 -0.2001 -0.1653
 2059TIP3    H1 6134   2.999   0.118   1.441 -0.4375 -1.0390 -0.6702
 2059TIP3    H2 6135   2.906   0.141   1.324  0.0140  0.8473 -0.6886
 2060TIP3   OH2 6136   6.267   5.636   2.432  0.0611 -0.6513 -0.4787
 2060TIP3    H1 6137   6.282   5.652   2.339 -1.5825 -1.0330 -0.8551
 2060TIP3    H2 6138   6.353   5.642   2.472  0.4637  2.8321 -1.5151
 2061TIP3   OH2 6139   6.665   2.214   2.211  0.6279 -0.0267 -0.2655
 2061TIP3    H1 6140   6.619   2.217   2.295  1.1003 -0.4340  0.0105
 2061TIP3    H2 6141   6.602   2.248   2.148 -0.0287 -0.5199  0.1198
 2062TIP3   OH2 6142   0.593   7.482   6.551  0.1830  0.1466  0.2946
 2062TIP3    H1 6143   0.677   7.439   6.567  0.4834 -0.0793 -1.6500
 2062TIP3    H2 6144   0.545   7.420   6.496 -0.3918  1.1825 -0.3948
 2063TIP3   OH2 6145   2.696   7.203   3.395 -0.0994  0.4343 -0.0259
 2063TIP3    H1 6146   2.714   7.260   3.470 -0.1665 -0.6493  0.8326
 2063TIP3    H2 6147   2.748   7.124   3.411  0.6474  0.5620 -1.6202
 2064TIP3   OH2 6148   5.785   4.459   3.169 -0.2874 -0.5217 -0.3625
 2064TIP3    H1 6149   5.871   4.418   3.159 -0.1664 -0.5419  0.6158
 2064TIP3    H2 6150   5.733   4.423   3.097 -0.1951 -2.4388  0.4663
 2065TIP3   OH2 6151   2.264   0.834   6.308 -0.0666  1.1546 -0.5105
 2065TIP3    H1 6152   2.242   0.924   6.330  0.2478  1.4143 -1.2632
 2065TIP3    H2 6153   2.205   0.811   6.236 -0.2305  0.7123 -0.2453
 2066TIP3   OH2 6154   6.392   1.871   2.719  0.2593 -0.0560  0.2100
 2066TIP3    H1 6155   6.360   1.960   2.707  2.9809  1.0984  0.7134
 2066TIP3    H2 6156   6.421   1.844   2.631 -0.9647 -0.6699 -0.0306
 2067TIP3   OH2 6157   6.439   1.492   3.531 -0.4678  0.2070  0.0714
 2067TIP3    H1 6158   6.377   1.556   3.497 -1.4278 -0.7418 -0.0358
 2067TIP3    H2 6159   6.400   1.407   3.509  2.5041 -0.5437 -3.1393
 2068TIP3   OH2 6160   6.018   5.254   3.418 -0.0416  0.0590 -0.4207
 2068TIP3    H1 6161   6.061   5.168   3.415 -1.0909 -0.5627  1.0380
 2068TIP3    H2 6162   6.059   5.304   3.347  0.0006 -1.9101 -1.8724
 2069TIP3   OH2 6163   3.468   3.059   4.771 -0.3953 -0.6425 -0.0658
 2069TIP3    H1 6164   3.493   2.973   4.737  0.2009 -0.5491  0.1228
 2069TIP3    H2 6165   3.538   3.082   4.832 -0.2637  0.2187 -0.5222
 2070TIP3   OH2 6166   6.130   7.791   1.797 -0.2386 -0.1015  0.2889
 2070TIP3    H1 6167   6.055   7.802   1.740  0.3291 -0.2989 -0.5052
 2070TIP3    H2 6168   6.152   7.879   1.826 -0.6929 -0.0315  0.4367
 2071TIP3   OH2 6169   7.056   4.077   5.813 -0.0037  0.0867  0.1815
 2071TIP3    H1 6170   7.034   4.088   5.905  0.0098  1.0472  0.0815
 2071TIP3    H2 6171   7.031   4.160   5.773  0.3756 -0.1722 -0.6063
 2072TIP3   OH2 6172   0.820   5.835   0.941 -0.4195  0.1011  0.3603
 2072TIP3    H1 6173   0.847   5.927   0.944 -0.6399  0.2086 -0.6269
 2072TIP3    H2 6174   0.730   5.836   0.973 -0.2843  0.1677  0.7443
 2073TIP3   OH2 6175   2.681   4.919   4.709  0.4784 -0.2992  0.2040
 2073TIP3    H1 6176   2.675   4.975   4.631  2.2591  0.0838  0.3153
 2073TIP3    H2 6177   2.687   4.830   4.673 -1.4921 -0.4144  0.0120
 2074TIP3   OH2 6178   0.503   0.529   3.650  0.3449 -0.7391 -0.3063
 2074TIP3    H1 6179   0.540   0.441   3.640  0.8102 -0.5493 -0.2796
 2074TIP3    H2 6180   0.409   0.516   3.645  0.4170 -1.2197 -0.4730
 2075TIP3   OH2 6181   0.902   5.319   2.226  0.4006  0.3281  0.4098
 2075TIP3    H1 6182   0.996   5.309   2.240  0.3137 -1.6610 -0.1416
 2075TIP3    H2 6183   0.865   5.234   2.247 -1.1501  0.7243 -0.5132
 2076TIP3   OH2 6184   4.166   0.675   5.393 -0.1076  0.2099  0.0705
 2076TIP3    H1 6185   4.129   0.727   5.465  1.0235  0.9606  0.1388
 2076TIP3    H2 6186   4.253   0.713   5.379  1.2721 -2.4042  0.9032
 2077TIP3   OH2 6187   4.018   5.293   4.158  0.1926 -0.2824  0.5454
 2077TIP3    H1 6188   4.056   5.214   4.120  0.5601  0.2880 -0.3050
 2077TIP3    H2 6189   3.966   5.331   4.087 -0.2181  0.0920  1.0392
 2078TIP3   OH2 6190   6.581   1.568   0.127 -0.1992 -0.1064  0.1383
 2078TIP3    H1 6191   6.599   1.490   0.180  0.8356 -0.1664 -0.2720
 2078TIP3    H2 6192   6.611   1.641   0.181 -2.1750  0.1420  0.9862
 2079TIP3   OH2 6193   6.740   5.578   6.617  0.9293  0.0028 -0.2319
 2079TIP3    H1 6194   6.702   5.580   6.705  0.6134 -0.9480 -0.3397
 2079TIP3    H2 6195   6.667   5.600   6.559  0.6649 -1.2238 -0.3908
 2080TIP3   OH2 6196   0.842   3.409   3.970 -0.4510  1.0401 -0.0131
 2080TIP3    H1 6197   0.871   3.327   4.010 -1.9063  0.1957 -0.5896
 2080TIP3    H2 6198   0.922   3.452   3.942  0.3184 -0.9052 -1.0265
 2081TIP3   OH2 6199   1.675   1.594   4.638 -0.1578 -0.4037  0.6899
 2081TIP3    H1 6200   1.671   1.689   4.627 -0.5944 -0.3518  1.2197
 2081TIP3    H2 6201   1.610   1.559   4.576  0.1044 -0.3647  0.3946
 2082TIP3   OH2 6202   7.915   3.053   0.601  0.2788  0.4971 -0.9901
 2082TIP3    H1 6203   7.895   3.128   0.545  1.3667  0.4428 -1.4771
 2082TIP3    H2 6204   8.003   3.026   0.575  1.1709  0.9500  1.2466
 2083TIP3   OH2 6205   1.189   4.147   4.212  0.2054 -0.1444  0.0204
 2083TIP3    H1 6206   1.202   4.061   4.172  2.0418 -0.2172  0.6520
 2083TIP3    H2 6207   1.094   4.156   4.220 -0.0481 -1.8935 -0.5156
 2084TIP3   OH2 6208   3.144   1.531   3.551  0.6976 -0.2535  0.4574
 2084TIP3    H1 6209   3.117   1.598   3.614 -3.0156  1.5110 -2.5868
 2084TIP3    H2 6210   3.224   1.565   3.511  0.6276  0.7673  1.1583
 2085TIP3   OH2 6211   6.226   4.315   1.445 -0.5323 -0.3202  0.2042
 2085TIP3    H1 6212   6.294   4.305   1.511 -1.4198 -1.6535  0.9774
 2085TIP3    H2 6213   6.231   4.235   1.392  0.3458  0.8429 -1.5661
 2086TIP3   OH2 6214   0.031   1.658   6.049  0.6898 -0.3232 -1.0901
 2086TIP3    H1 6215   0.121   1.683   6.068  0.3728  0.0652 -0.0669
 2086TIP3    H2 6216   0.004   1.716   5.978  0.6878  0.7398 -0.2326
 2087TIP3   OH2 6217   6.068   3.770   1.560  0.0546  0.1582 -0.3439
 2087TIP3    H1 6218   6.096   3.682   1.585  0.8072 -0.1314 -2.0138
 2087TIP3    H2 6219   6.136   3.828   1.593 -0.5068  0.1489  0.8703
 2088TIP3   OH2 6220   7.599   4.357   5.466  0.0932 -0.4737  0.1262
 2088TIP3    H1 6221   7.665   4.369   5.398 -0.7446 -1.3690 -0.8856
 2088TIP3    H2 6222   7.601   4.263   5.485 -0.5491 -0.4299  0.4317
 2089TIP3   OH2 6223   2.718   4.915   2.324 -0.3731 -0.1522 -0.2806
 2089TIP3    H1 6224   2.810   4.898   2.305 -0.4902  0.6528 -1.7051
 2089TIP3    H2 6225   2.701   4.866   2.405  0.8467 -1.7389 -0.9185
 2090TIP3   OH2 6226   4.265   5.497   6.559 -0.9616 -0.0759  0.2701
 2090TIP3    H1 6227   4.180   5.483   6.601 -1.5697 -1.1043 -1.2450
 2090TIP3    H2 6228   4.252   5.574   6.503 -0.9566 -0.3589 -0.1217
 2091TIP3   OH2 6229   1.705   6.301   0.152 -0.0335  0.3977 -0.1887
 2091TIP3    H1 6230   1.765   6.231   0.179 -0.6824 -0.6531 -1.3367
 2091TIP3    H2 6231   1.618   6.260   0.157 -0.2286  0.1998 -3.4300
 2092TIP3   OH2 6232   1.625   4.405   1.496 -0.1007  0.1555 -0.2575
 2092TIP3    H1 6233   1.688   4.463   1.540 -1.1915  0.3447  1.1030
 2092TIP3    H2 6234   1.634   4.321   1.542 -1.0339  0.2664  0.1463
 2093TIP3   OH2 6235   7.318   4.128   0.736 -0.6594  0.0781 -0.1864
 2093TIP3    H1 6236   7.246   4.094   0.789 -0.6804  0.5208  0.0710
 2093TIP3    H2 6237   7.297   4.101   0.647 -0.2099 -1.3852  0.1257
 2094TIP3   OH2 6238   1.074   6.291   1.892 -0.1365  0.5853 -0.5136
 2094TIP3    H1 6239   1.034   6.248   1.817  0.5697 -0.0000 -0.5619
 2094TIP3    H2 6240   1.017   6.270   1.966 -0.8021  1.1173 -0.8608
 2095TIP3   OH2 6241   5.548   4.655   1.119  0.4300  0.2988  0.5948
 2095TIP3    H1 6242   5.527   4.563   1.129  0.8511  0.0999 -0.2645
 2095TIP3    H2 6243   5.488   4.687   1.051  0.3278  0.6474  0.8418
 2096TIP3   OH2 6244   1.862   1.711   2.489  0.4172 -0.0449 -0.3567
 2096TIP3    H1 6245   1.847   1.747   2.402  1.5025  0.4574 -0.3545
 2096TIP3    H2 6246   1.898   1.785   2.539  1.4060 -0.7620  0.0221
 2097TIP3   OH2 6247   1.672   7.344   0.119  0.1133  0.0015  0.4879
 2097TIP3    H1 6248   1.651   7.382   0.204  0.9640  0.8156  0.3567
 2097TIP3    H2 6249   1.763   7.314   0.128 -0.3500 -1.5277  0.4054
 2098TIP3   OH2 6250   3.247   4.009   5.856  0.2924 -0.2042  0.3276
 2098TIP3    H1 6251   3.217   4.083   5.909 -1.3157  2.1700 -3.4779
 2098TIP3    H2 6252   3.323   4.043   5.809 -1.4035 -0.1860 -2.6754
 2099TIP3   OH2 6253   1.054   6.384   1.193  0.1554 -0.3513 -0.4138
 2099TIP3    H1 6254   1.063   6.440   1.116  0.2747 -0.6369 -0.6080
 2099TIP3    H2 6255   0.990   6.429   1.248  1.5935  0.9500  0.2921
 2100TIP3   OH2 6256   5.387   4.776   6.201 -0.9998  0.2456 -0.1631
 2100TIP3    H1 6257   5.305   4.820   6.222 -0.9611 -0.5118  1.8255
 2100TIP3    H2 6258   5.453   4.846   6.201 -1.3584  0.5879  0.1769
 2101TIP3   OH2 6259   7.991   4.840   6.314 -0.6096 -0.3112 -0.1663
 2101TIP3    H1 6260   7.940   4.769   6.352  1.0592 -0.0895  2.8006
 2101TIP3    H2 6261   7.971   4.916   6.368  0.6809  0.4522 -0.7171
 2102TIP3   OH2 6262   1.631   3.119   5.652  0.1468 -0.5554  0.1882
 2102TIP3    H1 6263   1.725   3.110   5.665  0.1093 -1.3291 -0.0382
 2102TIP3    H2 6264   1.592   3.088   5.733  0.0217 -2.4346 -0.5486
 2103TIP3   OH2 6265   1.876   3.144   5.815 -0.1906 -0.6483 -0.3164
 2103TIP3    H1 6266   1.884   3.092   5.894 -1.4247  0.2136  0.4241
 2103TIP3    H2 6267   1.839   3.228   5.845 -1.8177 -0.7232 -1.9218
 2104TIP3   OH2 6268   4.315   5.492   5.245  0.1048 -0.4154  0.5034
 2104TIP3    H1 6269   4.371   5.427   5.288 -0.4685 -0.2625  1.5238
 2104TIP3    H2 6270   4.238   5.441   5.217  0.1734 -0.3878  0.2662
 2105TIP3   OH2 6271   7.036   1.194   6.539 -0.0127  0.1716  0.3594
 2105TIP3    H1 6272   7.058   1.231   6.454  0.2946  1.0410  0.8049
 2105TIP3    H2 6273   7.107   1.223   6.597 -1.1960  1.2032  1.3421
 2106TIP3   OH2 6274   3.277   4.693   5.639  0.3978 -0.4423  0.4316
 2106TIP3    H1 6275   3.208   4.641   5.597 -0.2553 -0.5104  1.5443
 2106TIP3    H2 6276   3.297   4.645   5.720  1.3364 -0.1053  0.4117
 2107TIP3   OH2 6277   3.994   7.106   5.432 -0.3083 -0.4430 -0.1970
 2107TIP3    H1 6278   4.081   7.141   5.451 -0.5883  0.9268 -1.2339
 2107TIP3    H2 6279   4.008   7.012   5.420  1.0572 -0.2274 -0.4495
 2108TIP3   OH2 6280   3.890   6.115   2.431 -0.0584 -0.6223 -0.4005
 2108TIP3    H1 6281   3.850   6.029   2.432  0.7389 -1.0039  0.1079
 2108TIP3    H2 6282   3.885   6.144   2.340 -2.4686 -0.1633 -0.1866
 2109TIP3   OH2 6283   7.563   2.187   5.099 -0.1101 -0.3436  0.3880
 2109TIP3    H1 6284   7.517   2.122   5.152  1.8191 -0.0987  2.4945
 2109TIP3    H2 6285   7.645   2.204   5.146  0.3100  2.2351 -1.0524
 2110TIP3   OH2 6286   3.523   6.740   4.865 -0.6977  0.2786 -0.9327
 2110TIP3    H1 6287   3.588   6.670   4.859  1.1299  1.9715 -2.0789
 2110TIP3    H2 6288   3.556   6.797   4.935 -1.8262  0.3556 -0.4453
 2111TIP3   OH2 6289   5.979   6.934   4.025  0.5362 -0.2100 -0.4579
 2111TIP3    H1 6290   6.058   6.942   4.078 -0.4252 -0.8474  1.1481
 2111TIP3    H2 6291   5.969   7.020   3.983 -0.0845  1.3360  2.5532
 2112TIP3   OH2 6292   0.926   0.074   3.328  0.4262  0.2428  0.4210
 2112TIP3    H1 6293   0.951  -0.015   3.303 -0.9742  0.1647 -0.8612
 2112TIP3    H2 6294   1.006   0.112   3.364  0.9073 -1.7071  1.5766
 2113TIP3   OH2 6295   3.295   5.581   3.750 -0.0821 -0.1964  0.1222
 2113TIP3    H1 6296   3.300   5.604   3.657 -0.4408  0.1724  0.1944
 2113TIP3    H2 6297   3.380   5.541   3.769  0.9270  1.8744  0.2069
 2114TIP3   OH2 6298   5.143   4.491   5.245 -0.0040 -0.0704  0.2654
 2114TIP3    H1 6299   5.159   4.571   5.295 -0.8712 -0.6780  1.5682
 2114TIP3    H2 6300   5.098   4.433   5.306 -0.1485 -1.2494 -0.9135
 2115TIP3   OH2 6301   3.893   6.979   0.397  0.2809  0.0608 -0.0980
 2115TIP3    H1 6302   3.924   6.984   0.487  2.7335 -1.3825 -0.7470
 2115TIP3    H2 6303   3.903   7.068   0.363  0.0310  0.4583  0.8370
 2116TIP3   OH2 6304   6.369   0.561   1.751  0.5629 -0.0776  0.1576
 2116TIP3    H1 6305   6.450   0.609   1.733  0.3185 -0.1616 -1.3135
 2116TIP3    H2 6306   6.384   0.474   1.714 -0.5362  0.2081 -1.0367
 2117TIP3   OH2 6307   4.295   4.434   3.119 -0.4578  0.6049  0.2568
 2117TIP3    H1 6308   4.350   4.365   3.081  1.3652  0.7277  2.5173
 2117TIP3    H2 6309   4.215   4.389   3.144 -0.0681 -0.2851 -0.0512
 2118TIP3   OH2 6310   1.479   7.010   6.368  0.2100 -0.3104 -0.0267
 2118TIP3    H1 6311   1.501   6.987   6.458  1.3591  1.4634  0.2041
 2118TIP3    H2 6312   1.475   6.926   6.322 -0.0410 -1.2288  1.5728
 2119TIP3   OH2 6313   4.593   5.357   0.378  0.0627 -0.1694  0.1836
 2119TIP3    H1 6314   4.582   5.443   0.339  0.5369  1.0556  2.5792
 2119TIP3    H2 6315   4.686   5.353   0.402 -0.2934 -0.6539  1.5636
 2120TIP3   OH2 6316   7.235   1.491   1.384 -0.3855  0.1758  0.6308
 2120TIP3    H1 6317   7.173   1.450   1.445 -1.1813  0.6136  0.1338
 2120TIP3    H2 6318   7.321   1.472   1.421 -0.7289 -1.7192  0.5421
 2121TIP3   OH2 6319   7.496   0.061   1.341  0.9349  0.0878  0.7425
 2121TIP3    H1 6320   7.483   0.049   1.435  1.2930  0.4835  0.8477
 2121TIP3    H2 6321   7.546   0.142   1.334  1.7186 -0.4186  0.2696
 2122TIP3   OH2 6322   7.181   5.309   0.370  0.3964  0.1029  0.6687
 2122TIP3    H1 6323   7.125   5.381   0.400  0.6586  0.4816  0.2678
 2122TIP3    H2 6324   7.228   5.280   0.448 -1.4910 -1.2745  1.3743
 2123TIP3   OH2 6325   7.230   2.396   1.724  0.0033  0.4490  0.2924
 2123TIP3    H1 6326   7.310   2.375   1.774  1.2397  1.2392 -1.2736
 2123TIP3    H2 6327   7.208   2.485   1.751  0.0028  0.4514  0.2836
 2124TIP3   OH2 6328   8.208   6.631   3.975 -0.9995  0.4249 -0.2751
 2124TIP3    H1 6329   8.132   6.613   4.030 -0.4117 -0.7104  0.2003
 2124TIP3    H2 6330   8.277   6.574   4.010 -0.0536  1.1203 -0.9596
 2125TIP3   OH2 6331   2.323   0.744   2.886  0.2774  0.1722 -0.0694
 2125TIP3    H1 6332   2.370   0.766   2.967 -1.9223  1.8168  0.8883
 2125TIP3    H2 6333   2.342   0.652   2.870  1.9687  0.2083  1.4767
 2126TIP3   OH2 6334   3.428   2.750   5.444  0.2787  0.2763  0.5043
 2126TIP3    H1 6335   3.459   2.735   5.533 -1.0483  0.8309  1.0982
 2126TIP3    H2 6336   3.461   2.836   5.421 -0.2917  0.6068  0.8989
 2127TIP3   OH2 6337   0.682   5.736   3.435 -0.2720 -0.2800 -0.1564
 2127TIP3    H1 6338   0.762   5.771   3.395 -1.4745  2.0863 -0.6872
 2127TIP3    H2 6339   0.712   5.668   3.494  2.1848  0.8620  0.0176
 2128TIP3   OH2 6340   6.685   0.617   6.258  0.5381  0.3737  0.4401
 2128TIP3    H1 6341   6.719   0.675   6.327  3.5597 -0.1190 -0.4970
 2128TIP3    H2 6342   6.668   0.675   6.184  1.1592  0.4131  0.3210
 2129TIP3   OH2 6343   4.027   3.716   3.622  0.5186  0.1749  0.0002
 2129TIP3    H1 6344   3.933   3.710   3.607  0.6978 -1.2650 -0.8387
 2129TIP3    H2 6345   4.054   3.626   3.640  1.9022  0.3543 -0.9785
 2130TIP3   OH2 6346   8.059   3.534   2.499  0.3742 -0.3433 -0.3080
 2130TIP3    H1 6347   8.093   3.623   2.495 -0.1700 -0.0605  0.8361
 2130TIP3    H2 6348   7.966   3.543   2.478  0.0606 -0.4584  0.9707
 2131TIP3   OH2 6349   2.711   1.949   0.318  0.4526  0.2340 -0.2036
 2131TIP3    H1 6350   2.751   1.909   0.241  0.1473 -1.1460  0.3348
 2131TIP3    H2 6351   2.617   1.937   0.305  0.4467 -1.0944  0.9415
 2132TIP3   OH2 6352   0.593   0.744   5.585  0.1508 -0.5066  0.5781
 2132TIP3    H1 6353   0.597   0.693   5.666 -0.6542 -0.2380  0.8007
 2132TIP3    H2 6354   0.562   0.831   5.613  0.4738 -0.2234  0.0672
 2133TIP3   OH2 6355   4.767   2.813   0.365 -0.1560  0.4533 -0.3091
 2133TIP3    H1 6356   4.692   2.762   0.394 -0.7826  1.0872 -0.7870
 2133TIP3    H2 6357   4.843   2.763   0.394 -0.6373  1.7798  3.9256
 2134TIP3   OH2 6358   1.709   4.301   3.443  0.2637 -0.0545 -0.3227
 2134TIP3    H1 6359   1.801   4.291   3.468  0.3830  0.5682 -0.5120
 2134TIP3    H2 6360   1.687   4.218   3.401  1.0648  0.2068 -1.2907
 2135TIP3   OH2 6361   5.933   6.448   0.878  0.5951  0.2658  0.1139
 2135TIP3    H1 6362   5.885   6.526   0.851  1.0008  0.1200 -1.0789
 2135TIP3    H2 6363   5.888   6.419   0.957 -1.0828  0.3514 -0.7535
 2136TIP3   OH2 6364   2.401   5.960   1.564 -0.0971 -0.6222  0.3429
 2136TIP3    H1 6365   2.337   5.896   1.532  0.4454 -0.1904 -1.7842
 2136TIP3    H2 6366   2.470   5.907   1.603  0.4417 -1.4377 -1.5632
 2137TIP3   OH2 6367   4.396   2.813   2.013 -0.5004 -0.1631  0.1869
 2137TIP3    H1 6368   4.361   2.901   2.031 -2.1276 -0.8969  0.8839
 2137TIP3    H2 6369   4.355   2.788   1.931  1.0472  0.2381 -0.7366
 2138TIP3   OH2 6370   5.168   3.162   2.487 -0.0055 -0.2655  0.2582
 2138TIP3    H1 6371   5.211   3.077   2.490 -1.5303 -1.0857 -0.2311
 2138TIP3    H2 6372   5.143   3.173   2.395 -0.0735  0.5810  0.3698
 2139TIP3   OH2 6373   6.421   7.166   5.384  0.7970 -0.1021 -0.0669
 2139TIP3    H1 6374   6.427   7.085   5.334  0.6804  1.2680 -2.4634
 2139TIP3    H2 6375   6.384   7.140   5.469 -1.2535 -2.2676 -1.5100
 2140TIP3   OH2 6376   7.661   1.825   6.632 -0.1853 -0.7514 -0.0742
 2140TIP3    H1 6377   7.634   1.840   6.722  1.0066  1.7315 -0.0601
 2140TIP3    H2 6378   7.757   1.833   6.634  0.0309 -2.3684 -1.3060
 2141TIP3   OH2 6379   3.371   2.338   1.668  0.5065 -0.3971 -0.3770
 2141TIP3    H1 6380   3.380   2.351   1.574  0.5746 -1.5876 -0.5528
 2141TIP3    H2 6381   3.360   2.244   1.678  0.3353 -0.2681  0.7991
 2142TIP3   OH2 6382   0.566   2.729   1.935  0.2362  0.7539 -0.7449
 2142TIP3    H1 6383   0.517   2.795   1.886 -0.5786 -0.1955 -1.2484
 2142TIP3    H2 6384   0.648   2.718   1.885  0.4016  1.4124 -0.6263
 2143TIP3   OH2 6385   2.967   6.879   4.119 -1.1931  0.3908 -0.2638
 2143TIP3    H1 6386   2.987   6.951   4.059 -0.1876  0.1082 -0.2889
 2143TIP3    H2 6387   2.920   6.920   4.191 -1.3147  0.9399 -0.6473
 2144TIP3   OH2 6388   5.374   2.012   2.250  0.1486  0.1468 -0.4897
 2144TIP3    H1 6389   5.360   1.920   2.228 -1.1110  0.4553 -1.0480
 2144TIP3    H2 6390   5.410   2.050   2.170  2.6414 -0.2483  0.3642
 2145TIP3   OH2 6391   4.251   0.861   2.458 -0.5508 -0.2614  0.1460
 2145TIP3    H1 6392   4.255   0.829   2.548  1.0080  0.4185  0.3553
 2145TIP3    H2 6393   4.259   0.782   2.404  1.6468 -0.4448  0.6501
 2146TIP3   OH2 6394   2.278   7.161   2.435 -0.2081 -0.0183 -0.2926
 2146TIP3    H1 6395   2.370   7.172   2.459 -0.6586  1.5348  0.8982
 2146TIP3    H2 6396   2.249   7.084   2.484  0.6684 -1.0611 -1.3819
 2147TIP3   OH2 6397   0.193   0.381   1.100 -0.2460 -0.1180 -0.6491
 2147TIP3    H1 6398   0.178   0.293   1.065  1.0560 -0.8427  0.5078
 2147TIP3    H2 6399   0.242   0.427   1.032  0.4604 -0.8205 -0.6204
 2148TIP3   OH2 6400   2.083   3.495   6.062 -0.7268  0.7008  0.1357
 2148TIP3    H1 6401   2.097   3.401   6.074  0.3794  0.6574 -1.2176
 2148TIP3    H2 6402   2.121   3.514   5.976 -1.3998  2.2966  0.1530
 2149TIP3   OH2 6403   5.073   5.495   3.812  0.3586 -0.3753 -0.4691
 2149TIP3    H1 6404   4.982   5.522   3.824  0.3109 -0.7979  0.1293
 2149TIP3    H2 6405   5.121   5.577   3.799  0.3039  0.0754  1.8608
 2150TIP3   OH2 6406   8.266   1.001   3.743  0.3922 -0.2990 -0.0141
 2150TIP3    H1 6407   8.338   1.028   3.800  0.4871 -0.2825 -0.1416
 2150TIP3    H2 6408   8.233   1.083   3.706 -2.1474  0.1826  2.8976
 2151TIP3   OH2 6409   1.118   5.086   3.442 -0.2080 -0.0632  0.2223
 2151TIP3    H1 6410   1.096   5.100   3.534 -1.6940  0.1205 -0.1347
 2151TIP3    H2 6411   1.039   5.112   3.394  0.5748 -0.0541 -1.1140
 2152TIP3   OH2 6412   0.884   0.946   1.921  0.3433 -0.3844  0.1780
 2152TIP3    H1 6413   0.940   0.911   1.991  0.0846  0.6117  0.9184
 2152TIP3    H2 6414   0.943   1.002   1.870  0.3963 -0.6301 -0.0271
 2153TIP3   OH2 6415   0.651   2.091   6.396 -0.0429  0.1852  0.0583
 2153TIP3    H1 6416   0.607   2.135   6.323  0.0332  1.4102  0.7219
 2153TIP3    H2 6417   0.669   2.161   6.459  2.1663 -0.4127  0.1649
 2154TIP3   OH2 6418   6.833   7.279   1.144  0.1232  0.0917  0.5060
 2154TIP3    H1 6419   6.836   7.210   1.078  0.6643  0.6369 -0.0519
 2154TIP3    H2 6420   6.840   7.233   1.227 -0.3202 -0.5830  0.1738
 2155TIP3   OH2 6421   7.746   2.173   3.551 -0.3384 -0.0195 -0.3478
 2155TIP3    H1 6422   7.824   2.148   3.600  0.5398  0.3965 -1.4827
 2155TIP3    H2 6423   7.678   2.185   3.618  0.3130 -1.2672  0.5794
 2156TIP3   OH2 6424   4.798   2.731   6.617  0.1502  0.1311  0.1272
 2156TIP3    H1 6425   4.730   2.666   6.597  0.5179 -1.1604  2.5928
 2156TIP3    H2 6426   4.754   2.793   6.676  0.6273  0.3543  0.2520
 2157TIP3   OH2 6427   0.395   0.091   0.649  0.4260  0.1130 -0.2962
 2157TIP3    H1 6428   0.448   0.050   0.718 -0.9881 -1.0789  0.1337
 2157TIP3    H2 6429   0.457   0.106   0.577  1.3324 -1.3353  0.1304
 2158TIP3   OH2 6430   6.053   0.809   3.006 -0.1344 -0.0333  0.1883
 2158TIP3    H1 6431   5.975   0.758   3.027  0.7030 -1.0339  0.9764
 2158TIP3    H2 6432   6.022   0.879   2.949 -1.6595 -0.2276  0.7434
 2159TIP3   OH2 6433   5.230   5.291   3.128 -0.4716 -0.1605  0.4228
 2159TIP3    H1 6434   5.183   5.307   3.046  1.2428 -0.7988 -0.7297
 2159TIP3    H2 6435   5.226   5.196   3.139 -0.6421 -0.0817  1.0477
 2160TIP3   OH2 6436   2.712   1.677   4.219  0.8184 -0.1443 -0.0105
 2160TIP3    H1 6437   2.664   1.647   4.296 -1.8869  2.6499 -0.4358
 2160TIP3    H2 6438   2.681   1.620   4.148 -0.9210  0.7182  0.0006
 2161TIP3   OH2 6439   5.542   6.006   0.580 -0.2518  0.0361 -0.1415
 2161TIP3    H1 6440   5.631   5.979   0.601 -1.0885 -1.8396  1.1829
 2161TIP3    H2 6441   5.508   5.938   0.523 -0.8260  0.8045 -0.7516
 2162TIP3   OH2 6442   7.565   7.619   4.341  0.4613  0.7135 -0.2586
 2162TIP3    H1 6443   7.492   7.563   4.367  1.3288 -0.3160  0.0305
 2162TIP3    H2 6444   7.525   7.704   4.323 -0.8098  0.1534 -0.1677
 2163TIP3   OH2 6445   7.229   0.701   5.273  0.3640  0.2816  0.5589
 2163TIP3    H1 6446   7.136   0.720   5.289  1.1120  3.8743  1.6087
 2163TIP3    H2 6447   7.236   0.701   5.177 -0.5626  0.9765  0.4696
 2164TIP3   OH2 6448   0.322   2.640   5.984  0.2421 -0.0334 -0.1305
 2164TIP3    H1 6449   0.357   2.590   6.057  0.3347  1.2954  0.7654
 2164TIP3    H2 6450   0.324   2.731   6.014  0.4458  0.5647 -1.8515
 2165TIP3   OH2 6451   5.092   0.820   2.949  0.1889 -0.3718  0.1063
 2165TIP3    H1 6452   5.166   0.771   2.986 -0.0928 -1.0897 -0.2624
 2165TIP3    H2 6453   5.061   0.765   2.877 -0.0038  0.4513 -0.4551
 2166TIP3   OH2 6454   3.868   7.376   5.197 -0.0880 -0.5658 -0.1104
 2166TIP3    H1 6455   3.959   7.367   5.168  0.4627  0.0388  1.3109
 2166TIP3    H2 6456   3.844   7.288   5.227  0.0419 -0.7207 -0.4588
 2167TIP3   OH2 6457   0.119   1.490   3.159 -0.0184  0.3868  0.3391
 2167TIP3    H1 6458   0.052   1.476   3.225 -0.0354 -3.2882 -0.2607
 2167TIP3    H2 6459   0.199   1.452   3.197  0.7173  0.9602 -0.5756
 2168TIP3   OH2 6460   7.402   1.543   0.165 -0.1762 -0.0897  0.0880
 2168TIP3    H1 6461   7.398   1.591   0.082 -0.6239 -0.8192 -0.3234
 2168TIP3    H2 6462   7.325   1.573   0.213  1.9814  3.1649  1.8765
 2169TIP3   OH2 6463   0.916   7.710   5.637  0.4504  0.6277 -0.5761
 2169TIP3    H1 6464   0.831   7.667   5.625  0.5063  0.8687 -2.0397
 2169TIP3    H2 6465   0.917   7.737   5.729 -0.9284  0.3653 -0.4626
 2170TIP3   OH2 6466   3.962   0.485   2.017 -0.5009  0.3610 -0.3613
 2170TIP3    H1 6467   4.015   0.536   1.956 -2.8740  0.9909 -2.0414
 2170TIP3    H2 6468   3.933   0.548   2.083  1.6908 -0.2295  1.2880
 2171TIP3   OH2 6469   5.028   2.038   3.445  0.7815  0.0057 -0.1526
 2171TIP3    H1 6470   5.022   1.961   3.501  0.2079  0.0503 -0.1473
 2171TIP3    H2 6471   4.973   2.017   3.370 -0.5374  0.9595  0.5014
 2172TIP3   OH2 6472   5.778   6.009   5.768 -0.0517  0.0322  0.2012
 2172TIP3    H1 6473   5.782   5.984   5.861  0.0413  1.9847  0.7556
 2172TIP3    H2 6474   5.844   6.077   5.759  1.8125 -1.8602 -1.9279
 2173TIP3   OH2 6475   1.511   6.197   5.703 -0.0664 -0.4787 -0.1586
 2173TIP3    H1 6476   1.506   6.220   5.610 -1.2738  1.5590  0.3527
 2173TIP3    H2 6477   1.485   6.277   5.749  1.9353 -0.9413  2.0037
 2174TIP3   OH2 6478   1.534   1.753   0.186 -0.1952 -0.0280 -0.6162
 2174TIP3    H1 6479   1.541   1.659   0.202 -0.2542  0.1347  0.4743
 2174TIP3    H2 6480   1.516   1.791   0.273  0.9815  1.1016 -0.8317
 2175TIP3   OH2 6481   3.818   4.938   0.330 -0.9638 -0.0681  0.0176
 2175TIP3    H1 6482   3.723   4.947   0.327 -1.3051 -2.3678  1.1835
 2175TIP3    H2 6483   3.842   4.962   0.419 -0.7446 -1.2488  0.3023
 2176TIP3   OH2 6484   6.103   1.168   0.182 -0.1249 -0.5059  0.1146
 2176TIP3    H1 6485   6.151   1.209   0.110 -0.8591  2.0933  1.0082
 2176TIP3    H2 6486   6.145   1.083   0.192 -0.1889 -1.1553 -3.5468
 2177TIP3   OH2 6487   1.611   1.048   0.867  0.2450 -0.5049 -0.1721
 2177TIP3    H1 6488   1.568   1.018   0.947  0.3025 -1.9409 -0.6622
 2177TIP3    H2 6489   1.571   1.133   0.849 -2.9485 -2.0363 -0.9747
 2178TIP3   OH2 6490   2.663   1.113   3.698  0.0252  0.3184  0.2198
 2178TIP3    H1 6491   2.668   1.182   3.632 -2.8927 -0.3626 -0.8439
 2178TIP3    H2 6492   2.636   1.035   3.650 -1.4959 -0.3783  2.0496
 2179TIP3   OH2 6493   5.551   7.286   3.393 -0.7573  0.1123 -0.7104
 2179TIP3    H1 6494   5.494   7.349   3.436 -2.6631 -1.9402 -0.0576
 2179TIP3    H2 6495   5.494   7.240   3.331 -0.1550 -2.6780  0.6570
 2180TIP3   OH2 6496   3.753   5.520   6.532 -0.4493 -0.1317 -0.5057
 2180TIP3    H1 6497   3.720   5.583   6.468 -0.3682  0.8182  0.3613
 2180TIP3    H2 6498   3.691   5.525   6.605  0.2710 -0.0815  0.1236
 2181TIP3   OH2 6499   1.869   2.297   4.362 -0.2532 -0.4244  0.3856
 2181TIP3    H1 6500   1.864   2.211   4.403 -0.2259 -1.4015 -1.5453
 2181TIP3    H2 6501   1.783   2.337   4.379 -0.2051 -0.7438  1.4378
 2182TIP3   OH2 6502   7.226   4.830  -0.012  0.7676  0.1110  0.6069
 2182TIP3    H1 6503   7.217   4.924   0.002  1.8980  0.3623 -0.2143
 2182TIP3    H2 6504   7.141   4.794   0.014  0.3182  1.3472  0.9388
 2183TIP3   OH2 6505   4.064   7.502   0.711 -0.1358 -0.0994  0.1457
 2183TIP3    H1 6506   4.159   7.497   0.705 -0.2505 -1.6088 -0.7244
 2183TIP3    H2 6507   4.042   7.446   0.786 -0.4106 -0.5335 -0.2607
 2184TIP3   OH2 6508   3.569   6.862   2.587 -0.2282  1.1076 -0.2317
 2184TIP3    H1 6509   3.490   6.822   2.549  0.1675  0.3628 -0.2882
 2184TIP3    H2 6510   3.596   6.800   2.655  1.0085  0.7231 -1.0479
 2185TIP3   OH2 6511   5.939   5.694   5.390  0.1027 -0.6844  1.2226
 2185TIP3    H1 6512   5.959   5.710   5.298  1.5488 -0.8135  1.4861
 2185TIP3    H2 6513   5.891   5.771   5.419  1.8354  0.5458  0.9749
 2186TIP3   OH2 6514   3.300   3.083   6.157 -0.3159  0.5094 -0.3387
 2186TIP3    H1 6515   3.323   3.174   6.139  1.2256  0.3313  0.6534
 2186TIP3    H2 6516   3.223   3.089   6.213  1.8821  1.3781  2.8460
 2187TIP3   OH2 6517   7.956   3.032   5.919  0.1383  0.4425  0.2471
 2187TIP3    H1 6518   8.047   3.038   5.890  0.1732 -2.6591 -0.6184
 2187TIP3    H2 6519   7.958   3.065   6.009  2.4829 -1.0049  0.8073
 2188TIP3   OH2 6520   2.934   6.295   2.936  0.2060 -0.2901  0.4303
 2188TIP3    H1 6521   2.965   6.371   2.886 -0.2040  0.2644  1.0040
 2188TIP3    H2 6522   2.993   6.290   3.010  1.3382 -1.6221 -0.5124
 2189TIP3   OH2 6523   4.745   6.515   4.441 -0.2715  0.3672 -0.0620
 2189TIP3    H1 6524   4.825   6.567   4.444 -0.1219  0.0931  1.5699
 2189TIP3    H2 6525   4.761   6.451   4.371  1.9466 -1.2100  1.7535
 2190TIP3   OH2 6526   7.230   2.849   6.106 -0.1102  0.0505 -0.0818
 2190TIP3    H1 6527   7.234   2.944   6.121  1.4320  0.0447 -0.2367
 2190TIP3    H2 6528   7.284   2.812   6.176  0.1928 -0.6310 -0.6650
 2191TIP3   OH2 6529   7.170   2.356   0.370  0.2960  0.2455 -0.1875
 2191TIP3    H1 6530   7.249   2.321   0.328  0.0747 -0.3070 -0.1556
 2191TIP3    H2 6531   7.167   2.448   0.343  1.0649  0.3280 -0.0114
 2192TIP3   OH2 6532   6.954   6.207   3.456 -0.1006 -0.8183  0.3747
 2192TIP3    H1 6533   6.966   6.296   3.487 -0.5035 -1.2246  1.7812
 2192TIP3    H2 6534   6.928   6.216   3.364 -0.0519  0.4938  0.4799
 2193TIP3   OH2 6535   1.919   3.913   4.510  0.0651  0.2528  0.1450
 2193TIP3    H1 6536   1.996   3.892   4.562  0.5960  0.0094 -0.7193
 2193TIP3    H2 6537   1.845   3.894   4.567  0.6469  0.7841  1.0910
 2194TIP3   OH2 6538   6.629   6.123   3.830  0.4532  0.0858  0.1684
 2194TIP3    H1 6539   6.625   6.176   3.751  1.2875 -0.7697 -0.4692
 2194TIP3    H2 6540   6.601   6.036   3.803 -0.7709  0.1377  1.1675
 2195TIP3   OH2 6541   6.792   6.291   5.716 -0.0152 -0.0704 -0.3100
 2195TIP3    H1 6542   6.727   6.317   5.781 -0.7403  0.4022 -1.1932
 2195TIP3    H2 6543   6.753   6.316   5.632  2.7207  3.6000 -0.7533
 2196TIP3   OH2 6544   6.339   4.795   3.553 -0.1640  0.0505 -0.4315
 2196TIP3    H1 6545   6.390   4.816   3.475 -0.5696  0.6633 -0.5435
 2196TIP3    H2 6546   6.324   4.701   3.548  1.0305 -0.1626 -0.3458
 2197TIP3   OH2 6547   5.814   5.915   5.483  0.0304 -0.0898 -0.5700
 2197TIP3    H1 6548   5.840   5.921   5.575  0.3374  1.1171 -0.7212
 2197TIP3    H2 6549   5.818   6.005   5.451 -0.8921 -0.3793 -1.5471
 2198TIP3   OH2 6550   1.269   2.185   1.408  0.9042  0.1267 -0.2796
 2198TIP3    H1 6551   1.319   2.104   1.411 -1.7503 -1.7100 -1.5892
 2198TIP3    H2 6552   1.282   2.217   1.319  0.3651  0.0199 -0.4014
 2199TIP3   OH2 6553   3.917   7.559   5.711  0.1974 -0.1014 -0.2639
 2199TIP3    H1 6554   3.973   7.636   5.714  2.1330 -1.3770 -1.2239
 2199TIP3    H2 6555   3.851   7.574   5.779 -0.0950  2.7816 -1.0484
 2200TIP3   OH2 6556   7.000   4.590   0.314 -0.0426  0.5027 -0.6527
 2200TIP3    H1 6557   6.971   4.553   0.397 -0.1713  0.7616 -0.5791
 2200TIP3    H2 6558   7.087   4.626   0.332  0.1979 -0.0114 -0.7961
 2201TIP3   OH2 6559   0.651   2.311   6.190 -0.1210 -0.3175  0.0077
 2201TIP3    H1 6560   0.595   2.373   6.145  1.0134  0.1602 -0.7894
 2201TIP3    H2 6561   0.694   2.262   6.120 -0.6626 -1.7291  0.6096
 2202TIP3   OH2 6562   0.921   5.421   0.964 -0.2139 -0.0569 -0.1523
 2202TIP3    H1 6563   0.840   5.371   0.965  0.8876 -1.9044  0.7517
 2202TIP3    H2 6564   0.990   5.355   0.956  1.2561  1.4032 -0.0254
 2203TIP3   OH2 6565   7.926   2.892   1.734  0.7261 -0.5379  0.3997
 2203TIP3    H1 6566   7.994   2.884   1.667 -0.5397 -1.5976 -0.8126
 2203TIP3    H2 6567   7.913   2.802   1.765  0.2097 -0.2786  0.9363
 2204TIP3   OH2 6568   6.079   4.563   3.636  0.1114 -0.3162 -0.0717
 2204TIP3    H1 6569   6.042   4.651   3.641  0.8309 -0.0088 -0.0676
 2204TIP3    H2 6570   6.083   4.533   3.727 -1.5691 -0.9773 -0.1794
 2205TIP3   OH2 6571   7.503   1.874   3.783 -0.0539  0.0571  0.3406
 2205TIP3    H1 6572   7.469   1.785   3.789  1.7980 -0.7140  0.0416
 2205TIP3    H2 6573   7.488   1.900   3.693  1.0732 -0.6833 -0.0745
 2206TIP3   OH2 6574   0.284   4.127   0.652 -0.1616 -0.1677 -0.0349
 2206TIP3    H1 6575   0.357   4.120   0.713 -0.4803 -0.4911  0.3164
 2206TIP3    H2 6576   0.262   4.220   0.652  0.3864 -0.0313 -0.3128
 2207TIP3   OH2 6577   5.793   1.450   3.603  0.0251 -0.5084 -0.7240
 2207TIP3    H1 6578   5.886   1.441   3.583  0.4589 -2.2949  1.5476
 2207TIP3    H2 6579   5.787   1.532   3.651  0.8388 -1.2509  0.7396
 2208TIP3   OH2 6580   2.699   6.421   3.203  0.4339 -1.2269 -0.1084
 2208TIP3    H1 6581   2.762   6.486   3.233  0.5633 -1.2660 -0.2949
 2208TIP3    H2 6582   2.616   6.448   3.243  0.8543 -2.0219  1.3753
 2209TIP3   OH2 6583   2.266   6.761   6.150  0.6568  0.0494 -0.5995
 2209TIP3    H1 6584   2.180   6.762   6.192  0.8937 -3.0895  0.1902
 2209TIP3    H2 6585   2.265   6.682   6.095  3.4604 -0.8521  0.4890
 2210TIP3   OH2 6586   4.941   1.996   5.636  0.1624  0.0614  0.0279
 2210TIP3    H1 6587   4.959   2.086   5.664  1.5621 -0.0021 -0.5573
 2210TIP3    H2 6588   5.023   1.949   5.654 -0.9858 -1.4704  1.6733
 2211TIP3   OH2 6589   0.023   6.620   2.705  0.3499  0.1254 -0.7196
 2211TIP3    H1 6590   0.034   6.698   2.760 -0.7703 -1.3448  1.7668
 2211TIP3    H2 6591   0.003   6.655   2.618 -2.5603  2.7062  0.7696
 2212TIP3   OH2 6592   7.966   3.769   3.150 -0.1482 -0.5767  0.5747
 2212TIP3    H1 6593   7.990   3.676   3.156  0.2483 -0.5780 -0.8665
 2212TIP3    H2 6594   7.872   3.768   3.130 -0.2380 -0.6398  0.9718
 2213TIP3   OH2 6595   0.595   4.996   6.499  0.0263  0.2853  0.7627
 2213TIP3    H1 6596   0.673   5.003   6.444 -1.5751  0.2249 -1.6815
 2213TIP3    H2 6597   0.606   4.913   6.546  0.9698 -0.2163 -0.3052
 2214TIP3   OH2 6598   4.022   6.705   1.031  0.4730  0.6857 -0.2660
 2214TIP3    H1 6599   3.956   6.655   1.079  0.6040  0.2548 -0.5277
 2214TIP3    H2 6600   3.973   6.752   0.964  0.2922  1.2617  0.2483
 2215TIP3   OH2 6601   5.155   1.396   0.244 -0.3508 -0.3101  0.5346
 2215TIP3    H1 6602   5.199   1.477   0.220 -2.3725  1.0293  1.1194
 2215TIP3    H2 6603   5.220   1.328   0.226  0.4800  1.1006 -2.7063
 2216TIP3   OH2 6604   0.905   5.856   1.904  0.0217 -0.0597  0.4989
 2216TIP3    H1 6605   0.908   5.812   1.818  0.7726  1.0036 -0.0324
 2216TIP3    H2 6606   0.985   5.907   1.908 -0.1457  0.1381  1.7334
 2217TIP3   OH2 6607   5.655   3.798   2.403  0.5888 -0.3818  0.1422
 2217TIP3    H1 6608   5.593   3.869   2.413  1.2235  0.1835  0.1253
 2217TIP3    H2 6609   5.741   3.839   2.412  0.9519 -1.3127  1.2234
 2218TIP3   OH2 6610   1.975   4.069   4.763  0.6042  0.1388  0.0759
 2218TIP3    H1 6611   1.986   4.110   4.849 -1.7714  0.0399  0.5133
 2218TIP3    H2 6612   1.998   4.137   4.700  0.1475  0.9946  0.8084
 2219TIP3   OH2 6613   7.297   3.989   6.750  0.7417 -0.8212 -0.4445
 2219TIP3    H1 6614   7.387   3.999   6.719  1.0591  0.1272  0.6985
 2219TIP3    H2 6615   7.299   4.022   6.840 -0.4524 -2.0929  0.0891
 2220TIP3   OH2 6616   7.035   1.155   5.344  0.1794  0.0006  0.3336
 2220TIP3    H1 6617   7.104   1.221   5.334 -0.5482  0.7658  0.2557
 2220TIP3    H2 6618   7.082   1.072   5.348  1.3536  0.6919  3.2137
 2221TIP3   OH2 6619   7.510   6.366   5.772  0.3334 -0.1283 -0.3436
 2221TIP3    H1 6620   7.426   6.401   5.741 -0.4307 -1.0502  0.6249
 2221TIP3    H2 6621   7.487   6.287   5.821  1.8236 -0.6884 -0.4953
 2222TIP3   OH2 6622   5.079   1.585   5.229 -0.0196  0.1042  0.4129
 2222TIP3    H1 6623   5.065   1.591   5.134  0.3540  3.8394  0.4418
 2222TIP3    H2 6624   4.991   1.577   5.266 -0.0887 -3.1617 -0.1861
 2223TIP3   OH2 6625   6.295   2.022   0.376 -0.2185  0.0789 -0.4502
 2223TIP3    H1 6626   6.313   1.966   0.301  0.4538  0.0831 -0.2986
 2223TIP3    H2 6627   6.285   1.961   0.450 -1.6706  0.0125 -0.6628
 2224TIP3   OH2 6628   6.848   3.567   1.255  0.4201  0.6242  0.2322
 2224TIP3    H1 6629   6.761   3.537   1.282 -0.9487  2.6766 -1.5872
 2224TIP3    H2 6630   6.859   3.532   1.167  1.6462  0.0691  0.5856
 2225TIP3   OH2 6631   7.305   2.954   2.833 -0.0685  0.2150 -0.2673
 2225TIP3    H1 6632   7.314   2.860   2.847  4.2980  0.4302 -0.4073
 2225TIP3    H2 6633   7.321   2.993   2.919 -0.6322  0.9011 -0.4617
 2226TIP3   OH2 6634   0.360   3.324   6.025  0.2730 -0.1095 -0.0274
 2226TIP3    H1 6635   0.437   3.302   6.078  0.3180 -1.3989 -0.5816
 2226TIP3    H2 6636   0.376   3.414   5.996  2.8768 -1.1233 -2.2145
 2227TIP3   OH2 6637   6.808   1.242   5.478 -0.6324 -0.2940 -0.0886
 2227TIP3    H1 6638   6.826   1.333   5.500  1.6092 -0.7989  0.3569
 2227TIP3    H2 6639   6.887   1.211   5.434 -0.6914 -2.4468  1.1553
 2228TIP3   OH2 6640   4.207   5.372   1.683  0.0764 -0.2727 -0.2597
 2228TIP3    H1 6641   4.228   5.385   1.591  0.3943  0.8337 -0.0446
 2228TIP3    H2 6642   4.290   5.345   1.723 -0.4674 -2.6693 -0.6092
 2229TIP3   OH2 6643   4.366   1.238   5.041 -0.1739  0.1700 -0.3413
 2229TIP3    H1 6644   4.386   1.275   5.127 -0.0633  0.6634 -0.5758
 2229TIP3    H2 6645   4.446   1.192   5.016 -0.4768 -0.6547  0.1640
 2230TIP3   OH2 6646   1.952   4.921   3.406 -0.3551  0.0289 -0.1847
 2230TIP3    H1 6647   1.988   4.964   3.483 -1.2641 -0.6334  0.6348
 2230TIP3    H2 6648   2.001   4.958   3.333  1.8298 -0.6916  0.8431
 2231TIP3   OH2 6649   3.664   7.178   5.972  0.4802 -0.1051  0.3188
 2231TIP3    H1 6650   3.611   7.197   5.895  2.7423  1.2287 -0.9931
 2231TIP3    H2 6651   3.698   7.090   5.956 -2.9223 -1.9994  2.2434
 2232TIP3   OH2 6652   2.573   3.795   5.645 -0.1893 -0.1907 -0.6110
 2232TIP3    H1 6653   2.585   3.854   5.719  2.5167 -2.5612  1.0482
 2232TIP3    H2 6654   2.478   3.786   5.637 -0.6226 -0.3443  3.0860
 2233TIP3   OH2 6655   1.566   7.252   0.759 -0.3817  0.4062 -0.2220
 2233TIP3    H1 6656   1.633   7.289   0.817 -0.6891 -0.9209  1.0308
 2233TIP3    H2 6657   1.486   7.255   0.811 -0.5298 -1.4310 -0.3044
 2234TIP3   OH2 6658   3.916   5.777   1.599  0.1251  0.1717  0.2389
 2234TIP3    H1 6659   3.977   5.813   1.535  0.8694  0.0072  0.8451
 2234TIP3    H2 6660   3.960   5.700   1.634 -1.5333 -1.5542 -1.2033
 2235TIP3   OH2 6661   7.863   0.265   6.414  0.2735 -0.6218  0.5897
 2235TIP3    H1 6662   7.901   0.248   6.500 -0.9358  0.1320  1.2964
 2235TIP3    H2 6663   7.936   0.296   6.361  0.8975 -0.4277  1.5447
 2236TIP3   OH2 6664   0.038   3.126   4.121  0.0816  0.0581 -0.5069
 2236TIP3    H1 6665   0.070   3.095   4.206 -1.8589 -0.5099  0.0869
 2236TIP3    H2 6666   0.021   3.219   4.134  1.4693  0.3890 -0.8589
 2237TIP3   OH2 6667   3.571   2.219   2.599  0.0921 -0.1203 -0.1290
 2237TIP3    H1 6668   3.525   2.220   2.683  0.9614 -0.1301  0.3579
 2237TIP3    H2 6669   3.663   2.206   2.622  0.3535 -0.0364 -1.0810
 2238TIP3   OH2 6670   3.928   4.401   3.952 -0.6878 -0.1479  0.2934
 2238TIP3    H1 6671   3.911   4.491   3.924 -0.4534 -0.0178  0.5739
 2238TIP3    H2 6672   3.852   4.352   3.920 -1.7139  0.4609  1.6983
 2239TIP3   OH2 6673   6.865   5.901   0.224 -0.4403 -0.2335  0.1492
 2239TIP3    H1 6674   6.931   5.910   0.155 -1.2866  1.3772 -0.5178
 2239TIP3    H2 6675   6.896   5.829   0.279  0.5668 -1.1590 -1.5687
 2240TIP3   OH2 6676   2.639   5.283   6.480  0.5232 -0.6273  0.6151
 2240TIP3    H1 6677   2.713   5.320   6.529  0.7193 -1.5643  1.0434
 2240TIP3    H2 6678   2.607   5.211   6.535 -1.7294  0.7338  1.1897
 2241TIP3   OH2 6679   5.441   2.015   0.422  0.5029  0.5547 -0.0803
 2241TIP3    H1 6680   5.495   1.959   0.367 -0.0594  0.7650 -0.8781
 2241TIP3    H2 6681   5.494   2.034   0.498  1.0033 -0.3974 -0.1874
 2242TIP3   OH2 6682   2.744   2.853   3.267 -0.0553  0.8295  0.4105
 2242TIP3    H1 6683   2.694   2.775   3.291 -0.0767  1.3641  2.1936
 2242TIP3    H2 6684   2.710   2.922   3.324  0.3348  2.0314 -0.7669
 2243TIP3   OH2 6685   6.778   5.985   4.840  0.1265  0.4837 -0.1770
 2243TIP3    H1 6686   6.812   6.007   4.753 -1.7404  1.9299 -0.5952
 2243TIP3    H2 6687   6.696   5.939   4.823  1.2232 -2.0808  0.8291
 2244TIP3   OH2 6688   4.145   5.083   6.163  0.1993  0.1625  0.1806
 2244TIP3    H1 6689   4.220   5.086   6.223 -0.3479  1.0308  0.8465
 2244TIP3    H2 6690   4.150   5.166   6.116  0.2424 -0.2286 -0.5142
 2245TIP3   OH2 6691   6.182   4.019   5.914 -0.2968 -0.3047 -0.2635
 2245TIP3    H1 6692   6.137   3.996   5.995 -1.0394  2.0563  0.0630
 2245TIP3    H2 6693   6.194   4.114   5.918  0.2924 -0.2025 -2.6008
 2246TIP3   OH2 6694   0.209   3.610   3.636 -0.3289 -0.6813  0.0079
 2246TIP3    H1 6695   0.194   3.619   3.542  1.5641 -0.8423 -0.3379
 2246TIP3    H2 6696   0.188   3.519   3.655  1.8183 -1.4242 -0.8293
 2247TIP3   OH2 6697   5.299   2.430   6.453  0.9787  0.9552  0.2420
 2247TIP3    H1 6698   5.301   2.522   6.480  2.7735  1.0598 -0.1257
 2247TIP3    H2 6699   5.332   2.431   6.364 -0.1273  0.0636 -0.1890
 2248TIP3   OH2 6700   1.209   6.587   6.660 -0.1715 -0.1789  0.2041
 2248TIP3    H1 6701   1.302   6.597   6.640 -0.0990 -0.9713  0.1288
 2248TIP3    H2 6702   1.189   6.497   6.636 -1.5178  0.6262 -1.9665
 2249TIP3   OH2 6703   1.066   3.924   1.614 -0.3872  0.0857 -0.2417
 2249TIP3    H1 6704   1.031   3.959   1.696 -0.4333 -0.7893  0.1238
 2249TIP3    H2 6705   1.127   3.991   1.583 -0.5746  0.5411  0.3691
 2250TIP3   OH2 6706   1.908   5.671   5.273 -0.1240  0.1544  0.2309
 2250TIP3    H1 6707   1.893   5.703   5.184 -1.3147  0.3805  0.4980
 2250TIP3    H2 6708   1.864   5.586   5.275  3.1276 -1.6900 -0.5171
 2251TIP3   OH2 6709   1.107   4.370   3.153 -0.4288  0.4842  0.0817
 2251TIP3    H1 6710   1.157   4.289   3.168  0.8218  1.1536 -0.3047
 2251TIP3    H2 6711   1.019   4.340   3.129 -0.1861 -0.7381  0.6546
 2252TIP3   OH2 6712   0.441   5.191   1.249  0.4160  0.4710  0.3238
 2252TIP3    H1 6713   0.408   5.102   1.241  2.7687 -0.3909 -0.7245
 2252TIP3    H2 6714   0.425   5.231   1.164  0.4082  0.6483  0.4086
 2253TIP3   OH2 6715   7.508   0.310   5.768  0.2268 -0.1520  0.4847
 2253TIP3    H1 6716   7.561   0.241   5.730  2.0476  0.0851  2.4402
 2253TIP3    H2 6717   7.421   0.272   5.777  0.3133 -0.9745 -1.6332
 2254TIP3   OH2 6718   0.226   5.186   0.677 -0.3121  0.2194  0.1511
 2254TIP3    H1 6719   0.242   5.258   0.616  2.0210 -1.3289 -1.2247
 2254TIP3    H2 6720   0.191   5.116   0.621 -0.4583 -0.4411  1.0543
 2255TIP3   OH2 6721   8.242   5.249   2.186 -0.0902  0.2434 -0.2052
 2255TIP3    H1 6722   8.274   5.231   2.275  1.4553  0.6074 -0.6475
 2255TIP3    H2 6723   8.220   5.164   2.150  0.2778 -0.0167  0.1739
 2256TIP3   OH2 6724   6.337   0.681   3.003  0.3778  0.1618  0.1066
 2256TIP3    H1 6725   6.306   0.762   3.043  1.4670  1.5965 -1.7816
 2256TIP3    H2 6726   6.409   0.708   2.947  0.5898 -2.0982 -0.8153
 2257TIP3   OH2 6727   5.555   4.231   2.264 -0.1103  0.1844  0.0363
 2257TIP3    H1 6728   5.525   4.146   2.294 -0.8901  0.3540 -0.2528
 2257TIP3    H2 6729   5.632   4.250   2.319 -2.3427  1.1735  3.0988
 2258TIP3   OH2 6730   1.894   2.983   4.190  0.2649 -0.3839 -0.1709
 2258TIP3    H1 6731   1.869   3.036   4.115  1.3494 -0.9078 -0.9176
 2258TIP3    H2 6732   1.882   3.041   4.266  0.5762  0.6290 -0.8829
 2259TIP3   OH2 6733   5.601   7.280   1.846  0.7134 -0.2377  0.6149
 2259TIP3    H1 6734   5.579   7.337   1.920 -0.6457 -0.4272  0.3899
 2259TIP3    H2 6735   5.620   7.340   1.774  1.1487 -0.0574  0.8795
 2260TIP3   OH2 6736   5.026   7.175   6.595 -0.1143  0.6311  0.2199
 2260TIP3    H1 6737   5.084   7.105   6.567  0.2840  1.5366 -1.3274
 2260TIP3    H2 6738   5.015   7.161   6.689  0.4806 -1.0905  0.0662
 2261TIP3   OH2 6739   5.119   3.687   2.483 -0.4090  0.2270  0.3936
 2261TIP3    H1 6740   5.182   3.744   2.527  0.4197 -0.3384 -0.0280
 2261TIP3    H2 6741   5.093   3.625   2.550 -2.3912  1.9085  1.2601
 2262TIP3   OH2 6742   1.750   4.880   5.355 -0.4477  0.2414 -0.2760
 2262TIP3    H1 6743   1.846   4.880   5.344 -0.4842  3.1518 -1.4465
 2262TIP3    H2 6744   1.732   4.955   5.410 -2.0855 -0.4944  0.2432
 2263TIP3   OH2 6745   4.828   3.993   6.632 -0.1771  0.4584 -0.1042
 2263TIP3    H1 6746   4.757   3.938   6.598  0.1933  1.1740 -2.2449
 2263TIP3    H2 6747   4.881   3.934   6.685 -0.4845 -0.9597 -1.2972
 2264TIP3   OH2 6748   5.105   5.090   0.387 -0.4886  0.3335  0.0728
 2264TIP3    H1 6749   5.184   5.091   0.333 -1.8006 -0.6913 -2.0134
 2264TIP3    H2 6750   5.093   4.997   0.410 -1.4323  0.3688 -0.2280
 2265TIP3   OH2 6751   4.639   2.590   3.959 -0.2893 -0.2918 -0.5166
 2265TIP3    H1 6752   4.613   2.615   4.048  1.8020 -1.5758  0.5660
 2265TIP3    H2 6753   4.722   2.636   3.945 -1.1853  0.8572 -2.3477
 2266TIP3   OH2 6754   0.958   1.683   2.812 -0.1308  0.2405 -0.0680
 2266TIP3    H1 6755   0.939   1.687   2.719  2.4330  0.8773 -0.6330
 2266TIP3    H2 6756   1.004   1.765   2.831 -0.8847  0.2694  1.8466
 2267TIP3   OH2 6757   1.755   6.064   5.772  0.8841 -0.1212 -0.0878
 2267TIP3    H1 6758   1.848   6.073   5.794  1.6442 -0.0619 -2.9462
 2267TIP3    H2 6759   1.740   6.130   5.705 -1.1440 -0.4004  0.0395
 2268TIP3   OH2 6760   5.359   2.304   3.044 -0.5885  0.2605  0.0801
 2268TIP3    H1 6761   5.308   2.384   3.032 -1.3059  0.1442  2.0667
 2268TIP3    H2 6762   5.302   2.245   3.094  0.5808 -0.8221  0.2033
 2269TIP3   OH2 6763   4.164   4.052   4.511 -0.2911 -0.2722  0.0662
 2269TIP3    H1 6764   4.252   4.018   4.526 -0.1780 -0.2869 -0.5946
 2269TIP3    H2 6765   4.173   4.110   4.435 -1.3919 -2.6711 -2.0472
 2270TIP3   OH2 6766   6.258   5.586   6.007 -0.1342  0.0113  0.0059
 2270TIP3    H1 6767   6.278   5.635   5.928  1.1816  0.5688  0.6546
 2270TIP3    H2 6768   6.198   5.516   5.978  1.2869 -0.5693 -1.7095
 2271TIP3   OH2 6769   2.952   1.583   4.376 -0.0604 -0.6034 -0.4215
 2271TIP3    H1 6770   2.980   1.674   4.369  0.4099 -0.6289  0.8497
 2271TIP3    H2 6771   2.973   1.544   4.291  0.8721  0.1546 -0.5469
 2272TIP3   OH2 6772   7.636   1.592   0.775  0.2997 -0.1453 -0.1558
 2272TIP3    H1 6773   7.658   1.685   0.786 -0.1549  0.1359 -1.4523
 2272TIP3    H2 6774   7.562   1.592   0.715  0.0375 -1.3433  0.1461
 2273TIP3   OH2 6775   3.067   5.524   6.046  0.0684 -0.2630 -0.0193
 2273TIP3    H1 6776   3.092   5.602   5.996 -2.0003 -0.7843 -2.0726
 2273TIP3    H2 6777   3.045   5.459   5.979  0.3788 -2.1551  1.6349
 2274TIP3   OH2 6778   5.862   5.168   5.994 -0.2654 -0.3603 -0.6171
 2274TIP3    H1 6779   5.796   5.235   6.013  1.1951  1.2611 -1.0444
 2274TIP3    H2 6780   5.831   5.126   5.914 -0.7656  0.3864 -0.8215
 2275TIP3   OH2 6781   7.113   0.843   4.854  0.0103 -0.1888  0.1187
 2275TIP3    H1 6782   7.183   0.784   4.883  1.4135  0.8273 -1.0968
 2275TIP3    H2 6783   7.151   0.930   4.858 -1.1492  0.3786 -0.7344
 2276TIP3   OH2 6784   0.962   2.663   0.379 -0.1096  0.2978  0.1092
 2276TIP3    H1 6785   1.046   2.651   0.336  0.1152 -0.7105  0.7756
 2276TIP3    H2 6786   0.928   2.574   0.391 -1.5165  0.7047 -0.5966
 2277TIP3   OH2 6787   4.701   3.514   4.553 -0.2463 -0.0431 -0.6152
 2277TIP3    H1 6788   4.774   3.509   4.615 -1.1346 -1.1613  0.3993
 2277TIP3    H2 6789   4.708   3.601   4.515 -1.2709  1.9205  3.1723
 2278TIP3   OH2 6790   1.745   0.720   1.237 -0.1172  0.0736  0.7421
 2278TIP3    H1 6791   1.767   0.685   1.151 -0.1368 -0.3310  0.9033
 2278TIP3    H2 6792   1.778   0.810   1.234 -0.5357  0.2137  0.1471
 2279TIP3   OH2 6793   3.459   7.658   1.210 -0.0063 -0.3147  0.2275
 2279TIP3    H1 6794   3.465   7.601   1.133 -2.2133 -1.6094  0.9421
 2279TIP3    H2 6795   3.374   7.701   1.202 -0.1688 -0.2802  1.8063
 2280TIP3   OH2 6796   2.531   6.870   6.252  0.1787 -0.2759  0.4358
 2280TIP3    H1 6797   2.575   6.947   6.215  2.3338 -2.1530 -1.2475
 2280TIP3    H2 6798   2.458   6.853   6.193  1.4650 -1.1602 -0.9717
 2281TIP3   OH2 6799   1.370   3.405   3.608  0.0499 -0.3249 -0.3530
 2281TIP3    H1 6800   1.301   3.467   3.630  1.3517  0.7419  0.8802
 2281TIP3    H2 6801   1.351   3.327   3.661  0.1828  0.2364  0.5378
 2282TIP3   OH2 6802   7.314   2.751   2.519 -0.2828  0.2574 -0.3860
 2282TIP3    H1 6803   7.345   2.711   2.438  0.8516 -0.1391  0.2254
 2282TIP3    H2 6804   7.220   2.734   2.520  0.1148 -2.2763 -0.2286
 2283TIP3   OH2 6805   3.188   4.675   1.411  0.2495  0.5255  0.2368
 2283TIP3    H1 6806   3.256   4.673   1.344 -0.5498  0.9436 -0.6118
 2283TIP3    H2 6807   3.199   4.759   1.454  2.7862 -0.9457  2.8632
 2284TIP3   OH2 6808   4.259   5.551   2.014  0.0596  0.2508  0.0745
 2284TIP3    H1 6809   4.266   5.521   1.924 -0.9232 -2.1345  0.7183
 2284TIP3    H2 6810   4.343   5.593   2.032  0.7503 -0.3572 -1.5729
 2285TIP3   OH2 6811   4.266   0.656   4.290 -0.2741 -0.2243 -0.2025
 2285TIP3    H1 6812   4.177   0.644   4.324 -0.1366  2.9201  1.6839
 2285TIP3    H2 6813   4.320   0.594   4.338 -1.0412 -0.1265  0.8073
 2286TIP3   OH2 6814   2.393   6.002   4.972 -0.1009  0.6132  0.3379
 2286TIP3    H1 6815   2.352   5.917   4.983 -0.2289  0.7808  1.2147
 2286TIP3    H2 6816   2.446   5.993   4.893 -1.2786  0.1833 -0.4368
 2287TIP3   OH2 6817   5.937   2.400   4.351 -0.0998 -1.0212 -0.6546
 2287TIP3    H1 6818   6.019   2.439   4.380 -0.3817 -0.0981 -1.0859
 2287TIP3    H2 6819   5.922   2.328   4.413 -0.3161  0.4416  1.0692
 2288TIP3   OH2 6820   6.748   5.629   6.208 -0.0767 -0.0528 -0.0421
 2288TIP3    H1 6821   6.766   5.537   6.228  0.1015 -0.1262 -0.5273
 2288TIP3    H2 6822   6.657   5.630   6.177  0.2102 -0.2170 -0.9336
 2289TIP3   OH2 6823   3.455   7.397   6.397 -0.6730 -0.2003 -0.1159
 2289TIP3    H1 6824   3.523   7.337   6.368 -0.3253  0.7504 -1.3477
 2289TIP3    H2 6825   3.470   7.477   6.347 -0.8927  1.0759  1.7482
 2290TIP3   OH2 6826   7.875   2.333   0.458  0.0030 -0.2186 -0.3199
 2290TIP3    H1 6827   7.860   2.401   0.392  1.9615 -0.7113 -1.3315
 2290TIP3    H2 6828   7.841   2.253   0.419  0.2209 -0.3251 -0.2905
 2291TIP3   OH2 6829   0.251   1.802   6.056  0.1362  0.2357  0.1988
 2291TIP3    H1 6830   0.310   1.763   6.121  1.1675 -0.1122 -0.9087
 2291TIP3    H2 6831   0.236   1.891   6.089  0.0311 -0.1713  1.2932
 2292TIP3   OH2 6832   8.063   0.563   4.664 -0.3400  0.8225 -0.2761
 2292TIP3    H1 6833   8.103   0.616   4.595 -1.2563  0.7725 -0.8747
 2292TIP3    H2 6834   8.005   0.625   4.710  0.5900  0.9591  0.7366
 2293TIP3   OH2 6835   7.338   3.066   1.690  0.6915 -0.3026 -0.1930
 2293TIP3    H1 6836   7.304   3.065   1.780 -1.9077  1.0995 -1.0266
 2293TIP3    H2 6837   7.360   2.975   1.671  1.7755 -0.5498  1.9967
 2294TIP3   OH2 6838   1.337   4.350   6.108 -0.3861  0.0158  0.5901
 2294TIP3    H1 6839   1.391   4.423   6.076  1.1559 -0.9242  0.9171
 2294TIP3    H2 6840   1.280   4.328   6.034  0.5072  0.3039 -0.2122
 2295TIP3   OH2 6841   4.578   5.962   1.907 -0.3506 -0.4129 -0.0781
 2295TIP3    H1 6842   4.604   5.965   1.815 -1.6963 -0.4351 -0.4824
 2295TIP3    H2 6843   4.530   5.880   1.916 -1.7263  0.3785  0.1920
 2296TIP3   OH2 6844   3.481   3.728   2.298  0.4073  0.2977  0.2995
 2296TIP3    H1 6845   3.566   3.768   2.282 -0.6109  2.6637  0.3531
 2296TIP3    H2 6846   3.450   3.769   2.379 -1.0849  0.0613 -0.1115
 2297TIP3   OH2 6847   3.810   2.592   1.396 -0.6206 -0.0208  0.0591
 2297TIP3    H1 6848   3.889   2.601   1.448 -1.1315  2.9869  0.4768
 2297TIP3    H2 6849   3.758   2.525   1.442  0.7321 -0.4852  0.9545
 2298TIP3   OH2 6850   7.318   5.326   6.214  0.5225  0.1815  0.2950
 2298TIP3    H1 6851   7.258   5.393   6.180  0.1721  0.3641  1.2357
 2298TIP3    H2 6852   7.333   5.268   6.140  0.1244  0.8006 -0.2913
 2299TIP3   OH2 6853   3.768   1.570   4.791 -0.0271 -0.0625 -0.0823
 2299TIP3    H1 6854   3.802   1.579   4.880 -0.4872  0.2135  0.0646
 2299TIP3    H2 6855   3.704   1.499   4.797  0.1698 -0.2584 -0.2628
 2300TIP3   OH2 6856   2.014   4.054   6.422  0.0273  0.4432 -0.1711
 2300TIP3    H1 6857   1.953   4.105   6.367 -0.0744  1.1694  0.5942
 2300TIP3    H2 6858   2.015   4.100   6.506  0.3488 -0.5309  0.3761
 2301TIP3   OH2 6859   5.444   0.986   0.023  0.1306 -0.2328  0.0079
 2301TIP3    H1 6860   5.458   1.076  -0.006 -0.1047 -0.7151 -1.7432
 2301TIP3    H2 6861   5.470   0.986   0.115 -0.0232  1.6479  0.0897
 2302TIP3   OH2 6862   3.886   0.614   1.310 -0.2279 -0.5983 -0.1871
 2302TIP3    H1 6863   3.831   0.536   1.303 -0.7883 -0.3267  1.0181
 2302TIP3    H2 6864   3.861   0.668   1.235 -2.7091  0.1785  1.0879
 2303TIP3   OH2 6865   5.359   3.852   5.837 -0.0170 -0.3191  0.1333
 2303TIP3    H1 6866   5.375   3.939   5.873  1.8843 -0.7812  0.5222
 2303TIP3    H2 6867   5.312   3.868   5.755  0.4333  1.0773  0.1221
 2304TIP3   OH2 6868   8.127   1.036   2.344 -0.7080  0.1913 -0.6606
 2304TIP3    H1 6869   8.104   0.949   2.311 -1.4598  0.7396 -1.6209
 2304TIP3    H2 6870   8.220   1.029   2.366 -1.3527 -1.6314  1.8720
 2305TIP3   OH2 6871   1.771   3.625   2.184 -0.4471  0.0800 -0.2256
 2305TIP3    H1 6872   1.830   3.655   2.115 -0.3106 -0.0545 -0.1680
 2305TIP3    H2 6873   1.688   3.670   2.167 -0.1732  0.6771  0.0037
 2306TIP3   OH2 6874   6.181   4.720   2.817 -0.4531 -0.2429 -0.5291
 2306TIP3    H1 6875   6.204   4.629   2.836 -0.4408 -0.0713  0.3279
 2306TIP3    H2 6876   6.129   4.748   2.893 -2.2055 -0.1496 -1.7066
 2307TIP3   OH2 6877   4.041   2.919   5.092  0.9752  0.2140  0.1848
 2307TIP3    H1 6878   3.973   2.936   5.157  2.1142 -0.8514  1.7166
 2307TIP3    H2 6879   3.996   2.872   5.022 -0.4523  2.1436 -0.2734
 2308TIP3   OH2 6880   5.934   1.881   3.613 -0.0744 -0.1437 -0.1813
 2308TIP3    H1 6881   5.937   1.975   3.628  0.8384 -0.1905  0.0001
 2308TIP3    H2 6882   6.009   1.846   3.661  0.7727 -0.7295 -1.8222
 2309TIP3   OH2 6883   1.790   7.710   4.157  0.6635 -0.1972 -0.2604
 2309TIP3    H1 6884   1.814   7.682   4.245  2.4901  0.3969 -0.5193
 2309TIP3    H2 6885   1.695   7.704   4.154  0.6849 -1.7558  1.2174
 2310TIP3   OH2 6886   0.160   6.060   0.986  0.0272  0.3006 -0.2205
 2310TIP3    H1 6887   0.252   6.048   0.963 -0.0845 -1.4992  0.1320
 2310TIP3    H2 6888   0.161   6.121   1.059  0.8648  0.9542 -0.7643
 2311TIP3   OH2 6889   1.541   2.169   6.679 -0.8472  0.5197  0.5897
 2311TIP3    H1 6890   1.591   2.088   6.669 -2.4950 -0.4598 -0.1068
 2311TIP3    H2 6891   1.559   2.197   6.768  0.5421 -0.0555  0.5197
 2312TIP3   OH2 6892   1.034   2.613   6.302 -0.0335 -0.3976 -0.0813
 2312TIP3    H1 6893   1.046   2.522   6.275  1.6559 -0.1005 -0.4031
 2312TIP3    H2 6894   1.008   2.659   6.223 -0.7921 -0.5606  0.0611
 2313TIP3   OH2 6895   6.533   2.295   5.616 -0.1323  0.3576 -0.4107
 2313TIP3    H1 6896   6.462   2.350   5.650  0.7267 -0.0323  2.1828
 2313TIP3    H2 6897   6.576   2.350   5.550 -0.6534  1.9489  0.5211
 2314TIP3   OH2 6898   7.448   4.968   0.771  0.1470 -0.1419  0.1097
 2314TIP3    H1 6899   7.420   5.027   0.841  1.0020  0.6748 -0.2280
 2314TIP3    H2 6900   7.460   4.883   0.814 -0.8614 -0.0314  0.6395
 2315TIP3   OH2 6901   5.838   1.223   0.079  0.2291  0.0631  0.0767
 2315TIP3    H1 6902   5.772   1.233   0.147 -0.3509 -0.0160 -0.4635
 2315TIP3    H2 6903   5.921   1.220   0.126 -0.1305  0.4016  0.7497
 2316TIP3   OH2 6904   7.248   2.306   4.245 -0.3288 -0.0034 -0.0246
 2316TIP3    H1 6905   7.204   2.271   4.322  0.8579  0.6506  0.9912
 2316TIP3    H2 6906   7.338   2.275   4.252  0.1480  1.2242 -0.3760
 2317TIP3   OH2 6907   2.897   6.984   6.726 -0.4714  0.7248  0.2547
 2317TIP3    H1 6908   2.835   7.041   6.681  0.2638  1.2335 -0.1368
 2317TIP3    H2 6909   2.983   7.014   6.697 -0.0749 -1.4923 -1.0687
 2318TIP3   OH2 6910   2.444   4.174   3.466  0.1032 -0.6260 -0.0838
 2318TIP3    H1 6911   2.506   4.146   3.533  0.3944 -0.7069 -0.3849
 2318TIP3    H2 6912   2.389   4.097   3.451  1.2886 -1.2713 -1.3516
 2319TIP3   OH2 6913   6.447   3.985   4.424  0.0092  0.0517 -0.4569
 2319TIP3    H1 6914   6.380   3.917   4.422 -0.6717  0.7170 -0.4196
 2319TIP3    H2 6915   6.481   3.983   4.513 -0.4328  0.1674 -0.2855
 2320TIP3   OH2 6916   5.218   2.876   6.303 -0.5866  0.3165  0.4978
 2320TIP3    H1 6917   5.175   2.891   6.219 -1.4865  0.8379  1.0368
 2320TIP3    H2 6918   5.149   2.840   6.359 -0.4792  1.6701  1.5409
 2321TIP3   OH2 6919   2.942   0.744   1.174 -0.1626 -0.2951 -0.5416
 2321TIP3    H1 6920   2.907   0.833   1.166 -0.1332 -0.1429  0.8647
 2321TIP3    H2 6921   2.936   0.723   1.267  1.5637 -1.0557 -0.5461
 2322TIP3   OH2 6922   0.920   3.815   3.812  0.0593 -0.3716  0.2565
 2322TIP3    H1 6923   0.980   3.883   3.782  0.8428 -0.8142  0.7814
 2322TIP3    H2 6924   0.945   3.737   3.762 -1.0662 -0.2162 -0.6033
 2323TIP3   OH2 6925   3.879   5.184   3.775 -0.4126  0.1133 -0.6274
 2323TIP3    H1 6926   3.856   5.255   3.836  0.5590  0.5676 -0.7732
 2323TIP3    H2 6927   3.834   5.107   3.810  0.1731  0.3482  0.6988
 2324TIP3   OH2 6928   3.773   3.802   2.424  0.3664  0.2620  0.2790
 2324TIP3    H1 6929   3.845   3.815   2.363  1.3983 -0.7193  1.2316
 2324TIP3    H2 6930   3.754   3.889   2.458  0.1728  0.7274 -0.9994
 2325TIP3   OH2 6931   5.403   3.091   1.857  0.4583 -0.0855  0.7861
 2325TIP3    H1 6932   5.374   3.000   1.855  1.3019 -0.3667 -0.9417
 2325TIP3    H2 6933   5.430   3.109   1.766  0.0206  1.9785  1.0339
 2326TIP3   OH2 6934   0.190   6.709   3.849 -0.2255 -0.1387  0.1050
 2326TIP3    H1 6935   0.144   6.772   3.794 -1.8228 -1.4570 -0.1424
 2326TIP3    H2 6936   0.279   6.708   3.814 -1.1004 -0.7277 -2.3606
 2327TIP3   OH2 6937   7.065   6.413   6.442 -0.1928  0.1213  0.0953
 2327TIP3    H1 6938   6.986   6.397   6.390 -1.0328  1.6141  0.8498
 2327TIP3    H2 6939   7.112   6.481   6.393 -0.0027  0.1135  0.2664
 2328TIP3   OH2 6940   5.756   6.094   2.385  0.0550 -0.7800 -0.1113
 2328TIP3    H1 6941   5.779   6.001   2.385  1.5670 -0.4430  0.5876
 2328TIP3    H2 6942   5.673   6.098   2.433 -0.9596 -1.9223 -1.6611
 2329TIP3   OH2 6943   3.295   0.072   4.176 -0.8517  0.4152  0.3503
 2329TIP3    H1 6944   3.207   0.110   4.176 -0.4231  1.4417 -0.7118
 2329TIP3    H2 6945   3.337   0.107   4.098  0.4245 -0.2781  0.6922
 2330TIP3   OH2 6946   1.796   2.279   3.439  0.1084 -0.2251 -0.0569
 2330TIP3    H1 6947   1.704   2.286   3.413  0.1301  0.8409  0.0925
 2330TIP3    H2 6948   1.795   2.296   3.534  0.4243 -0.5127 -0.0029
 2331TIP3   OH2 6949   3.731   1.936   6.389  0.1841 -0.4231  0.3797
 2331TIP3    H1 6950   3.699   2.012   6.437  1.1982  1.1356 -1.2700
 2331TIP3    H2 6951   3.797   1.897   6.447  0.7897  0.9154  0.6360
 2332TIP3   OH2 6952   3.827   3.263   0.657 -0.5948 -0.4733  0.1612
 2332TIP3    H1 6953   3.749   3.293   0.705  0.6249 -0.5353  2.2962
 2332TIP3    H2 6954   3.858   3.342   0.612 -2.3196 -0.6354 -1.4470
 2333TIP3   OH2 6955   3.667   3.150   6.221 -0.1847 -0.1984  0.3417
 2333TIP3    H1 6956   3.690   3.161   6.128  1.0059  3.8308  0.9035
 2333TIP3    H2 6957   3.593   3.209   6.233  0.5038  0.3399  2.1860
 2334TIP3   OH2 6958   0.375   3.834   6.477  0.0545  0.1993 -0.0323
 2334TIP3    H1 6959   0.389   3.769   6.408  1.3592 -0.4742  0.8191
 2334TIP3    H2 6960   0.368   3.782   6.557  2.4409  1.1349  0.8527
 2335TIP3   OH2 6961   3.878   6.734   2.479  0.3233  0.5727 -0.2594
 2335TIP3    H1 6962   3.818   6.786   2.532  0.5207  0.7102 -0.1685
 2335TIP3    H2 6963   3.822   6.685   2.420 -0.0016 -0.6246  0.9828
 2336TIP3   OH2 6964   1.011   6.759   5.349 -0.0746  0.2823  0.1539
 2336TIP3    H1 6965   1.050   6.846   5.336 -0.0690  0.4265  1.0432
 2336TIP3    H2 6966   1.018   6.744   5.444 -1.2891 -0.1082  0.2029
 2337TIP3   OH2 6967   6.989   5.560   0.173  0.0076  0.1011  0.6938
 2337TIP3    H1 6968   6.980   5.512   0.256  0.7379 -1.7828 -0.2583
 2337TIP3    H2 6969   7.078   5.594   0.174  0.5127 -1.1469  0.1002
 2338TIP3   OH2 6970   3.700   2.902   4.733 -0.0882  0.8084  0.3618
 2338TIP3    H1 6971   3.737   2.968   4.674 -1.0120  0.5360 -0.5582
 2338TIP3    H2 6972   3.774   2.846   4.756  0.0466 -0.0096 -1.8202
 2339TIP3   OH2 6973   0.861   2.768   5.154 -0.0903  0.2018  0.0565
 2339TIP3    H1 6974   0.899   2.699   5.209  1.1810 -0.4254 -1.4991
 2339TIP3    H2 6975   0.871   2.848   5.204 -1.2889 -0.6633  1.7722
 2340TIP3   OH2 6976   2.163   4.789   3.158  0.1007  0.7428 -0.2763
 2340TIP3    H1 6977   2.196   4.735   3.086  1.8524  0.1390  0.9200
 2340TIP3    H2 6978   2.082   4.827   3.124  0.8792  0.5244 -2.5813
 2341TIP3   OH2 6979   7.658   1.457   0.118 -0.5559 -0.6865  0.5127
 2341TIP3    H1 6980   7.675   1.415   0.202  0.7392 -0.0126  0.6096
 2341TIP3    H2 6981   7.570   1.494   0.127 -0.9335 -1.6811  1.1037
 2342TIP3   OH2 6982   3.734   3.464   5.511  1.0754 -0.1278 -0.5318
 2342TIP3    H1 6983   3.809   3.487   5.456  0.9551 -1.6789 -1.3946
 2342TIP3    H2 6984   3.739   3.369   5.521  0.1679 -0.0723  0.8096
 2343TIP3   OH2 6985   6.061   0.872   1.797  0.5898  0.1061 -0.0756
 2343TIP3    H1 6986   6.131   0.815   1.829 -0.4066  0.3577  2.8040
 2343TIP3    H2 6987   6.091   0.961   1.818  0.1392  0.3395 -0.4057
 2344TIP3   OH2 6988   1.853   7.381   5.555  0.4049  0.5180 -0.5363
 2344TIP3    H1 6989   1.890   7.446   5.615  0.1513 -1.5362  1.9911
 2344TIP3    H2 6990   1.764   7.411   5.539  0.0090  0.3776  1.2907
 2345TIP3   OH2 6991   7.058   1.384   1.536  0.0945  0.0393 -0.0257
 2345TIP3    H1 6992   7.051   1.327   1.613 -1.1292 -1.8984 -1.4651
 2345TIP3    H2 6993   7.014   1.335   1.467  4.3296 -0.1384 -3.0103
 2346TIP3   OH2 6994   1.125   5.822   4.743  0.1912  0.7436  0.5937
 2346TIP3    H1 6995   1.070   5.901   4.737  0.2129  0.6747 -0.8282
 2346TIP3    H2 6996   1.085   5.760   4.682 -0.1685 -0.5936  2.1147
 2347TIP3   OH2 6997   2.502   5.097   4.205  0.0800  0.0267  0.4998
 2347TIP3    H1 6998   2.432   5.031   4.203  0.1044  0.0093  0.1244
 2347TIP3    H2 6999   2.570   5.061   4.147  0.1709  0.2963  0.4401
 2348TIP3   OH2 7000   6.534   6.485   4.203 -1.0369  0.1955 -0.1085
 2348TIP3    H1 7001   6.602   6.498   4.269 -1.4298  0.0193  0.3396
 2348TIP3    H2 7002   6.578   6.436   4.133 -0.7764 -0.1989  0.3183
 2349TIP3   OH2 7003   5.152   4.134   5.258  0.0126 -0.3547 -0.2063
 2349TIP3    H1 7004   5.085   4.186   5.303  0.0503  1.4899 -2.1149
 2349TIP3    H2 7005   5.144   4.159   5.166  1.5737 -2.1050 -0.8822
 2350TIP3   OH2 7006   6.955   0.778   1.279 -0.2809 -0.2744 -0.2835
 2350TIP3    H1 7007   7.042   0.791   1.316  0.3794 -1.5982 -1.2924
 2350TIP3    H2 7008   6.934   0.687   1.299 -1.1493 -0.1575 -0.6195
 2351TIP3   OH2 7009   1.539   3.738   5.061  0.6056  0.0365 -0.0562
 2351TIP3    H1 7010   1.471   3.670   5.062  0.9691 -0.3724 -1.0973
 2351TIP3    H2 7011   1.621   3.689   5.057  0.9191  0.5387  0.1262
 2352TIP3   OH2 7012   0.658   4.400   3.637  0.5040 -0.3457  0.1308
 2352TIP3    H1 7013   0.590   4.345   3.599  2.2589 -0.9323 -2.4686
 2352TIP3    H2 7014   0.647   4.485   3.594 -0.0043  0.2982  1.4788
 2353TIP3   OH2 7015   7.739   3.780   5.634 -0.4803  0.0251  0.4406
 2353TIP3    H1 7016   7.816   3.751   5.584 -0.0261  1.2921  0.3702
 2353TIP3    H2 7017   7.767   3.777   5.725 -0.4567  0.1678  0.4383
 2354TIP3   OH2 7018   6.425   6.736   1.473  0.9318 -0.0501 -0.1023
 2354TIP3    H1 7019   6.354   6.799   1.463  0.4329 -0.1346  2.2367
 2354TIP3    H2 7020   6.389   6.653   1.442  0.6967  0.2838 -0.7370
 2355TIP3   OH2 7021   1.814   4.105   3.862 -0.8382  0.3179  0.5305
 2355TIP3    H1 7022   1.773   4.142   3.939  1.4915  1.5375  1.2872
 2355TIP3    H2 7023   1.888   4.163   3.844 -0.6450 -0.5658 -1.9662
 2356TIP3   OH2 7024   0.769   3.449   5.265  0.3484 -0.9015 -0.3255
 2356TIP3    H1 7025   0.695   3.394   5.288  0.5458 -0.5662  1.2383
 2356TIP3    H2 7026   0.730   3.530   5.232  0.0230 -0.9232  0.0024
 2357TIP3   OH2 7027   7.591   7.178  -0.013 -0.2087  0.2322  0.2416
 2357TIP3    H1 7028   7.625   7.091   0.009 -1.1850 -0.1234  0.3775
 2357TIP3    H2 7029   7.663   7.238   0.010 -0.6951 -0.2065  3.3941
 2358TIP3   OH2 7030   3.668   4.943   4.681 -0.2080  0.0438  0.2638
 2358TIP3    H1 7031   3.662   4.850   4.657  1.3953  0.2125 -0.9448
 2358TIP3    H2 7032   3.577   4.971   4.690 -0.8385 -0.9411 -2.2186
 2359TIP3   OH2 7033   6.807   3.283   1.779  0.4627  0.8511  0.3633
 2359TIP3    H1 7034   6.738   3.292   1.714 -0.6275 -1.4950  1.0930
 2359TIP3    H2 7035   6.789   3.352   1.843  1.4657  3.1032 -1.6032
 2360TIP3   OH2 7036   3.023   7.718   3.013  0.0807 -0.5096  0.1046
 2360TIP3    H1 7037   3.060   7.684   3.094  0.3941 -0.3767  0.0154
 2360TIP3    H2 7038   2.999   7.808   3.033 -0.0682 -0.5511  0.1194
 2361TIP3   OH2 7039   0.616   2.383   3.399  0.1344  0.1567 -0.1020
 2361TIP3    H1 7040   0.629   2.441   3.474 -0.1241  0.3254 -0.1883
 2361TIP3    H2 7041   0.556   2.316   3.432  1.4520 -0.8277  0.4082
 2362TIP3   OH2 7042   0.409   1.698   1.450 -0.2363  0.9503 -0.1479
 2362TIP3    H1 7043   0.460   1.691   1.530 -0.5225  0.2852 -0.0185
 2362TIP3    H2 7044   0.385   1.791   1.444 -1.2768  0.7863  1.1980
 2363TIP3   OH2 7045   2.444   5.144   1.722 -0.4634 -0.0253  0.0040
 2363TIP3    H1 7046   2.487   5.229   1.712 -2.4011  0.8485 -1.2678
 2363TIP3    H2 7047   2.425   5.138   1.816  0.2860  0.6038  0.2098
 2364TIP3   OH2 7048   6.349   0.324   1.123 -0.0592  0.1052  0.3990
 2364TIP3    H1 7049   6.355   0.235   1.157  1.4431  0.3346  0.7988
 2364TIP3    H2 7050   6.260   0.331   1.090 -0.0398 -1.7474 -0.1868
 2365TIP3   OH2 7051   2.458   0.663   6.435 -0.0054  0.3854 -0.1249
 2365TIP3    H1 7052   2.398   0.734   6.411 -0.2000  0.8258  1.4969
 2365TIP3    H2 7053   2.522   0.706   6.493  1.4949 -0.2133 -1.3002
 2366TIP3   OH2 7054   4.088   5.182   6.519  0.6908  0.3194 -0.0766
 2366TIP3    H1 7055   4.053   5.234   6.447 -0.3996 -1.0632 -0.6130
 2366TIP3    H2 7056   4.027   5.108   6.526  1.2556 -0.0309  1.7096
 2367TIP3   OH2 7057   6.891   3.908   2.916  0.1675  0.3334  0.0111
 2367TIP3    H1 7058   6.975   3.937   2.882 -0.0398  1.7279  0.6268
 2367TIP3    H2 7059   6.912   3.872   3.003  0.2157  0.0731 -0.1082
 2368TIP3   OH2 7060   1.691   2.148   2.671  0.5409 -0.0716  0.7160
 2368TIP3    H1 7061   1.736   2.229   2.645  0.0304  0.0323  0.1580
 2368TIP3    H2 7062   1.761   2.095   2.710  0.7319  0.9697  1.8911
 2369TIP3   OH2 7063   3.134   4.146   3.698  0.8802 -0.1757  0.1991
 2369TIP3    H1 7064   3.198   4.215   3.679 -0.4314  1.7432  2.2530
 2369TIP3    H2 7065   3.187   4.074   3.733  2.2260 -0.0985 -1.5351
 2370TIP3   OH2 7066   1.587   6.114   1.877  0.8510 -0.3980 -0.4353
 2370TIP3    H1 7067   1.502   6.103   1.919  1.1406 -0.8365  0.0480
 2370TIP3    H2 7068   1.597   6.208   1.864  1.6695 -0.0175  2.3991
 2371TIP3   OH2 7069   3.631   6.438   3.187  0.1427  0.1189  0.6822
 2371TIP3    H1 7070   3.699   6.390   3.139 -1.0630 -0.1499 -0.8488
 2371TIP3    H2 7071   3.661   6.438   3.278  2.1349 -0.0640  0.0842
 2372TIP3   OH2 7072   7.520   2.151   2.093  1.1153 -0.7310 -0.1150
 2372TIP3    H1 7073   7.602   2.101   2.099  0.7998 -1.0857  2.1826
 2372TIP3    H2 7074   7.490   2.157   2.183 -0.7951  0.4387 -0.7869
 2373TIP3   OH2 7075   3.898   3.241   4.162 -0.0220  0.4416 -0.2606
 2373TIP3    H1 7076   3.900   3.331   4.128 -0.3095  0.9464  1.0021
 2373TIP3    H2 7077   3.963   3.195   4.109  1.1491  1.7340 -0.0311
 2374TIP3   OH2 7078   0.366   2.820   1.589  0.4506  0.3408 -0.0415
 2374TIP3    H1 7079   0.309   2.744   1.602  0.8038  0.0677 -0.0840
 2374TIP3    H2 7080   0.387   2.850   1.678  2.9954 -1.6199  0.1322
 2375TIP3   OH2 7081   4.736   5.491   3.402  0.4515 -0.0767  0.3020
 2375TIP3    H1 7082   4.771   5.570   3.362  0.0259  0.8366  1.6705
 2375TIP3    H2 7083   4.641   5.504   3.402  0.3088 -0.9942 -0.2558
 2376TIP3   OH2 7084   2.044   0.497   2.521 -0.0620 -0.3087 -0.5463
 2376TIP3    H1 7085   2.062   0.549   2.599  2.6074  0.2368 -1.4144
 2376TIP3    H2 7086   1.985   0.428   2.551 -1.6931  1.6920  1.1999
 2377TIP3   OH2 7087   4.617   0.320   3.371 -0.3023  0.3134  0.5141
 2377TIP3    H1 7088   4.587   0.305   3.282  1.8641 -1.6689  0.0291
 2377TIP3    H2 7089   4.651   0.409   3.371 -0.2713  0.3111 -0.6680
 2378TIP3   OH2 7090   6.813   7.653   0.181  0.0439  0.1314  0.1799
 2378TIP3    H1 7091   6.863   7.645   0.100  1.2145  0.4074  0.8456
 2378TIP3    H2 7092   6.723   7.632   0.157  0.5502 -0.7948 -0.9795
 2379TIP3   OH2 7093   5.803   0.752   0.543  0.1697  0.6483  0.1144
 2379TIP3    H1 7094   5.867   0.737   0.612 -0.9502 -0.5396  0.9406
 2379TIP3    H2 7095   5.761   0.835   0.568 -0.4031  0.1026  1.0200
 2380TIP3   OH2 7096   0.335   3.514   1.748 -0.0013  0.5027 -0.0317
 2380TIP3    H1 7097   0.395   3.580   1.784  1.2976 -1.6806  2.1664
 2380TIP3    H2 7098   0.392   3.458   1.694  0.2569 -1.9499  2.5527
 2381TIP3   OH2 7099   8.075   4.601   1.054  0.1884  0.1323 -1.1678
 2381TIP3    H1 7100   8.004   4.662   1.033 -0.1965 -0.1884 -0.8106
 2381TIP3    H2 7101   8.087   4.549   0.974  0.9864  1.1152 -1.7200
 2382TIP3   OH2 7102   5.273   7.018   3.983 -0.1546 -0.4778  0.0528
 2382TIP3    H1 7103   5.349   7.012   3.926 -0.1726  1.3859 -0.2329
 2382TIP3    H2 7104   5.277   7.106   4.019 -0.7628 -1.2254  2.0989
 2383TIP3   OH2 7105   5.010   3.509   1.554  0.4884 -0.2175  0.1191
 2383TIP3    H1 7106   5.080   3.445   1.554  0.3148 -0.4294  1.4731
 2383TIP3    H2 7107   5.037   3.575   1.490  1.4740 -0.7641 -0.0352
 2384TIP3   OH2 7108   1.182   1.571   0.975 -0.3464  0.7279 -0.2160
 2384TIP3    H1 7109   1.216   1.647   0.928  0.0399  1.1816  0.7578
 2384TIP3    H2 7110   1.112   1.606   1.030 -0.9464  0.1704 -0.6189
 2385TIP3   OH2 7111   6.440   6.233   1.308  0.4420  0.0031 -0.1536
 2385TIP3    H1 7112   6.528   6.236   1.269  0.6116 -2.3559 -0.1059
 2385TIP3    H2 7113   6.450   6.175   1.384 -1.0572  0.1400  0.1684
 2386TIP3   OH2 7114   5.541   2.074   3.513  0.2771 -0.1553 -1.0345
 2386TIP3    H1 7115   5.471   2.139   3.513  0.1116 -0.2110  1.7854
 2386TIP3    H2 7116   5.496   1.990   3.503  0.0338 -0.1030 -0.4416
 2387TIP3   OH2 7117   0.889   2.831   2.653 -0.3598  0.1461 -0.1244
 2387TIP3    H1 7118   0.931   2.851   2.737 -0.2420  0.5299 -0.2754
 2387TIP3    H2 7119   0.870   2.916   2.615  0.2839 -0.0223 -0.8413
 2388TIP3   OH2 7120   7.850   7.323   2.722 -0.0927  0.0335  0.1290
 2388TIP3    H1 7121   7.908   7.252   2.694 -2.6062 -1.2564 -2.1795
 2388TIP3    H2 7122   7.787   7.281   2.781 -1.6300  0.2571 -1.2886
 2389TIP3   OH2 7123   2.027   5.757   2.635  0.0451 -0.4044  0.4193
 2389TIP3    H1 7124   1.943   5.796   2.657  0.2620 -0.9820  2.4173
 2389TIP3    H2 7125   2.017   5.727   2.544 -2.0478 -0.8568  0.7617
 2390TIP3   OH2 7126   6.141   4.076   2.897  0.0164 -0.5210 -0.3125
 2390TIP3    H1 7127   6.133   4.133   2.821 -1.5877 -1.4605 -0.8956
 2390TIP3    H2 7128   6.180   4.132   2.964 -1.3345  1.2356 -0.9016
 2391TIP3   OH2 7129   1.644   3.382   6.648  0.5189 -0.1711  0.1286
 2391TIP3    H1 7130   1.618   3.471   6.625  2.4324  0.0195 -1.6521
 2391TIP3    H2 7131   1.740   3.383   6.640  0.7646 -1.8804  2.0728
 2392TIP3   OH2 7132   3.568   7.357   2.417  0.0444  0.0840  0.3057
 2392TIP3    H1 7133   3.544   7.359   2.324 -0.5107  0.3943  0.4493
 2392TIP3    H2 7134   3.526   7.278   2.450 -0.8490  0.6507  0.5669
 2393TIP3   OH2 7135   5.502   2.254   1.654  0.2761 -0.2463 -0.2368
 2393TIP3    H1 7136   5.592   2.288   1.653 -0.6100  2.2659 -0.8555
 2393TIP3    H2 7137   5.462   2.294   1.730  0.0087 -2.5622  0.9519
 2394TIP3   OH2 7138   3.043   5.967   0.258  0.2278 -0.2209  0.4202
 2394TIP3    H1 7139   2.949   5.967   0.242 -0.0794  0.1126  2.0729
 2394TIP3    H2 7140   3.052   5.953   0.352  1.8841 -1.7507  0.1040
 2395TIP3   OH2 7141   4.679   7.168   6.589  0.4150 -0.6700 -0.0754
 2395TIP3    H1 7142   4.707   7.080   6.567  1.4108 -0.7929  1.5192
 2395TIP3    H2 7143   4.640   7.160   6.677 -0.6992  0.2575 -0.4565
 2396TIP3   OH2 7144   5.192   6.530   0.301  0.0902  0.4477 -0.1353
 2396TIP3    H1 7145   5.283   6.501   0.296 -0.2393 -0.5689 -0.3353
 2396TIP3    H2 7146   5.144   6.455   0.336 -0.8218  0.6371 -0.9340
 2397TIP3   OH2 7147   1.519   6.222   0.767  0.8415  0.1346  0.3890
 2397TIP3    H1 7148   1.575   6.217   0.690  0.4837  1.4233  0.0143
 2397TIP3    H2 7149   1.530   6.312   0.800  0.3211 -0.1222  1.3241
 2398TIP3   OH2 7150   3.282   2.399   3.282 -0.2116  0.1967 -0.1396
 2398TIP3    H1 7151   3.279   2.478   3.228 -0.4883 -0.4673 -1.1377
 2398TIP3    H2 7152   3.353   2.347   3.245 -1.6206 -1.1201 -1.1561
 2399TIP3   OH2 7153   6.586   7.394   6.274  0.1676 -0.2891  0.1234
 2399TIP3    H1 7154   6.509   7.397   6.218  0.7669 -0.0269 -0.7207
 2399TIP3    H2 7155   6.655   7.357   6.218  0.7294 -0.2304  0.7571
 2400TIP3   OH2 7156   1.206   7.235   6.119 -0.0556 -0.4224  0.4066
 2400TIP3    H1 7157   1.239   7.313   6.074  1.2477 -0.3163  1.4755
 2400TIP3    H2 7158   1.122   7.217   6.077 -1.0867  2.3918  1.0429
 2401TIP3   OH2 7159   5.592   2.065   2.692 -0.0562 -0.2309 -0.2023
 2401TIP3    H1 7160   5.576   2.158   2.711 -0.1606 -0.3611  0.3440
 2401TIP3    H2 7161   5.552   2.018   2.765  0.7686 -0.6646 -0.0236
 2402TIP3   OH2 7162   3.922   6.065   4.388 -0.1262 -0.1789 -0.3993
 2402TIP3    H1 7163   3.993   6.029   4.441  0.3166 -0.3320 -1.0724
 2402TIP3    H2 7164   3.903   6.149   4.428  0.5976 -0.0339 -0.3336
 2403TIP3   OH2 7165   6.339   1.243   1.774 -0.1332 -0.2297  0.3544
 2403TIP3    H1 7166   6.340   1.285   1.688  0.6737  0.0611  0.4915
 2403TIP3    H2 7167   6.372   1.155   1.758 -1.5733 -0.7529  0.1102
 2404TIP3   OH2 7168   1.953   5.981   0.039 -0.5220  0.3525  0.0120
 2404TIP3    H1 7169   1.907   5.898   0.053  1.1612 -0.9342 -1.5638
 2404TIP3    H2 7170   1.917   6.040   0.105 -3.3201 -0.9699 -0.1812
 2405TIP3   OH2 7171   1.484   7.078   4.794  0.6160  0.0024  0.4989
 2405TIP3    H1 7172   1.538   7.143   4.839  0.0175  0.3256  0.7665
 2405TIP3    H2 7173   1.501   7.092   4.701  2.0366 -0.8178  0.6158
 2406TIP3   OH2 7174   2.801   3.406   5.322 -0.6844  0.0336  0.5500
 2406TIP3    H1 7175   2.806   3.310   5.326  0.1670  0.0968  1.4184
 2406TIP3    H2 7176   2.849   3.429   5.242 -0.4026 -0.2343  0.6399
 2407TIP3   OH2 7177   0.278   3.023   6.405 -0.1464  0.2327 -0.1442
 2407TIP3    H1 7178   0.356   2.970   6.424  1.1391  1.0150 -2.7933
 2407TIP3    H2 7179   0.231   2.973   6.338  0.3325  1.6758 -1.6193
 2408TIP3   OH2 7180   6.959   1.804   2.574 -0.2198 -0.4147 -0.2002
 2408TIP3    H1 7181   6.898   1.758   2.517  0.4491 -0.7451 -0.6597
 2408TIP3    H2 7182   7.015   1.854   2.514 -0.8289  0.8962  0.2696
 2409TIP3   OH2 7183   4.694   1.337   3.878 -0.2745  0.3400 -0.2036
 2409TIP3    H1 7184   4.664   1.268   3.818 -0.7433  0.1660  0.2175
 2409TIP3    H2 7185   4.723   1.290   3.956  0.0121  0.5813 -0.1657
 2410TIP3   OH2 7186   7.357   0.048   0.759  0.2005  0.1185  0.2894
 2410TIP3    H1 7187   7.367   0.031   0.853  1.1515 -0.4860  0.0877
 2410TIP3    H2 7188   7.413  -0.017   0.717 -1.0396 -0.3236 -0.7470
 2411TIP3   OH2 7189   5.425   7.783   3.742 -0.8531 -0.2870  0.3170
 2411TIP3    H1 7190   5.409   7.792   3.648 -1.1114  1.1394  0.4852
 2411TIP3    H2 7191   5.500   7.723   3.747 -1.2358 -0.9016 -0.7543
 2412TIP3   OH2 7192   0.390   6.955   6.425 -0.3780 -0.2288 -0.4567
 2412TIP3    H1 7193   0.347   6.909   6.353 -1.7029 -2.4670  1.6338
 2412TIP3    H2 7194   0.319   6.981   6.484  0.7426  0.6287  0.5779
 2413TIP3   OH2 7195   4.534   0.721   4.322 -0.0417 -0.2595  0.1708
 2413TIP3    H1 7196   4.591   0.756   4.253  1.4651  0.5040  1.7263
 2413TIP3    H2 7197   4.584   0.733   4.403 -2.4637  0.5240  1.6480
 2414TIP3   OH2 7198   7.508   6.007   5.217  0.0053  0.0600  0.0661
 2414TIP3    H1 7199   7.550   6.092   5.208  2.0035 -0.8600  0.2835
 2414TIP3    H2 7200   7.484   6.001   5.309  2.0081 -0.5261  0.5891
 2415TIP3   OH2 7201   2.802   1.795   6.286 -0.5281 -0.0796  0.1526
 2415TIP3    H1 7202   2.763   1.836   6.363  0.0507 -1.3200  1.1445
 2415TIP3    H2 7203   2.873   1.740   6.321  0.3885  0.0797 -1.3525
 2416TIP3   OH2 7204   5.762   1.261   1.073 -0.2230  0.0068 -0.0670
 2416TIP3    H1 7205   5.675   1.223   1.079  0.4086 -1.7410 -1.1807
 2416TIP3    H2 7206   5.751   1.337   1.015 -1.0544  0.0318  0.1096
 2417TIP3   OH2 7207   7.316   1.209   1.785  0.1332 -0.2327 -0.2284
 2417TIP3    H1 7208   7.325   1.216   1.880  3.1499  0.8995 -0.4853
 2417TIP3    H2 7209   7.405   1.216   1.752 -0.6254 -2.2664 -3.1081
 2418TIP3   OH2 7210   7.121   2.750   5.865  0.0136  0.4416 -0.3454
 2418TIP3    H1 7211   7.108   2.832   5.817  0.2115  1.5388  1.3867
 2418TIP3    H2 7212   7.166   2.776   5.946 -0.1091 -1.3468  0.3447
 2419TIP3   OH2 7213   3.693   6.305   4.002 -0.1978 -0.3246  0.3802
 2419TIP3    H1 7214   3.626   6.316   4.070  0.7852  1.5305  1.1401
 2419TIP3    H2 7215   3.773   6.284   4.051  0.0567 -1.2052 -0.4001
 2420TIP3   OH2 7216   3.272   4.464   4.073  0.6545 -0.0720  0.1191
 2420TIP3    H1 7217   3.315   4.541   4.036  2.4852 -1.4416 -0.7938
 2420TIP3    H2 7218   3.262   4.484   4.166  2.0431  0.8728  0.0903
 2421TIP3   OH2 7219   2.850   3.646   0.843  0.3700 -0.5305 -0.6370
 2421TIP3    H1 7220   2.886   3.679   0.761  0.3392 -1.7119 -1.1564
 2421TIP3    H2 7221   2.757   3.671   0.841  0.2585 -0.9772 -1.1988
 2422TIP3   OH2 7222   2.175   4.652   4.994 -0.3105  0.3634  0.4285
 2422TIP3    H1 7223   2.182   4.739   4.955  0.0504  0.2959  0.3361
 2422TIP3    H2 7224   2.119   4.603   4.934  0.0124  0.3446  0.1364
 2423TIP3   OH2 7225   1.054   1.387   2.595 -0.2711  0.2060  0.0430
 2423TIP3    H1 7226   1.061   1.405   2.689  0.1857 -0.7648  0.1984
 2423TIP3    H2 7227   0.999   1.309   2.590 -1.2711  0.9297 -0.5710
 2424TIP3   OH2 7228   3.556   0.534   5.639  0.0902 -0.0440  0.2906
 2424TIP3    H1 7229   3.485   0.559   5.580 -0.1015  0.5308  0.7547
 2424TIP3    H2 7230   3.634   0.572   5.601 -0.0690  0.5246  0.5295
 2425TIP3   OH2 7231   1.109   5.114   5.012  0.1686 -0.3764  0.0363
 2425TIP3    H1 7232   1.167   5.086   5.082  1.3590 -0.1786 -0.8510
 2425TIP3    H2 7233   1.031   5.058   5.022  0.7175 -1.0015  0.9272
 2426TIP3   OH2 7234   0.419   2.714   5.135  0.3115  0.4714 -0.1924
 2426TIP3    H1 7235   0.421   2.619   5.133 -1.5083  0.4009 -1.9092
 2426TIP3    H2 7236   0.466   2.741   5.056  1.0828  1.0241  0.4394
 2427TIP3   OH2 7237   7.637   2.892   6.008  0.5626  0.3712 -0.1098
 2427TIP3    H1 7238   7.663   2.942   5.931 -0.7812  0.8811 -0.2552
 2427TIP3    H2 7239   7.657   2.801   5.986 -1.5073  0.2569 -1.8756
 2428TIP3   OH2 7240   0.689   7.077   5.572  0.2317  0.0104  0.3143
 2428TIP3    H1 7241   0.684   7.040   5.660 -0.5874 -0.2303  0.1743
 2428TIP3    H2 7242   0.739   7.012   5.522  1.4145  0.5366  0.7871
 2429TIP3   OH2 7243   7.469   5.266   1.381 -0.0843 -0.2705  0.0694
 2429TIP3    H1 7244   7.399   5.314   1.426  1.7801  1.6785  1.0423
 2429TIP3    H2 7245   7.456   5.286   1.288 -1.3823 -0.7687  0.1172
 2430TIP3   OH2 7246   6.417   4.575   3.220  0.0087  0.2783  0.6425
 2430TIP3    H1 7247   6.437   4.668   3.214 -0.5554  0.6246  3.0503
 2430TIP3    H2 7248   6.473   4.543   3.291  0.1926 -1.2352 -0.1441
 2431TIP3   OH2 7249   2.773   3.301   4.523  0.2542 -0.2531 -0.0029
 2431TIP3    H1 7250   2.843   3.258   4.573 -0.1872 -0.3766  0.5172
 2431TIP3    H2 7251   2.818   3.341   4.448  0.9547  0.0861  0.5835
 2432TIP3   OH2 7252   6.334   2.971   6.352 -0.2075 -0.3946 -0.5626
 2432TIP3    H1 7253   6.285   2.889   6.356  2.2144 -1.8985 -0.1515
 2432TIP3    H2 7254   6.327   3.007   6.441 -1.4997  0.0424 -0.8134
 2433TIP3   OH2 7255   7.638   4.591   2.986  0.1237 -0.5114  0.2148
 2433TIP3    H1 7256   7.656   4.516   3.042 -0.9760 -0.8467  0.1362
 2433TIP3    H2 7257   7.577   4.558   2.920 -1.3130  0.7031  0.8582
 2434TIP3   OH2 7258   6.394   0.903   6.295 -0.4551  0.4260  0.5128
 2434TIP3    H1 7259   6.424   0.936   6.379 -0.9023 -0.0134  0.8525
 2434TIP3    H2 7260   6.381   0.809   6.309 -1.6320  0.5362  0.2947
 2435TIP3   OH2 7261   4.154   7.786   2.092 -0.6611  0.3008 -0.4078
 2435TIP3    H1 7262   4.097   7.754   2.162 -0.4880 -0.2217 -0.4975
 2435TIP3    H2 7263   4.225   7.723   2.089 -0.5183  0.4790 -0.8637
 2436TIP3   OH2 7264   6.376   2.308   3.923  0.1431 -0.5631  0.8660
 2436TIP3    H1 7265   6.425   2.246   3.869 -0.1678 -1.3626  1.4903
 2436TIP3    H2 7266   6.441   2.344   3.984  0.7945  1.3033 -0.7980
 2437TIP3   OH2 7267   4.468   4.872   4.962 -0.0652  0.2482  0.8815
 2437TIP3    H1 7268   4.535   4.858   5.029  0.8189  4.1711  1.0712
 2437TIP3    H2 7269   4.388   4.888   5.012  0.1294  1.0836  0.9387
 2438TIP3   OH2 7270   7.472   0.797   5.349 -0.2838  0.5214 -0.0528
 2438TIP3    H1 7271   7.405   0.728   5.350  0.0424  0.2049  0.6621
 2438TIP3    H2 7272   7.428   0.873   5.387  0.3507 -0.2847  2.4983
 2439TIP3   OH2 7273   4.533   6.745   2.444  0.1599  0.2656 -0.2808
 2439TIP3    H1 7274   4.487   6.745   2.527  0.1873  1.6284 -0.2500
 2439TIP3    H2 7275   4.605   6.806   2.456 -0.8014  1.8004 -1.8020
 2440TIP3   OH2 7276   7.790   1.795   6.024  0.1197  0.0201 -0.1923
 2440TIP3    H1 7277   7.884   1.779   6.015  0.0229 -1.1751  0.6514
 2440TIP3    H2 7278   7.784   1.861   6.093  0.3373 -0.0397 -0.1146
 2441TIP3   OH2 7279   7.471   3.860   4.484 -0.4888  0.2337 -0.5841
 2441TIP3    H1 7280   7.463   3.779   4.534  0.2073  0.0319 -0.7823
 2441TIP3    H2 7281   7.491   3.831   4.395 -0.1850  0.6210 -0.6447
 2442TIP3   OH2 7282   0.622   3.929   4.673 -0.3495 -0.1871  0.1099
 2442TIP3    H1 7283   0.692   3.927   4.608  0.8376  1.0575  1.2730
 2442TIP3    H2 7284   0.545   3.961   4.625  0.5806  1.0098 -0.6487
 2443TIP3   OH2 7285   2.046   1.293   4.593 -0.1199 -0.3140 -0.4523
 2443TIP3    H1 7286   1.978   1.229   4.616 -1.2651  0.3833 -1.7042
 2443TIP3    H2 7287   2.011   1.377   4.622 -0.0716  0.1267 -1.6027
 2444TIP3   OH2 7288   7.790   3.661   1.066  0.4785 -0.1990 -0.2022
 2444TIP3    H1 7289   7.811   3.578   1.109 -1.4093 -0.2982  0.6196
 2444TIP3    H2 7290   7.710   3.643   1.017  0.3385  0.9899 -0.4405
 2445TIP3   OH2 7291   4.157   5.698   1.487  0.2463 -0.5600  0.3967
 2445TIP3    H1 7292   4.231   5.665   1.538 -1.4390  0.0581  3.5194
 2445TIP3    H2 7293   4.187   5.783   1.454  1.4519 -1.0483  0.1751
 2446TIP3   OH2 7294   6.313   0.615   3.647  0.3279  0.2583 -0.3038
 2446TIP3    H1 7295   6.384   0.576   3.597  0.5758  2.0340 -1.4128
 2446TIP3    H2 7296   6.234   0.572   3.614  0.5491  0.9520 -1.8250
 2447TIP3   OH2 7297   3.555   3.289   0.371 -0.0924 -0.2257  0.2749
 2447TIP3    H1 7298   3.639   3.243   0.362  0.4329  0.5383  1.0897
 2447TIP3    H2 7299   3.530   3.310   0.281  1.0105  0.2514  0.0588
 2448TIP3   OH2 7300   2.383   0.289   5.035  0.0480  0.4051 -0.4284
 2448TIP3    H1 7301   2.293   0.314   5.014 -0.3220 -0.4351  0.1349
 2448TIP3    H2 7302   2.391   0.306   5.129  0.1373 -0.4942 -0.2617
 2449TIP3   OH2 7303   7.961   7.475   0.380  0.1019  0.3238  0.3952
 2449TIP3    H1 7304   8.041   7.489   0.329 -1.2046  1.6377 -1.3900
 2449TIP3    H2 7305   7.937   7.385   0.362  1.8058 -0.5042  1.9507
 2450TIP3   OH2 7306   8.132   3.198   5.375  0.5537  0.1893 -0.3049
 2450TIP3    H1 7307   8.137   3.147   5.456  1.1096 -0.1457 -0.5463
 2450TIP3    H2 7308   8.039   3.198   5.353  0.5165 -0.5603 -0.1910
 2451TIP3   OH2 7309   1.451   3.481   1.600  0.7228  0.1311  0.2652
 2451TIP3    H1 7310   1.447   3.389   1.573  0.2192  0.1195  0.3835
 2451TIP3    H2 7311   1.406   3.484   1.684 -1.5121  0.9285 -0.8943
 2452TIP3   OH2 7312   6.634   1.252   0.987  0.1318 -0.3948 -0.3201
 2452TIP3    H1 7313   6.603   1.171   1.029 -1.3828 -0.0735 -0.7520
 2452TIP3    H2 7314   6.617   1.320   1.052 -0.0641 -0.2069 -0.5697
 2453TIP3   OH2 7315   3.650   6.949   5.040  0.8583 -0.4763 -0.5515
 2453TIP3    H1 7316   3.729   6.996   5.012  1.7162 -0.1117  2.2306
 2453TIP3    H2 7317   3.679   6.893   5.111 -1.6027  0.9509  1.7774
 2454TIP3   OH2 7318   1.371   4.820   4.108 -0.7341  0.1033  0.0721
 2454TIP3    H1 7319   1.329   4.901   4.077 -2.1518 -0.1674  1.1810
 2454TIP3    H2 7320   1.426   4.848   4.181  1.8036  0.5832 -1.8714
 2455TIP3   OH2 7321   1.750   5.355   3.085 -0.0787  0.2165 -0.4291
 2455TIP3    H1 7322   1.818   5.403   3.132  0.1504  0.9654 -1.4869
 2455TIP3    H2 7323   1.684   5.421   3.064 -0.1524 -0.0978 -1.1994
 2456TIP3   OH2 7324   4.467   3.493   4.668 -0.2996  0.1550 -0.2461
 2456TIP3    H1 7325   4.436   3.406   4.693 -0.9062  0.9167  1.8536
 2456TIP3    H2 7326   4.560   3.481   4.652 -0.0834 -0.6308  1.4029
 2457TIP3   OH2 7327   4.347   1.252   3.549 -0.3626  0.2221  0.0036
 2457TIP3    H1 7328   4.314   1.313   3.483  2.3432  0.1983 -1.4827
 2457TIP3    H2 7329   4.345   1.167   3.506  2.5352  0.3671 -0.6239
 2458TIP3   OH2 7330   0.197   2.205   6.335 -0.2097 -0.1057  0.5940
 2458TIP3    H1 7331   0.282   2.174   6.303  0.2625 -0.1108  1.7898
 2458TIP3    H2 7332   0.187   2.163   6.420 -1.4537 -0.1545  0.4374
 2459TIP3   OH2 7333   5.469   0.892   0.801  0.2365  0.8171 -0.0271
 2459TIP3    H1 7334   5.420   0.934   0.872 -1.3665  0.3688 -0.8254
 2459TIP3    H2 7335   5.407   0.830   0.763  1.9496 -0.9618 -0.0802
 2460TIP3   OH2 7336   0.073   6.863   1.375  0.2604 -0.6365 -0.0703
 2460TIP3    H1 7337  -0.008   6.836   1.332 -1.8195  1.3453  2.2834
 2460TIP3    H2 7338   0.111   6.929   1.317  0.4201 -1.7983 -1.3361
 2461TIP3   OH2 7339   6.951   7.313   3.064 -0.5785  0.0416 -0.2983
 2461TIP3    H1 7340   6.906   7.237   3.025 -0.3347 -0.4794  0.4211
 2461TIP3    H2 7341   6.980   7.365   2.989 -1.1207 -0.3596 -0.7922
 2462TIP3   OH2 7342   7.432   6.811   3.707 -0.0462  0.5116 -0.0897
 2462TIP3    H1 7343   7.509   6.754   3.700 -0.5644 -0.1993 -0.0796
 2462TIP3    H2 7344   7.417   6.842   3.618 -0.8509 -0.8410 -0.4592
 2463TIP3   OH2 7345   4.241   5.088   5.677  0.0160 -0.0611 -0.1135
 2463TIP3    H1 7346   4.258   5.037   5.756 -0.9258  1.0210  0.8182
 2463TIP3    H2 7347   4.197   5.027   5.618 -1.3846 -0.2753  1.1014
 2464TIP3   OH2 7348   6.152   2.777   0.522  0.3128  0.1896 -0.1734
 2464TIP3    H1 7349   6.173   2.730   0.441 -0.4480 -2.2861  0.9605
 2464TIP3    H2 7350   6.087   2.842   0.497 -1.2679 -1.7305 -1.3306
 2465TIP3   OH2 7351   4.455   4.924   6.308 -0.2761 -0.0437  0.5462
 2465TIP3    H1 7352   4.475   4.997   6.366 -0.6738 -0.4052  1.1508
 2465TIP3    H2 7353   4.494   4.948   6.224 -0.4516  0.8884  0.7202
 2466TIP3   OH2 7354   5.366   7.814   0.886  0.0592  0.3291 -0.3813
 2466TIP3    H1 7355   5.396   7.725   0.904  1.7084  0.6122 -1.5841
 2466TIP3    H2 7356   5.414   7.841   0.808 -0.3184  2.3279  0.0209
 2467TIP3   OH2 7357   0.556   4.821   5.161 -0.2782 -0.6411  0.1386
 2467TIP3    H1 7358   0.634   4.767   5.170 -0.3796 -0.9454 -0.7223
 2467TIP3    H2 7359   0.587   4.902   5.122 -0.5060 -1.1027 -1.0448
 2468TIP3   OH2 7360   7.406   1.545   4.811  0.4731  0.2068  0.3636
 2468TIP3    H1 7361   7.405   1.640   4.826 -1.2491  0.1157  1.0625
 2468TIP3    H2 7362   7.393   1.535   4.717  0.2586  0.6726  0.3408
 2469TIP3   OH2 7363   4.350   2.280   5.564 -0.4819 -0.5787 -0.7397
 2469TIP3    H1 7364   4.260   2.261   5.590 -1.2016  3.2644  0.2488
 2469TIP3    H2 7365   4.343   2.310   5.474 -0.0415 -1.1194 -0.9559
 2470TIP3   OH2 7366   5.174   2.225   4.663  0.0516  0.2834 -0.0775
 2470TIP3    H1 7367   5.236   2.180   4.605  0.1801  0.1857  0.1345
 2470TIP3    H2 7368   5.228   2.260   4.733 -0.3425 -1.6485  1.2956
 2471TIP3   OH2 7369   5.599   7.838   5.198 -0.1317 -0.3243  0.3888
 2471TIP3    H1 7370   5.562   7.807   5.281  0.6756  0.5739  1.1101
 2471TIP3    H2 7371   5.587   7.765   5.138 -1.0896 -0.8502  1.1888
 2472TIP3   OH2 7372   3.700   5.743   0.194 -0.1127 -0.1963 -0.1535
 2472TIP3    H1 7373   3.700   5.649   0.173 -1.7805 -0.2890  0.1444
 2472TIP3    H2 7374   3.664   5.784   0.115  1.1887  0.2816 -0.5225
 2473TIP3   OH2 7375   5.051   3.134   2.983 -0.2054  0.0274  0.0584
 2473TIP3    H1 7376   5.127   3.140   3.041 -0.7222  0.1634  0.7252
 2473TIP3    H2 7377   5.071   3.059   2.926 -0.2852 -0.9763  1.3034
 2474TIP3   OH2 7378   4.720   1.498   6.431  0.5501  0.4395 -0.0401
 2474TIP3    H1 7379   4.793   1.461   6.381  0.2152 -0.1729 -0.0830
 2474TIP3    H2 7380   4.757   1.517   6.517  1.0111  1.0631 -0.3664
 2475TIP3   OH2 7381   7.817   5.964   0.618  0.3997  0.4435  0.2402
 2475TIP3    H1 7382   7.803   6.059   0.624 -0.2800  0.3602 -0.0012
 2475TIP3    H2 7383   7.730   5.926   0.624  0.5852 -0.1287 -0.5283
 2476TIP3   OH2 7384   7.947   0.559   5.856 -0.2510 -0.1662 -0.3275
 2476TIP3    H1 7385   7.875   0.538   5.796 -0.3936  1.4400 -0.7606
 2476TIP3    H2 7386   7.996   0.628   5.811  0.1702  0.4279  0.9894
 2477TIP3   OH2 7387   8.147   0.251   4.955  0.1100  0.4236 -0.6826
 2477TIP3    H1 7388   8.241   0.247   4.968  0.1660  1.9538 -0.3684
 2477TIP3    H2 7389   8.115   0.164   4.979  1.1345  0.6888  1.9793
 2478TIP3   OH2 7390   7.785   5.625   5.417 -0.0208  0.4120 -0.5036
 2478TIP3    H1 7391   7.866   5.625   5.469 -0.1611 -0.7185 -0.2696
 2478TIP3    H2 7392   7.750   5.537   5.427 -0.2257  0.2762 -2.2632
 2479TIP3   OH2 7393   5.984   5.929   4.894  0.6367 -0.1064 -0.0085
 2479TIP3    H1 7394   5.974   5.855   4.834  0.8960 -1.4857  1.5811
 2479TIP3    H2 7395   5.912   5.920   4.956  1.1851  0.4518  0.7334
 2480TIP3   OH2 7396   3.253   1.825   1.747 -0.0759 -0.0770  0.3500
 2480TIP3    H1 7397   3.172   1.777   1.732  0.2248 -0.4814  0.0139
 2480TIP3    H2 7398   3.306   1.768   1.802 -0.3721  0.5686  1.3380
 2481TIP3   OH2 7399   4.987   5.003   5.570  0.2488  0.1255  0.3344
 2481TIP3    H1 7400   4.915   5.058   5.537  0.3836  0.9388  1.3628
 2481TIP3    H2 7401   4.982   5.011   5.665  1.5285 -0.0329  0.4314
 2482TIP3   OH2 7402   0.436   1.537   4.511 -0.6676 -0.0534 -0.0189
 2482TIP3    H1 7403   0.523   1.527   4.472 -0.2880  1.0710  0.4899
 2482TIP3    H2 7404   0.447   1.609   4.574 -1.4562 -1.2896  1.5783
 2483TIP3   OH2 7405   1.184   5.437   4.649  0.3215  0.1311  0.1528
 2483TIP3    H1 7406   1.240   5.460   4.723 -1.9634  1.1149  1.7056
 2483TIP3    H2 7407   1.164   5.345   4.663 -1.4603  0.6984  1.8548
 2484TIP3   OH2 7408   0.738   4.400   2.712  0.2717  0.1099  0.2183
 2484TIP3    H1 7409   0.718   4.376   2.802  1.9059  0.4028  0.6875
 2484TIP3    H2 7410   0.677   4.471   2.692  1.0444  1.2584  1.7354
 2485TIP3   OH2 7411   4.610   5.569   0.643 -0.2713 -0.1229 -0.0981
 2485TIP3    H1 7412   4.651   5.491   0.680  0.7527 -0.3299 -1.5524
 2485TIP3    H2 7413   4.621   5.636   0.709 -0.9684 -1.1373  1.0920
 2486TIP3   OH2 7414   0.957   7.118   1.082 -0.1030  0.0928  0.7006
 2486TIP3    H1 7415   0.976   7.210   1.098  0.7202 -0.1364  1.0784
 2486TIP3    H2 7416   1.043   7.076   1.075 -0.4615 -0.5347 -0.1267
 2487TIP3   OH2 7417   1.605   1.920   0.682  0.8496 -0.1213 -0.6206
 2487TIP3    H1 7418   1.689   1.908   0.638  0.9836  1.5852 -0.9193
 2487TIP3    H2 7419   1.540   1.884   0.622  1.3171 -1.0341 -0.5905
 2488TIP3   OH2 7420   5.652   7.350   5.678 -0.0771  0.3050 -0.2983
 2488TIP3    H1 7421   5.679   7.441   5.667  1.3442 -0.0390  0.1156
 2488TIP3    H2 7422   5.563   7.347   5.643  0.6143  1.3827 -2.3617
 2489TIP3   OH2 7423   7.168   1.958   0.041 -0.1015 -0.1058 -0.2191
 2489TIP3    H1 7424   7.164   1.876  -0.007 -0.4647 -0.2491  0.0448
 2489TIP3    H2 7425   7.200   1.933   0.128  0.3388  0.1161 -0.3168
 2490TIP3   OH2 7426   1.173   5.266   5.745  0.2165 -0.4099 -0.2824
 2490TIP3    H1 7427   1.213   5.333   5.689  1.0371  0.3400  1.1216
 2490TIP3    H2 7428   1.151   5.195   5.686  0.9182  0.4039 -1.5721
 2491TIP3   OH2 7429   5.393   6.510   1.346  0.4236  0.5261  0.2045
 2491TIP3    H1 7430   5.486   6.509   1.370  0.8151  0.3456 -1.2405
 2491TIP3    H2 7431   5.364   6.420   1.358  0.9537  0.1472 -1.1847
 2492TIP3   OH2 7432   6.033   6.062   4.413  0.3490  0.4287 -0.2828
 2492TIP3    H1 7433   6.008   5.970   4.417 -0.0896  0.5005 -1.1884
 2492TIP3    H2 7434   5.957   6.107   4.377 -0.3480  1.5190  2.2874
 2493TIP3   OH2 7435   6.941   6.665   4.169  0.3922  0.5958 -0.8185
 2493TIP3    H1 7436   6.943   6.681   4.263 -0.2180 -0.4093 -0.6245
 2493TIP3    H2 7437   6.873   6.724   4.136 -0.3674 -0.0320 -0.4151
 2494TIP3   OH2 7438   6.290   2.254   3.217 -0.3688 -0.1879 -0.6476
 2494TIP3    H1 7439   6.322   2.325   3.273  0.7401  0.9808 -2.6789
 2494TIP3    H2 7440   6.217   2.217   3.266  0.7967  0.4703  1.7881
 2495TIP3   OH2 7441   7.648   7.405   0.237 -0.0668  0.2522 -0.5711
 2495TIP3    H1 7442   7.611   7.461   0.168  2.0292  1.3627 -0.8779
 2495TIP3    H2 7443   7.701   7.341   0.189 -0.8004 -0.7332 -0.0972
 2496TIP3   OH2 7444   1.998   0.331   4.465  0.5051 -0.3684 -0.2085
 2496TIP3    H1 7445   2.079   0.279   4.471 -1.3323 -3.3494  2.5555
 2496TIP3    H2 7446   1.985   0.365   4.553 -0.4874  1.4028 -0.9981
 2497TIP3   OH2 7447   0.004   7.031   0.470  0.0178  0.0823  0.1601
 2497TIP3    H1 7448   0.032   6.980   0.547 -1.6380  1.9739  2.1533
 2497TIP3    H2 7449   0.084   7.074   0.440  0.5429  0.0363  1.4137
 2498TIP3   OH2 7450   6.113   0.445   5.285 -0.3919  0.0895  0.4435
 2498TIP3    H1 7451   6.169   0.370   5.306  1.5970  0.9224 -1.4757
 2498TIP3    H2 7452   6.151   0.518   5.334  1.4020  1.0260 -2.1377
 2499TIP3   OH2 7453   8.016   4.431   2.818  0.0788 -0.2625 -0.2172
 2499TIP3    H1 7454   7.979   4.481   2.891  1.9735  0.9249 -0.0108
 2499TIP3    H2 7455   7.945   4.372   2.792 -0.9955 -0.0275  1.9097
 2500TIP3   OH2 7456   4.989   6.942   2.953 -0.4327  1.1248  0.0350
 2500TIP3    H1 7457   5.024   6.857   2.979  0.7761  1.7961  0.7109
 2500TIP3    H2 7458   4.894   6.932   2.959 -0.2831  0.3219  1.8769
 2501TIP3   OH2 7459   1.416   1.552   0.566  0.6775  0.3771 -0.0259
 2501TIP3    H1 7460   1.324   1.530   0.581  0.0870  1.6637 -1.5243
 2501TIP3    H2 7461   1.448   1.581   0.651 -0.4525  0.4291  0.3945
 2502TIP3   OH2 7462   6.727   2.924   0.010  0.1739  0.5805  0.4605
 2502TIP3    H1 7463   6.702   2.861  -0.057 -1.7454  0.1139  1.5593
 2502TIP3    H2 7464   6.755   2.871   0.084  0.8993  1.0760  0.5512
 2503TIP3   OH2 7465   5.828   5.045   1.188 -0.1085  0.0383 -0.0533
 2503TIP3    H1 7466   5.907   5.096   1.207 -0.5365  1.0647 -0.8730
 2503TIP3    H2 7467   5.856   4.954   1.191  0.8842  0.3494  0.6023
 2504TIP3   OH2 7468   1.830   5.065   2.323 -0.7914  0.4371 -0.4479
 2504TIP3    H1 7469   1.923   5.088   2.329 -0.4037 -0.5758 -2.0222
 2504TIP3    H2 7470   1.804   5.046   2.414  0.8809 -0.5001 -0.1212
 2505TIP3   OH2 7471   3.352   2.491   0.058  0.0683  0.8520 -0.3013
 2505TIP3    H1 7472   3.275   2.491   0.114 -0.0118  2.0467 -0.3826
 2505TIP3    H2 7473   3.407   2.421   0.093 -0.2834  1.1279  0.8392
 2506TIP3   OH2 7474   5.403   2.392   3.651 -0.2630  0.1966  0.2748
 2506TIP3    H1 7475   5.385   2.350   3.736 -2.3667 -1.0563 -0.6962
 2506TIP3    H2 7476   5.319   2.431   3.626  0.9770  2.8474 -0.0824
 2507TIP3   OH2 7477   7.417   4.527   2.193  0.3252  0.0949  0.3760
 2507TIP3    H1 7478   7.427   4.432   2.192  1.7712  0.1995  1.3850
 2507TIP3    H2 7479   7.461   4.557   2.114 -0.5675 -0.0936 -0.2026
 2508TIP3   OH2 7480   2.258   1.872   3.574 -0.2864 -0.6955 -0.2040
 2508TIP3    H1 7481   2.222   1.852   3.488  0.1538  0.5749 -0.7186
 2508TIP3    H2 7482   2.227   1.961   3.593  0.1453 -0.7147  0.6510
 2509TIP3   OH2 7483   5.155   5.201   2.331  0.2401  0.2671 -0.0519
 2509TIP3    H1 7484   5.139   5.257   2.255 -0.3227 -2.4894 -2.0914
 2509TIP3    H2 7485   5.068   5.182   2.365  0.1570 -1.5788 -1.1525
 2510TIP3   OH2 7486   6.423   5.177   1.282 -0.0827 -0.5194 -0.1244
 2510TIP3    H1 7487   6.343   5.138   1.317 -0.5133 -0.9993 -1.5499
 2510TIP3    H2 7488   6.443   5.249   1.341 -1.2342 -0.7634  0.5912
 2511TIP3   OH2 7489   7.239   5.164   0.126 -0.1615  0.2448 -0.1922
 2511TIP3    H1 7490   7.285   5.234   0.080 -0.0127  1.8410  2.1830
 2511TIP3    H2 7491   7.173   5.209   0.178 -0.2289 -1.4023  1.2505
 2512TIP3   OH2 7492   2.508   7.375   0.767 -0.1242 -0.1833  0.3153
 2512TIP3    H1 7493   2.602   7.365   0.782 -0.3765 -0.1167  2.1626
 2512TIP3    H2 7494   2.499   7.462   0.730  0.5267 -0.1741  0.1580
 2513TIP3   OH2 7495   4.386   6.887   6.656  0.0712 -0.1493 -0.2500
 2513TIP3    H1 7496   4.337   6.873   6.575  0.2335 -1.7845 -0.0841
 2513TIP3    H2 7497   4.476   6.900   6.627  0.0253 -0.0684 -0.3617
 2514TIP3   OH2 7498   3.866   4.076   3.704 -0.1856 -0.3907  0.1313
 2514TIP3    H1 7499   3.804   4.133   3.750  1.2368 -0.0726  1.7880
 2514TIP3    H2 7500   3.917   4.136   3.650  0.7575 -0.1545  1.2365
 2515TIP3   OH2 7501   7.416   0.066   5.401 -0.0266  0.6905 -0.1145
 2515TIP3    H1 7502   7.350   0.008   5.440 -0.7510  1.4966 -0.0994
 2515TIP3    H2 7503   7.389   0.154   5.429  1.5181  0.9873  0.5690
 2516TIP3   OH2 7504   0.639   2.580   1.543  0.0318 -0.4688 -0.3849
 2516TIP3    H1 7505   0.676   2.499   1.507 -1.4103 -1.9723  1.3154
 2516TIP3    H2 7506   0.579   2.611   1.475  2.8788  1.0567 -2.4323
 2517TIP3   OH2 7507   7.253   6.590   3.478  0.5005  0.0980 -0.0602
 2517TIP3    H1 7508   7.236   6.497   3.463  1.9686  0.0846 -2.0464
 2517TIP3    H2 7509   7.166   6.631   3.479 -0.0906 -1.0916 -0.7209
 2518TIP3   OH2 7510   0.847   1.445   0.503  0.0756 -0.1957  0.2636
 2518TIP3    H1 7511   0.830   1.517   0.563  0.8048 -0.3857  0.6989
 2518TIP3    H2 7512   0.810   1.368   0.546 -1.6994  0.0616 -0.6901
 2519TIP3   OH2 7513   1.010   6.881   4.667  0.3454  0.1317  0.4026
 2519TIP3    H1 7514   1.085   6.865   4.609 -0.8427 -2.4838 -0.6093
 2519TIP3    H2 7515   1.000   6.976   4.668  1.3287  0.3776 -2.5467
 2520TIP3   OH2 7516   0.273   4.817   5.120 -0.1189  0.3001 -0.1231
 2520TIP3    H1 7517   0.367   4.835   5.125 -0.0699  0.0176  0.0023
 2520TIP3    H2 7518   0.267   4.731   5.079 -0.4321  1.4460 -2.6970
 2521TIP3   OH2 7519   4.793   0.368   5.801 -0.2909  0.2407  0.1874
 2521TIP3    H1 7520   4.706   0.342   5.768 -0.6279 -0.2115  1.3737
 2521TIP3    H2 7521   4.776   0.443   5.857  0.2175  0.7298 -0.3018
 2522TIP3   OH2 7522   3.254   5.250   6.629  0.6508 -0.4185  0.3073
 2522TIP3    H1 7523   3.181   5.278   6.575  1.6797 -1.4201 -1.7023
 2522TIP3    H2 7524   3.222   5.173   6.676  0.0214 -0.0671  0.4546
 2523TIP3   OH2 7525   7.011   5.661   6.571  0.0984 -0.4571  0.3059
 2523TIP3    H1 7526   6.946   5.590   6.572 -1.7530  1.1715  0.9289
 2523TIP3    H2 7527   7.027   5.677   6.478 -1.9365  0.4312  0.0694
 2524TIP3   OH2 7528   1.118   4.200   3.824 -0.0513  0.5853 -0.5192
 2524TIP3    H1 7529   1.204   4.242   3.828 -0.3890  1.2659 -0.3771
 2524TIP3    H2 7530   1.136   4.113   3.788  0.8935  0.2075  0.7896
 2525TIP3   OH2 7531   4.947   7.121   2.220 -0.5055 -0.5097  0.5852
 2525TIP3    H1 7532   4.889   7.116   2.144  0.2055 -1.7974  0.1027
 2525TIP3    H2 7533   4.914   7.196   2.270  0.0531  1.4974 -1.8543
 2526TIP3   OH2 7534   0.284   3.921   3.100 -0.0367 -0.3132 -0.5014
 2526TIP3    H1 7535   0.337   3.849   3.064  1.4953  0.6401 -0.2492
 2526TIP3    H2 7536   0.252   3.968   3.023  0.0404 -0.5030 -0.6511
 2527TIP3   OH2 7537   0.620   7.561   1.494 -0.3751  0.4358  0.0514
 2527TIP3    H1 7538   0.646   7.630   1.555  2.4259  0.8333 -1.4393
 2527TIP3    H2 7539   0.635   7.479   1.540  0.4036  0.7573  0.3711
 2528TIP3   OH2 7540   4.591   5.618   0.994 -0.0534 -0.4088 -0.1554
 2528TIP3    H1 7541   4.679   5.605   0.957  0.2515 -0.0738  0.4277
 2528TIP3    H2 7542   4.582   5.713   1.000 -0.5184 -0.4393 -0.3542
 2529TIP3   OH2 7543   2.108   0.182   5.823 -0.1291 -0.3566 -0.3775
 2529TIP3    H1 7544   2.091   0.090   5.804 -0.2813 -0.6420  1.0187
 2529TIP3    H2 7545   2.100   0.189   5.919 -0.2520  1.1290 -0.4632
 2530TIP3   OH2 7546   0.925   1.096   5.523 -0.1040 -0.1849  0.0908
 2530TIP3    H1 7547   1.004   1.049   5.551  0.2381  0.7800  0.7846
 2530TIP3    H2 7548   0.880   1.034   5.466  1.7236 -0.3723 -1.2556
 2531TIP3   OH2 7549   2.352   1.187   3.583  0.1188 -0.3839  0.2461
 2531TIP3    H1 7550   2.276   1.182   3.641 -0.0526  0.0746  0.0648
 2531TIP3    H2 7551   2.406   1.112   3.608 -0.2357 -0.5263  0.5972
 2532TIP3   OH2 7552   5.852   5.946   0.636  0.1994 -0.0022 -0.4189
 2532TIP3    H1 7553   5.858   6.012   0.567 -1.1859  0.1144 -0.4575
 2532TIP3    H2 7554   5.912   5.976   0.704 -1.1322  1.8648  0.0076
 2533TIP3   OH2 7555   5.053   6.874   4.282  0.6839  0.0171 -0.4531
 2533TIP3    H1 7556   5.054   6.970   4.274 -2.6872  0.2463  0.3893
 2533TIP3    H2 7557   5.060   6.842   4.192  1.7637  1.0397 -0.7525
 2534TIP3   OH2 7558   8.306   4.813   1.214  0.2320 -0.1856 -0.6366
 2534TIP3    H1 7559   8.237   4.868   1.251 -0.2951 -0.7808 -0.7344
 2534TIP3    H2 7560   8.303   4.732   1.264  1.4952  0.1385 -0.0152
 2535TIP3   OH2 7561   5.787   6.875   4.958  0.6385 -0.1432  0.6022
 2535TIP3    H1 7562   5.800   6.821   4.880 -0.6250  0.3642  0.0057
 2535TIP3    H2 7563   5.874   6.909   4.979  1.1895 -1.1983  0.0964
 2536TIP3   OH2 7564   5.186   1.947   2.433 -0.2720  0.3248  0.0759
 2536TIP3    H1 7565   5.260   1.962   2.374 -0.4192 -0.2220 -0.2516
 2536TIP3    H2 7566   5.164   1.855   2.422 -0.8449  0.4197  0.3593
 2537TIP3   OH2 7567   5.071   0.132   1.852  0.1047 -0.3677  0.1885
 2537TIP3    H1 7568   5.032   0.101   1.770  0.2000 -0.9468  0.3636
 2537TIP3    H2 7569   5.107   0.218   1.829  1.3526 -1.0963 -0.7637
 2538TIP3   OH2 7570   2.462   2.380   5.102 -0.2245 -0.1169  0.1815
 2538TIP3    H1 7571   2.433   2.318   5.168 -1.4579 -1.2121 -1.2926
 2538TIP3    H2 7572   2.471   2.328   5.022 -0.7061  1.4774 -0.9712
 2539TIP3   OH2 7573   3.858   6.747   0.822 -0.1300  0.5307  0.6574
 2539TIP3    H1 7574   3.873   6.830   0.776 -2.3903  0.8111  0.2912
 2539TIP3    H2 7575   3.867   6.680   0.754 -0.7265  0.7001  0.4070
 2540TIP3   OH2 7576   7.767   1.170   3.672 -0.1857 -0.3817  0.1016
 2540TIP3    H1 7577   7.748   1.081   3.701  1.4708 -0.2541  1.8014
 2540TIP3    H2 7578   7.706   1.225   3.722  0.6345 -0.3978  1.1680
 2541TIP3   OH2 7579   2.288   1.115   6.353 -0.0224  0.1437 -0.1514
 2541TIP3    H1 7580   2.368   1.114   6.301 -0.1602  0.3025 -0.3678
 2541TIP3    H2 7581   2.250   1.202   6.338 -1.1606 -0.5463 -1.4713
 2542TIP3   OH2 7582   4.380   0.078   0.721  0.2056  0.3979 -0.3227
 2542TIP3    H1 7583   4.293   0.095   0.685 -1.6010 -1.0636  2.9884
 2542TIP3    H2 7584   4.392  -0.016   0.710  0.6689  0.3398  0.6699
 2543TIP3   OH2 7585   6.098   2.841   6.391 -0.0966  0.4134  0.6913
 2543TIP3    H1 7586   6.045   2.817   6.315  1.5743 -0.8676 -0.1106
 2543TIP3    H2 7587   6.065   2.928   6.416 -0.8769  0.7542 -1.3167
 2544TIP3   OH2 7588   8.125   5.796   3.229  0.5238 -0.0010 -0.3010
 2544TIP3    H1 7589   8.068   5.863   3.191  1.7162  0.6578 -0.9711
 2544TIP3    H2 7590   8.199   5.845   3.264  0.7916 -0.8663  0.3743
 2545TIP3   OH2 7591   8.137   6.081   6.655 -0.1904 -0.0403 -0.5720
 2545TIP3    H1 7592   8.101   6.166   6.626 -1.2128 -0.2633 -0.0171
 2545TIP3    H2 7593   8.061   6.023   6.659  0.3853 -0.7875 -0.2342
 2546TIP3   OH2 7594   7.655   4.596   1.716 -0.0345  0.3497 -0.5052
 2546TIP3    H1 7595   7.671   4.554   1.631  1.2376 -0.8356  0.2823
 2546TIP3    H2 7596   7.732   4.651   1.730  1.2233 -1.6569  1.1169
 2547TIP3   OH2 7597   2.755   6.019   3.244 -0.1487 -0.3453 -0.2445
 2547TIP3    H1 7598   2.808   5.939   3.243  0.6191  0.1633 -0.2730
 2547TIP3    H2 7599   2.682   5.999   3.185  0.6896 -0.5897 -1.2267
 2548TIP3   OH2 7600   2.829   0.134   4.664  0.1798  0.3541  0.0063
 2548TIP3    H1 7601   2.796   0.067   4.723 -1.0564  0.8423 -0.1038
 2548TIP3    H2 7602   2.764   0.204   4.668  1.9512  2.0360  0.9247
 2549TIP3   OH2 7603   6.648   6.217   4.655  0.1534 -0.1347  0.1898
 2549TIP3    H1 7604   6.663   6.138   4.604 -0.1288 -1.4333  2.0364
 2549TIP3    H2 7605   6.571   6.258   4.614  0.0648 -0.9981 -0.5383
 2550TIP3   OH2 7606   3.564   4.634   0.705 -0.4835 -0.4627 -0.3572
 2550TIP3    H1 7607   3.503   4.561   0.710 -0.2822 -0.5555  1.4396
 2550TIP3    H2 7608   3.511   4.712   0.720 -0.4521 -0.3731 -0.6997
 2551TIP3   OH2 7609   6.007   0.893   4.347  0.0510  0.0074 -0.4636
 2551TIP3    H1 7610   5.953   0.864   4.420  0.3687  1.1805  0.2751
 2551TIP3    H2 7611   5.975   0.844   4.272 -1.6358  0.2349  0.0748
 2552TIP3   OH2 7612   5.560   4.400   0.180 -0.2045 -0.3855  0.2552
 2552TIP3    H1 7613   5.606   4.406   0.264  1.0178 -1.5878 -0.2996
 2552TIP3    H2 7614   5.624   4.430   0.116 -0.6664 -0.7746 -0.3921
 2553TIP3   OH2 7615   7.158   3.520   5.160 -0.0169 -0.6210 -0.2282
 2553TIP3    H1 7616   7.129   3.447   5.106  0.1686 -0.1289 -1.0316
 2553TIP3    H2 7617   7.254   3.516   5.156  0.0858 -1.9344  1.9782
 2554TIP3   OH2 7618   0.047   4.537   4.494  0.0511  0.2145 -0.3762
 2554TIP3    H1 7619   0.081   4.452   4.522 -0.3375  0.0160 -0.4977
 2554TIP3    H2 7620  -0.040   4.518   4.461 -0.1925  0.7256 -0.0360
 2555TIP3   OH2 7621   4.552   4.135   3.576 -0.3489 -0.3757  0.1022
 2555TIP3    H1 7622   4.474   4.090   3.543 -1.0875  0.5837  0.5032
 2555TIP3    H2 7623   4.590   4.073   3.638 -1.7560 -0.1884  1.1964
 2556TIP3   OH2 7624   5.582   3.103   4.533 -0.4631  0.2651  0.0126
 2556TIP3    H1 7625   5.677   3.096   4.518 -0.4000  1.8930 -0.5819
 2556TIP3    H2 7626   5.572   3.103   4.628  0.1520  0.2589  0.0796
 2557TIP3   OH2 7627   3.960   0.421   2.686  0.0620  0.2548 -0.3262
 2557TIP3    H1 7628   3.995   0.508   2.705  0.0358 -0.1833  1.9677
 2557TIP3    H2 7629   3.865   0.434   2.682  0.0239  0.2764  0.4715
 2558TIP3   OH2 7630   1.005   0.372   0.630  0.0090 -0.0554 -0.4105
 2558TIP3    H1 7631   0.960   0.418   0.701 -0.7460 -1.1827 -0.1368
 2558TIP3    H2 7632   0.951   0.390   0.553  1.0253  1.4689 -0.8085
 2559TIP3   OH2 7633   2.521   1.604   2.453 -0.1960  0.1771  0.3421
 2559TIP3    H1 7634   2.483   1.688   2.476 -0.2738  0.0286  0.7720
 2559TIP3    H2 7635   2.448   1.542   2.458 -0.0973  0.0517  0.2341
 2560TIP3   OH2 7636   7.485   2.043   1.510 -0.1305 -0.5808 -0.2912
 2560TIP3    H1 7637   7.488   2.022   1.417  0.3723 -0.5821 -0.2780
 2560TIP3    H2 7638   7.392   2.044   1.532 -0.2488 -0.5943 -0.7900
 2561TIP3   OH2 7639   6.133   2.790   5.465 -0.3633  0.3130 -0.0414
 2561TIP3    H1 7640   6.197   2.860   5.481 -0.4332  0.4178 -0.2249
 2561TIP3    H2 7641   6.059   2.834   5.424 -0.5016  0.1683  0.0512
 2562TIP3   OH2 7642   3.074   2.469   4.175  0.1646  0.4890 -0.6240
 2562TIP3    H1 7643   3.142   2.447   4.111  0.5450 -0.3920  0.0576
 2562TIP3    H2 7644   3.121   2.515   4.244  0.1844 -0.5717  0.0953
 2563TIP3   OH2 7645   6.553   5.907   6.062  0.0259 -0.0193 -0.3405
 2563TIP3    H1 7646   6.503   5.948   6.133  0.2315 -0.3665  0.0123
 2563TIP3    H2 7647   6.642   5.900   6.098  0.1772 -0.0206 -0.7105
 2564TIP3   OH2 7648   2.200   7.096   2.934 -0.3508 -0.6563 -0.2198
 2564TIP3    H1 7649   2.270   7.146   2.974 -0.4646 -0.5989 -0.0889
 2564TIP3    H2 7650   2.187   7.022   2.994 -0.3572 -0.7024 -0.2777
 2565TIP3   OH2 7651   7.478   1.477   2.931 -0.3078  0.1199  0.2276
 2565TIP3    H1 7652   7.413   1.534   2.890 -1.3418 -0.1259  1.4821
 2565TIP3    H2 7653   7.464   1.488   3.025  2.9149  1.7829  0.6906
 2566TIP3   OH2 7654   1.114   3.493   4.477 -0.4028  0.2682  0.1902
 2566TIP3    H1 7655   1.169   3.439   4.534 -0.2573  0.7247  0.4952
 2566TIP3    H2 7656   1.036   3.441   4.461  0.1089 -0.3761 -0.2175
 2567TIP3   OH2 7657   2.771   5.169   2.539 -0.0993 -0.0461  0.1176
 2567TIP3    H1 7658   2.862   5.180   2.510 -0.5073 -0.4664 -1.4116
 2567TIP3    H2 7659   2.743   5.088   2.497 -0.8354 -0.5679  1.5367
 2568TIP3   OH2 7660   7.808   5.587   2.386  0.0016 -0.7564 -0.6286
 2568TIP3    H1 7661   7.772   5.535   2.458 -1.1809  1.6934  0.6832
 2568TIP3    H2 7662   7.732   5.608   2.331  0.3185  0.1532 -0.7376
 2569TIP3   OH2 7663   4.565   0.013   3.050 -0.1973 -0.0706  0.5870
 2569TIP3    H1 7664   4.654   0.009   3.082 -0.3592 -1.4508  0.9236
 2569TIP3    H2 7665   4.533   0.099   3.078  1.6435  1.3463 -1.3205
 2570TIP3   OH2 7666   4.365   3.301   2.581  0.2093 -0.0641  0.6311
 2570TIP3    H1 7667   4.354   3.207   2.571  1.8298 -0.4653  2.1721
 2570TIP3    H2 7668   4.451   3.320   2.544 -1.0120  1.2477 -1.7623
 2571TIP3   OH2 7669   2.497   0.667   2.639 -0.3451 -0.3038  0.1240
 2571TIP3    H1 7670   2.468   0.606   2.708  1.0669  0.1895  1.2236
 2571TIP3    H2 7671   2.578   0.628   2.606 -0.5703 -0.1015 -0.6890
 2572TIP3   OH2 7672   6.729   0.641   4.255 -0.4124 -0.0547 -0.0699
 2572TIP3    H1 7673   6.699   0.708   4.316 -0.8727 -1.6190  1.5150
 2572TIP3    H2 7674   6.825   0.647   4.259 -0.4362 -0.0078  0.6876
 2573TIP3   OH2 7675   4.969   0.979   5.843 -0.2425  0.4206 -0.3128
 2573TIP3    H1 7676   4.914   0.918   5.794 -0.6557  0.4889  0.0529
 2573TIP3    H2 7677   4.910   1.015   5.910  0.5659 -0.4071  0.8747
 2574TIP3   OH2 7678   0.083   1.951   3.493 -0.1415 -0.1072  0.5901
 2574TIP3    H1 7679   0.159   1.893   3.497  1.4092  1.6805 -0.9508
 2574TIP3    H2 7680   0.089   2.005   3.571  0.2164  0.0703  0.4421
 2575TIP3   OH2 7681   4.247   3.543   3.995 -0.1945 -0.3953  0.2372
 2575TIP3    H1 7682   4.273   3.569   3.906  0.0321  1.4023  0.7858
 2575TIP3    H2 7683   4.308   3.473   4.017  1.8185  1.2025  0.0781
 2576TIP3   OH2 7684   4.873   1.908   0.404  0.1033  0.0079 -0.4439
 2576TIP3    H1 7685   4.820   1.879   0.330 -1.5172 -0.3254  0.7799
 2576TIP3    H2 7686   4.926   1.832   0.427  0.7263  0.1612 -1.3312
 2577TIP3   OH2 7687   2.366   7.370   3.266  0.2900  0.1508  0.1538
 2577TIP3    H1 7688   2.435   7.330   3.319  0.3350  0.6977  0.5247
 2577TIP3    H2 7689   2.351   7.308   3.195 -0.5472 -1.1437  1.3999
 2578TIP3   OH2 7690   7.539   3.478   4.163  0.3237  0.6266 -0.3762
 2578TIP3    H1 7691   7.622   3.431   4.157  0.2815  0.4014  0.5734
 2578TIP3    H2 7692   7.562   3.564   4.199  0.0433  0.1486  1.0487
 2579TIP3   OH2 7693   0.326   7.635   1.055  0.8615  0.0739 -0.3478
 2579TIP3    H1 7694   0.361   7.722   1.034  2.3451 -0.5283 -0.5341
 2579TIP3    H2 7695   0.368   7.612   1.138  0.2448 -0.3380 -0.1476
 2580TIP3   OH2 7696   2.262   2.835   2.041  0.4496  0.1511  0.6369
 2580TIP3    H1 7697   2.313   2.829   1.960 -1.7495  1.3390 -0.9383
 2580TIP3    H2 7698   2.304   2.772   2.100  2.3450 -0.5197 -1.2827
 2581TIP3   OH2 7699   3.503   7.816   1.755 -0.7538  0.0320  0.9635
 2581TIP3    H1 7700   3.545   7.773   1.680  0.1943  2.9934 -0.3513
 2581TIP3    H2 7701   3.414   7.835   1.725 -0.3996  1.1447  0.5601
 2582TIP3   OH2 7702   0.451   6.106   5.421  0.2417 -1.2148  0.1184
 2582TIP3    H1 7703   0.360   6.077   5.419  0.2171 -1.0875 -0.6862
 2582TIP3    H2 7704   0.498   6.043   5.367  0.8827 -2.0813  1.6248
 2583TIP3   OH2 7705   4.818   6.339   6.555 -0.3833  0.1860  0.4651
 2583TIP3    H1 7706   4.734   6.381   6.571 -1.4309 -1.0566 -1.3436
 2583TIP3    H2 7707   4.879   6.382   6.615 -1.8250  2.6791  0.2808
 2584TIP3   OH2 7708   4.849   4.117   1.737 -0.2875  0.0864 -0.6404
 2584TIP3    H1 7709   4.790   4.127   1.662  0.4225  1.1965 -1.0815
 2584TIP3    H2 7710   4.913   4.051   1.709  1.2855  2.0418 -1.9327
 2585TIP3   OH2 7711   3.105   3.766   5.251 -0.1541  0.2053 -0.1918
 2585TIP3    H1 7712   3.124   3.850   5.210 -1.7730  0.5869 -0.2325
 2585TIP3    H2 7713   3.047   3.721   5.189 -0.2553 -0.4437  0.3586
 2586TIP3   OH2 7714   1.837   6.510   4.922  0.4067 -0.0325  0.1097
 2586TIP3    H1 7715   1.762   6.565   4.944  0.7734  0.3509  0.4296
 2586TIP3    H2 7716   1.913   6.562   4.950  0.7554 -0.7781  0.5622
 2587TIP3   OH2 7717   3.725   1.411   0.282  0.0060  0.5062  0.0373
 2587TIP3    H1 7718   3.772   1.440   0.360 -0.6031  2.5846 -0.3031
 2587TIP3    H2 7719   3.791   1.413   0.212  0.0776  0.5868  0.1077
 2588TIP3   OH2 7720   2.527   4.979   2.700 -0.4861  0.2207  0.3643
 2588TIP3    H1 7721   2.458   4.970   2.766 -0.4956 -0.0544  0.3192
 2588TIP3    H2 7722   2.587   5.045   2.736  0.1611 -0.7988  1.2214
 2589TIP3   OH2 7723   7.071   4.617   0.770 -0.1706 -0.5690 -0.2558
 2589TIP3    H1 7724   6.985   4.602   0.732 -0.2334 -2.2877  0.4708
 2589TIP3    H2 7725   7.055   4.622   0.865  0.3806  0.3878 -0.1981
 2590TIP3   OH2 7726   1.143   0.707   0.998 -0.1243 -0.3299 -0.5081
 2590TIP3    H1 7727   1.103   0.710   0.911 -0.9010 -1.7899 -0.2286
 2590TIP3    H2 7728   1.118   0.622   1.033 -0.5038  0.5458  1.4894
 2591TIP3   OH2 7729   7.563   4.885   6.359 -0.3425 -0.0556  0.3914
 2591TIP3    H1 7730   7.540   4.961   6.412 -1.9360 -0.6177  0.5681
 2591TIP3    H2 7731   7.478   4.846   6.335  0.4220 -1.8012  0.3627
 2592TIP3   OH2 7732   4.833   5.575   2.741  0.1653  0.3585  0.1247
 2592TIP3    H1 7733   4.888   5.566   2.819  0.6037 -2.4170 -0.4064
 2592TIP3    H2 7734   4.895   5.576   2.668 -0.2918  2.0892 -0.2950
 2593TIP3   OH2 7735   5.908   0.675   2.307 -0.6529 -0.3802 -0.1906
 2593TIP3    H1 7736   5.916   0.706   2.397  1.5288 -0.7963 -0.1834
 2593TIP3    H2 7737   5.960   0.595   2.304 -0.7635 -0.4313 -1.7857
 2594TIP3   OH2 7738   7.957   7.203   2.084 -0.2550  0.0867  0.0935
 2594TIP3    H1 7739   7.898   7.243   2.020 -1.1712  1.2934  1.6155
 2594TIP3    H2 7740   7.970   7.114   2.053 -0.5954  0.6588 -1.7985
 2595TIP3   OH2 7741   2.577   0.830   4.423  0.3209  0.2328 -0.0102
 2595TIP3    H1 7742   2.489   0.820   4.387  0.6851  0.8553 -1.1312
 2595TIP3    H2 7743   2.565   0.823   4.518 -0.6746 -1.4336 -0.2219
 2596TIP3   OH2 7744   5.783   1.750   6.537 -0.3000 -0.1990 -0.1219
 2596TIP3    H1 7745   5.729   1.672   6.530  1.4018 -1.3284 -1.7028
 2596TIP3    H2 7746   5.857   1.734   6.479  1.0429  1.8450  0.8639
 2597TIP3   OH2 7747   1.314   2.645   0.036  0.0440 -0.0759 -0.7294
 2597TIP3    H1 7748   1.392   2.646  -0.018  1.2977  1.5261  0.9878
 2597TIP3    H2 7749   1.345   2.619   0.123 -0.9944  2.1229  0.3839
 2598TIP3   OH2 7750   7.887   5.225   3.654 -0.4361 -0.1565  0.1197
 2598TIP3    H1 7751   7.836   5.306   3.657  4.2408  3.1104  0.6754
 2598TIP3    H2 7752   7.917   5.211   3.743  2.2885  0.0581 -0.6751
 2599TIP3   OH2 7753   1.790   1.053   5.069  0.4878  0.6245  0.1822
 2599TIP3    H1 7754   1.798   0.962   5.040 -1.2653  0.3658  0.4025
 2599TIP3    H2 7755   1.718   1.089   5.017 -0.3027  1.2266  1.6150
 2600TIP3   OH2 7756   0.812   1.749   4.830 -0.6624 -0.2542 -0.0927
 2600TIP3    H1 7757   0.782   1.763   4.919 -0.1045  0.4616 -0.0076
 2600TIP3    H2 7758   0.855   1.831   4.805  0.6372 -0.9905 -0.4310
 2601TIP3   OH2 7759   2.203   3.182   2.665 -0.0686  0.3921  0.1300
 2601TIP3    H1 7760   2.131   3.118   2.664 -0.4373  0.8075 -0.0371
 2601TIP3    H2 7761   2.277   3.135   2.626 -0.6946  0.4743 -1.1975
 2602TIP3   OH2 7762   4.356   3.270   1.048  0.5451 -0.1036  0.5990
 2602TIP3    H1 7763   4.288   3.337   1.060  0.0513 -0.7173  1.3491
 2602TIP3    H2 7764   4.356   3.221   1.130  0.1019 -1.7394 -0.3255
 2603TIP3   OH2 7765   3.468   0.466   5.896  0.3660  0.2228  0.2403
 2603TIP3    H1 7766   3.522   0.485   5.820  0.2785 -0.3001  0.0458
 2603TIP3    H2 7767   3.529   0.465   5.970  0.7728 -1.2221 -0.0891
 2604TIP3   OH2 7768   4.805   0.930   2.990  0.2708 -0.1218  0.5892
 2604TIP3    H1 7769   4.841   0.876   2.919  0.2057  0.5474  0.0310
 2604TIP3    H2 7770   4.876   0.990   3.011 -0.1619  0.5603  0.1584
 2605TIP3   OH2 7771   6.970   0.504   2.229  0.2647 -0.0040 -0.1441
 2605TIP3    H1 7772   7.016   0.503   2.313 -0.9683 -1.2524  0.5609
 2605TIP3    H2 7773   7.007   0.430   2.180  2.1785  1.7010 -1.4496
 2606TIP3   OH2 7774   3.215   0.456   2.167 -0.5953 -0.3227  0.0302
 2606TIP3    H1 7775   3.225   0.465   2.072 -0.9883  1.4140  0.1348
 2606TIP3    H2 7776   3.126   0.485   2.184 -0.3745 -0.2055  0.9935
 2607TIP3   OH2 7777   1.390   5.497   2.150 -1.1084  0.1676  0.3845
 2607TIP3    H1 7778   1.423   5.443   2.078 -1.8281 -0.7457  0.7199
 2607TIP3    H2 7779   1.468   5.520   2.201 -0.2421  2.7241 -1.8751
 2608TIP3   OH2 7780   0.278   1.250   1.007 -0.6811  0.4615 -0.3166
 2608TIP3    H1 7781   0.208   1.233   0.944 -1.2171  0.6493  0.2169
 2608TIP3    H2 7782   0.343   1.300   0.958  1.3450 -3.5692 -2.2104
 2609TIP3   OH2 7783   8.245   4.510   6.088 -0.2388  0.1051 -0.5032
 2609TIP3    H1 7784   8.311   4.552   6.143 -0.8087 -1.1678  1.2322
 2609TIP3    H2 7785   8.269   4.417   6.090 -1.3265 -0.1985 -0.9470
 2610TIP3   OH2 7786   8.169   3.285   3.363 -0.4540  0.5799 -0.3776
 2610TIP3    H1 7787   8.198   3.218   3.301 -1.4846 -0.6944  0.4609
 2610TIP3    H2 7788   8.200   3.254   3.448 -2.5982  0.1167  0.2918
 2611TIP3   OH2 7789   5.986   3.561   0.023 -0.0821  0.3662  0.0512
 2611TIP3    H1 7790   6.007   3.564  -0.070 -1.4648 -0.4700 -0.3150
 2611TIP3    H2 7791   6.064   3.525   0.065  0.3013  0.1076 -0.8730
 2612TIP3   OH2 7792   3.350   2.256   2.802  0.1931  0.1924 -0.0385
 2612TIP3    H1 7793   3.261   2.268   2.771 -0.1371 -0.8560  0.4404
 2612TIP3    H2 7794   3.368   2.333   2.855 -1.0901 -0.3814  1.3093
 2613TIP3   OH2 7795   5.135   0.598   0.123 -0.0730 -0.7364  0.7904
 2613TIP3    H1 7796   5.085   0.568   0.198 -0.3639  0.1475  0.9553
 2613TIP3    H2 7797   5.169   0.518   0.083 -1.0664 -1.3031  1.0571
 2614TIP3   OH2 7798   3.659   3.585   5.731 -0.0933 -0.1791 -0.3450
 2614TIP3    H1 7799   3.642   3.531   5.808 -1.1855  0.0314 -0.4209
 2614TIP3    H2 7800   3.695   3.524   5.667 -0.4857 -0.6449 -0.1301
 2615TIP3   OH2 7801   7.378   0.670   1.975 -0.3059 -0.0756 -0.1461
 2615TIP3    H1 7802   7.459   0.623   1.958 -0.5069  0.2931 -2.4510
 2615TIP3    H2 7803   7.309   0.604   1.967 -0.3138 -0.3394  1.5789
 2616TIP3   OH2 7804   7.194   1.843   2.423 -0.1531 -0.0323 -0.4470
 2616TIP3    H1 7805   7.278   1.864   2.462 -0.6196 -0.3583  0.7838
 2616TIP3    H2 7806   7.188   1.900   2.347  0.1201  1.7945  0.8372
 2617TIP3   OH2 7807   7.785   6.529   4.535  0.2348 -0.2888  0.2507
 2617TIP3    H1 7808   7.711   6.568   4.487  0.5106 -0.1602 -0.0744
 2617TIP3    H2 7809   7.800   6.588   4.608 -0.1180 -0.4255  0.4371
 2618TIP3   OH2 7810   2.370   1.786   6.021 -0.6431  1.0885 -0.3834
 2618TIP3    H1 7811   2.443   1.847   6.031  0.5704 -0.1642 -1.1174
 2618TIP3    H2 7812   2.354   1.782   5.926 -0.8614  0.4769 -0.3296
 2619TIP3   OH2 7813   1.841   0.517   2.329 -0.0048  0.2782 -0.0613
 2619TIP3    H1 7814   1.913   0.509   2.392  0.0291  0.7373 -0.0400
 2619TIP3    H2 7815   1.797   0.432   2.333 -0.4425  0.5420  1.1179
 2620TIP3   OH2 7816   5.879   0.172   6.182 -0.8320 -0.2230  0.6430
 2620TIP3    H1 7817   5.868   0.180   6.087 -1.2194 -1.3864  0.5695
 2620TIP3    H2 7818   5.936   0.245   6.206 -0.6295  0.0183 -0.5026
 2621TIP3   OH2 7819   3.323   4.012   2.974  0.3589  0.6416 -0.0529
 2621TIP3    H1 7820   3.283   4.090   2.937  0.2775  1.0680  0.9127
 2621TIP3    H2 7821   3.263   3.984   3.043  1.0364  0.4995  0.4900
 2622TIP3   OH2 7822   2.912   2.748   4.810  0.2400 -0.7867 -0.1912
 2622TIP3    H1 7823   2.993   2.796   4.826 -0.0867  0.1004 -1.0546
 2622TIP3    H2 7824   2.916   2.672   4.868  0.5086  0.5786  1.6472
 2623TIP3   OH2 7825   7.020   3.327   0.784  0.5043  0.6850 -0.0401
 2623TIP3    H1 7826   7.114   3.339   0.771  0.5129  0.4369 -0.2103
 2623TIP3    H2 7827   6.982   3.341   0.697  0.7582 -3.0464 -0.9016
 2624TIP3   OH2 7828   2.084   3.779   3.633 -0.1763 -0.2131  0.0083
 2624TIP3    H1 7829   2.161   3.730   3.663  0.4321  0.9627  0.4431
 2624TIP3    H2 7830   2.011   3.719   3.647  0.6161 -1.2698 -0.1791
 2625TIP3   OH2 7831   4.106   4.419   0.483  0.0170 -0.5482 -0.2512
 2625TIP3    H1 7832   4.140   4.331   0.500 -0.7977 -1.6055 -3.3437
 2625TIP3    H2 7833   4.061   4.444   0.564  1.6237 -2.2715  1.2615
 2626TIP3   OH2 7834   6.296   3.130   4.455  0.7144 -0.0140  0.3398
 2626TIP3    H1 7835   6.326   3.057   4.401  0.1571 -0.0814  0.1131
 2626TIP3    H2 7836   6.365   3.142   4.520  0.4255 -1.2710  0.8908
 2627TIP3   OH2 7837   2.665   6.170   2.679 -0.1764 -0.1566  0.2533
 2627TIP3    H1 7838   2.589   6.133   2.634 -1.3730  1.7511  0.5533
 2627TIP3    H2 7839   2.639   6.175   2.771 -0.1219  1.4473  0.2074
 2628TIP3   OH2 7840   6.311   6.724   0.563 -0.3044 -0.0454 -0.1899
 2628TIP3    H1 7841   6.230   6.690   0.602  0.9870 -0.6190  2.1777
 2628TIP3    H2 7842   6.348   6.650   0.515 -1.7537  0.5804 -2.4156
 2629TIP3   OH2 7843   3.753   3.134   2.289 -0.3802 -0.4963 -0.4588
 2629TIP3    H1 7844   3.848   3.128   2.299 -0.1099  2.2147 -0.6865
 2629TIP3    H2 7845   3.738   3.127   2.195 -0.0966  1.4292 -0.6951
 2630TIP3   OH2 7846   0.765   2.117   1.974 -0.7087 -0.5583 -0.0103
 2630TIP3    H1 7847   0.848   2.161   1.993 -0.9628 -0.8758  2.0446
 2630TIP3    H2 7848   0.791   2.036   1.930 -0.1214  0.5603 -1.8532
 2631TIP3   OH2 7849   6.441   7.342   3.961  0.0314  0.0730  0.4626
 2631TIP3    H1 7850   6.382   7.417   3.954  0.1943  0.3210  1.5814
 2631TIP3    H2 7851   6.520   7.378   4.002  0.9017 -0.2986 -0.8193
 2632TIP3   OH2 7852   3.269   3.780   0.401  0.0704  0.6824  0.3748
 2632TIP3    H1 7853   3.326   3.813   0.471 -1.5162  1.9787  1.1021
 2632TIP3    H2 7854   3.281   3.685   0.404 -1.0711  0.5254  3.4654
 2633TIP3   OH2 7855   4.045   0.659   6.120  0.5927  0.0141 -0.4262
 2633TIP3    H1 7856   4.000   0.575   6.130  1.3034 -0.3942 -0.6132
 2633TIP3    H2 7857   4.121   0.653   6.177  0.6602  0.5253 -0.4558
 2634TIP3   OH2 7858   7.865   2.452   1.775  0.1612  0.2776  0.2525
 2634TIP3    H1 7859   7.834   2.541   1.791 -0.4233  0.4812 -1.7607
 2634TIP3    H2 7860   7.787   2.404   1.746  0.8744 -0.3306 -0.7338
 2635TIP3   OH2 7861   5.294   4.221   1.092 -0.1682 -0.0890 -0.1749
 2635TIP3    H1 7862   5.233   4.148   1.098  0.4665 -0.8319 -2.0178
 2635TIP3    H2 7863   5.367   4.197   1.149 -1.4433  0.7210  1.8977
 2636TIP3   OH2 7864   6.180   0.845   1.150  0.5197 -0.3472 -0.6034
 2636TIP3    H1 7865   6.178   0.865   1.056  0.2951  0.1258 -0.4983
 2636TIP3    H2 7866   6.101   0.884   1.185  1.8661  1.7791  0.2364
 2637TIP3   OH2 7867   3.984   2.274   5.097  0.1094 -0.0852  0.5242
 2637TIP3    H1 7868   3.954   2.281   5.007  0.2410 -1.8518  0.3145
 2637TIP3    H2 7869   4.038   2.352   5.110 -3.1896  2.4083  0.4419
 2638TIP3   OH2 7870   1.030   0.857   2.173  0.1730 -0.3579  0.3532
 2638TIP3    H1 7871   0.995   0.942   2.200  0.1205 -0.5033  0.7501
 2638TIP3    H2 7872   0.982   0.793   2.227 -1.3167 -0.7990 -1.4022
 2639TIP3   OH2 7873   6.002   4.331   3.010  0.3423 -0.0801  0.9209
 2639TIP3    H1 7874   6.071   4.397   3.018  1.1798 -0.8650  0.3340
 2639TIP3    H2 7875   6.004   4.305   2.918 -0.6336 -0.2273  0.9331
 2640TIP3   OH2 7876   7.369   3.011   4.124  0.7088  0.2548  0.1717
 2640TIP3    H1 7877   7.371   3.070   4.200  2.3288 -0.0936  0.4275
 2640TIP3    H2 7878   7.298   2.950   4.143  0.2124  0.9971  0.7630
 2641TIP3   OH2 7879   3.035   2.644   2.585 -0.4194 -0.8464 -0.1774
 2641TIP3    H1 7880   2.984   2.725   2.595  1.6764  0.4022  1.3160
 2641TIP3    H2 7881   3.092   2.661   2.510  0.9827 -0.2984  0.9503
 2642TIP3   OH2 7882   4.088   5.690   1.190  0.0808  0.2707 -0.4164
 2642TIP3    H1 7883   4.172   5.731   1.169  1.1121 -1.6626 -0.2062
 2642TIP3    H2 7884   4.080   5.700   1.285 -0.2021  0.8946 -0.4952
 2643TIP3   OH2 7885   2.984   2.300   4.869  0.1788 -0.6268  0.4960
 2643TIP3    H1 7886   2.962   2.224   4.923  0.5080 -1.3044 -0.2950
 2643TIP3    H2 7887   3.036   2.356   4.926  3.0060 -2.6434  0.1325
 2644TIP3   OH2 7888   2.001   7.598   2.500 -0.4275 -0.6764 -0.1699
 2644TIP3    H1 7889   1.908   7.617   2.486 -0.0842  1.9803  0.5941
 2644TIP3    H2 7890   2.047   7.655   2.438  0.7486 -3.5516 -2.1518
 2645TIP3   OH2 7891   4.932   7.344   1.769  0.1062  0.2842 -0.1850
 2645TIP3    H1 7892   4.959   7.433   1.749 -1.6416  0.7742 -0.5164
 2645TIP3    H2 7893   4.978   7.323   1.851  0.4322  1.5227 -0.0280
 2646TIP3   OH2 7894   2.625   2.905   3.019 -0.3327  0.3645 -0.3748
 2646TIP3    H1 7895   2.596   2.985   3.062  1.3789  1.0649 -0.4477
 2646TIP3    H2 7896   2.693   2.870   3.076 -0.1711 -0.3556 -0.9874
 2647TIP3   OH2 7897   6.626   6.876   6.611 -0.1123 -0.3520  0.4019
 2647TIP3    H1 7898   6.581   6.818   6.550 -1.2221 -1.6164  2.3402
 2647TIP3    H2 7899   6.663   6.818   6.677  1.9557  0.8997  0.4482
 2648TIP3   OH2 7900   4.725   7.047   0.984  0.1242 -0.0874  0.4312
 2648TIP3    H1 7901   4.769   6.987   0.924 -1.3725 -0.8915  0.0831
 2648TIP3    H2 7902   4.792   7.110   1.009  1.2913 -0.9078 -0.5364
 2649TIP3   OH2 7903   3.182   1.008   5.360 -0.1215 -0.4372 -0.1572
 2649TIP3    H1 7904   3.115   0.940   5.347 -0.1918 -0.0973 -1.8837
 2649TIP3    H2 7905   3.133   1.085   5.386 -0.6833  0.2403 -2.8875
 2650TIP3   OH2 7906   0.059   2.661   2.837  0.3333 -0.2822  0.1894
 2650TIP3    H1 7907   0.107   2.712   2.903 -1.6320  0.7562  0.9090
 2650TIP3    H2 7908   0.018   2.728   2.782 -1.2934 -1.0860  0.3821
 2651TIP3   OH2 7909   1.120   6.331   4.044 -0.0299  0.1807 -0.1590
 2651TIP3    H1 7910   1.067   6.303   4.118  0.5222  1.0495  0.5842
 2651TIP3    H2 7911   1.085   6.417   4.021  1.2563  0.9235  0.5629
 2652TIP3   OH2 7912   2.372   6.431  -0.035  0.5531  0.2948  0.5189
 2652TIP3    H1 7913   2.347   6.366   0.031 -0.8346 -0.3340 -0.5632
 2652TIP3    H2 7914   2.440   6.484   0.007 -0.1473 -0.2018  2.3674
 2653TIP3   OH2 7915   2.877   6.928   6.066 -0.5615 -0.3121 -0.0118
 2653TIP3    H1 7916   2.886   6.983   6.144 -1.1606 -0.2963  0.0498
 2653TIP3    H2 7917   2.841   6.986   6.000 -1.3012 -0.6530  0.0848
 2654TIP3   OH2 7918   1.003   6.007   2.286  0.0219  0.1785  0.1596
 2654TIP3    H1 7919   0.941   6.044   2.223 -1.8553 -2.3137  0.3869
 2654TIP3    H2 7920   1.048   5.938   2.237 -1.0622 -1.4079  1.2916
 2655TIP3   OH2 7921   8.083   2.353   3.794 -0.2751  0.2253 -0.8878
 2655TIP3    H1 7922   8.165   2.393   3.764  0.2196  0.5232  0.7522
 2655TIP3    H2 7923   8.067   2.281   3.732  1.5382 -0.1980 -0.9153
 2656TIP3   OH2 7924   6.542   6.738   6.401 -0.2345 -0.2939  0.4407
 2656TIP3    H1 7925   6.595   6.702   6.331  0.3593  1.8944 -0.3179
 2656TIP3    H2 7926   6.452   6.717   6.376  0.0717 -1.0020 -0.0854
 2657TIP3   OH2 7927   3.676   2.029   0.662  0.3597  0.1435 -0.0486
 2657TIP3    H1 7928   3.615   2.030   0.589  1.0374  0.6592 -0.6213
 2657TIP3    H2 7929   3.636   1.971   0.726 -0.1636 -0.4414 -0.8937
 2658TIP3   OH2 7930   2.361   4.547   2.629 -0.0977  0.0150 -1.1165
 2658TIP3    H1 7931   2.335   4.624   2.680  0.9418 -1.6450  2.2211
 2658TIP3    H2 7932   2.279   4.513   2.593 -1.1306  0.5936  0.5622
 2659TIP3   OH2 7933   2.325   4.265   5.527 -0.0448  0.5762  0.7884
 2659TIP3    H1 7934   2.418   4.251   5.514 -0.2622 -0.3657  0.1101
 2659TIP3    H2 7935   2.308   4.352   5.491  0.0637 -0.4537 -1.9536
 2660TIP3   OH2 7936   0.597   0.260   6.157 -0.0813  0.6823  0.1745
 2660TIP3    H1 7937   0.588   0.206   6.079  2.5379  0.1489  0.1589
 2660TIP3    H2 7938   0.517   0.313   6.159 -1.4371 -1.1755 -1.3496
 2661TIP3   OH2 7939   4.954   1.699   6.335  0.3376  0.3849  0.0059
 2661TIP3    H1 7940   4.892   1.720   6.406  0.6314 -0.5802  0.5708
 2661TIP3    H2 7941   4.973   1.606   6.347 -0.8786 -0.2486 -2.3460
 2662TIP3   OH2 7942   6.460   0.503   5.356 -0.1723  0.1492 -0.8715
 2662TIP3    H1 7943   6.393   0.569   5.374 -1.0992 -1.1772  0.7555
 2662TIP3    H2 7944   6.437   0.469   5.269  0.1311  1.6812 -1.5939
 2663TIP3   OH2 7945   4.059   3.139   2.267  0.1451  0.4996  0.2596
 2663TIP3    H1 7946   4.039   3.071   2.202  0.7313  1.9858 -1.5511
 2663TIP3    H2 7947   4.141   3.111   2.307  0.1875 -0.0491 -0.1982
 2664TIP3   OH2 7948   6.919   7.651   2.841 -0.0501  0.0897 -0.4937
 2664TIP3    H1 7949   6.886   7.737   2.813 -0.2534  0.1950  0.0502
 2664TIP3    H2 7950   6.981   7.672   2.911 -1.0451 -0.2725  0.5171
 2665TIP3   OH2 7951   4.561   0.632   2.635 -0.2154 -0.2060 -0.7132
 2665TIP3    H1 7952   4.643   0.652   2.679 -1.2059  0.7027  0.8053
 2665TIP3    H2 7953   4.565   0.538   2.618  0.4635 -0.4626  0.7682
 2666TIP3   OH2 7954   7.749   2.652   2.987 -0.1092  1.1560 -0.5128
 2666TIP3    H1 7955   7.672   2.682   2.939 -0.6980  0.4357 -0.0438
 2666TIP3    H2 7956   7.718   2.577   3.038  0.7811  1.1737  0.0828
 2667TIP3   OH2 7957   4.203   5.311   4.942 -0.8389 -0.4268 -0.2722
 2667TIP3    H1 7958   4.163   5.321   5.029 -0.7138  0.4678 -0.3088
 2667TIP3    H2 7959   4.296   5.328   4.957 -0.3017 -3.1800 -0.0599
 2668TIP3   OH2 7960   4.546   4.700   6.574  0.6473 -0.5008 -0.3731
 2668TIP3    H1 7961   4.545   4.627   6.637  0.2017 -0.2150 -0.0395
 2668TIP3    H2 7962   4.585   4.773   6.623 -2.1398  0.5164  0.5199
 2669TIP3   OH2 7963   1.998   1.548   2.249  0.1650  0.1763 -0.3965
 2669TIP3    H1 7964   1.905   1.528   2.259  0.3110  0.2420  1.3324
 2669TIP3    H2 7965   2.022   1.594   2.329  1.3592  1.5044 -1.4541
 2670TIP3   OH2 7966   1.868   0.282   5.568  0.4468 -0.3443  0.4402
 2670TIP3    H1 7967   1.857   0.330   5.650  3.6126  0.0475  0.7677
 2670TIP3    H2 7968   1.842   0.193   5.589 -1.2875  0.2808  1.0851
 2671TIP3   OH2 7969   0.065   2.843   6.085  0.0125  0.3543  0.1000
 2671TIP3    H1 7970   0.159   2.859   6.088 -0.0121  0.4761  2.3172
 2671TIP3    H2 7971   0.058   2.747   6.080  0.2994  0.2409  1.4451
 2672TIP3   OH2 7972   6.638   5.433   5.529 -0.0573  0.4290 -0.1404
 2672TIP3    H1 7973   6.600   5.422   5.617  0.6956  0.7803  0.2357
 2672TIP3    H2 7974   6.565   5.415   5.470 -0.5894  0.2253  0.5565
 2673TIP3   OH2 7975   1.625   6.685   4.013  0.3685 -0.2019  0.2648
 2673TIP3    H1 7976   1.569   6.762   4.012 -0.2488 -0.6518 -0.3665
 2673TIP3    H2 7977   1.604   6.638   3.932 -1.2263 -2.4419  1.8613
 2674TIP3   OH2 7978   1.577   1.240   2.969 -0.0028 -0.2726 -0.2824
 2674TIP3    H1 7979   1.556   1.190   3.048  1.8770 -1.9061 -0.7354
 2674TIP3    H2 7980   1.599   1.327   3.002 -2.4394  0.0868  0.6180
 2675TIP3   OH2 7981   6.287   4.995   1.582  0.1529  0.0705  0.8359
 2675TIP3    H1 7982   6.273   5.059   1.651 -0.7885  0.0533  0.6790
 2675TIP3    H2 7983   6.231   5.025   1.510  0.2805 -0.5073  0.4896
 2676TIP3   OH2 7984   1.421   7.625   0.059  0.1259  0.5034  0.3204
 2676TIP3    H1 7985   1.339   7.598   0.017 -0.6981  0.7550  1.7217
 2676TIP3    H2 7986   1.451   7.699   0.005  0.2663 -0.5504 -1.1103
 2677TIP3   OH2 7987   5.217   7.419   1.494  0.3427 -0.2389  0.0471
 2677TIP3    H1 7988   5.149   7.471   1.537 -1.0679 -1.6217 -0.4608
 2677TIP3    H2 7989   5.206   7.331   1.529  1.6126 -0.5852 -0.3717
 2678TIP3   OH2 7990   1.292   0.344   0.064 -0.5875  0.1265 -0.0948
 2678TIP3    H1 7991   1.273   0.395   0.143 -0.2580 -2.7508  1.9653
 2678TIP3    H2 7992   1.321   0.259   0.096 -0.2291 -1.1189 -3.3572
 2679TIP3   OH2 7993   4.717   5.700   3.690  0.0808  0.3574  0.0854
 2679TIP3    H1 7994   4.734   5.637   3.759 -1.0959  1.0138  1.0102
 2679TIP3    H2 7995   4.637   5.668   3.647 -0.7829  1.3939  0.8432
 2680TIP3   OH2 7996   6.006   2.979   4.044 -0.0134 -0.0842  0.0689
 2680TIP3    H1 7997   5.940   2.915   4.071  0.2771 -0.3533  0.1609
 2680TIP3    H2 7998   5.964   3.064   4.055 -1.0947 -0.2982 -1.8806
 2681TIP3   OH2 7999   6.598   6.560   2.652 -0.1267  0.3297 -0.5325
 2681TIP3    H1 8000   6.612   6.502   2.727 -1.0049  1.7364  0.7726
 2681TIP3    H2 8001   6.684   6.600   2.636  0.0028  0.2406 -0.0820
 2682TIP3   OH2 8002   4.224   0.923   4.273 -0.1436  0.3294  0.1924
 2682TIP3    H1 8003   4.262   0.835   4.279  2.3904  1.3530  0.6660
 2682TIP3    H2 8004   4.178   0.935   4.356 -2.7285 -1.3848 -0.8638
 2683TIP3   OH2 8005   6.493   7.284   3.699 -1.0984  0.3673 -0.0100
 2683TIP3    H1 8006   6.465   7.287   3.791 -0.8330  2.4760  0.0595
 2683TIP3    H2 8007   6.561   7.350   3.693 -0.7862 -0.0689 -1.6449
 2684TIP3   OH2 8008   7.398   7.356   2.579 -0.0526  0.1328  0.6249
 2684TIP3    H1 8009   7.471   7.299   2.603 -0.1821  0.0410  0.8082
 2684TIP3    H2 8010   7.377   7.403   2.660  2.4232  3.1772 -0.3296
 2685TIP3   OH2 8011   0.446   0.557   5.431  0.1096  0.1672 -0.1006
 2685TIP3    H1 8012   0.470   0.629   5.490 -1.2582  0.5103  0.0852
 2685TIP3    H2 8013   0.356   0.577   5.405 -0.9699 -2.3678  1.3317
 2686TIP3   OH2 8014   1.477   4.298   1.961  0.3019 -0.2267 -0.0625
 2686TIP3    H1 8015   1.434   4.239   2.023 -0.1022  1.5498  1.4432
 2686TIP3    H2 8016   1.517   4.365   2.016  0.4877  1.0765 -1.7002
 2687TIP3   OH2 8017   4.209   7.018   3.623  0.3728  0.3395 -0.3161
 2687TIP3    H1 8018   4.254   7.086   3.575  0.7061  0.0717 -0.3894
 2687TIP3    H2 8019   4.163   7.064   3.693  2.4254  0.4495  1.0574
 2688TIP3   OH2 8020   3.764   4.559   6.551 -0.0826  0.2370  0.1047
 2688TIP3    H1 8021   3.777   4.613   6.628  0.0967  0.7409 -0.2759
 2688TIP3    H2 8022   3.818   4.481   6.567 -1.2895 -0.4229  1.2060
 2689TIP3   OH2 8023   2.910   0.180   2.272 -0.4129 -0.2292  0.5163
 2689TIP3    H1 8024   2.953   0.162   2.356 -2.6135 -2.3910  1.3012
 2689TIP3    H2 8025   2.856   0.102   2.256 -0.8170  0.5483 -2.4470
 2690TIP3   OH2 8026   2.251   3.125   6.524 -0.0044  0.6653 -0.1303
 2690TIP3    H1 8027   2.181   3.184   6.495 -1.0547 -0.2573  0.4619
 2690TIP3    H2 8028   2.211   3.073   6.593  0.4751 -1.6820 -1.5199
 2691TIP3   OH2 8029   4.820   0.643   4.808 -0.6049  0.2525 -0.1881
 2691TIP3    H1 8030   4.783   0.558   4.833 -1.6716  0.2521 -1.6132
 2691TIP3    H2 8031   4.914   0.628   4.803 -0.6856 -0.5764  0.5433
 2692TIP3   OH2 8032   5.487   3.955   5.560  0.1165  0.6195  0.2769
 2692TIP3    H1 8033   5.409   4.005   5.535  0.1057  0.4285 -0.0760
 2692TIP3    H2 8034   5.533   4.012   5.622 -0.7125  0.4021  1.1121
 2693TIP3   OH2 8035   3.937   1.130   1.207 -0.4423  0.1510  0.0183
 2693TIP3    H1 8036   3.903   1.041   1.199  2.3056 -1.0311  0.1933
 2693TIP3    H2 8037   3.967   1.136   1.298 -1.8169  1.7786  0.4002
 2694TIP3   OH2 8038   1.583   6.012   0.148 -0.4865  0.5557  0.3690
 2694TIP3    H1 8039   1.496   5.997   0.185 -0.2327  1.3805  1.3382
 2694TIP3    H2 8040   1.631   5.931   0.166 -0.2793  1.0346  2.1509
 2695TIP3   OH2 8041   3.146   3.009   4.841 -0.0489  0.4236 -0.4603
 2695TIP3    H1 8042   3.182   2.973   4.760  0.6036  0.3066 -0.1285
 2695TIP3    H2 8043   3.223   3.032   4.893 -0.4036  3.0008 -0.9394
 2696TIP3   OH2 8044   0.867   4.517   5.220  0.9889 -0.0561  0.3070
 2696TIP3    H1 8045   0.893   4.586   5.159  0.1294 -0.2898 -0.3418
 2696TIP3    H2 8046   0.851   4.563   5.303 -0.2429  0.6300 -0.2965
 2697TIP3   OH2 8047   6.188   4.946   5.729 -0.7393 -0.6314  0.7493
 2697TIP3    H1 8048   6.095   4.969   5.718 -0.2372  1.1528 -0.1775
 2697TIP3    H2 8049   6.230   5.028   5.756  0.1345 -2.0993  4.3209
 2698TIP3   OH2 8050   2.198   6.861   5.607  0.3192  0.2247  0.5782
 2698TIP3    H1 8051   2.135   6.794   5.632 -0.4282  1.3424  1.8576
 2698TIP3    H2 8052   2.172   6.887   5.518  0.5354 -1.0336  0.1228
 2699TIP3   OH2 8053   0.325   0.661   2.645 -0.4495  0.3132  0.3726
 2699TIP3    H1 8054   0.367   0.696   2.567 -0.5105 -0.2527  0.0856
 2699TIP3    H2 8055   0.252   0.609   2.612  0.5122 -1.3180  0.7056
 2700TIP3   OH2 8056   5.047   7.837   3.180 -0.0050 -0.8696  0.8363
 2700TIP3    H1 8057   5.111   7.776   3.144 -0.8636 -0.8414 -0.8424
 2700TIP3    H2 8058   4.963   7.804   3.148 -0.3760  2.3415 -2.0670
 2701TIP3   OH2 8059   6.858   1.081   5.731  0.4236  0.1880  0.2772
 2701TIP3    H1 8060   6.772   1.120   5.715  0.1366 -0.6637 -0.3072
 2701TIP3    H2 8061   6.918   1.156   5.730 -0.2405  0.7358  0.2248
 2702TIP3   OH2 8062   0.673   0.200   0.922  0.7409  0.0488  0.2051
 2702TIP3    H1 8063   0.745   0.208   0.985  0.9369 -2.9099  0.4823
 2702TIP3    H2 8064   0.694   0.122   0.871 -0.4130  1.2507 -2.2709
 2703TIP3   OH2 8065   3.915   0.380   5.907 -0.3302 -0.0365 -0.3601
 2703TIP3    H1 8066   3.879   0.388   5.818  0.0983  1.8266 -0.4143
 2703TIP3    H2 8067   3.994   0.327   5.896  0.0740  0.7146 -1.2233
 2704TIP3   OH2 8068   0.882   4.096   6.738  0.4295 -0.6002 -0.6520
 2704TIP3    H1 8069   0.921   4.072   6.822  0.2926  2.3527  0.3775
 2704TIP3    H2 8070   0.803   4.042   6.731  0.6854 -1.2101  0.8798
 2705TIP3   OH2 8071   7.662   5.311   1.073 -0.2337  0.6490  0.1135
 2705TIP3    H1 8072   7.716   5.306   1.152 -0.6398  0.4794  0.3860
 2705TIP3    H2 8073   7.724   5.327   1.002  0.2272 -0.0193  0.3543
 2706TIP3   OH2 8074   0.893   1.421   1.218 -0.1854  0.0341  0.1776
 2706TIP3    H1 8075   0.911   1.515   1.216 -0.9561  0.2552  1.8735
 2706TIP3    H2 8076   0.974   1.382   1.252  0.4088 -0.0341 -1.2359
 2707TIP3   OH2 8077   4.354   5.528   5.851  0.1522  0.1356 -0.3259
 2707TIP3    H1 8078   4.276   5.480   5.823  0.4224  0.4042 -1.5533
 2707TIP3    H2 8079   4.341   5.538   5.946 -2.3512  2.0523 -0.7576
 2708TIP3   OH2 8080   5.844   4.735   3.805  0.2762 -0.1093 -0.8197
 2708TIP3    H1 8081   5.799   4.731   3.890  2.7114 -1.7746  0.5646
 2708TIP3    H2 8082   5.792   4.679   3.748 -0.4093 -0.5347  0.1775
 2709TIP3   OH2 8083   3.761   7.629   6.139 -0.1337  0.6336  0.5313
 2709TIP3    H1 8084   3.736   7.618   6.231  0.7759 -1.0069  0.6271
 2709TIP3    H2 8085   3.857   7.630   6.140 -0.0980  0.0871 -0.4286
 2710TIP3   OH2 8086   3.636   7.323   6.594  0.2600 -0.2689 -0.7113
 2710TIP3    H1 8087   3.657   7.264   6.666 -0.9742 -0.4165 -0.4412
 2710TIP3    H2 8088   3.540   7.332   6.597  0.3218  0.9392 -1.3769
 2711TIP3   OH2 8089   6.238   7.676   6.660  0.1978  0.2338 -0.0530
 2711TIP3    H1 8090   6.178   7.633   6.720 -0.4109  0.8812 -0.1850
 2711TIP3    H2 8091   6.317   7.692   6.712  0.1948 -0.4614  0.1694
 2712TIP3   OH2 8092   0.629   2.409   5.363  0.1794 -0.4741  0.1571
 2712TIP3    H1 8093   0.558   2.353   5.394 -1.0325  1.1974  0.5093
 2712TIP3    H2 8094   0.663   2.363   5.286  0.0284 -2.2687  1.0926
 2713TIP3   OH2 8095   0.465   5.988   3.779  0.5126  0.5716  0.2285
 2713TIP3    H1 8096   0.470   6.056   3.846  1.5257 -0.0950  0.8375
 2713TIP3    H2 8097   0.535   6.010   3.717 -0.1479  0.9431 -0.4102
 2714TIP3   OH2 8098   1.184   4.951   3.771 -0.2237 -0.1821  0.6166
 2714TIP3    H1 8099   1.179   4.856   3.757 -0.5312  0.2030 -2.6303
 2714TIP3    H2 8100   1.269   4.976   3.736 -1.2600  1.0246 -1.2324
 2715TIP3   OH2 8101   4.334   5.214   2.388 -0.2732  0.2753 -0.4019
 2715TIP3    H1 8102   4.279   5.260   2.450 -1.6783 -0.4244 -1.0723
 2715TIP3    H2 8103   4.322   5.262   2.305 -0.7803 -0.5235 -0.8091
 2716TIP3   OH2 8104   4.945   3.666   1.223  0.2811  0.0167  0.2856
 2716TIP3    H1 8105   5.035   3.654   1.252  0.9882  0.1587 -1.7012
 2716TIP3    H2 8106   4.901   3.708   1.297  1.5430 -1.0129  1.6939
 2717TIP3   OH2 8107   4.454   1.290   0.626  0.2649  0.3430 -0.1441
 2717TIP3    H1 8108   4.398   1.223   0.585  0.1165  1.0071 -1.0624
 2717TIP3    H2 8109   4.406   1.371   0.614 -0.1680  0.4799  2.0988
 2718TIP3   OH2 8110   0.904   3.124   2.310 -0.0256 -0.5132  0.1359
 2718TIP3    H1 8111   0.910   3.214   2.278 -0.5344  0.8264  3.3696
 2718TIP3    H2 8112   0.810   3.107   2.316  0.0644 -1.0276  0.1286
 2719TIP3   OH2 8113   1.150   3.130   4.679 -0.1601  0.0715  0.6050
 2719TIP3    H1 8114   1.208   3.196   4.716  1.3773 -1.8854  1.9749
 2719TIP3    H2 8115   1.188   3.047   4.708 -1.5285 -1.4552 -1.6693
 2720TIP3   OH2 8116   3.398   0.666   2.917 -0.0590 -0.3740  0.3420
 2720TIP3    H1 8117   3.375   0.584   2.961  0.4677 -0.2348  0.8844
 2720TIP3    H2 8118   3.337   0.730   2.953  1.6894  0.1880  2.4463
 2721TIP3   OH2 8119   5.197   5.783   4.294  0.2561 -0.0071 -0.0979
 2721TIP3    H1 8120   5.196   5.762   4.388  0.0888 -1.1541 -0.3328
 2721TIP3    H2 8121   5.134   5.721   4.256 -1.4194  1.9577 -0.6778
 2722TIP3   OH2 8122   8.161   2.039   0.189 -0.4108  0.0554  0.6584
 2722TIP3    H1 8123   8.229   2.023   0.123 -0.3060  2.2164  0.1837
 2722TIP3    H2 8124   8.079   2.035   0.139 -0.2856  2.5516  0.1360
 2723TIP3   OH2 8125   3.573   1.700   2.402  0.2823 -0.2922  0.1387
 2723TIP3    H1 8126   3.625   1.766   2.357 -0.6036  0.1589 -0.2704
 2723TIP3    H2 8127   3.537   1.745   2.478  0.0467 -0.4274  0.1090
 2724TIP3   OH2 8128   4.713   1.814   6.520  0.0785  0.2533 -0.3253
 2724TIP3    H1 8129   4.733   1.769   6.602  2.3590 -0.7029 -1.3330
 2724TIP3    H2 8130   4.734   1.906   6.538  0.5937  0.0497  0.1676
 2725TIP3   OH2 8131   1.429   7.733   2.136  0.5126 -0.3237  0.2145
 2725TIP3    H1 8132   1.422   7.691   2.221 -2.7628  1.2068  0.8546
 2725TIP3    H2 8133   1.455   7.823   2.155 -0.4882  0.1012 -0.3404
 2726TIP3   OH2 8134   6.632   3.401   1.336  0.5681  0.5410  0.4255
 2726TIP3    H1 8135   6.540   3.375   1.334  0.7015  0.0683  0.1100
 2726TIP3    H2 8136   6.638   3.465   1.407  0.1069  0.1649  0.8086
 2727TIP3   OH2 8137   1.156   5.956   1.852 -0.2464 -0.3471 -0.0906
 2727TIP3    H1 8138   1.135   6.001   1.770 -1.1800 -0.0860  0.2788
 2727TIP3    H2 8139   1.218   5.887   1.826 -0.8403 -0.5330 -1.0805
 2728TIP3   OH2 8140   2.207   7.835   5.889 -0.9856 -0.0013 -0.3483
 2728TIP3    H1 8141   2.164   7.756   5.923 -0.2398  0.0728  0.8291
 2728TIP3    H2 8142   2.298   7.826   5.916 -0.1509 -0.2423 -2.9640
 2729TIP3   OH2 8143   5.523   1.665   0.256 -0.0923 -0.8246  0.3761
 2729TIP3    H1 8144   5.614   1.646   0.232  0.7280  2.1338  0.7088
 2729TIP3    H2 8145   5.520   1.651   0.351 -0.0101 -1.0392  0.3471
 2730TIP3   OH2 8146   0.990   5.678   1.067  0.1518  0.0891  0.1526
 2730TIP3    H1 8147   0.913   5.717   1.026  0.7423 -0.3198 -1.3990
 2730TIP3    H2 8148   1.000   5.593   1.023  0.4120 -0.6880  1.6432
 2731TIP3   OH2 8149   7.238   0.279   5.808 -0.0606 -0.0293  0.0661
 2731TIP3    H1 8150   7.144   0.268   5.795 -0.5992  0.3972  3.0102
 2731TIP3    H2 8151   7.246   0.361   5.857  1.7926 -0.4199  0.4988
 2732TIP3   OH2 8152   6.198   1.397   5.156 -0.1798 -0.0001 -0.6917
 2732TIP3    H1 8153   6.193   1.484   5.197 -1.7221 -0.7132  0.7744
 2732TIP3    H2 8154   6.280   1.399   5.106  2.5060  0.6934  3.1916
 2733TIP3   OH2 8155   4.317   3.070   2.370  0.1355  0.0063  0.2970
 2733TIP3    H1 8156   4.292   3.033   2.455  0.6916 -0.9125  0.0769
 2733TIP3    H2 8157   4.397   3.024   2.347 -0.1879  0.0147 -0.8889
 2734TIP3   OH2 8158   8.156   0.495   6.051 -0.8222 -0.0461  0.4687
 2734TIP3    H1 8159   8.173   0.584   6.082  0.4442 -0.3548  0.7355
 2734TIP3    H2 8160   8.103   0.506   5.972  0.3743  1.0247 -0.2216
 2735TIP3   OH2 8161   1.999   2.290   2.345 -0.0912 -0.3701 -0.1128
 2735TIP3    H1 8162   2.045   2.206   2.339  0.6445 -0.0931  1.2181
 2735TIP3    H2 8163   2.064   2.355   2.317  0.6109  0.0891  2.4008
 2736TIP3   OH2 8164   5.282   7.160   1.853 -0.6597  0.1269 -0.4787
 2736TIP3    H1 8165   5.265   7.243   1.897  0.9572  0.7874 -1.0037
 2736TIP3    H2 8166   5.355   7.122   1.902  0.2093  0.1941 -1.6626
 2737TIP3   OH2 8167   6.528   1.046   1.130  0.5761 -0.6717  0.1994
 2737TIP3    H1 8168   6.526   1.017   1.222  0.6038  0.1368  0.4575
 2737TIP3    H2 8169   6.491   0.972   1.081  1.0346 -1.3155  0.8030
 2738TIP3   OH2 8170   8.194   7.297   4.167  0.2432 -0.5580  0.4054
 2738TIP3    H1 8171   8.287   7.318   4.160 -0.0687  0.3871 -1.8996
 2738TIP3    H2 8172   8.150   7.379   4.142 -1.2156 -0.9756  1.5088
 2739TIP3   OH2 8173   5.061   1.962   4.376  0.4209 -0.3877  0.7705
 2739TIP3    H1 8174   4.967   1.946   4.385  0.4924 -1.8913 -0.6242
 2739TIP3    H2 8175   5.099   1.875   4.366  1.8907  0.2403  0.6628
 2740TIP3   OH2 8176   5.339   5.565   4.765  0.1285  0.1505 -0.0751
 2740TIP3    H1 8177   5.310   5.497   4.826 -0.5432 -0.0541 -0.6086
 2740TIP3    H2 8178   5.318   5.531   4.678  1.5227  0.2185 -0.4774
 2741TIP3   OH2 8179   7.469   0.859   2.704  0.4318 -0.0665 -0.3946
 2741TIP3    H1 8180   7.440   0.849   2.613 -2.4302 -0.3500  0.4614
 2741TIP3    H2 8181   7.458   0.953   2.722  0.4674 -0.1024 -0.1888
 2742TIP3   OH2 8182   1.676   1.418   1.086 -0.4567  0.8695  0.5122
 2742TIP3    H1 8183   1.672   1.505   1.125  1.7820  1.0921  0.4025
 2742TIP3    H2 8184   1.606   1.417   1.020  0.3046  3.1098 -0.4180
 2743TIP3   OH2 8185   7.047   4.748   2.322  0.1810  0.6400 -0.2095
 2743TIP3    H1 8186   7.072   4.798   2.244  0.9421  1.5340  0.5871
 2743TIP3    H2 8187   6.997   4.674   2.288  3.7819 -1.2691 -1.9783
 2744TIP3   OH2 8188   4.783   0.598   5.961  0.3344  0.3904  0.6894
 2744TIP3    H1 8189   4.821   0.655   5.894  0.0193 -1.4191 -1.1187
 2744TIP3    H2 8190   4.858   0.561   6.007  0.5974  0.6640  0.4804
 2745TIP3   OH2 8191   6.364   0.724   6.693 -0.0364 -0.1323 -0.5483
 2745TIP3    H1 8192   6.276   0.759   6.680 -0.9855 -1.9109  0.5778
 2745TIP3    H2 8193   6.352   0.656   6.760  1.9947 -1.1994 -1.1953
 2746TIP3   OH2 8194   6.910   2.443   3.654 -0.7262 -0.5591  0.1059
 2746TIP3    H1 8195   6.845   2.392   3.606  0.4732 -0.1636 -2.0615
 2746TIP3    H2 8196   6.892   2.534   3.629 -0.0439 -0.3435  0.3830
 2747TIP3   OH2 8197   6.225   3.977   0.474  0.0882 -0.4091 -0.5742
 2747TIP3    H1 8198   6.227   4.073   0.478 -2.7193 -0.2637 -0.3601
 2747TIP3    H2 8199   6.291   3.955   0.408  0.4043  1.7160 -1.0645
 2748TIP3   OH2 8200   5.258   5.919   6.243 -0.1067  0.1547  0.0067
 2748TIP3    H1 8201   5.308   5.939   6.163 -0.0599  0.5138  0.1264
 2748TIP3    H2 8202   5.171   5.955   6.227 -0.2439 -0.2078 -0.0796
 2749TIP3   OH2 8203   4.248   1.862   1.048 -0.0943 -0.4662 -0.3176
 2749TIP3    H1 8204   4.265   1.785   0.994  1.7111 -0.9042  0.7799
 2749TIP3    H2 8205   4.221   1.929   0.985  0.7349 -1.3103 -1.6326
 2750TIP3   OH2 8206   5.179   7.089   6.384 -0.2709 -0.0376  0.0129
 2750TIP3    H1 8207   5.146   7.018   6.328  0.2227 -0.3025  0.0533
 2750TIP3    H2 8208   5.237   7.139   6.326 -0.2056  0.0228  0.1317
 2751TIP3   OH2 8209   5.882   0.386   3.757  0.2816 -0.4324  0.5363
 2751TIP3    H1 8210   5.818   0.426   3.697 -0.6961 -0.0792  1.7718
 2751TIP3    H2 8211   5.836   0.310   3.793  1.7093 -2.0495 -0.9044
 2752TIP3   OH2 8212   3.545   6.995   5.541  0.4328  0.1738 -0.1531
 2752TIP3    H1 8213   3.507   6.929   5.484 -2.2504  1.7380 -0.3216
 2752TIP3    H2 8214   3.546   7.075   5.489  1.1188  0.8739  0.8890
 2753TIP3   OH2 8215   0.081   3.099   2.379  0.1761  0.4603 -0.5213
 2753TIP3    H1 8216   0.057   3.162   2.446  1.4711  0.2268  0.2129
 2753TIP3    H2 8217   0.028   3.122   2.303  0.5554  2.3839 -0.2542
 2754TIP3   OH2 8218   4.087   5.642   4.056 -0.2139 -0.0064  0.4168
 2754TIP3    H1 8219   3.998   5.647   4.093  0.3798 -0.6548  2.0096
 2754TIP3    H2 8220   4.088   5.709   3.988 -2.3975 -0.9789 -0.6974
 2755TIP3   OH2 8221   2.392   2.329   3.458 -0.3275  0.0691  0.2444
 2755TIP3    H1 8222   2.384   2.311   3.365 -1.1289  1.8588 -0.0769
 2755TIP3    H2 8223   2.456   2.400   3.464  0.2868 -0.5307  1.1380
 2756TIP3   OH2 8224   3.345   5.456   5.117 -0.2082 -0.0116  0.1273
 2756TIP3    H1 8225   3.400   5.534   5.107  0.2237 -0.2805  0.3602
 2756TIP3    H2 8226   3.366   5.403   5.041  0.9182 -0.7502  0.9216
 2757TIP3   OH2 8227   8.247   6.508   6.499  0.6330 -0.0851 -0.1781
 2757TIP3    H1 8228   8.217   6.598   6.483 -0.0685 -0.2986 -0.1252
 2757TIP3    H2 8229   8.335   6.518   6.535  0.6128  0.5768 -0.2929
 2758TIP3   OH2 8230   4.342   5.954   1.369  0.0447  0.0607 -0.2104
 2758TIP3    H1 8231   4.407   6.020   1.346  1.2587  0.0274  2.7181
 2758TIP3    H2 8232   4.344   5.892   1.296  1.5375  1.3223 -1.3053
 2759TIP3   OH2 8233   3.018   0.496   3.253 -0.3739 -0.3384  0.0758
 2759TIP3    H1 8234   2.941   0.547   3.227  0.9550  1.2436 -0.9451
 2759TIP3    H2 8235   3.024   0.509   3.348 -0.6351  0.6006 -0.0242
 2760TIP3   OH2 8236   1.325   7.397   5.932  0.2010 -0.4687  0.3232
 2760TIP3    H1 8237   1.407   7.409   5.980  0.5797 -0.8353 -0.2159
 2760TIP3    H2 8238   1.318   7.476   5.878  1.8495 -1.7621 -1.9897
 2761TIP3   OH2 8239   0.462   4.515   2.672 -0.2327  0.2168  0.0426
 2761TIP3    H1 8240   0.397   4.504   2.742 -0.5553 -0.5504 -0.3677
 2761TIP3    H2 8241   0.429   4.588   2.620 -0.2554  0.4631  0.4011
 2762TIP3   OH2 8242   6.823   5.900   6.290  0.3351 -0.3753  0.6002
 2762TIP3    H1 8243   6.862   5.891   6.203 -0.2870  0.1350  0.2500
 2762TIP3    H2 8244   6.772   5.820   6.301 -4.6180  1.8694 -2.2000
 2763TIP3   OH2 8245   2.417   5.196   6.051  0.4786 -0.1656  0.4308
 2763TIP3    H1 8246   2.359   5.251   6.103  0.6992  0.7380 -0.2424
 2763TIP3    H2 8247   2.503   5.204   6.093  0.1757 -1.3252  1.2964
 2764TIP3   OH2 8248   6.766   1.909   3.156  0.9318 -0.1361 -0.7353
 2764TIP3    H1 8249   6.730   1.934   3.241 -1.2484 -0.0328 -1.6230
 2764TIP3    H2 8250   6.756   1.814   3.152  1.3484 -0.1832 -0.7571
 2765TIP3   OH2 8251   0.354   3.864   5.475  0.1431  0.0045 -0.1087
 2765TIP3    H1 8252   0.395   3.911   5.548 -0.5553  0.3274  0.0896
 2765TIP3    H2 8253   0.317   3.786   5.515  3.9601 -2.4708 -0.9037
 2766TIP3   OH2 8254   2.985   5.856   3.222  0.3432  0.1992  0.0568
 2766TIP3    H1 8255   3.080   5.855   3.206  0.2693 -1.8360 -0.4496
 2766TIP3    H2 8256   2.975   5.823   3.311  0.1757  2.6597  1.0517
 2767TIP3   OH2 8257   2.804   7.033   2.716 -0.0516  0.3886  0.1777
 2767TIP3    H1 8258   2.795   6.963   2.651  1.1311 -0.3711  0.8054
 2767TIP3    H2 8259   2.741   7.100   2.688  0.2720 -0.0136 -1.6325
 2768TIP3   OH2 8260   0.975   7.359   0.550 -0.1432  0.5949 -0.1814
 2768TIP3    H1 8261   1.046   7.297   0.565 -1.0231 -0.1271  1.1869
 2768TIP3    H2 8262   0.957   7.352   0.456 -0.2008 -1.2278 -0.0729
 2769TIP3   OH2 8263   6.023   4.168   5.374  0.1444 -0.2139  0.4146
 2769TIP3    H1 8264   5.970   4.100   5.416 -2.6557 -0.4058 -2.9418
 2769TIP3    H2 8265   5.968   4.246   5.378 -0.6904 -0.4372 -3.2566
 2770TIP3   OH2 8266   3.595   5.973   1.731 -0.2789  0.0497  1.0397
 2770TIP3    H1 8267   3.673   6.019   1.701 -1.2735  1.5495  0.6220
 2770TIP3    H2 8268   3.580   6.007   1.819 -1.5973  1.3660  0.3484
 2771TIP3   OH2 8269   2.100   7.069   6.604 -0.0936 -0.1236 -0.3465
 2771TIP3    H1 8270   2.172   7.012   6.632 -1.1165 -1.1728  0.2195
 2771TIP3    H2 8271   2.052   7.090   6.684 -1.8918 -1.5353 -0.9886
 2772TIP3   OH2 8272   5.064   0.511   3.103 -0.2005 -0.0604  0.7280
 2772TIP3    H1 8273   4.996   0.570   3.136 -1.7344 -1.4720  0.2074
 2772TIP3    H2 8274   5.058   0.519   3.008  0.6762  0.0997  0.6704
 2773TIP3   OH2 8275   1.503   5.198   6.286  0.0437  0.0050 -0.4335
 2773TIP3    H1 8276   1.479   5.246   6.207  0.1889  1.9598  0.6602
 2773TIP3    H2 8277   1.521   5.265   6.351  1.2825 -1.5308  0.8964
 2774TIP3   OH2 8278   0.011   7.275   0.234  0.3906  0.5081  0.0849
 2774TIP3    H1 8279   0.005   7.180   0.217 -1.9749  0.1862  2.0757
 2774TIP3    H2 8280   0.104   7.294   0.232  0.9649 -1.9383 -0.0940
 2775TIP3   OH2 8281   3.617   3.892   5.166 -0.0431 -0.1468  0.4868
 2775TIP3    H1 8282   3.567   3.928   5.240  0.0273 -0.7359  0.8206
 2775TIP3    H2 8283   3.634   3.801   5.190 -1.2237 -0.7583 -0.8722
 2776TIP3   OH2 8284   6.772   5.098   6.620 -0.0500  0.1755  0.5332
 2776TIP3    H1 8285   6.775   5.069   6.529  0.7234 -2.6111  1.3348
 2776TIP3    H2 8286   6.802   5.188   6.618 -0.0863  0.1897 -1.9583
 2777TIP3   OH2 8287   2.397   1.610   0.390 -0.1716 -0.2041 -0.2417
 2777TIP3    H1 8288   2.310   1.635   0.360 -0.2210  1.5750  1.1837
 2777TIP3    H2 8289   2.394   1.514   0.396 -1.5686 -0.2637 -1.5007
 2778TIP3   OH2 8290   4.132   4.292   3.773  0.1275 -0.0912  0.6797
 2778TIP3    H1 8291   4.066   4.310   3.839  0.9094  0.3633  1.3638
 2778TIP3    H2 8292   4.215   4.302   3.819  0.6925  0.2605 -0.3745
 2779TIP3   OH2 8293   1.960   3.328   2.020 -0.2895 -0.1786 -0.3055
 2779TIP3    H1 8294   2.000   3.241   2.024  0.1509 -0.0040 -0.8146
 2779TIP3    H2 8295   2.004   3.371   1.948 -1.0277  0.2124 -0.5319
 2780TIP3   OH2 8296   2.777   3.853   1.399 -0.5138  0.7471  0.0610
 2780TIP3    H1 8297   2.723   3.775   1.386 -1.5306  1.6074 -1.1683
 2780TIP3    H2 8298   2.717   3.926   1.386  0.9007  1.7410 -1.2390
 2781TIP3   OH2 8299   1.306   2.408   6.724  0.4270  1.1322 -0.4761
 2781TIP3    H1 8300   1.357   2.429   6.645 -0.0822  1.1065 -0.8165
 2781TIP3    H2 8301   1.300   2.313   6.724  0.9775  1.0991 -0.0550
 2782TIP3   OH2 8302   4.222   7.132   6.449  0.5647  0.0190  0.4210
 2782TIP3    H1 8303   4.255   7.055   6.403  2.5498  1.1142 -0.1064
 2782TIP3    H2 8304   4.127   7.127   6.440  0.7805 -0.7586 -2.2688
 2783TIP3   OH2 8305   7.594   4.873   4.889  0.4073 -0.0903 -0.1007
 2783TIP3    H1 8306   7.677   4.912   4.918 -0.2114  1.3147 -0.1120
 2783TIP3    H2 8307   7.541   4.870   4.969 -0.3520  1.2771 -0.5154
 2784TIP3   OH2 8308   1.657   5.879   4.111 -0.5834  0.0529 -0.1650
 2784TIP3    H1 8309   1.568   5.889   4.076 -1.2464 -1.0282  1.0940
 2784TIP3    H2 8310   1.708   5.848   4.037 -0.3926  3.8473 -1.8476
 2785TIP3   OH2 8311   5.079   2.211   4.255  0.2346 -0.8297 -0.0099
 2785TIP3    H1 8312   5.008   2.187   4.196 -0.7686  0.0904  0.7812
 2785TIP3    H2 8313   5.081   2.142   4.321 -0.5848 -0.3715  0.5109
 2786TIP3   OH2 8314   4.251   2.609   3.118 -0.0962 -0.1882 -0.8732
 2786TIP3    H1 8315   4.214   2.614   3.030 -2.6889  0.7525  0.1433
 2786TIP3    H2 8316   4.207   2.680   3.166  0.2726 -1.4518  1.4859
 2787TIP3   OH2 8317   5.934   0.668   3.672 -0.3722  0.5492  0.1469
 2787TIP3    H1 8318   5.983   0.585   3.679 -0.4224  0.5192  0.1466
 2787TIP3    H2 8319   6.001   0.736   3.674 -0.4187  0.5679  1.4867
 2788TIP3   OH2 8320   1.670   3.997   5.905 -0.6166  0.6590  0.5111
 2788TIP3    H1 8321   1.609   3.939   5.859  1.0987 -0.6330 -0.2227
 2788TIP3    H2 8322   1.708   3.942   5.973  1.1776  0.8137 -0.3148
 2789TIP3   OH2 8323   7.720   3.396   2.189  0.6795 -0.2745  0.0408
 2789TIP3    H1 8324   7.663   3.434   2.122  0.0243  0.0470  0.7694
 2789TIP3    H2 8325   7.719   3.460   2.260 -0.5439 -1.6843  1.3565
 2790TIP3   OH2 8326   7.450   6.563   4.736  0.5457 -0.0491 -0.1332
 2790TIP3    H1 8327   7.515   6.495   4.719 -0.0956 -0.6802 -0.0960
 2790TIP3    H2 8328   7.502   6.641   4.754  1.2916 -0.0897 -1.8835
 2791TIP3   OH2 8329   0.181   6.161   5.215 -0.4614 -0.3118  0.3616
 2791TIP3    H1 8330   0.235   6.157   5.136 -1.5787 -2.1148 -0.3515
 2791TIP3    H2 8331   0.224   6.103   5.277 -0.2463  0.1717  0.6726
 2792TIP3   OH2 8332   6.672   7.830   5.937  0.0083 -0.4308  0.3612
 2792TIP3    H1 8333   6.711   7.742   5.933 -1.8427 -1.3166  0.6412
 2792TIP3    H2 8334   6.630   7.833   6.023 -0.3021  0.5971  0.1869
 2793TIP3   OH2 8335   2.595   7.829   2.337  0.0359  0.2429  0.5378
 2793TIP3    H1 8336   2.634   7.798   2.418  1.9783 -0.8241 -0.7233
 2793TIP3    H2 8337   2.521   7.771   2.322 -0.8040  0.9272  1.8940
 2794TIP3   OH2 8338   2.550   6.823   1.165  0.1858 -0.2541 -0.4528
 2794TIP3    H1 8339   2.606   6.882   1.216  0.7859 -0.9614 -0.2845
 2794TIP3    H2 8340   2.467   6.824   1.212  0.4398 -0.1666  0.0084
 2795TIP3   OH2 8341   1.883   3.884   3.308  0.3304  0.4516 -0.1103
 2795TIP3    H1 8342   1.937   3.962   3.294  1.2944 -0.1257  0.2270
 2795TIP3    H2 8343   1.793   3.913   3.293  0.5356  1.9339  1.2530
 2796TIP3   OH2 8344   0.876   5.340   1.956  0.8521 -0.2809  0.1814
 2796TIP3    H1 8345   0.956   5.296   1.926  1.8315  0.2448  1.8841
 2796TIP3    H2 8346   0.877   5.329   2.051 -1.9004 -1.5087  0.1522
 2797TIP3   OH2 8347   1.510   7.753   0.277 -0.2933  0.3726 -0.5447
 2797TIP3    H1 8348   1.429   7.804   0.284 -0.9332 -0.5557 -0.9477
 2797TIP3    H2 8349   1.496   7.697   0.200  0.2846 -0.5845  0.0334
 2798TIP3   OH2 8350   5.709   0.875   1.461  0.0736 -0.2019 -0.0935
 2798TIP3    H1 8351   5.775   0.932   1.421 -1.6327  1.2831 -0.9060
 2798TIP3    H2 8352   5.740   0.862   1.551  1.6610  0.1058 -0.5599
 2799TIP3   OH2 8353   2.205   3.195   5.018  0.3964 -0.2095 -0.0250
 2799TIP3    H1 8354   2.287   3.162   4.982  0.1973 -1.8737  0.9777
 2799TIP3    H2 8355   2.180   3.131   5.085 -1.4662  0.5217  0.0320
 2800TIP3   OH2 8356   5.899   6.891   2.756  0.2541  0.0016 -0.0935
 2800TIP3    H1 8357   5.930   6.919   2.669  0.9319  0.7158  0.3684
 2800TIP3    H2 8358   5.917   6.966   2.813 -0.3473 -0.3974  0.6364
 2801TIP3   OH2 8359   5.775   4.365   2.735  0.2872 -0.0332 -0.0081
 2801TIP3    H1 8360   5.833   4.437   2.708  1.4443  0.1515  2.6568
 2801TIP3    H2 8361   5.825   4.286   2.715  0.5366  0.0473  0.2899
 2802TIP3   OH2 8362   6.922   2.519   5.701  0.0537  0.4143 -0.2122
 2802TIP3    H1 8363   7.016   2.503   5.696 -0.0969 -0.2967 -1.2171
 2802TIP3    H2 8364   6.915   2.612   5.722  0.9861  0.5014 -0.2272
 2803TIP3   OH2 8365   6.418   0.122   4.107  0.1225 -0.1606  0.0950
 2803TIP3    H1 8366   6.449   0.139   4.196  0.9146  0.0582 -0.2117
 2803TIP3    H2 8367   6.359   0.195   4.089 -0.3091 -0.3895  0.5647
 2804TIP3   OH2 8368   7.567   0.491   2.569  0.6121  0.0975 -0.1885
 2804TIP3    H1 8369   7.587   0.428   2.500  1.3779 -0.0207  0.1216
 2804TIP3    H2 8370   7.653   0.526   2.595  0.1480  1.9571 -0.9935
 2805TIP3   OH2 8371   2.481   1.035   0.212  0.3762 -0.8965  0.0805
 2805TIP3    H1 8372   2.482   1.007   0.121 -0.6470 -0.5885 -0.0366
 2805TIP3    H2 8373   2.469   1.130   0.207  0.3604 -0.8733  0.5307
 2806TIP3   OH2 8374   7.710   4.696   5.595 -0.0412  0.0411 -0.3436
 2806TIP3    H1 8375   7.693   4.789   5.612 -0.4867 -0.0373 -0.3431
 2806TIP3    H2 8376   7.801   4.694   5.566  0.0814  0.4360 -0.0091
 2807TIP3   OH2 8377   0.587   1.325   2.992 -0.5441 -0.1912  0.2252
 2807TIP3    H1 8378   0.546   1.238   2.990  1.4501 -1.2052  0.7986
 2807TIP3    H2 8379   0.649   1.321   3.065  0.7551  1.1677 -0.7364
 2808TIP3   OH2 8380   8.002   0.084   5.540 -0.3670  0.6847 -0.0759
 2808TIP3    H1 8381   7.982   0.149   5.607  2.1072  2.8691 -1.2948
 2808TIP3    H2 8382   7.947   0.109   5.466 -1.9571 -0.8014  0.5284
 2809TIP3   OH2 8383   5.406   3.479   1.067  0.0333  0.0348 -0.1353
 2809TIP3    H1 8384   5.451   3.426   1.133  0.9009  0.3713 -0.4427
 2809TIP3    H2 8385   5.469   3.548   1.045 -1.3556  1.7013  0.8376
 2810TIP3   OH2 8386   8.271   4.080   4.702 -0.2612  0.0152 -0.0898
 2810TIP3    H1 8387   8.275   4.007   4.764 -0.2864 -0.4080 -0.5701
 2810TIP3    H2 8388   8.280   4.038   4.616  1.1573  0.7239 -0.3093
 2811TIP3   OH2 8389   1.503   2.604   0.253 -0.0241  0.2153 -0.1689
 2811TIP3    H1 8390   1.531   2.514   0.272 -1.7674 -0.2098  0.5702
 2811TIP3    H2 8391   1.533   2.620   0.164 -3.1338 -2.6634 -1.9905
 2812TIP3   OH2 8392   3.961   2.545   3.686  0.4183 -0.3431  0.6300
 2812TIP3    H1 8393   3.990   2.622   3.736 -0.5734 -1.1790  2.5835
 2812TIP3    H2 8394   3.948   2.579   3.597  1.5295  1.3783  1.0624
 2813TIP3   OH2 8395   2.772   7.422   5.741  0.0450 -0.3538 -0.7252
 2813TIP3    H1 8396   2.816   7.496   5.699  0.8281 -0.0907  0.4918
 2813TIP3    H2 8397   2.815   7.344   5.704  1.5614 -0.0988  0.4250
 2814TIP3   OH2 8398   2.381   6.765   2.911 -0.1927  0.4233 -0.0913
 2814TIP3    H1 8399   2.328   6.798   2.983 -1.1233  0.4037 -0.7494
 2814TIP3    H2 8400   2.471   6.771   2.943 -0.5461  0.9623  0.8445
 2815TIP3   OH2 8401   3.201   2.129   0.537  0.7797 -0.0411  0.2611
 2815TIP3    H1 8402   3.177   2.048   0.581 -0.2173 -0.7988 -1.5712
 2815TIP3    H2 8403   3.161   2.198   0.590 -0.5306 -0.9230  0.4516
 2816TIP3   OH2 8404   3.242   7.114   5.147 -0.2194  0.4599  0.0534
 2816TIP3    H1 8405   3.164   7.170   5.147 -0.4306  0.1698  0.3105
 2816TIP3    H2 8406   3.210   7.029   5.115 -0.2090  0.0669  1.0700
 2817TIP3   OH2 8407   3.272   1.624   4.395  0.0512 -0.2440 -0.6238
 2817TIP3    H1 8408   3.229   1.632   4.481  2.1126 -1.3198  0.5878
 2817TIP3    H2 8409   3.256   1.533   4.369  1.3367 -0.6093 -0.2370
 2818TIP3   OH2 8410   7.825   4.280   3.375  0.5013  0.2978 -0.5196
 2818TIP3    H1 8411   7.896   4.300   3.437  0.0198  0.8109 -0.1233
 2818TIP3    H2 8412   7.782   4.204   3.412 -0.9676  1.7063  0.8313
 2819TIP3   OH2 8413   0.055   5.820   4.395 -0.3432  0.2295 -0.3196
 2819TIP3    H1 8414   0.147   5.826   4.422  0.1474  1.7262 -2.1787
 2819TIP3    H2 8415   0.012   5.892   4.441 -0.8459 -1.0578  1.3218
 2820TIP3   OH2 8416   5.302   1.599   6.511  0.2256 -0.3276  0.2849
 2820TIP3    H1 8417   5.247   1.523   6.490 -0.1539  0.4466 -1.6981
 2820TIP3    H2 8418   5.367   1.564   6.572 -0.2112 -2.1558 -0.2215
 2821TIP3   OH2 8419   5.063   3.163   5.726  0.4282  0.0089 -0.0213
 2821TIP3    H1 8420   5.066   3.244   5.675  0.9653 -0.8069 -1.3306
 2821TIP3    H2 8421   4.970   3.144   5.736  0.3104  0.5274 -0.1008
 2822TIP3   OH2 8422   6.451   6.657   3.587 -0.5048 -0.1742 -0.6409
 2822TIP3    H1 8423   6.477   6.726   3.526  0.8000 -0.3146 -0.2797
 2822TIP3    H2 8424   6.373   6.691   3.631 -0.6822  0.4817 -1.4482
 2823TIP3   OH2 8425   2.851   1.112   1.143 -0.4371 -0.0121  0.5259
 2823TIP3    H1 8426   2.912   1.168   1.192 -0.2202  1.0881 -0.9346
 2823TIP3    H2 8427   2.780   1.095   1.204 -1.1297  2.8991  0.6791
 2824TIP3   OH2 8428   2.932   6.579   2.897 -0.0511  0.0880 -0.3394
 2824TIP3    H1 8429   2.979   6.604   2.817  0.3311 -1.7578 -0.7419
 2824TIP3    H2 8430   2.841   6.605   2.880  0.1784  0.4762 -1.0268
 2825TIP3   OH2 8431   4.614   5.413   4.658  0.4408  0.1382 -0.2861
 2825TIP3    H1 8432   4.674   5.355   4.612 -0.2140 -1.8642  1.2124
 2825TIP3    H2 8433   4.527   5.381   4.634  0.0162  1.4574 -0.5554
 2826TIP3   OH2 8434   3.224   4.168   3.379  0.0912 -0.5902 -0.2207
 2826TIP3    H1 8435   3.268   4.197   3.299 -1.7971  1.3220 -0.6528
 2826TIP3    H2 8436   3.183   4.085   3.356 -1.4553  0.5124 -1.7113
 2827TIP3   OH2 8437   4.433   7.727   4.766  0.2245 -0.4200  0.5399
 2827TIP3    H1 8438   4.342   7.746   4.745  0.3256  0.8989  1.2247
 2827TIP3    H2 8439   4.429   7.652   4.826 -0.3320 -1.0454 -0.2637
 2828TIP3   OH2 8440   6.935   5.982   3.988  0.2053 -0.8095  0.3344
 2828TIP3    H1 8441   6.939   6.050   4.055  2.3827 -1.1395  0.6103
 2828TIP3    H2 8442   6.875   6.017   3.922 -1.9241 -0.4303  2.3583
 2829TIP3   OH2 8443   6.224   5.110   0.276 -0.3143  0.1243 -0.0559
 2829TIP3    H1 8444   6.263   5.194   0.298 -0.0488 -0.2365  0.9263
 2829TIP3    H2 8445   6.134   5.116   0.306 -0.3828  0.1649 -0.2684
 2830TIP3   OH2 8446   1.968   0.540   6.618  0.0791 -0.2988 -0.6346
 2830TIP3    H1 8447   1.911   0.611   6.646 -0.0865 -0.4830 -0.5041
 2830TIP3    H2 8448   1.936   0.515   6.531 -0.1463 -0.5150 -0.4903
 2831TIP3   OH2 8449   6.877   2.776   0.214  0.4769 -0.1537 -0.3954
 2831TIP3    H1 8450   6.926   2.754   0.293 -0.9708  0.6679  0.7687
 2831TIP3    H2 8451   6.798   2.722   0.219 -0.2333  0.8411 -0.6161
 2832TIP3   OH2 8452   0.970   3.651   2.153  0.0584  0.2129 -0.1439
 2832TIP3    H1 8453   0.993   3.570   2.198  0.6191  0.3393 -0.1993
 2832TIP3    H2 8454   0.920   3.623   2.077 -0.1423 -0.0528  0.0852
 2833TIP3   OH2 8455   5.343   6.512   4.461 -0.3509  0.3696  0.8675
 2833TIP3    H1 8456   5.418   6.538   4.408 -0.9456 -1.0017 -0.7192
 2833TIP3    H2 8457   5.376   6.513   4.551  0.8601  2.1519  0.4564
 2834TIP3   OH2 8458   5.914   2.558   4.891  0.5690 -0.4836  0.3029
 2834TIP3    H1 8459   5.907   2.483   4.833 -1.2533  0.0924 -0.2755
 2834TIP3    H2 8460   5.878   2.527   4.975  1.0689 -0.6337  0.4677
 2835TIP3   OH2 8461   0.737   0.561   1.650  0.4120  0.1272  0.0550
 2835TIP3    H1 8462   0.702   0.536   1.736 -0.7615  0.7626 -0.2080
 2835TIP3    H2 8463   0.763   0.652   1.660 -0.7782  0.5564 -0.5422
 2836TIP3   OH2 8464   3.999   3.615   2.639  0.5313  0.1877  0.7281
 2836TIP3    H1 8465   3.912   3.576   2.639  0.5092  0.0214 -2.0371
 2836TIP3    H2 8466   3.985   3.706   2.665 -0.4314  0.0722  0.6349
 2837TIP3   OH2 8467   1.515   4.520   3.036  0.3019  0.2130  0.4201
 2837TIP3    H1 8468   1.544   4.609   3.015  1.5343 -0.8700 -2.9311
 2837TIP3    H2 8469   1.420   4.529   3.048  0.0782  1.7347 -1.8152
 2838TIP3   OH2 8470   7.172   6.678   4.405  0.2771  0.1722 -0.2882
 2838TIP3    H1 8471   7.208   6.708   4.488 -0.0941 -1.7887  0.6400
 2838TIP3    H2 8472   7.087   6.722   4.398 -0.1117 -0.3735  0.8515
 2839TIP3   OH2 8473   2.623   3.236   3.112  0.1030 -0.1081 -0.1333
 2839TIP3    H1 8474   2.607   3.211   3.021 -1.7558 -0.9890  0.3951
 2839TIP3    H2 8475   2.652   3.327   3.107 -0.4222  0.0065 -1.5707
 2840TIP3   OH2 8476   6.596   3.992   0.128  0.6652 -0.3066  0.4530
 2840TIP3    H1 8477   6.644   4.009   0.047  0.7536  0.2189  0.6160
 2840TIP3    H2 8478   6.664   3.978   0.194  0.6101  0.7453  0.7499
 2841TIP3   OH2 8479   1.994   1.971   2.545 -0.0906  0.1160  0.4742
 2841TIP3    H1 8480   1.991   2.033   2.618 -1.3637  1.4111 -0.6139
 2841TIP3    H2 8481   2.082   1.982   2.508 -0.0089  0.6449  0.8203
 2842TIP3   OH2 8482   6.664   0.417   5.497 -0.4568  0.1315 -0.1598
 2842TIP3    H1 8483   6.628   0.408   5.585  2.0072  2.6589  1.2659
 2842TIP3    H2 8484   6.589   0.440   5.442 -1.7533  0.3441  1.6300
 2843TIP3   OH2 8485   0.256   7.093   2.749 -0.0331  0.2246 -0.1952
 2843TIP3    H1 8486   0.295   7.180   2.743  0.8271 -0.2028 -1.0343
 2843TIP3    H2 8487   0.278   7.063   2.837  2.2029 -0.2782 -0.8558
 2844TIP3   OH2 8488   6.283   4.253   0.477 -0.2242  0.0733 -0.2262
 2844TIP3    H1 8489   6.237   4.328   0.513  2.9366  1.7567  0.7316
 2844TIP3    H2 8490   6.352   4.235   0.542  0.2984 -2.4519 -1.3641
 2845TIP3   OH2 8491   6.607   4.300   3.105 -0.1395 -0.1246  0.1639
 2845TIP3    H1 8492   6.634   4.391   3.098  0.0030 -0.0885  0.9942
 2845TIP3    H2 8493   6.665   4.253   3.045 -1.2632  0.5017 -1.4855
 2846TIP3   OH2 8494   5.821   3.768   5.066 -0.5244 -0.6717  0.7416
 2846TIP3    H1 8495   5.809   3.861   5.051 -2.2198 -0.6575  1.8935
 2846TIP3    H2 8496   5.882   3.763   5.140  1.2116 -0.5674 -0.6241
 2847TIP3   OH2 8497   5.527   4.736   2.252  0.2030 -0.0938 -0.3585
 2847TIP3    H1 8498   5.555   4.764   2.340  1.3753 -1.1557 -0.3695
 2847TIP3    H2 8499   5.529   4.817   2.201  0.1376  0.4308  0.4381
 2848TIP3   OH2 8500   7.141   7.369   4.558  0.0901  0.2606  0.4641
 2848TIP3    H1 8501   7.103   7.284   4.536 -0.1342  0.1452  1.2445
 2848TIP3    H2 8502   7.077   7.432   4.526  0.1197  0.1310  0.1399
 2849TIP3   OH2 8503   1.862   0.016   4.364 -0.3169  0.2985  0.3611
 2849TIP3    H1 8504   1.830   0.063   4.287 -0.4067 -0.9367 -0.3817
 2849TIP3    H2 8505   1.906   0.083   4.416  0.1662  1.0869 -0.9992
 2850TIP3   OH2 8506   3.923   1.855   0.979 -0.0612  0.5694  0.9238
 2850TIP3    H1 8507   3.975   1.776   0.995  0.1482  0.6166  0.4875
 2850TIP3    H2 8508   3.940   1.910   1.055 -0.9759 -0.2026  1.7200
 2851TIP3   OH2 8509   0.064   6.538   2.956  0.4973  0.0571 -0.3460
 2851TIP3    H1 8510   0.151   6.571   2.981 -0.5637  2.8396  0.0327
 2851TIP3    H2 8511   0.054   6.565   2.864  0.5868 -1.6498 -0.8974
 2852TIP3   OH2 8512   4.817   6.336   2.109 -0.4705 -0.9448 -0.4877
 2852TIP3    H1 8513   4.833   6.426   2.084  0.7029 -0.8801  0.4025
 2852TIP3    H2 8514   4.722   6.326   2.103 -0.6623  0.4735 -0.1789
 2853TIP3   OH2 8515   7.360   3.430   4.930  0.2595 -0.0166 -0.1010
 2853TIP3    H1 8516   7.395   3.518   4.916 -0.3052  0.2087 -0.1401
 2853TIP3    H2 8517   7.299   3.417   4.857  0.5765 -0.5639 -0.2684
 2854TIP3   OH2 8518   1.726   4.184   2.846  0.4814 -0.1202 -0.3786
 2854TIP3    H1 8519   1.680   4.142   2.773 -2.5498  1.0663  0.6628
 2854TIP3    H2 8520   1.690   4.143   2.924  0.2605  1.6921  0.5424
 2855TIP3   OH2 8521   4.773   2.023   3.332 -0.0234  0.3376 -0.3445
 2855TIP3    H1 8522   4.791   1.930   3.344  0.5330  0.2990 -1.3737
 2855TIP3    H2 8523   4.808   2.044   3.245 -1.2859  1.2135 -0.6737
 2856TIP3   OH2 8524   6.552   2.230   4.258  0.6426  0.7970 -0.4860
 2856TIP3    H1 8525   6.605   2.287   4.203  1.1187  1.3095  0.4660
 2856TIP3    H2 8526   6.592   2.143   4.248  1.1100  1.0058 -0.4713
 2857TIP3   OH2 8527   2.533   2.094   2.644  0.1948 -0.4325  0.2114
 2857TIP3    H1 8528   2.594   2.087   2.718 -1.0318 -1.0077  1.1959
 2857TIP3    H2 8529   2.462   2.150   2.675 -2.1130 -3.4247  0.7979
 2858TIP3   OH2 8530   1.560   1.998   4.387  0.5600 -0.4026  0.5834
 2858TIP3    H1 8531   1.556   2.093   4.378 -1.6417 -0.4896  0.1442
 2858TIP3    H2 8532   1.547   1.965   4.298  2.1408 -1.1515  0.5828
 2859TIP3   OH2 8533   1.893   3.419   0.435  0.1856 -0.5220 -0.1918
 2859TIP3    H1 8534   1.933   3.395   0.518  1.5394  0.0073 -0.6720
 2859TIP3    H2 8535   1.801   3.433   0.456  0.6039  0.1362  1.3366
 2860TIP3   OH2 8536   0.363   3.799   5.844  0.7696 -0.2919  0.3797
 2860TIP3    H1 8537   0.366   3.884   5.799  4.1261 -0.0545  0.8225
 2860TIP3    H2 8538   0.337   3.738   5.775  1.4248  0.6787 -0.7872
 2861TIP3   OH2 8539   4.166   0.247   5.892 -0.5647  0.5413  0.1687
 2861TIP3    H1 8540   4.188   0.200   5.812 -2.2767  0.3192 -0.2058
 2861TIP3    H2 8541   4.245   0.298   5.912  0.5523 -0.8185 -0.6059
 2862TIP3   OH2 8542   3.450   6.927   3.536  0.3326 -0.4724  0.3591
 2862TIP3    H1 8543   3.431   7.021   3.530 -3.2370 -1.1428 -1.3219
 2862TIP3    H2 8544   3.436   6.906   3.628 -0.7928  0.3304  0.3927
 2863TIP3   OH2 8545   1.621   2.345   6.275 -0.0786 -0.3525 -0.0353
 2863TIP3    H1 8546   1.706   2.321   6.238 -0.4191  0.7810 -1.6740
 2863TIP3    H2 8547   1.586   2.263   6.309  0.9042 -1.1886 -0.9518
 2864TIP3   OH2 8548   4.352   2.519   5.724  0.0410 -0.1287  0.3108
 2864TIP3    H1 8549   4.280   2.542   5.782 -0.8192 -0.6701 -0.5230
 2864TIP3    H2 8550   4.346   2.424   5.714  1.2478 -0.2753  0.6992
 2865TIP3   OH2 8551   6.783   6.641   0.705  0.0310  0.2072 -0.3847
 2865TIP3    H1 8552   6.701   6.659   0.750  0.9454  0.4999  1.2350
 2865TIP3    H2 8553   6.836   6.720   0.718  1.7175 -1.1267  1.3432
 2866TIP3   OH2 8554   3.596   2.957   6.557 -0.2263  0.1077 -0.8571
 2866TIP3    H1 8555   3.510   2.918   6.570 -0.1801 -0.2033 -1.4438
 2866TIP3    H2 8556   3.578   3.050   6.543 -0.4556  0.0698 -0.8183
 2867TIP3   OH2 8557   7.400   3.139   6.453  0.0779 -0.5895  0.2446
 2867TIP3    H1 8558   7.367   3.205   6.392 -0.5679  0.4321  1.6623
 2867TIP3    H2 8559   7.324   3.084   6.473 -0.1677  0.1624  1.4713
 2868TIP3   OH2 8560   7.205   0.294   6.184 -0.0327  0.6334 -0.1456
 2868TIP3    H1 8561   7.275   0.231   6.199 -0.7196  0.0845  0.8600
 2868TIP3    H2 8562   7.138   0.271   6.248 -1.4853  0.6233 -1.6132
 2869TIP3   OH2 8563   5.261   1.654   0.207 -0.4848  0.3833  0.2415
 2869TIP3    H1 8564   5.258   1.748   0.225  0.2807  0.1855  1.5004
 2869TIP3    H2 8565   5.353   1.635   0.191 -0.7466 -0.0165 -0.9224
 2870TIP3   OH2 8566   4.609   2.982   5.577 -0.4539 -0.2630 -0.4935
 2870TIP3    H1 8567   4.621   3.065   5.625 -1.2790 -0.5486  0.2289
 2870TIP3    H2 8568   4.515   2.967   5.579 -0.3023 -1.2654 -0.5607
 2871TIP3   OH2 8569   6.729   5.679   5.612  0.0609  0.1325 -0.7495
 2871TIP3    H1 8570   6.663   5.706   5.675 -0.4001 -1.7545 -0.3694
 2871TIP3    H2 8571   6.695   5.598   5.574  2.9664 -2.1082  0.9341
 2872TIP3   OH2 8572   2.128   2.364   1.986  0.0307  0.3163 -0.2040
 2872TIP3    H1 8573   2.098   2.455   1.994 -1.1448  0.1262 -1.8588
 2872TIP3    H2 8574   2.130   2.332   2.076  0.6825  2.0255  0.4389
 2873TIP3   OH2 8575   6.051   6.531   3.757  0.1377  0.0937 -0.1867
 2873TIP3    H1 8576   6.044   6.525   3.662  0.9269  0.7367 -0.3010
 2873TIP3    H2 8577   5.983   6.592   3.783  0.3645  0.4512 -0.4241
 2874TIP3   OH2 8578   1.438   5.790   5.235  0.0023 -0.6524  0.7262
 2874TIP3    H1 8579   1.480   5.805   5.150 -0.1717 -1.9838  0.3846
 2874TIP3    H2 8580   1.386   5.869   5.251  1.6071  0.4897  0.5622
 2875TIP3   OH2 8581   7.775   7.000   5.022 -0.2445  0.0962 -0.4015
 2875TIP3    H1 8582   7.818   6.952   4.952 -0.8798 -0.9062 -0.1277
 2875TIP3    H2 8583   7.687   6.962   5.027  0.2239 -0.9127  1.8782
 2876TIP3   OH2 8584   2.505   5.406   4.852  0.2805  0.8090 -0.4619
 2876TIP3    H1 8585   2.582   5.453   4.820  0.2105  0.3480 -1.3454
 2876TIP3    H2 8586   2.438   5.423   4.786  0.2692 -0.5644 -0.8416
 2877TIP3   OH2 8587   1.596   3.846   4.013  0.2621 -0.8143  0.4695
 2877TIP3    H1 8588   1.562   3.933   4.033 -0.1563 -0.8578 -0.0249
 2877TIP3    H2 8589   1.627   3.852   3.923 -0.5457 -1.3921  0.1342
 2878TIP3   OH2 8590   6.418   2.836   3.676 -0.2267 -0.2269  0.2350
 2878TIP3    H1 8591   6.419   2.884   3.759  0.6106 -1.0564  0.7288
 2878TIP3    H2 8592   6.353   2.767   3.690 -3.1547  1.9577 -1.2563
 2879TIP3   OH2 8593   3.338   3.291   0.916 -0.6684  0.0294 -0.1449
 2879TIP3    H1 8594   3.264   3.307   0.976 -0.2731 -1.9313  0.9323
 2879TIP3    H2 8595   3.366   3.202   0.935  1.5243  0.4598 -1.0592
 2880TIP3   OH2 8596   6.801   7.334   4.587  0.5117  0.8089  0.1777
 2880TIP3    H1 8597   6.718   7.289   4.569  0.5486  0.9070 -0.2398
 2880TIP3    H2 8598   6.822   7.310   4.677 -0.4778  1.5745  0.6368
 2881TIP3   OH2 8599   8.112   1.434   5.169 -0.5783  0.2810  0.0114
 2881TIP3    H1 8600   8.024   1.459   5.198 -0.3993  0.2536  0.5880
 2881TIP3    H2 8601   8.168   1.449   5.245 -0.0135  0.6623 -0.4606
 2882TIP3   OH2 8602   6.329   2.751   1.217 -0.4196 -0.4255 -0.5188
 2882TIP3    H1 8603   6.415   2.757   1.176 -0.1243 -2.3397 -0.2643
 2882TIP3    H2 8604   6.268   2.744   1.144 -0.4503  1.2869 -0.7131
 2883TIP3   OH2 8605   5.723   7.613   5.408 -0.0954 -0.0012 -0.8384
 2883TIP3    H1 8606   5.632   7.606   5.378  0.1148 -0.5866 -1.3754
 2883TIP3    H2 8607   5.718   7.599   5.503 -0.3079 -3.0553 -1.1709
 2884TIP3   OH2 8608   3.479   0.572   0.870  1.0096  0.2042  0.0696
 2884TIP3    H1 8609   3.453   0.619   0.791 -3.2532 -3.0605 -0.8169
 2884TIP3    H2 8610   3.522   0.493   0.837  0.6954 -0.3998  1.0753
 2885TIP3   OH2 8611   6.043   5.221   4.132  0.3803  0.1782 -0.2585
 2885TIP3    H1 8612   6.066   5.220   4.039  2.5607 -0.5890  0.2078
 2885TIP3    H2 8613   6.032   5.314   4.153 -0.3337  0.3427 -1.3091
 2886TIP3   OH2 8614   0.270   5.754   3.313 -0.4273 -0.2378  0.6773
 2886TIP3    H1 8615   0.273   5.845   3.284  0.3629  0.0998  1.7622
 2886TIP3    H2 8616   0.217   5.756   3.393 -1.1630 -0.8762  0.2119
 2887TIP3   OH2 8617   2.363   7.166   0.597  0.4470 -0.0478 -0.4309
 2887TIP3    H1 8618   2.409   7.244   0.628 -2.1320  0.5642  2.2965
 2887TIP3    H2 8619   2.316   7.195   0.519  2.3291  0.0446 -1.6006
 2888TIP3   OH2 8620   5.406   5.614   5.892 -0.2705  0.1708  0.5640
 2888TIP3    H1 8621   5.393   5.646   5.803 -0.7159 -1.9687 -0.2246
 2888TIP3    H2 8622   5.470   5.673   5.931 -0.5245  1.5085 -0.9711
 2889TIP3   OH2 8623   3.815   5.675   4.035  0.3860  0.3963  0.2238
 2889TIP3    H1 8624   3.742   5.704   3.980 -0.7426 -3.2772 -0.5469
 2889TIP3    H2 8625   3.795   5.709   4.122 -1.9704  0.0359 -0.1130
 2890TIP3   OH2 8626   0.859   3.297   0.317  0.5408 -0.3264 -0.1859
 2890TIP3    H1 8627   0.854   3.203   0.336  0.2460 -0.2662  0.0362
 2890TIP3    H2 8628   0.892   3.301   0.227  2.0884 -0.6105  0.3451
 2891TIP3   OH2 8629   1.959   4.739   0.100  0.3494 -0.6204  0.0133
 2891TIP3    H1 8630   1.967   4.689   0.019 -0.1982  0.7064 -0.9040
 2891TIP3    H2 8631   1.905   4.685   0.157  1.4964 -1.9873 -0.1303
 2892TIP3   OH2 8632   3.306   5.734   6.454  0.5578  0.2997 -0.0282
 2892TIP3    H1 8633   3.262   5.681   6.388 -2.4474  1.4417  0.8519
 2892TIP3    H2 8634   3.366   5.674   6.498  0.5346 -1.1738 -1.9105
 2893TIP3   OH2 8635   3.675   2.954   2.613  0.0239 -0.3081 -0.1786
 2893TIP3    H1 8636   3.618   3.004   2.555 -0.2406 -1.1214 -0.6408
 2893TIP3    H2 8637   3.735   2.908   2.554 -0.4106 -1.3492  0.1605
 2894TIP3   OH2 8638   6.563   0.140   0.476  0.6428  0.2713  0.1062
 2894TIP3    H1 8639   6.574   0.222   0.524  1.3602  0.3601 -0.2055
 2894TIP3    H2 8640   6.468   0.124   0.477  0.5753  0.6687  0.8836
 2895TIP3   OH2 8641   5.997   1.232   6.632  0.3559  0.1787  0.1592
 2895TIP3    H1 8642   6.033   1.273   6.553 -0.3152  2.8657  1.1470
 2895TIP3    H2 8643   5.922   1.182   6.601  1.8561 -1.3504 -1.2372
 2896TIP3   OH2 8644   2.396   3.745   2.504  0.7618 -0.2584  0.2095
 2896TIP3    H1 8645   2.348   3.767   2.424 -0.5567 -0.1179  1.0208
 2896TIP3    H2 8646   2.378   3.818   2.564  1.2715 -0.6397  0.8361
 2897TIP3   OH2 8647   5.359   4.194   1.572  0.2428 -0.4446 -0.5052
 2897TIP3    H1 8648   5.291   4.232   1.628 -0.3357 -0.6800 -1.0408
 2897TIP3    H2 8649   5.396   4.268   1.525 -0.0990 -0.3991 -0.7026
 2898TIP3   OH2 8650   6.010   2.383   6.183 -0.2934  0.1180 -0.4170
 2898TIP3    H1 8651   5.925   2.403   6.221 -0.3484  0.0130 -0.4852
 2898TIP3    H2 8652   6.071   2.389   6.257 -0.4527 -0.4489 -0.2344
 2899TIP3   OH2 8653   7.492   5.500   3.510 -0.3121  0.9289 -0.0975
 2899TIP3    H1 8654   7.497   5.420   3.458  1.6410  1.3638 -0.6477
 2899TIP3    H2 8655   7.466   5.470   3.597 -1.1621 -0.0918 -0.6730
 2900TIP3   OH2 8656   3.338   0.877   4.841  1.0206 -0.3165  0.3669
 2900TIP3    H1 8657   3.336   0.853   4.749 -1.0557 -0.1330  0.3011
 2900TIP3    H2 8658   3.305   0.967   4.843  2.4281  0.2076  1.1793
 2901TIP3   OH2 8659   6.475   6.115   1.566  0.1566 -0.0100 -0.2757
 2901TIP3    H1 8660   6.567   6.138   1.555  0.5518 -0.5871  1.4300
 2901TIP3    H2 8661   6.475   6.021   1.582 -0.8339 -0.1786 -1.1736
 2902TIP3   OH2 8662   1.079   1.261   0.372 -0.0407  0.3433 -0.2070
 2902TIP3    H1 8663   1.086   1.169   0.347  0.1024  0.1655  0.4555
 2902TIP3    H2 8664   0.989   1.286   0.348  0.3164  0.4045 -1.5563
 2903TIP3   OH2 8665   6.251   3.700   2.159 -0.2796 -0.0825  0.0750
 2903TIP3    H1 8666   6.320   3.736   2.214 -1.1063  1.1431  0.3471
 2903TIP3    H2 8667   6.218   3.624   2.207 -1.6973  1.5635  1.8364
 2904TIP3   OH2 8668   6.184   3.873   6.374  0.4708  0.3409  0.4218
 2904TIP3    H1 8669   6.225   3.957   6.353 -1.7655  1.1653 -0.9106
 2904TIP3    H2 8670   6.257   3.818   6.405  2.4826  1.8870 -1.2803
 2905TIP3   OH2 8671   2.017   5.211   6.707  0.4701 -0.3464 -0.3081
 2905TIP3    H1 8672   2.044   5.277   6.770  3.4810 -1.4697 -0.2428
 2905TIP3    H2 8673   2.030   5.128   6.752 -1.5229 -1.1094 -0.9943
 2906TIP3   OH2 8674   7.709   7.232   2.939  0.0210  0.2434 -0.6015
 2906TIP3    H1 8675   7.784   7.211   2.995 -0.4193  1.0185  0.3008
 2906TIP3    H2 8676   7.632   7.208   2.992 -0.4166  1.5442 -0.6267
 2907TIP3   OH2 8677   5.111   0.131   3.444 -0.3654 -0.2943 -0.0375
 2907TIP3    H1 8678   5.024   0.108   3.412 -0.2638  1.9448 -2.3318
 2907TIP3    H2 8679   5.095   0.187   3.520 -0.9451 -0.0046 -0.3671
 2908TIP3   OH2 8680   1.685   2.318   3.019  0.1413 -0.0191 -0.1684
 2908TIP3    H1 8681   1.652   2.386   3.077  1.3705 -0.3805  1.0122
 2908TIP3    H2 8682   1.699   2.363   2.936 -0.7649  0.7330  0.0685
 2909TIP3   OH2 8683   5.906   1.501   3.929  0.1511 -0.1362 -0.1878
 2909TIP3    H1 8684   5.919   1.427   3.869 -0.8081 -0.4807  0.0180
 2909TIP3    H2 8685   5.857   1.565   3.878  1.1179  0.4455 -0.4164
 2910TIP3   OH2 8686   3.631   4.294   2.513  0.4782 -0.0770 -0.1915
 2910TIP3    H1 8687   3.691   4.311   2.441 -0.2758 -0.6743 -0.9900
 2910TIP3    H2 8688   3.546   4.283   2.471 -0.0080 -0.2663  0.8070
 2911TIP3   OH2 8689   0.102   3.704   4.337 -0.2958  0.1568  0.1735
 2911TIP3    H1 8690   0.154   3.736   4.263  0.8867 -1.2421  0.3432
 2911TIP3    H2 8691   0.165   3.690   4.407 -1.1480 -0.1331  0.9106
 2912TIP3   OH2 8692   2.982   4.555   3.637 -0.1580 -0.0988  0.8405
 2912TIP3    H1 8693   2.966   4.507   3.719 -0.1591 -0.0374  0.8766
 2912TIP3    H2 8694   3.040   4.498   3.587 -2.9127 -1.8520 -0.6578
 2913TIP3   OH2 8695   2.281   7.622   5.623  0.0411 -0.3283 -0.3850
 2913TIP3    H1 8696   2.359   7.577   5.654  0.3310  0.6781  0.3849
 2913TIP3    H2 8697   2.232   7.644   5.703 -1.0356 -0.9330 -0.8501
 2914TIP3   OH2 8698   5.312   6.075   3.383 -0.3671  0.2863  0.1092
 2914TIP3    H1 8699   5.252   6.007   3.353 -0.0711 -0.9864  2.1944
 2914TIP3    H2 8700   5.261   6.156   3.378 -1.8403 -0.5811  0.6310
 2915TIP3   OH2 8701   0.478   0.100   2.592  0.2688 -0.1534 -0.2829
 2915TIP3    H1 8702   0.441   0.020   2.555 -2.7344  1.2691 -0.6503
 2915TIP3    H2 8703   0.461   0.167   2.526 -1.3614  1.6260  1.7887
 2916TIP3   OH2 8704   5.953   6.029   6.276  0.3270 -0.4576  0.8009
 2916TIP3    H1 8705   5.972   5.973   6.351 -0.0058 -0.0507  1.1914
 2916TIP3    H2 8706   5.934   6.115   6.314  1.0568 -0.0134  0.2008
 2917TIP3   OH2 8707   7.145   7.486   6.708 -0.0502 -0.1256  0.1094
 2917TIP3    H1 8708   7.132   7.578   6.687 -0.2680 -0.5218 -1.6282
 2917TIP3    H2 8709   7.076   7.466   6.770  0.0936  0.9086  0.6256
 2918TIP3   OH2 8710   1.391   2.146   4.943 -0.0169  0.2335  0.1205
 2918TIP3    H1 8711   1.473   2.182   4.975  1.7035 -2.2735 -1.0830
 2918TIP3    H2 8712   1.395   2.156   4.847 -0.7004 -0.6491 -0.0231
 2919TIP3   OH2 8713   5.225   5.259   0.598 -0.1878 -0.1726  0.4411
 2919TIP3    H1 8714   5.159   5.221   0.656 -1.4863 -0.0588 -0.9004
 2919TIP3    H2 8715   5.209   5.218   0.513 -0.8414  2.3905 -0.7722
 2920TIP3   OH2 8716   8.035   1.905   1.055  0.0510  0.5987 -0.1629
 2920TIP3    H1 8717   7.968   1.849   1.016  0.8420  0.2998 -1.1633
 2920TIP3    H2 8718   8.006   1.994   1.039  1.7056  0.6473 -4.2843
 2921TIP3   OH2 8719   3.229   1.285   6.260 -0.3293 -0.6554 -0.0313
 2921TIP3    H1 8720   3.313   1.325   6.286 -0.7885  0.3313 -0.0149
 2921TIP3    H2 8721   3.207   1.328   6.177 -0.7304 -1.0473 -0.1303
 2922TIP3   OH2 8722   3.770   3.278   1.602  0.5803  0.0653 -1.1165
 2922TIP3    H1 8723   3.690   3.255   1.554  0.5753 -0.7893 -0.7083
 2922TIP3    H2 8724   3.818   3.195   1.611  1.4746  0.5514 -1.2778
 2923TIP3   OH2 8725   7.597   5.770   0.619 -0.2326  0.2561  0.5291
 2923TIP3    H1 8726   7.512   5.812   0.630 -1.3122 -1.5824 -0.3150
 2923TIP3    H2 8727   7.578   5.690   0.570  2.0632  0.0461 -0.1390
 2924TIP3   OH2 8728   0.150   6.324   4.528  0.7655  0.3304 -0.3434
 2924TIP3    H1 8729   0.226   6.325   4.587  0.8445 -0.1778 -0.4292
 2924TIP3    H2 8730   0.106   6.407   4.544  2.3706  1.4951 -1.6448
 2925TIP3   OH2 8731   0.807   3.406   4.564 -0.3667 -0.5029 -0.0434
 2925TIP3    H1 8732   0.717   3.406   4.596 -0.6933 -0.8910 -0.9370
 2925TIP3    H2 8733   0.799   3.414   4.469  0.5758  0.3845 -0.0670
 2926TIP3   OH2 8734   1.400   1.815   0.523 -0.2200 -0.3266 -0.0285
 2926TIP3    H1 8735   1.430   1.743   0.469 -1.5544 -0.6261 -0.4022
 2926TIP3    H2 8736   1.305   1.816   0.511 -0.2076  1.6911 -0.2882
 2927TIP3   OH2 8737   4.257   1.285   2.713 -0.4728  0.1082  0.0071
 2927TIP3    H1 8738   4.287   1.376   2.706 -2.2082  0.7176  0.0905
 2927TIP3    H2 8739   4.193   1.275   2.642 -0.3505 -1.0386  0.0375
 2928TIP3   OH2 8740   2.399   2.104   1.176  0.2936 -0.1824 -0.2859
 2928TIP3    H1 8741   2.425   2.183   1.130  1.0875  0.7690  1.6552
 2928TIP3    H2 8742   2.313   2.082   1.141 -1.2238  3.1569  0.9571
 2929TIP3   OH2 8743   6.883   3.456   2.203 -0.1153  0.4787 -0.0639
 2929TIP3    H1 8744   6.955   3.393   2.210  0.7398  1.0489 -2.7541
 2929TIP3    H2 8745   6.819   3.425   2.267  1.4627 -1.4887  0.6788
 2930TIP3   OH2 8746   0.929   0.203   2.785 -0.3690 -0.1575 -0.1319
 2930TIP3    H1 8747   1.005   0.146   2.797 -0.1662  0.3169  0.9914
 2930TIP3    H2 8748   0.896   0.218   2.874 -0.2444  1.7154 -0.3645
 2931TIP3   OH2 8749   5.667   5.168   6.361 -0.8266 -0.1179  0.2132
 2931TIP3    H1 8750   5.626   5.250   6.335  0.0368  0.6377  1.1710
 2931TIP3    H2 8751   5.760   5.189   6.369 -0.4721 -1.3860 -0.3013
 2932TIP3   OH2 8752   5.983   5.029   6.216  0.3103 -0.1302  0.2962
 2932TIP3    H1 8753   5.948   5.085   6.147  1.4946  0.2387 -0.0118
 2932TIP3    H2 8754   6.033   5.087   6.272 -2.1608 -0.0207  2.6450
 2933TIP3   OH2 8755   3.170   4.453   2.241 -0.0362  0.3949 -0.4502
 2933TIP3    H1 8756   3.091   4.485   2.197 -1.0478 -0.7881  0.4372
 2933TIP3    H2 8757   3.192   4.522   2.304 -1.3191  0.0577  0.4057
 2934TIP3   OH2 8758   6.876   6.944   1.157 -0.5632  0.3138  0.0004
 2934TIP3    H1 8759   6.938   6.896   1.213 -1.7637  0.4485  1.5201
 2934TIP3    H2 8760   6.831   6.875   1.107 -1.7128 -0.1479  1.5878
 2935TIP3   OH2 8761   2.088   3.690   6.234 -0.5594 -0.2749  0.4343
 2935TIP3    H1 8762   2.008   3.696   6.286 -0.0439 -0.6982  1.3049
 2935TIP3    H2 8763   2.069   3.623   6.168 -0.7499 -0.7900  0.9969
 2936TIP3   OH2 8764   7.355   7.127   1.800  0.1391 -0.3022 -0.3115
 2936TIP3    H1 8765   7.391   7.158   1.718 -0.1545 -1.3054 -0.8414
 2936TIP3    H2 8766   7.309   7.046   1.777 -1.2868  0.2218  0.5670
 2937TIP3   OH2 8767   0.612   4.273   5.878  0.0581 -0.6871 -0.2317
 2937TIP3    H1 8768   0.595   4.359   5.840 -0.7217 -0.3939  0.7216
 2937TIP3    H2 8769   0.529   4.249   5.920  0.7058 -1.2314  0.7832
 2938TIP3   OH2 8770   3.048   7.581   2.045  0.2710  0.1150 -0.2835
 2938TIP3    H1 8771   3.073   7.661   1.999  0.2646  0.0004 -0.4856
 2938TIP3    H2 8772   3.024   7.519   1.976 -2.2902  0.7722 -0.0478
 2939TIP3   OH2 8773   4.897   7.276   1.067  0.2957  0.1065 -0.2343
 2939TIP3    H1 8774   4.943   7.302   1.147  0.8381  1.7823 -1.0478
 2939TIP3    H2 8775   4.943   7.322   0.997 -1.4188  0.2958 -1.2954
 2940TIP3   OH2 8776   5.027   5.910   3.556  0.1059  0.3880 -0.8726
 2940TIP3    H1 8777   4.961   5.855   3.514  0.4040  0.1001 -0.9671
 2940TIP3    H2 8778   5.086   5.935   3.485  0.6502 -0.1538 -0.6173
 2941TIP3   OH2 8779   0.451   6.241   3.930 -0.8133  0.1707  0.1776
 2941TIP3    H1 8780   0.542   6.266   3.914 -1.2803  1.9004  0.0820
 2941TIP3    H2 8781   0.446   6.231   4.026 -0.9724  2.0931  0.4105
 2942TIP3   OH2 8782   6.715   6.154   6.374 -0.2832 -0.6782  0.5602
 2942TIP3    H1 8783   6.668   6.095   6.433  1.1860 -2.4263  0.0558
 2942TIP3    H2 8784   6.784   6.100   6.336  1.0452  1.3525 -0.0395
 2943TIP3   OH2 8785   0.867   7.755   5.219 -0.1430  0.0080 -0.0502
 2943TIP3    H1 8786   0.863   7.701   5.140 -0.5583  0.4163 -0.3166
 2943TIP3    H2 8787   0.895   7.841   5.188 -0.8222  0.3117  0.1683
 2944TIP3   OH2 8788   5.165   0.801   4.825  0.3725  0.4961 -0.7878
 2944TIP3    H1 8789   5.189   0.886   4.864 -1.3848  0.5377  0.3122
 2944TIP3    H2 8790   5.104   0.763   4.888  1.8223 -2.0452 -0.7891
 2945TIP3   OH2 8791   4.720   0.542   2.921 -0.1341 -0.0990 -0.2538
 2945TIP3    H1 8792   4.659   0.569   2.990 -0.4618 -0.3518 -0.4408
 2945TIP3    H2 8793   4.760   0.624   2.891  0.4987 -0.0514  0.6823
 2946TIP3   OH2 8794   5.767   3.864   4.619 -0.2589  0.0230 -0.1048
 2946TIP3    H1 8795   5.675   3.879   4.599 -1.1033 -3.0527  0.9438
 2946TIP3    H2 8796   5.767   3.790   4.680  2.8245  1.0455  1.3836
 2947TIP3   OH2 8797   3.999   5.218   0.749  0.0546  0.5666 -0.0502
 2947TIP3    H1 8798   4.080   5.185   0.788  0.2421 -0.2357 -1.0796
 2947TIP3    H2 8799   4.023   5.304   0.712  0.0590  0.9889  0.9167
 2948TIP3   OH2 8800   6.396   4.470   2.233 -0.5104  0.5187  0.1372
 2948TIP3    H1 8801   6.462   4.415   2.274 -0.8572 -0.0662 -0.0713
 2948TIP3    H2 8802   6.322   4.470   2.295 -0.4555  0.8866  0.2101
 2949TIP3   OH2 8803   2.466   2.418   0.458  0.8388 -0.4605  0.1384
 2949TIP3    H1 8804   2.553   2.397   0.424  0.9957  1.5279 -0.8745
 2949TIP3    H2 8805   2.462   2.514   0.453 -1.6584 -0.5419 -0.5228
 2950TIP3   OH2 8806   7.990   4.897   2.893 -0.0671 -0.1369  0.1306
 2950TIP3    H1 8807   7.964   4.966   2.954 -2.3283 -1.9103  1.3784
 2950TIP3    H2 8808   7.985   4.937   2.807  0.1779  1.6298  0.8927
 2951TIP3   OH2 8809   5.003   2.374   2.603 -0.1413 -0.2956  0.3301
 2951TIP3    H1 8810   5.025   2.304   2.542  0.4904  0.0749  0.1305
 2951TIP3    H2 8811   4.915   2.351   2.635  1.6897 -3.6109  3.7233
 2952TIP3   OH2 8812   7.899   6.959   0.597  0.2471 -0.3872  0.1851
 2952TIP3    H1 8813   7.809   6.925   0.602 -0.8634  2.4224  0.8909
 2952TIP3    H2 8814   7.950   6.895   0.647 -1.8025 -0.7608  1.9943
 2953TIP3   OH2 8815   0.161   4.869   0.523  0.2845 -0.0574  0.0925
 2953TIP3    H1 8816   0.209   4.787   0.512 -0.0005 -0.1665 -0.3167
 2953TIP3    H2 8817   0.080   4.844   0.568 -0.6634 -0.2829 -1.6736
 2954TIP3   OH2 8818   7.454   1.034   0.559 -0.0537 -0.6373  0.4654
 2954TIP3    H1 8819   7.362   1.014   0.574  0.0281 -1.4498 -0.0615
 2954TIP3    H2 8820   7.479   1.089   0.634 -1.4506  1.2229 -0.3498
 2955TIP3   OH2 8821   5.650   6.161   2.124 -0.3004 -0.0839 -0.2639
 2955TIP3    H1 8822   5.629   6.069   2.105  0.7906 -0.3550 -0.2121
 2955TIP3    H2 8823   5.715   6.157   2.193 -2.0237  0.8307  1.5049
 2956TIP3   OH2 8824   8.265   5.278   2.870 -0.0750  0.1693  0.6369
 2956TIP3    H1 8825   8.238   5.316   2.954  0.4719 -0.4170  1.0953
 2956TIP3    H2 8826   8.335   5.336   2.839 -0.4093  0.4944  0.4921
 2957TIP3   OH2 8827   6.729   3.894   4.535 -0.0056 -0.4157 -0.4452
 2957TIP3    H1 8828   6.785   3.971   4.524  0.8590 -0.8328  0.7758
 2957TIP3    H2 8829   6.780   3.821   4.499 -0.8931 -0.4201 -1.7634
 2958TIP3   OH2 8830   3.587   4.249   2.997  0.0232 -0.3038 -0.0467
 2958TIP3    H1 8831   3.544   4.298   2.926  0.6094 -0.5561 -0.5872
 2958TIP3    H2 8832   3.626   4.173   2.953  0.1831 -0.5963  0.5897
 2959TIP3   OH2 8833   5.339   5.126   5.336 -0.0200  0.0052 -0.3390
 2959TIP3    H1 8834   5.358   5.051   5.280  0.5545 -0.8017  0.8754
 2959TIP3    H2 8835   5.255   5.160   5.304 -0.6337 -1.5764 -0.4914
 2960TIP3   OH2 8836   4.630   2.956   4.336 -0.1966  0.1204  0.0527
 2960TIP3    H1 8837   4.640   3.028   4.398  0.3276  0.6788 -0.6679
 2960TIP3    H2 8838   4.718   2.941   4.302 -0.3562 -0.6508 -0.0409
 2961TIP3   OH2 8839   6.689   7.465   3.709 -0.1063  0.6723 -0.3679
 2961TIP3    H1 8840   6.765   7.417   3.739  0.4121  2.9434  2.3494
 2961TIP3    H2 8841   6.718   7.556   3.705 -2.0889  1.3230 -1.4169
 2962TIP3   OH2 8842   5.630   4.177   6.111  0.7581 -0.3715  0.1275
 2962TIP3    H1 8843   5.630   4.268   6.140 -3.1738 -0.4426  0.8949
 2962TIP3    H2 8844   5.620   4.126   6.192 -0.8030 -1.2000 -0.5512
 2963TIP3   OH2 8845   0.158   1.008   0.827  0.0979 -0.6025  0.1000
 2963TIP3    H1 8846   0.230   0.961   0.784  0.8473 -0.9544  1.6763
 2963TIP3    H2 8847   0.170   0.989   0.920 -1.0446  0.7310  0.5370
 2964TIP3   OH2 8848   6.472   6.814   6.054  0.1679 -0.4667  0.5536
 2964TIP3    H1 8849   6.418   6.811   6.134 -0.7284  2.6618  0.1929
 2964TIP3    H2 8850   6.553   6.770   6.079 -1.5287 -3.0978  1.9051
 2965TIP3   OH2 8851   1.446   3.363   3.920 -0.1338 -0.2174 -0.1187
 2965TIP3    H1 8852   1.535   3.381   3.892  0.0481 -1.3968 -0.3565
 2965TIP3    H2 8853   1.421   3.284   3.873 -1.7965  0.8097 -1.0717
 2966TIP3   OH2 8854   3.019   1.062   0.254 -0.1846 -0.1078  0.3005
 2966TIP3    H1 8855   3.087   1.062   0.186 -0.0335  0.2209  0.4468
 2966TIP3    H2 8856   2.948   1.010   0.217 -0.2061  0.2762 -0.2104
 2967TIP3   OH2 8857   0.630   2.066   5.844  0.5871 -0.2970 -0.4615
 2967TIP3    H1 8858   0.692   2.122   5.891  3.1533 -2.9120 -0.3544
 2967TIP3    H2 8859   0.545   2.107   5.856  2.0837  2.7176  0.7405
 2968TIP3   OH2 8860   0.406   1.056   1.543  0.0568  0.1791  0.5093
 2968TIP3    H1 8861   0.340   1.120   1.571  0.6835  0.9700  0.2163
 2968TIP3    H2 8862   0.456   1.102   1.475  0.3171 -0.7388  0.0714
 2969TIP3   OH2 8863   2.519   2.616   6.653  0.3448  0.0811 -0.4370
 2969TIP3    H1 8864   2.496   2.660   6.736  1.6086  0.0460 -0.0511
 2969TIP3    H2 8865   2.483   2.528   6.663  2.1921 -0.5919  0.9717
 2970TIP3   OH2 8866   1.161   4.687   2.542 -0.1604 -0.7726  0.1860
 2970TIP3    H1 8867   1.099   4.758   2.557 -0.1014 -0.3191 -1.5605
 2970TIP3    H2 8868   1.132   4.646   2.460  1.6422 -0.7494 -0.5062
 2971TIP3   OH2 8869   0.847   6.358   0.844  0.2834  0.2716 -0.0300
 2971TIP3    H1 8870   0.820   6.357   0.936 -0.6615  0.2798 -0.2967
 2971TIP3    H2 8871   0.893   6.441   0.834  0.0300  0.4638  0.3440
 2972TIP3   OH2 8872   4.663   2.727   6.117 -0.0901  0.1183  0.1040
 2972TIP3    H1 8873   4.665   2.759   6.027  0.3364 -1.4151 -0.4498
 2972TIP3    H2 8874   4.575   2.751   6.148 -0.4958  0.0431 -0.9470
 2973TIP3   OH2 8875   6.141   1.790   2.443  0.2433  0.0670  0.9307
 2973TIP3    H1 8876   6.131   1.726   2.514 -1.2217 -1.1851 -0.3339
 2973TIP3    H2 8877   6.221   1.763   2.398  0.4653  0.0704  1.3180
 2974TIP3   OH2 8878   1.644   3.383   2.029 -0.2739 -0.6531 -0.3186
 2974TIP3    H1 8879   1.683   3.423   1.951 -1.6796 -0.1368 -0.7921
 2974TIP3    H2 8880   1.716   3.377   2.092  0.1620  2.0620 -0.4529
 2975TIP3   OH2 8881   2.036   5.612   5.505 -0.5746 -0.3240  0.0071
 2975TIP3    H1 8882   2.118   5.645   5.469  0.0144  1.0903  2.4580
 2975TIP3    H2 8883   1.969   5.639   5.441  0.6252  0.1331 -1.0989
 2976TIP3   OH2 8884   3.447   4.793   2.987  0.2911  0.0411 -0.4425
 2976TIP3    H1 8885   3.541   4.796   3.000  0.5287  0.6869 -2.0279
 2976TIP3    H2 8886   3.411   4.852   3.053  0.9001 -0.9172  0.7710
 2977TIP3   OH2 8887   8.278   5.841   3.791 -0.1941  0.5204 -0.0365
 2977TIP3    H1 8888   8.229   5.906   3.741  0.1203 -0.6243 -1.9772
 2977TIP3    H2 8889   8.226   5.761   3.783  1.0739 -0.2901 -0.6792
 2978TIP3   OH2 8890   4.103   4.771   3.901  0.7217 -0.2039  0.3597
 2978TIP3    H1 8891   4.032   4.719   3.864  0.3391 -0.1717  1.0481
 2978TIP3    H2 8892   4.121   4.731   3.986  1.1309  0.1463  0.4437
 2979TIP3   OH2 8893   4.124   1.011   2.279 -0.3266 -0.4684 -0.3992
 2979TIP3    H1 8894   4.043   1.039   2.322  0.8055  1.1041  0.8349
 2979TIP3    H2 8895   4.168   0.957   2.344  0.1929 -0.2653 -0.5800
 2980TIP3   OH2 8896   4.148   6.630   0.772  0.4780  0.0400  0.0911
 2980TIP3    H1 8897   4.090   6.608   0.700  0.5549 -0.4322  0.1669
 2980TIP3    H2 8898   4.127   6.567   0.840 -1.0647  1.7566  1.3045
 2981TIP3   OH2 8899   5.120   4.745   5.549 -0.3179 -0.3325  0.2952
 2981TIP3    H1 8900   5.090   4.832   5.576  0.0731 -0.4788  1.2634
 2981TIP3    H2 8901   5.042   4.703   5.512 -0.4136  0.5578 -0.5329
 2982TIP3   OH2 8902   6.521   6.650   5.472  0.7511 -0.0312 -0.0442
 2982TIP3    H1 8903   6.526   6.651   5.377  0.4574  0.0517 -0.0604
 2982TIP3    H2 8904   6.553   6.735   5.499  0.0283  0.2727 -0.1147
 2983TIP3   OH2 8905   5.854   5.040   0.081  0.1640 -0.0743 -0.2642
 2983TIP3    H1 8906   5.814   5.099   0.145 -1.0592  0.1457 -1.1933
 2983TIP3    H2 8907   5.941   5.076   0.066  1.5272 -1.5531  3.1317
 2984TIP3   OH2 8908   2.325   7.386   4.599 -0.0922  0.4834  0.7410
 2984TIP3    H1 8909   2.374   7.366   4.678  1.3766 -0.0086 -0.2613
 2984TIP3    H2 8910   2.365   7.466   4.566  0.0958  0.0411 -0.1237
 2985TIP3   OH2 8911   6.266   0.535   2.591 -0.0976  0.1746  0.1601
 2985TIP3    H1 8912   6.265   0.441   2.577 -1.3083  0.0507  0.9076
 2985TIP3    H2 8913   6.226   0.572   2.512  1.0225  0.1340 -0.4449
 2986TIP3   OH2 8914   3.498   5.305   0.154  0.0864  0.1151 -0.4674
 2986TIP3    H1 8915   3.448   5.375   0.197 -1.2440 -0.2936 -1.2911
 2986TIP3    H2 8916   3.546   5.263   0.225  1.1311  1.9999  0.0180
 2987TIP3   OH2 8917   6.178   6.406   4.219 -0.2829 -0.1232  0.0905
 2987TIP3    H1 8918   6.225   6.323   4.217 -0.7232 -0.3668 -0.3835
 2987TIP3    H2 8919   6.213   6.456   4.146  1.6690  1.0763  1.7355
 2988TIP3   OH2 8920   3.086   1.023   1.717  0.2434 -0.3207  0.4192
 2988TIP3    H1 8921   3.017   1.053   1.776 -1.0308  1.4332 -1.8071
 2988TIP3    H2 8922   3.155   1.089   1.724  1.3023 -1.5316  1.8774
 2989TIP3   OH2 8923   2.909   5.110   2.133 -0.7052  0.2795 -0.3682
 2989TIP3    H1 8924   2.958   5.087   2.212 -0.0611  0.2680 -0.7691
 2989TIP3    H2 8925   2.887   5.026   2.093 -0.3456  0.3001 -0.6152
 2990TIP3   OH2 8926   0.458   7.391   2.856 -0.1664 -0.0126  0.3585
 2990TIP3    H1 8927   0.393   7.458   2.875  1.3668  1.2720  1.2750
 2990TIP3    H2 8928   0.481   7.406   2.764  0.6824  1.2288  0.7459
 2991TIP3   OH2 8929   7.554   3.763   2.700 -0.1129  0.5429  0.5271
 2991TIP3    H1 8930   7.470   3.733   2.733 -0.7317  0.8459 -0.6960
 2991TIP3    H2 8931   7.539   3.855   2.676  0.5669  0.6080  0.3317
 2992TIP3   OH2 8932   5.404   5.100   2.286  0.4409 -0.3250  0.1630
 2992TIP3    H1 8933   5.384   5.035   2.218  0.1411 -0.9174  0.8102
 2992TIP3    H2 8934   5.319   5.132   2.314  0.5311 -0.5998  0.7567
 2993TIP3   OH2 8935   8.117   5.510   2.465  0.1966 -0.2070  0.2664
 2993TIP3    H1 8936   8.027   5.486   2.444  1.0035 -2.8168 -0.5538
 2993TIP3    H2 8937   8.167   5.489   2.386  1.6525  0.5162  0.9468
 2994TIP3   OH2 8938   1.280   0.884   0.823 -0.5214  0.1185  0.1035
 2994TIP3    H1 8939   1.316   0.973   0.822 -0.2905  0.0321  0.4815
 2994TIP3    H2 8940   1.257   0.869   0.915 -0.3636 -0.2891  0.0757
 2995TIP3   OH2 8941   1.414   4.364   2.638  0.5674 -0.6984 -0.0054
 2995TIP3    H1 8942   1.491   4.363   2.694  0.8909 -2.4442 -0.4407
 2995TIP3    H2 8943   1.449   4.375   2.549  0.1073  1.2899  0.0160
 2996TIP3   OH2 8944   2.813   7.531   3.025 -0.2982  0.3251 -0.0499
 2996TIP3    H1 8945   2.772   7.553   3.109  0.3000  0.3798  0.2381
 2996TIP3    H2 8946   2.888   7.590   3.019  0.7988 -0.9745  0.2981
 2997TIP3   OH2 8947   4.548   6.403   4.144  0.0942 -0.0421 -0.4647
 2997TIP3    H1 8948   4.608   6.478   4.149  2.5549 -1.9090  0.7089
 2997TIP3    H2 8949   4.551   6.377   4.052  0.3599  0.4467 -0.6015
 2998TIP3   OH2 8950   0.637   3.905   2.527  0.3794  0.0041 -0.1669
 2998TIP3    H1 8951   0.586   3.979   2.559  2.2570  2.8225 -3.0035
 2998TIP3    H2 8952   0.728   3.933   2.537  1.1470 -1.7220 -1.7584
 2999TIP3   OH2 8953   0.121   4.591   4.034  0.6311  0.0724  0.6349
 2999TIP3    H1 8954   0.052   4.655   4.015  1.3290  0.7628  0.3291
 2999TIP3    H2 8955   0.078   4.522   4.084 -0.4698  0.0465 -0.3044
 3000TIP3   OH2 8956   3.204   1.935   6.227 -0.1097 -0.6398  0.0132
 3000TIP3    H1 8957   3.135   1.978   6.176  0.7280 -0.0813 -0.6861
 3000TIP3    H2 8958   3.265   1.902   6.161  0.7613 -0.3068  0.6384
 3001TIP3   OH2 8959   2.589   1.976   2.406  0.0609  0.1195 -0.1266
 3001TIP3    H1 8960   2.673   1.938   2.433  0.5326  0.5105 -1.0060
 3001TIP3    H2 8961   2.551   2.010   2.488 -0.0977 -1.6564  0.5739
 3002TIP3   OH2 8962   0.784   2.444   0.554  0.1729  0.4104  0.2926
 3002TIP3    H1 8963   0.743   2.524   0.585  1.3657  0.7025  1.1959
 3002TIP3    H2 8964   0.856   2.429   0.615  0.3669 -0.9982 -0.2443
 3003TIP3   OH2 8965   2.091   5.039   3.595 -0.0443  0.2116  0.0824
 3003TIP3    H1 8966   2.063   5.128   3.616  1.4301  0.4772  0.9846
 3003TIP3    H2 8967   2.116   5.000   3.679 -1.1150 -1.2486 -0.2185
 3004TIP3   OH2 8968   5.475   7.338   1.588 -0.3062 -0.5616  0.1929
 3004TIP3    H1 8969   5.413   7.269   1.610 -0.8752  0.0898  0.6658
 3004TIP3    H2 8970   5.420   7.413   1.564  0.2842 -0.6555 -1.6406
 3005TIP3   OH2 8971   7.331   2.687   3.959  0.1154  0.9591 -0.5015
 3005TIP3    H1 8972   7.255   2.635   3.933  0.1432 -0.5377  2.0407
 3005TIP3    H2 8973   7.406   2.638   3.926  0.0582  0.7067 -0.2641
 3006TIP3   OH2 8974   4.778   1.781   3.942  0.0929 -0.4964  0.0955
 3006TIP3    H1 8975   4.752   1.871   3.920  1.0274 -0.3775 -0.5582
 3006TIP3    H2 8976   4.775   1.778   4.038 -0.5096  0.0518  0.1024
 3007TIP3   OH2 8977   6.736   4.894   2.888 -0.0940  0.6029 -0.0185
 3007TIP3    H1 8978   6.649   4.861   2.870  0.0521  1.1864 -1.9602
 3007TIP3    H2 8979   6.746   4.885   2.983 -1.1564 -2.1210 -0.0833
 3008TIP3   OH2 8980   2.826   7.268   2.971  0.3386 -0.8688 -0.0161
 3008TIP3    H1 8981   2.751   7.237   3.021  1.8808 -1.3629  2.0927
 3008TIP3    H2 8982   2.810   7.362   2.960 -0.0303 -0.7416  1.4489
 3009TIP3   OH2 8983   6.097   2.945   0.913 -0.3914 -0.5427 -0.1266
 3009TIP3    H1 8984   6.139   2.989   0.987 -0.9067  1.0294 -0.7228
 3009TIP3    H2 8985   6.129   2.855   0.917  1.6299  0.1456  0.4872
 3010TIP3   OH2 8986   8.082   1.930   2.793  0.3204 -0.2800  0.2471
 3010TIP3    H1 8987   8.092   1.935   2.888  0.1461 -0.8638  0.3026
 3010TIP3    H2 8988   8.120   1.845   2.769 -0.7697 -0.7166 -0.0353
 3011TIP3   OH2 8989   4.169   4.366   5.842 -0.5106  0.2663  0.5511
 3011TIP3    H1 8990   4.238   4.310   5.878 -1.9344 -1.5798  0.5555
 3011TIP3    H2 8991   4.142   4.322   5.761 -0.6277  1.8218 -0.3064
 3012TIP3   OH2 8992   2.613   3.834   2.725  0.2538  0.4991 -0.3624
 3012TIP3    H1 8993   2.630   3.749   2.686 -1.1178  0.5153 -1.0493
 3012TIP3    H2 8994   2.643   3.897   2.659  0.0841  0.5428 -0.3981
 3013TIP3   OH2 8995   3.371   2.207   5.602 -1.0110  0.9399  0.3041
 3013TIP3    H1 8996   3.422   2.169   5.530 -0.4961  1.3337  0.4570
 3013TIP3    H2 8997   3.347   2.294   5.571 -1.1389  0.9579  0.4528
 3014TIP3   OH2 8998   3.041   3.096   3.908  0.3965  0.0748  0.2635
 3014TIP3    H1 8999   3.070   3.006   3.903  1.3740  0.3339  0.9849
 3014TIP3    H2 9000   3.121   3.148   3.903  0.0431  0.8252  1.6631
 3015TIP3   OH2 9001   4.024   4.865   0.642  0.1616 -0.2158 -0.0140
 3015TIP3    H1 9002   3.956   4.808   0.605  1.5910 -1.5620 -0.6796
 3015TIP3    H2 9003   3.999   4.874   0.734 -1.8638  0.8073 -0.5949
 3016TIP3   OH2 9004   5.607   7.059   2.754 -0.0298  0.0247 -0.3090
 3016TIP3    H1 9005   5.605   6.979   2.807  0.1368  0.0930 -0.1977
 3016TIP3    H2 9006   5.640   7.030   2.669  1.3680  0.1943  0.1387
 3017TIP3   OH2 9007   2.381   0.655   3.727  0.0741 -0.0797 -0.1180
 3017TIP3    H1 9008   2.475   0.666   3.745  0.4718 -1.5900 -1.0447
 3017TIP3    H2 9009   2.367   0.704   3.646  0.7011 -1.9776 -1.4446
 3018TIP3   OH2 9010   7.643   7.532   0.887 -0.5947  0.1720  0.4727
 3018TIP3    H1 9011   7.615   7.606   0.833 -0.9679  0.0929  0.5503
 3018TIP3    H2 9012   7.597   7.457   0.849  0.8674 -0.2791 -0.4922
 3019TIP3   OH2 9013   1.107   5.834   3.815  0.1344  0.0936 -0.2551
 3019TIP3    H1 9014   1.112   5.773   3.888  2.1158  1.3304  0.7310
 3019TIP3    H2 9015   1.197   5.844   3.785 -0.1869  2.0790 -0.7391
 3020TIP3   OH2 9016   6.943   1.637   0.043  0.3651  0.4330 -0.4611
 3020TIP3    H1 9017   6.908   1.723   0.019  2.3062  1.4270  0.0743
 3020TIP3    H2 9018   7.018   1.624  -0.016  0.1896 -0.8377 -0.4428
 3021TIP3   OH2 9019   1.238   7.548   4.145 -0.4907 -0.1620  0.4874
 3021TIP3    H1 9020   1.254   7.471   4.199 -0.9766  0.0604  0.9608
 3021TIP3    H2 9021   1.156   7.584   4.178 -0.3810  0.4336  0.1294
 3022TIP3   OH2 9022   6.657   5.512   2.353  0.4261 -0.1834  0.0007
 3022TIP3    H1 9023   6.643   5.435   2.408  0.5901 -0.6027 -0.5366
 3022TIP3    H2 9024   6.668   5.477   2.265 -0.0150  0.4917 -0.3367
 3023TIP3   OH2 9025   2.239   0.335   3.086  1.0444  0.5987 -0.7248
 3023TIP3    H1 9026   2.228   0.241   3.069  0.3851  0.3910  0.7680
 3023TIP3    H2 9027   2.173   0.377   3.031  0.8933  0.1493 -0.8950
 3024TIP3   OH2 9028   6.711   5.151   3.960 -0.1158 -0.1547 -0.9334
 3024TIP3    H1 9029   6.796   5.140   4.001 -0.9986  0.6054  1.1957
 3024TIP3    H2 9030   6.677   5.234   3.993 -1.1899  0.1957 -2.7177
 3025TIP3   OH2 9031   4.215   3.724   5.468 -0.0933 -0.5131 -0.0681
 3025TIP3    H1 9032   4.237   3.741   5.376  0.4366 -0.7520  0.0127
 3025TIP3    H2 9033   4.221   3.810   5.510 -0.8895 -0.2993 -0.3587
 3026TIP3   OH2 9034   4.492   5.055   1.401 -0.3876 -0.3680 -0.1777
 3026TIP3    H1 9035   4.422   4.994   1.425 -2.7565  2.1051 -0.2826
 3026TIP3    H2 9036   4.554   5.052   1.474 -2.1301 -0.5555  1.3482
 3027TIP3   OH2 9037   7.459   7.535   2.365 -0.9121  0.0185  0.5550
 3027TIP3    H1 9038   7.554   7.522   2.364 -0.7650  1.0155  0.0576
 3027TIP3    H2 9039   7.425   7.459   2.411 -0.0001 -1.2671 -0.8015
 3028TIP3   OH2 9040   2.559   0.950   0.922 -0.1832 -0.8518  0.0649
 3028TIP3    H1 9041   2.642   0.989   0.894 -0.1898 -1.1443 -0.3700
 3028TIP3    H2 9042   2.585   0.875   0.975 -0.1565 -1.5524 -0.9152
 3029TIP3   OH2 9043   6.212   4.100   1.257  0.5097  0.9870 -0.4367
 3029TIP3    H1 9044   6.292   4.119   1.208  0.1150  0.7748 -1.1791
 3029TIP3    H2 9045   6.147   4.082   1.190  0.6484 -2.2898  0.1468
 3030TIP3   OH2 9046   4.320   5.134   5.174 -0.2075  0.4214  0.2323
 3030TIP3    H1 9047   4.339   5.170   5.261  1.4465 -0.5135  0.3014
 3030TIP3    H2 9048   4.363   5.194   5.113 -1.5187  1.1785 -0.0024
 3031TIP3   OH2 9049   2.931   4.269   3.245  0.1946 -0.9067 -0.0169
 3031TIP3    H1 9050   2.904   4.309   3.163 -0.1966  0.2466  0.6531
 3031TIP3    H2 9051   2.990   4.333   3.285  0.2009 -1.3468  0.6972
 3032TIP3   OH2 9052   4.358   6.642   6.802  0.6312  0.5495  0.6761
 3032TIP3    H1 9053   4.395   6.570   6.750 -0.0232  0.4403  0.3556
 3032TIP3    H2 9054   4.378   6.720   6.751  0.0041  0.4443  0.2612
 3033TIP3   OH2 9055   3.420   0.188   1.178 -0.2111 -0.2905 -0.0967
 3033TIP3    H1 9056   3.329   0.176   1.152 -0.5120 -0.4438  0.9454
 3033TIP3    H2 9057   3.439   0.279   1.156 -0.4479 -0.4031 -0.7909
 3034TIP3   OH2 9058   7.603   3.289   6.113 -0.4038 -0.0913  0.6500
 3034TIP3    H1 9059   7.544   3.336   6.172 -1.0923  0.3495 -0.3479
 3034TIP3    H2 9060   7.691   3.320   6.136 -0.8419  1.7844 -0.0208
 3035TIP3   OH2 9061   7.537   5.858   4.767 -0.1080  0.4559  0.2239
 3035TIP3    H1 9062   7.623   5.887   4.738 -0.6303  2.0198  0.1671
 3035TIP3    H2 9063   7.549   5.834   4.859  0.5679 -0.2323 -0.0315
 3036TIP3   OH2 9064   6.825   0.735   2.412  0.2933 -0.0980 -0.1035
 3036TIP3    H1 9065   6.757   0.681   2.452 -0.0459 -0.2460 -0.8523
 3036TIP3    H2 9066   6.907   0.702   2.448 -0.0865  1.1295  2.0572
 3037TIP3   OH2 9067   6.226   0.847   3.385  0.7063  0.3013  0.0234
 3037TIP3    H1 9068   6.224   0.753   3.372  0.5219 -0.0436  2.2198
 3037TIP3    H2 9069   6.141   0.878   3.354  0.6510 -0.2674 -0.4149
 3038TIP3   OH2 9070   4.722   3.975   0.893 -0.0749 -0.3249  0.5539
 3038TIP3    H1 9071   4.672   4.032   0.952 -0.9556 -0.6739  0.1620
 3038TIP3    H2 9072   4.698   3.887   0.920 -0.0026 -0.4915  0.0696
 3039TIP3   OH2 9073   5.257   5.933   5.558  0.3983 -0.2947 -0.2321
 3039TIP3    H1 9074   5.333   5.907   5.609  1.0633  1.7072 -0.1031
 3039TIP3    H2 9075   5.292   5.955   5.472 -0.0204  0.5940 -0.1892
 3040TIP3   OH2 9076   8.082   2.567   0.384 -0.4215  0.0285  0.1189
 3040TIP3    H1 9077   8.027   2.575   0.306 -0.4666  0.7122  0.2180
 3040TIP3    H2 9078   8.158   2.516   0.354 -0.2836  0.5549 -0.4544
 3041TIP3   OH2 9079   7.232   3.612   5.827 -0.0497 -0.3510  0.3006
 3041TIP3    H1 9080   7.232   3.679   5.758  2.5718  0.1804  0.7252
 3041TIP3    H2 9081   7.219   3.662   5.908 -2.9125 -0.9524  0.3229
 3042TIP3   OH2 9082   2.124   7.045   1.992  0.3300 -0.4830  0.0412
 3042TIP3    H1 9083   2.067   7.033   2.067  0.1282  0.7492  0.1068
 3042TIP3    H2 9084   2.081   7.113   1.940  2.2352  1.2892  0.6437
 3043TIP3   OH2 9085   0.001   6.161   3.705 -0.1702 -0.8886  0.3613
 3043TIP3    H1 9086  -0.043   6.118   3.632  0.2670  0.0342 -0.4577
 3043TIP3    H2 9087   0.094   6.143   3.692 -0.1021 -0.8856  0.8060
 3044TIP3   OH2 9088   4.989   4.853   1.775  0.6524  0.1015 -0.0841
 3044TIP3    H1 9089   5.036   4.800   1.840  0.9020 -0.2529 -0.5476
 3044TIP3    H2 9090   4.979   4.794   1.700 -0.8833  0.0237  0.1434
 3045TIP3   OH2 9091   7.604   7.218   2.225 -0.4670 -0.2159 -0.2228
 3045TIP3    H1 9092   7.665   7.147   2.243 -0.4707 -0.3107 -0.5612
 3045TIP3    H2 9093   7.580   7.206   2.133 -1.1415 -0.2940 -0.0425
 3046TIP3   OH2 9094   6.925   4.273   3.332 -0.0819  0.4212 -0.0910
 3046TIP3    H1 9095   6.966   4.356   3.357 -0.3248  0.6349 -0.4000
 3046TIP3    H2 9096   6.864   4.254   3.404  0.0795  0.4376  0.0501
 3047TIP3   OH2 9097   5.280   3.688   3.378  0.0197 -0.3193 -0.1470
 3047TIP3    H1 9098   5.306   3.762   3.432  2.5183 -1.7464  0.7515
 3047TIP3    H2 9099   5.228   3.728   3.308  1.0594  2.2610  0.4071
 3048TIP3   OH2 9100   2.127   5.680   4.869  0.0987 -0.3898 -0.0845
 3048TIP3    H1 9101   2.137   5.635   4.952  2.2703 -1.0292 -0.6360
 3048TIP3    H2 9102   2.037   5.714   4.871 -0.1705 -1.0674  2.1456
 3049TIP3   OH2 9103   5.669   1.449   2.000 -0.2187  0.1797  0.4429
 3049TIP3    H1 9104   5.672   1.360   1.966 -1.7315  0.4567 -0.5356
 3049TIP3    H2 9105   5.592   1.488   1.959  0.5514  2.0331  0.6280
 3050TIP3   OH2 9106   4.461   3.917   1.457 -0.1223  0.0807 -0.8130
 3050TIP3    H1 9107   4.409   3.896   1.534 -0.3628  0.5625 -0.8415
 3050TIP3    H2 9108   4.428   4.002   1.428  1.2867  0.8420 -0.3013
 3051TIP3   OH2 9109   7.725   6.339   3.796  0.4949  0.4326 -0.2831
 3051TIP3    H1 9110   7.655   6.369   3.737 -0.0698 -1.5336 -0.7162
 3051TIP3    H2 9111   7.795   6.310   3.737  0.4509 -0.3407  0.0219
 3052TIP3   OH2 9112   6.603   0.694   3.391  0.2393  0.0465  0.2493
 3052TIP3    H1 9113   6.606   0.780   3.433 -0.6311  0.7052 -0.9987
 3052TIP3    H2 9114   6.603   0.712   3.297 -2.1459 -1.1866 -0.0689
 3053TIP3   OH2 9115   0.538   4.307   2.494 -0.3508  0.3047  0.0614
 3053TIP3    H1 9116   0.520   4.389   2.540 -0.3370  0.6805 -0.5960
 3053TIP3    H2 9117   0.633   4.306   2.485 -0.2182 -0.4484  1.2636
 3054TIP3   OH2 9118   5.844   1.898   5.660  0.0379 -0.4895  0.2032
 3054TIP3    H1 9119   5.911   1.944   5.611 -1.1363  0.6763 -0.3875
 3054TIP3    H2 9120   5.815   1.828   5.602 -0.5841  0.2091 -0.3549
 3055TIP3   OH2 9121   7.216   7.424   0.734 -0.0025 -0.2728 -0.0362
 3055TIP3    H1 9122   7.280   7.361   0.700  0.1815 -0.7730  1.1660
 3055TIP3    H2 9123   7.135   7.404   0.686  0.4606 -0.3504 -0.8010
 3056TIP3   OH2 9124   7.436   1.928   1.260  0.3757  0.5366  0.4343
 3056TIP3    H1 9125   7.347   1.896   1.245  1.2400 -1.3759 -1.0877
 3056TIP3    H2 9126   7.462   1.965   1.176  1.8009 -1.1128  0.0809
 3057TIP3   OH2 9127   1.032   6.558   0.742 -0.2152  0.3930  0.5199
 3057TIP3    H1 9128   1.121   6.592   0.734  0.1356 -0.8754 -2.3183
 3057TIP3    H2 9129   0.978   6.619   0.691 -0.5081 -0.2427  0.0517
 3058TIP3   OH2 9130   4.780   1.920   4.442  0.1082 -0.0522 -0.5360
 3058TIP3    H1 9131   4.769   1.889   4.532 -0.9134  0.4252 -0.4824
 3058TIP3    H2 9132   4.708   1.982   4.429  0.5138  0.2323 -1.5341
 3059TIP3   OH2 9133   2.757   6.725   3.845  0.2086  0.1971 -0.4223
 3059TIP3    H1 9134   2.773   6.665   3.918 -0.3079 -0.2080 -0.6319
 3059TIP3    H2 9135   2.668   6.757   3.859  0.2993  0.5296 -0.5870
 3060TIP3   OH2 9136   0.054   2.823   0.775 -0.5396 -0.1159 -0.0609
 3060TIP3    H1 9137   0.131   2.767   0.762 -0.7123 -0.6321  1.0360
 3060TIP3    H2 9138   0.085   2.911   0.755  0.2371 -0.3679 -0.0082
 3061TIP3   OH2 9139   4.392   5.164   3.713  0.1939  0.0677 -0.0357
 3061TIP3    H1 9140   4.369   5.092   3.655 -0.8394  0.1606  0.2362
 3061TIP3    H2 9141   4.482   5.144   3.742  0.6251 -0.1036 -1.4396
 3062TIP3   OH2 9142   3.454   4.147   5.766 -0.5151  0.1616  0.2127
 3062TIP3    H1 9143   3.408   4.220   5.809  1.8502  2.2201 -0.5181
 3062TIP3    H2 9144   3.450   4.169   5.673 -0.4789 -1.1412 -0.1165
 3063TIP3   OH2 9145   4.887   2.234   0.175 -0.0774  0.2715  0.3373
 3063TIP3    H1 9146   4.853   2.239   0.265 -0.2059  0.1337  0.2981
 3063TIP3    H2 9147   4.866   2.319   0.137 -1.2721 -0.1567  0.0073
 3064TIP3   OH2 9148   4.380   2.846   6.714 -0.1703  0.1921  0.0586
 3064TIP3    H1 9149   4.364   2.755   6.739 -0.5661  0.8892  2.6818
 3064TIP3    H2 9150   4.472   2.861   6.736 -0.5914  0.9005  1.4229
 3065TIP3   OH2 9151   0.070   6.849   5.690  0.0195 -0.0453  0.2653
 3065TIP3    H1 9152   0.084   6.756   5.672  0.3403  0.0615 -0.0408
 3065TIP3    H2 9153   0.157   6.888   5.687 -0.1793  0.3733 -0.2366
 3066TIP3   OH2 9154   7.408   4.340   6.603 -0.3647  0.7901  0.0591
 3066TIP3    H1 9155   7.492   4.333   6.649  0.0079 -1.5480 -0.8308
 3066TIP3    H2 9156   7.423   4.406   6.535  1.3436 -0.7300 -1.1308
 3067TIP3   OH2 9157   7.635   5.402   2.090 -0.3906  0.3571  0.3473
 3067TIP3    H1 9158   7.601   5.374   2.006 -0.2417  0.5321  0.2287
 3067TIP3    H2 9159   7.674   5.488   2.074  1.4034 -0.4455  0.1562
 3068TIP3   OH2 9160   5.597   1.276   5.061  0.2298  0.6094  0.0514
 3068TIP3    H1 9161   5.658   1.337   5.100 -0.3171  0.2483  1.5572
 3068TIP3    H2 9162   5.511   1.315   5.076 -0.0327  0.1348 -0.1818
 3069TIP3   OH2 9163   3.724   5.676   5.179 -0.0070  0.1758 -0.1398
 3069TIP3    H1 9164   3.683   5.644   5.099  0.3051  0.6107 -0.4781
 3069TIP3    H2 9165   3.774   5.753   5.151 -3.1788  2.9244  1.1028
 3070TIP3   OH2 9166   2.332   4.976   2.501  0.5515 -0.1545  0.7105
 3070TIP3    H1 9167   2.402   4.962   2.564  0.2452  0.8914  1.3060
 3070TIP3    H2 9168   2.343   5.067   2.472  0.0599 -0.2975  0.0431
 3071TIP3   OH2 9169   7.985   2.219   6.356  0.2050 -0.1927 -0.2798
 3071TIP3    H1 9170   7.897   2.193   6.327 -1.3812  2.7928  1.4023
 3071TIP3    H2 9171   8.027   2.254   6.277 -0.2721 -1.1881 -0.9996
 3072TIP3   OH2 9172   1.385   2.853   1.488 -0.1691  0.5164  0.4964
 3072TIP3    H1 9173   1.474   2.822   1.467  0.2748  1.2763  1.2144
 3072TIP3    H2 9174   1.362   2.910   1.414 -0.0001  0.4365  0.3804
 3073TIP3   OH2 9175   1.349   5.122   3.324 -0.8342 -0.3374  0.1425
 3073TIP3    H1 9176   1.267   5.129   3.372 -0.6202 -1.9225  0.7782
 3073TIP3    H2 9177   1.366   5.028   3.318  1.0877 -0.0459  0.3256
 3074TIP3   OH2 9178   3.255   5.527   1.254 -0.3479 -0.0326  0.6703
 3074TIP3    H1 9179   3.278   5.592   1.320  0.4223  0.1298  0.2583
 3074TIP3    H2 9180   3.290   5.445   1.288 -1.7029 -0.3333  1.3984
 3075TIP3   OH2 9181   1.236   2.338   3.961  0.4018  0.3780 -0.0622
 3075TIP3    H1 9182   1.236   2.340   3.865  2.0788  0.3248 -0.0896
 3075TIP3    H2 9183   1.323   2.369   3.985 -0.4434  1.6419  1.4984
 3076TIP3   OH2 9184   5.457   5.012   5.580  0.2933  0.1900 -0.1944
 3076TIP3    H1 9185   5.436   4.920   5.561  1.1533 -0.1689  0.4888
 3076TIP3    H2 9186   5.419   5.061   5.507 -2.8007 -0.3569  0.9120
 3077TIP3   OH2 9187   7.331   4.062   4.375 -0.2551 -0.0385 -0.3756
 3077TIP3    H1 9188   7.321   4.017   4.291 -0.1084 -0.6518 -0.0677
 3077TIP3    H2 9189   7.365   3.995   4.434  1.3839  0.8387 -0.2636
 3078TIP3   OH2 9190   4.444   6.518   3.186  0.1546  0.0321 -0.8854
 3078TIP3    H1 9191   4.351   6.500   3.205  0.0460 -0.7384 -2.0404
 3078TIP3    H2 9192   4.491   6.469   3.253 -0.2551 -1.2038 -1.4674
 3079TIP3   OH2 9193   1.888   1.621   3.482  0.4562 -0.2554  0.6099
 3079TIP3    H1 9194   1.843   1.678   3.544  0.4758  0.5251 -0.0896
 3079TIP3    H2 9195   1.920   1.679   3.413  1.1637 -1.0027  0.2846
 3080TIP3   OH2 9196   2.289   7.242   4.251  0.3551  0.0286 -0.2948
 3080TIP3    H1 9197   2.333   7.210   4.329 -0.9743  0.6536  0.7475
 3080TIP3    H2 9198   2.304   7.336   4.251  1.4186 -0.1054 -1.5227
 3081TIP3   OH2 9199   6.246   1.645   5.283  0.1185 -0.2022 -0.1811
 3081TIP3    H1 9200   6.193   1.705   5.231 -0.2902  0.0022  0.4678
 3081TIP3    H2 9201   6.314   1.700   5.322 -0.4410 -0.0932  0.6638
 3082TIP3   OH2 9202   3.725   2.142   1.773 -0.8471 -0.7540  0.2854
 3082TIP3    H1 9203   3.737   2.048   1.761 -0.7977 -0.8036  0.7185
 3082TIP3    H2 9204   3.631   2.153   1.784 -0.9338 -0.6665 -0.4760
 3083TIP3   OH2 9205   2.990   3.958   2.677  0.2070 -0.6887 -0.0179
 3083TIP3    H1 9206   2.984   3.863   2.674  0.0835 -0.6798 -2.4940
 3083TIP3    H2 9207   2.922   3.988   2.616  1.5976  0.8860 -0.8747
 3084TIP3   OH2 9208   3.354   3.821   5.680 -0.6516  0.3106  0.0532
 3084TIP3    H1 9209   3.278   3.765   5.662 -0.4867 -0.1382  0.6982
 3084TIP3    H2 9210   3.317   3.899   5.722 -0.7075 -0.2192  1.0229
 3085TIP3   OH2 9211   4.267   7.165   4.725  0.3457  0.2470 -0.2045
 3085TIP3    H1 9212   4.343   7.154   4.783 -1.0325 -0.8769  1.4729
 3085TIP3    H2 9213   4.249   7.077   4.694  0.3970  0.6855 -1.5384
 3086TIP3   OH2 9214   3.322   5.490   6.726  0.5880  0.3124  0.1223
 3086TIP3    H1 9215   3.339   5.500   6.632  1.5554  0.4280  0.2987
 3086TIP3    H2 9216   3.297   5.398   6.736 -1.5867  0.7882 -0.5302
 3087TIP3   OH2 9217   8.255   6.917   5.063 -0.1754  0.2474  0.1067
 3087TIP3    H1 9218   8.171   6.951   5.093 -1.2632 -1.9148 -0.2981
 3087TIP3    H2 9219   8.281   6.853   5.129 -0.6220 -1.6288 -1.4480
 3088TIP3   OH2 9220   1.266   1.106   2.484 -0.1491  0.2216 -0.1257
 3088TIP3    H1 9221   1.188   1.092   2.430 -0.2706  0.0927  0.0798
 3088TIP3    H2 9222   1.300   1.018   2.500 -0.9061  0.1313  1.1572
 3089TIP3   OH2 9223   4.448   1.837   4.006 -0.3672 -0.0184 -0.5285
 3089TIP3    H1 9224   4.501   1.759   3.989  1.8596  1.2805  0.1598
 3089TIP3    H2 9225   4.381   1.806   4.068 -1.6285 -2.0933 -2.7553
 3090TIP3   OH2 9226   2.899   0.905   4.220  0.4703  0.0225  0.5698
 3090TIP3    H1 9227   2.896   0.994   4.256  1.4998  0.3906 -0.1932
 3090TIP3    H2 9228   2.933   0.917   4.131  0.4649 -1.1215  0.4091
 3091TIP3   OH2 9229   1.130   6.730   3.755 -0.0643 -0.1822 -0.1227
 3091TIP3    H1 9230   1.216   6.690   3.764 -0.4471 -0.7589  1.2242
 3091TIP3    H2 9231   1.124   6.753   3.662  1.4861 -0.2223 -0.2646
 3092TIP3   OH2 9232   2.030   3.633   5.098 -0.3931  0.6350  0.3434
 3092TIP3    H1 9233   2.031   3.717   5.052  0.9387  0.5080  0.1040
 3092TIP3    H2 9234   2.089   3.577   5.047 -2.2330 -0.8871 -0.2668
 3093TIP3   OH2 9235   5.895   1.048   2.859 -0.1801  0.1982 -0.4557
 3093TIP3    H1 9236   5.833   0.980   2.833  0.5952 -0.5801 -0.3204
 3093TIP3    H2 9237   5.862   1.080   2.944 -1.7201  1.5046 -1.4696
 3094TIP3   OH2 9238   7.649   1.790   3.010 -0.1758 -0.1427  0.1924
 3094TIP3    H1 9239   7.571   1.768   3.061 -0.3420 -0.2940 -0.1236
 3094TIP3    H2 9240   7.647   1.730   2.935 -0.7479  1.0791 -0.8000
 3095TIP3   OH2 9241   5.947   6.308   1.382 -0.5777 -0.2480 -0.2752
 3095TIP3    H1 9242   5.937   6.270   1.469 -0.7044  2.3718  0.9544
 3095TIP3    H2 9243   6.039   6.293   1.360 -0.8809 -2.1545 -0.3473
 3096TIP3   OH2 9244   2.861   2.598   1.953  0.2770 -0.3437 -0.3075
 3096TIP3    H1 9245   2.918   2.592   1.876 -0.0494 -0.3933 -0.5441
 3096TIP3    H2 9246   2.922   2.608   2.026  0.5759  0.3229 -0.6344
 3097TIP3   OH2 9247   1.776   0.810   5.946  0.3238  0.0009 -0.3231
 3097TIP3    H1 9248   1.848   0.778   5.892  0.1611 -1.0404  0.0678
 3097TIP3    H2 9249   1.708   0.833   5.883  0.6574  0.1450 -0.6391
 3098TIP3   OH2 9250   6.981   5.304   0.085  0.3356  0.8164 -0.5228
 3098TIP3    H1 9251   6.981   5.399   0.097 -0.3176  0.8088 -0.4313
 3098TIP3    H2 9252   7.011   5.290  -0.004 -1.1384  1.1962 -1.1128
 3099TIP3   OH2 9253   0.841   1.862   1.916 -0.2627 -0.4196 -0.3259
 3099TIP3    H1 9254   0.876   1.776   1.894 -0.7229 -0.4430 -0.9984
 3099TIP3    H2 9255   0.835   1.863   2.012 -0.6952 -1.3062 -0.3402
 3100TIP3   OH2 9256   0.822   0.848   1.076  0.2008  0.6574  0.3192
 3100TIP3    H1 9257   0.730   0.860   1.053  0.6279  1.3110 -1.1318
 3100TIP3    H2 9258   0.820   0.804   1.161 -1.4596 -0.5242 -0.2792
 3101TIP3   OH2 9259   0.295   1.435   5.937 -0.1606 -0.1982  0.0190
 3101TIP3    H1 9260   0.316   1.343   5.926 -2.4616 -0.8375  0.4970
 3101TIP3    H2 9261   0.324   1.476   5.855 -1.9016 -1.9076 -1.5276
 3102TIP3   OH2 9262   5.995   3.849   0.439 -0.0605 -0.2687 -0.2384
 3102TIP3    H1 9263   6.037   3.787   0.380  1.0071 -0.1113  0.3234
 3102TIP3    H2 9264   6.068   3.900   0.476 -0.9241  1.7027 -1.1101
 3103TIP3   OH2 9265   3.581   3.786   0.449 -0.1887 -0.2533 -0.5554
 3103TIP3    H1 9266   3.547   3.728   0.382  0.6066 -1.1725 -0.1836
 3103TIP3    H2 9267   3.659   3.825   0.410 -0.8821  0.8230 -0.9150
 3104TIP3   OH2 9268   6.947   4.283   0.142 -0.3722 -0.1828 -0.1317
 3104TIP3    H1 9269   6.987   4.266   0.057 -0.7007 -2.9924  0.1841
 3104TIP3    H2 9270   6.883   4.353   0.125 -1.2950 -1.5008 -2.5000
 3105TIP3   OH2 9271   0.137   0.216   2.038  0.4082  0.0098  0.6165
 3105TIP3    H1 9272   0.229   0.192   2.026  0.4104  0.7348 -1.1446
 3105TIP3    H2 9273   0.093   0.180   1.962 -0.4034  1.4203  0.3931
 3106TIP3   OH2 9274   1.262   7.075   3.114 -0.5361 -0.3188  0.2712
 3106TIP3    H1 9275   1.192   7.011   3.125 -1.4263  0.7246  0.8680
 3106TIP3    H2 9276   1.217   7.158   3.099  0.5060  0.6588  2.1955
 3107TIP3   OH2 9277   1.998   6.023   4.590  0.3840 -0.0969 -0.1612
 3107TIP3    H1 9278   1.946   6.058   4.662  1.4127  0.5364  0.2968
 3107TIP3    H2 9279   1.983   6.085   4.518  1.7592  1.0468  0.4762
 3108TIP3   OH2 9280   4.359   3.000   2.634 -0.8147 -0.0774  0.2692
 3108TIP3    H1 9281   4.399   2.921   2.597 -0.3536  0.3087 -0.0641
 3108TIP3    H2 9282   4.406   3.013   2.717 -0.0447  0.5210 -0.2414
 3109TIP3   OH2 9283   5.721   0.092   5.624  0.7348  0.2535 -0.1614
 3109TIP3    H1 9284   5.708   0.163   5.562  0.5421 -0.0620 -0.4860
 3109TIP3    H2 9285   5.816   0.083   5.633  0.7620  1.0325  0.4406
 3110TIP3   OH2 9286   1.279   2.841   2.895  0.0761  0.5979 -0.3802
 3110TIP3    H1 9287   1.211   2.870   2.833 -1.3459 -0.6522  0.5303
 3110TIP3    H2 9288   1.340   2.791   2.841 -1.1591 -0.5017 -0.8174
 3111TIP3   OH2 9289   1.688   3.331   4.389 -0.3575 -0.0038  0.0375
 3111TIP3    H1 9290   1.633   3.291   4.321  0.7402 -1.1036 -0.2467
 3111TIP3    H2 9291   1.722   3.411   4.349  0.5755 -0.8304 -0.8807
 3112TIP3   OH2 9292   4.283   6.265   2.978 -0.2628  0.0244  0.2890
 3112TIP3    H1 9293   4.223   6.217   3.034  0.0207 -0.6873 -0.0085
 3112TIP3    H2 9294   4.340   6.312   3.040  0.9973 -1.9073  0.6750
 3113TIP3   OH2 9295   3.876   0.474   0.434 -0.1359 -0.3916 -0.2864
 3113TIP3    H1 9296   3.885   0.561   0.472 -0.4817 -0.3967 -0.1837
 3113TIP3    H2 9297   3.943   0.422   0.478 -0.3059 -0.3122  0.0746
 3114TIP3   OH2 9298   7.219   4.794   4.708  0.5065 -0.2481  0.2593
 3114TIP3    H1 9299   7.295   4.756   4.751  0.8875 -0.8924 -0.9652
 3114TIP3    H2 9300   7.184   4.724   4.653 -1.0773 -0.0143  0.9148
 3115TIP3   OH2 9301   3.633   3.012   4.208 -0.1425 -0.1309  0.2007
 3115TIP3    H1 9302   3.669   3.081   4.263  0.1599 -2.0194  2.5351
 3115TIP3    H2 9303   3.711   2.970   4.169 -0.3213  0.7776 -1.1844
 3116TIP3   OH2 9304   0.782   6.759   0.365 -0.1416  0.1390  0.5719
 3116TIP3    H1 9305   0.724   6.835   0.366  1.1364  1.2271 -1.4049
 3116TIP3    H2 9306   0.774   6.724   0.276 -0.0632 -1.5260  1.1981
 3117TIP3   OH2 9307   6.525   0.511   6.601  0.2013  0.4144  0.2082
 3117TIP3    H1 9308   6.611   0.543   6.629  0.9810  0.0111 -1.5501
 3117TIP3    H2 9309   6.465   0.583   6.618  1.1642  1.2505  0.1386
 3118TIP3   OH2 9310   2.152   4.366   2.540  0.1524 -0.3565 -0.4541
 3118TIP3    H1 9311   2.093   4.310   2.490 -1.9395  0.7767  0.6057
 3118TIP3    H2 9312   2.183   4.310   2.612 -0.7267 -0.5905 -0.2511
 3119TIP3   OH2 9313   3.164   1.439   2.004 -0.4428  0.3630 -0.1997
 3119TIP3    H1 9314   3.106   1.514   2.003 -1.5444 -0.4610  0.2265
 3119TIP3    H2 9315   3.154   1.401   2.092 -1.5247 -1.4859 -1.0536
 3120TIP3   OH2 9316   0.277   2.460   5.401  0.0908  0.2465  0.2711
 3120TIP3    H1 9317   0.190   2.426   5.380  0.7819 -2.2715  1.1313
 3120TIP3    H2 9318   0.330   2.382   5.419  3.0872  1.5100 -2.1129
 3121TIP3   OH2 9319   7.709   5.359   6.363 -0.4529  0.6668  0.6743
 3121TIP3    H1 9320   7.691   5.266   6.350 -0.6921  0.5773  1.5647
 3121TIP3    H2 9321   7.795   5.361   6.405 -0.5487  0.8357  0.8637
 3122TIP3   OH2 9322   1.803   6.511   5.442  0.1041 -0.4055 -0.5686
 3122TIP3    H1 9323   1.724   6.564   5.446  1.5057  1.7713  0.1648
 3122TIP3    H2 9324   1.801   6.458   5.522  1.0144  2.2397  1.3400
 3123TIP3   OH2 9325   1.328   2.474   6.460 -0.2531  0.2111  0.0416
 3123TIP3    H1 9326   1.307   2.414   6.389  0.1165  0.8837 -0.6388
 3123TIP3    H2 9327   1.335   2.560   6.419  0.5823  0.5131  0.7786
 3124TIP3   OH2 9328   5.317   0.707   0.668  0.8242  0.1285 -1.0277
 3124TIP3    H1 9329   5.283   0.622   0.696  1.2905  0.5320  0.9079
 3124TIP3    H2 9330   5.393   0.686   0.614  1.4613 -0.7208  0.1301
 3125TIP3   OH2 9331   0.379   2.090   6.149 -0.2624  0.4523  0.0250
 3125TIP3    H1 9332   0.405   2.087   6.057 -0.0597 -0.5598  0.1023
 3125TIP3    H2 9333   0.431   2.021   6.191 -0.5359  0.7331  0.8538
 3126TIP3   OH2 9334   7.159   2.499   2.461 -0.2580 -0.1727 -0.1210
 3126TIP3    H1 9335   7.184   2.464   2.375  1.8861  3.5770 -1.2359
 3126TIP3    H2 9336   7.065   2.516   2.453 -0.9027 -3.2643 -0.2775
 3127TIP3   OH2 9337   4.591   5.821   3.024  0.5334  0.2159 -0.2775
 3127TIP3    H1 9338   4.684   5.837   3.010  0.8433 -0.4474  0.8780
 3127TIP3    H2 9339   4.563   5.892   3.082 -0.1776  1.5641 -2.1602
 3128TIP3   OH2 9340   3.679   0.249   1.060  0.0030  0.1210 -0.0447
 3128TIP3    H1 9341   3.610   0.205   1.108  0.9337 -1.3380  0.0304
 3128TIP3    H2 9342   3.753   0.252   1.121  0.4648  0.3678 -0.6037
 3129TIP3   OH2 9343   7.775   7.709   5.215  0.2495  0.0929 -0.3068
 3129TIP3    H1 9344   7.798   7.668   5.299 -0.3303  0.0789 -0.1435
 3129TIP3    H2 9345   7.820   7.793   5.216 -0.1070  0.2836  0.2207
 3130TIP3   OH2 9346   2.141   5.734   6.172  0.4612  0.5709 -0.4618
 3130TIP3    H1 9347   2.076   5.700   6.234  0.6155  1.8212  0.4318
 3130TIP3    H2 9348   2.105   5.817   6.142  1.7313  1.4333  0.2652
 3131TIP3   OH2 9349   0.331   0.843   5.779 -0.1031  0.0921 -0.3594
 3131TIP3    H1 9350   0.335   0.873   5.689  0.4282 -0.0231 -0.3811
 3131TIP3    H2 9351   0.411   0.878   5.819 -1.2411  1.7230  0.5819
 3132TIP3   OH2 9352   0.687   3.715   5.198 -0.9358 -0.5264 -0.1250
 3132TIP3    H1 9353   0.746   3.752   5.263  0.3527 -1.6826 -0.5895
 3132TIP3    H2 9354   0.696   3.772   5.121 -3.6844  1.8270  1.1102
 3133TIP3   OH2 9355   3.999   4.914   1.293 -0.0245  0.2195 -0.1330
 3133TIP3    H1 9356   4.012   4.924   1.387  1.6960  1.2474 -0.4351
 3133TIP3    H2 9357   4.080   4.873   1.262 -0.2530  0.5791 -1.2475
 3134TIP3   OH2 9358   1.085   6.777   1.486 -0.0053  0.2898 -0.1318
 3134TIP3    H1 9359   1.075   6.866   1.520  0.6233 -0.1440  1.2694
 3134TIP3    H2 9360   1.027   6.724   1.539  2.1525 -0.6551  1.4195
 3135TIP3   OH2 9361   4.307   3.657   1.093  0.3943  0.0797 -0.2392
 3135TIP3    H1 9362   4.392   3.670   1.134  0.6740  1.7759 -1.2409
 3135TIP3    H2 9363   4.325   3.661   0.999 -0.7163 -0.0928 -0.4713
 3136TIP3   OH2 9364   5.314   4.329   2.117 -0.0642  0.6937 -0.8418
 3136TIP3    H1 9365   5.315   4.421   2.146 -3.5916  0.0541  2.1303
 3136TIP3    H2 9366   5.398   4.294   2.146  1.0026  2.7297 -1.2708
 3137TIP3   OH2 9367   1.304   5.940   5.573 -0.0809 -0.0017 -0.5798
 3137TIP3    H1 9368   1.333   5.966   5.660 -0.4624  0.8493 -0.6965
 3137TIP3    H2 9369   1.294   5.844   5.579  0.9197 -0.0852 -0.0130
 3138TIP3   OH2 9370   7.267   2.815   4.462 -0.2148 -0.8830  0.2959
 3138TIP3    H1 9371   7.291   2.898   4.421  1.3747 -0.7860  1.3131
 3138TIP3    H2 9372   7.227   2.840   4.545 -1.0755 -1.1275 -0.0330
 3139TIP3   OH2 9373   7.571   1.237   3.873  0.0885  0.4378  0.0247
 3139TIP3    H1 9374   7.479   1.241   3.900 -0.0408  0.4751 -0.4183
 3139TIP3    H2 9375   7.610   1.315   3.910  0.4350 -0.6074  2.0102
 3140TIP3   OH2 9376   3.327   5.783   3.942  0.0229  0.4273  0.4517
 3140TIP3    H1 9377   3.272   5.860   3.924 -0.1709  0.2942  0.4757
 3140TIP3    H2 9378   3.307   5.722   3.871  0.6293  0.6401  0.0923
 3141TIP3   OH2 9379   2.926   0.080   3.688 -0.0330  0.0953  0.2035
 3141TIP3    H1 9380   2.913  -0.014   3.701 -1.1208  0.0744 -0.8807
 3141TIP3    H2 9381   2.990   0.086   3.618 -0.3755  0.1561 -0.1060
 3142TIP3   OH2 9382   7.133   3.496   3.373  0.3828  0.4805  0.1581
 3142TIP3    H1 9383   7.135   3.509   3.467 -1.9315  1.5388  0.1333
 3142TIP3    H2 9384   7.209   3.544   3.340  1.2825 -0.0010  1.4546
 3143TIP3   OH2 9385   7.187   5.876   2.339 -0.6031 -0.0453 -0.7027
 3143TIP3    H1 9386   7.269   5.918   2.314  0.5711 -1.8791 -0.1531
 3143TIP3    H2 9387   7.164   5.917   2.423  0.2658 -0.1348 -0.4038
 3144TIP3   OH2 9388   6.058   0.376   2.888  0.1429  0.4891  0.0676
 3144TIP3    H1 9389   6.065   0.345   2.979 -2.2073 -0.3046  0.0397
 3144TIP3    H2 9390   6.136   0.340   2.845 -0.0913 -1.4524  1.1406
 3145TIP3   OH2 9391   0.869   3.441   3.017 -0.6872 -0.3289 -0.0234
 3145TIP3    H1 9392   0.939   3.375   3.024  0.0029  0.1576 -1.7766
 3145TIP3    H2 9393   0.902   3.516   3.066 -0.1916 -0.2983 -0.3863
 3146TIP3   OH2 9394   4.570   5.915   6.290 -0.1504  0.2960 -0.3884
 3146TIP3    H1 9395   4.589   5.981   6.224 -2.0305  0.4481 -0.8542
 3146TIP3    H2 9396   4.481   5.936   6.319  0.2711 -0.3357  1.5229
 3147TIP3   OH2 9397   6.908   1.726   1.305 -0.5474 -0.3097  0.2381
 3147TIP3    H1 9398   6.873   1.809   1.273  2.2592  1.1928  0.7316
 3147TIP3    H2 9399   6.892   1.728   1.399  0.0145 -0.0516  0.3307
 3148TIP3   OH2 9400   3.707   2.226   4.884  0.1382  0.5686  0.5329
 3148TIP3    H1 9401   3.634   2.240   4.944  0.0204  1.7812  0.1381
 3148TIP3    H2 9402   3.691   2.287   4.812  0.7239 -0.2644 -0.3272
 3149TIP3   OH2 9403   3.288   3.356   1.773  0.4347 -0.1110 -0.6559
 3149TIP3    H1 9404   3.251   3.311   1.849 -0.4333  1.9427  0.2061
 3149TIP3    H2 9405   3.314   3.442   1.807  2.7561 -0.1664 -2.0492
 3150TIP3   OH2 9406   4.706   5.727   5.515 -0.0736  0.6817 -0.1695
 3150TIP3    H1 9407   4.664   5.696   5.434 -0.9429  2.3477 -0.4104
 3150TIP3    H2 9408   4.790   5.681   5.518 -1.3265 -1.7730 -0.3647
 3151TIP3   OH2 9409   3.279   6.027   0.126  0.4846  0.1203  0.3495
 3151TIP3    H1 9410   3.310   5.937   0.127 -1.4956 -0.6438 -0.7877
 3151TIP3    H2 9411   3.198   6.024   0.178  0.0722  1.1117 -0.2192
 3152TIP3   OH2 9412   7.671   6.488   6.040 -0.5942 -0.0783  0.1087
 3152TIP3    H1 9413   7.726   6.502   6.117 -0.4905 -1.1067  0.2357
 3152TIP3    H2 9414   7.585   6.465   6.074 -0.9504  0.9155 -0.0923
 3153TIP3   OH2 9415   4.471   4.039   1.061  0.3490  0.0988  0.5202
 3153TIP3    H1 9416   4.522   4.092   1.123  2.1420  2.3873 -2.6117
 3153TIP3    H2 9417   4.406   4.099   1.026 -0.8633 -1.2453  0.3794
 3154TIP3   OH2 9418   7.154   6.364   3.845 -0.2754 -0.1757  0.4512
 3154TIP3    H1 9419   7.237   6.412   3.846 -0.7117  0.7048 -1.3128
 3154TIP3    H2 9420   7.098   6.411   3.907 -1.1115  2.5347 -2.1166
 3155TIP3   OH2 9421   5.848   7.256   2.271  0.6273 -0.4490 -0.3042
 3155TIP3    H1 9422   5.847   7.345   2.235 -4.1435 -0.1255 -0.0161
 3155TIP3    H2 9423   5.818   7.201   2.198 -0.9285 -1.0526  0.7533
 3156TIP3   OH2 9424   6.547   7.221   6.602 -0.7264  0.0532 -0.2997
 3156TIP3    H1 9425   6.474   7.276   6.576 -1.3564 -1.0297 -0.8854
 3156TIP3    H2 9426   6.507   7.146   6.646  0.1203  0.1389  0.6573
 3157TIP3   OH2 9427   7.108   6.611   1.035 -0.0861 -0.0479  0.1374
 3157TIP3    H1 9428   7.142   6.696   1.062  0.0417  0.0772 -0.4034
 3157TIP3    H2 9429   7.184   6.553   1.039 -0.2736 -0.2543  0.9671
 3158TIP3   OH2 9430   2.900   5.315   6.191  0.0656 -0.2105 -0.4846
 3158TIP3    H1 9431   2.948   5.237   6.163 -1.2181 -0.7595 -1.2695
 3158TIP3    H2 9432   2.909   5.317   6.286  1.6494 -0.2593 -0.6065
 3159TIP3   OH2 9433   7.239   6.610   1.380  0.6040 -0.4044 -0.2159
 3159TIP3    H1 9434   7.176   6.540   1.400  1.0355 -0.9635 -0.7686
 3159TIP3    H2 9435   7.270   6.640   1.465 -0.2175 -0.3017  0.0545
 3160TIP3   OH2 9436   7.663   1.635   0.459  0.2890  0.1706  0.3016
 3160TIP3    H1 9437   7.721   1.710   0.472 -0.9517  1.4134 -0.9671
 3160TIP3    H2 9438   7.692   1.598   0.376 -0.8828  1.0066 -0.5170
 3161TIP3   OH2 9439   4.692   3.884   3.282 -0.0255  0.1097 -0.0849
 3161TIP3    H1 9440   4.632   3.888   3.357 -0.7856  1.4409 -0.7368
 3161TIP3    H2 9441   4.771   3.930   3.312 -0.5539  1.1716 -0.2801
 3162TIP3   OH2 9442   5.089   5.318   2.892  0.7917 -0.0908  0.3523
 3162TIP3    H1 9443   5.001   5.287   2.870  1.1232  0.1604 -1.4532
 3162TIP3    H2 9444   5.145   5.283   2.823  1.8488  1.1108  0.5623
 3163TIP3   OH2 9445   1.126   4.056   5.293  0.1694  0.1590  1.0517
 3163TIP3    H1 9446   1.068   4.127   5.264  0.3993  0.2505  0.8134
 3163TIP3    H2 9447   1.201   4.062   5.234 -1.0186 -2.0408 -0.8528
 3164TIP3   OH2 9448   3.305   7.827   3.907  0.1827 -0.1094  0.3198
 3164TIP3    H1 9449   3.366   7.776   3.961  0.4014 -1.2471 -0.9512
 3164TIP3    H2 9450   3.251   7.761   3.863  0.4331  0.7370 -1.3234
 3165TIP3   OH2 9451   7.537   1.595   1.673  0.5601  0.1110 -0.2210
 3165TIP3    H1 9452   7.568   1.504   1.665  2.0910  0.5324  0.5931
 3165TIP3    H2 9453   7.561   1.636   1.590  0.5348 -0.0320 -0.2996
 3166TIP3   OH2 9454   0.486   7.305   6.375 -0.4926  0.0712 -0.0914
 3166TIP3    H1 9455   0.551   7.253   6.329 -1.6264 -1.1012 -0.4296
 3166TIP3    H2 9456   0.438   7.350   6.305  0.0638  1.0845  0.1644
 3167TIP3   OH2 9457   7.426   0.130   6.784 -0.3537  0.5863  0.1370
 3167TIP3    H1 9458   7.449   0.199   6.722 -1.3330  0.1328 -0.7470
 3167TIP3    H2 9459   7.419   0.051   6.731  0.0203 -0.0653  1.0233
 3168TIP3   OH2 9460   6.566   7.408   5.700  0.1190  0.2086 -0.0529
 3168TIP3    H1 9461   6.618   7.327   5.695 -0.6946 -0.3369  0.1038
 3168TIP3    H2 9462   6.553   7.433   5.609  1.8892  1.1857 -0.0880
 3169TIP3   OH2 9463   3.545   3.187   0.735  0.0026  0.7962 -0.6951
 3169TIP3    H1 9464   3.494   3.250   0.684 -2.0243 -0.4127 -0.2943
 3169TIP3    H2 9465   3.580   3.238   0.808 -0.9883  1.6093 -0.7692
 3170TIP3   OH2 9466   2.351   4.135   1.949  0.1228  0.1179  0.3958
 3170TIP3    H1 9467   2.422   4.160   1.890  1.1220 -0.9704  1.1002
 3170TIP3    H2 9468   2.296   4.076   1.898 -0.8822  1.7272 -0.4764
 3171TIP3   OH2 9469   5.178   6.916   0.616  0.2458  0.1629 -0.3862
 3171TIP3    H1 9470   5.086   6.938   0.604  0.4675  1.1710 -0.2703
 3171TIP3    H2 9471   5.221   6.945   0.535  0.8038  1.6987  0.4216
 3172TIP3   OH2 9472   5.315   7.165   3.155 -0.4856  1.0586  0.4509
 3172TIP3    H1 9473   5.398   7.189   3.113 -0.6119 -0.3229 -0.7075
 3172TIP3    H2 9474   5.335   7.084   3.201 -1.4186  0.0455 -0.8336
 3173TIP3   OH2 9475   3.340   3.011   4.306  0.0936  0.3203  0.4226
 3173TIP3    H1 9476   3.275   2.969   4.250 -0.1256  1.3471 -0.1099
 3173TIP3    H2 9477   3.423   2.971   4.281 -0.3835 -1.5828  1.6602
 3174TIP3   OH2 9478   6.933   4.564   5.739 -0.0367 -0.2647 -0.0574
 3174TIP3    H1 9479   6.875   4.638   5.717 -1.6762 -1.2769  0.6806
 3174TIP3    H2 9480   6.993   4.599   5.804 -0.1962  0.6566 -0.3891
 3175TIP3   OH2 9481   3.979   3.563   5.481  0.2231 -0.5319 -0.4081
 3175TIP3    H1 9482   4.044   3.629   5.501  0.1726 -0.6796  0.2736
 3175TIP3    H2 9483   3.972   3.510   5.561 -2.2334  0.7517  0.3315
 3176TIP3   OH2 9484   2.791   1.599   0.578  0.3663  0.0268  0.0183
 3176TIP3    H1 9485   2.808   1.532   0.644 -0.5663 -0.3937 -0.1592
 3176TIP3    H2 9486   2.766   1.550   0.500 -2.0817  0.5763  0.3677
 3177TIP3   OH2 9487   1.259   3.068   6.307 -0.1261 -0.0115 -0.5848
 3177TIP3    H1 9488   1.355   3.063   6.317  0.0932  2.2468 -1.0797
 3177TIP3    H2 9489   1.245   3.070   6.212 -0.4791  1.6591 -0.5248
 3178TIP3   OH2 9490   6.844   7.322   0.128  0.0838  0.3245  0.7321
 3178TIP3    H1 9491   6.915   7.386   0.125 -0.6563  1.1379 -0.1621
 3178TIP3    H2 9492   6.843   7.283   0.040  0.7438 -1.1978  1.3605
 3179TIP3   OH2 9493   4.594   6.477   5.977  0.0853  0.3395  0.3337
 3179TIP3    H1 9494   4.683   6.443   5.980 -0.5553 -1.4461  0.7751
 3179TIP3    H2 9495   4.563   6.457   5.888 -0.2383 -0.1289  0.5424
 3180TIP3   OH2 9496   6.267   2.835   0.157 -0.0629 -0.2050 -0.3283
 3180TIP3    H1 9497   6.302   2.895   0.091  0.5667  0.7947  0.8816
 3180TIP3    H2 9498   6.172   2.852   0.157  0.3756  3.1805  2.1499
 3181TIP3   OH2 9499   6.296   6.160   4.645  1.4702 -0.4168  0.1620
 3181TIP3    H1 9500   6.356   6.106   4.594 -0.8418 -0.2563 -3.0540
 3181TIP3    H2 9501   6.323   6.250   4.627  1.0466 -0.3704 -0.2493
 3182TIP3   OH2 9502   6.129   1.720   1.062  0.0808  0.1554 -0.5426
 3182TIP3    H1 9503   6.053   1.707   1.007 -0.1873  0.3604 -0.2298
 3182TIP3    H2 9504   6.195   1.758   1.004  0.0523 -0.3094 -0.8845
 3183TIP3   OH2 9505   3.704   7.793   4.704 -0.3160 -0.1675  0.1190
 3183TIP3    H1 9506   3.707   7.736   4.628 -1.2940  1.6293 -1.3540
 3183TIP3    H2 9507   3.643   7.751   4.764 -0.6427 -0.8981 -0.7044
 3184TIP3   OH2 9508   4.388   1.533   4.114 -0.1251 -0.0167 -0.0734
 3184TIP3    H1 9509   4.319   1.475   4.083  1.5534 -2.1896  0.0021
 3184TIP3    H2 9510   4.442   1.551   4.037 -1.0375  2.1740 -0.2728
 3185TIP3   OH2 9511   0.763   3.008   1.520  0.2637 -0.1457 -0.4405
 3185TIP3    H1 9512   0.701   3.063   1.472 -0.8126 -1.4269 -0.5698
 3185TIP3    H2 9513   0.793   2.943   1.456  0.9473 -0.1755 -0.1010
 3186TIP3   OH2 9514   6.189   7.374   3.234 -0.5090 -0.1493  0.1686
 3186TIP3    H1 9515   6.175   7.285   3.203  0.5984 -0.4983  0.6407
 3186TIP3    H2 9516   6.283   7.388   3.227 -0.7754  1.3787 -0.9123
 3187TIP3   OH2 9517   3.503   3.643   0.206  0.0104  0.2291 -0.6884
 3187TIP3    H1 9518   3.417   3.668   0.174 -1.3770 -1.8182  1.1051
 3187TIP3    H2 9519   3.542   3.593   0.133 -0.6132  0.5731 -1.2675
 3188TIP3   OH2 9520   4.719   0.758   1.752  0.3445  0.0596 -0.2531
 3188TIP3    H1 9521   4.650   0.791   1.695  1.0512 -2.4309 -2.7995
 3188TIP3    H2 9522   4.796   0.812   1.729  0.2508  0.0724 -0.5469
 3189TIP3   OH2 9523   4.306   1.282   5.534  0.5202 -0.4844  0.4675
 3189TIP3    H1 9524   4.280   1.198   5.496 -0.7849  0.6263 -1.2306
 3189TIP3    H2 9525   4.241   1.299   5.602 -0.1736 -0.1302 -0.2681
 3190TIP3   OH2 9526   0.921   0.837   5.754 -0.4397  0.3389 -0.0351
 3190TIP3    H1 9527   0.944   0.747   5.775 -2.0526  0.3349  1.9668
 3190TIP3    H2 9528   0.861   0.864   5.824 -1.5158  2.3343 -1.6102
 3191TIP3   OH2 9529   1.510   3.129   5.918 -0.0652 -0.3147 -0.5429
 3191TIP3    H1 9530   1.562   3.199   5.956 -1.6965 -0.4827  2.2969
 3191TIP3    H2 9531   1.533   3.051   5.969 -1.4093 -0.8525 -0.7007
 3192TIP3   OH2 9532   7.848   5.761   5.197 -0.0207 -0.3915 -0.4383
 3192TIP3    H1 9533   7.775   5.776   5.138 -0.6197  0.3594  0.4584
 3192TIP3    H2 9534   7.807   5.734   5.280  0.6637  0.4784  0.2136
 3193TIP3   OH2 9535   3.191   7.044   5.696  0.0646 -0.7248  0.4296
 3193TIP3    H1 9536   3.169   7.071   5.607 -0.4495 -0.5453  0.6049
 3193TIP3    H2 9537   3.156   7.114   5.752  2.2832  0.2852  0.6718
 3194TIP3   OH2 9538   4.052   3.733   4.566  0.2356  0.2975 -0.5174
 3194TIP3    H1 9539   4.011   3.740   4.480  1.4592  1.9768 -1.0093
 3194TIP3    H2 9540   4.088   3.820   4.583 -0.2556  0.1260  1.8609
 3195TIP3   OH2 9541   4.498   0.986   3.327 -0.5131  0.0884 -0.2684
 3195TIP3    H1 9542   4.514   0.952   3.239  1.0825 -0.4505  0.1981
 3195TIP3    H2 9543   4.436   1.058   3.314  2.0803  2.1706 -2.2732
 3196TIP3   OH2 9544   0.544   3.929   6.172 -0.5009  0.3076  0.0112
 3196TIP3    H1 9545   0.555   3.871   6.096 -0.1642  2.2160 -1.4671
 3196TIP3    H2 9546   0.612   3.901   6.233 -1.3621 -1.8681  0.0607
 3197TIP3   OH2 9547   7.540   1.639   1.245  0.7727 -0.2261 -0.2047
 3197TIP3    H1 9548   7.475   1.708   1.230 -1.3999 -1.6231  1.9934
 3197TIP3    H2 9549   7.614   1.664   1.191 -0.1463  3.4704 -0.0318
 3198TIP3   OH2 9550   5.314   5.375   4.301 -0.0279 -0.5773  0.3080
 3198TIP3    H1 9551   5.406   5.382   4.325 -0.0317 -0.8454  0.4095
 3198TIP3    H2 9552   5.303   5.436   4.228  0.3867 -1.0407 -0.1528
 3199TIP3   OH2 9553   0.260   0.577   2.324  0.1345  1.0257  0.4655
 3199TIP3    H1 9554   0.250   0.562   2.230 -0.1836  0.7264  0.5436
 3199TIP3    H2 9555   0.340   0.629   2.333  0.6888  0.2370  0.1054
 3200TIP3   OH2 9556   7.791   2.284   5.215 -0.0389  0.1259  0.1597
 3200TIP3    H1 9557   7.808   2.376   5.195 -0.5730  0.9079  2.8875
 3200TIP3    H2 9558   7.857   2.260   5.281  0.4224 -1.6385 -0.8660
 3201TIP3   OH2 9559   4.890   6.683   5.158  0.2801  0.0246  0.0817
 3201TIP3    H1 9560   4.880   6.756   5.096  2.1322  0.9421  0.7776
 3201TIP3    H2 9561   4.889   6.605   5.103 -2.1287  0.4771 -0.6501
 3202TIP3   OH2 9562   2.071   1.945   1.444  0.4892  0.0101 -0.0187
 3202TIP3    H1 9563   2.132   1.915   1.511  0.4843  0.3072  0.1217
 3202TIP3    H2 9564   1.985   1.923   1.479  0.5056 -0.2079 -0.1153
 3203TIP3   OH2 9565   1.661   3.913   3.760  0.1879 -0.3484  0.2550
 3203TIP3    H1 9566   1.721   3.985   3.781  0.7077 -1.1459  1.6507
 3203TIP3    H2 9567   1.695   3.876   3.679 -0.2141  1.0860 -0.6036
 3204TIP3   OH2 9568   6.428   2.694   0.311 -0.2331 -0.5459  0.2805
 3204TIP3    H1 9569   6.371   2.732   0.244 -0.1750 -0.5309  0.2392
 3204TIP3    H2 9570   6.507   2.669   0.264 -0.6729 -1.6834  0.1116
 3205TIP3   OH2 9571   5.811   1.474   5.193  0.3735  0.4068  0.8431
 3205TIP3    H1 9572   5.873   1.448   5.261  1.7097 -0.2253 -0.5650
 3205TIP3    H2 9573   5.811   1.570   5.195  1.2855  0.4097  0.9537
 3206TIP3   OH2 9574   7.964   4.624   4.665 -0.0284  0.2777  0.1436
 3206TIP3    H1 9575   8.004   4.650   4.583  2.1641  0.8888  1.3185
 3206TIP3    H2 9576   7.872   4.648   4.657  0.0524 -0.0371 -2.2383
 3207TIP3   OH2 9577   5.406   6.426   3.614 -0.0377 -0.1944 -0.2107
 3207TIP3    H1 9578   5.494   6.426   3.651  0.2579 -1.1072 -0.8750
 3207TIP3    H2 9579   5.365   6.348   3.651 -0.6493  0.3275  0.2481
 3208TIP3   OH2 9580   7.365   1.463   3.198 -0.0041  0.0973 -0.0990
 3208TIP3    H1 9581   7.309   1.389   3.175  2.5223 -1.8129 -0.5488
 3208TIP3    H2 9582   7.308   1.522   3.247 -2.4660 -1.4865 -0.8515
 3209TIP3   OH2 9583   6.439   4.122   2.768 -0.0986 -0.7080  0.2593
 3209TIP3    H1 9584   6.529   4.106   2.738  0.9956 -1.2169  3.4323
 3209TIP3    H2 9585   6.419   4.049   2.826 -2.7160 -0.7317 -0.5517
 3210TIP3   OH2 9586   2.789   2.264   2.203 -0.9045 -0.5902  0.3101
 3210TIP3    H1 9587   2.708   2.313   2.190 -0.2854  0.0372 -1.5923
 3210TIP3    H2 9588   2.839   2.317   2.265 -0.1310  1.4883 -1.9017
 3211TIP3   OH2 9589   3.262   6.277   6.722  0.4940 -0.3468 -0.1068
 3211TIP3    H1 9590   3.204   6.289   6.796  1.1836 -1.1146  0.5814
 3211TIP3    H2 9591   3.225   6.331   6.652 -0.0128  0.6018  0.8763
 3212TIP3   OH2 9592   4.106   0.746   3.791 -0.4573  0.2010  0.0120
 3212TIP3    H1 9593   4.171   0.718   3.855 -2.3000  0.3050  2.0597
 3212TIP3    H2 9594   4.128   0.837   3.773  0.7977 -0.1762 -0.4545
 3213TIP3   OH2 9595   0.995   2.623   5.340  0.1222 -0.3774  0.0951
 3213TIP3    H1 9596   0.931   2.562   5.378  1.9253 -2.3122  0.1683
 3213TIP3    H2 9597   1.002   2.693   5.405 -1.8299 -0.1412  0.1151
 3214TIP3   OH2 9598   2.116   4.942   6.786  0.1497  0.6047 -0.1142
 3214TIP3    H1 9599   2.114   4.939   6.690 -1.2865 -0.6808 -0.0805
 3214TIP3    H2 9600   2.160   4.862   6.812 -0.2441  0.5215  0.3100
 3215TIP3   OH2 9601   3.100   4.455   4.604 -0.0474 -0.3847  0.6615
 3215TIP3    H1 9602   3.046   4.529   4.631  0.1774  0.2685 -0.6293
 3215TIP3    H2 9603   3.189   4.480   4.626  0.0386 -0.2373  0.1448
 3216TIP3   OH2 9604   0.461   6.222   0.142  0.5725 -0.7249  0.5272
 3216TIP3    H1 9605   0.431   6.180   0.222  2.6090 -1.3667  1.0152
 3216TIP3    H2 9606   0.386   6.273   0.111 -1.1295 -2.6075  1.3534
 3217TIP3   OH2 9607   5.399   5.808   4.529  0.1200 -0.0673 -0.0919
 3217TIP3    H1 9608   5.441   5.793   4.614 -0.0687 -0.3668 -0.0485
 3217TIP3    H2 9609   5.308   5.780   4.542  0.2193 -0.6126 -0.5439
 3218TIP3   OH2 9610   4.271   5.134   3.961 -0.2202 -0.1268 -0.3855
 3218TIP3    H1 9611   4.279   5.149   3.867  0.9003  1.3493 -0.0947
 3218TIP3    H2 9612   4.359   5.107   3.989 -0.8577 -1.9116  0.0585
 3219TIP3   OH2 9613   7.042   0.156   6.008 -0.1346  0.1174 -0.2949
 3219TIP3    H1 9614   6.968   0.113   6.052 -0.4262  0.4336 -0.4709
 3219TIP3    H2 9615   7.089   0.201   6.077  0.1321 -0.4245 -0.1176
 3220TIP3   OH2 9616   2.157   6.863   1.441  0.2373 -0.5699  0.2593
 3220TIP3    H1 9617   2.108   6.936   1.402  0.6443  0.3567  1.4271
 3220TIP3    H2 9618   2.246   6.896   1.448  0.2492 -0.8352  1.6075
 3221TIP3   OH2 9619   0.509   3.414   2.749  0.5853 -0.1348 -0.5810
 3221TIP3    H1 9620   0.547   3.498   2.722 -0.7236  0.3352 -1.0945
 3221TIP3    H2 9621   0.481   3.428   2.840  1.6173 -0.4807 -0.2045
 3222TIP3   OH2 9622   7.124   0.111   5.184 -0.3270 -0.4418 -0.1040
 3222TIP3    H1 9623   7.199   0.081   5.234 -0.4806 -1.4610 -0.4733
 3222TIP3    H2 9624   7.050   0.059   5.215 -0.8619  0.4196  0.1247
 3223TIP3   OH2 9625   3.816   1.542   0.901  0.4093 -0.3387 -0.3275
 3223TIP3    H1 9626   3.745   1.486   0.870 -0.1273  0.1101  0.0933
 3223TIP3    H2 9627   3.887   1.527   0.838 -0.9376  1.1916 -2.3599
 3224TIP3   OH2 9628   4.622   5.574   1.753 -0.1504  0.1817 -0.0459
 3224TIP3    H1 9629   4.704   5.536   1.720  0.0706  0.3580  0.2947
 3224TIP3    H2 9630   4.599   5.520   1.829 -0.4618  0.0035 -0.2665
 3225TIP3   OH2 9631   0.387   1.230   4.311  0.2005 -0.2210 -0.3850
 3225TIP3    H1 9632   0.446   1.176   4.364 -1.2723 -1.2574  0.2646
 3225TIP3    H2 9633   0.333   1.276   4.374 -0.3739 -0.0611 -0.9798
 3226TIP3   OH2 9634   3.096   1.462   1.069 -0.1720 -0.1835 -0.1639
 3226TIP3    H1 9635   3.107   1.551   1.035 -2.9757  0.3835  0.1441
 3226TIP3    H2 9636   3.099   1.407   0.990 -4.5536  0.9238 -1.4341
 3227TIP3   OH2 9637   6.211   4.913   6.439  0.2425  0.2407  0.5224
 3227TIP3    H1 9638   6.203   4.844   6.504  0.7087 -1.7384 -1.3978
 3227TIP3    H2 9639   6.225   4.867   6.356  0.1815  2.6368 -0.9308
 3228TIP3   OH2 9640   4.530   6.706   4.338  0.3316 -0.7435 -0.2632
 3228TIP3    H1 9641   4.572   6.669   4.261  1.0992 -1.9887  0.7150
 3228TIP3    H2 9642   4.460   6.761   4.303  2.4393  1.0335 -1.9441
 3229TIP3   OH2 9643   6.404   1.341   6.137 -0.4469  0.0638  0.3988
 3229TIP3    H1 9644   6.458   1.269   6.103  1.0447  1.5232 -0.4249
 3229TIP3    H2 9645   6.377   1.311   6.224 -0.3007 -1.7046 -0.1260
 3230TIP3   OH2 9646   1.807   6.817   0.281  0.3016  0.3808  0.0915
 3230TIP3    H1 9647   1.744   6.889   0.292 -0.6820 -0.7308  2.3311
 3230TIP3    H2 9648   1.752   6.740   0.263  0.9952 -0.5463  1.7378
 3231TIP3   OH2 9649   1.894   0.847   4.465  0.4063 -0.2058 -0.2683
 3231TIP3    H1 9650   1.966   0.886   4.416 -0.6255  0.0061 -1.6923
 3231TIP3    H2 9651   1.819   0.854   4.406 -1.4363  1.9593  2.0673
 3232TIP3   OH2 9652   3.562   5.227   5.291 -0.4899  0.1534  0.6141
 3232TIP3    H1 9653   3.486   5.246   5.346 -1.4434  0.2475 -0.6768
 3232TIP3    H2 9654   3.610   5.160   5.339 -1.3548  0.1304  1.4855
 3233TIP3   OH2 9655   5.288   1.655   1.257  0.4290 -0.6056  0.4936
 3233TIP3    H1 9656   5.314   1.581   1.202 -0.2289  0.0667 -0.7646
 3233TIP3    H2 9657   5.201   1.631   1.290  1.0843 -1.2837  1.7852
 3234TIP3   OH2 9658   4.399   1.662   6.449 -0.1071 -0.0628 -0.3252
 3234TIP3    H1 9659   4.456   1.650   6.373 -0.1344 -0.1150 -0.3364
 3234TIP3    H2 9660   4.422   1.591   6.508  0.3808  0.3572  0.0003
 3235TIP3   OH2 9661   2.238   5.908   4.553 -0.4349 -0.3203 -0.1848
 3235TIP3    H1 9662   2.232   5.888   4.460  0.7543  2.2886 -0.9013
 3235TIP3    H2 9663   2.149   5.937   4.577  0.2958  3.9175 -1.8837
 3236TIP3   OH2 9664   5.554   3.077   5.982  0.2220  0.0104  0.5825
 3236TIP3    H1 9665   5.578   3.024   5.906  0.3263 -1.2147  1.4359
 3236TIP3    H2 9666   5.585   3.165   5.960  0.3293 -0.3343 -0.7464
 3237TIP3   OH2 9667   5.767   1.050   0.309  0.3608 -0.0160  0.3863
 3237TIP3    H1 9668   5.679   1.026   0.338  0.6021 -1.1134  0.2320
 3237TIP3    H2 9669   5.815   0.967   0.304  0.9660  0.3770 -0.9715
 3238TIP3   OH2 9670   4.487   6.221   6.616  0.1579 -0.5146 -0.1293
 3238TIP3    H1 9671   4.490   6.197   6.709  0.8512  0.0666  0.0118
 3238TIP3    H2 9672   4.496   6.138   6.569  0.0440 -0.7862  0.3279
 3239TIP3   OH2 9673   3.727   7.088   2.647 -0.3780 -0.2344  0.4115
 3239TIP3    H1 9674   3.672   7.011   2.631  0.1983 -1.0134  1.9270
 3239TIP3    H2 9675   3.684   7.132   2.721 -0.8174  1.0504 -0.5744
 3240TIP3   OH2 9676   2.539   7.469   0.422 -0.0588 -0.5616 -0.4156
 3240TIP3    H1 9677   2.463   7.484   0.478 -0.0411 -1.9059  0.0152
 3240TIP3    H2 9678   2.515   7.394   0.368 -0.4482  1.2641 -2.9824
 3241TIP3   OH2 9679   8.047   7.537   3.425  0.2029 -0.0211  0.2919
 3241TIP3    H1 9680   8.140   7.517   3.414  0.3800  0.9284 -0.0677
 3241TIP3    H2 9681   8.033   7.538   3.519  0.0830 -2.1546  0.3515
 3242TIP3   OH2 9682   7.283   0.977   0.994 -0.4358 -0.1072 -0.1566
 3242TIP3    H1 9683   7.339   0.972   1.071 -0.9512 -1.2344  0.1533
 3242TIP3    H2 9684   7.286   0.889   0.956 -2.3914 -0.3383  0.1433
 3243TIP3   OH2 9685   5.356   7.668   2.519 -0.4682 -0.2074 -0.1485
 3243TIP3    H1 9686   5.380   7.703   2.605 -0.4046 -1.8121  0.5420
 3243TIP3    H2 9687   5.267   7.636   2.530 -0.3716 -0.6495 -0.6043
 3244TIP3   OH2 9688   1.591   3.801   1.976  0.6751 -0.5781 -0.3436
 3244TIP3    H1 9689   1.541   3.840   1.905  0.1338  1.0628  0.8833
 3244TIP3    H2 9690   1.538   3.726   2.004 -0.2159  0.0830 -0.2286
 3245TIP3   OH2 9691   2.561   4.152   5.889 -0.1415 -0.2058  0.1179
 3245TIP3    H1 9692   2.610   4.190   5.816  1.3739 -1.4893  0.4144
 3245TIP3    H2 9693   2.502   4.090   5.848 -1.9398  1.6757 -0.2831
 3246TIP3   OH2 9694   7.520   7.208   1.092  0.1473  0.1447  0.1201
 3246TIP3    H1 9695   7.437   7.248   1.065 -0.0250 -0.6073 -0.5113
 3246TIP3    H2 9696   7.521   7.123   1.048  2.3426  1.0684 -1.8428
 3247TIP3   OH2 9697   4.119   2.185   3.012  0.0328 -0.2493 -0.8091
 3247TIP3    H1 9698   4.132   2.120   2.943 -0.7027 -0.6625 -0.5640
 3247TIP3    H2 9699   4.129   2.136   3.094  1.7851  0.4057 -0.5866
 3248TIP3   OH2 9700   1.484   0.226   3.952  0.1815  0.7342 -0.1548
 3248TIP3    H1 9701   1.440   0.208   4.035 -1.2217 -0.0814 -1.0326
 3248TIP3    H2 9702   1.508   0.319   3.957  4.4699 -0.2050  3.0683
 3249TIP3   OH2 9703   6.862   6.392   2.418  0.0671 -0.7167  0.2726
 3249TIP3    H1 9704   6.791   6.364   2.359 -2.1034  2.3118  1.1695
 3249TIP3    H2 9705   6.835   6.360   2.504 -0.6218  0.9425  0.7151
 3250TIP3   OH2 9706   0.937   6.958   6.496  0.4492 -0.7474 -0.2664
 3250TIP3    H1 9707   1.025   6.941   6.463  0.6075  1.0157 -0.8804
 3250TIP3    H2 9708   0.918   7.048   6.467 -1.2237 -0.8043  0.5562
 3251TIP3   OH2 9709   6.716   6.906   5.018 -0.2513  0.1433  0.5692
 3251TIP3    H1 9710   6.704   6.923   5.112 -2.2764  0.6586  0.2612
 3251TIP3    H2 9711   6.699   6.991   4.976 -2.5628 -0.7355 -0.4508
 3252TIP3   OH2 9712   4.205   1.536   2.314 -0.0840 -0.1691 -0.3453
 3252TIP3    H1 9713   4.206   1.512   2.221 -0.1307 -1.8236  0.0456
 3252TIP3    H2 9714   4.147   1.472   2.355 -1.5549  1.6556  0.5784
 3253TIP3   OH2 9715   0.880   4.804   2.552  0.7867  0.2197 -0.0230
 3253TIP3    H1 9716   0.910   4.894   2.564  2.0396 -0.2556  0.5861
 3253TIP3    H2 9717   0.811   4.793   2.617  0.0301  0.9832 -0.6724
 3254TIP3   OH2 9718   7.939   3.879   0.994 -0.3693  0.2982 -0.1338
 3254TIP3    H1 9719   7.997   3.811   1.029  0.0377  0.0396 -1.2593
 3254TIP3    H2 9720   7.870   3.830   0.950 -0.7662  0.6155  0.1356
 3255TIP3   OH2 9721   1.380   3.271   3.026  0.0312  0.3535 -0.2321
 3255TIP3    H1 9722   1.437   3.194   3.027  0.1566  0.4444 -0.3183
 3255TIP3    H2 9723   1.418   3.328   2.960 -0.4433  0.2067 -0.6392
 3256TIP3   OH2 9724   5.283   1.399   6.258  0.1651 -0.1370  0.0696
 3256TIP3    H1 9725   5.188   1.405   6.272  0.1634  1.8870 -0.5344
 3256TIP3    H2 9726   5.308   1.485   6.223  2.4882 -0.0422  1.7222
 3257TIP3   OH2 9727   4.508   2.066   0.928  0.0852 -0.0923  0.6219
 3257TIP3    H1 9728   4.578   2.001   0.940 -0.5815 -0.8988  0.2513
 3257TIP3    H2 9729   4.440   2.039   0.990 -0.0317  0.4954  0.7467
 3258TIP3   OH2 9730   4.413   3.925   3.435 -0.3400 -0.0083 -0.6622
 3258TIP3    H1 9731   4.325   3.896   3.409  0.2149 -1.3443 -1.1241
 3258TIP3    H2 9732   4.446   3.855   3.491  0.8421 -0.0666 -1.3902
 3259TIP3   OH2 9733   6.427   2.485   3.382  0.6020 -0.1580 -0.2815
 3259TIP3    H1 9734   6.501   2.435   3.350  1.2065  1.5257 -1.6756
 3259TIP3    H2 9735   6.461   2.574   3.393 -0.7772  0.2829  0.7384
 3260TIP3   OH2 9736   4.347   3.879   5.949 -0.0600  0.5388  0.3502
 3260TIP3    H1 9737   4.368   3.898   6.040  0.9001  2.0900 -0.1527
 3260TIP3    H2 9738   4.392   3.797   5.930  0.2369  0.5292  1.0894
 3261TIP3   OH2 9739   4.583   7.461   3.909 -0.3250  0.2237 -0.0559
 3261TIP3    H1 9740   4.502   7.472   3.859 -3.1156  1.1719  4.1736
 3261TIP3    H2 9741   4.626   7.546   3.904 -1.6266  0.9642  0.6614
 3262TIP3   OH2 9742   1.755   3.803   3.546  0.0529 -0.2083  0.6265
 3262TIP3    H1 9743   1.772   3.709   3.555  0.1762 -0.3149 -0.5761
 3262TIP3    H2 9744   1.821   3.834   3.483 -0.1320  0.6454  0.8319
 3263TIP3   OH2 9745   7.064   0.151   0.999  0.0589 -0.3326  0.1174
 3263TIP3    H1 9746   7.044   0.075   1.055 -1.3390 -0.9650 -1.1699
 3263TIP3    H2 9747   7.154   0.173   1.021 -0.5814 -0.2263  2.9586
 3264TIP3   OH2 9748   2.542   1.600   6.235  0.1819 -0.5541 -0.3024
 3264TIP3    H1 9749   2.549   1.649   6.316 -1.9447 -0.9957  0.2078
 3264TIP3    H2 9750   2.499   1.660   6.174 -0.4271 -1.0181 -0.3434
 3265TIP3   OH2 9751   6.568   7.030   2.185  0.4894 -0.0441  0.4353
 3265TIP3    H1 9752   6.494   7.088   2.168  0.7321  0.0392 -0.3690
 3265TIP3    H2 9753   6.559   6.959   2.122  1.6534  0.4932 -0.3737
 3266TIP3   OH2 9754   5.478   7.084   2.129 -0.4570 -0.4545 -0.1518
 3266TIP3    H1 9755   5.447   7.036   2.205  1.1158 -0.8369  0.2935
 3266TIP3    H2 9756   5.444   7.173   2.141 -0.1124 -0.4714  1.0754
 3267TIP3   OH2 9757   7.204   0.915   1.381 -0.4342  0.1538  0.3413
 3267TIP3    H1 9758   7.177   0.907   1.473 -3.5337  0.2267 -0.4360
 3267TIP3    H2 9759   7.210   1.009   1.367 -0.2599  0.1516  0.4033
 3268TIP3   OH2 9760   0.489   2.410   2.187  0.2709 -0.5851 -0.1834
 3268TIP3    H1 9761   0.544   2.333   2.176 -0.2498 -0.9998  0.0453
 3268TIP3    H2 9762   0.438   2.392   2.266  0.2787  0.0780 -0.0207
 3269TIP3   OH2 9763   6.553   2.159   3.806 -0.1023  0.3499  0.3924
 3269TIP3    H1 9764   6.584   2.140   3.718 -2.7529  1.0598 -0.8078
 3269TIP3    H2 9765   6.528   2.074   3.842  0.7794  0.0826  0.3824
 3270TIP3   OH2 9766   3.923   1.611   3.950 -0.2376 -0.5271  0.4931
 3270TIP3    H1 9767   3.868   1.672   3.999 -1.2104 -1.3629  0.4914
 3270TIP3    H2 9768   3.894   1.618   3.860  0.6063  0.0040  0.2495
 3271TIP3   OH2 9769   1.745   2.071   2.392  0.0933  0.0449  0.4330
 3271TIP3    H1 9770   1.744   2.071   2.488  1.4818 -0.5371  0.4650
 3271TIP3    H2 9771   1.751   2.164   2.368  2.1154  0.0972  0.9851
 3272TIP3   OH2 9772   1.018   2.224   1.517  0.1614  0.3786 -0.5696
 3272TIP3    H1 9773   1.107   2.216   1.483  0.8988 -0.2649  1.3987
 3272TIP3    H2 9774   1.011   2.315   1.546  0.2978  0.3478 -0.4364
 3273TIP3   OH2 9775   4.553   6.618   1.075  0.0594 -0.1827  0.5922
 3273TIP3    H1 9776   4.521   6.682   1.139 -0.8615 -0.7225  0.6919
 3273TIP3    H2 9777   4.536   6.659   0.990  0.8096  0.3146  0.6763
 3274TIP3   OH2 9778   0.293   1.480   3.456  0.4154  0.3717 -0.3038
 3274TIP3    H1 9779   0.360   1.476   3.525  2.0548  1.6059 -1.7248
 3274TIP3    H2 9780   0.340   1.514   3.379 -1.6512  0.3637 -1.6476
 3275TIP3   OH2 9781   5.962   6.625   5.632  0.1775  0.1483  0.6150
 3275TIP3    H1 9782   5.964   6.543   5.582 -0.0239  0.3408  0.2935
 3275TIP3    H2 9783   6.038   6.674   5.600  0.1036  0.2317  0.5695
 3276TIP3   OH2 9784   8.295   3.554   0.931 -0.3653 -0.0877 -0.5343
 3276TIP3    H1 9785   8.335   3.513   1.007 -2.0144 -0.2590  0.2831
 3276TIP3    H2 9786   8.201   3.545   0.945 -0.7252  0.7460 -2.1218
 3277TIP3   OH2 9787   1.710   2.778   4.095  0.1117 -0.3483 -0.4059
 3277TIP3    H1 9788   1.775   2.836   4.135 -0.1674 -1.1882  1.3599
 3277TIP3    H2 9789   1.674   2.728   4.169 -2.5500  0.0907 -1.2828
 3278TIP3   OH2 9790   1.279   2.343   5.880  0.0041 -0.6899  0.3710
 3278TIP3    H1 9791   1.348   2.393   5.923 -0.7048 -1.2133  2.2179
 3278TIP3    H2 9792   1.282   2.257   5.922 -2.4155 -0.4059  1.2591
 3279TIP3   OH2 9793   0.197   0.985   1.099 -0.2181  0.6148  0.3432
 3279TIP3    H1 9794   0.252   0.962   1.174  3.0755  1.7602 -1.5165
 3279TIP3    H2 9795   0.176   1.077   1.111  0.0208  0.7095  0.0582
 3280TIP3   OH2 9796   0.051   3.988   5.492 -0.5644 -0.0120 -0.3193
 3280TIP3    H1 9797   0.055   3.962   5.399  1.3630 -1.4742  0.0916
 3280TIP3    H2 9798   0.142   3.984   5.521 -1.2689 -0.9930  1.9889
 3281TIP3   OH2 9799   7.830   4.734   1.004  0.0183  0.0963 -0.1502
 3281TIP3    H1 9800   7.800   4.703   0.918  0.2911 -0.1239 -0.1652
 3281TIP3    H2 9801   7.812   4.828   1.003  0.4017  0.1679 -0.6090
 3282TIP3   OH2 9802   0.597   2.099   3.199 -0.5604 -0.2790  0.4091
 3282TIP3    H1 9803   0.666   2.102   3.265 -1.1528 -0.3581  1.0365
 3282TIP3    H2 9804   0.624   2.028   3.140  1.6551  1.8471 -1.3452
 3283TIP3   OH2 9805   7.797   7.048   1.050 -0.6085 -0.7475 -0.2375
 3283TIP3    H1 9806   7.834   7.036   1.138  1.2886 -1.5271 -1.0831
 3283TIP3    H2 9807   7.802   7.142   1.035  1.7630 -0.8661 -0.5544
 3284TIP3   OH2 9808   4.559   7.389   4.202  0.3598 -0.0755 -0.4137
 3284TIP3    H1 9809   4.538   7.402   4.109 -2.7982 -1.6691 -0.0444
 3284TIP3    H2 9810   4.543   7.475   4.242 -3.4174 -0.4977 -0.6428
 3285TIP3   OH2 9811   7.283   1.083   3.307 -0.7921 -0.2636 -0.1061
 3285TIP3    H1 9812   7.209   1.063   3.365 -1.4926 -3.3610 -1.8747
 3285TIP3    H2 9813   7.253   1.159   3.256 -1.5889  0.2583  1.0827
 3286TIP3   OH2 9814   5.076   5.594   5.733 -0.2365 -0.2039 -0.1476
 3286TIP3    H1 9815   5.159   5.624   5.769 -0.1518  0.0108 -0.5215
 3286TIP3    H2 9816   5.021   5.672   5.730 -0.7163 -0.4840  0.8067
 3287TIP3   OH2 9817   1.992   5.318   1.459  0.5541  0.4932 -0.0814
 3287TIP3    H1 9818   1.900   5.294   1.463  0.9891 -1.1815  0.6192
 3287TIP3    H2 9819   2.034   5.266   1.527  2.1468  0.5740 -0.9464
 3288TIP3   OH2 9820   3.445   7.831   3.633 -0.2017 -0.3360 -0.1241
 3288TIP3    H1 9821   3.450   7.737   3.653  2.2081 -0.1166  0.5642
 3288TIP3    H2 9822   3.378   7.864   3.693  0.4645 -1.2806  1.1856
 3289TIP3   OH2 9823   6.102   7.551   5.567  0.2972  0.1640  0.0655
 3289TIP3    H1 9824   6.113   7.561   5.661 -0.4387  0.3766  0.1371
 3289TIP3    H2 9825   6.062   7.633   5.538  0.0689 -0.0841 -0.3478
 3290TIP3   OH2 9826   8.222   5.288   4.049 -0.1756  0.2633  0.0902
 3290TIP3    H1 9827   8.180   5.353   4.105  0.1590 -0.7305  1.5302
 3290TIP3    H2 9828   8.315   5.311   4.051  0.0240 -0.5601  1.0593
 3291TIP3   OH2 9829   2.916   4.906   0.512 -0.6356  0.4003 -0.1191
 3291TIP3    H1 9830   2.970   4.972   0.469 -0.7469  0.3940 -0.2692
 3291TIP3    H2 9831   2.844   4.889   0.450  0.5667 -1.4846 -1.1003
 3292TIP3   OH2 9832   7.248   4.868   3.292 -0.2377 -0.2333 -0.1247
 3292TIP3    H1 9833   7.191   4.864   3.216  0.8843  0.2006 -1.0363
 3292TIP3    H2 9834   7.246   4.781   3.330 -1.6299 -0.1669 -0.0243
 3293TIP3   OH2 9835   2.460   7.736   1.756  0.2948 -0.0902  0.1449
 3293TIP3    H1 9836   2.426   7.816   1.796  2.1830  1.1555 -0.5752
 3293TIP3    H2 9837   2.389   7.673   1.764 -1.2452  1.6310  0.7976
 3294TIP3   OH2 9838   5.964   5.163   3.865 -0.0907 -0.4467  0.1093
 3294TIP3    H1 9839   5.946   5.205   3.781  0.4342 -0.1388  0.1478
 3294TIP3    H2 9840   5.896   5.096   3.873  0.1754 -0.8415 -0.8095
 3295TIP3   OH2 9841   3.282   4.175   4.120 -0.1794  0.2910 -0.3344
 3295TIP3    H1 9842   3.278   4.269   4.106 -3.0881  0.2039 -0.6430
 3295TIP3    H2 9843   3.286   4.137   4.033 -1.4988  0.1100 -0.3347
 3296TIP3   OH2 9844   4.947   0.106   0.806 -0.1912  0.4340 -0.2780
 3296TIP3    H1 9845   4.853   0.108   0.822 -0.4229  0.6898 -1.5331
 3296TIP3    H2 9846   4.977   0.024   0.846 -0.9394  0.3470  0.1189
 3297TIP3   OH2 9847   0.198   0.042   6.448  0.0737 -0.1220  0.1207
 3297TIP3    H1 9848   0.272   0.011   6.396  0.6237  0.8606  0.2954
 3297TIP3    H2 9849   0.214   0.136   6.459 -1.6663  0.3113 -0.6166
 3298TIP3   OH2 9850   6.891   4.485   2.493  0.0288 -0.5677  0.3968
 3298TIP3    H1 9851   6.859   4.403   2.529  2.1363 -0.8700  1.7994
 3298TIP3    H2 9852   6.986   4.483   2.510  0.9887  0.0414 -3.7119
 3299TIP3   OH2 9853   0.287   7.595   6.462 -0.1368 -0.3823  0.1378
 3299TIP3    H1 9854   0.215   7.650   6.433 -1.2311 -0.8121  1.8985
 3299TIP3    H2 9855   0.339   7.580   6.383 -1.0859  1.2343 -0.8492
 3300TIP3   OH2 9856   3.697   2.529   4.447  0.1182 -0.4117  0.2274
 3300TIP3    H1 9857   3.678   2.513   4.354  3.8424 -1.5330 -0.4896
 3300TIP3    H2 9858   3.721   2.621   4.450  0.6526 -0.5366 -0.0743
 3301TIP3   OH2 9859   4.810   7.590   2.622  0.4922  0.0071 -0.5388
 3301TIP3    H1 9860   4.755   7.644   2.565 -0.1932 -0.0953  0.0131
 3301TIP3    H2 9861   4.782   7.500   2.605 -2.3369  0.1268  2.5155
 3302TIP3   OH2 9862   5.730   4.417   1.713 -0.2176 -0.1829 -0.2987
 3302TIP3    H1 9863   5.800   4.365   1.675 -0.8131 -0.2799 -1.2831
 3302TIP3    H2 9864   5.653   4.361   1.709 -0.9435  0.8358 -1.6498
 3303TIP3   OH2 9865   8.152   4.610   6.476  0.1186  0.2515 -0.4018
 3303TIP3    H1 9866   8.236   4.621   6.431 -0.3062 -1.5436 -1.7366
 3303TIP3    H2 9867   8.086   4.621   6.408 -0.6590 -0.0291  0.2873
 3304TIP3   OH2 9868   5.579   6.468   5.148 -0.1658  0.7482 -0.3157
 3304TIP3    H1 9869   5.612   6.553   5.119 -0.7965  0.7036 -1.2226
 3304TIP3    H2 9870   5.622   6.405   5.091  1.2917  0.2995  1.1814
 3305TIP3   OH2 9871   7.150   0.326   2.781  0.6063 -0.0906  0.1108
 3305TIP3    H1 9872   7.071   0.335   2.728  0.4775 -1.6602  0.0083
 3305TIP3    H2 9873   7.158   0.410   2.826 -1.2657 -0.0045  0.3421
 3306TIP3   OH2 9874   7.369   4.650   2.814  0.3320 -0.1219  0.0225
 3306TIP3    H1 9875   7.451   4.695   2.792  0.1118 -0.1358 -0.8596
 3306TIP3    H2 9876   7.301   4.706   2.776  0.0373 -1.0442 -0.8338
 3307TIP3   OH2 9877   7.297   4.201   1.292  0.6485 -0.0993  0.2802
 3307TIP3    H1 9878   7.372   4.142   1.285 -0.2652 -1.1130 -2.0652
 3307TIP3    H2 9879   7.278   4.226   1.201 -1.2431  0.9166  0.9081
 3308TIP3   OH2 9880   5.921   2.936   5.328  0.1035 -0.0557 -0.3377
 3308TIP3    H1 9881   5.888   2.862   5.277 -0.4690  0.2824 -0.4648
 3308TIP3    H2 9882   5.849   2.961   5.385 -0.7089  2.0916 -2.1655
 3309TIP3   OH2 9883   4.367   7.396   5.227 -0.1540  0.5104 -0.2993
 3309TIP3    H1 9884   4.431   7.338   5.186  1.3222  1.1500  0.9741
 3309TIP3    H2 9885   4.403   7.413   5.314 -0.8089  2.8575 -0.4177
 3310TIP3   OH2 9886   6.179   7.240   0.829 -0.1545  0.2455  0.2232
 3310TIP3    H1 9887   6.148   7.164   0.779 -0.4183  0.0606  0.6646
 3310TIP3    H2 9888   6.189   7.207   0.918 -0.3757  0.7562  0.4365
 3311TIP3   OH2 9889   0.119   6.194   2.861  0.3043  0.0899 -0.1821
 3311TIP3    H1 9890   0.143   6.121   2.804 -2.1224 -1.2926  0.4413
 3311TIP3    H2 9891   0.059   6.247   2.809 -1.4415 -0.8474  0.8074
 3312TIP3   OH2 9892   0.379   0.965   5.244 -0.2133  0.4587  0.2225
 3312TIP3    H1 9893   0.351   1.055   5.225 -1.8255 -0.1828 -0.6140
 3312TIP3    H2 9894   0.372   0.919   5.161  0.5475 -0.4686  0.6520
 3313TIP3   OH2 9895   0.249   4.825   6.534  0.6135  0.5030 -0.7093
 3313TIP3    H1 9896   0.251   4.835   6.629 -1.2956  0.5956 -0.6251
 3313TIP3    H2 9897   0.258   4.914   6.501 -0.4509  0.6982 -0.5234
 3314TIP3   OH2 9898   1.921   3.268   2.804 -0.5976 -0.1860  0.3040
 3314TIP3    H1 9899   1.983   3.336   2.778  0.1168 -1.1234 -0.4952
 3314TIP3    H2 9900   1.895   3.293   2.893  3.5787 -1.5852  2.1392
 3315TIP3   OH2 9901   4.764   4.420   3.704  0.0887  0.0720 -0.6315
 3315TIP3    H1 9902   4.732   4.411   3.614 -0.5884  0.5041 -0.4419
 3315TIP3    H2 9903   4.685   4.421   3.757  0.4702  0.2231 -0.0634
 3316TIP3   OH2 9904   5.668   6.736   6.447 -0.2948  0.1014  0.4074
 3316TIP3    H1 9905   5.689   6.775   6.363  0.6253  0.5460  0.8301
 3316TIP3    H2 9906   5.732   6.665   6.457  0.8234  1.2104  1.5294
 3317TIP3   OH2 9907   3.431   0.476   3.985  0.0082  0.1172 -0.2128
 3317TIP3    H1 9908   3.417   0.382   3.979  1.2909 -0.0525 -0.8323
 3317TIP3    H2 9909   3.478   0.488   4.068  0.1352  0.1684 -0.2913
 3318TIP3   OH2 9910   4.471   2.643   0.101 -0.8819 -0.6715  0.1986
 3318TIP3    H1 9911   4.530   2.577   0.138  0.1487  0.1238  0.0206
 3318TIP3    H2 9912   4.529   2.712   0.070 -1.9312  0.2188  0.1654
 3319TIP3   OH2 9913   5.933   0.856   3.431  0.2673 -0.2597  0.8464
 3319TIP3    H1 9914   5.930   0.947   3.404 -1.9215  0.3079  2.7304
 3319TIP3    H2 9915   5.974   0.857   3.517 -0.4711 -0.9414  1.2242
 3320TIP3   OH2 9916   0.655   1.964   0.691 -0.2480 -0.0288  0.4319
 3320TIP3    H1 9917   0.724   2.027   0.715  0.0645  0.4851 -1.5872
 3320TIP3    H2 9918   0.698   1.905   0.629 -1.5881  0.3181 -0.8851
 3321TIP3   OH2 9919   1.397   1.690   3.554  0.0757  0.1367  0.2858
 3321TIP3    H1 9920   1.356   1.736   3.627 -1.0176  0.3380 -0.4194
 3321TIP3    H2 9921   1.434   1.611   3.592  0.8269  0.9555  1.2991
 3322TIP3   OH2 9922   2.214   6.297   6.164  0.4058 -0.0325 -0.2943
 3322TIP3    H1 9923   2.301   6.331   6.144  1.6350 -1.9655  1.4557
 3322TIP3    H2 9924   2.210   6.292   6.259 -1.1032 -1.2685 -0.3695
 3323TIP3   OH2 9925   0.361   3.798   0.826 -0.4286 -0.2923  0.0453
 3323TIP3    H1 9926   0.335   3.771   0.914  0.6256 -1.9068 -0.1005
 3323TIP3    H2 9927   0.295   3.758   0.768 -0.6085  0.0147  0.0375
 3324TIP3   OH2 9928   4.247   5.428   4.119 -0.5293  0.2380  0.3576
 3324TIP3    H1 9929   4.199   5.509   4.107 -0.5021  0.4369  1.4439
 3324TIP3    H2 9930   4.184   5.368   4.160 -0.4548 -0.1899 -0.1343
 3325TIP3   OH2 9931   5.107   1.173   2.663 -0.0353 -0.2104 -0.1971
 3325TIP3    H1 9932   5.187   1.125   2.682  0.1974  0.7797  1.4904
 3325TIP3    H2 9933   5.136   1.253   2.619 -0.3662 -1.2065 -2.3344
 3326TIP3   OH2 9934   1.732   7.488   2.728 -0.0660  0.9239  0.0694
 3326TIP3    H1 9935   1.709   7.533   2.647 -0.3154 -1.0245 -0.9975
 3326TIP3    H2 9936   1.784   7.552   2.777  2.0209  1.4405 -2.5882
 3327TIP3   OH2 9937   5.095   6.948   1.006 -0.1113  0.6078 -0.5289
 3327TIP3    H1 9938   5.039   6.944   0.929  0.3397  1.7606 -0.9426
 3327TIP3    H2 9939   5.095   6.859   1.041 -1.6147  0.4327 -0.9178
 3328TIP3   OH2 9940   7.285   6.264   4.150  0.2131 -0.1286  0.7350
 3328TIP3    H1 9941   7.219   6.331   4.168 -0.5128 -0.7678  0.4723
 3328TIP3    H2 9942   7.330   6.252   4.234  0.3541  0.6863  0.7842
 3329TIP3   OH2 9943   6.484   6.017   4.516  0.0061  0.2270  0.4546
 3329TIP3    H1 9944   6.504   5.956   4.587  1.5527  0.8405  0.6021
 3329TIP3    H2 9945   6.568   6.030   4.472 -0.8516  0.0885 -1.3344
 3330TIP3   OH2 9946   0.405   6.218   4.213 -0.1425 -0.3039  0.5822
 3330TIP3    H1 9947   0.312   6.222   4.188 -0.1484  2.0839  0.7615
 3330TIP3    H2 9948   0.403   6.204   4.307 -0.3072 -0.4394  0.5609
 3331TIP3   OH2 9949   4.692   4.561   5.684 -0.3010  0.0814 -0.2743
 3331TIP3    H1 9950   4.656   4.480   5.648 -1.3573  1.3292 -2.2588
 3331TIP3    H2 9951   4.766   4.581   5.627 -0.9219  1.2165 -0.7022
 3332TIP3   OH2 9952   1.521   0.890   5.431  0.5354  0.0786  0.0347
 3332TIP3    H1 9953   1.538   0.803   5.394  0.0463  0.4095 -0.9995
 3332TIP3    H2 9954   1.496   0.943   5.356  1.6522  1.3451  0.5116
 3333TIP3   OH2 9955   0.560   7.431   4.662  0.3024 -0.3368  1.1449
 3333TIP3    H1 9956   0.554   7.376   4.740 -0.8646 -0.8976  0.6986
 3333TIP3    H2 9957   0.618   7.383   4.603 -0.5530 -1.0264  0.8354
 3334TIP3   OH2 9958   3.771   0.738   4.007  0.0235  0.2569 -0.1145
 3334TIP3    H1 9959   3.783   0.802   3.937  1.5328 -1.9612 -2.0648
 3334TIP3    H2 9960   3.858   0.727   4.045 -0.2323 -0.5244  0.2691
 3335TIP3   OH2 9961   5.309   3.507   3.905  0.2582 -0.0201  0.2252
 3335TIP3    H1 9962   5.305   3.598   3.874 -0.3755 -0.1363 -0.0560
 3335TIP3    H2 9963   5.328   3.515   3.998  1.0998  0.3716  0.0322
 3336TIP3   OH2 9964   3.416   7.046   4.923  0.3900 -0.4830  0.4646
 3336TIP3    H1 9965   3.405   7.128   4.971  1.1612  0.6602 -1.2459
 3336TIP3    H2 9966   3.503   7.015   4.948 -0.0119 -0.9604  1.3268
 3337TIP3   OH2 9967   5.755   5.791   5.004 -0.7837 -0.2922  0.3381
 3337TIP3    H1 9968   5.707   5.773   4.923 -2.8050  1.1248  1.1263
 3337TIP3    H2 9969   5.702   5.750   5.072  1.3514 -2.2242  0.9389
 3338TIP3   OH2 9970   4.317   4.915   3.158 -0.8269  0.1059 -0.0286
 3338TIP3    H1 9971   4.334   4.823   3.180 -1.1553 -0.1839 -0.9266
 3338TIP3    H2 9972   4.284   4.953   3.238  0.6470 -0.2030  0.7756
 3339TIP3   OH2 9973   0.621  -0.021   3.957 -0.6296  0.0275 -0.4966
 3339TIP3    H1 9974   0.636   0.049   4.020  1.2987 -0.2339 -0.6042
 3339TIP3    H2 9975   0.553   0.013   3.899  0.0662  1.7072 -0.3773
 3340TIP3   OH2 9976   0.039   6.894   2.799 -0.1921  0.4590 -0.2259
 3340TIP3    H1 9977  -0.010   6.946   2.735 -1.1363  0.7226  0.6749
 3340TIP3    H2 9978   0.098   6.956   2.840  0.6153  0.2325 -1.0069
 3341TIP3   OH2 9979   1.338   6.972   2.855  0.3408  0.0692 -0.3854
 3341TIP3    H1 9980   1.401   6.907   2.885 -0.0914  0.2599  1.0378
 3341TIP3    H2 9981   1.323   7.028   2.932  0.5156  1.7077 -1.4765
 3342TIP3   OH2 9982   6.916   1.714   3.604  0.5317 -0.2927 -0.4963
 3342TIP3    H1 9983   6.919   1.634   3.656  1.4294  0.5347  0.8120
 3342TIP3    H2 9984   6.984   1.770   3.642 -1.2005  1.7568 -0.1793
 3343TIP3   OH2 9985   3.832   3.938   0.349  0.0623  0.5411  0.2287
 3343TIP3    H1 9986   3.860   3.846   0.351  1.6588  0.9968  0.7125
 3343TIP3    H2 9987   3.861   3.969   0.263  0.3883  0.8199  0.4343
 3344TIP3   OH2 9988   4.807   4.195   2.473 -0.0319  0.6846 -0.6703
 3344TIP3    H1 9989   4.762   4.152   2.545 -1.0648  0.9955 -1.1153
 3344TIP3    H2 9990   4.900   4.185   2.493 -0.1767 -2.3762 -1.0818
 3345TIP3   OH2 9991   0.121   3.444   2.432  0.4160  0.0898 -0.0670
 3345TIP3    H1 9992   0.195   3.399   2.474  0.7844  1.7693  1.1993
 3345TIP3    H2 9993   0.139   3.439   2.339  1.1582 -1.1279  0.1168
 3346TIP3   OH2 9994   4.700   6.513   2.395 -0.3330 -0.1288 -0.4047
 3346TIP3    H1 9995   4.642   6.585   2.419  0.2193  0.8883 -2.0319
 3346TIP3    H2 9996   4.660   6.474   2.317  0.1987 -0.6055 -0.4477
 3347TIP3   OH2 9997   4.384   6.397   4.362 -0.5155 -0.5829 -0.5930
 3347TIP3    H1 9998   4.439   6.398   4.284 -0.9247 -2.7600 -0.9747
 3347TIP3    H2 9999   4.296   6.381   4.329 -1.1304  0.9706  0.1690
 3348TIP3   OH210000   0.082   2.354   2.277 -0.1272 -0.4968  0.7044
 3348TIP3    H110001   0.150   2.287   2.282 -1.5328 -2.3184 -2.0495
 3348TIP3    H210002   0.013   2.321   2.334 -1.1326 -1.9303 -1.2285
 3349TIP3   OH210003   0.119   2.074   5.892  0.5656  0.0521  0.1844
 3349TIP3    H110004   0.071   2.011   5.838  0.9763  0.0600 -0.1891
 3349TIP3    H210005   0.093   2.052   5.982  0.9105 -0.8313  0.0763
 3350TIP3   OH210006   0.606   2.661   5.810 -1.0868  0.0799 -0.3699
 3350TIP3    H110007   0.672   2.727   5.790 -0.7993 -0.1910 -0.3111
 3350TIP3    H210008   0.523   2.708   5.805 -0.7998  0.7748  0.9794
 3351TIP3   OH210009   0.984   4.961   0.846 -0.1817  0.2736  0.3389
 3351TIP3    H110010   0.928   4.995   0.777 -0.5624 -0.5391  0.2350
 3351TIP3    H210011   0.924   4.914   0.905  0.4712 -1.4845 -0.3157
 3352TIP3   OH210012   2.734   6.888   4.647  0.0315  0.0163  0.2502
 3352TIP3    H110013   2.740   6.930   4.561  0.7498  0.7114  0.6348
 3352TIP3    H210014   2.646   6.850   4.648 -0.7228  1.6711 -0.0474
 3353TIP3   OH210015   4.648   2.903   2.584  0.2472 -0.2941 -0.5185
 3353TIP3    H110016   4.704   2.828   2.565  2.3775  0.4174  2.3003
 3353TIP3    H210017   4.685   2.975   2.532  0.4101 -0.3715 -0.5091
 3354TIP3   OH210018   4.552   6.515   1.681 -0.4044  0.1410  0.1850
 3354TIP3    H110019   4.476   6.510   1.623  0.0526 -0.6892 -0.3657
 3354TIP3    H210020   4.623   6.547   1.625 -0.7102  2.6841  1.1092
 3355TIP3   OH210021   0.256   7.249   6.047  0.4563 -0.1562 -0.1755
 3355TIP3    H110022   0.221   7.258   5.959  0.7817 -0.2045 -0.3104
 3355TIP3    H210023   0.335   7.196   6.037 -0.2708 -1.3913  0.3299
 3356TIP3   OH210024   1.930   7.520   6.137 -0.3783 -0.1694  0.0897
 3356TIP3    H110025   1.913   7.452   6.073 -0.7542  0.7975 -0.8697
 3356TIP3    H210026   1.848   7.568   6.145 -0.3091 -0.2077  1.2273
 3357TIP3   OH210027   5.833   5.270   0.218 -0.0222 -0.3704  0.1255
 3357TIP3    H110028   5.897   5.340   0.201  0.1553 -0.3166  0.9589
 3357TIP3    H210029   5.755   5.296   0.168  0.2475  0.1123 -0.0508
 3358TIP3   OH210030   2.879   2.012   3.927  0.3874  0.2123  0.7163
 3358TIP3    H110031   2.966   1.973   3.916  0.7382  1.2929 -0.5331
 3358TIP3    H210032   2.824   1.967   3.863  0.9834  2.2225 -1.3298
 3359TIP3   OH210033   1.295   0.849   2.127 -0.3535 -0.2674  0.6269
 3359TIP3    H110034   1.319   0.783   2.192 -1.3182  0.0173  1.3038
 3359TIP3    H210035   1.199   0.846   2.123 -0.4574  1.3423  0.9784
 3360TIP3   OH210036   7.811   3.535   6.562 -0.5322 -0.1664  1.0461
 3360TIP3    H110037   7.745   3.471   6.535 -0.1073 -0.4907  0.7628
 3360TIP3    H210038   7.832   3.511   6.652 -0.7155 -0.1331  1.0986
 3361TIP3   OH210039   3.327   7.794   2.950  0.2689 -0.2588  0.0495
 3361TIP3    H110040   3.392   7.741   2.997 -0.7560 -0.5699  1.1928
 3361TIP3    H210041   3.248   7.739   2.949  0.1590 -0.1153 -1.7880
 3362TIP3   OH210042   0.172   4.480   6.660 -0.0561  0.4520 -0.1772
 3362TIP3    H110043   0.157   4.423   6.736 -0.4084 -0.7005 -1.0933
 3362TIP3    H210044   0.105   4.548   6.668  0.0808  0.5034  0.6824
 3363TIP3   OH210045   6.914   6.253   1.040 -0.0087 -0.1335  0.2314
 3363TIP3    H110046   6.894   6.188   0.973 -0.0717  0.6553 -0.5295
 3363TIP3    H210047   6.875   6.334   1.008  1.2489  0.6064  0.4738
 3364TIP3   OH210048   2.620   4.352   2.494 -0.2979  0.1740 -0.2498
 3364TIP3    H110049   2.566   4.430   2.489 -1.6852 -0.7704 -0.7133
 3364TIP3    H210050   2.703   4.377   2.453  0.1691  2.0545  1.6844
 3365TIP3   OH210051   1.358   6.545   1.443  0.0103 -0.2348 -0.3194
 3365TIP3    H110052   1.290   6.588   1.495 -0.0583  1.2830 -1.5735
 3365TIP3    H210053   1.440   6.583   1.474  0.4565 -2.6257  1.7289
 3366TIP3   OH210054   6.633   6.235   0.215 -0.0395  0.6538  0.3551
 3366TIP3    H110055   6.671   6.323   0.210  1.2170  0.1861  1.1919
 3366TIP3    H210056   6.596   6.230   0.303 -1.1984  0.7553 -0.1157
 3367TIP3   OH210057   6.129   2.583   4.343  0.5530  0.4245  0.0503
 3367TIP3    H110058   6.179   2.645   4.291  0.2850  1.0797  0.5511
 3367TIP3    H210059   6.050   2.632   4.369 -0.2298 -0.4961 -0.5171
 3368TIP3   OH210060   7.239   5.986   5.793  0.0104  0.3366  0.0015
 3368TIP3    H110061   7.162   6.041   5.780 -0.1002 -0.1073 -1.4778
 3368TIP3    H210062   7.222   5.908   5.740  0.4910 -0.7982  1.4621
 3369TIP3   OH210063   5.369   2.896   4.349  0.0315  0.4130 -0.3720
 3369TIP3    H110064   5.410   2.972   4.309 -1.1844  1.2001 -0.1671
 3369TIP3    H210065   5.384   2.825   4.286 -0.0753  1.1559 -1.2521
 3370TIP3   OH210066   2.780   0.282   4.986 -0.7142 -0.1179 -0.1618
 3370TIP3    H110067   2.757   0.198   4.946  1.6164 -0.5690 -0.7202
 3370TIP3    H210068   2.839   0.259   5.058 -1.8538  0.9339  1.1633
 3371TIP3   OH210069   4.462   2.641   4.752  0.4350  0.4991 -0.2575
 3371TIP3    H110070   4.546   2.666   4.791  0.9227  0.2468 -1.1179
 3371TIP3    H210071   4.459   2.690   4.670 -0.4762  0.8606 -0.0199
 3372TIP3   OH210072   6.575   6.731   0.249 -0.0309  0.4919  0.2948
 3372TIP3    H110073   6.564   6.764   0.160 -0.1759 -1.1132 -0.3052
 3372TIP3    H210074   6.631   6.655   0.240  0.2898  0.5468  1.6439
 3373TIP3   OH210075   7.510   0.932   4.342  1.0620 -0.0033  0.1296
 3373TIP3    H110076   7.494   0.876   4.419  0.4660  0.6511  0.4987
 3373TIP3    H210077   7.471   1.017   4.366  3.9131  1.3026  0.4996
 3374TIP3   OH210078   5.954   7.287   6.241  0.3728  0.0643  0.1363
 3374TIP3    H110079   5.948   7.206   6.190 -1.4791  0.6448 -0.6217
 3374TIP3    H210080   5.864   7.317   6.251  0.8489  1.0202  2.1002
 3375TIP3   OH210081   1.748   2.335   5.528  0.2240  0.0147  0.2601
 3375TIP3    H110082   1.687   2.409   5.529 -0.4740 -0.5473  1.5067
 3375TIP3    H210083   1.753   2.310   5.436 -1.3282  0.1743  0.1024
 3376TIP3   OH210084   1.785   3.255   5.467 -0.3095 -0.2053 -0.6293
 3376TIP3    H110085   1.743   3.339   5.451 -2.1160 -1.1446 -0.9651
 3376TIP3    H210086   1.717   3.201   5.506  1.4951 -0.7638  2.0972
 3377TIP3   OH210087   8.011   7.718   1.230  0.0523  0.0867 -0.5150
 3377TIP3    H110088   7.921   7.708   1.200 -0.4083  1.3696  0.3346
 3377TIP3    H210089   8.019   7.659   1.304  1.1571 -2.9999 -2.8701
 3378TIP3   OH210090   6.797   1.112   3.679 -0.2311 -0.2017 -0.4213
 3378TIP3    H110091   6.883   1.121   3.720 -0.0813  0.0074 -0.7730
 3378TIP3    H210092   6.800   1.027   3.634 -0.2163 -0.2059 -0.4121
 3379TIP3   OH210093   6.723   3.381   2.409  0.3392  0.3515 -0.5116
 3379TIP3    H110094   6.677   3.457   2.445  0.4039  0.9940 -1.7263
 3379TIP3    H210095   6.758   3.335   2.486 -2.3159 -0.1892  0.4589
 3380TIP3   OH210096   0.530   0.115   6.472  0.0077  0.3919 -0.1581
 3380TIP3    H110097   0.453   0.113   6.415  0.0722  0.5716 -0.2514
 3380TIP3    H210098   0.592   0.054   6.432  1.0918  2.3974 -1.7515
 3381TIP3   OH210099   7.459   1.441   3.590 -0.3792  0.1757  0.3431
 3381TIP3    H110100   7.454   1.461   3.496 -0.5220 -0.8182  0.1326
 3381TIP3    H210101   7.433   1.349   3.597 -0.9128  0.3941  1.4227
 3382TIP3   OH210102   1.145   2.959   3.158 -0.0428 -0.2308 -0.5569
 3382TIP3    H110103   1.229   2.955   3.112  0.1270 -0.1404 -0.2537
 3382TIP3    H210104   1.139   2.876   3.205 -0.3361 -0.4348 -0.9450
 3383TIP3   OH210105   5.977   5.416   0.426 -0.1982 -0.3175 -0.1912
 3383TIP3    H110106   5.986   5.497   0.476 -2.0906  1.5360 -2.5465
 3383TIP3    H210107   6.051   5.418   0.365 -0.4658 -0.0981 -0.5180
 3384TIP3   OH210108   5.761   1.147   4.504 -0.0847  0.3618 -0.2591
 3384TIP3    H110109   5.700   1.078   4.528  0.2474  0.2710  0.3383
 3384TIP3    H210110   5.846   1.116   4.534 -0.2025  1.8980  1.9352
 3385TIP3   OH210111   6.218   3.787   2.814  0.5243 -0.1894  0.2664
 3385TIP3    H110112   6.198   3.881   2.814 -0.4293 -0.1812 -3.8751
 3385TIP3    H210113   6.293   3.779   2.755 -0.9060 -2.1584 -1.4325
 3386TIP3   OH210114   1.479   7.613   2.377 -0.9100  1.1027 -0.1215
 3386TIP3    H110115   1.430   7.531   2.371 -0.0151  0.6078 -1.1382
 3386TIP3    H210116   1.443   7.658   2.453 -0.6909 -0.7146  1.0963
 3387TIP3   OH210117   2.815   5.743   4.323  0.3844  0.0462 -0.2813
 3387TIP3    H110118   2.880   5.812   4.338  0.5199  0.0694 -0.9700
 3387TIP3    H210119   2.770   5.769   4.242 -1.5158  0.8276  0.9309
 3388TIP3   OH210120   0.101   2.448   1.808  0.3635 -0.2766  0.2865
 3388TIP3    H110121   0.126   2.360   1.780  1.1990  0.0622 -0.0450
 3388TIP3    H210122   0.157   2.466   1.884  0.7229  0.2575 -0.1002
 3389TIP3   OH210123   6.010   3.475   4.354 -0.0229  0.3064 -0.2265
 3389TIP3    H110124   5.951   3.545   4.323 -0.2096  0.0224 -0.5245
 3389TIP3    H210125   5.994   3.470   4.448 -1.3582 -0.5623 -0.4634
 3390TIP3   OH210126   8.057   7.332   5.305  0.3312  0.7489  0.3546
 3390TIP3    H110127   8.126   7.392   5.277  1.6775 -0.8646  0.0119
 3390TIP3    H210128   8.045   7.273   5.230  0.1052 -0.3108  1.2006
 3391TIP3   OH210129   7.851   7.220   0.275 -0.1836  0.2978  0.3623
 3391TIP3    H110130   7.914   7.151   0.296 -0.3698 -0.3439 -1.0762
 3391TIP3    H210131   7.767   7.186   0.309 -0.2735 -0.1956 -0.3364
 3392TIP3   OH210132   1.575   6.649   5.492 -0.3268 -0.4953 -0.7280
 3392TIP3    H110133   1.499   6.689   5.451  1.2200  0.0670 -3.2419
 3392TIP3    H210134   1.598   6.708   5.564  1.2022  2.8048 -3.6226
 3393TIP3   OH210135   7.942   0.321   1.180  0.1932  0.6641 -0.1020
 3393TIP3    H110136   8.032   0.316   1.213  0.7258 -0.6969 -1.6185
 3393TIP3    H210137   7.937   0.407   1.138  1.6567 -0.2136 -2.2384
 3394TIP3   OH210138   2.802   0.188   6.209  0.6058 -0.4051  0.3532
 3394TIP3    H110139   2.805   0.262   6.271 -1.1264 -0.2986  0.3667
 3394TIP3    H210140   2.808   0.229   6.123 -1.3930 -0.0889  0.3145
 3395TIP3   OH210141   4.200   3.053   1.606  0.0543 -0.6473 -0.5364
 3395TIP3    H110142   4.241   3.105   1.675 -1.2033  0.9954 -0.9677
 3395TIP3    H210143   4.261   3.060   1.532 -0.1744  0.3869 -0.6430
 3396TIP3   OH210144   7.896   6.348   2.173 -0.2985  0.4257  0.0676
 3396TIP3    H110145   7.845   6.266   2.170  0.1018  0.1902 -0.4093
 3396TIP3    H210146   7.853   6.400   2.241 -1.9986  0.7831 -1.2331
 3397TIP3   OH210147   5.043   3.368   6.480 -0.2773  0.3306  0.4488
 3397TIP3    H110148   5.127   3.376   6.436  0.4183 -1.2631  1.4234
 3397TIP3    H210149   4.998   3.298   6.434 -1.4741  1.7146 -0.5997
 3398TIP3   OH210150   2.673   7.400   1.295  0.2543 -0.0224  0.1909
 3398TIP3    H110151   2.643   7.451   1.220  1.2842 -0.2362 -0.3780
 3398TIP3    H210152   2.683   7.464   1.365  1.1490  0.4945 -0.4040
 3399TIP3   OH210153   5.917   6.102   1.857 -0.8847  0.1221 -0.1722
 3399TIP3    H110154   5.963   6.095   1.773 -0.0804 -1.1557  0.3457
 3399TIP3    H210155   5.924   6.195   1.880  1.3991  0.0107 -0.1685
 3400TIP3   OH210156   3.088   4.404   3.853  0.0671  0.0018  0.3891
 3400TIP3    H110157   3.168   4.386   3.803 -0.2356 -0.8586  0.2098
 3400TIP3    H210158   3.118   4.414   3.943  0.3343 -0.6790  0.3804
 3401TIP3   OH210159   3.837   1.769   0.600  0.0397  0.3818 -0.6481
 3401TIP3    H110160   3.874   1.855   0.580  0.9673  0.3727  0.8560
 3401TIP3    H210161   3.752   1.789   0.641  0.1499  0.5802 -0.5131
 3402TIP3   OH210162   1.944   6.026   5.029  0.3182  0.1598  0.4384
 3402TIP3    H110163   1.926   6.055   4.940  3.3191 -0.2420 -0.4225
 3402TIP3    H210164   1.858   6.016   5.070 -1.0679  2.2412 -1.7689
 3403TIP3   OH210165   1.732   7.129   5.896  0.5783  0.4388 -0.2375
 3403TIP3    H110166   1.780   7.061   5.943 -0.3975  1.0142  1.7034
 3403TIP3    H210167   1.750   7.111   5.803  1.0580 -1.9024  0.2339
 3404TIP3   OH210168   3.025   4.134   1.728 -0.5498  0.1633 -0.1674
 3404TIP3    H110169   3.032   4.224   1.761  1.0323 -0.0283  0.0651
 3404TIP3    H210170   3.015   4.081   1.808 -0.8362  0.0680 -0.2657
 3405TIP3   OH210171   3.956   4.905   6.461  0.4533  0.1970 -0.6774
 3405TIP3    H110172   3.970   4.895   6.555 -0.0376 -0.9216 -0.7064
 3405TIP3    H210173   4.020   4.847   6.420 -0.4203 -0.5894 -0.9681
 3406TIP3   OH210174   5.238   6.062   2.827  0.1121 -0.0627 -0.0837
 3406TIP3    H110175   5.239   6.098   2.739 -0.2314 -3.0198 -1.3988
 3406TIP3    H210176   5.205   5.973   2.817 -1.7979  0.0802  3.3046
 3407TIP3   OH210177   3.400   4.692   1.217  0.1275  0.2414  0.1273
 3407TIP3    H110178   3.434   4.750   1.285  1.6430  0.5030 -0.8159
 3407TIP3    H210179   3.361   4.750   1.152  3.1520  0.4756 -1.6702
 3408TIP3   OH210180   2.579   4.799   5.646 -0.1171  0.0664  0.0635
 3408TIP3    H110181   2.639   4.726   5.633 -0.8928 -0.9078  1.6451
 3408TIP3    H210182   2.611   4.868   5.588  2.5240 -0.4142  0.8483
 3409TIP3   OH210183   7.259   6.337   3.386 -0.4214  0.1467  0.7414
 3409TIP3    H110184   7.258   6.271   3.316  0.6240  0.8033  0.0801
 3409TIP3    H210185   7.306   6.295   3.458 -0.7417 -0.2229  0.7404
 3410TIP3   OH210186   6.356   5.430   1.105 -0.3247 -0.9486 -0.3448
 3410TIP3    H110187   6.391   5.351   1.146 -1.3546 -0.9445  0.5822
 3410TIP3    H210188   6.262   5.415   1.100 -0.8571  1.0427  1.7963
 3411TIP3   OH210189   7.981   2.463   6.456 -0.4669 -0.9022  0.3638
 3411TIP3    H110190   7.941   2.480   6.542 -0.8408 -0.8648  0.1859
 3411TIP3    H210191   7.973   2.368   6.445 -1.4553 -0.7791 -0.1211
 3412TIP3   OH210192   4.204   5.448   3.708 -0.0737 -0.6079 -0.3562
 3412TIP3    H110193   4.247   5.403   3.781  0.9256  1.3027  0.2914
 3412TIP3    H210194   4.221   5.541   3.723  0.9386 -0.1557 -3.4482
 3413TIP3   OH210195   5.829   2.365   6.620  0.2100 -0.5900  0.4138
 3413TIP3    H110196   5.856   2.453   6.593  0.0949 -0.7273 -0.1624
 3413TIP3    H210197   5.892   2.307   6.576 -1.1687 -0.9369 -1.2111
 3414TIP3   OH210198   0.371   5.908   4.152 -0.4529  0.1915 -0.1842
 3414TIP3    H110199   0.327   5.991   4.133 -5.5529 -1.9894  0.5977
 3414TIP3    H210200   0.358   5.855   4.074 -0.3179 -0.9493  0.5351
 3415TIP3   OH210201   2.669   0.690   0.988 -0.3931  0.9493 -0.1422
 3415TIP3    H110202   2.756   0.668   1.019 -0.7043 -1.5498 -0.8221
 3415TIP3    H210203   2.678   0.694   0.892 -1.0561  0.3132 -0.2434
 3416TIP3   OH210204   3.351   0.120   2.100  0.3730 -0.1031  0.4967
 3416TIP3    H110205   3.301   0.135   2.020 -1.1935 -0.3869  1.3879
 3416TIP3    H210206   3.380   0.207   2.126 -0.5074  0.2033  0.4878
 3417TIP3   OH210207   0.215   6.333   4.927 -0.3569  0.2751 -0.0777
 3417TIP3    H110208   0.294   6.343   4.981 -0.5048  0.4459  0.1118
 3417TIP3    H210209   0.220   6.405   4.864 -0.4467  0.3875  0.0433
 3418TIP3   OH210210   7.341   2.259   6.395 -0.2452  0.2240  0.1074
 3418TIP3    H110211   7.407   2.204   6.353  0.8884  1.5253  0.1216
 3418TIP3    H210212   7.326   2.217   6.480 -1.0939 -1.3044 -0.7476
 3419TIP3   OH210213   7.990   1.697   2.324  0.1991 -0.7386 -0.0088
 3419TIP3    H110214   8.041   1.618   2.305  1.1800 -0.1193 -0.0086
 3419TIP3    H210215   8.036   1.767   2.279 -1.9091 -0.4616 -1.8847
 3420TIP3   OH210216   7.692   4.063   6.489 -0.0772  0.0771 -0.1546
 3420TIP3    H110217   7.767   4.102   6.444 -0.3456  1.9027  0.8821
 3420TIP3    H210218   7.617   4.087   6.435  0.0170 -1.7585 -1.1983
 3421TIP3   OH210219   4.828   7.052   5.716 -0.3187  0.1304  0.2093
 3421TIP3    H110220   4.788   7.108   5.782  0.5502  2.0552 -0.8157
 3421TIP3    H210221   4.910   7.022   5.756 -1.1423 -1.1105  1.0483
 3422TIP3   OH210222   6.587   7.642   6.747  0.3327 -0.0019  0.0735
 3422TIP3    H110223   6.632   7.602   6.672  1.1873 -1.2563  1.2097
 3422TIP3    H210224   6.650   7.706   6.781  0.9670 -1.1795  1.1745
 3423TIP3   OH210225   4.279   1.585   2.767 -0.1528 -0.3696  0.2713
 3423TIP3    H110226   4.346   1.648   2.795  0.1342 -1.1565  1.4405
 3423TIP3    H210227   4.239   1.625   2.690 -1.6939  2.4381  2.3358
 3424TIP3   OH210228   5.375   7.747   4.128 -0.2234 -0.5408 -0.1530
 3424TIP3    H110229   5.402   7.659   4.102  0.0935 -0.4365 -0.1809
 3424TIP3    H210230   5.288   7.735   4.166 -0.2780 -0.8323 -0.3697
 3425TIP3   OH210231   6.008   3.252   1.509  0.4640 -0.7299 -0.0502
 3425TIP3    H110232   6.035   3.261   1.418 -0.0685 -0.7093 -0.2052
 3425TIP3    H210233   5.978   3.161   1.517 -0.6519 -0.3906 -0.2118
 3426TIP3   OH210234   4.570   1.590   3.937 -0.2537  0.4045 -0.1410
 3426TIP3    H110235   4.613   1.506   3.917 -0.2688  0.3678 -0.0231
 3426TIP3    H210236   4.641   1.654   3.935 -0.0888  0.2604  0.6058
 3427TIP3   OH210237   4.827   5.219   5.538 -0.0306  0.2613 -0.1929
 3427TIP3    H110238   4.881   5.276   5.593  1.2202 -1.9617  1.0486
 3427TIP3    H210239   4.749   5.201   5.590  0.2069 -0.2302 -0.0046
 3428TIP3   OH210240   4.709   0.078   2.439  0.2132  0.1754  0.2416
 3428TIP3    H110241   4.762   0.032   2.374  1.4454  0.6323  0.8864
 3428TIP3    H210242   4.749   0.057   2.523 -0.1795  1.1181  0.6881
 3429TIP3   OH210243   0.106   3.377   1.353  0.0864  0.1917  0.5693
 3429TIP3    H110244   0.193   3.388   1.314  0.0036  2.0093  0.7812
 3429TIP3    H210245   0.097   3.452   1.412 -2.1238  0.8323 -0.4570
 3430TIP3   OH210246   1.907   7.662   2.853 -0.5370  0.0572 -0.5983
 3430TIP3    H110247   1.872   7.729   2.913 -1.0438 -0.6623 -0.0811
 3430TIP3    H210248   1.972   7.615   2.906 -0.9046 -0.5063 -0.6437
 3431TIP3   OH210249   4.721   2.717   4.880 -0.2164 -0.0329  0.1021
 3431TIP3    H110250   4.714   2.781   4.951 -0.7851 -0.3974  0.3837
 3431TIP3    H210251   4.809   2.682   4.888 -0.4096 -0.3626  0.8911
 3432TIP3   OH210252   2.068   5.003   0.865 -0.6726  0.2939 -0.7106
 3432TIP3    H110253   1.985   5.042   0.893 -0.4597  1.0761 -1.1350
 3432TIP3    H210254   2.059   4.994   0.770 -1.1044 -1.6510 -0.5150
 3433TIP3   OH210255   5.193   4.858   6.735  0.1263 -0.4549 -0.0276
 3433TIP3    H110256   5.203   4.930   6.673 -0.6686 -0.0834  0.2607
 3433TIP3    H210257   5.173   4.782   6.680 -0.6675 -0.1084 -0.2271
 3434TIP3   OH210258   1.386   0.782   4.297 -0.1156 -0.1430  0.4413
 3434TIP3    H110259   1.382   0.832   4.379 -0.0857  0.4283  0.1031
 3434TIP3    H210260   1.428   0.700   4.321  0.8333  0.4358  0.8026
 3435TIP3   OH210261   8.161   7.059   1.400  0.1813 -0.0355  0.0387
 3435TIP3    H110262   8.246   7.064   1.443 -0.1246 -0.0283  0.6630
 3435TIP3    H210263   8.174   7.099   1.314  0.0437  3.1026  1.3366
 3436TIP3   OH210264   1.119   2.138   4.113  0.2055 -0.4320 -0.3590
 3436TIP3    H110265   1.160   2.215   4.074  0.1654 -0.8818 -1.3261
 3436TIP3    H210266   1.132   2.149   4.207  1.9796 -0.2452 -0.6005
 3437TIP3   OH210267   4.103   0.080   0.659 -0.1931  0.9460  0.1251
 3437TIP3    H110268   4.134  -0.003   0.695  0.2636  1.5635  1.2012
 3437TIP3    H210269   4.016   0.060   0.623 -0.6403  0.2782  1.5266
 3438TIP3   OH210270   1.266   7.133   4.999 -0.3619  0.0445  0.2696
 3438TIP3    H110271   1.320   7.095   4.930 -0.0287 -0.1353  0.6290
 3438TIP3    H210272   1.328   7.175   5.058 -0.7833  2.0751 -0.6643
 3439TIP3   OH210273   4.454   6.552   3.906  0.4473  0.3904  0.3671
 3439TIP3    H110274   4.425   6.531   3.817  0.9744  0.1664  0.2455
 3439TIP3    H210275   4.547   6.569   3.897  0.5950 -0.0783  0.9512
 3440TIP3   OH210276   3.538   0.632   3.653  0.3696  0.1528  0.1143
 3440TIP3    H110277   3.496   0.656   3.736 -0.9503  0.4700 -0.6198
 3440TIP3    H210278   3.578   0.714   3.623  0.6772  0.0852  0.3349
 3441TIP3   OH210279   1.180   6.062   3.028 -0.2468 -0.2364  0.6726
 3441TIP3    H110280   1.126   6.116   3.085 -0.4677  1.6480 -1.2032
 3441TIP3    H210281   1.126   6.045   2.951  0.6590 -1.2061  0.2091
 3442TIP3   OH210282   0.129   4.973   3.819 -0.3987  0.1918  0.2828
 3442TIP3    H110283   0.068   4.899   3.821 -0.2068 -0.0450 -1.2340
 3442TIP3    H210284   0.080   5.043   3.777  0.3801 -0.0525 -1.1102
 3443TIP3   OH210285   2.047   3.555   5.790  0.4576 -0.1013 -0.0180
 3443TIP3    H110286   2.045   3.649   5.771  0.5490 -0.4156 -1.7834
 3443TIP3    H210287   2.041   3.514   5.704 -0.4152 -1.7289  0.7906
 3444TIP3   OH210288   8.155   6.783   1.132 -0.2757 -1.1799  0.0147
 3444TIP3    H110289   8.068   6.806   1.166 -1.0553 -2.5078 -0.9768
 3444TIP3    H210290   8.173   6.848   1.065  0.7663  0.7704  2.0460
 3445TIP3   OH210291   1.940   4.732   0.895 -0.0518 -0.0559 -0.1406
 3445TIP3    H110292   1.873   4.688   0.842 -0.1136 -0.6885  0.4440
 3445TIP3    H210293   1.893   4.803   0.938 -0.5417 -0.9707  0.8698
 3446TIP3   OH210294   7.793   5.301   5.824  0.0752 -0.0245  0.3000
 3446TIP3    H110295   7.836   5.215   5.829 -1.6100 -0.8615  1.8480
 3446TIP3    H210296   7.711   5.288   5.871 -1.1784  1.9022 -1.2480
 3447TIP3   OH210297   5.516   3.353   0.311  0.5581  0.1105  0.0683
 3447TIP3    H110298   5.575   3.416   0.270 -1.8246  2.4469 -0.0533
 3447TIP3    H210299   5.491   3.294   0.240 -0.1130  1.3992 -0.7997
 3448TIP3   OH210300   4.386   0.582   1.229 -0.0093 -0.4279  0.0422
 3448TIP3    H110301   4.305   0.596   1.279 -1.1391 -1.9595 -1.2715
 3448TIP3    H210302   4.372   0.628   1.147  0.3195 -0.9816 -0.3262
 3449TIP3   OH210303   2.322   6.738   6.753 -0.1118  0.1813  0.0089
 3449TIP3    H110304   2.361   6.779   6.676 -0.5076 -0.6367 -0.6388
 3449TIP3    H210305   2.237   6.780   6.762 -0.7320 -0.8155 -0.9582
 3450TIP3   OH210306   3.042   6.835   2.604  0.5439  0.7804  0.2732
 3450TIP3    H110307   3.028   6.740   2.605 -0.6478  0.9323  0.7099
 3450TIP3    H210308   3.002   6.864   2.522 -0.3861  1.0489  0.7992
 3451TIP3   OH210309   7.662   2.374   2.317 -0.7533  0.5412 -0.2631
 3451TIP3    H110310   7.584   2.412   2.276 -2.7120  0.2589  2.8478
 3451TIP3    H210311   7.675   2.427   2.396  1.1726 -0.5268  0.1911
 3452TIP3   OH210312   8.050   1.868   0.586 -0.1748 -0.0899 -0.1642
 3452TIP3    H110313   8.088   1.847   0.672 -2.4886  1.5014  1.3852
 3452TIP3    H210314   8.118   1.921   0.543  0.4129  0.5420  1.4276
 3453TIP3   OH210315   8.201   3.948   0.305  0.1595 -0.1182  0.4962
 3453TIP3    H110316   8.134   3.983   0.246  0.2692  0.1572  0.5313
 3453TIP3    H210317   8.280   3.942   0.252  0.9375  2.4706  1.1774
 3454TIP3   OH210318   0.090   4.792   3.535 -0.3068  0.0431  0.0099
 3454TIP3    H110319   0.058   4.872   3.495 -0.4439  0.2040  0.4355
 3454TIP3    H210320   0.149   4.754   3.470  1.1969  1.4088  0.5152
 3455TIP3   OH210321   5.551   3.312   6.440  0.0437  0.1571  0.6746
 3455TIP3    H110322   5.629   3.366   6.451  1.4692 -1.5281 -0.5688
 3455TIP3    H210323   5.512   3.307   6.527  0.2826  2.4839  0.9736
 3456TIP3   OH210324   1.895   5.247   0.878 -1.0315  0.1073  0.2479
 3456TIP3    H110325   1.976   5.297   0.889  0.1466 -1.7114  0.3754
 3456TIP3    H210326   1.874   5.257   0.785  0.0319 -0.3378 -0.0669
 3457TIP3   OH210327   0.463   2.605   2.621 -0.5865 -0.8110 -0.2141
 3457TIP3    H110328   0.411   2.685   2.628  0.7697  0.4221 -2.8585
 3457TIP3    H210329   0.452   2.562   2.706 -1.4391  2.1041  1.2816
 3458TIP3   OH210330   2.642   4.868   3.014  0.0926  0.2845  0.2573
 3458TIP3    H110331   2.584   4.925   3.064  1.4435  1.6426  0.3597
 3458TIP3    H210332   2.678   4.924   2.945  1.0497 -0.5767  0.0188
 3459TIP3   OH210333   3.923   6.563   4.873  0.5841 -0.5365 -0.6257
 3459TIP3    H110334   3.833   6.596   4.864  1.1417  1.5273  0.8028
 3459TIP3    H210335   3.923   6.518   4.958  1.2538  0.7870  0.0953
 3460TIP3   OH210336   5.683   2.361   2.479 -0.4033 -0.2165  0.1983
 3460TIP3    H110337   5.724   2.275   2.465 -0.1317  0.2730 -2.5391
 3460TIP3    H210338   5.590   2.341   2.489 -0.2882 -0.8711  0.0461
 3461TIP3   OH210339   2.019   3.208   5.341  0.0354 -0.0565  0.6499
 3461TIP3    H110340   1.932   3.206   5.381  0.2836  2.1175  1.4541
 3461TIP3    H210341   2.003   3.225   5.248 -0.4389 -2.1607  0.3027
 3462TIP3   OH210342   2.754   0.063   0.415  0.2181 -0.2069  0.0306
 3462TIP3    H110343   2.668   0.059   0.373 -0.0415 -0.5130  0.5922
 3462TIP3    H210344   2.736   0.078   0.507  0.6557 -2.6895  0.5779
 3463TIP3   OH210345   3.412   2.281   4.857 -0.3017  0.5106  0.1593
 3463TIP3    H110346   3.488   2.321   4.814  1.0105 -0.8635  1.0546
 3463TIP3    H210347   3.379   2.218   4.793  1.2608 -1.0799  0.8042
 3464TIP3   OH210348   7.290   5.210   1.828 -0.2170  0.1260  0.0796
 3464TIP3    H110349   7.199   5.185   1.811  0.0482 -0.8504  0.0681
 3464TIP3    H210350   7.341   5.135   1.799  0.5952  0.6636  0.1089
 3465TIP3   OH210351   1.928   3.402   6.677  0.1056  0.7459 -0.1573
 3465TIP3    H110352   1.971   3.355   6.606  2.0380 -0.4408  1.7033
 3465TIP3    H210353   1.997   3.454   6.718 -1.1291  2.0343  0.3884
 3466TIP3   OH210354   6.245   4.278   5.874  0.1890 -0.0906 -0.6943
 3466TIP3    H110355   6.174   4.282   5.809 -0.6723 -0.0019  0.2325
 3466TIP3    H210356   6.324   4.301   5.824 -0.4481 -0.0482 -1.7166
 3467TIP3   OH210357   5.027   1.678   0.007  0.0520 -0.4719 -0.2498
 3467TIP3    H110358   5.076   1.716  -0.066 -0.4037 -0.3197 -0.4793
 3467TIP3    H210359   5.088   1.683   0.081 -0.1407  1.1155 -0.1697
 3468TIP3   OH210360   3.016   5.087   6.097 -0.2321  0.2272  0.1374
 3468TIP3    H110361   3.101   5.052   6.070  0.2771  0.6026  1.1957
 3468TIP3    H210362   2.967   5.098   6.016  0.6465 -0.2210 -0.4641
 3469TIP3   OH210363   1.048   2.916   0.683 -0.6350  0.7223  0.2394
 3469TIP3    H110364   1.061   2.847   0.748  2.9203  1.6256  0.6723
 3469TIP3    H210365   1.051   2.997   0.733  0.3537  1.3652 -0.8142
 3470TIP3   OH210366   5.035   2.891   2.869 -0.4449  0.0248 -0.1202
 3470TIP3    H110367   4.947   2.913   2.840 -0.8687  1.1517  1.8457
 3470TIP3    H210368   5.040   2.796   2.861 -0.8440  0.1317 -2.7428
 3471TIP3   OH210369   3.381   5.592   0.639 -0.1079 -0.0352 -0.3539
 3471TIP3    H110370   3.286   5.577   0.641  0.1168 -1.6418 -0.6628
 3471TIP3    H210371   3.395   5.645   0.561 -0.7289  0.0508 -0.4168
 3472TIP3   OH210372   5.408   3.999   1.850 -0.4842  0.1359 -0.3625
 3472TIP3    H110373   5.413   3.971   1.941 -1.2068 -0.8529 -0.6086
 3472TIP3    H210374   5.341   3.943   1.811 -0.4467  0.7903 -1.4167
 3473TIP3   OH210375   0.549   1.189   6.366 -0.2838  0.6937 -0.8045
 3473TIP3    H110376   0.474   1.219   6.313 -1.4091 -1.7106 -0.7340
 3473TIP3    H210377   0.529   1.217   6.455 -0.1896  1.6085 -1.0620
 3474TIP3   OH210378   1.715   2.125   1.595  0.0736  0.7362 -0.6146
 3474TIP3    H110379   1.621   2.125   1.573 -0.1288 -0.4730  0.1619
 3474TIP3    H210380   1.754   2.185   1.531 -1.0902  0.5429 -1.5567
 3475TIP3   OH210381   2.897   1.908   2.921  0.1527 -0.4534 -0.2197
 3475TIP3    H110382   2.874   1.815   2.921  1.8319 -0.8942  0.6930
 3475TIP3    H210383   2.815   1.953   2.944 -0.2787 -1.8181  1.0605
 3476TIP3   OH210384   2.646   1.008   0.434 -0.9523  0.1843 -0.4082
 3476TIP3    H110385   2.625   1.050   0.351  1.8696  1.3819 -0.6219
 3476TIP3    H210386   2.655   0.915   0.412 -0.6590  0.4274 -1.3729
 3477TIP3   OH210387   7.767   5.779   3.740  0.1614  0.2915 -0.0281
 3477TIP3    H110388   7.844   5.824   3.704 -1.1913  1.5204 -1.5174
 3477TIP3    H210389   7.702   5.848   3.753 -0.8450 -0.7744  0.8107
 3478TIP3   OH210390   3.107   2.655   4.593  0.1198 -0.0278  0.1681
 3478TIP3    H110391   3.125   2.620   4.680 -1.4677  0.9455  0.9300
 3478TIP3    H210392   3.078   2.579   4.543 -0.7311 -0.2951  1.0358
 3479TIP3   OH210393   3.836   1.794   5.797 -0.5445 -0.3263 -0.3648
 3479TIP3    H110394   3.882   1.717   5.831  1.0130  0.8623  0.3368
 3479TIP3    H210395   3.906   1.854   5.770 -1.6459  1.5548  0.7329
 3480TIP3   OH210396   4.204   4.416   0.203  0.5855 -0.4303  0.1796
 3480TIP3    H110397   4.139   4.475   0.165 -0.6375 -1.6514  0.2610
 3480TIP3    H210398   4.215   4.447   0.293  1.1007  0.5565 -0.2087
 3481TIP3   OH210399   5.022   2.003   0.167 -0.8342  0.3817  0.6557
 3481TIP3    H110400   4.960   2.071   0.140  0.1040  0.7118 -0.8344
 3481TIP3    H210401   4.968   1.926   0.183 -1.7494  1.0073  0.6665
 3482TIP3   OH210402   0.565   2.503   0.283  0.3435 -0.3393  0.1461
 3482TIP3    H110403   0.501   2.435   0.260 -0.2004  1.0713 -3.0043
 3482TIP3    H210404   0.630   2.499   0.213  1.4361  1.0163  1.0438
 3483TIP3   OH210405   7.318   7.417   5.819  0.1373 -0.2672  0.1145
 3483TIP3    H110406   7.344   7.425   5.728  0.4873 -0.4761  0.1944
 3483TIP3    H210407   7.378   7.352   5.856 -1.6335 -2.1765 -0.1554
 3484TIP3   OH210408   3.473   2.730   4.697 -0.4289 -0.0841  0.4441
 3484TIP3    H110409   3.411   2.754   4.766 -0.4747 -1.5441  0.9518
 3484TIP3    H210410   3.548   2.788   4.710 -0.4216 -0.3521  1.7546
 3485TIP3   OH210411   3.917   0.762   2.460 -0.1647  0.5234 -0.2550
 3485TIP3    H110412   4.009   0.739   2.443  0.4403  1.8604  1.0106
 3485TIP3    H210413   3.907   0.756   2.555 -1.2980  0.7479 -0.3451
 3486TIP3   OH210414   7.370   5.014   4.661 -0.5730  0.2373  0.1850
 3486TIP3    H110415   7.457   4.991   4.627 -0.4774  0.2434  0.4222
 3486TIP3    H210416   7.326   4.931   4.675 -0.8748  0.2545 -0.6277
 3487TIP3   OH210417   3.544   1.226   0.169 -0.3656  0.5365 -0.4754
 3487TIP3    H110418   3.586   1.304   0.208 -0.4239 -0.0581  0.8399
 3487TIP3    H210419   3.610   1.192   0.109 -0.2983  1.5342 -0.9970
 3488TIP3   OH210420   2.557   2.250   0.152 -0.4944  0.0336  0.0161
 3488TIP3    H110421   2.517   2.314   0.094  1.1002  0.3239 -0.8033
 3488TIP3    H210422   2.631   2.214   0.103  1.6510  1.1173  2.1983
 3489TIP3   OH210423   3.273   3.320   3.683  0.0682 -0.6660 -0.0722
 3489TIP3    H110424   3.308   3.409   3.676  2.1372 -1.4414 -0.5139
 3489TIP3    H210425   3.226   3.305   3.601 -0.4552  0.0803  0.0905
 3490TIP3   OH210426   4.843   0.685   0.736  0.0152 -0.4557  0.1990
 3490TIP3    H110427   4.873   0.597   0.714 -0.2482 -0.1169 -1.6540
 3490TIP3    H210428   4.923   0.733   0.756  0.2046 -0.9526  0.6806
 3491TIP3   OH210429   2.861   3.188   2.319 -0.3733  0.0425 -0.7860
 3491TIP3    H110430   2.878   3.210   2.410 -0.0958  1.3601 -1.1365
 3491TIP3    H210431   2.910   3.107   2.305 -0.2634 -0.0680  0.1762
 3492TIP3   OH210432   6.900   5.354   1.971 -0.0257 -0.0976  0.6994
 3492TIP3    H110433   6.868   5.351   1.881 -0.5425  0.0861  0.8747
 3492TIP3    H210434   6.982   5.403   1.965 -0.1026 -0.0049  0.3417
 3493TIP3   OH210435   4.106   0.839   5.623  0.4148  0.0155 -0.3818
 3493TIP3    H110436   4.071   0.906   5.564  0.9953  2.0312  1.4370
 3493TIP3    H210437   4.031   0.810   5.674  0.1776 -0.6807 -1.1144
 3494TIP3   OH210438   8.098   6.077   0.144  0.0821 -0.1438  0.4286
 3494TIP3    H110439   8.125   6.166   0.167  2.8295 -0.8991  0.5146
 3494TIP3    H210440   8.064   6.040   0.225  3.6539 -0.7024  1.8661
 3495TIP3   OH210441   0.574   5.975   3.097 -0.3693  0.1183 -0.3462
 3495TIP3    H110442   0.624   5.964   3.016  0.2404  0.9749 -0.1073
 3495TIP3    H210443   0.619   5.919   3.160 -1.1667 -0.9684 -0.7144
 3496TIP3   OH210444   2.078   6.177   0.846 -0.5109 -0.2485 -0.7364
 3496TIP3    H110445   2.107   6.269   0.844 -0.5613 -0.2143 -3.4474
 3496TIP3    H210446   2.139   6.132   0.788 -0.0170 -2.1609  1.1327
 3497TIP3   OH210447   2.801   2.797   3.540 -0.0195 -0.1205  0.6287
 3497TIP3    H110448   2.738   2.734   3.508  0.5839 -0.7842  0.7214
 3497TIP3    H210449   2.793   2.794   3.635 -3.5928  3.6446  0.7504
 3498TIP3   OH210450   4.908   0.521   1.817  0.1451 -0.3154 -0.0671
 3498TIP3    H110451   4.914   0.512   1.912  1.0409 -0.2215 -0.1045
 3498TIP3    H210452   4.914   0.615   1.802  0.4173 -0.3559 -0.2298
 3499TIP3   OH210453   4.622   3.691   1.624 -0.2362 -0.7777  0.1174
 3499TIP3    H110454   4.664   3.606   1.638 -0.3649 -0.9628 -0.5641
 3499TIP3    H210455   4.529   3.670   1.613 -0.0559 -0.7871 -1.8776
 3500TIP3   OH210456   5.219   6.435   2.046 -0.4334 -0.4261 -0.3233
 3500TIP3    H110457   5.136   6.462   2.005 -0.3163  1.6922  0.6802
 3500TIP3    H210458   5.266   6.517   2.061  2.3466 -1.6393 -1.7831
 3501TIP3   OH210459   3.426   4.807   6.258  0.0575  0.3181 -0.2826
 3501TIP3    H110460   3.375   4.726   6.267  2.9783 -1.7030 -0.5910
 3501TIP3    H210461   3.436   4.840   6.347  0.6436 -0.8978  0.1154
 3502TIP3   OH210462   0.160   1.493   5.238  0.4581  0.4837  0.0222
 3502TIP3    H110463   0.202   1.569   5.278  0.0685  0.7864 -0.1357
 3502TIP3    H210464   0.153   1.516   5.145  0.5016  0.1757 -0.0601
 3503TIP3   OH210465   8.129   6.939   2.171 -0.3672  0.1186 -0.3488
 3503TIP3    H110466   8.110   6.862   2.224  0.3262  0.6409  0.6922
 3503TIP3    H210467   8.166   7.002   2.233  1.3902  0.4097 -1.6139
 3504TIP3   OH210468   7.295   6.898   0.686  0.0781  0.5243  0.3178
 3504TIP3    H110469   7.309   6.804   0.692 -0.6477  0.1270 -2.6289
 3504TIP3    H210470   7.238   6.919   0.760 -0.5212 -1.5495  0.4986
 3505TIP3   OH210471   7.471   7.215   5.924 -0.9352  0.4174 -0.0232
 3505TIP3    H110472   7.506   7.128   5.901  2.7184  1.9533 -0.9552
 3505TIP3    H210473   7.464   7.212   6.020 -0.6472 -0.8512 -0.0109
 3506TIP3   OH210474   4.435   0.158   1.010 -0.0440 -0.3536 -0.0556
 3506TIP3    H110475   4.485   0.237   1.031  0.4340 -0.8137  0.5725
 3506TIP3    H210476   4.367   0.189   0.951  2.3643 -0.0687 -2.9117
 3507TIP3   OH210477   4.150   5.967   5.511  0.7740 -0.5143  0.2735
 3507TIP3    H110478   4.077   5.974   5.572  0.8322 -0.8100  0.3798
 3507TIP3    H210479   4.109   5.954   5.425  0.5819  2.6055 -0.2248
 3508TIP3   OH210480   0.712   7.769   2.561 -0.0280  0.1629  0.1562
 3508TIP3    H110481   0.778   7.780   2.492 -1.1222  1.7009 -0.6972
 3508TIP3    H210482   0.740   7.828   2.630 -1.5250  2.4109 -1.0500
 3509TIP3   OH210483   5.117   4.724   5.044 -0.2392 -0.3799  0.6634
 3509TIP3    H110484   5.074   4.638   5.047 -2.5190  0.6052 -0.8897
 3509TIP3    H210485   5.186   4.713   4.978 -0.5513 -1.0223  0.4316
 3510TIP3   OH210486   1.344   1.639   3.274  0.7975  0.6982 -0.3032
 3510TIP3    H110487   1.403   1.685   3.214 -0.5450  1.5700 -1.0008
 3510TIP3    H210488   1.369   1.668   3.361  0.6446  1.9713 -0.6714
 3511TIP3   OH210489   4.372   3.774   5.264  0.4932  0.0176  0.1270
 3511TIP3    H110490   4.353   3.707   5.199  0.7274  0.5784 -0.5385
 3511TIP3    H210491   4.457   3.809   5.238 -0.3876  1.7430 -0.5738
 3512TIP3   OH210492   1.198   3.345   2.654 -0.4919  0.1254 -0.1572
 3512TIP3    H110493   1.141   3.338   2.578 -0.7334  1.6832 -0.1529
 3512TIP3    H210494   1.270   3.285   2.636 -1.2503 -0.5613 -0.9663
 3513TIP3   OH210495   3.018   0.512   6.756 -0.3477  0.2338 -0.3242
 3513TIP3    H110496   2.989   0.597   6.723 -0.5409 -0.4689 -2.1360
 3513TIP3    H210497   3.113   0.516   6.751 -0.3211  0.6363  0.4211
 3514TIP3   OH210498  -0.016   3.388   5.609 -0.4615  0.2274 -0.0894
 3514TIP3    H110499   0.038   3.383   5.530  1.5844  1.1030  1.1928
 3514TIP3    H210500   0.020   3.321   5.667 -1.9028 -0.3620  0.1837
 3515TIP3   OH210501   5.170   7.681   6.542  0.3034  0.8127  0.5729
 3515TIP3    H110502   5.217   7.753   6.499  2.3053  0.6768  2.3417
 3515TIP3    H210503   5.173   7.610   6.478  1.6373  1.1443  0.2291
 3516TIP3   OH210504   1.274   7.283   4.202 -0.0493  0.7636  0.0267
 3516TIP3    H110505   1.204   7.229   4.238  1.4206  0.0441  2.0498
 3516TIP3    H210506   1.277   7.260   4.109 -3.0559  1.5497 -0.3633
 3517TIP3   OH210507   4.927   6.381   1.585  0.1319  0.0499  0.4580
 3517TIP3    H110508   5.007   6.435   1.590 -0.6546  1.2140  1.0618
 3517TIP3    H210509   4.949   6.301   1.633  1.5587 -0.5128 -1.0586
 3518TIP3   OH210510   4.752   7.232   0.466 -0.1687  0.1223  0.0889
 3518TIP3    H110511   4.793   7.228   0.380  0.9186  0.4944  0.5787
 3518TIP3    H210512   4.702   7.314   0.465 -1.6510 -0.7503 -0.8159
 3519TIP3   OH210513   7.950   4.635   3.877  0.1945 -0.4431  0.0072
 3519TIP3    H110514   7.899   4.559   3.848 -1.7371  1.5057 -2.0992
 3519TIP3    H210515   7.899   4.671   3.950  0.1478 -0.1888 -0.1502
 3520TIP3   OH210516   1.292   3.994   4.736  0.3699  0.2965  0.4244
 3520TIP3    H110517   1.367   4.024   4.788  0.3968  0.5837  0.2232
 3520TIP3    H210518   1.310   4.026   4.648 -1.3504  2.9318  0.9190
 3521TIP3   OH210519   7.373   7.633   1.001 -0.0822 -0.1834 -0.0170
 3521TIP3    H110520   7.357   7.539   1.006  2.1894 -0.6941 -0.9356
 3521TIP3    H210521   7.403   7.647   0.911 -1.0829  1.5696 -0.1242
 3522TIP3   OH210522   0.688   2.136   2.239  0.0781 -0.3314 -0.0931
 3522TIP3    H110523   0.707   2.124   2.146 -0.8092  1.5220 -0.5453
 3522TIP3    H210524   0.597   2.107   2.248  0.6848 -2.2113  0.6105
 3523TIP3   OH210525   7.847   1.394   4.301  0.1463  0.0703 -0.3929
 3523TIP3    H110526   7.843   1.403   4.206  1.8104  0.9121 -0.4028
 3523TIP3    H210527   7.817   1.304   4.317 -0.8064  0.1330 -1.6348
 3524TIP3   OH210528   0.200   7.337   2.487  0.0019  0.1017 -0.3663
 3524TIP3    H110529   0.149   7.285   2.425 -0.4701  1.2851 -1.0054
 3524TIP3    H210530   0.267   7.379   2.433  0.0577  0.5499  0.0459
 3525TIP3   OH210531   2.511   2.997   4.710  0.3576 -0.4076 -0.1184
 3525TIP3    H110532   2.479   3.026   4.625  0.0683 -3.3247 -1.1427
 3525TIP3    H210533   2.592   2.949   4.690  0.2546 -1.2084  1.2198
 3526TIP3   OH210534   7.654   5.655   3.375 -0.3899 -0.5502 -0.0523
 3526TIP3    H110535   7.591   5.608   3.430 -2.0401 -0.2119 -1.5532
 3526TIP3    H210536   7.677   5.733   3.426 -1.8976 -0.2282  0.1863
 3527TIP3   OH210537   7.380   0.811   2.431 -0.0052  0.7413 -0.1271
 3527TIP3    H110538   7.452   0.772   2.381 -0.2443  0.5340 -0.3171
 3527TIP3    H210539   7.336   0.736   2.470  0.3690  0.9240  0.6611
 3528TIP3   OH210540   0.677   4.323   2.125 -0.2492  0.1363 -0.3083
 3528TIP3    H110541   0.628   4.246   2.097 -0.8099  0.1132  0.7026
 3528TIP3    H210542   0.701   4.367   2.044 -1.3772 -0.2094 -0.8428
 3529TIP3   OH210543   2.236   3.304   2.892 -0.3067  0.1733 -0.1514
 3529TIP3    H110544   2.311   3.362   2.885 -0.3356  0.6771  2.5967
 3529TIP3    H210545   2.229   3.262   2.806  2.2969  1.0631 -0.8704
 3530TIP3   OH210546   8.193   1.055   4.944 -0.0077 -0.2452  0.0684
 3530TIP3    H110547   8.136   0.979   4.949  0.0038 -0.2118  0.7955
 3530TIP3    H210548   8.268   1.033   4.999 -0.2523  0.4893  0.7148
 3531TIP3   OH210549   2.906   0.868   5.323 -0.0339 -0.1781 -0.7354
 3531TIP3    H110550   2.895   0.783   5.366  1.2272 -0.1097 -0.2048
 3531TIP3    H210551   2.844   0.925   5.368  1.3955 -0.0535  1.2391
 3532TIP3   OH210552   7.539   4.542   6.798 -0.4195 -0.0150 -0.4145
 3532TIP3    H110553   7.490   4.616   6.761 -1.8042  0.4202  2.0485
 3532TIP3    H210554   7.625   4.546   6.756 -0.6344  2.6804 -0.7518
 3533TIP3   OH210555   5.942   6.785   1.504 -0.0946  0.2209  0.1500
 3533TIP3    H110556   5.927   6.828   1.588 -0.4342  0.4687 -0.0381
 3533TIP3    H210557   5.967   6.695   1.527  3.0691  1.1142  0.6709
 3534TIP3   OH210558   2.723   3.592   1.308  0.1406 -0.0973 -0.0851
 3534TIP3    H110559   2.745   3.545   1.389  1.2172  1.6002  0.6674
 3534TIP3    H210560   2.745   3.532   1.238 -0.1537 -1.3552  0.8698
 3535TIP3   OH210561   1.872   7.367   4.100  0.1272 -0.5037 -0.4323
 3535TIP3    H110562   1.841   7.283   4.133  0.4459 -0.1532  0.8180
 3535TIP3    H210563   1.793   7.410   4.065 -0.1147 -1.1185 -0.6526
 3536TIP3   OH210564   0.685   4.450   3.903  0.2700 -0.0517  0.7160
 3536TIP3    H110565   0.642   4.535   3.910  0.3459  0.0912 -0.3330
 3536TIP3    H210566   0.679   4.428   3.810  2.5858  0.0686  0.4690
 3537TIP3   OH210567   0.960   3.644   6.240 -0.3485 -0.6869  1.1096
 3537TIP3    H110568   1.021   3.702   6.285  0.1185 -0.1796 -0.1573
 3537TIP3    H210569   0.874   3.671   6.271 -0.0212 -0.5472  1.9217
 3538TIP3   OH210570   2.827   2.553   4.357 -0.5605  0.8170 -0.2489
 3538TIP3    H110571   2.878   2.524   4.281  0.6429  2.7646 -0.2473
 3538TIP3    H210572   2.877   2.523   4.433 -0.4364  1.0620 -0.2348
 3539TIP3   OH210573   0.947   1.507   3.893 -0.0143  0.3398 -0.2318
 3539TIP3    H110574   0.930   1.532   3.802  1.1406  0.1274 -0.5215
 3539TIP3    H210575   0.995   1.581   3.930 -0.5613  0.4650  0.2399
 3540TIP3   OH210576   0.489   3.454   1.497 -0.8791 -0.1324 -0.1046
 3540TIP3    H110577   0.577   3.493   1.502 -0.2512 -1.5245  0.1232
 3540TIP3    H210578   0.457   3.478   1.410  0.1746 -0.5024 -0.6129
 3541TIP3   OH210579   6.348   2.420   1.001 -0.2314  0.2100  0.7461
 3541TIP3    H110580   6.389   2.347   0.955 -2.4004 -0.9563  0.5026
 3541TIP3    H210581   6.343   2.490   0.935  0.9971  0.2736  0.6953
 3542TIP3   OH210582   6.336   7.533   1.401 -0.1571 -0.5339 -0.1075
 3542TIP3    H110583   6.371   7.620   1.420 -2.0047  0.8243 -2.3885
 3542TIP3    H210584   6.283   7.511   1.477  1.5318 -0.4119  1.1679
 3543TIP3   OH210585   2.346   4.639   3.694  0.1800  0.2834  0.2506
 3543TIP3    H110586   2.353   4.721   3.743  1.3203  0.7796 -0.6831
 3543TIP3    H210587   2.384   4.659   3.608  1.0906 -1.3820  0.2203
 3544TIP3   OH210588   7.903   0.036   1.047  0.9902  0.1891  0.6169
 3544TIP3    H110589   7.897   0.124   1.085  0.9713  1.1296 -1.4456
 3544TIP3    H210590   7.982   0.038   0.994  0.5188 -0.7621 -0.1520
 3545TIP3   OH210591   7.773   1.028   1.375 -0.0966  0.1611  0.3555
 3545TIP3    H110592   7.864   1.058   1.371  0.1171 -0.3891  0.9112
 3545TIP3    H210593   7.723   1.096   1.330  0.7471 -0.1776 -1.1697
 3546TIP3   OH210594   1.365   0.106   0.179  0.1156  0.1778  0.2448
 3546TIP3    H110595   1.460   0.100   0.165 -0.0828 -0.9467 -0.7550
 3546TIP3    H210596   1.341   0.025   0.223 -0.3268  0.6779  0.9534
 3547TIP3   OH210597   1.629   5.343   3.614 -0.0966  0.0314 -0.0173
 3547TIP3    H110598   1.669   5.300   3.539  0.7641 -0.6493  0.8031
 3547TIP3    H210599   1.637   5.279   3.685  1.2054  1.5204  1.2565
 3548TIP3   OH210600   6.585   0.213   2.078 -1.0536  0.4474 -0.0396
 3548TIP3    H110601   6.499   0.187   2.110 -1.8576  1.3261 -1.4260
 3548TIP3    H210602   6.588   0.308   2.089 -0.2086  0.4162  0.0917
 3549TIP3   OH210603   1.413   2.049   2.272 -0.1019 -0.0399 -0.3421
 3549TIP3    H110604   1.444   2.111   2.338 -0.5806  0.3580 -0.4823
 3549TIP3    H210605   1.379   1.975   2.323 -0.5338  0.2959 -0.1388
 3550TIP3   OH210606   7.618   4.110   1.199 -0.2530  0.0050  0.1518
 3550TIP3    H110607   7.576   4.053   1.135 -0.4061 -1.3188  1.3595
 3550TIP3    H210608   7.627   4.195   1.155  1.2970 -1.2995 -2.2145
 3551TIP3   OH210609   6.205   4.279   4.570  0.3077  0.1095  0.0866
 3551TIP3    H110610   6.244   4.192   4.582  0.3139 -0.0200 -0.7741
 3551TIP3    H210611   6.278   4.334   4.539  0.5809  0.7306  1.7436
 3552TIP3   OH210612   3.301   3.575   6.034 -0.1355  0.1056  0.5473
 3552TIP3    H110613   3.378   3.597   5.982 -0.2359  2.0753  1.1653
 3552TIP3    H210614   3.273   3.490   6.001  1.6162 -0.1129 -0.4756
 3553TIP3   OH210615   3.030   3.095   6.229  0.2061 -0.0727  0.1066
 3553TIP3    H110616   2.968   3.135   6.168 -0.5656  0.6822  1.3463
 3553TIP3    H210617   3.000   3.123   6.315  0.9119 -1.6174  0.8870
 3554TIP3   OH210618   4.781   1.940   2.628 -0.2626  0.5827 -0.3538
 3554TIP3    H110619   4.791   1.930   2.533  0.3254  1.0239 -0.3469
 3554TIP3    H210620   4.718   2.012   2.637 -0.4087  0.4613 -0.4120
 3555TIP3   OH210621   4.369   4.816   1.691 -0.1944 -0.4273 -0.1716
 3555TIP3    H110622   4.389   4.773   1.608  1.1798 -1.0058  0.4207
 3555TIP3    H210623   4.279   4.792   1.710 -0.9168  0.6212 -2.0146
 3556TIP3   OH210624   7.059   7.598   0.389  0.1954 -0.4951 -0.2629
 3556TIP3    H110625   7.004   7.548   0.328  0.6587  0.1144 -1.2059
 3556TIP3    H210626   7.141   7.549   0.392  1.4638  1.2175 -2.8674
 3557TIP3   OH210627   6.419   6.631   1.870 -0.1378  0.5061  0.0706
 3557TIP3    H110628   6.439   6.585   1.951 -1.5170 -0.1550  0.0660
 3557TIP3    H210629   6.412   6.561   1.804  2.0622  1.1197 -0.8847
 3558TIP3   OH210630   6.389   7.255   1.267  0.0992 -0.2213  0.0530
 3558TIP3    H110631   6.402   7.196   1.341  1.7742  0.3536  0.2597
 3558TIP3    H210632   6.373   7.341   1.307  1.1537  0.1201 -0.2307
 3559TIP3   OH210633   7.667   3.625   1.607 -0.0510 -0.1758 -0.2749
 3559TIP3    H110634   7.719   3.679   1.666 -0.2724 -0.4451  0.1703
 3559TIP3    H210635   7.730   3.589   1.546 -0.0196  1.4313 -1.2662
 3560TIP3   OH210636   2.874   1.676   5.779 -0.1141 -0.2721 -0.2589
 3560TIP3    H110637   2.967   1.675   5.758 -0.2947  0.9576 -1.2361
 3560TIP3    H210638   2.870   1.701   5.872  0.5084  0.2645 -0.3771
 3561TIP3   OH210639   8.208   0.642   2.889  0.2000 -0.6934  0.1825
 3561TIP3    H110640   8.129   0.681   2.853  1.4078  0.7397 -1.0057
 3561TIP3    H210641   8.213   0.555   2.848  0.9550  0.4717 -2.3760
 3562TIP3   OH210642   4.943   4.960   5.858 -0.1774  0.1448  0.1025
 3562TIP3    H110643   4.939   4.868   5.885 -2.3030  0.5795  1.4727
 3562TIP3    H210644   5.031   4.988   5.881  0.7688 -1.7081 -1.0143
 3563TIP3   OH210645   6.771   2.031   4.159  0.3022 -0.1333  0.0032
 3563TIP3    H110646   6.815   2.091   4.098 -0.5613  0.0828 -0.4287
 3563TIP3    H210647   6.762   1.950   4.110  1.4381 -0.6270  0.5770
 3564TIP3   OH210648   1.355   0.166   5.996  0.5525 -0.1539 -0.5758
 3564TIP3    H110649   1.269   0.126   5.984  0.2581 -0.2201  1.3908
 3564TIP3    H210650   1.409   0.131   5.925 -0.3523 -2.1664 -0.3255
 3565TIP3   OH210651   0.284   7.576   3.829 -0.3206  0.1200  0.1526
 3565TIP3    H110652   0.284   7.492   3.874  1.6506 -1.0503 -1.8109
 3565TIP3    H210653   0.325   7.637   3.890 -1.6060 -0.3444  1.5293
 3566TIP3   OH210654   2.149   6.990   0.970  0.1771  0.0952  0.2082
 3566TIP3    H110655   2.198   7.071   0.988 -0.4992  0.5164  0.1830
 3566TIP3    H210656   2.215   6.921   0.974  0.7749  0.6541  0.1883
 3567TIP3   OH210657   6.803   2.450   4.328 -0.0608 -0.4494  0.5857
 3567TIP3    H110658   6.777   2.542   4.335  0.9076 -0.1765  0.8183
 3567TIP3    H210659   6.754   2.417   4.253  2.2027  1.2505 -1.8642
 3568TIP3   OH210660   6.842   7.286   0.394  0.4180  0.4281 -0.1437
 3568TIP3    H110661   6.813   7.306   0.305 -0.1731 -2.5666 -0.7333
 3568TIP3    H210662   6.761   7.273   0.444  0.7063 -1.0457 -0.0159
 3569TIP3   OH210663   5.359   4.583   0.659  0.0525 -0.1410 -0.2877
 3569TIP3    H110664   5.404   4.520   0.603  0.6430  0.4820 -0.5370
 3569TIP3    H210665   5.294   4.532   0.707  1.4726 -1.1982  0.5821
 3570TIP3   OH210666   4.008   5.916   3.952  0.0222  0.2592  0.1697
 3570TIP3    H110667   3.943   5.957   4.009  0.9022  1.0693  0.6291
 3570TIP3    H210668   4.091   5.929   3.997  0.6324  0.1259 -0.8763
 3571TIP3   OH210669   1.598   5.930   5.539 -0.2073 -0.2322  0.5620
 3571TIP3    H110670   1.649   5.971   5.609  0.1642  0.9361 -0.3589
 3571TIP3    H210671   1.511   5.969   5.546  0.7117  2.6299 -1.7053
 3572TIP3   OH210672   6.345   6.229   3.904 -0.1089 -0.1762  0.1393
 3572TIP3    H110673   6.371   6.190   3.987  1.6903  1.1835  0.2861
 3572TIP3    H210674   6.365   6.323   3.914 -0.3205  0.0968 -1.6256
 3573TIP3   OH210675   6.264   4.632   2.054 -0.8171  0.3677 -0.0816
 3573TIP3    H110676   6.321   4.708   2.064 -1.1702  0.7324 -0.7433
 3573TIP3    H210677   6.292   4.571   2.122  0.3127  0.5656 -0.3428
 3574TIP3   OH210678   0.198   5.303   1.884 -0.0656 -0.0766 -0.7363
 3574TIP3    H110679   0.292   5.321   1.891 -0.0396 -0.8145  1.5925
 3574TIP3    H210680   0.158   5.390   1.879  0.6755  0.2669 -0.8713
 3575TIP3   OH210681   1.389   3.205   6.544 -0.6977  0.5042 -0.1596
 3575TIP3    H110682   1.382   3.112   6.527  1.7900  0.5311 -1.7955
 3575TIP3    H210683   1.391   3.246   6.457  0.2119  1.8721  0.4690
 3576TIP3   OH210684   5.758   3.621   1.805 -0.1922  0.0083 -0.1518
 3576TIP3    H110685   5.763   3.600   1.899  1.0670 -1.1635 -0.4433
 3576TIP3    H210686   5.732   3.713   1.803 -1.4757 -0.2748  1.3108
 3577TIP3   OH210687   6.130   7.632   2.951 -0.4115 -0.1530  0.3805
 3577TIP3    H110688   6.070   7.707   2.955 -0.5064 -0.1976 -0.1615
 3577TIP3    H210689   6.215   7.668   2.978 -0.4018  0.2141 -0.1277
 3578TIP3   OH210690   5.451   6.923   5.906  0.3615 -0.1968 -0.0583
 3578TIP3    H110691   5.388   6.984   5.867 -0.4610 -0.5416  0.7094
 3578TIP3    H210692   5.529   6.977   5.922  0.0877  0.3538 -0.5460
 3579TIP3   OH210693   7.965   6.124   1.316  0.3948  0.1668  0.6913
 3579TIP3    H110694   8.022   6.095   1.244 -0.6808  0.4392 -0.2950
 3579TIP3    H210695   7.946   6.045   1.365 -1.0251 -0.5247 -0.9006
 3580TIP3   OH210696   8.283   3.049   1.629  0.0846  0.1383  0.1623
 3580TIP3    H110697   8.337   3.063   1.551 -0.9197 -0.0070 -0.5677
 3580TIP3    H210698   8.223   2.979   1.604  0.4291 -0.6390  1.4262
 3581TIP3   OH210699   2.494   7.516   2.594  0.1534 -0.2547 -0.2500
 3581TIP3    H110700   2.570   7.571   2.576  0.7888 -0.8399  0.5378
 3581TIP3    H210701   2.468   7.539   2.683 -0.5463 -0.1219 -0.4834
 3582TIP3   OH210702   3.890   6.460   5.367 -0.6905  0.7988 -0.2795
 3582TIP3    H110703   3.929   6.545   5.347 -2.0082  2.3560  2.9734
 3582TIP3    H210704   3.942   6.427   5.440 -2.0802  0.3717  0.5633
 3583TIP3   OH210705   1.950   0.063   3.142  0.0641  0.0869 -0.7660
 3583TIP3    H110706   2.040   0.031   3.151 -0.9845 -3.1080 -0.5095
 3583TIP3    H210707   1.927   0.095   3.230  0.6514  0.0782 -0.6038
 3584TIP3   OH210708   8.219   0.378   0.853 -0.1855 -0.3922 -0.2990
 3584TIP3    H110709   8.284   0.443   0.880 -0.0873 -0.3233 -0.6923
 3584TIP3    H210710   8.219   0.313   0.923  1.1290 -0.9940 -0.8189
 3585TIP3   OH210711   3.686   7.027   3.849 -0.1842  0.3164 -0.0157
 3585TIP3    H110712   3.728   7.027   3.762 -0.5407 -1.6419 -0.2476
 3585TIP3    H210713   3.611   6.969   3.838 -1.5273  1.7910  1.0625
 3586TIP3   OH210714   4.856   5.588   2.168  0.5527 -0.0708 -0.1564
 3586TIP3    H110715   4.947   5.577   2.140  0.2320 -2.2603 -0.5151
 3586TIP3    H210716   4.854   5.551   2.256  0.0354  0.1427 -0.0786
 3587TIP3   OH210717   4.557   1.284   6.524  0.1933  0.1490 -0.9479
 3587TIP3    H110718   4.581   1.363   6.573  0.0903 -0.6335  0.4030
 3587TIP3    H210719   4.629   1.223   6.541 -0.5356 -0.6275 -0.6017
 3588TIP3   OH210720   6.456   4.834   2.086 -0.1204 -0.0409 -0.5661
 3588TIP3    H110721   6.395   4.888   2.136 -2.5762 -0.9625 -2.3248
 3588TIP3    H210722   6.513   4.794   2.152 -0.1875  2.2992  1.0101
 3589TIP3   OH210723   6.291   1.573   3.031 -0.2838  0.1637  0.0708
 3589TIP3    H110724   6.371   1.624   3.042 -0.7919  1.1308 -0.6025
 3589TIP3    H210725   6.300   1.500   3.093  1.0139  0.3729  0.1501
 3590TIP3   OH210726   1.609   4.764   1.716 -0.0298 -0.1576 -0.2117
 3590TIP3    H110727   1.634   4.848   1.678 -0.3037 -0.0312 -0.1171
 3590TIP3    H210728   1.681   4.743   1.775  0.2523 -0.2070 -0.5662
 3591TIP3   OH210729   3.640   6.219   2.525 -0.2505 -0.1649 -0.3508
 3591TIP3    H110730   3.726   6.210   2.485  0.8372  1.7211  1.3946
 3591TIP3    H210731   3.592   6.141   2.496  1.5923 -0.6527 -2.3673
 3592TIP3   OH210732   7.398   3.863   2.386  0.6026 -0.6041 -0.2681
 3592TIP3    H110733   7.413   3.770   2.404  1.9177  0.1015  3.0844
 3592TIP3    H210734   7.323   3.887   2.440  0.6898  0.4062 -0.5644
 3593TIP3   OH210735   4.474   5.753   4.589 -0.0953 -0.4767  0.0281
 3593TIP3    H110736   4.564   5.721   4.600  0.0107 -0.5693 -1.0228
 3593TIP3    H210737   4.419   5.676   4.605  0.0734 -0.7312 -0.6132
 3594TIP3   OH210738   6.761   7.465   1.440 -0.3136  0.1822 -0.2451
 3594TIP3    H110739   6.699   7.393   1.430 -0.2211  0.0267  0.2567
 3594TIP3    H210740   6.823   7.434   1.506  0.3571  0.2975 -0.8140
 3595TIP3   OH210741   7.704   0.765   0.129 -0.0078 -0.5654  0.4003
 3595TIP3    H110742   7.769   0.741   0.063 -0.0222  0.5884 -0.0508
 3595TIP3    H210743   7.755   0.806   0.199 -0.1977 -0.1125  0.2736
 3596TIP3   OH210744   1.882   2.386   0.826 -0.0319  0.2598 -0.0584
 3596TIP3    H110745   1.952   2.440   0.862 -1.0378  2.8628 -1.7067
 3596TIP3    H210746   1.920   2.348   0.746 -0.4063  1.5407 -0.8660
 3597TIP3   OH210747   2.662   2.665   4.170  0.9132 -0.0253  0.0133
 3597TIP3    H110748   2.671   2.600   4.100 -1.1844 -1.3288  0.8724
 3597TIP3    H210749   2.713   2.629   4.243 -0.3546 -0.8242  0.5329
 3598TIP3   OH210750   8.013   0.091   3.509  0.2463  0.5044  0.2949
 3598TIP3    H110751   8.034   0.005   3.473  0.4733  1.2213 -1.3804
 3598TIP3    H210752   7.923   0.084   3.539 -0.1891  0.0296 -1.0549
 3599TIP3   OH210753   0.406   5.580   6.222  0.1678  0.2413  0.3869
 3599TIP3    H110754   0.372   5.649   6.278 -1.1117 -0.6773  0.7823
 3599TIP3    H210755   0.411   5.503   6.278  2.6965  0.2381  0.2729
 3600TIP3   OH210756   7.763   2.949   5.731 -0.9588  0.0445  0.1913
 3600TIP3    H110757   7.819   2.961   5.807 -0.7064 -1.0589  0.1989
 3600TIP3    H210758   7.772   2.856   5.709 -0.5096  0.4670 -1.5804
 3601TIP3   OH210759   5.461   0.247   5.059  0.2188 -0.4260  0.0145
 3601TIP3    H110760   5.526   0.283   4.999 -0.4873 -0.7864 -0.9794
 3601TIP3    H210761   5.403   0.321   5.079  0.6938 -0.2006  0.6046
 3602TIP3   OH210762   6.664   7.484   2.558 -0.2674  0.1445  0.4156
 3602TIP3    H110763   6.717   7.470   2.636 -0.3182  0.2615  0.4705
 3602TIP3    H210764   6.726   7.516   2.492 -0.4574  1.3147  0.7894
 3603TIP3   OH210765   6.699   0.341   6.176  0.1591 -0.2890 -0.0726
 3603TIP3    H110766   6.733   0.425   6.207 -1.2162  0.9067 -1.5876
 3603TIP3    H210767   6.631   0.318   6.239 -0.5455  0.5846 -0.4811
 3604TIP3   OH210768   2.964   7.106   3.914  0.1992  0.0941  0.0293
 3604TIP3    H110769   2.897   7.150   3.861 -2.0915 -1.7740  1.1934
 3604TIP3    H210770   2.945   7.134   4.004  2.1612  0.8909  0.2491
 3605TIP3   OH210771   3.582   7.289   5.505  0.5495  0.6206 -0.1792
 3605TIP3    H110772   3.663   7.248   5.536 -0.0006  0.8170  1.6515
 3605TIP3    H210773   3.608   7.377   5.479  0.8180  0.9933  1.2505
 3606TIP3   OH210774   3.014   7.253   0.895 -0.2113  0.3012 -0.3188
 3606TIP3    H110775   2.991   7.186   0.831  1.0715  0.7844 -1.3256
 3606TIP3    H210776   2.964   7.330   0.868 -2.0748 -0.3399  1.1334
 3607TIP3   OH210777   7.690   2.554   2.540 -0.0763 -0.1206 -0.2382
 3607TIP3    H110778   7.598   2.527   2.540 -0.2336  0.4234 -0.0812
 3607TIP3    H210779   7.731   2.498   2.606 -0.7372  1.1432  1.3109
 3608TIP3   OH210780   3.771   3.535   2.412 -0.5815  0.6129  0.1412
 3608TIP3    H110781   3.776   3.527   2.316 -1.7342  1.9304 -0.0535
 3608TIP3    H210782   3.780   3.629   2.429  2.5019  0.1789  1.5695
 3609TIP3   OH210783   0.635   5.268   6.301 -0.1488 -0.1682  0.1892
 3609TIP3    H110784   0.618   5.285   6.209  0.2199 -0.0637  0.1421
 3609TIP3    H210785   0.550   5.281   6.344 -0.0108  1.2259  0.0756
 3610TIP3   OH210786   0.332   1.576   2.924 -0.2382  0.2842 -0.1313
 3610TIP3    H110787   0.299   1.541   3.006  0.1823  0.5934  0.1754
 3610TIP3    H210788   0.320   1.671   2.932 -0.6083  0.2826 -0.6126
 3611TIP3   OH210789   3.557   6.908   0.994  0.4024 -0.0324  0.5479
 3611TIP3    H110790   3.556   6.829   0.939 -2.5717  0.3383 -0.1395
 3611TIP3    H210791   3.541   6.875   1.082 -3.1677 -0.2128 -0.0231
 3612TIP3   OH210792   2.298   2.712   0.857  0.1419  0.4088 -0.0395
 3612TIP3    H110793   2.247   2.649   0.908  0.7664  0.6757  0.9419
 3612TIP3    H210794   2.249   2.722   0.775 -0.4973 -0.5783  0.2073
 3613TIP3   OH210795   8.015   0.697   4.175  0.2520 -0.2125 -0.0988
 3613TIP3    H110796   8.102   0.734   4.167 -0.3273  1.1591 -0.2318
 3613TIP3    H210797   8.029   0.613   4.219  1.4562  0.8342  1.6382
 3614TIP3   OH210798   8.210   0.056   5.830 -0.0227  0.0683  0.1349
 3614TIP3    H110799   8.279   0.077   5.767  1.0738 -1.1674  0.8614
 3614TIP3    H210800   8.141   0.120   5.813  1.0665  0.9915 -0.9924
 3615TIP3   OH210801   0.054   6.564   5.594  0.4444  0.2231  0.0288
 3615TIP3    H110802   0.082   6.540   5.682  2.5075 -0.9951 -0.8890
 3615TIP3    H210803  -0.003   6.492   5.566  1.2414 -0.3042 -0.2692
 3616TIP3   OH210804   1.069   4.544   5.851 -0.1887  0.1823  0.1705
 3616TIP3    H110805   1.043   4.635   5.864  1.5843  0.7654 -0.0192
 3616TIP3    H210806   1.053   4.527   5.758  0.3593  0.6228 -0.0108
 3617TIP3   OH210807   4.390   1.426   3.295  0.1678 -0.3130 -0.1935
 3617TIP3    H110808   4.320   1.476   3.338  0.9709  0.4967  0.1872
 3617TIP3    H210809   4.364   1.424   3.203 -0.2787  0.1181 -0.0803
 3618TIP3   OH210810   5.488   4.185   3.579  0.4594 -0.4694 -0.2792
 3618TIP3    H110811   5.446   4.257   3.532  2.5878  0.5329 -0.7115
 3618TIP3    H210812   5.423   4.160   3.645 -1.1828  0.3974 -1.4820
 3619TIP3   OH210813   8.264   4.108   6.142  0.3779  0.4650  0.0722
 3619TIP3    H110814   8.256   4.037   6.206 -0.4310  1.2983  0.9310
 3619TIP3    H210815   8.344   4.088   6.094  0.9683 -0.2364  1.2922
 3620TIP3   OH210816   3.822   7.585   0.593 -0.2066  0.2069 -0.0374
 3620TIP3    H110817   3.779   7.660   0.635  1.3960  1.0235  0.1972
 3620TIP3    H210818   3.899   7.568   0.647  0.3996 -0.4899 -1.0839
 3621TIP3   OH210819   2.250   0.671   0.810  0.0673 -0.2133  0.2330
 3621TIP3    H110820   2.167   0.687   0.766  0.8267 -0.7999 -1.5266
 3621TIP3    H210821   2.315   0.713   0.753  1.3555 -3.0776 -0.5661
 3622TIP3   OH210822   3.724   5.568   6.120  0.3753  0.3866  0.1930
 3622TIP3    H110823   3.731   5.482   6.161 -1.2971  0.4119  0.6032
 3622TIP3    H210824   3.692   5.626   6.190 -1.6998  0.6118 -0.8416
 3623TIP3   OH210825   5.682   7.765   0.805  0.6065 -0.3822  0.6789
 3623TIP3    H110826   5.734   7.707   0.861 -0.9448 -0.3694  2.1882
 3623TIP3    H210827   5.611   7.710   0.772  0.5216  0.0591  0.1125
 3624TIP3   OH210828   0.894   7.400   4.586  0.2607  0.0394 -0.2043
 3624TIP3    H110829   0.890   7.393   4.491 -2.0128 -1.9539 -0.0597
 3624TIP3    H210830   0.841   7.477   4.607  2.8899  2.1010 -0.5584
 3625TIP3   OH210831   6.965   5.212   2.529  0.0646 -0.0048  0.1794
 3625TIP3    H110832   6.958   5.217   2.433  2.0427 -1.2727 -0.0952
 3625TIP3    H210833   6.939   5.122   2.549  2.2423 -0.6260  0.4792
 3626TIP3   OH210834   6.616   4.816   3.170  0.3286 -0.3057  0.3431
 3626TIP3    H110835   6.692   4.762   3.147 -0.9025 -2.0817  0.2589
 3626TIP3    H210836   6.629   4.840   3.262  0.8627 -0.8082  0.3984
 3627TIP3   OH210837   6.971   4.012   4.673  0.2156 -0.3937 -0.2326
 3627TIP3    H110838   7.046   4.064   4.704  0.2284 -0.0886 -0.7520
 3627TIP3    H210839   6.978   4.017   4.577  0.4048 -1.6366 -0.2972
 3628TIP3   OH210840   7.151   2.479   5.923 -1.0803  0.2165 -0.3949
 3628TIP3    H110841   7.109   2.468   6.008  1.4350 -0.5189  0.8592
 3628TIP3    H210842   7.132   2.569   5.898 -0.8103  0.8706  1.5877
 3629TIP3   OH210843   3.123   7.290   5.858 -0.0001 -0.3196 -0.3834
 3629TIP3    H110844   3.202   7.306   5.911 -1.3314  0.7247  1.4027
 3629TIP3    H210845   3.073   7.371   5.864 -1.9257 -1.4667 -0.1892
 3630TIP3   OH210846   3.617   0.759   4.845 -0.0640 -0.5324 -0.1329
 3630TIP3    H110847   3.541   0.816   4.831  0.2819  0.8245  2.7104
 3630TIP3    H210848   3.603   0.686   4.785 -2.5405  0.6656 -1.1897
 3631TIP3   OH210849   1.396   5.210   3.053 -0.5515  0.4161 -0.7717
 3631TIP3    H110850   1.328   5.254   3.002 -0.5180  0.2004 -1.0013
 3631TIP3    H210851   1.350   5.174   3.129 -0.6577  0.4440 -0.8230
 3632TIP3   OH210852   2.873   3.390   3.682  0.2038 -0.1604 -0.1533
 3632TIP3    H110853   2.821   3.465   3.652  1.6869  0.6735 -0.7474
 3632TIP3    H210854   2.902   3.347   3.602  0.6721 -0.4297  0.1556
 3633TIP3   OH210855   7.189   5.868   4.399  0.3442  0.1444 -0.7060
 3633TIP3    H110856   7.105   5.824   4.410 -0.6573  2.3494  1.6143
 3633TIP3    H210857   7.239   5.845   4.477  0.6222  1.3542 -0.5059
 3634TIP3   OH210858   7.057   0.127   6.342  0.0023 -0.5369  0.1980
 3634TIP3    H110859   7.091   0.040   6.321  1.0566 -0.0715 -0.1017
 3634TIP3    H210860   6.962   0.115   6.347  0.1685 -1.8042  0.6858
 3635TIP3   OH210861   1.407   1.884   6.634  0.1159  0.4842 -0.2726
 3635TIP3    H110862   1.358   1.879   6.552 -1.4050 -3.2205  0.6860
 3635TIP3    H210863   1.350   1.933   6.693 -0.8729 -0.7219 -0.1948
 3636TIP3   OH210864   0.564   4.265   4.585 -0.5255 -0.2087  0.2094
 3636TIP3    H110865   0.517   4.347   4.604 -0.4744 -0.4235  1.3807
 3636TIP3    H210866   0.648   4.293   4.549  0.3722  0.3869  2.5706
 3637TIP3   OH210867   1.990   4.134   3.195 -0.2270 -0.1010  0.3584
 3637TIP3    H110868   1.917   4.190   3.166  0.2860  0.6794  0.5567
 3637TIP3    H210869   2.029   4.101   3.114 -0.3398  0.0725  0.2334
 3638TIP3   OH210870   1.166   0.531   2.180 -0.2598 -0.0530  0.0582
 3638TIP3    H110871   1.095   0.542   2.244 -0.5016  2.6196 -0.5500
 3638TIP3    H210872   1.128   0.560   2.098  1.6391  2.0131 -0.1892
 3639TIP3   OH210873   5.802   0.962   5.978  0.2419 -0.0911 -0.0692
 3639TIP3    H110874   5.715   0.929   5.955  1.0974 -1.5913 -1.3879
 3639TIP3    H210875   5.841   0.985   5.894  1.9704 -1.7084  0.2403
 3640TIP3   OH210876   5.573   1.442   1.679 -0.5304  0.8171 -0.3114
 3640TIP3    H110877   5.581   1.511   1.613 -0.3061  0.5058 -0.6185
 3640TIP3    H210878   5.636   1.376   1.651  0.3411  1.1474  0.8129
 3641TIP3   OH210879   3.497   5.852   1.038  0.3005 -0.2080 -0.6412
 3641TIP3    H110880   3.577   5.817   1.077 -0.8563 -1.4056  0.7599
 3641TIP3    H210881   3.455   5.777   0.995  0.9126  0.8214 -3.2619
 3642TIP3   OH210882   6.435   5.210   3.079  0.2382  0.3022 -0.0611
 3642TIP3    H110883   6.528   5.190   3.074 -0.0655 -1.2785  0.0205
 3642TIP3    H210884   6.391   5.126   3.064 -1.1410  0.6328  1.7332
 3643TIP3   OH210885   4.128   4.662   5.297  0.0602 -0.1556 -0.0613
 3643TIP3    H110886   4.095   4.600   5.361 -0.1487  0.7906  0.7678
 3643TIP3    H210887   4.066   4.657   5.224 -0.3638 -0.3816  0.3104
 3644TIP3   OH210888   0.559   0.574   0.055 -0.7053  0.2809  0.2315
 3644TIP3    H110889   0.534   0.504   0.116  0.5661  0.1041  0.5760
 3644TIP3    H210890   0.611   0.634   0.107 -0.9491  0.9770 -0.3131
 3645TIP3   OH210891   3.016   4.692   1.615  0.1001 -0.6850 -0.5367
 3645TIP3    H110892   3.033   4.653   1.529 -1.3155 -0.1433 -1.0839
 3645TIP3    H210893   2.921   4.695   1.622  0.1790 -0.9659  1.1847
 3646TIP3   OH210894   3.366   6.260   0.207 -0.6733  0.0894  0.1226
 3646TIP3    H110895   3.321   6.259   0.292 -0.8227 -1.9786  0.0725
 3646TIP3    H210896   3.341   6.177   0.166 -0.7129  1.1010 -2.0173
 3647TIP3   OH210897   0.180   0.170   1.621 -0.4952  0.2233 -0.0449
 3647TIP3    H110898   0.107   0.155   1.681  1.0560  0.5657  2.0543
 3647TIP3    H210899   0.221   0.251   1.652 -0.0523  0.8460 -2.0655
 3648TIP3   OH210900   7.123   7.588   2.614 -0.0586 -0.1169  0.0778
 3648TIP3    H110901   7.198   7.647   2.609 -0.1457  0.0913  0.9530
 3648TIP3    H210902   7.059   7.636   2.668 -0.9856 -0.1143 -0.9893
 3649TIP3   OH210903   1.273   7.236   1.318  0.6346  0.1238 -0.3159
 3649TIP3    H110904   1.286   7.303   1.386  0.5369 -0.0853 -0.0897
 3649TIP3    H210905   1.193   7.263   1.273  0.5445  0.1093 -0.1652
 3650TIP3   OH210906   3.240   1.501   2.621 -0.4343  0.2752 -0.4513
 3650TIP3    H110907   3.234   1.503   2.717  0.5946 -0.5569 -0.3518
 3650TIP3    H210908   3.332   1.482   2.603 -0.2018  2.2303 -1.6539
 3651TIP3   OH210909   3.805   5.389   5.250 -0.0951  0.4005 -0.2194
 3651TIP3    H110910   3.717   5.355   5.262  0.3419 -0.7449 -0.0733
 3651TIP3    H210911   3.795   5.484   5.244 -1.3281  0.2742 -0.2410
 3652TIP3   OH210912   1.671   5.268   2.252 -0.0163  0.5298  0.4917
 3652TIP3    H110913   1.597   5.208   2.258  0.8096 -0.8756 -2.0132
 3652TIP3    H210914   1.739   5.228   2.306  0.0867 -0.1060 -0.0971
 3653TIP3   OH210915   6.747   6.406   4.422 -0.0050 -0.3744 -0.0024
 3653TIP3    H110916   6.783   6.318   4.434 -1.4069 -0.9846 -0.1573
 3653TIP3    H210917   6.706   6.426   4.506 -2.3960 -1.1707 -0.9067
 3654TIP3   OH210918   6.349   1.252   4.678 -0.4012 -0.1430 -0.1183
 3654TIP3    H110919   6.351   1.261   4.774  2.7974  2.1792 -0.2691
 3654TIP3    H210920   6.321   1.338   4.647 -0.2610 -0.5226 -1.3263
 3655TIP3   OH210921   7.675   2.201   6.472  0.1573 -0.3853 -0.2302
 3655TIP3    H110922   7.584   2.175   6.482  0.1998 -0.1573  0.8731
 3655TIP3    H210923   7.712   2.194   6.560  0.5034  2.1249 -0.0999
 3656TIP3   OH210924   7.570   2.500   5.734  0.5460 -0.3497  0.2295
 3656TIP3    H110925   7.499   2.451   5.775 -1.1533  1.3356 -0.4973
 3656TIP3    H210926   7.550   2.591   5.754  2.0009  0.2283 -0.7958
 3657TIP3   OH210927   1.246   1.210   3.611 -0.5289 -0.1424 -0.7509
 3657TIP3    H110928   1.270   1.296   3.575  2.1663  0.7326  2.5515
 3657TIP3    H210929   1.186   1.231   3.683  1.1047 -0.7696  0.8827
 3658TIP3   OH210930   2.737   0.682   4.238  0.0437  0.1098 -0.1426
 3658TIP3    H110931   2.667   0.727   4.285  1.2171  1.1526  0.6995
 3658TIP3    H210932   2.803   0.750   4.223  1.2915 -1.0305 -0.0387
 3659TIP3   OH210933   3.531   4.976   0.216 -0.3986  0.0543 -0.2804
 3659TIP3    H110934   3.470   4.917   0.172 -1.6509  1.1737 -0.0914
 3659TIP3    H210935   3.536   4.943   0.306  0.9297 -1.2796 -0.7980
 3660TIP3   OH210936   7.113   4.378   3.616  0.1651 -0.0068 -0.3351
 3660TIP3    H110937   7.197   4.360   3.574  0.1278 -1.5709  0.2175
 3660TIP3    H210938   7.132   4.381   3.710 -0.3344  0.0554 -0.2309
 3661TIP3   OH210939   1.424   6.146   1.465  0.3354  0.1629 -0.4238
 3661TIP3    H110940   1.381   6.175   1.384 -1.5704  0.6409  0.6946
 3661TIP3    H210941   1.428   6.225   1.518  1.0139 -0.2770  0.1800
 3662TIP3   OH210942   1.678   1.317   5.608 -0.5282  0.0563  0.3710
 3662TIP3    H110943   1.695   1.244   5.549  0.7485 -0.0137  0.7805
 3662TIP3    H210944   1.758   1.324   5.661 -2.0088 -0.6030  2.8678
 3663TIP3   OH210945   2.175   5.319   0.403 -0.3494  0.2701 -0.1798
 3663TIP3    H110946   2.090   5.319   0.358 -1.0242 -0.3609  1.0548
 3663TIP3    H210947   2.156   5.352   0.490  0.7562  0.5019 -0.0209
 3664TIP3   OH210948   4.955   4.873   3.056  0.0341 -0.3261 -0.4147
 3664TIP3    H110949   4.868   4.834   3.054  0.8536 -2.2212 -0.7899
 3664TIP3    H210950   4.995   4.838   3.136  0.7949 -0.2064 -0.7386
 3665TIP3   OH210951   6.391   7.029   6.715  0.2524  0.5546  0.3249
 3665TIP3    H110952   6.434   6.959   6.665  2.1223  1.5482  0.4535
 3665TIP3    H210953   6.398   7.002   6.806  0.8975  0.8364  0.3674
 3666TIP3   OH210954   6.126   0.713   5.113 -0.2165 -0.2096 -0.0078
 3666TIP3    H110955   6.067   0.786   5.093  1.3986  1.1226 -0.1685
 3666TIP3    H210956   6.106   0.691   5.204  1.9185  3.2072  1.4931
 3667TIP3   OH210957   6.194   0.902   0.555  0.2868 -0.1079  0.1220
 3667TIP3    H110958   6.281   0.888   0.590  1.3213  1.8266 -1.4387
 3667TIP3    H210959   6.152   0.816   0.558  1.9449 -0.9157  1.6257
 3668TIP3   OH210960   1.069   0.728   4.258 -0.9571 -0.6984  0.4656
 3668TIP3    H110961   1.083   0.755   4.349 -0.1728  1.8850 -0.3406
 3668TIP3    H210962   1.147   0.677   4.236  0.4876  1.4192  0.3467
 3669TIP3   OH210963   6.028   0.559   0.145  0.1026 -0.5766 -0.2013
 3669TIP3    H110964   6.095   0.618   0.110 -0.7197  0.2474 -0.4512
 3669TIP3    H210965   6.028   0.485   0.085  0.3011 -0.2453 -0.6187
 3670TIP3   OH210966   2.210   7.369   3.927  0.2427  0.4334 -0.2454
 3670TIP3    H110967   2.224   7.396   4.018  2.5679 -0.2527 -0.3416
 3670TIP3    H210968   2.168   7.445   3.886 -2.9017  0.0164  1.8053
 3671TIP3   OH210969   1.948   2.756   5.930 -0.1221  0.4609 -0.0037
 3671TIP3    H110970   1.964   2.837   5.978 -0.5357  0.8191 -0.4602
 3671TIP3    H210971   1.909   2.784   5.847  1.0327 -0.1203 -0.7639
 3672TIP3   OH210972   0.294   1.454   1.444 -0.0557  0.1648 -0.8725
 3672TIP3    H110973   0.313   1.532   1.392 -0.8118  0.1450 -1.1916
 3672TIP3    H210974   0.274   1.386   1.380  1.6203 -0.5918 -0.6354
 3673TIP3   OH210975   1.788   0.159   1.521  0.2323  0.2014 -0.0730
 3673TIP3    H110976   1.735   0.088   1.557  0.2402 -0.1191 -0.6856
 3673TIP3    H210977   1.871   0.118   1.497  0.3900  0.5011 -0.0411
 3674TIP3   OH210978   1.853   7.142   6.465  0.2215  0.4667  0.0392
 3674TIP3    H110979   1.940   7.181   6.475  2.0876 -3.0030 -0.7987
 3674TIP3    H210980   1.854   7.065   6.521 -0.3038 -2.4545 -3.5286
 3675TIP3   OH210981   8.061   4.984   1.382 -0.2447  0.1700 -0.1078
 3675TIP3    H110982   8.030   4.902   1.422  0.1814  1.1838  2.5300
 3675TIP3    H210983   8.080   5.041   1.457 -2.5251  3.4633 -1.7833
 3676TIP3   OH210984   4.599   4.690   5.142 -0.6642  0.1955 -0.3375
 3676TIP3    H110985   4.559   4.716   5.224  1.1067 -0.1752  0.6947
 3676TIP3    H210986   4.672   4.633   5.167  1.1355  1.6121 -2.0023
 3677TIP3   OH210987   3.231   3.142   6.571 -0.2548  0.1019 -0.2010
 3677TIP3    H110988   3.271   3.186   6.647 -0.3984  0.6361 -0.4320
 3677TIP3    H210989   3.264   3.191   6.495  0.0209 -0.5331 -0.4960
 3678TIP3   OH210990   6.689   6.126   1.127 -0.2941  1.0037 -0.6090
 3678TIP3    H110991   6.674   6.148   1.035  0.2741 -0.0138 -0.9530
 3678TIP3    H210992   6.777   6.159   1.145 -0.6008  1.6678 -0.2653
 3679TIP3   OH210993   6.306   5.996   4.084  0.2362 -0.0328 -0.2683
 3679TIP3    H110994   6.294   5.982   3.990  0.2697 -0.4440 -0.2116
 3679TIP3    H210995   6.336   5.912   4.117 -1.1854 -0.3202  0.3557
 3680TIP3   OH210996   0.601   4.263   4.112 -0.5653 -0.3869  0.6316
 3680TIP3    H110997   0.614   4.319   4.189 -0.6458 -0.6226  0.8206
 3680TIP3    H210998   0.620   4.320   4.038  1.0248 -0.5576  0.8665
 3681TIP3   OH210999   5.096   3.323   6.121  0.9932 -0.0675  0.1007
 3681TIP3    H111000   5.060   3.411   6.104  1.9376  0.0098 -1.7031
 3681TIP3    H211001   5.134   3.330   6.208  4.0759  2.4394 -1.2313
 3682TIP3   OH211002   2.092   5.685   0.448 -0.2044 -0.2321  0.2787
 3682TIP3    H111003   2.115   5.716   0.535  1.9796 -0.9990  0.0488
 3682TIP3    H211004   2.104   5.762   0.391 -3.3456  0.7706  0.7839
 3683TIP3   OH211005   1.448   6.989   5.896  0.2700 -0.1471  0.1855
 3683TIP3    H111006   1.415   7.017   5.810  0.0012 -1.2063 -0.0767
 3683TIP3    H211007   1.519   7.050   5.915 -0.2099  0.6243 -0.4030
 3684TIP3   OH211008   1.767   5.911   5.277  0.0777 -0.3473 -0.2213
 3684TIP3    H111009   1.696   5.895   5.340 -0.1785 -0.3219 -0.5006
 3684TIP3    H211010   1.752   5.847   5.208 -1.8852  2.0116 -2.1478
 3685TIP3   OH211011   0.293   6.670   4.102  0.2283 -0.0302  0.5334
 3685TIP3    H111012   0.259   6.745   4.151  1.9161  0.8835  0.3866
 3685TIP3    H211013   0.279   6.693   4.010  0.3971 -0.0601  0.4996
 3686TIP3   OH211014   0.975   1.569   6.572  0.0869 -0.0688 -0.2022
 3686TIP3    H111015   0.881   1.570   6.592  0.3031 -0.9216  0.9548
 3686TIP3    H211016   0.984   1.501   6.505 -0.0855 -0.1752 -0.1178
 3687TIP3   OH211017   4.646   1.329   2.712  0.1703  0.2344 -0.3241
 3687TIP3    H111018   4.570   1.305   2.659 -0.7428 -0.5582  1.2507
 3687TIP3    H211019   4.620   1.308   2.802  1.9119  0.8433  0.3715
 3688TIP3   OH211020   6.275   3.089   2.137 -1.0915 -0.0139 -0.1289
 3688TIP3    H111021   6.234   3.095   2.051  0.3013 -1.1518 -0.9155
 3688TIP3    H211022   6.358   3.136   2.127 -0.1021 -1.6676  0.0445
 3689TIP3   OH211023   6.084   7.303   3.481  0.3412 -0.2954  0.0702
 3689TIP3    H111024   6.107   7.333   3.393 -0.8213  0.1020 -0.1023
 3689TIP3    H211025   6.162   7.321   3.533  0.6465  0.4799 -0.6375
 3690TIP3   OH211026   3.271   1.119   5.991 -0.4580  0.5849  0.0089
 3690TIP3    H111027   3.192   1.065   5.988 -0.0763  0.0324 -0.2028
 3690TIP3    H211028   3.247   1.194   6.045 -1.3266  0.7407 -0.5747
 3691TIP3   OH211029   1.595   3.568   2.414  0.4336 -0.4760 -0.4266
 3691TIP3    H111030   1.560   3.652   2.383 -1.3382 -0.9015  0.2898
 3691TIP3    H211031   1.651   3.538   2.342 -1.7362 -0.3524 -2.2914
 3692TIP3   OH211032   3.576   4.003   1.782 -0.3044 -0.3149  0.0767
 3692TIP3    H111033   3.520   4.017   1.705 -0.4893  2.3535  0.6005
 3692TIP3    H211034   3.659   4.043   1.759  0.1210 -0.7821  0.7540
 3693TIP3   OH211035   5.435   0.597   2.407 -0.1477  0.0799 -0.1928
 3693TIP3    H111036   5.356   0.629   2.363  0.4838  0.5725 -0.9918
 3693TIP3    H211037   5.465   0.524   2.354  1.2132  1.3415 -1.2314
 3694TIP3   OH211038   0.254   0.903   1.364  0.0298 -0.9702 -0.4855
 3694TIP3    H111039   0.213   0.847   1.429 -1.1572  2.0333  1.5729
 3694TIP3    H211040   0.326   0.946   1.410 -0.1976  0.4910 -1.4095
 3695TIP3   OH211041   3.103   5.379   1.760  0.0051 -0.6596  0.0171
 3695TIP3    H111042   3.168   5.448   1.773  0.1178 -0.8644  0.5707
 3695TIP3    H211043   3.094   5.337   1.845 -0.4472 -0.9958 -0.1861
 3696TIP3   OH211044   5.970   0.089   1.737 -0.1595  0.3268 -0.7763
 3696TIP3    H111045   5.962   0.182   1.718  0.6971  0.2878 -1.3749
 3696TIP3    H211046   5.977   0.048   1.651 -1.7313 -0.4220 -0.5777
 3697TIP3   OH211047   0.755   5.590   1.888 -0.5029 -0.3758  0.0369
 3697TIP3    H111048   0.788   5.500   1.886 -1.0370 -0.6115  1.2100
 3697TIP3    H211049   0.833   5.644   1.902 -0.0200 -0.5328 -1.7601
 3698TIP3   OH211050   6.730   7.269   2.235  0.3516  0.0506  0.0738
 3698TIP3    H111051   6.666   7.339   2.244 -0.5512 -1.0022  2.7188
 3698TIP3    H211052   6.678   7.191   2.214  1.1364 -0.2219 -0.9469
 3699TIP3   OH211053   5.608   2.100   6.128 -0.3865 -0.2477  0.3434
 3699TIP3    H111054   5.653   2.036   6.073  0.8541  1.1021 -0.3160
 3699TIP3    H211055   5.553   2.150   6.067 -0.2145  0.2419  0.5794
 3700TIP3   OH211056   0.304   4.713   1.074  0.5935 -0.2462 -0.1916
 3700TIP3    H111057   0.256   4.763   1.140 -0.5965 -2.7812  1.0195
 3700TIP3    H211058   0.395   4.742   1.083 -0.1505  2.3407 -0.2878
 3701TIP3   OH211059   1.096   2.376   2.488 -0.0936  0.3526 -0.9193
 3701TIP3    H111060   1.027   2.438   2.510  1.1552  0.7485  2.4942
 3701TIP3    H211061   1.173   2.430   2.471  1.1062 -0.0815  2.4513
 3702TIP3   OH211062   7.699   6.374   4.782  0.0016 -0.2195  0.0416
 3702TIP3    H111063   7.734   6.409   4.864 -0.8211  0.8625 -0.0357
 3702TIP3    H211064   7.766   6.393   4.716  0.9009 -1.5707  0.5323
 3703TIP3   OH211065   3.181   3.179   2.694 -0.1363  0.1316  0.0168
 3703TIP3    H111066   3.140   3.265   2.686 -0.0560  0.3023  1.2759
 3703TIP3    H211067   3.269   3.197   2.727 -0.4015 -0.4586  1.1285
 3704TIP3   OH211068   7.266   0.670   4.995 -0.0541  0.5099 -0.2683
 3704TIP3    H111069   7.334   0.604   4.986 -0.2860  0.2627 -0.2244
 3704TIP3    H211070   7.184   0.622   4.981 -0.3081  0.5193  1.0995
 3705TIP3   OH211071   3.667   2.840   6.116 -0.0345 -0.6145  0.9500
 3705TIP3    H111072   3.661   2.747   6.093 -1.3720 -0.4901  0.7468
 3705TIP3    H211073   3.599   2.882   6.065  2.0388  0.8713 -0.7609
 3706TIP3   OH211074   0.186   1.229   3.354 -0.4062 -0.1099 -0.3080
 3706TIP3    H111075   0.234   1.310   3.374 -0.4702  0.5764 -2.6221
 3706TIP3    H211076   0.254   1.166   3.332 -0.4129 -0.3793  0.4092
 3707TIP3   OH211077   1.210   7.172   0.508 -0.4583  0.2837 -0.0913
 3707TIP3    H111078   1.204   7.113   0.433  2.3782 -0.1931 -0.0221
 3707TIP3    H211079   1.218   7.115   0.583  0.4186  0.7466  0.1774
 3708TIP3   OH211080   4.301   1.256   4.769 -0.2014 -0.1057  0.0207
 3708TIP3    H111081   4.352   1.261   4.849  0.0179 -0.7136 -0.0785
 3708TIP3    H211082   4.211   1.240   4.798  0.0193 -1.2342  0.1240
 3709TIP3   OH211083   0.859   3.859   5.598 -0.2419 -0.1217  0.4977
 3709TIP3    H111084   0.812   3.907   5.665 -0.2424  0.5690  0.0186
 3709TIP3    H211085   0.804   3.783   5.579 -0.7973  0.2819  0.4718
 3710TIP3   OH211086   0.712   1.254   1.082  0.0707 -0.1907  0.6874
 3710TIP3    H111087   0.764   1.322   1.124  0.4696 -0.4424  0.6008
 3710TIP3    H211088   0.753   1.172   1.108 -1.3410 -0.4935  2.0772
 3711TIP3   OH211089   2.233   5.284   3.985  0.1610  0.4399  0.4277
 3711TIP3    H111090   2.184   5.355   3.943  1.0540  0.5636 -0.4377
 3711TIP3    H211091   2.192   5.274   4.071 -2.0772 -0.1695 -0.6254
 3712TIP3   OH211092   3.208   1.367   3.163 -0.5720  0.2522  0.2763
 3712TIP3    H111093   3.268   1.441   3.174  0.0247 -0.3141  0.8972
 3712TIP3    H211094   3.249   1.312   3.096 -0.3684 -0.1566  0.7315
 3713TIP3   OH211095   5.405   0.813   3.943 -0.1969  0.0378 -0.4495
 3713TIP3    H111096   5.441   0.727   3.965 -0.3393 -0.4197 -1.8834
 3713TIP3    H211097   5.480   0.872   3.946  0.6060 -0.7578 -2.5863
 3714TIP3   OH211098   8.121   2.756   0.053 -0.1824  0.5189  0.2770
 3714TIP3    H111099   8.110   2.670   0.094 -0.1910  0.6696  0.5935
 3714TIP3    H211100   8.034   2.778   0.021 -0.3329  0.7192  0.8153
 3715TIP3   OH211101   3.225   6.806   2.904 -0.1509 -0.4950  0.2350
 3715TIP3    H111102   3.199   6.732   2.958  0.6027 -0.3892  0.7650
 3715TIP3    H211103   3.245   6.876   2.967  2.6235 -0.9497 -0.0115
 3716TIP3   OH211104   5.453   3.450   3.647  0.6261 -0.6520  0.0860
 3716TIP3    H111105   5.544   3.466   3.621  0.5625  1.6398  1.0856
 3716TIP3    H211106   5.456   3.436   3.741  0.0077 -1.1936  0.0335
 3717TIP3   OH211107   3.731   1.325   3.492 -0.2697  0.3591 -0.1429
 3717TIP3    H111108   3.651   1.272   3.493  0.3354 -0.5883 -0.4302
 3717TIP3    H211109   3.709   1.402   3.440 -1.0552  0.2081 -0.0419
 3718TIP3   OH211110   1.717   4.306   6.686  0.0898  0.4639  0.1811
 3718TIP3    H111111   1.809   4.326   6.670  0.0367  0.1418 -0.5644
 3718TIP3    H211112   1.710   4.211   6.671 -0.3464  0.4772  0.2858
 3719TIP3   OH211113   7.875   7.235   0.585 -0.6890 -0.3937 -0.3581
 3719TIP3    H111114   7.870   7.143   0.610 -0.1905  0.0876  1.7261
 3719TIP3    H211115   7.953   7.241   0.529 -0.6545 -1.1955 -0.4016
 3720TIP3   OH211116   5.884   1.734   5.265  0.3319  0.4464  0.2988
 3720TIP3    H111117   5.919   1.786   5.193 -0.4909 -1.6186 -1.7251
 3720TIP3    H211118   5.901   1.786   5.343  1.3589  2.7541 -1.3584
 3721TIP3   OH211119   2.295   3.540   2.677  0.1669  0.1673  0.4031
 3721TIP3    H111120   2.360   3.533   2.747  0.8570  1.4867 -0.0826
 3721TIP3    H211121   2.326   3.612   2.622 -1.3504  0.3930 -0.2128
 3722TIP3   OH211122   6.767   5.970   5.115 -0.1155 -0.2342 -0.1567
 3722TIP3    H111123   6.794   5.960   5.023  2.6943 -0.2855  0.5605
 3722TIP3    H211124   6.783   5.884   5.154 -0.1754  0.0981  0.6081
 3723TIP3   OH211125   2.250   7.144   5.492  0.6064 -0.9615 -0.1838
 3723TIP3    H111126   2.278   7.105   5.409  0.8332 -0.0305 -0.5469
 3723TIP3    H211127   2.306   7.102   5.557  0.1247 -2.0297 -0.4307
 3724TIP3   OH211128   0.446   5.023   4.868  0.3632  0.0376 -0.5130
 3724TIP3    H111129   0.433   5.080   4.944 -3.1707  0.9718 -1.6296
 3724TIP3    H211130   0.506   5.071   4.811 -0.4565  1.4310 -0.2444
 3725TIP3   OH211131   7.442   5.455   4.094  0.5257  0.2211  0.0334
 3725TIP3    H111132   7.505   5.508   4.046  1.8018 -0.1259  1.2667
 3725TIP3    H211133   7.469   5.365   4.080 -1.1546 -0.1283 -1.3796
 3726TIP3   OH211134   7.803   6.873   3.279  0.1840  0.1520 -0.8004
 3726TIP3    H111135   7.786   6.779   3.278 -0.8819  0.2947  0.9136
 3726TIP3    H211136   7.718   6.913   3.299  1.5310  1.1317  4.1875
 3727TIP3   OH211137   4.320   3.472   5.548 -0.4829  0.3425  0.3160
 3727TIP3    H111138   4.244   3.429   5.509  0.2830 -0.0805 -0.7454
 3727TIP3    H211139   4.304   3.565   5.534 -0.6972  0.2434 -0.1074
 3728TIP3   OH211140   1.327   1.813   1.604  0.0912  0.0617  0.2605
 3728TIP3    H111141   1.377   1.734   1.586  0.1970  0.0092  0.7928
 3728TIP3    H211142   1.351   1.838   1.693  0.1295  0.7422  0.0695
 3729TIP3   OH211143   6.797   1.403   2.581  0.7472  0.0136  0.0696
 3729TIP3    H111144   6.743   1.333   2.544 -0.8600  2.9492 -3.8935
 3729TIP3    H211145   6.877   1.402   2.528  1.2120  0.4997  0.7375
 3730TIP3   OH211146   3.174   4.647   1.823  0.0120  0.2437  0.2287
 3730TIP3    H111147   3.131   4.651   1.738  2.4992 -1.5574 -1.2320
 3730TIP3    H211148   3.260   4.686   1.809  0.4262  0.0601  1.9775
 3731TIP3   OH211149   3.240   0.408   0.664 -0.0680  0.0358  0.5204
 3731TIP3    H111150   3.187   0.398   0.585  0.3596 -2.5634  0.4647
 3731TIP3    H211151   3.322   0.448   0.634 -0.1686 -0.3228 -0.2513
 3732TIP3   OH211152   7.172   2.741   1.555 -0.0834 -0.5955 -0.2556
 3732TIP3    H111153   7.220   2.736   1.473 -0.8267  0.6767 -0.7927
 3732TIP3    H211154   7.106   2.809   1.541  0.8685  0.9074  1.9640
 3733TIP3   OH211155   1.430   3.122   5.442 -0.2293 -0.4545  0.8420
 3733TIP3    H111156   1.349   3.087   5.477 -0.4865  0.6674  1.4004
 3733TIP3    H211157   1.472   3.166   5.516  0.1128  0.3508  0.1954
 3734TIP3   OH211158   5.473   4.499   6.224  0.2952 -0.1049 -0.1081
 3734TIP3    H111159   5.495   4.592   6.221  1.3590 -0.2721  1.1908
 3734TIP3    H211160   5.378   4.496   6.230  0.2117  0.8677 -0.7656
 3735TIP3   OH211161   0.702   7.116   1.905  0.0783  0.2455 -0.4542
 3735TIP3    H111162   0.658   7.187   1.952 -0.4720  0.1838 -0.8640
 3735TIP3    H211163   0.795   7.135   1.915 -0.0653  1.2932 -0.9420
 3736TIP3   OH211164   5.680   0.251   3.247 -0.1482 -0.4641 -0.0381
 3736TIP3    H111165   5.634   0.292   3.321 -1.2783 -0.0045 -0.9690
 3736TIP3    H211166   5.628   0.173   3.227 -0.0952 -0.3484 -0.6301
 3737TIP3   OH211167   0.535   5.448   4.446  0.2472 -0.1823 -0.1559
 3737TIP3    H111168   0.529   5.353   4.439  2.3603 -0.5900  2.0650
 3737TIP3    H211169   0.473   5.472   4.515 -0.5443  0.1388 -0.9567
 3738TIP3   OH211170   3.555   4.472   5.537  0.4339  0.4698  0.0276
 3738TIP3    H111171   3.491   4.539   5.512  0.1911 -0.4341 -2.0304
 3738TIP3    H211172   3.598   4.449   5.454 -0.7637 -3.2031  0.2476
 3739TIP3   OH211173   1.127   0.771   3.060  0.0508 -0.4397  0.4711
 3739TIP3    H111174   1.147   0.679   3.073 -1.2198 -0.4574  2.9399
 3739TIP3    H211175   1.211   0.815   3.065  1.0578 -1.5277 -3.2259
 3740TIP3   OH211176   1.858   5.998   0.765 -0.0976  0.5790  0.4697
 3740TIP3    H111177   1.791   6.040   0.819 -0.2095 -0.1810  0.9502
 3740TIP3    H211178   1.940   6.042   0.788 -0.3219  1.0149  0.4293
 3741TIP3   OH211179   3.365   3.843   5.036  0.2224  0.3544  0.0646
 3741TIP3    H111180   3.344   3.931   5.004  3.8891  0.9910 -1.0548
 3741TIP3    H211181   3.431   3.857   5.103  0.4366 -1.5651  0.3036
 3742TIP3   OH211182   0.853   3.239   0.648 -0.0264  0.5967  0.1365
 3742TIP3    H111183   0.826   3.178   0.579  0.9992  0.8250 -0.4926
 3742TIP3    H211184   0.922   3.192   0.696 -0.4603  0.5940  0.7772
 3743TIP3   OH211185   2.218   3.939   2.677  0.1039 -1.0149  0.7537
 3743TIP3    H111186   2.243   4.031   2.680 -2.1926 -0.2989  0.1636
 3743TIP3    H211187   2.158   3.929   2.751  0.2718 -2.0199  0.7609
 3744TIP3   OH211188   3.292   3.013   0.183  1.0646 -0.4152 -0.6769
 3744TIP3    H111189   3.202   2.981   0.186  0.5997  0.8709 -0.1001
 3744TIP3    H211190   3.304   3.042   0.092  0.4934  0.4650 -0.4846
 3745TIP3   OH211191   1.665   5.434   1.997 -0.4848 -0.3628 -0.0022
 3745TIP3    H111192   1.660   5.388   2.081  0.5963  1.0617  0.8905
 3745TIP3    H211193   1.758   5.438   1.978 -0.6571  0.2755 -0.7314
 3746TIP3   OH211194   4.423   4.405   4.239 -0.5482  0.7571 -0.3355
 3746TIP3    H111195   4.365   4.394   4.314  0.3321  0.6764  0.3372
 3746TIP3    H211196   4.492   4.463   4.269  0.6224 -0.4555 -0.6016
 3747TIP3   OH211197   2.764   5.236   0.268  0.4638  0.5448  0.2721
 3747TIP3    H111198   2.819   5.181   0.212 -1.0343 -0.2857 -0.4383
 3747TIP3    H211199   2.726   5.300   0.208 -0.5203  0.1562  0.4626
 3748TIP3   OH211200   2.583   3.570   2.335  0.6200 -0.0775  0.2007
 3748TIP3    H111201   2.506   3.623   2.359  1.2616  0.8913  0.1513
 3748TIP3    H211202   2.655   3.632   2.333  1.2032 -0.7659 -0.9229
 3749TIP3   OH211203   1.917   6.507   1.978  0.1261  0.2728  0.1794
 3749TIP3    H111204   1.864   6.573   2.022  0.8187  0.2616  1.0632
 3749TIP3    H211205   1.876   6.424   2.000  0.0586  0.3183  0.2239
 3750TIP3   OH211206   2.504   2.150   1.821  0.2125 -0.2981 -0.1063
 3750TIP3    H111207   2.442   2.188   1.759 -0.4196 -1.1277  0.0046
 3750TIP3    H211208   2.552   2.225   1.856  0.8906  0.1738 -1.9103
 3751TIP3   OH211209   8.067   4.995   5.221  0.3735  0.1328 -0.2622
 3751TIP3    H111210   8.115   5.078   5.228  3.0032 -1.3468  0.8705
 3751TIP3    H211211   8.119   4.942   5.160  0.5283 -1.7089  1.3545
 3752TIP3   OH211212   5.449   5.318   1.320  0.1225 -0.1235  0.0136
 3752TIP3    H111213   5.374   5.343   1.266  0.0654 -1.4592 -0.5785
 3752TIP3    H211214   5.410   5.291   1.404  0.1497  1.2396  0.4916
 3753TIP3   OH211215   5.508   4.050   2.744 -0.7424  0.2776  0.1840
 3753TIP3    H111216   5.579   4.112   2.762 -0.5854  0.2918 -0.4559
 3753TIP3    H211217   5.511   3.989   2.817  0.1770  0.0614 -0.0187
 3754TIP3   OH211218   6.614   2.215   5.289 -0.3840 -0.5126  0.1734
 3754TIP3    H111219   6.665   2.246   5.364 -1.6735 -0.8990  1.2686
 3754TIP3    H211220   6.651   2.130   5.268 -0.5466 -0.7944  0.9626
 3755TIP3   OH211221   0.765   1.929   5.065  0.1687 -0.1159 -0.1472
 3755TIP3    H111222   0.828   1.957   4.999  2.3660 -1.0003  1.4204
 3755TIP3    H211223   0.802   1.961   5.148  0.0406 -2.9803  1.1311
 3756TIP3   OH211224   3.597   5.304   3.318 -0.4468 -0.3103  0.1818
 3756TIP3    H111225   3.621   5.240   3.385 -2.2708  0.0279  1.2322
 3756TIP3    H211226   3.503   5.317   3.330 -0.9126 -0.4887 -2.7013
 3757TIP3   OH211227   7.026   2.461   3.363  0.4297 -0.1776  0.7564
 3757TIP3    H111228   6.989   2.388   3.313  0.5076 -2.0223  3.2143
 3757TIP3    H211229   6.950   2.505   3.400  0.4684 -1.0959  1.9801
 3758TIP3   OH211230   6.319   1.312   6.424  0.1649 -0.3866  0.6978
 3758TIP3    H111231   6.236   1.353   6.398  0.4824 -0.3928 -0.3905
 3758TIP3    H211232   6.333   1.341   6.514  0.5234  2.1685 -0.1020
 3759TIP3   OH211233   5.763   3.633   4.310  0.1122 -0.8533 -0.3890
 3759TIP3    H111234   5.668   3.645   4.313  0.3365  1.1789  0.1126
 3759TIP3    H211235   5.798   3.708   4.359  1.9447 -2.1985  0.4470
 3760TIP3   OH211236   8.206   2.186   2.460 -0.2706  0.2960  0.0395
 3760TIP3    H111237   8.237   2.180   2.551 -0.1082  1.4770  0.0848
 3760TIP3    H211238   8.114   2.159   2.465 -0.4986  1.1448  0.7129
 3761TIP3   OH211239   5.909   4.347   0.728  0.6080  0.1129 -0.0918
 3761TIP3    H111240   5.883   4.259   0.700  1.7506 -0.4072  0.4190
 3761TIP3    H211241   5.827   4.397   0.727  0.1781 -0.5752 -1.7247
 3762TIP3   OH211242   5.615   1.435   5.434 -0.2207  0.4454  0.0740
 3762TIP3    H111243   5.607   1.402   5.345  1.2896  0.9553 -0.2829
 3762TIP3    H211244   5.525   1.455   5.461 -0.6427  0.8809 -1.5736
 3763TIP3   OH211245   1.582   6.351   5.940 -0.2780 -0.3676  0.1924
 3763TIP3    H111246   1.572   6.259   5.965  2.7337 -0.7057  0.4851
 3763TIP3    H211247   1.622   6.393   6.016  1.7027  0.3505 -1.1880
 3764TIP3   OH211248   1.413   1.454   4.075 -0.1197 -0.2797 -0.4444
 3764TIP3    H111249   1.351   1.432   4.145  0.7059 -1.3296 -0.0159
 3764TIP3    H211250   1.374   1.414   3.997 -0.4770 -0.0754 -0.3757
 3765TIP3   OH211251   0.269   5.824   3.883 -0.0484  0.2670 -0.3766
 3765TIP3    H111252   0.186   5.822   3.836  0.6135 -0.0749 -1.5755
 3765TIP3    H211253   0.325   5.881   3.830  0.7830 -0.2947 -0.1229
 3766TIP3   OH211254   2.844   2.175   0.646  0.1158  0.1564 -0.1535
 3766TIP3    H111255   2.773   2.120   0.678  0.8032 -0.3961  0.4628
 3766TIP3    H211256   2.856   2.148   0.555 -1.0106  0.8455 -0.5202
 3767TIP3   OH211257   4.422   3.514   4.238  0.5037 -0.1290  0.8286
 3767TIP3    H111258   4.402   3.421   4.250 -0.6502  0.0766  0.5793
 3767TIP3    H211259   4.390   3.556   4.318  2.1003 -0.0726  1.4792
 3768TIP3   OH211260   7.242   5.294   5.529 -0.0126  0.1135 -0.4634
 3768TIP3    H111261   7.212   5.381   5.502 -0.4158 -0.2391 -1.1932
 3768TIP3    H211262   7.170   5.236   5.506 -0.2233 -0.2712  1.0713
 3769TIP3   OH211263   3.593   0.244   0.003 -0.6118  0.0346  0.4073
 3769TIP3    H111264   3.548   0.223   0.084 -1.7397  0.2826 -0.1329
 3769TIP3    H211265   3.650   0.318   0.025  0.4949 -1.0576  1.3879
 3770TIP3   OH211266   5.149   7.594   5.252 -0.2828  0.2058  0.3940
 3770TIP3    H111267   5.123   7.657   5.319 -2.8171 -1.4246  1.0714
 3770TIP3    H211268   5.102   7.513   5.275  2.0242 -1.6790 -0.9919
 3771TIP3   OH211269   1.917   4.511   5.860 -0.1818  0.0317 -0.5114
 3771TIP3    H111270   2.010   4.530   5.849  0.0650 -1.1244 -0.6102
 3771TIP3    H211271   1.877   4.530   5.775 -0.0775  0.7454 -0.4004
 3772TIP3   OH211272   1.601   7.474   0.342 -0.0928 -0.0760 -0.2914
 3772TIP3    H111273   1.546   7.552   0.335  1.4566  1.1176  0.1539
 3772TIP3    H211274   1.555   7.418   0.404 -0.7799  0.9043  0.1185
 3773TIP3   OH211275   7.833   2.807   2.684 -0.0192 -0.3569 -0.0854
 3773TIP3    H111276   7.742   2.807   2.656  0.2441  1.1378 -1.0431
 3773TIP3    H211277   7.879   2.756   2.617  0.2678  1.3796 -1.2804
 3774TIP3   OH211278   0.901   2.815   0.033 -0.0885 -0.7415  0.1156
 3774TIP3    H111279   0.888   2.908   0.014  1.8465 -0.0579  1.8158
 3774TIP3    H211280   0.843   2.797   0.106 -0.8952 -1.0627 -0.5818
 3775TIP3   OH211281   3.479   2.663   6.464 -0.5804  0.3760 -0.3186
 3775TIP3    H111282   3.445   2.629   6.382 -0.5352 -0.5009  0.0089
 3775TIP3    H211283   3.432   2.745   6.478  0.2429  1.1413 -1.7858
 3776TIP3   OH211284   2.744   7.242   4.679  0.7210 -0.2082  0.6014
 3776TIP3    H111285   2.798   7.280   4.609  0.6212 -0.6609  0.2767
 3776TIP3    H211286   2.797   7.253   4.758  1.0362 -0.1186  0.3813
 3777TIP3   OH211287   7.282   5.182   0.622 -0.2357  0.5179  0.0282
 3777TIP3    H111288   7.232   5.231   0.688 -0.7155 -1.0139  0.8708
 3777TIP3    H211289   7.305   5.100   0.666  0.8417  0.1257 -1.2029
 3778TIP3   OH211290   7.241   2.306   3.251  0.1114 -0.4503 -0.3630
 3778TIP3    H111291   7.264   2.320   3.159  0.1013 -0.1008 -0.3112
 3778TIP3    H211292   7.146   2.296   3.251 -0.1423  1.6262 -0.1353
 3779TIP3   OH211293   4.242   4.867   5.100  0.1914 -0.2214 -0.1089
 3779TIP3    H111294   4.184   4.820   5.160  0.2164 -0.7678 -0.5026
 3779TIP3    H211295   4.261   4.950   5.145  2.4998 -1.7506  1.9832
 3780TIP3   OH211296   3.778   4.009   4.132 -0.0217 -0.1348 -0.1543
 3780TIP3    H111297   3.826   3.979   4.055 -0.2171 -0.5238 -0.1310
 3780TIP3    H211298   3.695   3.960   4.129 -0.7946  1.1387 -0.6589
 3781TIP3   OH211299   7.419   5.944   2.840  0.0926  0.3529  0.0362
 3781TIP3    H111300   7.438   5.855   2.870  1.7164  0.5473 -0.2899
 3781TIP3    H211301   7.326   5.943   2.817 -0.1295 -0.9991  0.8835
 3782TIP3   OH211302   6.809   6.114   0.795 -0.1286 -0.1376 -0.3011
 3782TIP3    H111303   6.762   6.184   0.748  0.2958 -0.0337 -0.5782
 3782TIP3    H211304   6.858   6.069   0.727 -2.0398 -2.0982 -0.5102
 3783TIP3   OH211305   3.684   7.288   3.438 -0.7466 -0.6437 -0.3874
 3783TIP3    H111306   3.706   7.357   3.501 -1.6206 -0.8465  0.1483
 3783TIP3    H211307   3.599   7.255   3.467  0.2496 -2.8747  0.1743
 3784TIP3   OH211308   4.244   6.112   3.668  0.3258  0.3017  0.0899
 3784TIP3    H111309   4.210   6.047   3.730  1.7102 -1.9113 -1.3239
 3784TIP3    H211310   4.331   6.133   3.701 -0.0105  1.2855  0.3864
 3785TIP3   OH211311   0.373   0.431   3.151 -0.0207 -0.0090 -0.2484
 3785TIP3    H111312   0.399   0.521   3.128 -0.1503  0.0289 -0.2482
 3785TIP3    H211313   0.286   0.421   3.113  1.1520 -1.1490 -2.8546
 3786TIP3   OH211314   5.133   5.833   2.363  0.5056 -0.2107  0.4755
 3786TIP3    H111315   5.177   5.750   2.384  2.1281  0.5207  0.1299
 3786TIP3    H211316   5.083   5.815   2.284 -1.3352 -1.5469  1.8488
 3787TIP3   OH211317   4.145   0.163   4.970  0.7033 -0.0499  0.3849
 3787TIP3    H111318   4.070   0.203   5.014  1.5150  2.4573 -0.3468
 3787TIP3    H211319   4.130   0.069   4.978 -2.4791  0.3409  0.3148
 3788TIP3   OH211320   5.309   7.459   6.401  0.1066 -0.0515  0.3256
 3788TIP3    H111321   5.318   7.365   6.385 -2.5068 -0.6202  1.6108
 3788TIP3    H211322   5.289   7.497   6.316 -0.8473 -0.9948  0.1141
 3789TIP3   OH211323   7.208   4.630   1.621  0.6025 -0.4584 -0.2686
 3789TIP3    H111324   7.212   4.549   1.571  1.0615  0.7979 -2.3677
 3789TIP3    H211325   7.133   4.677   1.586 -0.4917 -0.5111  1.8671
 3790TIP3   OH211326   2.847   6.606   4.906 -0.1375  0.2552 -0.4905
 3790TIP3    H111327   2.916   6.584   4.969 -1.9293  0.4614  1.6599
 3790TIP3    H211328   2.865   6.550   4.830  1.2117 -1.1645  0.8046
 3791TIP3   OH211329   4.392   2.664   2.448 -0.1360 -0.1523  0.2834
 3791TIP3    H111330   4.449   2.603   2.401  0.2627  0.5089 -0.1195
 3791TIP3    H211331   4.424   2.663   2.538 -0.1248 -0.5288  0.2735
 3792TIP3   OH211332   1.959   6.606   0.584  0.4504  0.3200 -0.5958
 3792TIP3    H111333   2.016   6.679   0.606  1.9336 -0.2189 -2.3832
 3792TIP3    H211334   1.874   6.630   0.620  1.9429  0.7214  2.9850
 3793TIP3   OH211335   2.691   3.853   6.081 -0.5921  0.2316  0.1184
 3793TIP3    H111336   2.641   3.772   6.087 -0.2116 -0.0470 -0.3973
 3793TIP3    H211337   2.625   3.922   6.080 -0.8970 -0.0377  1.1240
 3794TIP3   OH211338   2.708   3.440   2.121 -0.0272 -0.3090  0.0903
 3794TIP3    H111339   2.656   3.491   2.183  0.0630  0.8663 -0.7606
 3794TIP3    H211340   2.644   3.400   2.063 -0.0196  1.0739 -0.9086
 3795TIP3   OH211341   0.348   1.586   6.495 -0.2451 -0.0051  0.0895
 3795TIP3    H111342   0.408   1.615   6.427 -1.9401  0.7846 -1.1608
 3795TIP3    H211343   0.263   1.581   6.450 -1.0890 -1.1844  1.7394
 3796TIP3   OH211344   7.452   2.157   0.459 -0.0299 -0.1759 -0.2324
 3796TIP3    H111345   7.424   2.205   0.381  0.4551 -0.5075 -0.6198
 3796TIP3    H211346   7.543   2.131   0.440  0.0640 -0.3370  0.4052
 3797TIP3   OH211347   2.227   5.578   1.154  0.8203 -0.0620 -0.2224
 3797TIP3    H111348   2.154   5.520   1.130  0.8833  0.3034 -1.3746
 3797TIP3    H211349   2.289   5.522   1.199 -0.2639 -0.3362  1.0188
 3798TIP3   OH211350   6.993   2.731   6.512 -0.1761  0.1241  0.0501
 3798TIP3    H111351   6.967   2.649   6.554 -1.1446  0.0919 -0.5749
 3798TIP3    H211352   6.925   2.747   6.446  0.6523  0.8000 -0.6659
 3799TIP3   OH211353   3.837   2.894   5.773  0.0033  0.0056 -0.1419
 3799TIP3    H111354   3.928   2.869   5.755  0.5572  0.2599  1.9402
 3799TIP3    H211355   3.843   2.983   5.809 -1.1222  0.2145 -0.4263
 3800TIP3   OH211356   1.919   6.468   3.387 -0.3318  0.1347  0.0940
 3800TIP3    H111357   2.015   6.468   3.380 -0.3536  1.3095 -0.4551
 3800TIP3    H211358   1.896   6.376   3.400  0.9646 -0.0070  1.7746
 3801TIP3   OH211359   1.616   3.804   0.068 -0.0281 -0.6045 -0.0395
 3801TIP3    H111360   1.680   3.757   0.122 -0.9636 -0.6794  1.0431
 3801TIP3    H211361   1.636   3.776  -0.022  2.1214  0.1853  0.1286
 3802TIP3   OH211362   1.694   5.147   5.932  0.0780 -0.2215  0.5764
 3802TIP3    H111363   1.740   5.160   5.849  0.4011 -0.8176  0.6586
 3802TIP3    H211364   1.603   5.128   5.905  0.6048 -2.5910  0.2139
 3803TIP3   OH211365   5.363   0.551   2.695 -0.0162  0.0627  0.0164
 3803TIP3    H111366   5.271   0.524   2.695 -0.0255  0.0913 -0.4734
 3803TIP3    H211367   5.386   0.557   2.602  0.3707  0.4305  0.1361
 3804TIP3   OH211368   4.888   5.004   3.816 -0.1265 -0.0933  0.6035
 3804TIP3    H111369   4.923   5.092   3.802 -1.3124  0.0488 -2.0331
 3804TIP3    H211370   4.963   4.946   3.804  0.2103  0.4433  0.0615
 3805TIP3   OH211371   6.012   5.390   4.990 -0.0556  0.0114  0.1443
 3805TIP3    H111372   6.085   5.375   4.929  0.5183  0.9939  0.5701
 3805TIP3    H211373   6.045   5.359   5.074 -0.8242 -1.2738 -0.0038
 3806TIP3   OH211374   1.949   1.534   4.666  0.1771  0.0780  0.1211
 3806TIP3    H111375   1.866   1.543   4.620  1.0681  0.1233 -1.5551
 3806TIP3    H211376   1.931   1.565   4.755 -0.9553  2.7399 -0.9237
 3807TIP3   OH211377   5.795   7.737   0.160  0.3815 -0.5689 -0.1145
 3807TIP3    H111378   5.786   7.805   0.093 -1.7509 -1.3334 -0.6669
 3807TIP3    H211379   5.748   7.770   0.236  0.2936 -0.9527  0.0038
 3808TIP3   OH211380   7.914   5.194   5.012  0.2543  0.1069 -0.1368
 3808TIP3    H111381   7.877   5.214   5.097 -0.2752  1.1469 -0.5905
 3808TIP3    H211382   7.897   5.101   4.999  0.0332  0.0208  0.7288
 3809TIP3   OH211383   3.374   3.273   4.333  0.2725 -0.6032 -0.1889
 3809TIP3    H111384   3.360   3.179   4.321  0.2579 -0.6055 -0.1524
 3809TIP3    H211385   3.422   3.281   4.415 -0.5226 -0.5192  0.2764
 3810TIP3   OH211386   7.142   6.045   2.015  0.1003  0.1748  0.0743
 3810TIP3    H111387   7.123   5.960   2.054  1.2222  0.7654  2.0690
 3810TIP3    H211388   7.074   6.103   2.049  1.0883  0.6958  1.2643
 3811TIP3   OH211389   0.549   6.326   3.404  0.1712 -0.0745  0.8407
 3811TIP3    H111390   0.518   6.313   3.314 -0.0665  1.0375  0.7555
 3811TIP3    H211391   0.584   6.415   3.405 -0.0042 -0.0059  1.9034
 3812TIP3   OH211392   7.187   7.374   3.975 -0.0155  0.9593 -0.4214
 3812TIP3    H111393   7.198   7.464   3.946 -1.0970  0.9172 -1.0279
 3812TIP3    H211394   7.151   7.381   4.063  1.5951  1.0944  0.2583
 3813TIP3   OH211395   3.922   2.606   1.757 -0.2125  0.1880 -0.4868
 3813TIP3    H111396   3.970   2.571   1.682  0.7995  1.7376 -0.6060
 3813TIP3    H211397   3.847   2.547   1.767  1.1604 -1.7331 -0.9117
 3814TIP3   OH211398   7.160   3.781   4.376 -0.3590 -0.0258 -0.4284
 3814TIP3    H111399   7.221   3.817   4.441  0.8373 -0.5344 -1.2234
 3814TIP3    H211400   7.216   3.727   4.319 -1.6053 -0.6872 -1.0527
 3815TIP3   OH211401   7.163   2.121   1.280  0.4029  0.0927 -0.3629
 3815TIP3    H111402   7.227   2.173   1.328 -2.0074  1.8556  1.1581
 3815TIP3    H211403   7.194   2.123   1.189  2.9325  0.0516  0.3990
 3816TIP3   OH211404   2.480   1.443   5.620  0.4242 -0.2150 -0.3687
 3816TIP3    H111405   2.494   1.531   5.655  0.9506 -0.5148  0.2013
 3816TIP3    H211406   2.397   1.414   5.658  0.7116 -0.3198  0.1846
 3817TIP3   OH211407   1.616   7.615   4.956 -0.2460  0.0559  0.4335
 3817TIP3    H111408   1.659   7.600   5.040 -1.3210  1.4730  1.3017
 3817TIP3    H211409   1.534   7.659   4.979  0.0818  1.8032 -1.4431
 3818TIP3   OH211410   6.695   7.537   3.139 -0.5468 -0.5514  0.0416
 3818TIP3    H111411   6.747   7.461   3.111  2.3888  0.4173  2.3600
 3818TIP3    H211412   6.637   7.555   3.065  1.0587 -2.9246 -1.9615
 3819TIP3   OH211413   3.089   0.176   4.789  0.0022  1.0407  0.2766
 3819TIP3    H111414   3.011   0.153   4.740  0.0005  0.5218  0.5260
 3819TIP3    H211415   3.092   0.272   4.785 -0.0014  1.0123 -0.7238
 3820TIP3   OH211416   5.960   5.915   0.098  0.0600  0.1436  0.0705
 3820TIP3    H111417   5.956   5.976   0.025 -0.7819  0.3093  0.2415
 3820TIP3    H211418   5.907   5.840   0.069  0.0066  0.0636  0.3688
 3821TIP3   OH211419   7.769   3.419   4.500 -0.3464 -0.6433 -0.2010
 3821TIP3    H111420   7.850   3.369   4.510 -0.0578  0.0061  1.0902
 3821TIP3    H211421   7.798   3.506   4.471 -0.7330 -0.8640 -1.2777
 3822TIP3   OH211422   6.837   7.322   1.687  0.1668  0.2051 -0.5165
 3822TIP3    H111423   6.877   7.307   1.773  2.0052  2.0121 -0.9848
 3822TIP3    H211424   6.873   7.254   1.631  0.2137  0.0026 -0.2427
 3823TIP3   OH211425   4.377   6.006   4.579 -0.5493  0.2116 -0.0870
 3823TIP3    H111426   4.421   6.075   4.529 -2.1218  0.5015 -1.1303
 3823TIP3    H211427   4.419   5.925   4.550  0.7147  0.6281  0.5052
 3824TIP3   OH211428   4.066   5.128   4.537  0.3658  0.3151  0.5944
 3824TIP3    H111429   4.014   5.178   4.600 -2.4670 -1.2075 -0.3462
 3824TIP3    H211430   4.020   5.045   4.529  1.8093 -0.3412 -1.9364
 3825TIP3   OH211431   2.453   0.395   3.484 -0.2453 -0.2524  0.0694
 3825TIP3    H111432   2.467   0.343   3.563  0.1912  0.0243  0.1784
 3825TIP3    H211433   2.362   0.380   3.461  0.0730 -1.6656 -0.3317
 3826TIP3   OH211434   4.566   7.072   4.067 -0.0604 -0.2669 -0.0863
 3826TIP3    H111435   4.538   7.089   3.977 -0.3997 -0.4455 -0.0141
 3826TIP3    H211436   4.577   7.159   4.106 -1.2950 -0.1836  0.1285
 3827TIP3   OH211437   3.131   5.171   4.691  0.0493  0.4755  0.8274
 3827TIP3    H111438   3.194   5.101   4.709  0.4036  0.5290 -0.1670
 3827TIP3    H211439   3.161   5.244   4.745 -0.6105 -0.2655  2.2635
 3828TIP3   OH211440   5.097   2.414   0.491 -0.2243  0.0716 -0.3503
 3828TIP3    H111441   5.099   2.330   0.445  0.8555 -0.4305  0.5627
 3828TIP3    H211442   5.020   2.407   0.548  0.5076 -0.7962  0.5747
 3829TIP3   OH211443   0.506   3.563   3.355  0.1245  0.5414 -0.3375
 3829TIP3    H111444   0.442   3.593   3.419  0.9118  1.5757 -0.0218
 3829TIP3    H211445   0.550   3.642   3.326  0.8695 -0.0964 -0.9847
 3830TIP3   OH211446   7.752   0.143   4.031  0.3274  0.1333 -0.0561
 3830TIP3    H111447   7.811   0.099   4.092 -1.8287 -0.7587  1.5072
 3830TIP3    H211448   7.767   0.236   4.045 -0.4089 -0.0238  2.2541
 3831TIP3   OH211449   1.386   4.594   3.487 -0.0944 -0.4068  0.6944
 3831TIP3    H111450   1.446   4.663   3.517 -0.4837 -0.2236  1.0655
 3831TIP3    H211451   1.394   4.525   3.552  0.4416 -0.8068  0.2175
 3832TIP3   OH211452   2.038   1.409   3.643 -0.7136 -0.9064 -0.1915
 3832TIP3    H111453   1.976   1.352   3.689 -0.6892  0.1195  1.1624
 3832TIP3    H211454   1.987   1.448   3.572 -1.3394 -0.8334  0.2936
 3833TIP3   OH211455   1.736   2.451   1.251  0.4382 -0.2784 -0.0821
 3833TIP3    H111456   1.718   2.383   1.185  0.2944  0.2008 -0.5445
 3833TIP3    H211457   1.773   2.403   1.325 -0.6599 -1.0071  0.0207
 3834TIP3   OH211458   7.697   7.139   1.296  0.0874  0.6143  0.3119
 3834TIP3    H111459   7.753   7.217   1.295 -0.8559  1.3053 -0.9139
 3834TIP3    H211460   7.639   7.150   1.221 -1.5693 -0.1713  1.4161
 3835TIP3   OH211461   0.636   5.236   3.790 -0.3535 -0.5836 -0.0763
 3835TIP3    H111462   0.656   5.143   3.780  1.8214 -0.6085  3.0812
 3835TIP3    H211463   0.550   5.239   3.831 -0.0419 -1.2549  0.6331
 3836TIP3   OH211464   7.390   5.653   3.208  0.0099  0.6899  0.0341
 3836TIP3    H111465   7.300   5.683   3.222 -1.7051 -2.3810 -2.8595
 3836TIP3    H211466   7.397   5.573   3.259  0.7813  0.4483 -0.4387
 3837TIP3   OH211467   4.006   6.779   3.196 -0.5006 -0.0909  0.0923
 3837TIP3    H111468   4.081   6.732   3.160 -0.5272 -0.4920  0.5531
 3837TIP3    H211469   3.954   6.712   3.240 -1.7833 -0.0487 -1.2590
 3838TIP3   OH211470   4.049   6.264   3.529 -0.1787 -0.0936  0.1907
 3838TIP3    H111471   4.053   6.332   3.596  1.4021  0.4865 -0.4620
 3838TIP3    H211472   4.084   6.186   3.572 -0.1358  0.0049  0.3361
 3839TIP3   OH211473   1.666   0.591   1.013  0.1385 -0.1209  0.0207
 3839TIP3    H111474   1.623   0.594   0.927  0.7778  0.6617 -0.2804
 3839TIP3    H211475   1.625   0.517   1.057 -0.0250 -0.6935 -1.0561
 3840TIP3   OH211476   6.593   4.402   2.028  0.3794  0.3507  0.2122
 3840TIP3    H111477   6.514   4.411   2.081 -0.0345  0.3534 -0.3919
 3840TIP3    H211478   6.657   4.361   2.087  0.0696  0.7488  0.8362
 3841TIP3   OH211479   1.272   4.868   5.011 -0.1483 -0.1987 -0.8396
 3841TIP3    H111480   1.276   4.907   4.923 -0.6526  1.9298  0.0299
 3841TIP3    H211481   1.326   4.926   5.065 -1.0166 -0.6464  0.5548
 3842TIP3   OH211482   3.599   1.708   3.774  0.3253  0.1118 -0.8208
 3842TIP3    H111483   3.650   1.736   3.850  0.6613 -2.0389 -0.1920
 3842TIP3    H211484   3.626   1.767   3.704  1.0775  1.2246  0.3712
 3843TIP3   OH211485   5.646   1.372   0.269  0.2318  0.2714 -0.1284
 3843TIP3    H111486   5.638   1.380   0.364 -0.0767 -1.3538  0.0092
 3843TIP3    H211487   5.697   1.448   0.243  2.6805 -0.6357  1.6794
 3844TIP3   OH211488   6.966   2.336   2.839 -0.0794  0.2365 -0.0225
 3844TIP3    H111489   6.937   2.279   2.910 -3.1355  2.3506  0.6400
 3844TIP3    H211490   6.919   2.304   2.761  0.9967 -0.3069 -0.4608
 3845TIP3   OH211491   1.720   7.817   5.233 -0.8215 -0.0263  0.1004
 3845TIP3    H111492   1.763   7.812   5.319 -1.0170 -0.5450  0.1720
 3845TIP3    H211493   1.640   7.767   5.243 -1.4316  0.8962 -0.0530
 3846TIP3   OH211494   4.071   5.039   0.451  0.0602  0.3861  0.0323
 3846TIP3    H111495   4.044   4.987   0.526  0.6732 -0.0132 -0.0161
 3846TIP3    H211496   4.124   4.979   0.398 -0.3401  0.6699 -0.6979
 3847TIP3   OH211497   5.523   7.088   6.516  0.2899  0.6454 -0.1020
 3847TIP3    H111498   5.473   7.166   6.540  0.0801  0.6037 -0.4000
 3847TIP3    H211499   5.493   7.020   6.576 -0.1210  0.5809 -0.3783
 3848TIP3   OH211500   0.620   2.912   0.156 -0.0036  0.0416 -0.2529
 3848TIP3    H111501   0.588   2.822   0.158  2.4856 -0.9289 -0.4399
 3848TIP3    H211502   0.607   2.944   0.245 -0.3254 -0.7249 -0.0198
 3849TIP3   OH211503   2.496   6.351   6.403  0.1178 -0.1192  0.3169
 3849TIP3    H111504   2.489   6.371   6.310 -0.5699 -1.0225  0.1523
 3849TIP3    H211505   2.445   6.419   6.447  0.8250  0.5772  0.0846
 3850TIP3   OH211506   7.602   2.113   0.764  0.2326 -0.2575  0.2241
 3850TIP3    H111507   7.538   2.052   0.729 -1.5435  2.3697 -1.4612
 3850TIP3    H211508   7.687   2.079   0.736 -0.8058 -1.0966 -2.0709
 3851TIP3   OH211509   3.448   0.644   4.342 -0.5190 -0.4932  0.6897
 3851TIP3    H111510   3.457   0.736   4.319 -0.2120 -0.2751  1.6686
 3851TIP3    H211511   3.502   0.598   4.278  0.8350  0.1564  1.3300
 3852TIP3   OH211512   1.211   0.552   0.239  0.6633  0.1636  0.1349
 3852TIP3    H111513   1.266   0.616   0.285 -1.2770  1.3071  0.9986
 3852TIP3    H211514   1.149   0.521   0.306 -0.7616  0.1507 -1.1291
 3853TIP3   OH211515   6.801   6.050   1.933  0.4708  0.0022  0.2586
 3853TIP3    H111516   6.726   5.991   1.928  1.3235 -1.1060  0.2071
 3853TIP3    H211517   6.771   6.124   1.986 -1.2289  0.4647 -1.2477
 3854TIP3   OH211518   7.254   2.629   3.014 -0.2446 -0.6414 -0.4128
 3854TIP3    H111519   7.253   2.534   3.020 -2.4618 -0.7061 -0.7180
 3854TIP3    H211520   7.170   2.651   2.973  0.0607  1.4528 -0.0298
 3855TIP3   OH211521   5.642   2.340   3.574  0.1763 -0.3387  0.2897
 3855TIP3    H111522   5.624   2.251   3.545  2.1941 -0.1908 -1.6675
 3855TIP3    H211523   5.556   2.375   3.598 -1.0962 -1.8756 -1.6704
 3856TIP3   OH211524   6.130   3.886   3.820  0.1693  0.6550  0.2837
 3856TIP3    H111525   6.063   3.821   3.842  1.7369 -0.9162  0.6622
 3856TIP3    H211526   6.095   3.932   3.744 -0.8503 -0.8880 -0.2275
 3857TIP3   OH211527   7.926   2.602   0.881  0.2101  0.0217  0.2395
 3857TIP3    H111528   7.883   2.535   0.829 -0.7044  1.2716 -0.6818
 3857TIP3    H211529   7.989   2.643   0.821 -0.1729  0.8474  0.3816
 3858TIP3   OH211530   3.960   2.974   2.099  0.4832 -0.0786  0.1311
 3858TIP3    H111531   4.018   2.969   2.023  0.6264 -1.3110  0.3022
 3858TIP3    H211532   3.919   2.888   2.103 -0.6162  0.4556  0.6040
 3859TIP3   OH211533   3.233   2.163   0.073 -0.4644 -0.1026  0.2105
 3859TIP3    H111534   3.157   2.220   0.090 -1.6172 -1.7947  1.0217
 3859TIP3    H211535   3.194   2.080   0.047  1.1586 -0.7957 -0.0593
 3860TIP3   OH211536   7.276   0.847   5.829 -0.0374  0.0734  0.4789
 3860TIP3    H111537   7.222   0.911   5.784 -1.9276 -1.0401  1.0688
 3860TIP3    H211538   7.304   0.891   5.909 -0.1176  0.6327  0.2045
 3861TIP3   OH211539   5.545   3.697   5.088  0.2791  0.6687 -0.6135
 3861TIP3    H111540   5.522   3.732   5.174 -1.6571  0.4353 -0.9854
 3861TIP3    H211541   5.613   3.756   5.055  0.4588  1.2399  0.7175
 3862TIP3   OH211542   7.553   2.887   3.966 -0.0978 -0.0065  0.9077
 3862TIP3    H111543   7.534   2.794   3.977  1.3880 -0.5907 -0.9627
 3862TIP3    H211544   7.480   2.932   4.009 -3.3321 -2.0077 -1.9897
 3863TIP3   OH211545   5.937   2.457   5.177 -0.4128 -0.2033  0.2588
 3863TIP3    H111546   5.958   2.411   5.258 -1.0577  2.0645  1.8163
 3863TIP3    H211547   6.021   2.470   5.134 -0.2487 -3.1751 -0.5343
 3864TIP3   OH211548   0.662   0.796   6.630 -0.1889 -0.8995  0.1660
 3864TIP3    H111549   0.725   0.830   6.566  0.0758 -0.6110  0.5823
 3864TIP3    H211550   0.674   0.701   6.627  1.1245 -0.7927  1.1161
 3865TIP3   OH211551   2.874   3.969   5.307 -0.1722 -0.4016  0.2019
 3865TIP3    H111552   2.943   3.943   5.368  0.1917  0.4534  0.1749
 3865TIP3    H211553   2.853   3.889   5.259  1.1545 -0.5848 -0.1245
 3866TIP3   OH211554   3.503   3.178   1.551 -0.1750 -0.4252 -0.0637
 3866TIP3    H111555   3.498   3.086   1.577 -1.4097 -0.1353  0.8351
 3866TIP3    H211556   3.450   3.224   1.616  1.2893  1.0822  0.1260
 3867TIP3   OH211557   6.101   2.418   1.094  0.1095  0.6414 -0.4391
 3867TIP3    H111558   6.187   2.417   1.051  0.3936  0.6617  0.1250
 3867TIP3    H211559   6.040   2.396   1.024  0.3969  2.1760 -1.2056
 3868TIP3   OH211560   8.057   7.141   5.525 -0.7484  0.3807  0.2068
 3868TIP3    H111561   8.054   7.218   5.468 -0.6853  0.2282 -0.0033
 3868TIP3    H211562   7.977   7.146   5.576 -0.0362  1.4305  1.2981
 3869TIP3   OH211563   5.106   7.528   2.555 -0.4104 -0.1848  0.5538
 3869TIP3    H111564   5.117   7.448   2.503 -0.0944  0.8096 -0.9562
 3869TIP3    H211565   5.011   7.540   2.560 -0.4443 -0.1857  0.0173
 3870TIP3   OH211566   6.994   3.308   3.196  0.5760  0.4055  0.6954
 3870TIP3    H111567   6.994   3.372   3.125  0.3203  0.9240  1.1564
 3870TIP3    H211568   7.056   3.343   3.260  1.9413 -0.8090  0.0758
 3871TIP3   OH211569   1.060   2.576   4.563 -0.3107  1.2434  0.1392
 3871TIP3    H111570   1.156   2.581   4.560 -0.1823 -0.4038  0.3676
 3871TIP3    H211571   1.042   2.482   4.569 -1.9348  1.5615  0.5563
 3872TIP3   OH211572   5.566   4.988   0.160  0.1733  0.3755 -0.3722
 3872TIP3    H111573   5.581   4.898   0.185  3.3828  1.3756  1.9080
 3872TIP3    H211574   5.545   5.033   0.241  0.1770  1.9476 -1.1961
 3873TIP3   OH211575   2.823   5.613   6.229  0.4721  0.4706  0.3832
 3873TIP3    H111576   2.825   5.669   6.152 -0.4826  0.9061  0.6627
 3873TIP3    H211577   2.864   5.531   6.200 -0.7883  0.2515 -0.8899
 3874TIP3   OH211578   5.737   4.662   1.378  0.2349 -0.4237  0.3776
 3874TIP3    H111579   5.664   4.670   1.317 -0.8558  1.5202  1.8143
 3874TIP3    H211580   5.799   4.729   1.351  0.8632 -1.1510 -0.0057
 3875TIP3   OH211581   1.389   3.880   1.821 -0.5167 -0.0732 -0.1757
 3875TIP3    H111582   1.383   3.862   1.727 -0.1217  2.1101 -0.6821
 3875TIP3    H211583   1.301   3.864   1.854 -0.7693 -0.4306 -0.9942
 3876TIP3   OH211584   1.719   5.441   3.880 -0.4597 -0.2335 -0.0995
 3876TIP3    H111585   1.648   5.385   3.911  0.0064  1.0266  3.9401
 3876TIP3    H211586   1.788   5.429   3.946  1.3412  1.8101 -1.4995
 3877TIP3   OH211587   7.523   7.046   0.636  0.2438 -0.2863 -0.3090
 3877TIP3    H111588   7.441   6.999   0.639  1.5832 -2.7053  0.6706
 3877TIP3    H211589   7.569   7.010   0.560  0.7481  0.4549 -0.3740
 3878TIP3   OH211590   0.683   1.809   2.387 -0.3872 -0.0381  0.9368
 3878TIP3    H111591   0.600   1.854   2.398 -0.8501 -0.2908 -1.0382
 3878TIP3    H211592   0.670   1.722   2.426 -1.6300 -0.6397 -0.6945
 3879TIP3   OH211593   5.405   6.288   4.867  0.0169 -0.1318 -0.1856
 3879TIP3    H111594   5.327   6.261   4.818 -1.1949  0.8155  1.1419
 3879TIP3    H211595   5.425   6.213   4.924 -1.1954  0.3462  0.9322
 3880TIP3   OH211596   2.671   7.211   1.569  0.3091  0.3455  0.1626
 3880TIP3    H111597   2.592   7.157   1.570  0.5774 -0.1067 -1.0507
 3880TIP3    H211598   2.737   7.156   1.612  0.1878  0.3344  0.3318
 3881TIP3   OH211599   5.259   6.725   6.008 -0.0607 -0.2032  0.1003
 3881TIP3    H111600   5.293   6.800   5.959  0.6267 -1.2204 -1.0335
 3881TIP3    H211601   5.236   6.661   5.941 -1.9775 -0.4896  0.9716
 3882TIP3   OH211602   8.183   4.269   1.713 -0.2903  0.1214  0.2412
 3882TIP3    H111603   8.102   4.276   1.764  0.0705 -1.8808  1.1824
 3882TIP3    H211604   8.155   4.281   1.622 -1.3239  1.3556  0.6995
 3883TIP3   OH211605   4.242   1.771   1.329  0.0145  0.0471  0.3979
 3883TIP3    H111606   4.257   1.826   1.405 -2.2897  1.3427  0.0121
 3883TIP3    H211607   4.304   1.804   1.263  0.4210  0.4671  0.9824
 3884TIP3   OH211608   1.706   6.762   6.464  0.1147 -0.3066  0.0177
 3884TIP3    H111609   1.743   6.674   6.470  1.1560  0.1857  1.6515
 3884TIP3    H211610   1.634   6.754   6.402  1.5673 -1.8021 -1.5666
 3885TIP3   OH211611   2.766   2.421   3.298 -0.0740 -0.1101 -0.5659
 3885TIP3    H111612   2.700   2.487   3.317 -0.7201 -0.5931 -1.0577
 3885TIP3    H211613   2.717   2.339   3.293  0.9006 -0.8538  1.3572
 3886TIP3   OH211614   5.419   2.228   5.922 -0.6092 -0.4760  0.1685
 3886TIP3    H111615   5.454   2.188   5.842 -1.2521 -2.6077  0.8844
 3886TIP3    H211616   5.326   2.242   5.904 -0.6444 -0.4639  0.3601
 3887TIP3   OH211617   2.717   0.066   5.252  0.2759 -0.1416 -0.1080
 3887TIP3    H111618   2.784   0.007   5.217  0.3308 -1.2601  1.7484
 3887TIP3    H211619   2.759   0.152   5.254  1.5009 -0.7433  0.6048
 3888TIP3   OH211620   7.515   1.792   5.119  0.4050 -0.5137  0.2639
 3888TIP3    H111621   7.596   1.831   5.151  0.0379  0.8971 -0.4284
 3888TIP3    H211622   7.503   1.713   5.171  1.9977 -0.5143  0.6594
 3889TIP3   OH211623   0.827   3.801   1.595 -0.4394 -0.5679 -0.2689
 3889TIP3    H111624   0.921   3.812   1.608 -0.4300 -0.3284 -0.5182
 3889TIP3    H211625   0.789   3.883   1.627 -0.7120 -1.2720  1.2854
 3890TIP3   OH211626   2.983   7.776   6.479  0.0996  0.1000  0.5513
 3890TIP3    H111627   3.044   7.763   6.407 -0.4946 -1.0515  0.2356
 3890TIP3    H211628   3.037   7.802   6.553  0.8139  0.4018 -0.0712
 3891TIP3   OH211629   3.776   0.965   5.647 -0.0805  0.8203 -0.4863
 3891TIP3    H111630   3.828   0.989   5.724 -0.8898  0.2408  0.2643
 3891TIP3    H211631   3.768   1.046   5.596  0.9793  1.0699 -0.2842
 3892TIP3   OH211632   4.412   1.874   4.890 -0.4291  0.0134 -0.0601
 3892TIP3    H111633   4.343   1.811   4.873 -0.3157  0.2047 -1.3359
 3892TIP3    H211634   4.366   1.957   4.902 -0.4687  0.0035 -0.1421
 3893TIP3   OH211635   0.431   1.771   6.693 -0.1707 -0.0971  0.6267
 3893TIP3    H111636   0.427   1.849   6.637 -0.8644  0.9100  2.0137
 3893TIP3    H211637   0.413   1.698   6.634 -1.9986  1.0159 -0.3003
 3894TIP3   OH211638   3.945   6.634   6.172  0.4625  0.1296  0.1030
 3894TIP3    H111639   3.911   6.709   6.123 -1.2222 -1.3172 -1.1247
 3894TIP3    H211640   3.954   6.666   6.262 -2.4022  1.2500  0.1250
 3895TIP3   OH211641   0.249   7.341   6.531  0.0873  0.2168 -0.4796
 3895TIP3    H111642   0.262   7.433   6.509  1.4142  0.3880  0.7853
 3895TIP3    H211643   0.329   7.298   6.501  1.1922  0.1809  2.1813
 3896TIP3   OH211644   1.459   2.573   1.560  0.1846 -0.2756 -0.4351
 3896TIP3    H111645   1.523   2.627   1.514  2.2669 -1.2937  1.0601
 3896TIP3    H211646   1.509   2.496   1.588 -2.3277 -2.3795 -1.3194
 3897TIP3   OH211647   7.716   3.895   1.644 -0.5759 -0.0568 -0.6250
 3897TIP3    H111648   7.787   3.840   1.677 -1.8695 -1.4577 -0.0705
 3897TIP3    H211649   7.700   3.957   1.715 -1.2699 -1.0737  0.1332
 3898TIP3   OH211650   7.590   0.290   2.964 -0.0505 -0.1590  0.1103
 3898TIP3    H111651   7.554   0.230   2.900  0.7856 -0.6208  0.0649
 3898TIP3    H211652   7.521   0.299   3.030 -1.9003  2.1005 -1.9099
 3899TIP3   OH211653   4.476   5.633   3.563  0.6474  0.2341  0.3468
 3899TIP3    H111654   4.443   5.544   3.562  0.7172  0.2040  0.6384
 3899TIP3    H211655   4.497   5.652   3.471  0.1576  0.1311  0.2112
 3900TIP3   OH211656   4.328   4.906   5.881 -1.2882  0.5430 -0.4132
 3900TIP3    H111657   4.254   4.877   5.934 -1.4176 -0.3738 -1.0714
 3900TIP3    H211658   4.378   4.963   5.938 -2.7105  1.4932 -0.0799
 3901TIP3   OH211659   4.594   3.374   0.495  0.3239  0.7389 -0.4649
 3901TIP3    H111660   4.649   3.416   0.428  1.3244  1.1007  0.5573
 3901TIP3    H211661   4.632   3.288   0.507  1.3944  1.3822  1.0350
 3902TIP3   OH211662   6.193   3.607   0.559 -0.2295 -0.4013  0.2398
 3902TIP3    H111663   6.156   3.549   0.492 -0.1960  1.7045 -1.7281
 3902TIP3    H211664   6.157   3.693   0.539  0.2061  0.4272  2.6613
 3903TIP3   OH211665   3.892   5.422   3.941  0.0654  0.5699 -0.0164
 3903TIP3    H111666   3.957   5.458   3.881  1.7973  1.1859  2.0975
 3903TIP3    H211667   3.825   5.490   3.948  0.2508  0.8181 -0.6358
 3904TIP3   OH211668   5.914   4.986   4.522  0.0286  0.7945  0.0260
 3904TIP3    H111669   5.886   5.076   4.506 -0.7200  0.5251 -0.1789
 3904TIP3    H211670   5.858   4.956   4.594 -1.0598 -0.1347 -1.1659
 3905TIP3   OH211671   5.827   5.677   2.136  0.0202  0.6215 -0.0726
 3905TIP3    H111672   5.843   5.585   2.114  1.7388  0.6173  1.0012
 3905TIP3    H211673   5.797   5.675   2.227 -2.7122  0.9557 -0.8906
 3906TIP3   OH211674   6.899   1.216   3.113 -0.3564 -0.0359 -0.1008
 3906TIP3    H111675   6.888   1.136   3.164 -1.0034  0.0882 -0.0449
 3906TIP3    H211676   6.880   1.190   3.023  0.4508 -0.1755 -0.2435
 3907TIP3   OH211677   1.091   1.816   5.167 -0.0828  0.5811  0.6249
 3907TIP3    H111678   1.117   1.904   5.140 -0.4937  0.7958  0.9286
 3907TIP3    H211679   1.159   1.759   5.129 -0.3057  0.9303 -0.3342
 3908TIP3   OH211680   0.273   1.352   1.923 -0.2284  0.2019  0.1990
 3908TIP3    H111681   0.338   1.384   1.860 -0.0356 -1.8529 -0.7015
 3908TIP3    H211682   0.312   1.369   2.008  0.7710  0.4547 -0.2914
 3909TIP3   OH211683   1.373   3.168   3.336 -0.0780 -0.1532 -0.0903
 3909TIP3    H111684   1.395   3.235   3.272 -0.6799  0.0180 -0.1195
 3909TIP3    H211685   1.286   3.137   3.310 -0.2876 -0.1451  0.5829
 3910TIP3   OH211686   1.827   2.356   2.561  0.5961  0.5028 -0.4136
 3910TIP3    H111687   1.775   2.433   2.538  0.6876 -0.4626 -4.4643
 3910TIP3    H211688   1.882   2.339   2.484  2.6307 -2.0262  1.3983
 3911TIP3   OH211689   2.651   1.946   6.136  0.0412  0.1264 -0.2514
 3911TIP3    H111690   2.700   1.883   6.189 -0.5089 -1.5172 -1.5989
 3911TIP3    H211691   2.708   1.964   6.061 -0.3693  0.1611 -0.5630
 3912TIP3   OH211692   0.152   7.633   4.202  0.1273  0.8585  0.2786
 3912TIP3    H111693   0.158   7.653   4.295  1.3383  0.9226  0.1957
 3912TIP3    H211694   0.192   7.708   4.158 -1.3711  1.3327 -0.3769
 3913TIP3   OH211695   2.669   1.050   6.689 -0.4870  0.3055  0.4010
 3913TIP3    H111696   2.764   1.052   6.674 -0.6672  0.1130 -0.9386
 3913TIP3    H211697   2.660   1.046   6.784  0.8613 -0.2114  0.5407
 3914TIP3   OH211698   1.760   5.396   5.311 -0.1216  0.1379  0.1044
 3914TIP3    H111699   1.711   5.359   5.237 -0.6097  1.5129 -0.2862
 3914TIP3    H211700   1.698   5.455   5.353  1.3140  2.4004 -0.7537
 3915TIP3   OH211701   7.151   6.126   2.623  0.0410 -0.0521 -0.2917
 3915TIP3    H111702   7.141   6.221   2.617  1.7554  0.1386 -0.6395
 3915TIP3    H211703   7.128   6.093   2.536 -0.5791  0.0375 -0.1630
 3916TIP3   OH211704   7.170   6.019   0.364 -1.1743  0.6266  0.3868
 3916TIP3    H111705   7.233   6.014   0.292 -1.2410 -1.3971  0.4047
 3916TIP3    H211706   7.216   5.980   0.438 -2.5533 -1.3681  0.2770
 3917TIP3   OH211707   3.610   4.616   2.826  0.5764  0.3175 -0.2079
 3917TIP3    H111708   3.587   4.627   2.918  2.6755  0.5435  0.3602
 3917TIP3    H211709   3.685   4.675   2.813 -0.1898  0.9235 -2.2955
 3918TIP3   OH211710   1.886   1.060   5.400  0.4538  0.3572  0.0164
 3918TIP3    H111711   1.810   1.046   5.456  0.8455 -1.1591  0.2314
 3918TIP3    H211712   1.859   1.129   5.340 -0.3301  1.3131  1.4103
 3919TIP3   OH211713   3.528   1.104   3.363 -0.2761 -0.2210  0.4432
 3919TIP3    H111714   3.441   1.128   3.331  0.6468  0.6047 -1.6195
 3919TIP3    H211715   3.539   1.012   3.336  0.6379  0.5683 -2.1838
 3920TIP3   OH211716   3.499   0.204   6.405 -0.0865 -0.9337  0.7116
 3920TIP3    H111717   3.525   0.120   6.444  2.5870 -0.9152 -0.8182
 3920TIP3    H211718   3.525   0.270   6.470  0.0345 -1.1566  0.8910
 3921TIP3   OH211719   1.941   6.306   5.145  0.0879  0.4583  0.3151
 3921TIP3    H111720   1.977   6.240   5.086 -1.7823 -0.0877 -0.3037
 3921TIP3    H211721   1.938   6.386   5.093  2.1955  1.0423  1.0106
 3922TIP3   OH211722   2.856   4.529   3.169  0.3492 -0.1509  0.0870
 3922TIP3    H111723   2.800   4.471   3.118  0.4017 -0.8901  0.8419
 3922TIP3    H211724   2.919   4.563   3.106 -1.2555  1.1531 -0.9121
 3923TIP3   OH211725   7.998   5.958   3.795  0.1473  0.4342 -1.0585
 3923TIP3    H111726   8.035   5.889   3.849 -2.3692 -0.6205 -0.5211
 3923TIP3    H211727   8.007   6.037   3.849 -0.1627 -0.1610 -0.1019
 3924TIP3   OH211728   5.286   4.085   3.740 -0.2534 -0.4373  0.4366
 3924TIP3    H111729   5.197   4.082   3.705 -0.4379 -0.2916  0.8800
 3924TIP3    H211730   5.274   4.114   3.831  0.2357 -0.5342  0.5316
 3925TIP3   OH211731   0.597   5.517   5.818 -0.1691 -0.1936  0.1565
 3925TIP3    H111732   0.673   5.560   5.855 -0.2691 -0.5391  0.7854
 3925TIP3    H211733   0.630   5.469   5.742  0.0121  0.6334 -0.3001
 3926TIP3   OH211734   7.881   0.662   6.729 -0.4451 -0.2674  0.4063
 3926TIP3    H111735   7.895   0.744   6.776 -2.5530  0.3173  0.1191
 3926TIP3    H211736   7.821   0.684   6.658  1.3570 -1.4765 -1.6168
 3927TIP3   OH211737   0.447   5.243   5.060  0.2279  0.2400  0.4659
 3927TIP3    H111738   0.447   5.289   4.976  1.2774  0.1594  0.4010
 3927TIP3    H211739   0.363   5.265   5.100 -0.8180 -0.6642 -1.1075
 3928TIP3   OH211740   0.382   0.863   0.203  0.2113  0.0798 -0.0240
 3928TIP3    H111741   0.348   0.869   0.114  2.3960 -0.9956 -0.9997
 3928TIP3    H211742   0.395   0.954   0.230 -1.1067  0.4350 -0.5089
 3929TIP3   OH211743   1.318   6.627   6.014  0.9818 -0.1511 -0.1890
 3929TIP3    H111744   1.411   6.649   6.011  1.2120 -0.9032  0.7208
 3929TIP3    H211745   1.297   6.601   5.925  1.4328  0.8092 -0.5877
 3930TIP3   OH211746   0.832   3.641   4.933  0.0327  0.5753 -0.4875
 3930TIP3    H111747   0.910   3.684   4.968  0.8825  0.6663 -2.3732
 3930TIP3    H211748   0.858   3.550   4.920 -1.0375 -0.0337  1.3118
 3931TIP3   OH211749   1.180   4.808   6.133  0.3439 -0.4465 -0.6026
 3931TIP3    H111750   1.226   4.870   6.190 -1.2101  0.3204 -0.1480
 3931TIP3    H211751   1.125   4.757   6.192 -0.5831 -0.2731 -1.2961
 3932TIP3   OH211752   5.092   5.432   0.234  0.5669  0.3163 -0.3250
 3932TIP3    H111753   5.136   5.467   0.311  0.2936 -0.0475 -0.0025
 3932TIP3    H211754   5.003   5.468   0.239  0.3243 -0.3182 -0.0638
 3933TIP3   OH211755   0.752   3.394   1.196 -0.2199  0.4204 -0.2253
 3933TIP3    H111756   0.802   3.443   1.262  1.7569  0.2350 -1.4858
 3933TIP3    H211757   0.728   3.460   1.131 -1.5322  0.4708  0.2770
 3934TIP3   OH211758   0.821   5.848   5.559 -0.2301 -0.3821 -0.5055
 3934TIP3    H111759   0.801   5.881   5.471 -0.5288 -0.3330 -0.4207
 3934TIP3    H211760   0.842   5.756   5.546 -0.5100 -0.4335 -0.6008
 3935TIP3   OH211761   1.532   3.671   6.442 -0.3169 -0.0073  0.2535
 3935TIP3    H111762   1.626   3.689   6.432 -0.2543 -0.1100  0.6419
 3935TIP3    H211763   1.506   3.723   6.518 -0.4589 -0.3989  0.4729
 3936TIP3   OH211764   6.866   7.070   6.238 -0.1570 -0.0021 -0.1059
 3936TIP3    H111765   6.945   7.108   6.278 -0.1868 -0.1464  0.0903
 3936TIP3    H211766   6.801   7.072   6.308 -0.0341 -0.8162  0.0400
 3937TIP3   OH211767   6.238   2.075   6.567 -0.4117  0.0015 -0.5464
 3937TIP3    H111768   6.234   2.042   6.656  1.0568 -1.7348 -1.0641
 3937TIP3    H211769   6.261   2.168   6.577  1.4627 -0.5484  0.8753
 3938TIP3   OH211770   4.080   2.020   2.813 -0.6626 -0.2105  0.0635
 3938TIP3    H111771   4.155   2.032   2.755 -0.6521 -2.0477 -0.3599
 3938TIP3    H211772   4.005   2.052   2.762 -0.2081  1.6774  0.5066
 3939TIP3   OH211773   3.035   5.257   0.668 -0.1538 -0.3675  0.3774
 3939TIP3    H111774   3.057   5.256   0.761  0.7680  1.6009  0.2156
 3939TIP3    H211775   2.947   5.295   0.665 -0.8903 -1.9977  0.5364
 3940TIP3   OH211776   7.623   7.623   4.737  0.0842 -0.3992  0.5188
 3940TIP3    H111777   7.655   7.711   4.759  0.0390  0.3918 -2.1767
 3940TIP3    H211778   7.528   7.634   4.729 -0.1505 -1.1688  1.9364
 3941TIP3   OH211779   0.901   7.288   6.675 -0.4261  0.7491 -0.0457
 3941TIP3    H111780   0.841   7.274   6.602 -0.9407  0.5036  0.4175
 3941TIP3    H211781   0.958   7.211   6.673 -0.4746  0.7142 -0.1516
 3942TIP3   OH211782   2.268   5.770   0.702 -0.2777 -0.6405 -0.3305
 3942TIP3    H111783   2.219   5.751   0.782 -0.2806  0.3873 -0.0783
 3942TIP3    H211784   2.352   5.725   0.714  0.3207  0.7148  0.9395
 3943TIP3   OH211785   0.475   5.630   0.489  0.0260  0.9411 -0.0837
 3943TIP3    H111786   0.399   5.644   0.545 -0.4638  0.0447 -0.5191
 3943TIP3    H211787   0.455   5.551   0.439  1.5593  0.2417  0.3361
 3944TIP3   OH211788   1.813   4.493   0.164 -0.2998  0.3019  0.3458
 3944TIP3    H111789   1.749   4.553   0.203 -1.7722 -0.3799 -0.8897
 3944TIP3    H211790   1.802   4.411   0.211  0.1905  0.3794  0.6031
 3945TIP3   OH211791   6.422   5.295   1.977  0.2038  0.1491 -0.4669
 3945TIP3    H111792   6.344   5.337   2.014 -1.0223 -1.1992 -1.4044
 3945TIP3    H211793   6.494   5.325   2.032 -1.1961  0.1997  1.4373
 3946TIP3   OH211794   3.184   4.480   2.784 -0.3907 -0.2980 -0.1808
 3946TIP3    H111795   3.142   4.453   2.702  1.3733  0.3822 -1.3578
 3946TIP3    H211796   3.207   4.572   2.769 -0.3249 -0.0660  1.2187
 3947TIP3   OH211797   4.647   4.708   3.416  0.1614 -0.0219 -0.3428
 3947TIP3    H111798   4.680   4.619   3.408  1.7488  0.4550  0.5064
 3947TIP3    H211799   4.564   4.707   3.368 -0.9406 -2.4894  1.3743
 3948TIP3   OH211800   2.076   4.745   6.173 -0.4991 -0.3954  0.5855
 3948TIP3    H111801   2.124   4.741   6.091  0.1256  0.0988  0.9181
 3948TIP3    H211802   2.043   4.835   6.178  1.1294  0.1739  1.7813
 3949TIP3   OH211803   7.693   7.056   1.621 -0.0105 -0.1431 -0.1402
 3949TIP3    H111804   7.769   7.113   1.612 -0.3398  0.1550 -1.1533
 3949TIP3    H211805   7.619   7.110   1.594 -0.6326 -0.3366  1.1253
 3950TIP3   OH211806   2.301   0.024   1.817  0.0858  0.2443 -0.3370
 3950TIP3    H111807   2.300  -0.066   1.850 -0.4128 -0.1198 -1.2876
 3950TIP3    H211808   2.209   0.048   1.809  0.2188  0.8422 -0.0881
 3951TIP3   OH211809   0.654   0.990   5.345 -0.0236  0.3570 -0.1486
 3951TIP3    H111810   0.653   1.066   5.403 -0.5338  2.5792 -2.8514
 3951TIP3    H211811   0.567   0.991   5.304  0.0287 -1.6388 -0.3810
 3952TIP3   OH211812   0.627   4.052   6.619  0.2901  0.6557 -0.7103
 3952TIP3    H111813   0.584   3.967   6.624  0.4331  0.4958 -1.9241
 3952TIP3    H211814   0.650   4.062   6.527  0.2858  2.0091 -0.5871
 3953TIP3   OH211815   1.956   5.712   0.758 -0.0139  0.0093  0.3016
 3953TIP3    H111816   1.904   5.792   0.753 -2.2051 -1.3137  0.6123
 3953TIP3    H211817   2.003   5.718   0.841 -2.2062 -0.1249  1.6317
 3954TIP3   OH211818   5.860   6.189   4.612  0.1610  0.3891  0.4316
 3954TIP3    H111819   5.945   6.218   4.644 -1.1082  1.8780  2.6827
 3954TIP3    H211820   5.830   6.261   4.556 -0.4577  0.8062  1.2799
 3955TIP3   OH211821   4.088   2.612   0.236  0.5136  0.0535  0.0090
 3955TIP3    H111822   4.123   2.545   0.295 -0.8498 -0.1376  0.6427
 3955TIP3    H211823   4.113   2.582   0.149 -0.7601 -1.7645  0.1990
 3956TIP3   OH211824   2.777   6.482   5.999 -0.0261 -0.1029  0.1970
 3956TIP3    H111825   2.728   6.415   6.045 -1.9579  0.1284 -1.3661
 3956TIP3    H211826   2.761   6.562   6.049 -0.2773 -0.2523  0.3554
 3957TIP3   OH211827   7.450   1.891   0.726  0.9524 -0.0335  0.7333
 3957TIP3    H111828   7.388   1.843   0.782 -1.1309  1.9457  0.2483
 3957TIP3    H211829   7.495   1.822   0.676 -1.1940 -1.5599  0.7714
 3958TIP3   OH211830   2.291   4.295   0.620 -0.5963  0.0892  0.3110
 3958TIP3    H111831   2.220   4.354   0.648 -1.0170 -1.2492  2.1937
 3958TIP3    H211832   2.276   4.215   0.669 -0.2601 -1.7775 -2.4441
 3959TIP3   OH211833   4.517   0.891   0.481  0.3019 -0.0265  0.2467
 3959TIP3    H111834   4.603   0.916   0.516  1.1696 -1.2227 -0.9256
 3959TIP3    H211835   4.528   0.895   0.386 -0.8309 -0.5739  0.0749
 3960TIP3   OH211836   6.144   2.644   3.411 -0.2066  0.1581 -0.0953
 3960TIP3    H111837   6.237   2.629   3.395 -0.3920 -0.8329 -0.3488
 3960TIP3    H211838   6.139   2.731   3.450  0.8744  0.0049  0.4152
 3961TIP3   OH211839   0.891   7.351   4.866  0.2933 -0.1491  0.0997
 3961TIP3    H111840   0.892   7.346   4.770 -1.2438  2.2998 -0.1337
 3961TIP3    H211841   0.805   7.317   4.891 -0.3560  1.6230  0.3636
 3962TIP3   OH211842   3.420   3.047   0.977  0.1757  0.1112 -0.4205
 3962TIP3    H111843   3.503   3.011   0.947  0.9063  0.3344  1.2610
 3962TIP3    H211844   3.375   2.973   1.018 -0.3217  0.0787 -0.9991
 3963TIP3   OH211845   0.830   5.430   3.837  0.2654 -0.6792  0.2839
 3963TIP3    H111846   0.912   5.385   3.854  0.1428 -1.0842 -0.1874
 3963TIP3    H211847   0.763   5.361   3.840 -0.0009 -0.4291  0.1988
 3964TIP3   OH211848   6.973   1.334   5.754 -0.2446 -0.0349 -0.1032
 3964TIP3    H111849   7.012   1.386   5.825  0.3819 -0.1607 -0.3456
 3964TIP3    H211850   6.908   1.392   5.715  1.2850  1.0415 -1.1550
 3965TIP3   OH211851   1.933   0.967   6.242  0.5685  0.0454 -0.3491
 3965TIP3    H111852   1.931   0.990   6.335  1.4116  1.3563 -0.6235
 3965TIP3    H211853   1.864   0.901   6.232 -2.7494  3.0567  0.3773
 3966TIP3   OH211854   5.119   3.689   0.249 -0.0207 -0.2777  0.0243
 3966TIP3    H111855   5.166   3.628   0.305  0.4403 -0.4008 -0.4837
 3966TIP3    H211856   5.087   3.635   0.177  1.3085  0.2352 -0.9931
 3967TIP3   OH211857   6.529   1.547   2.649 -0.4882 -0.2823  0.0043
 3967TIP3    H111858   6.613   1.502   2.652  0.3181  0.7811 -3.1272
 3967TIP3    H211859   6.549   1.638   2.670 -1.2683 -0.3887  1.3436
 3968TIP3   OH211860   0.019   1.527   1.526  0.1243  0.7799 -0.0675
 3968TIP3    H111861   0.095   1.504   1.473 -0.8889  2.8475 -2.6145
 3968TIP3    H211862   0.054   1.585   1.594  1.0518  0.3572 -0.1730
 3969TIP3   OH211863   1.782   7.334   4.547  0.5590  0.1777 -0.2785
 3969TIP3    H111864   1.835   7.262   4.513  1.5352  0.7427  0.0115
 3969TIP3    H211865   1.829   7.363   4.625 -0.2080  0.6690  0.0136
 3970TIP3   OH211866   6.969   2.218   3.257 -0.2726  0.2068  0.3913
 3970TIP3    H111867   6.946   2.180   3.172 -0.6565 -1.3708  1.1742
 3970TIP3    H211868   6.959   2.146   3.320  0.8437  1.1013  1.6635
 3971TIP3   OH211869   0.485   1.071   2.944  0.2486  0.0348  0.3603
 3971TIP3    H111870   0.550   1.001   2.937  1.5553  1.0800  1.4401
 3971TIP3    H211871   0.413   1.032   2.994 -0.1484 -1.2333 -1.1175
 3972TIP3   OH211872   5.495   2.309   0.144  0.3103 -0.4981 -0.4006
 3972TIP3    H111873   5.414   2.288   0.190 -0.0726  0.0834 -0.7974
 3972TIP3    H211874   5.501   2.243   0.074  0.1091 -0.4605 -0.4532
 3973TIP3   OH211875   2.866   7.598   4.746  0.1146 -0.0106 -0.1849
 3973TIP3    H111876   2.827   7.683   4.724  1.3742  0.4210 -0.8523
 3973TIP3    H211877   2.865   7.596   4.842 -2.2403 -0.3835 -0.1487
 3974TIP3   OH211878   4.539   1.973   0.190 -0.2705 -0.5872  0.0435
 3974TIP3    H111879   4.502   2.029   0.122 -1.7784  0.1102  1.3781
 3974TIP3    H211880   4.610   1.925   0.146 -0.2222  0.9139 -1.6166
 3975TIP3   OH211881   7.485   2.977   5.728 -0.0599 -0.0650 -0.1374
 3975TIP3    H111882   7.440   3.006   5.649  1.0592  0.9472 -0.4232
 3975TIP3    H211883   7.578   2.989   5.709  0.3920 -2.2938  0.3517
 3976TIP3   OH211884   3.613   5.602   3.398  0.4729  0.6471  0.2630
 3976TIP3    H111885   3.614   5.507   3.390  0.9236  0.5210  1.5134
 3976TIP3    H211886   3.681   5.621   3.463  1.9515  2.0045 -1.5735
 3977TIP3   OH211887   5.519   3.051   3.152 -0.6896 -0.2674 -0.0479
 3977TIP3    H111888   5.590   3.006   3.198 -0.5874  0.3546  0.4221
 3977TIP3    H211889   5.451   2.985   3.141 -0.2961 -0.6957  0.0742
 3978TIP3   OH211890   6.308   5.625   5.172  0.3930 -0.4873 -0.2949
 3978TIP3    H111891   6.306   5.606   5.078 -0.7368 -1.5669 -0.0849
 3978TIP3    H211892   6.300   5.539   5.214 -1.6518  0.1520  0.7443
 3979TIP3   OH211893   8.280   6.622   4.932  0.0229  0.4215  0.0364
 3979TIP3    H111894   8.229   6.555   4.886  1.1717 -0.2675 -0.2764
 3979TIP3    H211895   8.215   6.685   4.961 -1.0336 -0.5169 -0.1921
 3980TIP3   OH211896   7.385   3.012   2.247  0.1237  0.0708  0.3539
 3980TIP3    H111897   7.391   3.107   2.250  0.5222  0.0183  1.7076
 3980TIP3    H211898   7.298   2.992   2.281 -1.4535  0.0426 -3.1772
 3981TIP3   OH211899   4.916   4.966   4.899 -0.0052 -0.6462  0.1115
 3981TIP3    H111900   4.991   4.941   4.953 -0.9400 -0.9237  1.3281
 3981TIP3    H211901   4.843   4.968   4.960 -0.9318 -0.0406 -0.9861
 3982TIP3   OH211902   4.763   0.022   1.179 -0.6808 -0.0338 -0.2506
 3982TIP3    H111903   4.841  -0.027   1.154 -0.5168  0.7242 -1.2608
 3982TIP3    H211904   4.773   0.107   1.137 -1.4341  0.5299  0.6712
 3983TIP3   OH211905   4.826   1.792   0.162 -0.3174  0.0864  0.5922
 3983TIP3    H111906   4.775   1.821   0.086  0.5998 -0.3987 -0.2338
 3983TIP3    H211907   4.845   1.700   0.145  0.5633  0.1741  1.0321
 3984TIP3   OH211908   4.858   3.170   6.058  0.2523 -0.1199  0.1157
 3984TIP3    H111909   4.921   3.241   6.068  0.6468 -0.4151 -0.1942
 3984TIP3    H211910   4.787   3.208   6.006 -0.0020  0.3193  0.7811
 3985TIP3   OH211911   4.982   4.266   1.367 -0.4035 -0.6937 -0.0277
 3985TIP3    H111912   5.017   4.176   1.364 -0.7545 -0.8473 -2.7669
 3985TIP3    H211913   4.934   4.275   1.285 -1.2885  1.6816  0.6729
 3986TIP3   OH211914   0.463   7.418   0.151 -0.7590 -0.0604 -0.0645
 3986TIP3    H111915   0.531   7.443   0.215 -1.0832  0.1235  0.2131
 3986TIP3    H211916   0.507   7.424   0.066 -0.4694  0.2062  0.1010
 3987TIP3   OH211917   3.744   4.648   4.144 -0.2715  0.2066  0.3609
 3987TIP3    H111918   3.721   4.741   4.138  0.5010  0.4427  0.9108
 3987TIP3    H211919   3.773   4.625   4.055 -0.2832  0.5452  0.2683
 3988TIP3   OH211920   6.658   0.209   4.392 -0.0652 -0.2123  0.0271
 3988TIP3    H111921   6.692   0.120   4.399 -1.0742 -0.6272 -0.0946
 3988TIP3    H211922   6.563   0.198   4.400 -0.2291  0.8099 -0.4024
 3989TIP3   OH211923   5.329   1.134   6.387  0.3052  0.2038  0.4291
 3989TIP3    H111924   5.240   1.102   6.404  0.8565 -1.2888  0.6870
 3989TIP3    H211925   5.318   1.208   6.328 -1.3166  1.8729  2.6407
 3990TIP3   OH211926   0.701   7.738   0.015  0.0820  0.1972  0.0738
 3990TIP3    H111927   0.611   7.729   0.048  0.2529  0.3695  0.6035
 3990TIP3    H211928   0.732   7.649   0.004  1.2606 -0.0207  3.8488
 3991TIP3   OH211929   0.696   0.334   6.407  0.3132  0.2207  0.0229
 3991TIP3    H111930   0.630   0.273   6.439  1.6078 -2.0016 -1.2798
 3991TIP3    H211931   0.698   0.319   6.312  4.2095 -1.6091  0.1965
 3992TIP3   OH211932   5.285   5.827   0.233  0.1041 -0.1136 -0.0603
 3992TIP3    H111933   5.360   5.826   0.292  2.1550 -0.0197 -2.5152
 3992TIP3    H211934   5.209   5.828   0.291  1.9181  3.2694  2.6248
 3993TIP3   OH211935   0.390   5.352   6.371  0.1920 -0.3292  0.0723
 3993TIP3    H111936   0.421   5.351   6.461  0.4505 -2.4229  0.0106
 3993TIP3    H211937   0.304   5.309   6.375  0.1494 -0.3236 -0.6605
 3994TIP3   OH211938   0.624   1.004   0.811  0.2041 -0.2874 -0.0904
 3994TIP3    H111939   0.717   1.028   0.804  0.1065 -0.0212 -0.5149
 3994TIP3    H211940   0.577   1.085   0.791 -0.1313 -0.8282 -1.5932
 3995TIP3   OH211941   6.718   2.690   0.814  0.7796 -0.7060 -0.5811
 3995TIP3    H111942   6.624   2.672   0.822  0.6489  0.3668  0.6065
 3995TIP3    H211943   6.723   2.759   0.747  0.4873  0.7486  0.8319
 3996TIP3   OH211944   1.307   0.534   3.195 -0.2928 -0.4715 -0.6526
 3996TIP3    H111945   1.376   0.512   3.132 -0.4995 -0.7835 -0.7713
 3996TIP3    H211946   1.319   0.628   3.212 -0.3389 -0.3511 -1.2779
 3997TIP3   OH211947   3.152   1.648   5.353 -0.0942 -0.2036  0.2923
 3997TIP3    H111948   3.126   1.565   5.314 -0.6038 -0.7632  1.7716
 3997TIP3    H211949   3.239   1.666   5.315  0.9476 -2.4366  1.4322
 3998TIP3   OH211950   2.139   0.471   5.738 -0.1383  0.0246 -0.2533
 3998TIP3    H111951   2.232   0.479   5.758  0.2559  0.1664 -2.0030
 3998TIP3    H211952   2.126   0.377   5.722  0.0376  0.1817 -1.4093
 3999TIP3   OH211953   5.577   1.023   3.930 -0.3327  0.0728  0.2149
 3999TIP3    H111954   5.669   1.018   3.905 -0.9072 -0.1662 -2.1309
 3999TIP3    H211955   5.530   1.026   3.846 -2.4951 -0.4934  1.3388
 4000TIP3   OH211956   8.082   7.154   6.088 -0.1175  0.4768 -0.1789
 4000TIP3    H111957   8.085   7.207   6.008 -0.6833 -0.8900 -1.1345
 4000TIP3    H211958   8.170   7.117   6.096  0.3576  1.6924  0.6308
 4001TIP3   OH211959   7.270   2.972   3.594 -0.5865  0.0707 -0.1851
 4001TIP3    H111960   7.230   3.058   3.585 -1.5198 -0.5166 -2.2287
 4001TIP3    H211961   7.219   2.928   3.662 -0.7089  0.7862  0.1899
 4002TIP3   OH211962   0.873   7.468   4.022 -0.6976  0.0152 -0.4804
 4002TIP3    H111963   0.870   7.429   4.110  0.0568  0.7296 -0.1255
 4002TIP3    H211964   0.902   7.396   3.965  0.2681 -0.0827  0.1015
 4003TIP3   OH211965   2.888   3.752   0.076 -0.1962  0.5255 -0.1588
 4003TIP3    H111966   2.859   3.769  -0.013  0.0329 -0.0597 -0.3499
 4003TIP3    H211967   2.951   3.822   0.095  0.7778 -0.1119 -0.9514
 4004TIP3   OH211968   1.312   2.463   2.227 -0.2080 -0.1291  0.7535
 4004TIP3    H111969   1.234   2.515   2.209  0.5908  0.5751 -0.9355
 4004TIP3    H211970   1.343   2.494   2.311 -0.7598  0.8589  0.6025
 4005TIP3   OH211971   2.510   0.540   4.908  0.4594  0.4333  0.5837
 4005TIP3    H111972   2.595   0.574   4.882 -0.3860  1.6161 -0.7540
 4005TIP3    H211973   2.524   0.445   4.918  1.8922  0.5952  0.3603
 4006TIP3   OH211974   7.683   0.495   5.708  0.2409 -0.2070  0.3824
 4006TIP3    H111975   7.648   0.417   5.749 -0.3663  0.4517  1.1520
 4006TIP3    H211976   7.623   0.514   5.636  0.4337 -0.4844  0.1454
 4007TIP3   OH211977   0.732   4.012   5.788  0.2211  0.0326  0.7621
 4007TIP3    H111978   0.708   3.964   5.867 -1.6561  0.1607  0.3088
 4007TIP3    H211979   0.681   4.092   5.792  0.1887  0.0989 -0.5172
 4008TIP3   OH211980   8.021   7.516   4.491 -0.0057  0.1746  0.5254
 4008TIP3    H111981   7.961   7.448   4.522 -2.2744  1.8880  0.1335
 4008TIP3    H211982   8.032   7.498   4.398  1.9326 -1.3875  0.9718
 4009TIP3   OH211983   5.305   6.219   6.384  0.1635 -0.2524 -0.3300
 4009TIP3    H111984   5.248   6.216   6.307  0.0416  1.6151 -0.3591
 4009TIP3    H211985   5.247   6.200   6.457  0.1735 -1.5040 -0.6222
 4010TIP3   OH211986   0.188   1.834   0.335  0.4700  0.4877  0.4645
 4010TIP3    H111987   0.271   1.821   0.289  0.0733  0.2142 -0.1915
 4010TIP3    H211988   0.128   1.864   0.267  0.1034  0.9631  0.9954
 4011TIP3   OH211989   7.780   5.691   0.308 -0.3649  0.3834 -0.9448
 4011TIP3    H111990   7.746   5.780   0.308  0.1498  0.5879 -1.4891
 4011TIP3    H211991   7.754   5.655   0.223 -0.9157 -0.1290 -0.5709
 4012TIP3   OH211992   3.415   1.719   6.600  0.1278  0.7537 -0.6199
 4012TIP3    H111993   3.485   1.754   6.656  1.4603  1.2728 -2.4996
 4012TIP3    H211994   3.442   1.629   6.581 -0.7603  0.2915  0.2211
 4013TIP3   OH211995   5.051   5.657   1.591 -0.1804  0.0261 -0.1072
 4013TIP3    H111996   5.142   5.627   1.582  0.3056  1.7369 -1.4657
 4013TIP3    H211997   5.058   5.753   1.593 -2.0289  0.2311 -1.3535
 4014TIP3   OH211998   6.133   7.761   5.156  0.2794 -0.4028  0.1529
 4014TIP3    H111999   6.054   7.711   5.172  0.4181 -0.5015  0.5435
 4014TIP3    H212000   6.161   7.790   5.243  1.4817 -1.6018  0.1975
 4015TIP3   OH212001   4.334   4.654   1.936 -0.4044 -0.0405 -0.0859
 4015TIP3    H112002   4.265   4.598   1.901  0.0516 -0.0555 -1.0012
 4015TIP3    H212003   4.324   4.649   2.031 -1.8711  0.2264 -0.2055
 4016TIP3   OH212004   8.065   1.200   2.126 -0.2451  0.1089  0.2586
 4016TIP3    H112005   8.092   1.154   2.205  3.6732  0.5779 -0.6227
 4016TIP3    H212006   8.051   1.132   2.061  2.3880 -0.1164 -0.1643
 4017TIP3   OH212007   2.596   6.003   2.987 -0.0220 -0.3658 -0.2084
 4017TIP3    H112008   2.623   6.093   2.967  1.5132  0.1300  3.2643
 4017TIP3    H212009   2.676   5.952   2.978 -0.6391 -1.2048 -1.0898
 4018TIP3   OH212010   5.286   1.987   2.708 -0.7622 -0.0314 -0.2469
 4018TIP3    H112011   5.231   2.045   2.760  0.2902  0.8354 -0.0649
 4018TIP3    H212012   5.257   2.002   2.618  0.6850  2.2098 -0.4219
 4019TIP3   OH212013   5.969   3.065   6.489 -0.1712  0.3420 -0.4315
 4019TIP3    H112014   5.896   3.058   6.426  0.8940 -1.1665 -1.5735
 4019TIP3    H212015   5.932   3.115   6.562 -1.8419  1.0917 -1.7017
 4020TIP3   OH212016   2.174   0.122   1.219 -0.0469  0.3304  0.1893
 4020TIP3    H112017   2.084   0.088   1.224 -0.4781  1.4286  0.1276
 4020TIP3    H212018   2.216   0.090   1.300 -1.2318  1.8327  1.4633
 4021TIP3   OH212019   3.750   3.130   0.312 -0.5036 -0.0055  0.1254
 4021TIP3    H112020   3.717   3.055   0.263 -0.1447 -1.0556  1.4344
 4021TIP3    H212021   3.845   3.123   0.309 -0.3940  1.4377 -1.2506
 4022TIP3   OH212022   6.321   5.269   4.291 -0.1963 -0.1718 -0.5456
 4022TIP3    H112023   6.375   5.235   4.362 -0.5986  0.8317  0.2672
 4022TIP3    H212024   6.248   5.207   4.285  0.1913 -0.6350 -0.5595
 4023TIP3   OH212025   0.462   7.523   1.824  0.6040  0.4420 -0.1791
 4023TIP3    H112026   0.554   7.531   1.849  0.7350  2.2390 -1.1013
 4023TIP3    H212027   0.432   7.613   1.811 -1.6009 -0.0149  1.1322
 4024TIP3   OH212028   3.019   5.790   5.365 -0.5576 -0.1396 -0.1192
 4024TIP3    H112029   2.981   5.834   5.440 -0.6811 -0.2613 -0.1092
 4024TIP3    H212030   3.092   5.740   5.401 -3.4032 -4.1120  0.8471
 4025TIP3   OH212031   2.130   7.341   6.464 -0.3607 -0.5045  0.0061
 4025TIP3    H112032   2.171   7.284   6.399  0.8466 -0.0364  0.3223
 4025TIP3    H212033   2.187   7.335   6.540 -0.6046  0.5570  0.2929
 4026TIP3   OH212034   2.554   5.848   0.501  0.1318 -0.3021  0.1420
 4026TIP3    H112035   2.608   5.926   0.513  0.5047 -0.3052 -1.3051
 4026TIP3    H212036   2.614   5.775   0.520  0.1531 -0.2618  0.2284
 4027TIP3   OH212037   2.372   3.249   4.012  0.3396 -0.3385 -0.0426
 4027TIP3    H112038   2.412   3.234   3.926  0.4442 -0.6121  0.0543
 4027TIP3    H212039   2.369   3.163   4.053 -0.1243 -0.2822  0.0504
 4028TIP3   OH212040   6.091   0.437   2.288  0.6173 -0.2782 -0.0539
 4028TIP3    H112041   6.169   0.491   2.273  0.2640  0.4285  0.6071
 4028TIP3    H212042   6.062   0.413   2.199  0.8444  0.5350 -0.3607
 4029TIP3   OH212043   3.117   6.690   1.177  0.1385  0.2703  0.2634
 4029TIP3    H112044   3.163   6.608   1.197  0.9838  1.1086  2.0371
 4029TIP3    H212045   3.030   6.663   1.149  0.7268 -1.2643 -0.1824
 4030TIP3   OH212046   3.611   2.296   6.316 -0.1221 -0.3063 -0.4415
 4030TIP3    H112047   3.615   2.327   6.406  0.0189  0.6853 -0.7693
 4030TIP3    H212048   3.531   2.243   6.311 -1.2342  1.2846 -0.2208
 4031TIP3   OH212049   6.341   4.497   5.028  0.3258  0.6634  0.7221
 4031TIP3    H112050   6.354   4.406   5.003 -0.0067  0.3751  1.5709
 4031TIP3    H212051   6.424   4.524   5.066  0.2736  0.5617  0.9109
 4032TIP3   OH212052   2.535   2.283   2.358 -0.0734  0.1833  0.5463
 4032TIP3    H112053   2.572   2.196   2.374  1.2228  0.4122 -0.9887
 4032TIP3    H212054   2.469   2.270   2.291  1.2719  0.5558 -0.9232
 4033TIP3   OH212055   3.707   4.521   1.746  0.1323  0.0114  0.1709
 4033TIP3    H112056   3.694   4.529   1.652  0.3771 -0.5035  0.0899
 4033TIP3    H212057   3.631   4.473   1.777 -0.8961  1.7627  0.5288
 4034TIP3   OH212058   4.003   4.033   5.859 -0.6948  0.0529  0.7190
 4034TIP3    H112059   4.004   4.090   5.936 -1.9938  0.7321  0.2728
 4034TIP3    H212060   3.911   4.032   5.831 -0.3353 -0.5644 -0.5329
 4035TIP3   OH212061   1.174   5.268   2.239 -0.0329  0.2195 -0.1180
 4035TIP3    H112062   1.202   5.220   2.161  0.8408 -0.0470  0.3392
 4035TIP3    H212063   1.256   5.285   2.287 -0.6637 -0.8505  1.4269
 4036TIP3   OH212064   8.122   1.087   0.550  0.2404 -0.0059  0.5967
 4036TIP3    H112065   8.140   1.180   0.538 -1.1613  0.3069  0.7428
 4036TIP3    H212066   8.172   1.044   0.481 -1.4982  1.1250 -1.4962
 4037TIP3   OH212067   3.136   3.574   2.145 -0.4068 -0.3574 -0.0985
 4037TIP3    H112068   3.174   3.660   2.165  2.8270 -1.6490  0.0350
 4037TIP3    H212069   3.042   3.590   2.137 -0.1349  2.8861  1.4670
 4038TIP3   OH212070   7.232   3.795   5.134 -0.7202 -0.5552  0.5302
 4038TIP3    H112071   7.196   3.707   5.141  0.3690 -1.1018 -0.5251
 4038TIP3    H212072   7.174   3.840   5.072 -0.8472 -0.7471  0.5096
 4039TIP3   OH212073   1.434   2.169   2.536 -0.5683  0.4126  0.8519
 4039TIP3    H112074   1.407   2.242   2.593  1.2835  3.4945 -1.8511
 4039TIP3    H212075   1.527   2.158   2.554 -0.3529  0.2335 -0.3085
 4040TIP3   OH212076   7.929   5.921   6.657 -0.0091 -0.0494 -0.1086
 4040TIP3    H112077   7.868   5.902   6.728 -0.5829  2.0706  0.0158
 4040TIP3    H212078   7.890   5.878   6.580 -0.5518 -0.4780  0.3951
 4041TIP3   OH212079   3.788   2.867   3.562 -0.7291  0.1824  0.4075
 4041TIP3    H112080   3.834   2.893   3.482 -0.1531  0.0723  0.6907
 4041TIP3    H212081   3.758   2.949   3.600 -2.7735  0.1229 -0.9196
 4042TIP3   OH212082   4.807   6.313   2.576 -0.1059  0.2918 -0.6432
 4042TIP3    H112083   4.760   6.363   2.509  0.1736 -1.7404 -2.4642
 4042TIP3    H212084   4.896   6.307   2.543  0.0165 -0.8407 -0.1415
 4043TIP3   OH212085   7.477   4.092   5.222  0.0120  0.4389  0.7863
 4043TIP3    H112086   7.555   4.063   5.174 -0.5478  0.0635  0.0892
 4043TIP3    H212087   7.503   4.088   5.314  0.6985 -0.0441  0.5804
 4044TIP3   OH212088   4.778   3.640   6.791 -0.1916  0.3230 -0.0793
 4044TIP3    H112089   4.834   3.718   6.795 -0.1671  0.2573  1.7748
 4044TIP3    H212090   4.808   3.593   6.713  0.9439  1.3140 -0.2707
 4045TIP3   OH212091   1.395   3.148   2.559  0.4801  0.0525  0.2600
 4045TIP3    H112092   1.469   3.138   2.499  0.6670  3.6771 -0.3622
 4045TIP3    H212093   1.422   3.103   2.639  3.1645  0.8385 -0.1180
 4046TIP3   OH212094   6.506   0.968   4.638 -0.0110 -0.5023  0.3833
 4046TIP3    H112095   6.411   0.962   4.651  0.1917 -1.9253  1.3740
 4046TIP3    H212096   6.543   0.920   4.711  1.4483 -1.3109 -0.8297
 4047TIP3   OH212097   3.811   0.947   2.945 -0.3652 -0.3439  0.6450
 4047TIP3    H112098   3.900   0.931   2.978 -0.7601 -3.5403  0.4567
 4047TIP3    H212099   3.755   0.888   2.996 -2.1690  0.5076 -0.2563
 4048TIP3   OH212100   4.952   7.245   2.718 -0.3842 -0.0278 -0.3051
 4048TIP3    H112101   4.917   7.230   2.806  1.3184  1.6685  0.7508
 4048TIP3    H212102   4.997   7.164   2.695  1.5395  0.3882  1.6475
 4049TIP3   OH212103   6.853   4.175   5.256 -0.0553 -0.1791 -0.9069
 4049TIP3    H112104   6.888   4.110   5.318  0.5233  1.3287  0.4368
 4049TIP3    H212105   6.785   4.220   5.305  1.9461  2.6013 -0.4098
 4050TIP3   OH212106   7.583   6.605   4.347 -0.5791  0.5577  0.4560
 4050TIP3    H112107   7.565   6.698   4.334  1.8525  1.0234  0.0510
 4050TIP3    H212108   7.640   6.580   4.274  1.6889 -0.3289  2.3852
 4051TIP3   OH212109   0.240   4.621   4.922  0.4873  0.4221  0.6109
 4051TIP3    H112110   0.208   4.630   4.832  1.5317  0.5153  0.2402
 4051TIP3    H212111   0.206   4.536   4.950 -1.2337  1.1009  0.7317
 4052TIP3   OH212112   2.393   5.494   3.576 -0.5560 -0.0245 -0.3534
 4052TIP3    H112113   2.323   5.511   3.513 -1.1692 -1.1709 -0.0031
 4052TIP3    H212114   2.419   5.404   3.559  0.7005  0.3240 -0.3296
 4053TIP3   OH212115   3.518   4.958   0.749 -0.3328  0.0393 -0.4869
 4053TIP3    H112116   3.439   4.989   0.793 -0.4491  0.6239 -1.0995
 4053TIP3    H212117   3.565   4.908   0.816  0.2734  2.2124  0.7771
 4054TIP3   OH212118   3.796   7.558   2.845 -0.2477  0.0746  0.2527
 4054TIP3    H112119   3.792   7.473   2.889 -0.3814 -0.7789 -1.3147
 4054TIP3    H212120   3.715   7.602   2.870 -1.2209 -1.1601 -0.5705
 4055TIP3   OH212121   6.419   4.838   4.944  0.0120  0.2089 -0.0290
 4055TIP3    H112122   6.508   4.813   4.921 -0.3490 -0.2435 -0.9667
 4055TIP3    H212123   6.372   4.840   4.861 -1.5283 -2.2108  0.6698
 4056TIP3   OH212124   2.229   2.144   0.588  0.4166  0.2882  0.1107
 4056TIP3    H112125   2.286   2.132   0.513  0.8848  0.9286  0.3472
 4056TIP3    H212126   2.204   2.237   0.585  0.1462  0.2359  0.5367
 4057TIP3   OH212127   0.365   1.225   0.660  0.3374  0.7699 -0.5766
 4057TIP3    H112128   0.308   1.288   0.705  0.3584 -0.0271  0.6082
 4057TIP3    H212129   0.305   1.156   0.632  0.6478  0.0643  0.4311
 4058TIP3   OH212130   6.429   6.415   4.606 -0.3312  0.3996  0.0957
 4058TIP3    H112131   6.441   6.473   4.681 -1.4368  0.0454  0.5695
 4058TIP3    H212132   6.410   6.474   4.533 -2.2022  0.6633  0.7239
 4059TIP3   OH212133   2.109   4.560   3.774  0.2995 -0.2941  0.0554
 4059TIP3    H112134   2.047   4.535   3.705  0.7844  0.3500 -0.6269
 4059TIP3    H212135   2.189   4.584   3.727  0.3202  1.1359  0.7540
 4060TIP3   OH212136   4.202   2.298   6.682 -0.8351 -0.1839 -0.1256
 4060TIP3    H112137   4.289   2.302   6.641 -0.6033 -1.3151  0.2170
 4060TIP3    H212138   4.219   2.315   6.775 -0.6872 -2.1552  0.2622
 4061TIP3   OH212139   6.439   4.799   1.476 -0.2912  0.5031 -0.3588
 4061TIP3    H112140   6.360   4.792   1.422 -0.7673  1.4333  0.1837
 4061TIP3    H212141   6.416   4.864   1.543  0.1043 -0.9499  1.2699
 4062TIP3   OH212142   3.801   5.448   2.764 -0.2699  0.3521 -0.6138
 4062TIP3    H112143   3.798   5.468   2.858  2.1056  2.9633 -0.9436
 4062TIP3    H212144   3.833   5.358   2.760  0.0986  0.3694  1.0899
 4063TIP3   OH212145   5.648   5.742   3.297  0.5565  0.1174  0.1047
 4063TIP3    H112146   5.697   5.731   3.215 -0.3807 -0.3841 -0.4036
 4063TIP3    H212147   5.611   5.830   3.291  2.7012  1.1846  1.2415
 4064TIP3   OH212148   1.157   6.155   2.636 -0.3797  0.2990  0.0949
 4064TIP3    H112149   1.120   6.075   2.673 -1.1676 -0.1068 -1.4495
 4064TIP3    H212150   1.124   6.225   2.692 -0.9795 -0.3271  0.5441
 4065TIP3   OH212151   3.785   0.215   0.797 -0.1970  0.6465 -0.5122
 4065TIP3    H112152   3.829   0.131   0.782 -0.0193  0.3921  1.2088
 4065TIP3    H212153   3.771   0.218   0.892 -0.3665  2.4855 -0.5552
 4066TIP3   OH212154   3.865   2.321   4.562  0.5012  0.3440 -0.0707
 4066TIP3    H112155   3.941   2.313   4.505  2.1282  1.8867  1.7052
 4066TIP3    H212156   3.822   2.402   4.534 -0.2699 -0.3141 -0.8128
 4067TIP3   OH212157   5.523   3.944   0.993 -0.5991  0.4389  0.6261
 4067TIP3    H112158   5.500   3.853   0.973  2.3838 -0.4209  0.6025
 4067TIP3    H212159   5.597   3.963   0.935  0.8002  1.8276  2.7597
 4068TIP3   OH212160   0.846   2.228   6.572  0.1038  0.2498  0.3024
 4068TIP3    H112161   0.903   2.257   6.500 -1.7555  0.4377 -1.1586
 4068TIP3    H212162   0.825   2.309   6.619 -1.5499  0.7119 -1.1431
 4069TIP3   OH212163   0.980   0.929   2.889 -1.2080  0.2613 -0.0194
 4069TIP3    H112164   0.972   0.879   2.971  0.8953  2.2544  1.5331
 4069TIP3    H212165   1.060   0.895   2.848 -1.3101  0.4397 -0.3691
 4070TIP3   OH212166   5.298   2.097   0.646 -0.0771 -0.3095  0.0727
 4070TIP3    H112167   5.203   2.099   0.631 -0.0620 -1.0456 -0.1268
 4070TIP3    H212168   5.336   2.104   0.558  0.0170 -3.5012 -0.2299
 4071TIP3   OH212169   4.639   3.717   0.967 -0.0777  0.0122  0.4262
 4071TIP3    H112170   4.678   3.653   1.027  0.3265 -0.4976 -0.3538
 4071TIP3    H212171   4.609   3.664   0.893 -2.6568  0.3125  1.1566
 4072TIP3   OH212172   2.544   7.339   2.012 -0.9885  0.5254  0.5557
 4072TIP3    H112173   2.460   7.362   1.971 -0.6683  1.7596  0.5483
 4072TIP3    H212174   2.533   7.248   2.039 -2.1832  0.5348  0.1816
 4073TIP3   OH212175   4.881   6.655   4.718 -0.2926 -0.0764  0.3407
 4073TIP3    H112176   4.788   6.642   4.698 -0.4999 -0.7795  1.6786
 4073TIP3    H212177   4.925   6.644   4.633 -1.4876  1.2662 -0.5066
 4074TIP3   OH212178   3.139   3.787   1.759  0.2453 -0.0547 -0.0899
 4074TIP3    H112179   3.050   3.794   1.792  0.1855 -0.5504 -0.1314
 4074TIP3    H212180   3.129   3.760   1.668  0.4413 -2.4864  0.5273
 4075TIP3   OH212181   7.630   6.765   5.912 -0.2501 -0.1215 -0.4421
 4075TIP3    H112182   7.560   6.828   5.894 -0.2468  0.3011  0.9564
 4075TIP3    H212183   7.622   6.746   6.005  0.2351 -1.6255 -0.6845
 4076TIP3   OH212184   5.733   7.391   0.636  0.3313 -0.0824 -0.6229
 4076TIP3    H112185   5.640   7.396   0.658  0.4279  3.4983 -0.4955
 4076TIP3    H212186   5.774   7.351   0.712 -0.8363  0.6774  0.4481
 4077TIP3   OH212187   3.841   3.519   1.490 -0.1059  0.2056  0.9092
 4077TIP3    H112188   3.826   3.426   1.504 -1.4983  0.2545 -0.0029
 4077TIP3    H212189   3.782   3.563   1.551 -1.3314  0.4417 -0.3923
 4078TIP3   OH212190   8.144   2.549   4.399 -0.3191  0.3576  0.2252
 4078TIP3    H112191   8.066   2.604   4.409 -0.6798 -0.0090 -0.4824
 4078TIP3    H212192   8.118   2.464   4.434 -0.6177 -0.0815 -1.0218
 4079TIP3   OH212193   2.062   2.616   2.896 -0.4249  0.2521  0.3121
 4079TIP3    H112194   2.044   2.597   2.804  1.5894 -0.2371 -0.0290
 4079TIP3    H212195   2.068   2.712   2.900  1.7760  0.2232 -0.6215
 4080TIP3   OH212196   4.845   2.910   0.080  0.1190  0.2467  0.4415
 4080TIP3    H112197   4.938   2.925   0.061  0.2534  0.0185  0.9170
 4080TIP3    H212198   4.841   2.903   0.175 -0.3977  0.3217  0.4255
 4081TIP3   OH212199   4.095   1.159   4.063  0.2237  0.3978  0.3512
 4081TIP3    H112200   4.179   1.116   4.076  0.5141  0.1690 -1.8533
 4081TIP3    H212201   4.117   1.251   4.047  0.2956  0.0344 -2.0120
 4082TIP3   OH212202   7.583   3.770   6.712  0.3360  0.3234 -0.4523
 4082TIP3    H112203   7.552   3.851   6.752  0.6939  0.5330 -0.6003
 4082TIP3    H212204   7.670   3.757   6.748  0.0192 -0.3668  0.1073
 4083TIP3   OH212205   3.451   0.656   0.609  0.3132  0.4758  0.1369
 4083TIP3    H112206   3.484   0.595   0.543  0.6055 -0.4829  1.1518
 4083TIP3    H212207   3.381   0.704   0.564  1.6381  1.0760 -1.3908
 4084TIP3   OH212208   3.847   3.571   0.612 -0.2752  0.3700 -0.4104
 4084TIP3    H112209   3.910   3.594   0.543  1.1253 -1.2695  0.2550
 4084TIP3    H212210   3.874   3.624   0.687 -1.4511  1.7333 -0.9137
 4085TIP3   OH212211   1.162   6.065   1.592 -0.1582  0.2627  0.4176
 4085TIP3    H112212   1.133   6.072   1.501  0.2632 -1.8101  0.0611
 4085TIP3    H212213   1.253   6.037   1.585  0.1657  0.9891  1.5069
 4086TIP3   OH212214   6.260   3.961   5.352 -0.5757 -0.3249 -0.2819
 4086TIP3    H112215   6.338   3.971   5.297 -0.7491  0.5102 -0.3958
 4086TIP3    H212216   6.263   4.036   5.412 -0.7094 -0.8980  0.4544
 4087TIP3   OH212217   3.834   4.610   1.003  0.3904 -0.2819  0.2141
 4087TIP3    H112218   3.804   4.551   0.934  0.4503  0.9388 -0.8833
 4087TIP3    H212219   3.929   4.609   0.996  0.4083  3.0298 -2.6231
 4088TIP3   OH212220   7.459   2.321   1.881 -0.0526  0.0060  0.1532
 4088TIP3    H112221   7.467   2.409   1.918  0.5311  0.4359 -0.9399
 4088TIP3    H212222   7.464   2.262   1.956  0.3960  0.8755  0.8221
 4089TIP3   OH212223   1.938   6.760   5.703 -0.0514 -0.5961  0.0377
 4089TIP3    H112224   1.895   6.697   5.645  1.2327 -0.6525 -0.8806
 4089TIP3    H212225   1.927   6.722   5.791 -2.9918  0.0451  0.0661
 4090TIP3   OH212226   8.274   3.576   5.003  0.4001 -0.4214  0.5682
 4090TIP3    H112227   8.221   3.497   5.010 -0.0623 -0.6464 -3.1930
 4090TIP3    H212228   8.356   3.555   5.048  0.0050 -2.7905  0.3093
 4091TIP3   OH212229   7.459   4.213   6.030  0.4396 -0.2031  0.1456
 4091TIP3    H112230   7.441   4.119   6.029 -0.1058 -0.1553  1.8903
 4091TIP3    H212231   7.464   4.238   5.938  1.8326 -2.1595 -0.3608
 4092TIP3   OH212232   1.305   3.528   2.302  0.3911 -0.0498 -0.3956
 4092TIP3    H112233   1.220   3.492   2.327  0.1979 -0.8268 -2.0789
 4092TIP3    H212234   1.342   3.562   2.384 -1.7898  0.8620  0.2826
 4093TIP3   OH212235   0.183   4.290   1.498 -0.3109 -0.2678 -0.3763
 4093TIP3    H112236   0.273   4.266   1.480 -0.3953 -0.4064 -0.6086
 4093TIP3    H212237   0.131   4.246   1.431 -0.7763 -1.9742  1.0150
 4094TIP3   OH212238   7.985   6.936   5.187  0.0961 -0.3566  0.2475
 4094TIP3    H112239   7.914   6.898   5.239  0.2038 -0.7523  0.1055
 4094TIP3    H212240   7.942   7.003   5.134 -0.3083 -1.0939 -0.3743
 4095TIP3   OH212241   6.205   7.367   6.235 -0.5717 -0.5755  0.7859
 4095TIP3    H112242   6.116   7.335   6.248 -1.3734  1.0825 -0.2821
 4095TIP3    H212243   6.253   7.290   6.204 -2.1517 -1.0650 -0.6547
 4096TIP3   OH212244   5.151   5.772   5.115  0.0644  0.2068  0.4148
 4096TIP3    H112245   5.186   5.860   5.106 -0.2766  0.1781 -2.4132
 4096TIP3    H212246   5.056   5.784   5.117  0.0404 -0.0558  0.9695
 4097TIP3   OH212247   4.890   6.100   4.001 -0.4145  0.3850  0.4733
 4097TIP3    H112248   4.869   6.175   3.946  0.4169  0.2058 -0.1229
 4097TIP3    H212249   4.908   6.029   3.939  1.1914  0.3469  0.9162
 4098TIP3   OH212250   4.643   6.805   3.266 -0.3414  0.2177 -0.3227
 4098TIP3    H112251   4.718   6.751   3.291 -0.5272 -0.5154 -1.2885
 4098TIP3    H212252   4.682   6.888   3.238  0.2902 -0.6994 -2.3487
 4099TIP3   OH212253   5.379   3.490   5.522 -0.4469  0.5772 -0.3904
 4099TIP3    H112254   5.321   3.554   5.482 -0.3046  1.3704  0.6355
 4099TIP3    H212255   5.450   3.542   5.558 -0.4794 -0.1315  0.7232
 4100TIP3   OH212256   7.733   2.671   1.886  0.2109 -0.1681  0.7449
 4100TIP3    H112257   7.789   2.661   1.963 -0.2029  2.0347  1.3927
 4100TIP3    H212258   7.719   2.765   1.878 -0.5380 -0.3989 -1.4910
 4101TIP3   OH212259   3.942   7.756   2.309 -0.3102  0.5586  0.2662
 4101TIP3    H112260   3.929   7.713   2.394 -0.6900 -0.1707 -0.1428
 4101TIP3    H212261   3.854   7.757   2.270  0.1456 -0.9317 -0.9422
 4102TIP3   OH212262   7.242   5.752   5.292  0.4292 -0.1159 -0.2194
 4102TIP3    H112263   7.241   5.835   5.244 -0.5079 -0.6734 -1.2023
 4102TIP3    H212264   7.170   5.702   5.255  1.0240 -1.4027  0.3025
 4103TIP3   OH212265   1.511   7.611   4.183 -0.2850  0.3499  0.4429
 4103TIP3    H112266   1.417   7.595   4.173 -0.5370  1.9630 -0.0685
 4103TIP3    H212267   1.524   7.616   4.277 -0.0432 -3.2124  0.7533
 4104TIP3   OH212268   3.555   4.492   3.893 -0.2558  0.3725 -0.6108
 4104TIP3    H112269   3.632   4.526   3.847 -1.5290 -0.7522 -3.8062
 4104TIP3    H212270   3.511   4.570   3.927 -0.4899  1.5740 -3.4315
 4105TIP3   OH212271   5.651   7.343   5.042 -0.2661 -0.5784 -0.2179
 4105TIP3    H112272   5.736   7.328   5.000  0.2175 -0.8947  0.8430
 4105TIP3    H212273   5.670   7.340   5.136 -1.2394  0.5832  0.0395
 4106TIP3   OH212274   1.235   3.903   4.077 -0.5776  0.1241 -0.2364
 4106TIP3    H112275   1.316   3.944   4.048 -1.5601  0.9848 -1.8763
 4106TIP3    H212276   1.263   3.832   4.135  1.2558  1.5370  0.7056
 4107TIP3   OH212277   0.264   1.561   3.929  0.3319  0.4608 -0.3400
 4107TIP3    H112278   0.180   1.556   3.974 -0.7895  1.0246 -2.2791
 4107TIP3    H212279   0.329   1.538   3.996 -1.4820 -1.9319  0.7063
 4108TIP3   OH212280   5.641   5.680   5.521 -0.4498  0.0336 -0.0027
 4108TIP3    H112281   5.692   5.751   5.482  0.2640 -0.6584 -0.3569
 4108TIP3    H212282   5.697   5.603   5.513 -0.2154 -0.1271  2.4660
 4109TIP3   OH212283   0.784   0.412   3.495  0.3638  0.0837  0.1969
 4109TIP3    H112284   0.718   0.369   3.440 -1.9310  0.1521  2.7046
 4109TIP3    H212285   0.744   0.494   3.521  2.0133  0.7431  0.7734
 4110TIP3   OH212286   7.222   3.643   3.646  0.1637  0.1477  0.4600
 4110TIP3    H112287   7.153   3.707   3.663  0.1660  0.3887 -0.3685
 4110TIP3    H212288   7.181   3.558   3.660 -1.3940  0.0966 -3.3438
 4111TIP3   OH212289   2.567   1.924   2.109 -0.0611 -0.4985 -0.4105
 4111TIP3    H112290   2.566   1.944   2.202 -0.3429  0.6898 -0.6407
 4111TIP3    H212291   2.479   1.949   2.079 -0.0874 -1.1936 -0.9330
 4112TIP3   OH212292   2.336   5.036   1.264  0.1787 -0.2979  0.0107
 4112TIP3    H112293   2.307   5.010   1.351 -0.7226 -2.1019 -0.7596
 4112TIP3    H212294   2.412   5.092   1.279 -0.2807 -0.1265  1.9462
 4113TIP3   OH212295   6.929   4.503   0.567 -0.0844 -0.8655 -0.4618
 4113TIP3    H112296   6.834   4.498   0.572 -0.0548 -0.6516  0.8021
 4113TIP3    H212297   6.960   4.434   0.625  0.5690 -1.6794 -1.7295
 4114TIP3   OH212298   1.430   2.893   3.853 -0.2321  0.3238  0.2021
 4114TIP3    H112299   1.501   2.834   3.826  0.1849  0.6522  0.5589
 4114TIP3    H212300   1.350   2.849   3.826  0.1067 -0.1035 -0.1137
 4115TIP3   OH212301   7.980   7.595   6.700  0.0794 -0.0842 -0.0402
 4115TIP3    H112302   8.026   7.658   6.645  0.2473 -0.3840 -0.2468
 4115TIP3    H212303   8.009   7.615   6.789 -0.9749  1.0751  0.0749
 4116TIP3   OH212304   3.242   0.462   1.894 -0.1536  0.2446 -0.1897
 4116TIP3    H112305   3.176   0.401   1.862 -0.1047 -0.7784  1.5269
 4116TIP3    H212306   3.325   0.418   1.878 -0.0321  0.4870 -0.2250
 4117TIP3   OH212307   2.016   0.746   5.797  0.2825 -0.2220  0.3490
 4117TIP3    H112308   2.049   0.662   5.767  0.1797 -0.3253  0.5253
 4117TIP3    H212309   2.011   0.800   5.717  0.8321 -0.2189  0.3165
 4118TIP3   OH212310   2.848   3.071   1.765  0.4142 -0.2116  0.5972
 4118TIP3    H112311   2.824   3.105   1.851 -0.7720 -0.8143  0.5214
 4118TIP3    H212312   2.775   3.095   1.708  1.2663  0.3458 -0.2991
 4119TIP3   OH212313   5.185   2.154   1.704 -0.3808  0.0483  0.8957
 4119TIP3    H112314   5.221   2.242   1.692  0.5544 -0.4233  0.1388
 4119TIP3    H212315   5.213   2.128   1.792  1.1311 -0.2915  0.3427
 4120TIP3   OH212316   4.451   4.146   5.147  0.2034  0.4230  0.4380
 4120TIP3    H112317   4.358   4.161   5.162  0.0510 -0.1440  0.0955
 4120TIP3    H212318   4.495   4.215   5.197 -0.4352  1.6892 -0.6551
 4121TIP3   OH212319   0.196   7.070   2.001  0.4657 -0.3096  0.2011
 4121TIP3    H112320   0.243   7.142   1.958 -1.7231  0.6853 -0.6788
 4121TIP3    H212321   0.228   7.071   2.091  0.3567  1.9690  0.2750
 4122TIP3   OH212322   5.973   5.417   3.968 -0.1515 -0.5939 -0.2458
 4122TIP3    H112323   5.881   5.400   3.948 -0.6190  0.1230  1.1272
 4122TIP3    H212324   5.987   5.508   3.940 -0.1048 -0.4343  0.2760
 4123TIP3   OH212325   5.915   5.217   6.484 -0.4357  0.2404 -0.1334
 4123TIP3    H112326   5.999   5.210   6.438 -1.0611  0.9918 -1.4254
 4123TIP3    H212327   5.928   5.290   6.546  0.6440 -1.2404  1.4990
 4124TIP3   OH212328   6.534   4.628   5.525 -0.4921  1.0781  0.4788
 4124TIP3    H112329   6.545   4.693   5.455  1.0036 -0.5783 -0.9033
 4124TIP3    H212330   6.454   4.655   5.569 -3.0000  0.8398 -3.4120
 4125TIP3   OH212331   3.485   6.203   4.917  0.3225 -0.1520  0.7165
 4125TIP3    H112332   3.578   6.221   4.927  0.3355 -0.3061  0.8853
 4125TIP3    H212333   3.471   6.197   4.823  0.8082 -1.8054  0.7198
 4126TIP3   OH212334   5.074   1.433   5.596 -0.3903  0.2826 -0.5479
 4126TIP3    H112335   5.068   1.379   5.675 -0.6981 -1.1501 -1.4987
 4126TIP3    H212336   5.030   1.514   5.618 -0.0059  0.1152  0.9144
 4127TIP3   OH212337   4.194   3.774   2.869 -0.2369 -0.0159 -0.4619
 4127TIP3    H112338   4.234   3.755   2.954 -0.3101 -0.8771 -0.6202
 4127TIP3    H212339   4.262   3.752   2.805 -0.6507 -0.6526 -0.6904
 4128TIP3   OH212340   2.869   3.087   0.633  0.1048  0.0241  0.2131
 4128TIP3    H112341   2.786   3.134   0.637 -0.0890 -0.2310 -0.6736
 4128TIP3    H212342   2.861   3.017   0.697  0.3413  1.0815  1.4593
 4129TIP3   OH212343   2.397   3.008   6.315 -0.4790  0.2291  0.4368
 4129TIP3    H112344   2.345   3.044   6.387 -2.4357 -4.4772  1.7789
 4129TIP3    H212345   2.342   3.021   6.238 -0.8080  0.7226  0.7488
 4130TIP3   OH212346   1.070   2.832   0.961 -0.4970 -0.2552  0.0903
 4130TIP3    H112347   1.141   2.884   0.997  0.4389 -1.0950 -0.4790
 4130TIP3    H212348   1.057   2.761   1.025 -1.0228  0.0457  0.3272
 4131TIP3   OH212349   2.638   4.057   3.644  0.6466  0.4172 -0.3299
 4131TIP3    H112350   2.698   4.030   3.574 -0.9800  0.1176 -1.6838
 4131TIP3    H212351   2.594   3.977   3.670  1.7856  0.3775  1.6746
 4132TIP3   OH212352   8.164   3.276   6.509  0.1463 -0.4492  0.3718
 4132TIP3    H112353   8.108   3.300   6.435  0.7413 -1.4781 -0.4384
 4132TIP3    H212354   8.103   3.265   6.582 -0.3750  1.2950  0.2488
 4133TIP3   OH212355   6.227   0.324   0.752  0.5318 -0.0991  0.1622
 4133TIP3    H112356   6.259   0.414   0.747 -0.9237  0.4321  0.2448
 4133TIP3    H212357   6.160   0.318   0.684 -0.2548 -0.7549  0.9805
 4134TIP3   OH212358   5.759   1.157   2.464  0.2992  0.1400 -0.1409
 4134TIP3    H112359   5.740   1.228   2.403 -0.4309  1.1297  1.1894
 4134TIP3    H212360   5.733   1.077   2.417 -0.4942  0.8905 -1.0138
 4135TIP3   OH212361   5.112   5.469   0.907  0.1243  0.1404  0.2010
 4135TIP3    H112362   5.207   5.482   0.899  0.2227 -0.5434  0.2006
 4135TIP3    H212363   5.102   5.376   0.926 -0.5625  0.1575 -0.0522
 4136TIP3   OH212364   0.242   1.231   1.275  0.4234  0.0748 -0.0206
 4136TIP3    H112365   0.321   1.195   1.313 -0.0759 -1.3614 -0.2943
 4136TIP3    H212366   0.264   1.247   1.183  1.3072  2.5840  0.5323
 4137TIP3   OH212367   0.873   6.771   0.607  0.2273 -0.0756 -0.1406
 4137TIP3    H112368   0.880   6.860   0.643 -1.8188 -0.0494  0.3430
 4137TIP3    H212369   0.831   6.783   0.522  0.3733 -0.5428 -0.2807
 4138TIP3   OH212370   6.289   1.679   5.788  0.5671  0.4309  0.1134
 4138TIP3    H112371   6.369   1.725   5.812  0.5132  1.0668 -0.8936
 4138TIP3    H212372   6.259   1.721   5.708 -0.0162 -0.7192 -0.3049
 4139TIP3   OH212373   0.547   3.444   4.673 -0.0018  0.3651  0.4254
 4139TIP3    H112374   0.490   3.425   4.599  0.4841  0.9404 -0.1106
 4139TIP3    H212375   0.527   3.376   4.737 -2.3728  1.3899  0.8858
 4140TIP3   OH212376   7.764   0.423   5.256  0.0623  0.5801  0.0228
 4140TIP3    H112377   7.856   0.428   5.230 -0.0485  0.0143 -0.4946
 4140TIP3    H212378   7.732   0.513   5.249  0.1760  0.5270 -1.3148
 4141TIP3   OH212379   0.795   5.991   1.236  0.6358 -0.3169  0.2544
 4141TIP3    H112380   0.793   5.934   1.312  0.2426 -2.0302 -0.9702
 4141TIP3    H212381   0.708   6.030   1.232  0.5285 -0.5398  0.4510
 4142TIP3   OH212382   0.483   1.141   3.256 -0.0544 -0.1691  0.0397
 4142TIP3    H112383   0.445   1.066   3.302 -1.4553  0.0201 -0.7509
 4142TIP3    H212384   0.577   1.132   3.268 -0.2905 -1.2057  1.2528
 4143TIP3   OH212385   2.613   3.251   0.454  0.3324  0.8968 -0.1082
 4143TIP3    H112386   2.618   3.231   0.547 -0.9929  1.0012 -0.0028
 4143TIP3    H212387   2.526   3.288   0.442  0.1521  0.0798 -1.5375
 4144TIP3   OH212388   6.200   0.957   0.849 -0.7200 -0.1904  0.3044
 4144TIP3    H112389   6.156   1.040   0.832  1.0950  0.7362 -0.1058
 4144TIP3    H212390   6.291   0.981   0.865 -0.4440 -1.9694  1.7250
 4145TIP3   OH212391   4.971   7.708   4.995  0.0712 -0.0412 -0.2949
 4145TIP3    H112392   4.941   7.642   4.933  0.7520  0.7581 -1.5274
 4145TIP3    H212393   4.901   7.714   5.060  0.5753 -2.9117  0.6616
 4146TIP3   OH212394   2.093   4.788   4.427 -0.2188 -0.7823 -0.0370
 4146TIP3    H112395   2.185   4.801   4.403 -0.5454 -0.4580 -1.2168
 4146TIP3    H212396   2.095   4.752   4.515  1.0461 -0.8821 -0.0941
 4147TIP3   OH212397   1.552   4.394   2.410 -0.1605  0.4365 -0.5077
 4147TIP3    H112398   1.612   4.460   2.444  0.3430  0.0483 -0.6223
 4147TIP3    H212399   1.609   4.328   2.371 -0.6816  0.3166 -1.0945
 4148TIP3   OH212400   3.284   3.020   0.716  0.2395  0.2106  0.8265
 4148TIP3    H112401   3.310   2.932   0.741 -1.0759  0.0083  1.5551
 4148TIP3    H212402   3.367   3.066   0.700  0.9400 -1.0916  0.6002
 4149TIP3   OH212403   2.322   4.401   6.317  0.4708 -0.5830 -0.5321
 4149TIP3    H112404   2.312   4.328   6.257 -0.8134 -0.0005 -1.0763
 4149TIP3    H212405   2.237   4.446   6.314  1.2159  0.9056 -0.1999
 4150TIP3   OH212406   7.044   5.065   0.852 -0.5791  0.0082  0.1309
 4150TIP3    H112407   7.120   5.068   0.910 -1.1802 -1.1525  1.0212
 4150TIP3    H212408   7.020   5.156   0.840 -0.3205  0.2938  1.5695
 4151TIP3   OH212409   4.074   0.953   6.731 -0.3560  0.0474 -0.2081
 4151TIP3    H112410   4.094   0.863   6.757 -0.3432 -0.5486 -2.1303
 4151TIP3    H212411   4.087   1.004   6.811 -4.4727 -2.1213  2.2318
 4152TIP3   OH212412   1.353   3.579   2.562  0.1311  0.1652 -0.6503
 4152TIP3    H112413   1.291   3.519   2.603 -0.9154 -0.5670 -3.1404
 4152TIP3    H212414   1.438   3.534   2.569 -0.3098 -0.7034 -0.7733
 4153TIP3   OH212415   3.633   4.013   2.524  0.1703  0.1743 -0.0548
 4153TIP3    H112416   3.646   4.108   2.521  1.0385  0.0424 -1.2936
 4153TIP3    H212417   3.559   4.000   2.584  0.7009  1.5524  0.9400
 4154TIP3   OH212418   4.446   7.057   2.581 -0.2673  0.6012  0.4318
 4154TIP3    H112419   4.381   7.044   2.650 -0.6290  0.2999  0.0365
 4154TIP3    H212420   4.412   7.129   2.528  0.5562  1.6023  1.2033
 4155TIP3   OH212421   1.112   0.300   5.170 -0.5775  0.7171 -0.1979
 4155TIP3    H112422   1.054   0.365   5.210 -0.6294 -0.7744  2.4244
 4155TIP3    H212423   1.199   0.322   5.204 -0.8347 -1.4439  2.1839
 4156TIP3   OH212424   0.285   7.701   2.919 -0.1695 -0.2078  0.3927
 4156TIP3    H112425   0.266   7.610   2.940 -1.1367  0.0814  0.8299
 4156TIP3    H212426   0.218   7.725   2.855 -0.1419  0.3024  0.5512
 4157TIP3   OH212427   4.573   6.810   3.607  0.2829  0.3302  0.1400
 4157TIP3    H112428   4.531   6.766   3.533  1.5233 -1.7128  0.5840
 4157TIP3    H212429   4.501   6.830   3.666 -0.8160  2.4358 -1.7227
 4158TIP3   OH212430   7.914   1.482   0.366 -0.5663 -0.3214  0.0436
 4158TIP3    H112431   7.908   1.494   0.461  3.3366  2.5093  0.2040
 4158TIP3    H212432   7.889   1.567   0.330 -1.9738 -1.3551 -1.5208
 4159TIP3   OH212433   0.682   4.651   0.846  0.4134  0.3685  1.0617
 4159TIP3    H112434   0.759   4.654   0.902  0.9614  0.2496  0.3314
 4159TIP3    H212435   0.652   4.741   0.840  2.1459  0.8981 -0.8636
 4160TIP3   OH212436   3.820   7.316   2.986 -0.0684  0.5471 -0.3961
 4160TIP3    H112437   3.858   7.357   3.063  1.4126  0.1053 -0.8534
 4160TIP3    H212438   3.841   7.223   2.996 -0.3873  0.4026 -1.0239
 4161TIP3   OH212439   6.705   0.977   5.240 -0.0257 -0.4790 -0.1591
 4161TIP3    H112440   6.753   0.913   5.187  1.0268 -0.0813  0.2848
 4161TIP3    H212441   6.723   0.951   5.330 -0.4855 -0.1934  0.0189
 4162TIP3   OH212442   2.733   4.321   4.827  0.0483 -0.2720 -0.2043
 4162TIP3    H112443   2.682   4.248   4.862 -1.2527  1.3850  1.5844
 4162TIP3    H212444   2.668   4.387   4.804  1.2323  0.6355 -1.0827
 4163TIP3   OH212445   7.666   3.030   2.406  0.4953 -0.2933 -0.1818
 4163TIP3    H112446   7.684   3.043   2.500 -1.2212 -1.4967  0.3515
 4163TIP3    H212447   7.571   3.022   2.401  0.5666 -0.2589 -2.0510
 4164TIP3   OH212448   4.665   5.276   3.971  0.4013  0.1806 -0.4435
 4164TIP3    H112449   4.583   5.257   4.017  0.5521  0.4047 -0.0709
 4164TIP3    H212450   4.656   5.232   3.887  0.3675 -0.7541  0.0330
 4165TIP3   OH212451   1.124   4.350   0.621 -0.3669  0.6192 -0.1867
 4165TIP3    H112452   1.046   4.296   0.608 -0.8785  1.2328  0.3136
 4165TIP3    H212453   1.111   4.426   0.564  1.2376 -0.6215 -2.4157
 4166TIP3   OH212454   5.233   2.122   5.631 -0.5652  0.1020  0.1860
 4166TIP3    H112455   5.254   2.201   5.680 -1.2427  0.8290 -0.6703
 4166TIP3    H212456   5.187   2.153   5.553 -0.4927 -1.1047 -0.3662
 4167TIP3   OH212457   6.170   7.550   4.764 -0.7649  0.4783  0.1413
 4167TIP3    H112458   6.247   7.503   4.794 -1.5999 -1.0619 -0.0080
 4167TIP3    H212459   6.202   7.606   4.693  0.5657  1.4938  1.4680
 4168TIP3   OH212460   7.808   7.024   2.245  0.0089 -0.6923 -0.1318
 4168TIP3    H112461   7.879   7.088   2.246 -0.5106  0.0291 -2.2472
 4168TIP3    H212462   7.846   6.948   2.200 -0.1940 -0.7755 -0.1612
 4169TIP3   OH212463   7.305   6.289   5.494 -0.0218  0.5093 -0.0718
 4169TIP3    H112464   7.226   6.234   5.490 -0.5204  1.1442  0.8047
 4169TIP3    H212465   7.329   6.303   5.402 -0.7920  0.1144 -0.3439
 4170TIP3   OH212466   4.042   0.454   4.957 -0.6242 -0.1202 -0.1752
 4170TIP3    H112467   3.997   0.532   4.926 -1.2688 -0.6823 -0.6764
 4170TIP3    H212468   4.087   0.419   4.880 -0.0923 -0.0845  0.1126
 4171TIP3   OH212469   6.113   5.409   1.317  0.6152 -1.1295 -0.0633
 4171TIP3    H112470   6.031   5.457   1.310  0.7822 -0.9515 -0.9679
 4171TIP3    H212471   6.099   5.328   1.268  0.6500 -1.5646  0.6389
 4172TIP3   OH212472   5.558   0.212   4.517 -0.1204  0.1404  0.0718
 4172TIP3    H112473   5.480   0.224   4.571 -0.0575  0.4989  0.0862
 4172TIP3    H212474   5.630   0.210   4.579 -0.2902 -2.4817  0.2842
 4173TIP3   OH212475   1.970   4.336   3.557  0.2472 -0.0119  0.9715
 4173TIP3    H112476   2.011   4.356   3.473 -1.9419  2.4116  0.3540
 4173TIP3    H212477   1.986   4.242   3.570 -0.3287 -0.7826 -2.7632
 4174TIP3   OH212478   1.280   1.847   4.182 -0.1053  0.1481 -0.3372
 4174TIP3    H112479   1.194   1.856   4.140  0.4093  2.7566 -1.0519
 4174TIP3    H212480   1.342   1.869   4.113  0.8874  2.1763  1.0838
 4175TIP3   OH212481   8.283   4.246   0.831 -0.1205  0.5608  0.0231
 4175TIP3    H112482   8.270   4.199   0.748 -1.6905  0.4560  0.2920
 4175TIP3    H212483   8.259   4.182   0.898  0.6113  0.8192  0.5318
 4176TIP3   OH212484   4.037   0.939   0.584 -0.1206 -0.1824 -0.0547
 4176TIP3    H112485   4.004   1.016   0.536 -0.6151  0.5600  1.4167
 4176TIP3    H212486   4.070   0.881   0.516  1.3444  1.8290 -1.1494
 4177TIP3   OH212487   2.711   2.637   0.481 -0.0489 -0.1400 -0.4598
 4177TIP3    H112488   2.686   2.719   0.436 -1.2839 -0.8043 -1.0429
 4177TIP3    H212489   2.803   2.624   0.458 -0.0958  0.6079 -1.1170
 4178TIP3   OH212490   5.820   4.093   0.710 -0.3981 -0.5703 -0.4998
 4178TIP3    H112491   5.822   4.010   0.759  1.2108 -0.7156 -0.7493
 4178TIP3    H212492   5.757   4.077   0.640 -1.9382 -0.7243  0.8535
 4179TIP3   OH212493   7.441   1.041   4.864 -0.4852 -0.6397 -0.1752
 4179TIP3    H112494   7.350   1.055   4.890  0.1070  0.2787  1.5906
 4179TIP3    H212495   7.484   1.124   4.883  0.5897 -0.8067 -1.7063
 4180TIP3   OH212496   4.378   2.599   6.389  0.0264  0.3679  0.2023
 4180TIP3    H112497   4.373   2.695   6.385  1.3652  0.4326 -1.8215
 4180TIP3    H212498   4.348   2.570   6.303  2.3797 -0.8006 -0.3088
 4181TIP3   OH212499   8.093   7.636   4.971  0.3503 -0.3372  0.0887
 4181TIP3    H112500   8.017   7.615   4.916  0.0552  0.8944  0.0017
 4181TIP3    H212501   8.054   7.674   5.050  0.8802  0.5997 -0.0907
 4182TIP3   OH212502   8.264   2.317   6.470 -0.0184  0.9992 -0.0717
 4182TIP3    H112503   8.208   2.371   6.414 -0.7409  0.4700  0.1268
 4182TIP3    H212504   8.330   2.281   6.411 -2.0247 -1.3125 -1.0837
 4183TIP3   OH212505   7.052   5.088   3.975  0.4742 -0.1819  0.2133
 4183TIP3    H112506   7.064   5.113   4.067 -1.8916 -0.8696  0.7803
 4183TIP3    H212507   7.092   5.002   3.968  1.0191  0.0452  0.4906
 4184TIP3   OH212508   1.874   1.352   5.139  0.3054  0.3339 -0.1136
 4184TIP3    H112509   1.916   1.287   5.083 -0.0840 -0.3536  0.3817
 4184TIP3    H212510   1.788   1.315   5.159 -0.3147  1.4519 -0.6242
 4185TIP3   OH212511   8.234   1.708   2.768  0.3119  0.0878 -0.2864
 4185TIP3    H112512   8.303   1.677   2.708  0.5655  0.2744 -0.0919
 4185TIP3    H212513   8.242   1.651   2.844  1.5534  1.3302  0.5818
 4186TIP3   OH212514   4.134   0.279   4.435 -0.4986 -0.3135  0.3362
 4186TIP3    H112515   4.128   0.303   4.528 -0.0300 -1.0061  0.5587
 4186TIP3    H212516   4.194   0.343   4.398 -1.7465  0.8076  0.1955
 4187TIP3   OH212517   7.530   1.100   1.623 -0.1860 -0.1367 -0.7121
 4187TIP3    H112518   7.479   1.097   1.542 -0.1887  1.5508 -0.7958
 4187TIP3    H212519   7.527   1.010   1.656 -0.9334 -0.6530 -2.1132
 4188TIP3   OH212520   7.867   0.328   6.050 -0.3444 -0.8614 -0.3336
 4188TIP3    H112521   7.823   0.412   6.038 -0.2362 -1.0733 -2.6853
 4188TIP3    H212522   7.934   0.345   6.116 -0.8700  0.6754 -0.1618
 4189TIP3   OH212523   6.349   3.076   6.612  0.0316 -0.1906 -0.1817
 4189TIP3    H112524   6.310   3.135   6.677  2.6452  2.1289 -0.5334
 4189TIP3    H212525   6.406   3.019   6.664  2.1200  1.6623 -0.3034
 4190TIP3   OH212526   1.359   1.260   3.279 -0.1212 -0.9766 -0.0176
 4190TIP3    H112527   1.310   1.337   3.306  0.3553 -0.3288 -0.9623
 4190TIP3    H212528   1.362   1.205   3.357 -0.4456 -0.0321  0.6740
 4191TIP3   OH212529   5.284   1.693   2.465 -0.0796 -0.2178  0.3341
 4191TIP3    H112530   5.348   1.719   2.531  0.6953 -0.5300 -0.2854
 4191TIP3    H212531   5.336   1.668   2.389 -0.8583 -2.2287  0.4168
 4192TIP3   OH212532   0.317   2.827   1.300 -0.0061 -0.4613 -0.2192
 4192TIP3    H112533   0.334   2.829   1.394 -0.1351 -2.2922 -0.1362
 4192TIP3    H212534   0.345   2.914   1.269  0.7594 -0.1084  1.3663
 4193TIP3   OH212535   5.757   5.980   6.089  0.2285 -0.4444 -0.5487
 4193TIP3    H112536   5.689   6.031   6.133 -0.8508 -2.4146  0.2349
 4193TIP3    H212537   5.836   5.994   6.141 -0.2960 -0.3370  0.2298
 4194TIP3   OH212538   4.798   7.304   4.653  0.2207  0.3547  0.5532
 4194TIP3    H112539   4.866   7.248   4.615 -0.5024  0.3373 -0.7850
 4194TIP3    H212540   4.726   7.301   4.589  0.0561  2.6010  0.5411
 4195TIP3   OH212541   6.582   0.298   6.447 -0.2606  0.0978 -0.1531
 4195TIP3    H112542   6.581   0.253   6.531 -0.3006 -0.2594 -0.3443
 4195TIP3    H212543   6.566   0.390   6.469 -0.7679 -0.0671  0.1840
 4196TIP3   OH212544   3.018   5.574   3.253  0.1132  0.1916 -0.2396
 4196TIP3    H112545   3.072   5.512   3.301  0.3722  0.7675  0.2319
 4196TIP3    H212546   2.972   5.623   3.321 -1.2657 -0.5046 -0.6430
 4197TIP3   OH212547   2.365   1.593   4.011 -0.3116 -0.1925 -0.5934
 4197TIP3    H112548   2.300   1.633   4.069  0.7884  1.7370 -0.6065
 4197TIP3    H212549   2.327   1.509   3.987 -1.3704 -0.5026  1.8939
 4198TIP3   OH212550   4.248   1.121   3.267 -0.2352 -0.3619 -0.1967
 4198TIP3    H112551   4.188   1.079   3.329 -0.3016  1.3503  0.9517
 4198TIP3    H212552   4.193   1.181   3.217 -0.3311 -2.2114 -2.5176
 4199TIP3   OH212553   0.128   0.130   0.530 -0.0752 -0.5512 -0.0331
 4199TIP3    H112554   0.196   0.097   0.588  0.2597 -0.0491 -0.1292
 4199TIP3    H212555   0.049   0.084   0.557 -0.5130  1.4410  2.5597
 4200TIP3   OH212556   2.764   5.231   1.269 -0.3557 -0.2392 -0.3170
 4200TIP3    H112557   2.758   5.222   1.174  0.2640  2.1283 -0.6211
 4200TIP3    H212558   2.673   5.225   1.299 -0.7940  1.0413 -1.2975
 4201TIP3   OH212559   5.474   1.791   3.450  0.2850  0.0724 -0.2488
 4201TIP3    H112560   5.479   1.696   3.460  0.9308  0.1419  0.2124
 4201TIP3    H212561   5.411   1.805   3.380  0.6185 -0.7168 -0.7198
 4202TIP3   OH212562   5.257   6.963   3.610 -0.0588 -0.1873  0.1107
 4202TIP3    H112563   5.219   7.035   3.661  0.7157  0.7278 -0.5656
 4202TIP3    H212564   5.187   6.898   3.606 -0.0337 -0.4379  2.5706
 4203TIP3   OH212565   3.901   2.071   2.451  0.1436  0.2369  0.7417
 4203TIP3    H112566   3.861   2.009   2.390  1.4271  0.1669 -0.0740
 4203TIP3    H212567   3.852   2.060   2.532 -0.1977 -1.2452  0.3683
 4204TIP3   OH212568   4.916   0.400   5.001 -0.2315  0.3406  0.2245
 4204TIP3    H112569   4.991   0.341   5.003 -1.5907 -1.4799  0.2268
 4204TIP3    H212570   4.869   0.377   4.921 -0.5543  1.7666 -0.0211
 4205TIP3   OH212571   6.049   4.663   4.844  0.7075 -0.1871 -0.1080
 4205TIP3    H112572   6.045   4.576   4.806  0.6967 -0.3193  0.1907
 4205TIP3    H212573   6.020   4.721   4.774  0.2506 -0.4702 -0.1565
 4206TIP3   OH212574   2.670   5.481   5.479  0.6651 -0.7122 -0.1029
 4206TIP3    H112575   2.699   5.424   5.408 -0.1296 -0.8414 -0.3356
 4206TIP3    H212576   2.632   5.557   5.434  0.4355 -0.6559  0.1844
 4207TIP3   OH212577   3.260   7.085   1.845 -0.6068 -0.2385  0.0348
 4207TIP3    H112578   3.312   7.078   1.765  1.2871  1.2052  1.0522
 4207TIP3    H212579   3.203   7.160   1.830  0.7995  0.9767  0.5367
 4208TIP3   OH212580   0.726   4.765   2.284  0.0929  0.0964 -0.2129
 4208TIP3    H112581   0.633   4.753   2.303 -0.1358  0.7288 -0.8600
 4208TIP3    H212582   0.762   4.801   2.365  0.5208 -3.3094  1.2750
 4209TIP3   OH212583   6.709   7.833   0.945  0.1774  0.3821 -0.4535
 4209TIP3    H112584   6.753   7.748   0.936 -0.6134 -0.4714  2.3993
 4209TIP3    H212585   6.708   7.870   0.857 -0.2658 -2.9986 -2.0343
 4210TIP3   OH212586   0.048   4.236   6.557 -0.1497  0.1267 -0.4286
 4210TIP3    H112587   0.096   4.177   6.498  0.8042  1.7538 -1.3401
 4210TIP3    H212588   0.116   4.280   6.607 -0.9342 -0.8486  1.5932
 4211TIP3   OH212589   2.304   2.374   1.788  0.0767  0.2044  0.5316
 4211TIP3    H112590   2.331   2.456   1.828 -2.6066  1.2398  0.4054
 4211TIP3    H212591   2.237   2.340   1.847  0.7585 -1.6732  0.2973
 4212TIP3   OH212592   0.159   4.665   5.792 -0.6809 -0.5277  0.2660
 4212TIP3    H112593   0.252   4.686   5.789 -0.3133 -2.1333 -0.8114
 4212TIP3    H212594   0.154   4.582   5.839 -1.7114  0.1192  1.3471
 4213TIP3   OH212595   5.121   2.885   4.120  0.2795  0.2849  0.2008
 4213TIP3    H112596   5.163   2.958   4.075  0.4647  0.9832  1.4496
 4213TIP3    H212597   5.184   2.813   4.112  0.1286  0.2770 -0.9818
 4214TIP3   OH212598   0.910   3.370   4.834  0.5650 -0.4805 -0.6743
 4214TIP3    H112599   0.944   3.283   4.853 -0.7481 -0.7534  0.5290
 4214TIP3    H212600   0.865   3.360   4.750 -1.9928 -1.7159  0.7373
 4215TIP3   OH212601   0.045   4.243   3.691 -0.4677 -0.3528 -0.2105
 4215TIP3    H112602   0.056   4.178   3.622  0.1186 -0.8961  0.3833
 4215TIP3    H212603   0.115   4.307   3.675 -1.2427  0.3442 -0.9910
 4216TIP3   OH212604   6.357   4.226   3.071  0.2906  0.3120  0.4858
 4216TIP3    H112605   6.447   4.258   3.083  0.6369 -0.8221  1.1359
 4216TIP3    H212606   6.367   4.131   3.063 -0.5240  0.3782 -3.0072
 4217TIP3   OH212607   8.247   2.175   2.743  0.0387 -0.1181 -0.6066
 4217TIP3    H112608   8.182   2.228   2.790  0.2815 -0.7360  0.4701
 4217TIP3    H212609   8.212   2.086   2.747  2.0089 -0.9269  2.1591
 4218TIP3   OH212610   5.203   1.129   2.953 -0.0467  0.5857 -0.3941
 4218TIP3    H112611   5.137   1.131   3.021  1.9376 -1.3991  1.7750
 4218TIP3    H212612   5.161   1.084   2.880 -1.3267  0.0353  0.6482
 4219TIP3   OH212613   2.740   2.406   0.970  0.2875  0.2559  0.0679
 4219TIP3    H112614   2.650   2.372   0.979  0.1626  0.3719 -0.7436
 4219TIP3    H212615   2.738   2.459   0.891  0.6004  1.8277  1.0785
 4220TIP3   OH212616   0.010   7.529   1.436  0.2442 -0.3492 -0.2111
 4220TIP3    H112617   0.032   7.517   1.344 -0.9147  0.4428 -0.6043
 4220TIP3    H212618   0.055   7.458   1.481  2.0373  0.0995 -1.1955
 4221TIP3   OH212619   6.839   3.853   5.671  0.4887  0.4045  0.3323
 4221TIP3    H112620   6.759   3.821   5.713  2.0644 -1.5811  2.0081
 4221TIP3    H212621   6.910   3.828   5.731  2.4108  1.8760 -1.1968
 4222TIP3   OH212622   7.598   6.239   1.983  0.1013 -0.6884 -0.4271
 4222TIP3    H112623   7.523   6.179   1.984  1.3442 -2.3217  1.5916
 4222TIP3    H212624   7.630   6.239   2.073  0.5111  2.6567 -0.4777
 4223TIP3   OH212625   0.631   1.008   0.510 -0.1684  0.0732 -0.3060
 4223TIP3    H112626   0.646   0.934   0.569 -1.6507 -0.8834 -1.0822
 4223TIP3    H212627   0.719   1.039   0.488  0.6382 -2.8940 -1.7189
 4224TIP3   OH212628   8.077   5.496   0.681 -0.2975 -0.2976  0.0547
 4224TIP3    H112629   8.010   5.549   0.638 -0.1408  0.6576  0.9373
 4224TIP3    H212630   8.051   5.405   0.664 -0.3965  0.0468 -1.7546
 4225TIP3   OH212631   1.681   4.865  -0.008 -0.7731 -0.0074  0.1699
 4225TIP3    H112632   1.712   4.827   0.074 -0.4262 -0.0472  0.0205
 4225TIP3    H212633   1.683   4.960   0.008  1.8295  0.1595 -0.6517
 4226TIP3   OH212634   4.451   5.782   2.548 -0.0162  0.5974  0.4862
 4226TIP3    H112635   4.413   5.705   2.591 -1.2466  0.6673 -0.4251
 4226TIP3    H212636   4.397   5.855   2.579  0.8831  1.0474  1.0187
 4227TIP3   OH212637   6.710   3.756   2.753 -0.3361 -0.0158  0.3450
 4227TIP3    H112638   6.784   3.812   2.778  1.3396 -1.1197 -1.8579
 4227TIP3    H212639   6.688   3.709   2.834 -1.2690  3.0776  2.0650
 4228TIP3   OH212640   6.780   1.169   6.579  0.7046  0.3065 -0.3862
 4228TIP3    H112641   6.740   1.222   6.510 -0.3647 -0.2982 -0.2552
 4228TIP3    H212642   6.874   1.187   6.572  0.5283  0.8846 -1.4640
 4229TIP3   OH212643   4.111   0.945   6.351  0.4978 -0.2866 -0.3395
 4229TIP3    H112644   4.101   0.887   6.276 -0.5908  0.9263 -1.1708
 4229TIP3    H212645   4.115   1.033   6.314  0.7598  0.2903  0.9800
 4230TIP3   OH212646   0.725   3.145   6.356 -0.7065 -0.0124  0.3787
 4230TIP3    H112647   0.674   3.127   6.434 -0.5920 -0.7163  0.2933
 4230TIP3    H212648   0.814   3.162   6.388 -0.0979 -2.6239  0.2592
 4231TIP3   OH212649   3.435   6.918   6.501 -0.0580  0.9455 -0.5675
 4231TIP3    H112650   3.454   6.992   6.443 -1.2368  1.1770 -0.6737
 4231TIP3    H212651   3.345   6.893   6.480  0.3643 -0.6466 -0.6630
 4232TIP3   OH212652   6.998   2.071   4.343  0.4982  0.0965 -0.0222
 4232TIP3    H112653   6.907   2.052   4.321  0.0758  0.0187  1.6342
 4232TIP3    H212654   7.048   2.046   4.265 -0.9412  0.6408 -1.1504
 4233TIP3   OH212655   8.251   0.027   3.203 -0.2605  0.0082  0.3887
 4233TIP3    H112656   8.290  -0.048   3.246 -1.7747 -0.2694  1.3365
 4233TIP3    H212657   8.297   0.103   3.240 -0.3299 -0.3251  1.1609
 4234TIP3   OH212658   0.891   3.158   4.200  0.1319 -0.4290 -0.2578
 4234TIP3    H112659   0.939   3.095   4.147  0.4302 -1.9183  1.6603
 4234TIP3    H212660   0.933   3.154   4.286  0.3095  2.5874 -0.0997
 4235TIP3   OH212661   4.633   7.630   3.359 -0.1516 -0.1887  1.2463
 4235TIP3    H112662   4.569   7.677   3.305  0.2565  0.0399  0.9551
 4235TIP3    H212663   4.600   7.639   3.448 -0.4287  0.0815  1.1204
 4236TIP3   OH212664   3.558   0.989   0.959  0.1194 -0.6812  0.5284
 4236TIP3    H112665   3.582   0.916   1.016  0.1896 -1.0610  0.0238
 4236TIP3    H212666   3.573   0.955   0.871 -1.6067 -0.6945  0.2032
 4237TIP3   OH212667   0.764   0.841   1.709  0.3263 -0.1782  0.1420
 4237TIP3    H112668   0.819   0.876   1.639 -0.3663  2.1155  0.6662
 4237TIP3    H212669   0.808   0.868   1.790 -0.6362  0.1654  0.5663
 4238TIP3   OH212670   6.075   4.199   3.632  0.3204 -0.4457  0.5470
 4238TIP3    H112671   6.111   4.122   3.589 -0.0694 -1.0766  1.3283
 4238TIP3    H212672   6.004   4.165   3.687 -0.0102  0.4965  0.7244
 4239TIP3   OH212673   7.587   5.683   1.069  0.4282 -0.4310 -0.0130
 4239TIP3    H112674   7.591   5.636   0.985  1.1241  1.8371 -1.3492
 4239TIP3    H212675   7.678   5.700   1.091  0.3726 -2.6306  2.2835
 4240TIP3   OH212676   6.417   3.764   6.496 -0.0146 -0.0318 -0.2683
 4240TIP3    H112677   6.446   3.799   6.580 -1.4249  0.2639  0.1162
 4240TIP3    H212678   6.471   3.686   6.482  0.1038 -0.1906  1.0006
 4241TIP3   OH212679   0.577   3.919   0.434  0.0376  0.1672  0.5610
 4241TIP3    H112680   0.515   3.849   0.455  0.8682 -1.3874 -1.7356
 4241TIP3    H212681   0.655   3.873   0.403  0.2313  2.0517 -2.0904
 4242TIP3   OH212682   5.271   7.228   3.715  0.1185 -0.5043 -0.3789
 4242TIP3    H112683   5.236   7.293   3.777  0.0967 -0.8115 -0.0628
 4242TIP3    H212684   5.356   7.204   3.751  0.6778  0.2522 -1.1570
 4243TIP3   OH212685   4.368   4.359   6.256 -0.0717 -0.0284 -0.5893
 4243TIP3    H112686   4.412   4.316   6.182  2.8657  0.3128  0.8010
 4243TIP3    H212687   4.381   4.452   6.241  3.3064  0.0410  1.6744
 4244TIP3   OH212688   7.679   2.463   5.489  0.2921 -0.0726 -0.4080
 4244TIP3    H112689   7.703   2.370   5.496 -0.7003 -0.3598 -0.6362
 4244TIP3    H212690   7.627   2.480   5.567 -0.5829 -0.0512 -0.9858
 4245TIP3   OH212691   1.619   2.359   2.278  0.0014 -0.0371 -0.1328
 4245TIP3    H112692   1.632   2.396   2.365 -0.7263  1.7502 -0.7371
 4245TIP3    H212693   1.532   2.320   2.282  1.1143 -2.6373  0.7744
 4246TIP3   OH212694   5.534   6.074   3.599 -0.5629  0.1702  0.3725
 4246TIP3    H112695   5.513   6.134   3.527  0.1485  0.6019  0.5014
 4246TIP3    H212696   5.504   6.120   3.678  0.0389  0.3971  0.4775
 4247TIP3   OH212697   5.876   3.713   2.937 -0.5734 -0.1772 -0.1800
 4247TIP3    H112698   5.815   3.676   3.001 -0.7116  1.6639  0.8399
 4247TIP3    H212699   5.830   3.706   2.853 -0.6350 -2.1122 -0.0101
 4248TIP3   OH212700   5.861   7.578   0.876 -0.2442  0.3234  0.1217
 4248TIP3    H112701   5.926   7.591   0.945 -1.4009 -0.4388  1.3993
 4248TIP3    H212702   5.911   7.542   0.803  0.6401 -1.2983  1.4461
 4249TIP3   OH212703   4.829   1.840   1.314  0.5513 -0.0481  0.2029
 4249TIP3    H112704   4.798   1.843   1.224 -1.0964  2.8760  0.7216
 4249TIP3    H212705   4.917   1.802   1.309  0.1253 -0.8756 -2.4468
 4250TIP3   OH212706   6.770   1.077   1.783 -1.1121  0.0397 -0.2702
 4250TIP3    H112707   6.751   1.041   1.696  1.7126 -0.8259 -0.6548
 4250TIP3    H212708   6.866   1.079   1.787 -1.0952 -1.1428  3.3113
 4251TIP3   OH212709   7.025   4.851   3.110  0.6917 -0.1149 -0.1801
 4251TIP3    H112710   6.967   4.778   3.088  2.3338 -1.6790  0.3501
 4251TIP3    H212711   7.044   4.892   3.025  0.5942 -1.0141 -0.6566
 4252TIP3   OH212712   3.437   1.171   4.625  0.0295 -0.2684 -0.2476
 4252TIP3    H112713   3.368   1.110   4.599  1.4465 -2.0481  0.0063
 4252TIP3    H212714   3.512   1.146   4.571  0.7952  0.9392  0.2186
 4253TIP3   OH212715   7.936   7.462   6.053  0.2101  0.1556  0.0542
 4253TIP3    H112716   7.862   7.464   5.993  0.7587 -2.0663 -0.7730
 4253TIP3    H212717   7.901   7.425   6.134 -0.0926  1.4101  0.5327
 4254TIP3   OH212718   2.389   4.527   2.025 -0.3224 -0.3503  0.1587
 4254TIP3    H112719   2.372   4.620   2.009 -0.3226 -0.4965 -0.7167
 4254TIP3    H212720   2.303   4.486   2.024 -0.3307 -0.3485  0.6428
 4255TIP3   OH212721   1.003   3.216   5.565 -0.0752 -0.2288 -0.2863
 4255TIP3    H112722   1.021   3.310   5.569  0.4420 -0.3112 -0.5937
 4255TIP3    H212723   1.029   3.191   5.476  0.4909 -0.8048  0.0357
 4256TIP3   OH212724   3.060   6.716   5.396  0.6390  0.0202 -0.5299
 4256TIP3    H112725   3.036   6.686   5.484 -1.4838  0.2891 -0.9638
 4256TIP3    H212726   3.148   6.753   5.407  1.4124 -2.0582  0.9591
 4257TIP3   OH212727   5.702   2.550   1.097 -0.1228  0.2823  0.2337
 4257TIP3    H112728   5.613   2.553   1.062  0.4617  1.3806 -1.2474
 4257TIP3    H212729   5.690   2.556   1.192 -1.6182  0.4622  0.0642
 4258TIP3   OH212730   7.099   5.496   6.074 -0.1808  0.1000 -0.0124
 4258TIP3    H112731   7.100   5.546   5.992 -1.2037  0.4783  0.1897
 4258TIP3    H212732   7.056   5.414   6.052 -2.4682  1.0564  0.5740
 4259TIP3   OH212733   3.207   7.565   5.611 -0.4125 -0.0151  0.3865
 4259TIP3    H112734   3.302   7.563   5.603 -0.4979 -0.7617 -0.6593
 4259TIP3    H212735   3.176   7.502   5.546 -1.4818 -3.1323  3.5808
 4260TIP3   OH212736   2.269   7.536   4.206 -0.2299  0.5295 -0.1684
 4260TIP3    H112737   2.273   7.548   4.301 -0.0857 -0.3091 -0.0667
 4260TIP3    H212738   2.187   7.579   4.180  0.0001  1.2480  0.2517
 4261TIP3   OH212739   1.836   3.192   3.983 -0.0344 -0.5188 -0.4691
 4261TIP3    H112740   1.806   3.141   3.908 -1.1380 -0.0489 -0.3600
 4261TIP3    H212741   1.786   3.273   3.978 -1.1126 -1.0114  1.5121
 4262TIP3   OH212742   5.278   1.903   1.837 -0.2435  0.3842 -0.0346
 4262TIP3    H112743   5.187   1.924   1.857 -0.7616  0.6707 -2.4412
 4262TIP3    H212744   5.275   1.817   1.795  0.4485  0.8773 -1.1418
 4263TIP3   OH212745   3.168   1.077   3.781 -0.1082  0.0533 -0.4731
 4263TIP3    H112746   3.240   1.135   3.806 -0.0268 -0.2395 -0.0130
 4263TIP3    H212747   3.115   1.130   3.722 -0.2203  0.7161  0.1984
 4264TIP3   OH212748   2.816   1.509   3.676 -0.0906 -0.2319 -0.1478
 4264TIP3    H112749   2.783   1.483   3.761 -0.4111  0.9522  0.1175
 4264TIP3    H212750   2.908   1.529   3.691 -0.5523  1.7163  0.3657
 4265TIP3   OH212751   8.204   5.833   2.773 -0.4420  0.2987  0.3215
 4265TIP3    H112752   8.179   5.873   2.856 -0.4676  0.1922  0.3652
 4265TIP3    H212753   8.194   5.903   2.709 -0.2032  0.4449  0.4442
 4266TIP3   OH212754   7.448   3.330   3.576 -0.2225  0.5068  0.9190
 4266TIP3    H112755   7.481   3.391   3.642 -0.5319  0.2904  1.2786
 4266TIP3    H212756   7.512   3.259   3.575 -1.7443 -1.0337  3.2288
 4267TIP3   OH212757   6.282   0.248   2.531 -0.2106 -0.1024 -0.2574
 4267TIP3    H112758   6.369   0.274   2.501 -0.5643  1.4526  0.0316
 4267TIP3    H212759   6.244   0.203   2.455  0.1859  0.7663 -0.9939
 4268TIP3   OH212760   1.133   4.523   6.477  0.2099 -0.2876 -0.5612
 4268TIP3    H112761   1.079   4.497   6.552  0.5462  1.7249  0.4375
 4268TIP3    H212762   1.213   4.557   6.515 -0.1491  2.0510 -1.7087
 4269TIP3   OH212763   6.386   6.400   6.010 -0.4461  0.6504  0.1881
 4269TIP3    H112764   6.396   6.435   5.922 -0.4122 -0.6819 -0.3680
 4269TIP3    H212765   6.340   6.317   5.998 -1.1897  0.8418  1.5188
 4270TIP3   OH212766   3.737   5.718   1.016  0.1047 -0.3286 -0.4835
 4270TIP3    H112767   3.713   5.676   0.933  1.2274 -0.6697 -0.6625
 4270TIP3    H212768   3.787   5.651   1.062 -1.1896 -0.4184  0.8449
 4271TIP3   OH212769   7.758   1.728   3.277 -0.2146 -0.0283 -0.4560
 4271TIP3    H112770   7.746   1.736   3.182 -0.8393  1.5882 -0.2634
 4271TIP3    H212771   7.814   1.651   3.287 -1.7670 -1.4722 -2.0153
 4272TIP3   OH212772   6.328   4.573   0.898 -0.1622 -0.6742 -0.0344
 4272TIP3    H112773   6.415   4.563   0.862 -0.3683  2.6335 -1.8069
 4272TIP3    H212774   6.275   4.606   0.826 -2.0234  0.6705  1.8135
 4273TIP3   OH212775   5.407   7.747   4.493  0.5114  0.1100  0.2559
 4273TIP3    H112776   5.502   7.741   4.487  0.5203  0.4490 -0.0148
 4273TIP3    H212777   5.375   7.666   4.453  0.6795  0.1593  0.0213
 4274TIP3   OH212778   7.066   4.274   0.739 -0.4237 -0.0248  0.3370
 4274TIP3    H112779   7.103   4.186   0.750 -0.0560  0.2372  1.2376
 4274TIP3    H212780   7.142   4.329   0.718 -0.5741  0.1821  0.3339
 4275TIP3   OH212781   2.338   2.715   1.622  0.4398 -0.0663  0.0424
 4275TIP3    H112782   2.397   2.732   1.548  0.9023 -0.2654  0.3571
 4275TIP3    H212783   2.379   2.762   1.695  0.4511 -0.5813  0.3696
 4276TIP3   OH212784   1.367   3.062   1.282  0.0539  0.2017 -0.2938
 4276TIP3    H112785   1.427   2.997   1.245  0.5541  0.7176 -0.4088
 4276TIP3    H212786   1.413   3.145   1.273  0.7548  0.2422  2.5488
 4277TIP3   OH212787   6.538   4.902   6.757 -0.3475 -0.2766  0.4828
 4277TIP3    H112788   6.548   4.872   6.666  3.2251 -0.5159  0.8114
 4277TIP3    H212789   6.523   4.996   6.749 -1.9298 -0.5625 -0.3439
 4278TIP3   OH212790   5.353   0.505   4.795 -0.2523 -0.3408  0.3364
 4278TIP3    H112791   5.359   0.551   4.879  1.5096  0.3529 -0.1197
 4278TIP3    H212792   5.415   0.551   4.738 -3.1187  0.7151 -2.1479
 4279TIP3   OH212793   4.225   4.036   6.593  0.1465 -0.6273 -0.8262
 4279TIP3    H112794   4.149   4.038   6.652  1.1419  3.6990  0.6656
 4279TIP3    H212795   4.195   4.081   6.514  1.0198  0.9197 -0.3109
 4280TIP3   OH212796   6.708   7.200   2.502 -0.2530 -0.3092 -0.5171
 4280TIP3    H112797   6.638   7.262   2.523 -3.0719 -2.4382 -2.8310
 4280TIP3    H212798   6.742   7.231   2.418  0.5807 -0.1343 -0.1229
 4281TIP3   OH212799   0.461   0.187   4.198  0.0589  0.0192 -0.1067
 4281TIP3    H112800   0.465   0.209   4.291 -0.6288  2.3387 -0.5547
 4281TIP3    H212801   0.368   0.174   4.181  0.1997 -0.5635 -0.4480
 4282TIP3   OH212802   6.528   2.210   2.455  0.2609  0.1293  0.1106
 4282TIP3    H112803   6.437   2.188   2.475  0.3396  0.8297  1.3378
 4282TIP3    H212804   6.579   2.142   2.500  0.3470 -0.6063 -1.0624
 4283TIP3   OH212805   4.812   6.603   2.036 -0.3056  0.2497 -0.2615
 4283TIP3    H112806   4.738   6.638   1.988  1.3449  1.1693 -2.2903
 4283TIP3    H212807   4.826   6.665   2.107 -0.0257  1.4173 -1.3082
 4284TIP3   OH212808   3.852   6.445   1.776 -0.3279  0.0146  0.4011
 4284TIP3    H112809   3.898   6.400   1.847  0.6886  0.7692  0.2434
 4284TIP3    H212810   3.895   6.416   1.696 -1.3359 -0.6741  0.0841
 4285TIP3   OH212811   7.875   3.336   3.425 -0.1638 -0.1018 -0.1070
 4285TIP3    H112812   7.830   3.262   3.384  0.0092 -0.3353  0.1212
 4285TIP3    H212813   7.968   3.316   3.415  0.0521  1.8907 -3.4221
 4286TIP3   OH212814   0.698   3.523   6.473 -0.0496 -0.1327 -0.0933
 4286TIP3    H112815   0.696   3.545   6.567 -0.7191  2.7315 -0.6841
 4286TIP3    H212816   0.617   3.476   6.458  0.9327 -2.3357  1.0637
 4287TIP3   OH212817   8.176   7.003   3.534  0.2696 -0.4457  1.0510
 4287TIP3    H112818   8.135   7.066   3.592  0.9019  0.5557  0.4414
 4287TIP3    H212819   8.124   6.923   3.544 -1.7419  0.7209  0.4046
 4288TIP3   OH212820   5.980   1.650   0.035  0.1246  0.0179 -0.3887
 4288TIP3    H112821   5.935   1.729   0.006 -0.1683 -0.4443 -1.2359
 4288TIP3    H212822   6.073   1.669   0.022  0.1568  0.7435  0.7732
 4289TIP3   OH212823   4.333   6.101   6.267  0.1076 -0.5912 -0.2211
 4289TIP3    H112824   4.392   6.079   6.195  3.1099 -0.0792  1.9082
 4289TIP3    H212825   4.314   6.195   6.255  2.0399 -0.0624  0.5315
 4290TIP3   OH212826   7.833   6.272   4.452  0.0673 -0.3293 -0.1157
 4290TIP3    H112827   7.821   6.364   4.479  1.4309 -0.2220  0.1848
 4290TIP3    H212828   7.912   6.273   4.399  0.4667 -1.4384  0.4377
 4291TIP3   OH212829   6.771   4.143   0.995 -0.4485 -0.4337  0.9614
 4291TIP3    H112830   6.753   4.060   1.040  0.9087 -0.5341  1.3531
 4291TIP3    H212831   6.800   4.117   0.908 -2.4235 -0.2582  0.1930
 4292TIP3   OH212832   7.677   1.213   1.159 -0.9142 -0.0775 -0.5543
 4292TIP3    H112833   7.762   1.258   1.154 -1.9978  2.5817  1.7701
 4292TIP3    H212834   7.617   1.270   1.110 -1.7169 -0.8865 -0.5434
 4293TIP3   OH212835   3.018   6.976   1.243 -0.1769 -0.1587 -0.1107
 4293TIP3    H112836   2.988   6.941   1.159  1.3447 -1.1394 -0.2862
 4293TIP3    H212837   2.983   7.065   1.246 -0.6048 -0.2486 -1.6018
 4294TIP3   OH212838   4.652   4.475   6.029  0.6128 -0.0805  0.0119
 4294TIP3    H112839   4.716   4.543   6.048 -1.0710  1.4881  0.2851
 4294TIP3    H212840   4.570   4.508   6.065 -0.1266 -2.6312  0.8724
 4295TIP3   OH212841   0.063   4.324   5.432  0.3587 -0.2903  0.5988
 4295TIP3    H112842   0.073   4.418   5.449  0.2373  0.3321 -2.2376
 4295TIP3    H212843  -0.009   4.297   5.490 -1.5373  2.0368 -0.4605
 4296TIP3   OH212844   0.622   0.571   2.285 -0.2353 -0.4434 -0.2174
 4296TIP3    H112845   0.613   0.500   2.222 -1.1525 -2.3497  1.8885
 4296TIP3    H212846   0.686   0.539   2.348  0.5444  1.3202 -0.0534
 4297TIP3   OH212847   2.084   6.698   1.902 -0.5971 -0.2082 -0.2704
 4297TIP3    H112848   2.018   6.636   1.933 -2.0701  1.3989 -0.0297
 4297TIP3    H212849   2.045   6.736   1.823  1.7040 -1.8901 -2.3984
 4298TIP3   OH212850   1.645   0.819   2.898  0.3430  0.1039 -0.3940
 4298TIP3    H112851   1.639   0.802   2.992 -1.9688  0.1651 -0.4567
 4298TIP3    H212852   1.675   0.736   2.860 -0.2317 -0.4153  0.2749
 4299TIP3   OH212853   5.926   7.745   6.302 -0.1312 -0.0479 -0.2900
 4299TIP3    H112854   5.920   7.785   6.215  0.2516  2.9063  0.9018
 4299TIP3    H212855   6.020   7.726   6.312  0.0755  1.0140 -0.0189
 4300TIP3   OH212856   7.700   0.266   4.970 -0.2306 -0.1220  0.1944
 4300TIP3    H112857   7.675   0.351   4.933 -1.8344 -0.3036  0.7852
 4300TIP3    H212858   7.654   0.262   5.054  1.4692 -0.7213  1.1508
 4301TIP3   OH212859   8.167   4.863   2.387  0.1450 -0.2359  0.1378
 4301TIP3    H112860   8.165   4.957   2.404  0.0153 -0.1749 -0.1951
 4301TIP3    H212861   8.241   4.831   2.438 -0.2910 -0.0829  0.8859
 4302TIP3   OH212862   5.560   2.584   0.058 -0.5880 -0.4753  0.2670
 4302TIP3    H112863   5.513   2.522   0.001  0.9196 -1.0334 -0.4277
 4302TIP3    H212864   5.647   2.591   0.019 -0.0429  0.4500  1.5724
 4303TIP3   OH212865   3.237   2.720   0.793 -0.1157 -0.0462  0.2158
 4303TIP3    H112866   3.249   2.690   0.703  0.6489 -1.7352  0.8380
 4303TIP3    H212867   3.151   2.687   0.819 -0.4216  0.6070  0.0616
 4304TIP3   OH212868   7.729   5.378   0.119  0.1286 -0.3210  0.0182
 4304TIP3    H112869   7.673   5.332   0.181 -0.1653  0.3238  0.2456
 4304TIP3    H212870   7.818   5.364   0.152  0.1073 -1.3564 -0.3504
 4305TIP3   OH212871   6.186   0.568   3.218  0.4915 -0.3515  0.2689
 4305TIP3    H112872   6.229   0.486   3.242  1.9893  0.7035  1.4188
 4305TIP3    H212873   6.238   0.602   3.146 -0.8052 -0.9074 -0.9827
 4306TIP3   OH212874   6.008   4.279   0.298  0.1013  0.6786 -0.0345
 4306TIP3    H112875   6.084   4.262   0.354 -0.3630  1.0658  0.7235
 4306TIP3    H212876   5.948   4.207   0.315  0.2068  0.4816 -0.4795
 4307TIP3   OH212877   7.169   6.068   3.752 -0.5218  0.4456 -0.2882
 4307TIP3    H112878   7.148   6.160   3.765  1.7457  0.9457  0.1970
 4307TIP3    H212879   7.227   6.045   3.825  1.3552 -0.5083 -1.9545
 4308TIP3   OH212880   0.136   5.717   0.319  0.2608 -0.0888  0.0196
 4308TIP3    H112881   0.044   5.707   0.295  0.3893  2.7374 -2.1788
 4308TIP3    H212882   0.179   5.639   0.285 -1.2950 -1.5758  1.3182
 4309TIP3   OH212883   5.877   4.359   6.503 -0.0870 -0.2690  0.1108
 4309TIP3    H112884   5.842   4.271   6.488 -0.0910 -0.0206 -1.4817
 4309TIP3    H212885   5.963   4.358   6.461  1.1569 -0.3384  2.4867
 4310TIP3   OH212886   7.660   5.085   1.439 -0.0084  0.2979  0.4019
 4310TIP3    H112887   7.637   5.021   1.372 -0.7823 -0.8103  1.6573
 4310TIP3    H212888   7.600   5.158   1.424  1.9617  1.5304 -2.0493
 4311TIP3   OH212889   0.133   7.794   6.307  0.0409  0.0646 -0.2167
 4311TIP3    H112890   0.098   7.876   6.272  1.1565  0.5325 -0.2921
 4311TIP3    H212891   0.127   7.732   6.235  2.3597  1.0278 -1.3575
 4312TIP3   OH212892   6.954   6.388   5.464 -0.3387  0.1338  0.1259
 4312TIP3    H112893   6.978   6.305   5.505  0.5412 -0.2014 -1.0252
 4312TIP3    H212894   6.889   6.365   5.399  1.4186 -0.0179 -1.6672
 4313TIP3   OH212895   4.545   0.173   3.600  0.1453 -0.6310  0.0169
 4313TIP3    H112896   4.570   0.241   3.538  1.8136  0.6486  1.9592
 4313TIP3    H212897   4.628   0.141   3.636 -0.6864 -2.5311  0.3823
 4314TIP3   OH212898   2.105   3.236   6.166 -0.0075  0.0493 -0.1190
 4314TIP3    H112899   2.024   3.192   6.140 -0.3976  0.5009  0.2951
 4314TIP3    H212900   2.175   3.178   6.135 -0.4980 -1.8303  1.9729
 4315TIP3   OH212901   7.815   4.263   4.226  0.0278  0.2967 -0.0983
 4315TIP3    H112902   7.834   4.320   4.301 -0.4822 -0.0691  0.3170
 4315TIP3    H212903   7.766   4.318   4.165  0.5851  0.6408 -0.2399
 4316TIP3   OH212904   5.623   4.442   3.424  0.0242 -0.0885 -0.3343
 4316TIP3    H112905   5.543   4.452   3.371  0.4061 -0.2131 -0.9480
 4316TIP3    H212906   5.694   4.443   3.360  0.4806 -0.4945  0.1571
 4317TIP3   OH212907   0.806   4.621   1.250  0.5735 -0.0483  0.2943
 4317TIP3    H112908   0.811   4.527   1.233  0.2122 -0.0525  0.1905
 4317TIP3    H212909   0.864   4.636   1.325  1.6474 -0.1425 -0.4980
 4318TIP3   OH212910   8.187   0.833   4.791  0.1285 -0.1270 -0.2790
 4318TIP3    H112911   8.208   0.926   4.801 -1.1956  0.1813 -0.0996
 4318TIP3    H212912   8.098   0.833   4.756 -0.9313 -1.3184  2.1729
 4319TIP3   OH212913   5.721   1.491   6.176 -0.6329 -0.3164  0.7316
 4319TIP3    H112914   5.796   1.481   6.118  0.8583  0.7120  2.3835
 4319TIP3    H212915   5.664   1.553   6.131  1.2366  1.7036  0.9708
 4320TIP3   OH212916   1.749   4.559   3.355 -0.2548 -0.2071  0.2703
 4320TIP3    H112917   1.747   4.548   3.260 -0.7034  0.3206  0.2092
 4320TIP3    H212918   1.716   4.477   3.390  0.2296 -0.5262 -0.0177
 4321TIP3   OH212919   0.119   6.909   3.216  0.6170 -0.1567 -0.3395
 4321TIP3    H112920   0.151   6.926   3.127 -1.0986 -0.1697 -0.9930
 4321TIP3    H212921   0.041   6.854   3.204  0.1925  0.0627  1.1591
 4322TIP3   OH212922   3.460   2.110   1.938 -0.1106 -0.3601  0.6632
 4322TIP3    H112923   3.369   2.102   1.911 -0.1722 -0.5446  0.9206
 4322TIP3    H212924   3.484   2.023   1.970  0.2582 -0.4027  0.2889
 4323TIP3   OH212925   3.279   2.693   3.220 -0.1533  0.1343 -0.0816
 4323TIP3    H112926   3.260   2.650   3.137 -0.0058  1.5737 -0.8904
 4323TIP3    H212927   3.194   2.707   3.261 -0.1552 -1.6441  0.5961
 4324TIP3   OH212928   0.142   0.967   5.023  0.2786  0.1750  0.1809
 4324TIP3    H112929   0.141   1.058   4.991 -1.7925  0.5172  1.0719
 4324TIP3    H212930   0.199   0.921   4.961  0.4217  1.8295 -0.9942
 4325TIP3   OH212931   0.233   6.402   0.754 -0.2268 -0.6165 -0.5123
 4325TIP3    H112932   0.317   6.370   0.785 -0.2610 -0.3691 -0.1534
 4325TIP3    H212933   0.171   6.332   0.776 -0.3253 -0.2520  0.4031
 4326TIP3   OH212934   0.706   7.081   4.867  0.4303 -0.7966 -0.0176
 4326TIP3    H112935   0.768   7.017   4.900 -1.1870 -2.2429  0.3400
 4326TIP3    H212936   0.622   7.056   4.905 -0.0920  2.2479  1.0815
 4327TIP3   OH212937   2.559   1.145   1.883 -0.0813 -0.2273  0.0444
 4327TIP3    H112938   2.640   1.188   1.909  0.1835 -0.8993  0.3777
 4327TIP3    H212939   2.497   1.167   1.952  0.0641 -0.4001  0.2338
 4328TIP3   OH212940   3.998   6.405   2.445 -0.2578  0.1805 -0.2542
 4328TIP3    H112941   4.090   6.383   2.434 -0.0125  2.0023 -2.4179
 4328TIP3    H212942   3.952   6.321   2.437  1.1403 -0.7153  0.6207
 4329TIP3   OH212943   2.104   6.337   2.758 -0.5006  1.0020 -0.0784
 4329TIP3    H112944   2.073   6.387   2.834 -1.7448 -1.2360  0.9818
 4329TIP3    H212945   2.139   6.256   2.795 -0.8775 -0.0203 -1.8671
 4330TIP3   OH212946   0.583   5.765   2.069  0.0176 -0.4803  0.5116
 4330TIP3    H112947   0.649   5.702   2.040 -0.0232  0.0647 -0.8271
 4330TIP3    H212948   0.621   5.850   2.048 -0.5714 -0.1125  0.9249
 4331TIP3   OH212949   1.299   0.776   6.180  0.1920  0.5663 -0.3244
 4331TIP3    H112950   1.209   0.757   6.205  0.3011 -0.2432 -0.5006
 4331TIP3    H212951   1.312   0.868   6.202 -1.0260  1.0079 -1.3017
 4332TIP3   OH212952   2.676   5.139   3.355 -0.4496  0.3272  0.4014
 4332TIP3    H112953   2.763   5.170   3.382  0.2282  1.1844 -2.4394
 4332TIP3    H212954   2.691   5.050   3.325 -0.3533  0.7653 -0.8855
 4333TIP3   OH212955   8.189   0.776   2.554  0.3082 -0.0354  0.0291
 4333TIP3    H112956   8.112   0.786   2.497 -1.2174 -0.6823  1.8492
 4333TIP3    H212957   8.218   0.866   2.569 -1.6825  0.4793  1.2740
 4334TIP3   OH212958   5.364   2.211   4.457  0.3631 -0.1356  0.0728
 4334TIP3    H112959   5.303   2.224   4.384 -0.2214 -1.7401  0.2358
 4334TIP3    H212960   5.413   2.293   4.462 -0.3287  0.4071 -1.4224
 4335TIP3   OH212961   2.932   1.854   4.185  0.2505  0.2468 -0.1921
 4335TIP3    H112962   2.860   1.791   4.193  0.9143 -0.4650  0.3217
 4335TIP3    H212963   2.902   1.916   4.119 -1.9936  1.5595  1.8847
 4336TIP3   OH212964   3.951   2.469   5.673  0.2328  0.4087 -0.6836
 4336TIP3    H112965   3.983   2.389   5.632  0.0220  0.6920 -1.4094
 4336TIP3    H212966   4.022   2.495   5.732 -0.1446 -0.9106  0.4242
 4337TIP3   OH212967   4.620   7.600   2.393  0.2445 -0.0361 -0.2540
 4337TIP3    H112968   4.605   7.508   2.369  0.6643 -0.4501  1.0002
 4337TIP3    H212969   4.533   7.634   2.412  0.1685 -0.4283  0.1190
 4338TIP3   OH212970   1.807   7.005   5.368  0.1985  0.9988 -0.7666
 4338TIP3    H112971   1.876   7.072   5.362  1.6614 -0.5272 -1.8863
 4338TIP3    H212972   1.803   6.984   5.462  0.9630  1.4242 -0.6213
 4339TIP3   OH212973   6.354   5.692   1.211 -0.1175 -0.2070 -0.1863
 4339TIP3    H112974   6.362   5.617   1.152  1.6998 -0.5936  0.4962
 4339TIP3    H212975   6.423   5.752   1.184 -1.1164  0.9640 -0.2831
 4340TIP3   OH212976   6.719   3.287   0.888 -0.1133 -0.2868 -0.8303
 4340TIP3    H112977   6.787   3.341   0.927 -1.7812  1.2857 -0.0099
 4340TIP3    H212978   6.763   3.203   0.870  1.2004 -0.5532  2.8227
 4341TIP3   OH212979   5.071   5.179   5.351 -0.0981  0.6573 -0.1171
 4341TIP3    H112980   5.062   5.136   5.436  1.0344  1.7934  0.5924
 4341TIP3    H212981   5.051   5.109   5.288  0.0169 -0.4646  1.0392
 4342TIP3   OH212982   4.491   7.074   5.586  0.7468 -0.2371 -0.6726
 4342TIP3    H112983   4.463   7.136   5.654 -1.6430 -0.0164 -1.7554
 4342TIP3    H212984   4.504   6.991   5.633 -0.3727  0.0222  0.1305
 4343TIP3   OH212985   2.411   5.043   0.634  0.2696 -0.9102 -0.3222
 4343TIP3    H112986   2.387   5.135   0.645 -0.1057 -0.9726 -0.6203
 4343TIP3    H212987   2.470   5.043   0.558  2.5503 -0.5315  1.3458
 4344TIP3   OH212988   8.197   3.830   1.728  0.2610 -0.1981  0.1353
 4344TIP3    H112989   8.252   3.894   1.682 -1.1891 -0.9310 -2.8731
 4344TIP3    H212990   8.127   3.883   1.768 -0.5486  0.2340 -1.7557
 4345TIP3   OH212991   1.506   3.062   0.170 -0.1991  0.7020  0.3576
 4345TIP3    H112992   1.562   3.027   0.101 -1.7209  1.7915 -1.5439
 4345TIP3    H212993   1.533   3.154   0.179 -0.5191  0.7684  0.6694
 4346TIP3   OH212994   4.472   3.108   1.802 -0.1624  0.3118 -0.4866
 4346TIP3    H112995   4.538   3.043   1.779  0.8349  0.1133  2.5246
 4346TIP3    H212996   4.414   3.063   1.864  0.1742  2.0428  1.1759
 4347TIP3   OH212997   2.307   7.645   6.331 -0.2429 -0.3510 -0.4396
 4347TIP3    H112998   2.333   7.564   6.285  0.4747 -0.3928  0.0127
 4347TIP3    H212999   2.320   7.714   6.266  1.2424 -0.3490 -0.1770
 4348TIP3   OH213000   4.618   5.656   5.280 -0.9128  0.5975  0.0575
 4348TIP3    H113001   4.622   5.562   5.259 -0.4573  0.9081 -1.3628
 4348TIP3    H213002   4.543   5.688   5.229 -0.3686  1.2160 -0.3616
 4349TIP3   OH213003   7.469   1.955   1.872 -0.5142 -0.1065 -0.0863
 4349TIP3    H113004   7.529   1.907   1.815 -2.4943 -1.0256 -1.5134
 4349TIP3    H213005   7.522   2.026   1.908  1.2078 -0.3860 -1.8717
 4350TIP3   OH213006   5.199   1.432   0.963  0.1781  0.4434  0.6705
 4350TIP3    H113007   5.136   1.364   0.987  0.2054  0.9396  2.3176
 4350TIP3    H213008   5.260   1.434   1.036 -0.5452  3.0638  1.3328
 4351TIP3   OH213009   1.225   4.836   0.772  0.2114  0.7401  0.4641
 4351TIP3    H113010   1.222   4.910   0.712 -1.6681  2.5350  2.6055
 4351TIP3    H213011   1.134   4.822   0.798  0.8689 -0.4573  2.3038
 4352TIP3   OH213012   3.895   0.418   6.162 -0.2167 -0.2813 -0.2293
 4352TIP3    H113013   3.803   0.445   6.161 -0.8300 -2.1794  0.2451
 4352TIP3    H213014   3.915   0.394   6.071 -0.1635  0.1743 -0.3408
 4353TIP3   OH213015   6.905   2.242   0.334 -0.1001 -0.4302 -0.3393
 4353TIP3    H113016   6.880   2.220   0.424  0.1246 -0.9220 -0.3928
 4353TIP3    H213017   6.992   2.281   0.342 -0.5801  0.6407 -0.2243
 4354TIP3   OH213018   2.276   6.360   2.507  0.1453 -0.1964  0.0161
 4354TIP3    H113019   2.216   6.332   2.576 -0.7776  0.6381 -0.4436
 4354TIP3    H213020   2.260   6.299   2.435 -0.6490  0.4458 -0.3580
 4355TIP3   OH213021   4.172   1.554   1.622  0.2255  0.5252  0.2085
 4355TIP3    H113022   4.248   1.609   1.642 -0.1887  1.8256 -1.5740
 4355TIP3    H213023   4.167   1.554   1.527 -1.0310 -0.9308  0.2473
 4356TIP3   OH213024   3.161   4.763   5.953  0.0721  0.2076 -0.4923
 4356TIP3    H113025   3.201   4.695   5.899 -0.3247 -2.4542  2.2877
 4356TIP3    H213026   3.235   4.802   6.000 -0.0006 -1.2487  0.9310
 4357TIP3   OH213027   7.719   0.897   3.729 -0.5151 -0.1825  0.2934
 4357TIP3    H113028   7.775   0.836   3.777 -0.4248 -0.1077  0.2837
 4357TIP3    H213029   7.708   0.856   3.643  1.9267  1.1428 -0.7644
 4358TIP3   OH213030   2.636   5.870   3.659 -0.0445  1.1257 -0.2896
 4358TIP3    H113031   2.618   5.789   3.610 -1.6463  1.4404 -0.2722
 4358TIP3    H213032   2.662   5.839   3.746  1.3169  0.6009 -0.8525
 4359TIP3   OH213033   0.131   2.117   1.741 -0.6976 -0.3966 -0.1840
 4359TIP3    H113034   0.076   2.131   1.818 -0.8196  2.6904 -0.7036
 4359TIP3    H213035   0.072   2.133   1.667  0.3639  0.8150 -0.7967
 4360TIP3   OH213036   6.695   5.947   1.326 -0.1431 -0.1506  0.1661
 4360TIP3    H113037   6.682   6.022   1.267 -1.3451 -0.3893  0.0911
 4360TIP3    H213038   6.789   5.935   1.329 -0.0509 -0.5742 -2.2715
 4361TIP3   OH213039   6.907   7.277   4.873  0.2933 -0.4392  0.4949
 4361TIP3    H113040   6.900   7.251   4.965  0.7690  0.9465  0.9537
 4361TIP3    H213041   7.001   7.287   4.858  0.1257  1.6580  0.5776
 4362TIP3   OH213042   5.660   2.554   4.146 -0.6425 -0.2235  0.5324
 4362TIP3    H113043   5.668   2.561   4.241  1.1335 -2.0149  0.5913
 4362TIP3    H213044   5.745   2.584   4.113 -0.9286 -0.4576 -0.4444
 4363TIP3   OH213045   6.910   6.159   2.870 -0.5133  0.0765  0.9656
 4363TIP3    H113046   6.890   6.239   2.822 -0.9770  0.3217  1.5556
 4363TIP3    H213047   6.987   6.180   2.923  0.2101 -0.3005  0.0817
 4364TIP3   OH213048   1.846   4.924   6.410 -0.7003  0.5396 -0.6793
 4364TIP3    H113049   1.799   4.841   6.406 -1.7766  1.0032  1.2137
 4364TIP3    H213050   1.807   4.977   6.341  0.4570 -0.6647 -2.3783
 4365TIP3   OH213051   4.820   4.010   0.629 -0.1038  0.0427 -0.2892
 4365TIP3    H113052   4.809   3.989   0.722 -0.2649 -0.5542 -0.4382
 4365TIP3    H213053   4.762   3.949   0.584 -2.5128  2.4235 -0.6206
 4366TIP3   OH213054   5.590   5.547   4.655 -0.5183  0.0950  0.1520
 4366TIP3    H113055   5.526   5.571   4.722 -0.2898  0.6936  0.1590
 4366TIP3    H213056   5.667   5.520   4.706 -0.6839 -0.4062  0.1405
 4367TIP3   OH213057   7.977   4.348   1.234 -0.5569  0.0283 -0.5431
 4367TIP3    H113058   7.908   4.414   1.227 -1.0766 -0.6522 -3.1576
 4367TIP3    H213059   8.057   4.399   1.248 -1.1861  1.0619 -0.5576
 4368TIP3   OH213060   6.220   2.201   5.843 -0.4368  0.0008 -0.8086
 4368TIP3    H113061   6.267   2.124   5.810 -2.0467 -0.9988 -0.8546
 4368TIP3    H213062   6.171   2.233   5.767  1.3548  2.0589 -1.2285
 4369TIP3   OH213063   5.723   1.102   5.515  0.6050 -0.1855 -0.1618
 4369TIP3    H113064   5.731   1.020   5.562 -0.4812 -0.7461 -0.9029
 4369TIP3    H213065   5.684   1.162   5.579  0.8287 -0.4178  0.1973
 4370TIP3   OH213066   0.693   7.117   3.759  0.7255  0.7205  0.3945
 4370TIP3    H113067   0.699   7.108   3.663  1.6962  1.0742  0.4148
 4370TIP3    H213068   0.627   7.185   3.772  1.0662  1.1395 -0.0443
 4371TIP3   OH213069   3.985   3.307   2.494 -0.0761 -0.2405  0.7742
 4371TIP3    H113070   3.918   3.362   2.454  0.4933  0.1430  0.3353
 4371TIP3    H213071   4.016   3.251   2.423 -0.8170 -1.3066  1.2660
 4372TIP3   OH213072   0.733   7.514   1.912  0.3100  0.1254  0.0104
 4372TIP3    H113073   0.804   7.452   1.929  1.5602  0.8292 -2.3188
 4372TIP3    H213074   0.740   7.578   1.983  0.8081 -0.8288  0.8416
 4373TIP3   OH213075   4.275   2.821   4.288  0.0024 -0.4511  0.2708
 4373TIP3    H113076   4.216   2.808   4.362 -0.3466  0.1082  0.0989
 4373TIP3    H213077   4.267   2.741   4.236 -0.0443 -0.6847  0.6319
 4374TIP3   OH213078   5.536   6.957   3.622 -0.0400 -0.2127 -0.1796
 4374TIP3    H113079   5.549   6.870   3.584  0.4433  0.0822 -0.7041
 4374TIP3    H213080   5.445   6.979   3.600  0.7113  0.6855 -2.7831
 4375TIP3   OH213081   0.523   4.608   0.610 -0.1415 -0.2217  0.0392
 4375TIP3    H113082   0.558   4.628   0.697  0.5216 -0.3550 -0.1917
 4375TIP3    H213083   0.578   4.658   0.550 -0.1440 -0.6845 -0.3546
 4376TIP3   OH213084   2.686   6.388   0.507  0.1897 -0.3768 -0.3253
 4376TIP3    H113085   2.703   6.477   0.477  0.6346 -0.7824 -1.3444
 4376TIP3    H213086   2.672   6.396   0.601  1.4706  0.6054 -0.1987
 4377TIP3   OH213087   3.797   7.631   5.262 -0.2864 -0.0625 -0.1857
 4377TIP3    H113088   3.806   7.547   5.217  2.6403  1.1694 -2.2053
 4377TIP3    H213089   3.887   7.664   5.269 -1.3164  2.8114  0.7145
 4378TIP3   OH213090   3.471   7.256   0.622  0.1792  0.1303  0.2565
 4378TIP3    H113091   3.480   7.188   0.689  1.3311  1.0582  1.1045
 4378TIP3    H213092   3.521   7.224   0.547  1.7820  0.5140  1.0908
 4379TIP3   OH213093   4.621   1.552   3.351 -0.1886  0.1782  0.2453
 4379TIP3    H113094   4.538   1.506   3.339  0.4065 -0.7555 -0.4934
 4379TIP3    H213095   4.687   1.483   3.349  0.6026  0.8703  1.0861
 4380TIP3   OH213096   0.486   3.436   0.240  0.5489  0.3649  0.3459
 4380TIP3    H113097   0.400   3.474   0.223 -0.1036  0.4804  3.3940
 4380TIP3    H213098   0.546   3.510   0.241  0.8302  0.2551 -2.0788
 4381TIP3   OH213099   6.161   1.954   4.033  0.0493 -0.0164  0.1865
 4381TIP3    H113100   6.148   2.005   4.112 -0.1773  0.5949 -0.2344
 4381TIP3    H213101   6.089   1.890   4.034  0.6538 -0.7058  0.9906
 4382TIP3   OH213102   6.106   1.659   4.356  0.3726  0.4933  0.0684
 4382TIP3    H113103   6.085   1.571   4.326  1.3466  0.1909  0.2417
 4382TIP3    H213104   6.194   1.652   4.393 -0.9138  0.6674  3.5925
 4383TIP3   OH213105   6.219   2.887   2.294 -0.2296 -0.2424  0.0145
 4383TIP3    H113106   6.247   2.957   2.235  1.5329 -2.1515 -1.5783
 4383TIP3    H213107   6.199   2.814   2.236 -1.4990 -1.2756  1.6568
 4384TIP3   OH213108   0.050   1.954   3.210 -0.1722 -0.2281  0.7653
 4384TIP3    H113109   0.028   1.939   3.301 -0.4407 -1.7933  0.4768
 4384TIP3    H213110   0.061   2.049   3.202 -3.8108  0.4177  1.6138
 4385TIP3   OH213111   3.117   7.849   0.447 -0.3858 -0.9385 -0.3984
 4385TIP3    H113112   3.187   7.841   0.383  1.2436 -2.2923  1.4200
 4385TIP3    H213113   3.097   7.758   0.473 -0.9798 -0.4554  0.9707
 4386TIP3   OH213114   1.603   5.700   1.881 -0.0736  0.0152 -0.1198
 4386TIP3    H113115   1.661   5.772   1.905 -0.0338  0.0169 -0.2198
 4386TIP3    H213116   1.608   5.639   1.954  1.1640 -0.6691 -0.7537
 4387TIP3   OH213117   4.701   2.420   4.399  0.2760  0.0059 -0.0308
 4387TIP3    H113118   4.779   2.374   4.430  1.0635  2.0931  1.2970
 4387TIP3    H213119   4.632   2.396   4.462  0.5560  0.2867  0.3834
 4388TIP3   OH213120   8.096   7.624   1.850 -0.1379 -0.4307 -0.0976
 4388TIP3    H113121   8.163   7.556   1.841  1.4293  1.0281  0.3545
 4388TIP3    H213122   8.107   7.678   1.772 -0.6442 -0.0329  0.1057
 4389TIP3   OH213123   7.683   0.999   4.649  0.1250 -0.1384 -0.6390
 4389TIP3    H113124   7.735   1.065   4.602 -0.2944  0.8986  0.3225
 4389TIP3    H213125   7.623   0.965   4.582  1.1085 -0.3776 -1.4295
 4390TIP3   OH213126   5.281   4.787   3.072 -0.6634 -0.6062 -0.0221
 4390TIP3    H113127   5.234   4.705   3.052  0.0957 -0.4089 -2.9865
 4390TIP3    H213128   5.373   4.767   3.053 -0.5224  1.0070 -1.2245
 4391TIP3   OH213129   0.876   2.971   4.958 -0.1308  0.1469 -0.0011
 4391TIP3    H113130   0.967   2.983   4.985 -0.7155  1.0374  1.7110
 4391TIP3    H213131   0.832   2.939   5.037 -1.4010  0.2284 -0.6569
 4392TIP3   OH213132   1.757   5.994   0.491 -0.2160  0.1684 -0.0701
 4392TIP3    H113133   1.748   5.900   0.507  2.7274 -0.1977  0.1000
 4392TIP3    H213134   1.764   6.033   0.578  1.5895  0.0817 -0.1372
 4393TIP3   OH213135   0.888   2.050   5.287 -0.0342 -0.2361  0.0501
 4393TIP3    H113136   0.835   2.101   5.348 -1.3001 -0.2584 -0.9745
 4393TIP3    H213137   0.978   2.079   5.302 -0.4534  0.5721  1.1156
 4394TIP3   OH213138   6.654   5.157   1.105  0.0105  0.2312 -0.3965
 4394TIP3    H113139   6.572   5.155   1.155 -0.4439  1.4993 -1.0580
 4394TIP3    H213140   6.713   5.210   1.158  0.0330  0.2768 -0.4669
 4395TIP3   OH213141   4.337   3.210   4.981  0.2435 -0.1743 -0.0516
 4395TIP3    H113142   4.244   3.222   4.962  0.1075 -1.4474 -0.2464
 4395TIP3    H213143   4.365   3.294   5.018 -0.6756  0.6501 -1.1675
 4396TIP3   OH213144   5.987   7.134   1.172 -0.3728  0.4110  0.0143
 4396TIP3    H113145   6.053   7.088   1.224 -0.1364 -0.0505 -0.6818
 4396TIP3    H213146   5.979   7.082   1.093 -1.8142  0.2788  0.2220
 4397TIP3   OH213147   5.095   4.189   2.447  0.0932  0.3561  0.3760
 4397TIP3    H113148   5.178   4.176   2.494  0.7579  0.8481 -0.6167
 4397TIP3    H213149   5.103   4.134   2.368 -0.3294  0.7615  0.0455
 4398TIP3   OH213150   6.967   3.048   3.096 -0.0826 -0.3747 -0.2102
 4398TIP3    H113151   7.052   3.023   3.131 -0.2089  0.3508  0.6499
 4398TIP3    H213152   6.959   3.141   3.117 -0.8586 -0.3081 -0.7587
 4399TIP3   OH213153   2.162   6.179   5.005 -0.0853 -0.2347 -0.0889
 4399TIP3    H113154   2.100   6.128   4.953 -0.3845  1.4245 -1.4751
 4399TIP3    H213155   2.235   6.119   5.022  0.5150 -0.6435 -3.3757
 4400TIP3   OH213156   2.115   4.774   0.332  0.4808  0.5714  0.2400
 4400TIP3    H113157   2.167   4.854   0.330 -0.6552  1.3728  1.0448
 4400TIP3    H213158   2.083   4.764   0.243 -0.4170  1.7676  0.3989
 4401TIP3   OH213159   0.552   3.301   3.325 -0.3298  0.1979  0.5811
 4401TIP3    H113160   0.600   3.295   3.242 -0.9434  0.3654  0.2023
 4401TIP3    H213161   0.544   3.395   3.341  0.3938  0.1639  1.2021
 4402TIP3   OH213162   8.193   1.461   2.986 -0.5943 -0.0105 -0.5758
 4402TIP3    H113163   8.238   1.467   3.070 -1.8279  0.6517  0.0659
 4402TIP3    H213164   8.204   1.370   2.959  0.4817 -0.0418 -0.0910
 4403TIP3   OH213165   0.631   3.163   1.754  0.5029  0.5367 -0.0920
 4403TIP3    H113166   0.617   3.091   1.692  1.3264 -0.4451  0.8139
 4403TIP3    H213167   0.725   3.179   1.751  0.9629 -1.0384  2.4239
 4404TIP3   OH213168   7.226   6.810   4.909 -0.0033  0.0791  0.4998
 4404TIP3    H113169   7.134   6.789   4.928 -0.0630 -0.3081 -0.1766
 4404TIP3    H213170   7.245   6.885   4.964 -0.4106 -0.4966  1.4591
 4405TIP3   OH213171   4.665   4.749   1.110 -0.3149 -0.4547 -0.4189
 4405TIP3    H113172   4.599   4.680   1.119  1.3197 -1.8911  1.4064
 4405TIP3    H213173   4.738   4.706   1.066 -0.0912  0.7939 -1.3181
 4406TIP3   OH213174   2.817   5.101   1.742  0.5703 -0.1273  0.2028
 4406TIP3    H113175   2.784   5.096   1.652 -1.4508 -1.1589  0.9345
 4406TIP3    H213176   2.883   5.032   1.747 -0.7135 -1.4181  0.0071
 4407TIP3   OH213177   4.260   0.686   5.920 -0.8245  0.0890 -0.1432
 4407TIP3    H113178   4.352   0.697   5.946 -0.6351  0.5588 -0.9737
 4407TIP3    H213179   4.220   0.641   5.994 -0.3482  1.4900  0.9964
 4408TIP3   OH213180   6.999   5.737   1.223  0.0794  0.4535 -0.5545
 4408TIP3    H113181   7.086   5.762   1.254  0.4368 -1.3856  0.0158
 4408TIP3    H213182   6.960   5.690   1.296 -1.4427  1.3150 -0.7842
 4409TIP3   OH213183   2.521   1.098   3.027  0.0804  0.1371  0.0631
 4409TIP3    H113184   2.569   1.127   3.105 -1.1713 -1.2353  1.4046
 4409TIP3    H213185   2.447   1.048   3.062 -1.8773  1.4689 -1.9339
 4410TIP3   OH213186   1.254   1.299   4.219  0.0530 -0.6361  0.4599
 4410TIP3    H113187   1.297   1.236   4.162  2.3273  1.5285 -0.4250
 4410TIP3    H213188   1.167   1.311   4.180 -0.0969 -2.4790  0.1380
 4411TIP3   OH213189   0.575   0.577   6.180  0.0607 -0.0819  0.1267
 4411TIP3    H113190   0.490   0.532   6.184  0.0961 -0.1598  0.0306
 4411TIP3    H213191   0.554   0.669   6.191 -0.4523  0.3505 -3.3105
 4412TIP3   OH213192   6.726   5.599   0.077 -0.0675  0.5086  0.7265
 4412TIP3    H113193   6.814   5.587   0.112  0.0117 -0.5128  0.2175
 4412TIP3    H213194   6.719   5.535   0.006 -1.4978 -0.0318  1.2993
 4413TIP3   OH213195   8.300   4.202   0.433 -0.2418 -0.7371  0.0242
 4413TIP3    H113196   8.220   4.209   0.484 -0.0537 -2.1903  0.5403
 4413TIP3    H213197   8.291   4.120   0.385  0.7315 -0.6730 -0.2835
 4414TIP3   OH213198   1.671   5.351   5.645 -0.5138 -0.2049 -0.1038
 4414TIP3    H113199   1.746   5.355   5.585 -0.4491 -0.5416 -0.0459
 4414TIP3    H213200   1.706   5.384   5.728 -0.9589  1.6065 -0.5910
 4415TIP3   OH213201   3.596   0.729   1.033  0.0145  0.0910 -0.8646
 4415TIP3    H113202   3.655   0.655   1.050  0.2264  0.5673  0.7052
 4415TIP3    H213203   3.544   0.702   0.958 -0.7952 -2.1907  0.4233
 4416TIP3   OH213204   6.465   2.214   0.848  0.6897  0.1101 -0.0823
 4416TIP3    H113205   6.386   2.180   0.805  1.2732 -0.5446 -0.6675
 4416TIP3    H213206   6.506   2.138   0.888  1.4432  0.2995 -0.4700
 4417TIP3   OH213207   5.288   1.931   1.271  0.1816  0.3905 -0.4060
 4417TIP3    H113208   5.294   1.923   1.366 -0.2321 -0.0971 -0.4160
 4417TIP3    H213209   5.309   1.843   1.239  2.0112  0.9520 -0.8549
 4418TIP3   OH213210   7.652   4.084   1.865 -0.2033 -0.1734  0.1737
 4418TIP3    H113211   7.680   4.010   1.920 -1.9524 -1.6226 -0.7989
 4418TIP3    H213212   7.559   4.093   1.882 -0.2023  1.1975 -0.4586
 4419TIP3   OH213213   6.143   4.108   0.015  0.0525  0.3999  0.3860
 4419TIP3    H113214   6.128   4.035   0.075 -0.1385  0.2445  0.1498
 4419TIP3    H213215   6.068   4.106  -0.045  1.0403 -0.4314 -0.8630
 4420TIP3   OH213216   3.305   3.035   1.277 -0.4415 -0.3840  0.0590
 4420TIP3    H113217   3.338   2.992   1.198  1.3375  1.0196 -0.0276
 4420TIP3    H213218   3.323   2.972   1.347 -1.9156 -1.5846 -0.5888
 4421TIP3   OH213219   4.484   1.774   2.763 -0.3459 -0.3023  0.1336
 4421TIP3    H113220   4.553   1.715   2.732  1.0222  1.2570  0.0754
 4421TIP3    H213221   4.463   1.828   2.687  0.8569  1.5098  1.0133
 4422TIP3   OH213222   4.135   4.304   1.204  0.5164  0.7456 -0.3337
 4422TIP3    H113223   4.063   4.247   1.233  0.9260 -0.3316 -1.3530
 4422TIP3    H213224   4.176   4.334   1.286  0.6086 -0.8691  0.2542
 4423TIP3   OH213225   3.633   3.275   3.548  0.5472 -0.4885 -0.3559
 4423TIP3    H113226   3.687   3.354   3.555 -0.5188  0.3504 -1.2387
 4423TIP3    H213227   3.651   3.241   3.460 -0.4007 -0.1440 -0.6986
 4424TIP3   OH213228   4.186   5.624   2.802 -0.1829 -0.1045 -0.2123
 4424TIP3    H113229   4.241   5.660   2.872 -0.7447 -0.5182  0.4508
 4424TIP3    H213230   4.174   5.532   2.826  1.1140 -0.7512 -1.8055
 4425TIP3   OH213231   4.299   4.633   1.502  0.7995 -0.7043 -0.0775
 4425TIP3    H113232   4.210   4.608   1.479  0.1725  1.5064 -0.2514
 4425TIP3    H213233   4.354   4.594   1.434  0.0073 -2.1621  0.0834
 4426TIP3   OH213234   3.084   7.653   4.078  0.2674  0.1412 -0.0592
 4426TIP3    H113235   3.075   7.653   4.173 -0.0506  1.0019 -0.0855
 4426TIP3    H213236   3.033   7.728   4.049 -2.8113 -2.1743 -1.2178
 4427TIP3   OH213237   7.566   2.154   4.547  0.0363 -0.0035  0.6055
 4427TIP3    H113238   7.537   2.221   4.485  0.7660  1.3671  1.6882
 4427TIP3    H213239   7.500   2.085   4.539  0.2944 -0.0625 -1.9324
 4428TIP3   OH213240   7.323   1.311   5.760  0.0123  0.0295 -0.0825
 4428TIP3    H113241   7.400   1.351   5.719 -1.0928  0.5278 -1.7931
 4428TIP3    H213242   7.344   1.309   5.853  2.2799 -0.3082 -0.5391
 4429TIP3   OH213243   5.755   5.031   2.760 -0.5915  0.3078  0.2367
 4429TIP3    H113244   5.756   5.049   2.854 -0.9659 -0.6344  0.4270
 4429TIP3    H213245   5.669   4.993   2.743 -0.0426 -0.7525 -0.2398
 4430TIP3   OH213246   6.933   3.505   1.014 -0.2736  0.2881  0.5349
 4430TIP3    H113247   7.017   3.549   0.999 -0.6479  0.9342  0.3028
 4430TIP3    H213248   6.956   3.424   1.061  1.1115 -2.4569 -4.2002
 4431TIP3   OH213249   4.976   3.137   0.738  0.0417 -0.3047 -0.5031
 4431TIP3    H113250   4.930   3.220   0.750 -0.8207 -0.8266 -0.0444
 4431TIP3    H213251   4.909   3.078   0.703 -0.2297 -1.6033  1.9839
 4432TIP3   OH213252   6.749   1.194   0.595 -0.1921 -0.7334 -0.5517
 4432TIP3    H113253   6.661   1.226   0.618  0.0790  0.7908 -1.5140
 4432TIP3    H213254   6.732   1.123   0.533 -0.7647  0.6438 -2.0551
 4433TIP3   OH213255   5.558   0.434   1.751  0.2686 -0.0174 -0.0878
 4433TIP3    H113256   5.529   0.505   1.807  2.2033  1.2340 -0.5743
 4433TIP3    H213257   5.589   0.366   1.811  0.6259  0.5505  0.3718
 4434TIP3   OH213258   2.402   7.272   3.015  0.0319 -0.6582  0.6106
 4434TIP3    H113259   2.422   7.364   2.999  0.3149 -0.5612  1.4554
 4434TIP3    H213260   2.485   7.235   3.044 -0.6623 -0.5559  2.9043
 4435TIP3   OH213261   1.044   5.835   0.375 -0.0657 -0.1168 -0.4152
 4435TIP3    H113262   0.979   5.840   0.445  0.3237 -0.9751  0.0270
 4435TIP3    H213263   1.042   5.922   0.334 -2.1652 -0.4205 -1.0551
 4436TIP3   OH213264   4.892   1.673   5.679  0.1525 -0.2783  0.1099
 4436TIP3    H113265   4.905   1.767   5.669  2.2262 -0.5026  0.2724
 4436TIP3    H213266   4.798   1.660   5.663 -0.2233  1.8225  0.3178
 4437TIP3   OH213267   4.550   2.953   2.283 -0.1000  0.0485  0.6991
 4437TIP3    H113268   4.533   2.919   2.195 -0.6782 -0.2729  0.9288
 4437TIP3    H213269   4.584   2.878   2.331  0.7207  0.3512  0.6201
 4438TIP3   OH213270   2.634   4.222   6.499 -0.1966  0.2245  0.0796
 4438TIP3    H113271   2.718   4.267   6.512  0.1376 -0.0566 -1.0069
 4438TIP3    H213272   2.658   4.135   6.468 -0.8808 -0.1441  0.5593
 4439TIP3   OH213273   1.932   7.272   5.120  0.6219  0.4676 -0.1612
 4439TIP3    H113274   1.967   7.241   5.203  0.7903  0.7431 -0.1271
 4439TIP3    H213275   1.909   7.363   5.136 -0.4487  0.1893 -0.0834
 4440TIP3   OH213276   1.829   1.885   1.603 -0.4845 -0.1122 -0.0358
 4440TIP3    H113277   1.788   1.972   1.603 -0.6441 -0.1823  0.7594
 4440TIP3    H213278   1.787   1.838   1.675 -1.7986 -1.5423 -1.6544
 4441TIP3   OH213279   4.528   0.951   3.049 -0.5787 -0.5154 -0.5375
 4441TIP3    H113280   4.616   0.961   3.013 -0.3064 -1.6480 -0.2296
 4441TIP3    H213281   4.471   0.949   2.973 -0.3945  0.5419 -0.7288
 4442TIP3   OH213282   5.407   7.311   4.935  0.0890  0.2252  0.1514
 4442TIP3    H113283   5.414   7.235   4.877 -0.3964  0.6993 -0.5455
 4442TIP3    H213284   5.492   7.315   4.980  0.2399 -0.5249 -0.0572
 4443TIP3   OH213285   0.371   3.612   6.658  0.0660  0.0266  0.4469
 4443TIP3    H113286   0.414   3.609   6.743 -0.4720  0.3393  0.7405
 4443TIP3    H213287   0.349   3.521   6.638 -0.7229  0.0490  1.1317
 4444TIP3   OH213288   0.465   4.720   3.018  0.2417 -0.2477  0.1381
 4444TIP3    H113289   0.458   4.697   2.925 -0.2723 -0.4274  0.2173
 4444TIP3    H213290   0.380   4.696   3.055  0.6229 -0.6529  0.7656
 4445TIP3   OH213291   4.463   5.510   2.610 -0.1872 -0.0631 -0.2918
 4445TIP3    H113292   4.377   5.466   2.612  0.6373 -1.7277  1.2442
 4445TIP3    H213293   4.512   5.461   2.544 -0.3149  0.7337 -0.9914
 4446TIP3   OH213294   1.397   1.042   6.358 -0.8973 -0.1447 -0.2145
 4446TIP3    H113295   1.316   1.091   6.354 -0.8088  0.0276  0.0638
 4446TIP3    H213296   1.450   1.076   6.285 -0.9998 -0.1249 -0.2792
 4447TIP3   OH213297   1.320   1.458   6.012  0.5296  0.1464  0.1188
 4447TIP3    H113298   1.298   1.437   5.922 -0.4205 -0.4086  0.4670
 4447TIP3    H213299   1.374   1.537   6.006 -3.4117  3.1070 -0.6850
 4448TIP3   OH213300   5.244   3.762   1.830 -0.1567 -0.4367 -0.2335
 4448TIP3    H113301   5.281   3.704   1.764 -0.9827 -0.5866 -0.5786
 4448TIP3    H213302   5.163   3.718   1.858  0.0323 -0.2339  0.6675
 4449TIP3   OH213303   4.294   4.663   2.206 -0.0986  0.3135  0.3776
 4449TIP3    H113304   4.312   4.746   2.251 -1.3747  0.9075 -0.1452
 4449TIP3    H213305   4.248   4.610   2.272  2.5318 -0.8526  1.4118
 4450TIP3   OH213306   1.288   6.045   4.817 -0.0436 -0.0982 -0.0308
 4450TIP3    H113307   1.225   6.054   4.888  2.5434 -2.0724  2.7756
 4450TIP3    H213308   1.261   5.965   4.771 -2.7478  2.0829 -2.6784
 4451TIP3   OH213309   4.525   2.510   1.372 -0.2555 -0.9184 -0.2446
 4451TIP3    H113310   4.612   2.528   1.408 -1.5437  2.5755  1.6532
 4451TIP3    H213311   4.521   2.562   1.292 -0.3841 -1.6395 -0.7148
 4452TIP3   OH213312   5.029   5.334   3.508  0.1640  0.1620  0.3802
 4452TIP3    H113313   5.050   5.323   3.601  1.2782 -1.0184  0.0299
 4452TIP3    H213314   5.077   5.412   3.482 -0.4514  0.7132  0.8716
 4453TIP3   OH213315   4.572   0.322   2.173 -0.1097  0.3138 -0.7123
 4453TIP3    H113316   4.650   0.284   2.133  0.5973 -0.1020  0.9775
 4453TIP3    H213317   4.511   0.248   2.182  1.2238 -0.5660  2.4733
 4454TIP3   OH213318   6.039   5.406   4.402 -0.4003 -0.6705  0.5783
 4454TIP3    H113319   6.065   5.340   4.466  0.6770 -2.8177 -1.8542
 4454TIP3    H213320   6.115   5.464   4.395 -1.1068  0.5433  2.2530
 4455TIP3   OH213321   7.200   0.018   4.236 -0.1839  0.5388  0.0744
 4455TIP3    H113322   7.202   0.094   4.179  1.2977 -0.0959 -0.8075
 4455TIP3    H213323   7.229   0.051   4.321  0.3851  0.9896 -0.2832
 4456TIP3   OH213324   8.089   2.759   0.738  0.0649 -0.1837 -0.0894
 4456TIP3    H113325   8.181   2.739   0.752  0.2849  0.3277 -0.7494
 4456TIP3    H213326   8.088   2.847   0.700 -0.7827  0.3975  1.2046
 4457TIP3   OH213327   6.174   6.227   3.367 -0.0669 -0.6368  0.1206
 4457TIP3    H113328   6.213   6.290   3.428 -1.8057  0.2272  0.4070
 4457TIP3    H213329   6.161   6.277   3.286  0.8710 -1.3682 -0.5062
 4458TIP3   OH213330   3.343   1.420   5.637  0.2528  0.1432 -0.1180
 4458TIP3    H113331   3.416   1.473   5.671  1.4021  0.3646 -2.7080
 4458TIP3    H213332   3.362   1.331   5.667 -0.1544  0.6789  1.8674
 4459TIP3   OH213333   0.159   5.884   6.219  0.3309 -0.4717  0.2082
 4459TIP3    H113334   0.183   5.830   6.294  0.0257 -0.6373  0.1886
 4459TIP3    H213335   0.200   5.969   6.236  1.7066 -1.0169 -0.2664
 4460TIP3   OH213336   5.886   1.483   4.202  0.7968 -0.4978 -0.5550
 4460TIP3    H113337   5.887   1.458   4.109  1.8543 -0.1206 -0.6620
 4460TIP3    H213338   5.871   1.401   4.249 -1.5858 -0.4478 -1.0939
 4461TIP3   OH213339   5.478   7.503   4.708  0.0693 -0.4339 -0.8754
 4461TIP3    H113340   5.406   7.539   4.656 -1.3152 -0.5018  0.8855
 4461TIP3    H213341   5.435   7.444   4.769  1.5036  0.3611  0.9762
 4462TIP3   OH213342   4.444   7.398   5.499  0.0515  0.0480  0.1226
 4462TIP3    H113343   4.509   7.425   5.564 -1.7388  3.0548  0.8432
 4462TIP3    H213344   4.403   7.320   5.537 -0.1077  1.0219  2.0477
 4463TIP3   OH213345   5.062   7.338   0.548  0.2440  0.3668  0.4983
 4463TIP3    H113346   5.084   7.415   0.497  0.2778  0.2085  0.2731
 4463TIP3    H213347   4.974   7.313   0.518  1.1090 -1.0019 -1.0625
 4464TIP3   OH213348   0.947   5.300   4.436  0.3812  0.1007 -0.2535
 4464TIP3    H113349   1.002   5.270   4.363  2.6043  0.1498  1.3150
 4464TIP3    H213350   0.889   5.364   4.396  0.1187 -1.3150 -2.3594
 4465TIP3   OH213351   2.631   5.527   0.969  0.0811 -0.1600  0.0401
 4465TIP3    H113352   2.566   5.459   0.988 -1.3111  1.2283  0.5050
 4465TIP3    H213353   2.646   5.571   1.053 -0.1467  1.0020 -0.4996
 4466TIP3   OH213354   4.064   4.261   0.956 -0.5597 -0.4463 -0.5380
 4466TIP3    H113355   4.096   4.277   1.045  0.2005  0.2924 -0.9254
 4466TIP3    H213356   4.140   4.225   0.909 -1.1544 -1.5138 -0.7186
 4467TIP3   OH213357   5.349   3.877   3.574 -0.2118  0.8108 -0.5966
 4467TIP3    H113358   5.439   3.883   3.543  0.9987 -1.8351  1.9477
 4467TIP3    H213359   5.337   3.957   3.626  0.5149  1.3775 -1.2819
 4468TIP3   OH213360   5.945   2.989   0.068  0.1900  0.1000 -0.4177
 4468TIP3    H113361   5.970   3.068   0.020 -0.7572  0.2849 -0.6402
 4468TIP3    H213362   5.870   2.955   0.019  0.6068 -0.9680 -0.3525
 4469TIP3   OH213363   1.295   5.430   3.334  0.2586 -0.0918 -0.7610
 4469TIP3    H113364   1.276   5.490   3.262  1.7594  0.3250 -0.8479
 4469TIP3    H213365   1.344   5.359   3.294  2.2005  0.7453 -0.0069
 4470TIP3   OH213366   3.959   2.470   3.134  0.5643  0.0589  0.0690
 4470TIP3    H113367   3.997   2.479   3.047  1.2332  2.0961  0.5152
 4470TIP3    H213368   3.999   2.391   3.171  0.5071 -0.6416 -1.3315
 4471TIP3   OH213369   6.995   0.126   3.482 -0.6870 -0.1699  0.5766
 4471TIP3    H113370   7.089   0.141   3.466 -1.3142  4.3271 -0.3799
 4471TIP3    H213371   6.965   0.079   3.404  0.2739  1.4252 -0.8417
 4472TIP3   OH213372   6.716   2.638   3.079 -0.0603  0.0889  0.2349
 4472TIP3    H113373   6.661   2.694   3.133  0.0890  0.2736  0.1953
 4472TIP3    H213374   6.800   2.683   3.075 -0.2238  0.3297 -0.5789
 4473TIP3   OH213375   6.267   7.197   0.483 -0.2846 -0.0915 -0.1219
 4473TIP3    H113376   6.289   7.277   0.532  1.0573 -0.7574  0.3983
 4473TIP3    H213377   6.190   7.222   0.431 -0.2283  1.3765  0.4410
 4474TIP3   OH213378   6.487   1.161   4.347  0.2439  0.4017  0.5787
 4474TIP3    H113379   6.434   1.147   4.426  2.3465 -0.9034  1.8366
 4474TIP3    H213380   6.466   1.086   4.291  0.0068  0.4429  0.6078
 4475TIP3   OH213381   1.309   6.150   1.995  0.0772  0.3155  0.6369
 4475TIP3    H113382   1.259   6.229   1.978 -1.2243 -0.8459 -1.4075
 4475TIP3    H213383   1.247   6.079   1.979  1.2704 -1.1499  2.1143
 4476TIP3   OH213384   6.268   1.056   3.008 -0.1994 -0.2229  0.3697
 4476TIP3    H113385   6.222   1.138   2.990 -0.6551 -0.6535 -0.5194
 4476TIP3    H213386   6.245   0.999   2.934  1.7399 -0.4755 -0.0858
 4477TIP3   OH213387   0.195   2.429   0.620  0.7964 -0.1163  0.0150
 4477TIP3    H113388   0.140   2.458   0.693  1.3976  0.1047  0.3922
 4477TIP3    H213389   0.208   2.335   0.636 -2.1403 -0.9755 -1.8565
 4478TIP3   OH213390   1.435   0.894   2.546  0.3901 -0.1753  0.3387
 4478TIP3    H113391   1.507   0.956   2.537  0.5447 -0.5792 -1.6680
 4478TIP3    H213392   1.470   0.811   2.514 -0.6810 -0.5993  0.2071
 4479TIP3   OH213393   7.623   7.203   2.569  0.2877  0.0319 -0.1717
 4479TIP3    H113394   7.704   7.228   2.525 -0.7707  0.3765 -2.0678
 4479TIP3    H213395   7.635   7.110   2.590  1.3075  0.1769 -0.0494
 4480TIP3   OH213396   1.065   1.432   2.871  0.0238 -0.2547 -0.2289
 4480TIP3    H113397   1.160   1.429   2.886 -0.0474 -0.4155  0.2058
 4480TIP3    H213398   1.046   1.524   2.856  0.1843 -0.1583  0.1374
 4481TIP3   OH213399   0.041   6.910   2.486 -0.2041 -0.4092 -0.2151
 4481TIP3    H113400   0.009   6.994   2.455 -1.1270  0.7440  3.4263
 4481TIP3    H213401   0.133   6.927   2.509 -0.0782 -0.7373 -0.4608
 4482TIP3   OH213402   8.246   0.279   3.478 -0.1424  0.3006 -0.3939
 4482TIP3    H113403   8.162   0.234   3.464 -0.0576  0.4335 -1.4683
 4482TIP3    H213404   8.223   0.358   3.527 -0.5538  0.0267 -0.1341
 4483TIP3   OH213405   1.097   6.288   2.315 -0.2919 -0.0541  0.4694
 4483TIP3    H113406   1.188   6.310   2.295 -1.0201  0.8344 -2.3487
 4483TIP3    H213407   1.091   6.194   2.300 -0.0996  0.0997 -0.6737
 4484TIP3   OH213408   1.727   1.180   0.121  0.3241 -0.0657  0.0968
 4484TIP3    H113409   1.729   1.206   0.029  0.2495 -0.4652 -0.0200
 4484TIP3    H213410   1.818   1.188   0.150  0.1941  1.0055  0.2649
 4485TIP3   OH213411   0.046   2.433   4.719  0.1246  0.5603  0.3376
 4485TIP3    H113412  -0.018   2.379   4.765  1.1636  0.0151  1.1873
 4485TIP3    H213413   0.006   2.520   4.714 -2.0159 -0.4287 -1.9343
 4486TIP3   OH213414   2.348   6.895   0.561 -0.7372  0.2733  0.9314
 4486TIP3    H113415   2.291   6.899   0.484  1.7199  1.2966 -1.0049
 4486TIP3    H213416   2.357   6.986   0.589  2.3295  0.6725 -0.8597
 4487TIP3   OH213417   6.457   7.537   0.336  0.4529 -0.1338 -0.0705
 4487TIP3    H113418   6.494   7.542   0.248 -3.3918  1.6184 -1.8400
 4487TIP3    H213419   6.483   7.620   0.376  1.0036 -0.2958 -0.0789
 4488TIP3   OH213420   0.680   4.782   1.494  0.3476  0.5486  0.0869
 4488TIP3    H113421   0.673   4.872   1.463 -0.1422 -0.2327 -2.3200
 4488TIP3    H213422   0.772   4.759   1.481  0.0856  0.1291 -1.2317
 4489TIP3   OH213423   7.010   1.532   2.160 -0.7002 -0.4955 -0.0613
 4489TIP3    H113424   6.972   1.620   2.153 -1.0533 -0.4264  2.0056
 4489TIP3    H213425   6.936   1.476   2.184 -0.1114 -0.9421  0.7860
 4490TIP3   OH213426   6.254   0.620   0.032  0.1612 -0.2169 -0.0800
 4490TIP3    H113427   6.252   0.594  -0.060  1.2144 -0.4697 -0.0485
 4490TIP3    H213428   6.279   0.712   0.031  3.4486 -0.9886  0.0078
 4491TIP3   OH213429   3.889   7.592   2.551  0.2015 -0.6305 -0.4377
 4491TIP3    H113430   3.948   7.546   2.611  0.7891 -0.5686 -0.9558
 4491TIP3    H213431   3.811   7.612   2.604  0.8656 -0.2248  0.4068
 4492TIP3   OH213432   0.221   0.066   1.361  0.4043 -0.1114 -0.2175
 4492TIP3    H113433   0.244   0.120   1.437  1.3263  0.5302 -0.9362
 4492TIP3    H213434   0.301   0.060   1.310  0.0060 -1.2067 -0.7534
 4493TIP3   OH213435   5.469   0.565   4.532  0.1896  0.3034 -0.1089
 4493TIP3    H113436   5.374   0.576   4.527  0.2561  0.4837 -1.1179
 4493TIP3    H213437   5.503   0.611   4.456  1.0893  0.2131  0.2259
 4494TIP3   OH213438   2.468   7.466   1.087  1.2902 -0.0494  1.2379
 4494TIP3    H113439   2.446   7.411   1.162  1.0120 -1.5271  0.1254
 4494TIP3    H213440   2.422   7.425   1.013  1.6221  1.3052  0.2437
 4495TIP3   OH213441   7.889   2.499   5.890  0.6050  0.0338  0.5640
 4495TIP3    H113442   7.892   2.406   5.914 -0.7804 -0.2489 -0.2327
 4495TIP3    H213443   7.871   2.544   5.973 -2.7239 -0.8048  0.4316
 4496TIP3   OH213444   1.737   4.202   2.335 -0.0546  0.5306 -0.4135
 4496TIP3    H113445   1.831   4.206   2.357 -0.0621  1.8075 -0.5720
 4496TIP3    H213446   1.730   4.126   2.278  0.6716 -0.3333  0.5952
 4497TIP3   OH213447   6.399   3.351   0.281  0.1323 -0.3725 -0.5460
 4497TIP3    H113448   6.383   3.319   0.370 -0.6233  0.2268 -0.4519
 4497TIP3    H213449   6.486   3.390   0.285 -0.0676  0.0320  0.0578
 4498TIP3   OH213450   2.312   2.120   5.552  0.2069 -0.0140 -0.1863
 4498TIP3    H113451   2.342   2.163   5.632  1.5980 -1.3604  0.0606
 4498TIP3    H213452   2.221   2.147   5.543  0.4157  1.2282  1.1185
 4499TIP3   OH213453   5.779   5.083   2.285 -0.4063  0.2726 -0.6870
 4499TIP3    H113454   5.739   5.119   2.364 -0.8900  1.3754 -1.4108
 4499TIP3    H213455   5.707   5.075   2.223 -0.0328 -0.5959 -1.0236
 4500TIP3   OH213456   0.033   3.341   3.879 -0.5351 -0.7050 -0.4043
 4500TIP3    H113457   0.119   3.304   3.900 -0.3496  0.7546  1.6556
 4500TIP3    H213458  -0.006   3.360   3.963 -1.9069  0.8731 -1.3488
 4501TIP3   OH213459   8.039   2.983   2.746 -0.5651  0.5329  0.1020
 4501TIP3    H113460   7.969   2.920   2.730  0.0774 -0.1111 -0.2858
 4501TIP3    H213461   8.108   2.958   2.684  1.1312 -0.6048  2.2942
 4502TIP3   OH213462   6.646   5.868   3.742 -0.4444  0.0359 -0.0721
 4502TIP3    H113463   6.605   5.824   3.667  0.0031  0.9236 -0.8507
 4502TIP3    H213464   6.615   5.818   3.818 -2.9737  0.6621 -0.6065
 4503TIP3   OH213465   4.969   5.349   0.506 -0.4126  0.4424  0.5142
 4503TIP3    H113466   5.015   5.297   0.441 -0.1291 -0.0979  1.1298
 4503TIP3    H213467   4.981   5.301   0.588 -1.5625  0.6028  0.8027
 4504TIP3   OH213468   2.991   2.387   6.603  0.0842 -0.7631 -0.2774
 4504TIP3    H113469   2.895   2.384   6.602  0.0883 -0.7866 -0.6596
 4504TIP3    H213470   3.014   2.382   6.696 -0.2860 -0.7249 -0.1820
 4505TIP3   OH213471   8.093   7.774   6.511  0.1208  0.3408  0.0448
 4505TIP3    H113472   8.164   7.833   6.536  0.0780  0.1385  0.6602
 4505TIP3    H213473   8.136   7.695   6.480  0.1779  0.6650 -0.7265
 4506TIP3   OH213474   3.593   6.635   6.290 -0.3819 -0.0249 -0.0452
 4506TIP3    H113475   3.571   6.630   6.196  0.9096 -0.3743 -0.3449
 4506TIP3    H213476   3.649   6.712   6.297 -2.1526  1.2502  0.8226
 4507TIP3   OH213477   1.274   4.580   3.989  0.0298 -0.9638 -0.6791
 4507TIP3    H113478   1.296   4.646   4.055  0.0702 -0.8627 -0.7925
 4507TIP3    H213479   1.224   4.628   3.923 -1.6767 -1.4451  0.1977
 4508TIP3   OH213480   1.824   0.784   1.773  0.3103 -0.2698 -0.2314
 4508TIP3    H113481   1.754   0.795   1.838  1.0314 -2.4984  1.0333
 4508TIP3    H213482   1.904   0.809   1.820  0.7750 -1.3859 -0.3944
 4509TIP3   OH213483   3.832   5.764   4.322  0.9122 -0.5892 -0.0510
 4509TIP3    H113484   3.878   5.784   4.404 -1.1133 -0.9571  1.2242
 4509TIP3    H213485   3.752   5.816   4.326  0.4709 -1.1214 -1.4893
 4510TIP3   OH213486   1.850   2.689   5.247  0.3203 -0.1357  0.4466
 4510TIP3    H113487   1.917   2.637   5.202 -0.3487 -1.2999  0.7642
 4510TIP3    H213488   1.779   2.627   5.264  0.5064  0.2459  3.0647
 4511TIP3   OH213489   1.872   2.078   5.481  0.5417  0.6017 -0.6344
 4511TIP3    H113490   1.946   2.128   5.516 -0.5097  1.7728  0.0022
 4511TIP3    H213491   1.850   2.016   5.550  1.8699 -0.8495 -1.4385
 4512TIP3   OH213492   5.857   6.570   1.257 -0.1876  0.1227  0.6656
 4512TIP3    H113493   5.810   6.613   1.328  0.4302  0.5750  0.8163
 4512TIP3    H213494   5.873   6.481   1.290 -0.4426  0.1408  0.8414
 4513TIP3   OH213495   7.180   5.586   4.789  0.3386 -0.1329 -0.3561
 4513TIP3    H113496   7.204   5.593   4.696  0.7840  2.8125 -0.0945
 4513TIP3    H213497   7.101   5.640   4.797 -0.9581 -2.0750  0.6336
 4514TIP3   OH213498   6.638   0.711   5.697 -0.4435  0.3305  0.3158
 4514TIP3    H113499   6.632   0.728   5.791  0.0591  1.3999  0.1646
 4514TIP3    H213500   6.637   0.616   5.690 -3.9864  0.1698  1.1713
 4515TIP3   OH213501   7.121   0.174   3.068  0.0758 -0.0874  0.8981
 4515TIP3    H113502   7.092   0.218   2.988 -2.4711 -0.9165  1.2630
 4515TIP3    H213503   7.136   0.245   3.131 -0.8299  0.4362  0.5422
 4516TIP3   OH213504   6.891   4.965   2.641  0.3804  0.0617 -0.0793
 4516TIP3    H113505   6.878   4.896   2.576 -0.6497 -0.3634  0.5552
 4516TIP3    H213506   6.877   4.922   2.725  0.8232  0.8082  0.3882
 4517TIP3   OH213507   7.059   6.291   4.500  0.3451  0.2287  0.0695
 4517TIP3    H113508   7.016   6.207   4.488 -0.0778  0.3399  0.7602
 4517TIP3    H213509   7.010   6.334   4.570 -0.3386  1.6468 -1.2029
 4518TIP3   OH213510   3.942   5.673   0.352 -0.3405 -0.3566 -0.1006
 4518TIP3    H113511   3.855   5.697   0.323 -0.5945 -0.5636  0.4720
 4518TIP3    H213512   3.956   5.723   0.432  0.4214  0.3521 -0.6576
 4519TIP3   OH213513   0.328   0.914   4.775  0.4178 -0.0841  0.5414
 4519TIP3    H113514   0.292   0.839   4.727  0.9007 -1.5778  2.3518
 4519TIP3    H213515   0.280   0.990   4.741 -1.6433 -1.4834  0.1153
 4520TIP3   OH213516   0.181   1.777   2.135 -0.5751  0.5068  0.5755
 4520TIP3    H113517   0.167   1.761   2.041  0.7261  0.4614  0.3577
 4520TIP3    H213518   0.191   1.689   2.172  1.8436  0.5557  0.2082
 4521TIP3   OH213519   5.496   6.670   5.776 -0.6740 -0.4280  0.1530
 4521TIP3    H113520   5.428   6.606   5.795 -0.9863 -0.4747 -1.0074
 4521TIP3    H213521   5.474   6.747   5.829 -0.6394 -1.0600  1.0910
 4522TIP3   OH213522   1.035   1.658   1.820  0.7732  0.0159 -0.2970
 4522TIP3    H113523   1.024   1.659   1.725 -0.1921 -1.8033 -0.2480
 4522TIP3    H213524   1.120   1.701   1.835  0.6457  0.9102 -1.8998
 4523TIP3   OH213525   2.061   0.206   1.999 -0.1364  0.0627  1.0182
 4523TIP3    H113526   2.024   0.131   1.951 -0.1234 -0.3062  1.5767
 4523TIP3    H213527   2.107   0.166   2.073  2.8678  0.3392 -0.5296
 4524TIP3   OH213528   6.654   5.404   2.089 -0.1711 -0.2593 -0.3179
 4524TIP3    H113529   6.642   5.495   2.062 -0.5069 -0.2272 -0.0657
 4524TIP3    H213530   6.745   5.384   2.067  0.4216  0.6714  1.1118
 4525TIP3   OH213531   5.186   5.554   1.904  0.6711  0.2895  0.1219
 4525TIP3    H113532   5.118   5.598   1.853  0.6713  0.6006  0.3898
 4525TIP3    H213533   5.240   5.624   1.939 -0.9242  0.2953  2.8247
 4526TIP3   OH213534   4.388   1.390   5.862 -0.3930 -0.1786  0.5751
 4526TIP3    H113535   4.437   1.407   5.943  0.3555  1.9495 -0.2757
 4526TIP3    H213536   4.299   1.420   5.881 -0.3996 -0.3529  0.8263
 4527TIP3   OH213537   7.559   4.253   0.479 -0.2200  0.4752  0.1294
 4527TIP3    H113538   7.599   4.312   0.415  1.8479 -1.9617 -1.0044
 4527TIP3    H213539   7.467   4.249   0.454  0.0524  1.4792 -1.1206
 4528TIP3   OH213540   5.802   3.956   1.293 -0.1885 -0.3036 -0.6057
 4528TIP3    H113541   5.815   4.046   1.324  0.6993  0.1338 -2.1464
 4528TIP3    H213542   5.708   3.943   1.295 -0.2261 -0.5329  2.7581
 4529TIP3   OH213543   4.848   5.965   2.404 -0.5531  0.1957 -0.2812
 4529TIP3    H113544   4.851   5.985   2.311  0.2953 -0.0745 -0.3186
 4529TIP3    H213545   4.854   5.870   2.409  3.5290  0.2668  0.1131
 4530TIP3   OH213546   3.222   0.602   5.867 -0.1043  0.4166 -0.0211
 4530TIP3    H113547   3.303   0.551   5.871 -0.3315  0.0623  0.1499
 4530TIP3    H213548   3.246   0.689   5.899 -0.2757 -0.3148  2.3541
 4531TIP3   OH213549   7.051   2.056   2.043  0.2704 -0.2086 -0.0502
 4531TIP3    H113550   7.113   2.030   1.975  0.2557 -0.8554  0.1800
 4531TIP3    H213551   7.103   2.058   2.124  0.1016 -0.2629  0.0593
 4532TIP3   OH213552   0.740   5.575   0.503 -0.0120 -0.0658  0.0745
 4532TIP3    H113553   0.645   5.582   0.508 -0.2074 -2.3321  0.5027
 4532TIP3    H213554   0.770   5.575   0.594 -0.0374 -3.2679  0.1875
 4533TIP3   OH213555   5.991   1.603   0.438 -0.5481  0.3097 -0.5609
 4533TIP3    H113556   6.082   1.621   0.415  0.6746 -2.4550  1.4389
 4533TIP3    H213557   5.988   1.508   0.449 -2.7433  0.6137  2.8652
 4534TIP3   OH213558   6.526   2.494   3.635 -0.0050  0.0476 -0.0793
 4534TIP3    H113559   6.458   2.473   3.571 -2.7954 -1.5891  3.0875
 4534TIP3    H213560   6.597   2.434   3.615 -0.9945 -0.7705 -1.3037
 4535TIP3   OH213561   1.041   2.645   1.166  0.0598  0.1776  0.6263
 4535TIP3    H113562   0.989   2.568   1.189  1.1129 -1.2372 -1.4071
 4535TIP3    H213563   1.123   2.634   1.215  0.1829  0.0089  0.3885
 4536TIP3   OH213564   1.432   5.360   5.272 -0.2407  0.2799 -0.1102
 4536TIP3    H113565   1.379   5.398   5.201 -2.8185  0.2304  1.6645
 4536TIP3    H213566   1.496   5.428   5.294  0.2434  0.5091 -2.0277
 4537TIP3   OH213567   4.005   5.869   4.904  0.2599 -0.5374 -0.3569
 4537TIP3    H113568   4.097   5.850   4.885  0.6466  0.8792 -0.0198
 4537TIP3    H213569   3.989   5.824   4.987  0.8899 -0.1517 -0.0129
 4538TIP3   OH213570   2.134   5.851   6.688  0.2747  0.3569 -1.1243
 4538TIP3    H113571   2.118   5.911   6.760  1.0178  0.1287 -0.7651
 4538TIP3    H213572   2.107   5.900   6.610 -1.0658  0.4045 -0.6639
 4539TIP3   OH213573   3.708   0.175   5.099 -0.5480 -0.1548  0.0383
 4539TIP3    H113574   3.762   0.123   5.040  0.9393  0.5993  0.6940
 4539TIP3    H213575   3.637   0.208   5.044  0.9509  0.7719 -1.4216
 4540TIP3   OH213576   4.653   1.520   0.084 -0.0873  0.0747  0.3776
 4540TIP3    H113577   4.617   1.432   0.077 -1.4385  0.7025 -1.5088
 4540TIP3    H213578   4.603   1.561   0.154 -1.2125  0.0838 -0.4013
 4541TIP3   OH213579   4.245   3.933   3.146  0.1826  0.2065  0.3221
 4541TIP3    H113580   4.210   3.914   3.233  0.6275 -2.3844  0.0342
 4541TIP3    H213581   4.337   3.905   3.150  0.7130  1.6942 -0.5042
 4542TIP3   OH213582   6.247   1.209   3.922 -0.1080  0.3082  0.1818
 4542TIP3    H113583   6.234   1.148   3.994 -0.4215  0.1524 -0.0048
 4542TIP3    H213584   6.335   1.188   3.889  1.1242  2.0715  2.1072
 4543TIP3   OH213585   4.578   7.314   2.303 -1.0312  0.3258  0.0151
 4543TIP3    H113586   4.567   7.259   2.381 -0.0359  0.9815  0.6386
 4543TIP3    H213587   4.492   7.312   2.260 -1.4902 -0.3481  0.9214
 4544TIP3   OH213588   2.301   5.735   6.511 -0.8513 -0.4478 -0.7296
 4544TIP3    H113589   2.214   5.756   6.546  0.1505 -1.8426  2.9622
 4544TIP3    H213590   2.314   5.643   6.532  1.9721  0.0183 -0.0613
 4545TIP3   OH213591   7.780   7.825   3.200  0.4145 -0.0959 -0.2562
 4545TIP3    H113592   7.861   7.786   3.165 -0.9466 -2.7093 -0.7670
 4545TIP3    H213593   7.745   7.758   3.259 -0.8112  1.4587  0.8501
 4546TIP3   OH213594   3.531   5.907   4.898  0.0319  0.2273 -0.2375
 4546TIP3    H113595   3.602   5.961   4.932 -1.0393  0.4426  1.7801
 4546TIP3    H213596   3.466   5.905   4.968 -1.4238 -0.9740 -1.5442
 4547TIP3   OH213597   2.923   4.268   3.599 -0.3860  0.5603  0.0346
 4547TIP3    H113598   2.968   4.342   3.558  0.0034  1.1859  1.5261
 4547TIP3    H213599   2.989   4.228   3.655 -0.4756 -1.1920 -1.0258
 4548TIP3   OH213600   5.161   5.198   2.659  0.1224 -0.1416  0.2466
 4548TIP3    H113601   5.093   5.132   2.656  0.5725 -0.7063  1.6187
 4548TIP3    H213602   5.117   5.280   2.636 -0.5010 -0.8342 -1.1725
 4549TIP3   OH213603   3.297   7.561   6.572  0.7538 -0.0174  0.8375
 4549TIP3    H113604   3.365   7.614   6.530  0.2178 -0.1102 -0.1534
 4549TIP3    H213605   3.338   7.476   6.587  1.6846  0.6940  2.6104
 4550TIP3   OH213606   4.603   4.443   4.855  0.1536 -0.2639 -0.2056
 4550TIP3    H113607   4.664   4.372   4.839 -0.2251 -0.7155  0.3015
 4550TIP3    H213608   4.546   4.410   4.925  0.2900  0.7298  0.3868
 4551TIP3   OH213609   5.960   4.933   3.205  0.0518  0.1042 -0.0325
 4551TIP3    H113610   5.908   5.007   3.173  1.6918  0.2006 -2.7944
 4551TIP3    H213611   6.020   4.972   3.269 -1.1113  0.5762  0.7878
 4552TIP3   OH213612   1.814   6.216   4.457  0.1041  0.0256  0.3972
 4552TIP3    H113613   1.827   6.218   4.362 -0.1446 -1.5553  0.3124
 4552TIP3    H213614   1.808   6.309   4.482 -0.0481  0.4624 -1.1521
 4553TIP3   OH213615   0.418   3.001  -0.015 -0.3837  0.0602 -0.5139
 4553TIP3    H113616   0.492   2.977   0.040 -0.8380  2.6295  1.3957
 4553TIP3    H213617   0.342   2.963   0.029 -0.4257 -1.2252 -1.6128
 4554TIP3   OH213618   4.732   6.570   1.464  0.4145 -0.1325 -0.0652
 4554TIP3    H113619   4.751   6.662   1.481 -0.5589 -0.1597  1.4036
 4554TIP3    H213620   4.803   6.523   1.508 -0.1264 -0.1069  0.8657
 4555TIP3   OH213621   3.979   2.228   0.959 -0.0860 -0.3280 -0.7324
 4555TIP3    H113622   3.922   2.252   1.032  0.6026  2.7968 -1.0844
 4555TIP3    H213623   4.044   2.169   0.997 -0.3802  0.3772  0.9506
 4556TIP3   OH213624   0.417   5.680   3.685 -0.1506  0.2009  0.2467
 4556TIP3    H113625   0.381   5.687   3.774 -2.9747  0.8379 -0.8279
 4556TIP3    H213626   0.411   5.769   3.650  0.3069 -0.1698 -0.8077
 4557TIP3   OH213627   7.832   5.097   0.374 -0.4350 -0.5599  0.0799
 4557TIP3    H113628   7.876   5.035   0.432 -0.8652  0.0613  1.0844
 4557TIP3    H213629   7.746   5.057   0.357 -0.7360 -0.2161  0.7780
 4558TIP3   OH213630   6.097   2.178   1.430  0.0185  0.7975  0.1149
 4558TIP3    H113631   6.142   2.095   1.448  0.3450  0.8833 -0.3056
 4558TIP3    H213632   6.165   2.245   1.439 -0.2589  1.0343  0.5139
 4559TIP3   OH213633   6.329   7.158   1.520 -0.4284  0.3795 -0.3809
 4559TIP3    H113634   6.346   7.107   1.599 -1.0243 -2.6033 -2.0195
 4559TIP3    H213635   6.237   7.185   1.527  0.6758  4.4947  2.0473
 4560TIP3   OH213636   0.545   4.069   2.031 -0.5671 -0.2080 -0.0801
 4560TIP3    H113637   0.606   3.996   2.024  0.4691  0.6641 -0.6046
 4560TIP3    H213638   0.494   4.051   2.110  1.6041 -0.1037  1.4513
 4561TIP3   OH213639   0.396   3.799   2.835 -0.1580 -0.1471 -0.5449
 4561TIP3    H113640   0.327   3.733   2.845 -1.5666  1.3878  0.3416
 4561TIP3    H213641   0.352   3.874   2.794  2.2537 -1.0134 -5.4815
 4562TIP3   OH213642   2.278   3.685   3.055  0.0296 -0.1490  0.3318
 4562TIP3    H113643   2.204   3.741   3.033  0.7265  0.8749  0.5259
 4562TIP3    H213644   2.257   3.651   3.142 -0.2373  0.0718  0.3545
 4563TIP3   OH213645   0.208   2.130   6.609 -0.1328  0.1037 -0.2600
 4563TIP3    H113646   0.147   2.113   6.681  0.3843 -1.4560 -0.1568
 4563TIP3    H213647   0.257   2.049   6.600  2.3383  1.4646  0.0168
 4564TIP3   OH213648   1.669   2.613   1.825 -0.1213 -0.3645  0.4140
 4564TIP3    H113649   1.720   2.568   1.893 -0.0640 -1.1083 -0.1101
 4564TIP3    H213650   1.586   2.634   1.867  0.4806  0.5808  1.1885
 4565TIP3   OH213651   6.722   5.815   2.679 -0.6831 -0.2699 -0.5029
 4565TIP3    H113652   6.735   5.871   2.755 -1.2506  0.8668 -1.2135
 4565TIP3    H213653   6.811   5.801   2.645 -0.2386 -2.1895  1.2878
 4566TIP3   OH213654   6.268   4.774   1.750  0.1764  0.3207 -0.9166
 4566TIP3    H113655   6.293   4.787   1.841 -1.1041 -1.0205 -0.3540
 4566TIP3    H213656   6.280   4.861   1.710 -1.1208  1.4475  0.9779
 4567TIP3   OH213657   6.057   1.465   3.497  0.1158  0.0539  0.2319
 4567TIP3    H113658   6.020   1.506   3.419  0.7814 -0.0003 -0.1079
 4567TIP3    H213659   6.120   1.529   3.530  0.8975 -0.5449 -0.0963
 4568TIP3   OH213660   7.586   1.334   6.380 -0.4241  0.0096 -0.3661
 4568TIP3    H113661   7.559   1.265   6.439 -1.8932 -0.2334 -1.2822
 4568TIP3    H213662   7.673   1.307   6.350  0.5515  0.3560  1.9436
 4569TIP3   OH213663   6.310   4.269   0.899  0.0076 -0.6520  0.0718
 4569TIP3    H113664   6.313   4.365   0.900 -1.0180 -0.6035 -0.1153
 4569TIP3    H213665   6.340   4.245   0.811  1.8758 -0.6012  0.6519
 4570TIP3   OH213666   7.754   6.708   5.596  0.1836 -0.6870 -0.9667
 4570TIP3    H113667   7.833   6.653   5.604  1.1351  0.6374 -0.9633
 4570TIP3    H213668   7.787   6.793   5.566 -1.2722 -0.1428 -1.0915
 4571TIP3   OH213669   0.886   2.158   0.765 -0.0744 -0.1122 -0.2651
 4571TIP3    H113670   0.844   2.244   0.777  0.6683  0.2302 -0.0563
 4571TIP3    H213671   0.976   2.179   0.740 -0.4352 -0.8356 -2.3274
 4572TIP3   OH213672   0.926   2.089   1.290 -0.5898  0.1571 -0.5759
 4572TIP3    H113673   0.852   2.030   1.302  1.3046 -2.5350 -1.3913
 4572TIP3    H213674   0.939   2.129   1.376 -1.0110 -1.8002  0.4510
 4573TIP3   OH213675   0.419   3.499   0.965  0.7928 -0.2226 -0.3845
 4573TIP3    H113676   0.395   3.464   0.879  2.1984 -0.7393 -0.5927
 4573TIP3    H213677   0.389   3.590   0.963 -2.9625 -1.2968  0.1706
 4574TIP3   OH213678   2.178   3.971   0.299 -0.2872 -0.2377 -0.3788
 4574TIP3    H113679   2.146   4.059   0.321  2.1870  0.8159 -0.5902
 4574TIP3    H213680   2.135   3.913   0.362 -0.5294  1.4005  1.0433
 4575TIP3   OH213681   7.597   0.727   5.845 -0.0999  0.5430  0.0740
 4575TIP3    H113682   7.656   0.678   5.787 -0.6374  1.0724 -0.9524
 4575TIP3    H213683   7.509   0.701   5.818 -0.3614  0.7435  0.7118
 4576TIP3   OH213684   0.727   5.853   1.469  0.1288  0.1004 -0.1367
 4576TIP3    H113685   0.699   5.887   1.554  3.3303  1.0357  0.7226
 4576TIP3    H213686   0.756   5.764   1.486 -1.8319 -0.7297 -0.9171
 4577TIP3   OH213687   5.523   1.931   1.086  0.5142 -0.7170 -0.3469
 4577TIP3    H113688   5.447   1.969   1.129 -0.6115 -2.0216 -1.1017
 4577TIP3    H213689   5.592   1.997   1.097 -0.5185  0.2141  0.9172
 4578TIP3   OH213690   6.955   5.744   4.409  0.3670 -0.0288 -0.4261
 4578TIP3    H113691   6.977   5.651   4.399 -1.2545 -0.3928 -0.7473
 4578TIP3    H213692   6.881   5.758   4.350  2.2465  2.1304 -2.4755
 4579TIP3   OH213693   0.095   1.479   6.401 -0.4666  0.1673 -0.6807
 4579TIP3    H113694   0.073   1.393   6.438 -2.3485  1.8207  2.4829
 4579TIP3    H213695   0.022   1.500   6.344  0.0436 -0.3167 -1.5374
 4580TIP3   OH213696   2.515   2.745   4.467  0.3772 -0.1444 -0.4129
 4580TIP3    H113697   2.577   2.794   4.520  0.1836  1.0374 -1.2404
 4580TIP3    H213698   2.430   2.762   4.507  0.4269 -0.7148 -0.0498
 4581TIP3   OH213699   0.615   1.842   1.161  0.0292 -0.0217 -0.2352
 4581TIP3    H113700   0.674   1.797   1.222 -1.6423 -1.0879  0.7073
 4581TIP3    H213701   0.625   1.935   1.182 -0.3894 -0.3560  1.6278
 4582TIP3   OH213702   4.986   5.977   4.253 -0.0624  0.2223  0.3070
 4582TIP3    H113703   4.969   5.988   4.159  2.6901  0.2381 -0.2782
 4582TIP3    H213704   5.040   5.898   4.258 -1.4663 -0.7038  2.1088
 4583TIP3   OH213705   5.259   1.120   5.534 -0.2067 -0.2670 -0.2976
 4583TIP3    H113706   5.203   1.196   5.546 -0.1657 -0.3850  0.7734
 4583TIP3    H213707   5.249   1.070   5.615  0.9266 -0.6266 -0.3549
 4584TIP3   OH213708   1.719   0.584   6.116  0.1250 -0.3018 -0.1692
 4584TIP3    H113709   1.624   0.593   6.116  0.1202 -0.3579 -0.1693
 4584TIP3    H213710   1.749   0.651   6.054  0.0945 -0.1872 -0.0614
 4585TIP3   OH213711   3.559   0.217   2.689  0.4208 -0.3581 -0.2670
 4585TIP3    H113712   3.588   0.179   2.771 -2.2726 -1.1068  0.4241
 4585TIP3    H213713   3.478   0.263   2.711 -0.5615 -0.8733 -2.5292
 4586TIP3   OH213714   3.947   7.012   3.358  0.2881  0.1393 -0.0794
 4586TIP3    H113715   4.026   7.067   3.355 -0.0300  0.7110  1.2859
 4586TIP3    H213716   3.973   6.931   3.314  1.3482  0.6730 -0.4783
 4587TIP3   OH213717   7.059   7.130   3.441  0.2993 -0.4527  0.4386
 4587TIP3    H113718   6.975   7.155   3.479  1.1671  0.3687  1.8971
 4587TIP3    H213719   7.115   7.207   3.453  0.6559 -0.1169 -2.5793
 4588TIP3   OH213720   4.563   4.960   0.294 -0.0606 -0.3214  1.0489
 4588TIP3    H113721   4.655   4.989   0.293  0.4066 -1.7149 -0.3563
 4588TIP3    H213722   4.513   5.041   0.307  1.3028  0.7286  0.1050
 4589TIP3   OH213723   6.146   2.303   2.811  0.1005  0.3393 -0.2897
 4589TIP3    H113724   6.144   2.398   2.825  0.2437  0.5725 -1.7175
 4589TIP3    H213725   6.065   2.284   2.764  1.0473  0.1238 -1.9418
 4590TIP3   OH213726   3.950   1.495   3.598 -0.1613  0.0898 -0.0086
 4590TIP3    H113727   3.877   1.468   3.542  0.3546  1.0467 -1.1982
 4590TIP3    H213728   3.920   1.576   3.638 -0.1751 -0.1046  0.3736
 4591TIP3   OH213729   0.180   6.500   1.745  0.3059 -0.2904 -0.5847
 4591TIP3    H113730   0.134   6.464   1.669 -0.5730  0.0528 -0.2240
 4591TIP3    H213731   0.167   6.594   1.738 -1.1592 -0.3522  0.8416
 4592TIP3   OH213732   0.632   3.238   1.406 -0.0657  0.4246 -0.3770
 4592TIP3    H113733   0.653   3.284   1.325 -2.6926  0.5362 -1.0865
 4592TIP3    H213734   0.596   3.305   1.463 -0.3725 -0.0722  0.0230
 4593TIP3   OH213735   5.284   0.224   1.551 -0.1036 -0.0968 -0.1904
 4593TIP3    H113736   5.272   0.257   1.640  0.7836  0.8296 -0.3956
 4593TIP3    H213737   5.283   0.302   1.496  1.7846 -0.3785 -0.7221
 4594TIP3   OH213738   3.729   4.648   0.160  0.0356 -0.2074 -0.1400
 4594TIP3    H113739   3.640   4.655   0.194 -0.7530 -0.7577 -1.9693
 4594TIP3    H213740   3.719   4.644   0.065  2.0027 -0.5285 -0.3926
 4595TIP3   OH213741   1.107   7.748   6.316 -0.7621  0.3783  0.3516
 4595TIP3    H113742   1.053   7.689   6.369  0.5493 -1.5796 -0.3658
 4595TIP3    H213743   1.102   7.712   6.227  2.2695 -0.4079  0.3892
 4596TIP3   OH213744   8.270   5.628   0.030 -0.2478  0.1239 -0.5183
 4596TIP3    H113745   8.184   5.604   0.065 -0.0646  0.8870  0.5206
 4596TIP3    H213746   8.284   5.717   0.061  0.8188  0.0901 -0.8639
 4597TIP3   OH213747   1.802   4.126   4.361 -0.0915  0.1854  0.2061
 4597TIP3    H113748   1.834   4.049   4.408 -0.4191  0.2992  0.6149
 4597TIP3    H213749   1.873   4.190   4.368  0.4239 -0.2653 -0.6238
 4598TIP3   OH213750   3.924   3.052   1.578 -0.4464 -0.1476 -0.0951
 4598TIP3    H113751   4.009   3.095   1.589  0.0904 -0.1397 -3.2692
 4598TIP3    H213752   3.924   3.022   1.487 -4.8346  2.0293 -1.0720
 4599TIP3   OH213753   1.567   1.777   5.556  0.0133  0.1613 -0.6641
 4599TIP3    H113754   1.578   1.872   5.555  2.1101 -0.0230 -0.2604
 4599TIP3    H213755   1.598   1.748   5.470  2.0812 -0.3348  0.1811
 4600TIP3   OH213756   7.633   4.896   1.665 -0.2838  0.5516 -0.3984
 4600TIP3    H113757   7.621   4.982   1.624 -0.0053  1.4243  1.2718
 4600TIP3    H213758   7.567   4.841   1.623  0.2602  1.2611 -2.2895
 4601TIP3   OH213759   8.119   2.756   5.090  0.4081 -0.4247  0.3166
 4601TIP3    H113760   8.090   2.717   5.173 -0.2673 -0.8636 -0.1105
 4601TIP3    H213761   8.081   2.844   5.090 -0.1680 -0.6714  0.1691
 4602TIP3   OH213762   2.728   6.465   2.180 -0.0493  1.2826 -0.2560
 4602TIP3    H113763   2.658   6.516   2.139 -1.7776 -1.0284 -0.3689
 4602TIP3    H213764   2.760   6.407   2.110  1.0589  1.3581  0.1657
 4603TIP3   OH213765   5.624   0.390   0.390  0.1070 -0.2092  0.5993
 4603TIP3    H113766   5.610   0.315   0.448  0.6497 -0.9093 -0.1577
 4603TIP3    H213767   5.543   0.397   0.340  1.5967 -3.2052 -2.5824
 4604TIP3   OH213768   5.464   6.850   1.159 -0.3458  0.5453  0.6928
 4604TIP3    H113769   5.447   6.879   1.070  2.0966 -0.5649 -0.2217
 4604TIP3    H213770   5.544   6.896   1.185  0.6300 -1.2728  1.1458
 4605TIP3   OH213771   5.039   1.123   0.770  0.5122 -0.0017 -0.1267
 4605TIP3    H113772   5.030   1.087   0.681 -0.5007  0.7082 -0.3284
 4605TIP3    H213773   5.098   1.062   0.814 -1.7137 -2.3955 -0.1980
 4606TIP3   OH213774   1.572   6.750   5.971  0.4037 -0.8241  0.1512
 4606TIP3    H113775   1.658   6.747   5.931  0.5585  1.3962  0.1892
 4606TIP3    H213776   1.535   6.833   5.943 -1.1733 -1.1070  1.2375
 4607TIP3   OH213777   3.774   3.802   3.626  0.2556  0.0870 -0.5257
 4607TIP3    H113778   3.793   3.895   3.643 -3.1752  0.9484 -0.5265
 4607TIP3    H213779   3.757   3.798   3.532 -1.1694 -0.1370 -0.2827
 4608TIP3   OH213780   2.056   3.131   1.305 -0.2629 -0.4396  0.6379
 4608TIP3    H113781   2.122   3.144   1.372  0.8698  0.8706 -0.6833
 4608TIP3    H213782   2.100   3.078   1.238 -1.0523 -0.8586  0.4336
 4609TIP3   OH213783   0.718   5.759   2.688  0.1090  0.1765  0.1318
 4609TIP3    H113784   0.757   5.749   2.601  0.0254 -1.9163  0.2675
 4609TIP3    H213785   0.701   5.852   2.697 -0.9036  0.3325 -2.5461
 4610TIP3   OH213786   1.799   7.770   3.385  0.2554  0.8130  0.4442
 4610TIP3    H113787   1.732   7.718   3.340  2.2397  0.7830 -2.8686
 4610TIP3    H213788   1.750   7.839   3.429 -2.1083 -0.9062  0.6942
 4611TIP3   OH213789   7.645   6.651   2.577  0.2182 -0.5184 -0.4362
 4611TIP3    H113790   7.613   6.568   2.615  1.1378 -1.0189 -0.7353
 4611TIP3    H213791   7.725   6.670   2.625  2.2892 -1.9780 -3.0652
 4612TIP3   OH213792   4.374   4.160   5.906 -0.4311  0.2849 -0.4593
 4612TIP3    H113793   4.380   4.065   5.896  0.0968  0.2466  0.1532
 4612TIP3    H213794   4.432   4.181   5.980 -1.7448  0.8942  0.4586
 4613TIP3   OH213795   2.386   7.607   6.654 -0.1891  0.3272 -0.3879
 4613TIP3    H113796   2.362   7.675   6.717 -2.1788  2.4886 -3.2586
 4613TIP3    H213797   2.358   7.641   6.570 -0.5856 -3.7818 -2.1371
 4614TIP3   OH213798   5.730   4.891   4.305  0.3568 -0.1222 -0.1889
 4614TIP3    H113799   5.790   4.896   4.380  0.4142 -2.4973  0.0066
 4614TIP3    H213800   5.756   4.963   4.249  1.0489  1.0522  1.5503
 4615TIP3   OH213801   5.005   2.168   2.430 -0.0749 -0.3005 -0.0827
 4615TIP3    H113802   4.924   2.146   2.383  0.0672 -1.7474  0.2918
 4615TIP3    H213803   5.060   2.090   2.420  0.6822  0.0827  0.9467
 4616TIP3   OH213804   6.567   5.789   5.816  0.3957  0.1096  0.8358
 4616TIP3    H113805   6.476   5.767   5.796  0.5146  1.5264 -1.7246
 4616TIP3    H213806   6.564   5.826   5.905 -1.5066  0.0620  0.8334
 4617TIP3   OH213807   3.877   5.408   3.269  0.4996  0.1255 -0.2982
 4617TIP3    H113808   3.828   5.326   3.282 -0.4548  0.9122  1.4311
 4617TIP3    H213809   3.930   5.418   3.348 -0.1968  1.6739  0.0178
 4618TIP3   OH213810   1.357   0.575   2.779  0.3865 -0.2604 -0.1174
 4618TIP3    H113811   1.434   0.603   2.730  0.2779  0.2780  0.0092
 4618TIP3    H213812   1.322   0.501   2.729  1.1652 -0.7161  0.0040
 4619TIP3   OH213813   5.479   2.030   2.975 -0.2364 -0.4013 -0.7224
 4619TIP3    H113814   5.525   1.959   3.019  0.8653  0.9892  0.4774
 4619TIP3    H213815   5.397   2.040   3.023  0.1432 -0.0975 -0.1254
 4620TIP3   OH213816   3.781   1.996   2.978  0.8085 -0.0941  0.1330
 4620TIP3    H113817   3.848   1.993   3.046  2.2199  2.8216 -0.9629
 4620TIP3    H213818   3.712   2.050   3.014  0.5634 -0.3450  0.0421
 4621TIP3   OH213819   6.429   3.353   6.223  0.5230  0.3566 -0.1285
 4621TIP3    H113820   6.381   3.310   6.294  2.6429  0.1185  1.2782
 4621TIP3    H213821   6.405   3.305   6.144 -0.3129 -0.7279  0.7557
 4622TIP3   OH213822   0.330   2.389   6.569 -0.3971  0.1363 -0.8295
 4622TIP3    H113823   0.264   2.319   6.566  0.3602 -0.6492  0.0914
 4622TIP3    H213824   0.411   2.344   6.591 -0.3403  1.5634  2.4179
 4623TIP3   OH213825   7.755   0.917   1.641  0.4433 -0.2426 -0.2995
 4623TIP3    H113826   7.741   1.011   1.631 -1.1411 -0.3568  0.3896
 4623TIP3    H213827   7.736   0.880   1.555 -0.0888 -0.0193 -0.2857
 4624TIP3   OH213828   3.878   2.755   5.512  0.0423  0.5078 -0.2294
 4624TIP3    H113829   3.927   2.696   5.569 -0.7562  1.7406  1.8514
 4624TIP3    H213830   3.850   2.825   5.570 -1.4152  1.4925 -2.0454
 4625TIP3   OH213831   6.175   5.931   6.141  0.0045  0.1623  0.2763
 4625TIP3    H113832   6.174   5.838   6.162 -0.1766 -0.0553 -0.6595
 4625TIP3    H213833   6.108   5.969   6.198 -1.8325 -0.7158 -1.1890
 4626TIP3   OH213834   6.441   5.380   6.294 -0.0222 -0.4397 -0.7584
 4626TIP3    H113835   6.455   5.466   6.254  0.8704 -0.7370 -1.1114
 4626TIP3    H213836   6.450   5.318   6.222  1.6152 -0.9888 -0.1310
 4627TIP3   OH213837   4.399   3.672   2.708 -0.4711 -0.5483 -0.3268
 4627TIP3    H113838   4.356   3.630   2.634  1.6851 -0.0241 -1.9868
 4627TIP3    H213839   4.438   3.600   2.757  1.9566 -0.7376 -2.3375
 4628TIP3   OH213840   0.877   5.500   4.267  0.0722 -0.1111 -0.3459
 4628TIP3    H113841   0.801   5.463   4.222  1.0919 -1.3233 -1.1424
 4628TIP3    H213842   0.881   5.590   4.237 -1.5956  0.2912  0.4751
 4629TIP3   OH213843   0.119   6.449   0.329 -0.5671  0.3944  0.3564
 4629TIP3    H113844   0.094   6.363   0.365 -1.8475  0.7378  0.3313
 4629TIP3    H213845   0.068   6.457   0.249 -1.7001  1.8336  1.1681
 4630TIP3   OH213846   0.651   6.980   5.826  0.0224  0.1409  0.1544
 4630TIP3    H113847   0.589   7.019   5.888 -1.8905 -1.3019 -0.7293
 4630TIP3    H213848   0.667   6.892   5.861  2.6815  0.9002  1.0553
 4631TIP3   OH213849   3.858   7.338   4.752  0.2015 -0.5257  0.6531
 4631TIP3    H113850   3.781   7.351   4.697  1.1308 -0.8180 -0.7549
 4631TIP3    H213851   3.860   7.416   4.808 -0.7082 -0.1756  0.2225
 4632TIP3   OH213852   5.866   2.335   2.020 -0.4667  0.1166  0.3473
 4632TIP3    H113853   5.858   2.241   2.006  1.0592 -0.0842  0.6623
 4632TIP3    H213854   5.941   2.361   1.966 -1.2773  1.2825 -0.2648
 4633TIP3   OH213855   7.659   3.685   3.239 -0.3431  0.3438 -0.1180
 4633TIP3    H113856   7.701   3.742   3.304 -0.5167  1.7415 -1.1845
 4633TIP3    H213857   7.618   3.616   3.291 -0.4813  1.4157  1.2681
 4634TIP3   OH213858   2.356   4.622   6.016 -0.1980 -0.0196 -0.2077
 4634TIP3    H113859   2.445   4.607   6.047 -0.1616  0.8024  0.1037
 4634TIP3    H213860   2.344   4.717   6.022 -0.3723  0.1179 -2.2308
 4635TIP3   OH213861   7.653   6.083   0.874 -0.3499  0.2129 -0.3110
 4635TIP3    H113862   7.560   6.089   0.851 -0.3524  0.7114 -0.1697
 4635TIP3    H213863   7.667   6.151   0.940 -0.5373 -1.7344  1.8769
 4636TIP3   OH213864   1.653   7.145   6.676 -0.2091  0.2870 -0.5130
 4636TIP3    H113865   1.709   7.199   6.619 -1.3519  1.5671 -0.4784
 4636TIP3    H213866   1.623   7.205   6.744  0.1213 -0.9260  0.7416
 4637TIP3   OH213867   3.275   2.056   1.372 -0.5664  0.1327  0.0228
 4637TIP3    H113868   3.344   2.075   1.309 -0.9078 -0.4565 -0.5347
 4637TIP3    H213869   3.318   2.060   1.458 -0.0867  0.8736 -0.2404
 4638TIP3   OH213870   4.790   0.766   2.738  0.7046 -0.1340  0.2541
 4638TIP3    H113871   4.833   0.792   2.657  0.8968  0.3830  0.5151
 4638TIP3    H213872   4.710   0.819   2.741  0.7410 -0.0879  0.4390
 4639TIP3   OH213873   5.102   4.848   4.101 -0.5073  0.0923  0.9260
 4639TIP3    H113874   5.173   4.900   4.064 -1.2013  0.1165 -0.4431
 4639TIP3    H213875   5.067   4.901   4.173  0.0893  0.5989  0.8449
 4640TIP3   OH213876   6.151   5.808   0.634 -0.1126  0.1413 -0.2986
 4640TIP3    H113877   6.225   5.760   0.597  0.4988 -0.1356  1.2036
 4640TIP3    H213878   6.174   5.819   0.727 -2.0309 -0.0953  0.2476
 4641TIP3   OH213879   3.937   1.741   2.046  0.2892  0.0630 -0.3136
 4641TIP3    H113880   3.845   1.715   2.047  0.2057  0.3552 -0.2760
 4641TIP3    H213881   3.967   1.718   1.958 -0.2501  1.4229 -0.8739
 4642TIP3   OH213882   7.857   7.251   4.786 -0.5691  0.2646 -0.2763
 4642TIP3    H113883   7.945   7.216   4.776 -1.0631 -1.3829  0.7266
 4642TIP3    H213884   7.824   7.259   4.696  0.2878  0.0990 -0.6167
 4643TIP3   OH213885   7.062   6.823   2.643  0.3600  0.3161  0.7616
 4643TIP3    H113886   7.040   6.795   2.555 -1.0599  0.5077  1.0266
 4643TIP3    H213887   7.152   6.795   2.656  1.5311  2.5813 -1.6768
 4644TIP3   OH213888   3.461   1.148   5.351  0.0078 -0.0723  0.4191
 4644TIP3    H113889   3.485   1.130   5.260 -0.4819  1.1437  0.0344
 4644TIP3    H213890   3.378   1.103   5.364 -0.1221  0.0897  0.1426
 4645TIP3   OH213891   6.088   6.565   5.122 -0.2390 -0.1039 -0.4871
 4645TIP3    H113892   6.007   6.595   5.163  0.3288 -0.8971  1.3683
 4645TIP3    H213893   6.060   6.508   5.051 -1.3917 -1.6230  1.0891
 4646TIP3   OH213894   7.620   4.399   4.992 -0.0677 -0.1305 -0.1686
 4646TIP3    H113895   7.571   4.455   4.931 -0.7574  0.0915  0.5836
 4646TIP3    H213896   7.619   4.312   4.950  3.2061  0.8253 -2.6558
 4647TIP3   OH213897   3.655   6.238   5.734  0.1206  0.4914  0.2923
 4647TIP3    H113898   3.687   6.316   5.780  0.0028  0.3853  0.5489
 4647TIP3    H213899   3.675   6.256   5.642 -1.3704  1.5594  0.1334
 4648TIP3   OH213900   2.230   1.847   5.031  0.0678  0.0723 -0.1712
 4648TIP3    H113901   2.271   1.863   5.116  1.2948  2.6387 -1.1350
 4648TIP3    H213902   2.146   1.806   5.052  0.0481  1.2023  2.3347
 4649TIP3   OH213903   2.314   7.072   4.835  0.2701 -0.1245 -0.0231
 4649TIP3    H113904   2.296   7.021   4.756  1.2053  0.1092 -0.3965
 4649TIP3    H213905   2.334   7.007   4.902  2.3059 -0.2748 -0.7063
 4650TIP3   OH213906   1.612   2.812   3.358  0.2140  0.2766  0.1197
 4650TIP3    H113907   1.673   2.750   3.400  0.8837  0.0716 -1.0846
 4650TIP3    H213908   1.620   2.792   3.264 -1.7961  0.1902 -0.0724
 4651TIP3   OH213909   1.471   7.727   4.634  0.3674  0.0334  0.0303
 4651TIP3    H113910   1.408   7.792   4.667  0.8336  0.8596 -0.6562
 4651TIP3    H213911   1.551   7.777   4.620  1.1296 -0.9757  0.7231
 4652TIP3   OH213912   0.974   4.160   2.929 -0.2161  0.0494 -0.3216
 4652TIP3    H113913   0.951   4.251   2.950  0.9723  0.1366  0.6802
 4652TIP3    H213914   1.051   4.167   2.872  0.8599 -0.3278  1.0319
 4653TIP3   OH213915   5.472   6.649   2.329 -0.0721 -0.1832 -0.2661
 4653TIP3    H113916   5.543   6.598   2.290  0.4218 -0.2039  0.6337
 4653TIP3    H213917   5.400   6.586   2.340 -0.6466  0.0821 -2.1826
 4654TIP3   OH213918   4.141   0.604   6.604  0.1968 -0.1859  0.5899
 4654TIP3    H113919   4.054   0.598   6.644 -0.3786 -2.5807 -0.8318
 4654TIP3    H213920   4.129   0.570   6.515  1.9065  2.7052 -0.8777
 4655TIP3   OH213921   4.580   6.240   3.262 -0.2132  0.2440 -0.0646
 4655TIP3    H113922   4.515   6.231   3.332 -0.4369 -0.2744 -0.3326
 4655TIP3    H213923   4.563   6.166   3.204  0.8951 -0.1627  0.0936
 4656TIP3   OH213924   4.628   5.992   4.044  0.0393 -0.7099  0.2545
 4656TIP3    H113925   4.589   6.060   3.989 -0.5334 -2.0938 -1.1054
 4656TIP3    H213926   4.721   6.014   4.046 -0.3802  1.2619  1.5623
 4657TIP3   OH213927   3.733   4.701   1.963 -0.4170  0.0512  0.0451
 4657TIP3    H113928   3.724   4.637   1.893 -0.0094  1.0390 -0.9326
 4657TIP3    H213929   3.692   4.780   1.929  1.2616  1.0499  0.2439
 4658TIP3   OH213930   4.995   6.621   0.998 -0.3610  0.1346 -0.1677
 4658TIP3    H113931   5.033   6.630   0.911 -0.2054  0.5540 -0.0585
 4658TIP3    H213932   5.069   6.633   1.058  0.3460 -3.7804  0.0199
 4659TIP3   OH213933   8.039   1.774   5.205 -0.1280 -0.3212 -0.2729
 4659TIP3    H113934   8.040   1.710   5.134  0.5149  0.7164 -1.2269
 4659TIP3    H213935   8.131   1.792   5.223 -0.2930 -0.1478  0.4474
 4660TIP3   OH213936   4.473   4.896   3.525  0.1236  0.4435 -0.6948
 4660TIP3    H113937   4.549   4.837   3.526  2.3151  3.0489 -1.4635
 4660TIP3    H213938   4.428   4.878   3.607  1.2442 -1.5844 -0.4494
 4661TIP3   OH213939   4.792   6.980   3.590 -0.0005 -0.3132  0.0334
 4661TIP3    H113940   4.764   7.024   3.510  0.0139 -0.5427 -0.1005
 4661TIP3    H213941   4.730   6.908   3.600 -0.3478  0.0543  0.5441
 4662TIP3   OH213942   0.837   4.316   6.554  0.6750 -0.0593 -0.0002
 4662TIP3    H113943   0.746   4.332   6.530  1.0695  1.8782 -0.3703
 4662TIP3    H213944   0.835   4.231   6.600 -1.6851  0.9604  2.0345
 4663TIP3   OH213945   2.689   3.601   3.575 -0.0819  0.0612 -0.6348
 4663TIP3    H113946   2.738   3.618   3.494  0.9920 -1.0389 -0.2551
 4663TIP3    H213947   2.626   3.533   3.551 -0.4304  0.4277 -0.7698
 4664TIP3   OH213948   6.318   2.134   5.252 -0.2741 -0.1326  0.1696
 4664TIP3    H113949   6.340   2.059   5.196 -0.5077 -0.2131  0.1835
 4664TIP3    H213950   6.401   2.158   5.293 -0.4775 -1.4085  1.4170
 4665TIP3   OH213951   2.013   3.487   2.638 -0.2221 -0.2979 -0.6113
 4665TIP3    H113952   2.028   3.411   2.582  1.9272 -0.3687  0.0019
 4665TIP3    H213953   2.099   3.526   2.649 -0.9452  0.9487  0.9075
 4666TIP3   OH213954   3.822   2.744   2.135  0.1815  0.9941 -0.3789
 4666TIP3    H113955   3.887   2.681   2.104 -0.5824  0.0206 -0.0448
 4666TIP3    H213956   3.738   2.702   2.119 -0.3029  1.2814  1.2501
 4667TIP3   OH213957   8.051   0.839   6.374  0.0262  0.2017  0.0191
 4667TIP3    H113958   7.989   0.766   6.363 -0.5815  0.8759 -1.3468
 4667TIP3    H213959   7.999   0.917   6.354  0.6703  1.0283  1.4316
 4668TIP3   OH213960   6.425   3.126   5.656  0.1796 -0.2732 -0.0735
 4668TIP3    H113961   6.468   3.043   5.677 -0.3005 -0.5585 -0.2110
 4668TIP3    H213962   6.349   3.129   5.713  1.5149  1.2475  1.7477
 4669TIP3   OH213963   5.546   6.318   2.325 -0.1521 -0.0922 -0.3194
 4669TIP3    H113964   5.569   6.264   2.249  1.6476 -0.1716  0.2192
 4669TIP3    H213965   5.604   6.394   2.319 -1.1893  0.7531  0.0692
 4670TIP3   OH213966   1.168   1.174   6.347  0.4195 -0.5865  0.1343
 4670TIP3    H113967   1.124   1.254   6.319 -0.8374 -1.5412 -0.7330
 4670TIP3    H213968   1.115   1.142   6.420 -1.0967 -2.3447 -1.6355
 4671TIP3   OH213969   6.662   3.557   0.041  0.1341  0.0907  0.1727
 4671TIP3    H113970   6.623   3.469   0.044  0.9567 -0.2680  0.9397
 4671TIP3    H213971   6.684   3.570  -0.051  3.3239 -2.0724  0.4465
 4672TIP3   OH213972   2.802   6.414   0.049 -0.5376 -0.2566  0.5138
 4672TIP3    H113973   2.832   6.391   0.137  0.2079  0.0746  0.3489
 4672TIP3    H213974   2.758   6.335   0.017 -2.4451  0.1935  1.8722
 4673TIP3   OH213975   4.511   0.625   0.541 -0.2629  0.4221  0.4772
 4673TIP3    H113976   4.481   0.589   0.458  0.8008 -0.3816  0.4219
 4673TIP3    H213977   4.496   0.719   0.534 -0.3541  0.3341 -0.5535
 4674TIP3   OH213978   5.579   2.915   0.220  0.6198  0.4529  0.2989
 4674TIP3    H113979   5.488   2.885   0.218  1.2315 -1.6392  1.0091
 4674TIP3    H213980   5.586   2.972   0.144 -0.7194 -1.2182 -1.1915
 4675TIP3   OH213981   1.832   0.213   3.646  0.3328 -0.3222 -0.1175
 4675TIP3    H113982   1.753   0.184   3.693 -0.2651  1.2572 -0.0885
 4675TIP3    H213983   1.891   0.243   3.715  0.0978  0.4731 -0.2468
 4676TIP3   OH213984   2.507   3.665   6.056 -0.4746  0.0497  0.3425
 4676TIP3    H113985   2.520   3.577   6.021  1.1737 -0.5125  2.1974
 4676TIP3    H213986   2.419   3.689   6.029 -1.5146 -2.7483  0.9788
 4677TIP3   OH213987   4.494   6.216   1.954  0.3423 -0.3477 -0.0269
 4677TIP3    H113988   4.568   6.220   1.892 -0.5753 -0.5673 -1.1813
 4677TIP3    H213989   4.485   6.122   1.973 -0.7056 -0.5464 -1.2883
 4678TIP3   OH213990   0.721   7.368   2.281 -0.9922 -0.1521  0.5350
 4678TIP3    H113991   0.685   7.451   2.310  0.5866  0.8681 -0.2361
 4678TIP3    H213992   0.663   7.341   2.210 -0.1421  1.6330 -0.9377
 4679TIP3   OH213993   0.376   5.532   1.469 -0.1395 -0.0008 -0.3440
 4679TIP3    H113994   0.289   5.494   1.480  1.0422 -2.6686  0.7543
 4679TIP3    H213995   0.417   5.520   1.555  0.4920  3.6490 -0.0091
 4680TIP3   OH213996   2.251   4.011   3.570  0.0606 -0.2491  0.1564
 4680TIP3    H113997   2.258   3.988   3.662  0.0448  0.0707  0.2378
 4680TIP3    H213998   2.174   4.067   3.564  0.1239 -0.1806 -0.0321
 4681TIP3   OH213999   5.044   1.561   1.324 -0.0354 -0.2581 -0.0800
 4681TIP3    H114000   4.990   1.530   1.397 -0.2336 -1.1876 -0.5978
 4681TIP3    H214001   4.982   1.574   1.252 -0.1189  2.3286  0.3496
 4682TIP3   OH214002   8.257   1.869   6.368  1.0328 -0.2923 -0.2401
 4682TIP3    H114003   8.165   1.892   6.380  0.4504 -1.7450 -1.5536
 4682TIP3    H214004   8.286   1.843   6.455  1.1314  3.0344  0.8596
 4683TIP3   OH214005   6.391   0.329   6.096  0.0447  0.8029  0.0026
 4683TIP3    H114006   6.428   0.417   6.095 -3.0411  2.3562  2.4903
 4683TIP3    H214007   6.315   0.334   6.038  0.6488 -0.7267 -0.9909
 4684TIP3   OH214008   7.787   0.554   1.071  0.4350 -0.0970  0.3170
 4684TIP3    H114009   7.839   0.635   1.065 -0.9880  0.7734 -1.0020
 4684TIP3    H214010   7.792   0.516   0.984 -1.1454  0.0368  0.1425
 4685TIP3   OH214011   0.408   1.283   2.751  0.0945  0.2124 -0.8723
 4685TIP3    H114012   0.408   1.210   2.813  0.8853  0.0008 -1.1107
 4685TIP3    H214013   0.452   1.249   2.673 -1.1386  0.3857 -1.6808
 4686TIP3   OH214014   6.728   4.748   5.750 -0.3566 -0.0512  0.4519
 4686TIP3    H114015   6.763   4.837   5.744 -0.4735 -0.0465 -0.1879
 4686TIP3    H214016   6.658   4.746   5.685  0.9759 -1.2341 -0.9989
 4687TIP3   OH214017   2.653   3.051  -0.020 -0.1605 -0.1340 -0.0228
 4687TIP3    H114018   2.558   3.043  -0.023 -0.3373  1.5060  0.2990
 4687TIP3    H214019   2.671   3.106   0.056  0.9525  0.6686 -0.8277
 4688TIP3   OH214020   3.001   1.716   0.880  0.1190 -0.7519  0.6122
 4688TIP3    H114021   2.945   1.734   0.955 -0.3741  0.9244 -0.1069
 4688TIP3    H214022   2.960   1.641   0.837 -0.3682 -0.8745  1.2795
 4689TIP3   OH214023   2.559   5.274   2.128  0.3607 -0.1859 -0.3635
 4689TIP3    H114024   2.497   5.203   2.111  0.0556  0.0183 -0.1044
 4689TIP3    H214025   2.625   5.264   2.059  1.1100 -1.5999  0.5258
 4690TIP3   OH214026   1.303   5.658   5.473 -0.0139  0.1505 -0.0133
 4690TIP3    H114027   1.215   5.690   5.454 -0.0510  0.6431  0.9044
 4690TIP3    H214028   1.348   5.661   5.389 -0.1627  2.1911 -0.0903
 4691TIP3   OH214029   5.482   7.584   5.802 -0.0667  0.0051 -0.2959
 4691TIP3    H114030   5.498   7.679   5.801  0.7325 -0.1193 -0.2353
 4691TIP3    H214031   5.429   7.568   5.724 -0.7804  0.5880  0.0503
 4692TIP3   OH214032   5.741   6.935   1.227  0.0149  0.3005  0.1463
 4692TIP3    H114033   5.737   6.931   1.323  1.4358 -0.6473  0.1916
 4692TIP3    H214034   5.834   6.940   1.207 -0.2888  0.9300 -1.1880
 4693TIP3   OH214035   4.976   0.789   2.200 -0.3478 -0.0082 -0.1453
 4693TIP3    H114036   4.983   0.706   2.153 -1.2467  0.3971 -1.0176
 4693TIP3    H214037   5.067   0.818   2.210 -0.1078 -0.3072 -1.2651
 4694TIP3   OH214038   6.687   4.493   3.355  0.0935 -0.7548  0.4457
 4694TIP3    H114039   6.779   4.481   3.377  0.0261  1.1164  1.9465
 4694TIP3    H214040   6.688   4.530   3.267  0.7998 -0.2141  0.6743
 4695TIP3   OH214041   0.701   4.732   4.607  0.1666 -0.6032  0.6380
 4695TIP3    H114042   0.632   4.667   4.599 -0.2157 -0.0639 -0.7502
 4695TIP3    H214043   0.758   4.698   4.676  0.2185 -2.6278 -0.3245
 4696TIP3   OH214044   1.603   1.729   2.542  0.3833  0.3464  0.0424
 4696TIP3    H114045   1.542   1.669   2.499  1.3700 -1.9575  1.6149
 4696TIP3    H214046   1.689   1.692   2.524  1.2026  2.4566 -0.5459
 4697TIP3   OH214047   6.577   0.038   2.808 -0.0906 -0.7896 -0.0364
 4697TIP3    H114048   6.513   0.072   2.871 -1.2466  0.0853 -1.6111
 4697TIP3    H214049   6.531  -0.033   2.764  0.3590 -0.7630 -0.5565
 4698TIP3   OH214050   0.928   2.453   3.602 -0.2875 -0.4427 -0.2554
 4698TIP3    H114051   0.868   2.528   3.602  0.0129 -0.1932  0.3858
 4698TIP3    H214052   0.973   2.459   3.686  0.3240 -0.8780 -0.5475
 4699TIP3   OH214053   7.818   0.351   2.828 -0.1096 -0.3044 -0.3844
 4699TIP3    H114054   7.740   0.325   2.876  1.0254 -2.8106  0.2719
 4699TIP3    H214055   7.874   0.392   2.894  0.0180 -0.5377 -0.3454
 4700TIP3   OH214056   1.365   3.849   3.819  0.2867  0.7027 -0.1736
 4700TIP3    H114057   1.364   3.767   3.870 -0.0207  0.7028 -0.1784
 4700TIP3    H214058   1.446   3.892   3.845 -0.4374  1.2649  1.2199
 4701TIP3   OH214059   5.978   7.026   2.531 -0.0654 -0.3602 -0.1586
 4701TIP3    H114060   5.962   7.120   2.527  1.8268  0.0183  0.4035
 4701TIP3    H214061   5.962   6.996   2.441  1.9732  1.0092 -1.0739
 4702TIP3   OH214062   3.783   1.560   6.000  0.2985  0.0024 -0.5485
 4702TIP3    H114063   3.829   1.476   6.003 -2.7366 -1.8196  1.9945
 4702TIP3    H214064   3.770   1.583   6.092 -1.8537  1.4657 -1.1390
 4703TIP3   OH214065   6.937   3.086   4.841 -0.3794  0.1451  0.0563
 4703TIP3    H114066   6.971   3.033   4.913 -2.4635  1.7378  2.3959
 4703TIP3    H214067   6.846   3.059   4.832 -0.4058  0.6427 -1.3694
 4704TIP3   OH214068   2.014   2.807   3.294 -0.0074 -0.4097 -0.0655
 4704TIP3    H114069   1.984   2.755   3.368  0.7738 -1.7377 -0.6454
 4704TIP3    H214070   2.105   2.828   3.315 -0.1371  0.2082 -0.1119
 4705TIP3   OH214071   1.078   7.773   0.958  0.0308 -0.2958 -0.3954
 4705TIP3    H114072   1.067   7.692   1.007  0.3862 -0.2831 -0.2910
 4705TIP3    H214073   0.997   7.783   0.908 -0.8358  0.3098  1.0804
 4706TIP3   OH214074   0.502   4.564   1.445  0.3580  0.8245  0.1178
 4706TIP3    H114075   0.570   4.631   1.446 -1.6526  3.0469 -1.5422
 4706TIP3    H214076   0.522   4.510   1.368 -1.3669  3.4590 -2.3748
 4707TIP3   OH214077   7.657   0.459   0.147  0.4828  0.2706 -0.0113
 4707TIP3    H114078   7.735   0.408   0.166 -0.2701 -0.7748  0.3490
 4707TIP3    H214079   7.669   0.541   0.195  0.8141 -0.3678  1.0145
 4708TIP3   OH214080   1.723   4.273   4.994 -0.1041 -0.1947  0.0384
 4708TIP3    H114081   1.698   4.190   5.033 -0.1345 -0.2355 -0.0660
 4708TIP3    H214082   1.819   4.273   4.995 -0.0998 -0.3320 -0.1682
 4709TIP3   OH214083   5.009   3.902   1.676  0.0086 -0.3740  0.1432
 4709TIP3    H114084   5.102   3.891   1.655  0.2112 -0.0622  0.8286
 4709TIP3    H214085   4.989   3.826   1.732  0.0996  0.0374  0.7494
 4710TIP3   OH214086   5.680   2.895   5.069 -0.6304 -0.0720 -0.6100
 4710TIP3    H114087   5.690   2.821   5.128 -1.2180 -0.0779 -0.5183
 4710TIP3    H214088   5.602   2.941   5.099 -0.0961  0.7806 -0.4579
 4711TIP3   OH214089   5.076   7.442   3.006 -0.3334  0.3464  0.1525
 4711TIP3    H114090   5.150   7.471   2.953 -1.1880 -0.0770 -1.3076
 4711TIP3    H214091   5.069   7.348   2.989 -1.7899  0.5577 -0.4779
 4712TIP3   OH214092   2.462   4.398   2.829  0.7567 -0.2868  0.1845
 4712TIP3    H114093   2.438   4.455   2.756 -0.2185  0.2219  0.8834
 4712TIP3    H214094   2.548   4.430   2.858  1.2408 -0.6178 -0.8474
 4713TIP3   OH214095   4.942   6.170   1.767 -0.5663  0.4407 -0.6977
 4713TIP3    H114096   5.030   6.194   1.798 -0.1666 -2.0446  0.3363
 4713TIP3    H214097   4.906   6.116   1.838 -1.1696 -2.2865 -2.9383
 4714TIP3   OH214098   3.824   6.013   0.373 -0.0243  0.2476 -0.4133
 4714TIP3    H114099   3.860   6.101   0.390  0.6124 -0.2222  0.8077
 4714TIP3    H214100   3.750   6.029   0.315  0.5584  1.5174 -0.8527
 4715TIP3   OH214101   3.192   1.543   2.900  0.4862  0.7733 -0.2850
 4715TIP3    H114102   3.229   1.627   2.927  1.0271  0.9389 -1.4830
 4715TIP3    H214103   3.257   1.478   2.927  0.1440  0.7341  0.4908
 4716TIP3   OH214104   1.897   2.588   2.277  0.1146  0.5044 -0.0838
 4716TIP3    H114105   1.866   2.556   2.192  0.4603  1.8435 -0.7487
 4716TIP3    H214106   1.988   2.559   2.283 -0.0035  0.1500 -0.0409
 4717TIP3   OH214107   1.767   5.760   1.271  0.1349  0.9659 -0.2500
 4717TIP3    H114108   1.855   5.784   1.241 -0.3194  1.0536 -1.5720
 4717TIP3    H214109   1.720   5.843   1.277 -0.5575  0.7361 -1.9326
 4718TIP3   OH214110   7.532   2.382   0.841  0.0622 -0.0878 -0.0098
 4718TIP3    H114111   7.523   2.400   0.748  2.5847 -1.4962 -0.6247
 4718TIP3    H214112   7.536   2.286   0.847  0.0412 -0.0222  1.5514
 4719TIP3   OH214113   3.626   5.155   2.993 -0.1555 -0.0907 -0.3022
 4719TIP3    H114114   3.644   5.073   3.038  0.3232 -0.2654 -0.8014
 4719TIP3    H214115   3.540   5.141   2.951 -0.0990 -0.3188 -0.3431
 4720TIP3   OH214116   5.027   0.225   3.757  0.3464 -0.2050  0.4000
 4720TIP3    H114117   4.999   0.256   3.843  0.9213  0.3139  0.4085
 4720TIP3    H214118   5.088   0.292   3.727  0.1791 -0.4093 -0.3951
 4721TIP3   OH214119   6.600   3.755   5.484 -0.2572 -0.3951  0.4451
 4721TIP3    H114120   6.506   3.762   5.498 -0.4761 -0.3920 -0.9122
 4721TIP3    H214121   6.632   3.845   5.490 -0.2143 -0.4591  1.5408
 4722TIP3   OH214122   0.878   6.925   0.094 -0.4845  0.6854  0.1572
 4722TIP3    H114123   0.904   6.846   0.142 -0.5795 -0.4099 -1.5217
 4722TIP3    H214124   0.783   6.927   0.103 -0.3782  1.4440  1.3959
 4723TIP3   OH214125   4.651   1.909   2.997 -0.0781 -0.0018 -0.7020
 4723TIP3    H114126   4.708   1.834   3.013  0.6677  0.7247  0.0995
 4723TIP3    H214127   4.594   1.880   2.925  0.3417 -1.2479 -0.5610
 4724TIP3   OH214128   8.290   0.658   1.856  0.3424  0.5636 -0.2096
 4724TIP3    H114129   8.199   0.644   1.882  0.3161  1.1067  0.0273
 4724TIP3    H214130   8.298   0.617   1.770 -0.3175  1.1198 -0.5454
 4725TIP3   OH214131   7.789   3.804   4.072 -0.7214  0.0184  0.3718
 4725TIP3    H114132   7.846   3.792   3.996 -1.0145 -2.0667  0.4175
 4725TIP3    H214133   7.779   3.898   4.080 -1.0815  0.2868 -2.4609
 4726TIP3   OH214134   4.653   3.166   5.373 -0.3581  0.8182  0.9880
 4726TIP3    H114135   4.616   3.083   5.403  0.5283 -0.2216 -0.6205
 4726TIP3    H214136   4.631   3.170   5.280  1.9711  1.0109  0.3822
 4727TIP3   OH214137   7.285   6.027   3.451  0.2254  0.7807  0.0109
 4727TIP3    H114138   7.358   6.059   3.504  0.7610  0.9148 -0.7936
 4727TIP3    H214139   7.326   5.970   3.386 -0.5816 -0.6157  0.6711
 4728TIP3   OH214140   3.185   6.794   1.788  0.3008  0.5557  0.2934
 4728TIP3    H114141   3.128   6.731   1.832  1.7944 -0.4947  0.8064
 4728TIP3    H214142   3.265   6.746   1.770  1.6168  2.3740  0.9502
 4729TIP3   OH214143   1.314   5.631   6.339  0.5800 -0.2272 -0.3062
 4729TIP3    H114144   1.324   5.695   6.269 -0.1227 -0.9687 -1.1185
 4729TIP3    H214145   1.396   5.582   6.340 -0.6268 -2.6046 -3.1253
 4730TIP3   OH214146   2.227   1.372   3.862  0.1373 -0.0426  0.4660
 4730TIP3    H114147   2.159   1.366   3.930  0.8859  1.2038  1.3703
 4730TIP3    H214148   2.187   1.422   3.792  0.2899  1.2731  1.2761
 4731TIP3   OH214149   7.275   4.402   4.369  0.0461  0.1798 -0.1510
 4731TIP3    H114150   7.255   4.342   4.297 -1.2128  0.1414  0.2064
 4731TIP3    H214151   7.272   4.348   4.448 -1.8263  0.7841  0.2589
 4732TIP3   OH214152   5.709   5.655   2.656  0.1887 -0.4506  0.4770
 4732TIP3    H114153   5.646   5.621   2.720  0.4517 -0.6679  0.6205
 4732TIP3    H214154   5.792   5.612   2.678  0.5049  0.2075  0.6056
 4733TIP3   OH214155   3.847   6.227   1.207 -0.1376 -0.4631  0.1244
 4733TIP3    H114156   3.763   6.216   1.253 -1.0561  0.7425 -1.1733
 4733TIP3    H214157   3.828   6.204   1.116  0.1397  2.5020 -0.8010
 4734TIP3   OH214158   0.133   5.649   3.090 -0.4099 -0.1396  0.5443
 4734TIP3    H114159   0.219   5.674   3.124 -0.1198 -2.4502  1.7346
 4734TIP3    H214160   0.074   5.718   3.118  0.5367 -0.0344  2.4487
 4735TIP3   OH214161   5.556   1.358   1.340  0.2535  0.6944 -0.4961
 4735TIP3    H114162   5.648   1.358   1.366  0.4974  1.2984 -1.3343
 4735TIP3    H214163   5.513   1.413   1.404  0.5353  0.6973 -0.3051
 4736TIP3   OH214164   3.068   6.627   4.158 -0.1345 -0.3395 -0.6579
 4736TIP3    H114165   3.037   6.707   4.116 -0.9064 -0.3329 -0.1104
 4736TIP3    H214166   3.007   6.559   4.127  0.0518 -0.5671 -0.5263
 4737TIP3   OH214167   0.585   2.735   0.456 -0.5410  0.1248 -0.3507
 4737TIP3    H114168   0.585   2.648   0.416 -1.5300 -0.7404  1.4383
 4737TIP3    H214169   0.493   2.761   0.459 -0.2698  1.2081 -0.7439
 4738TIP3   OH214170   6.330   4.048   4.947  0.1911 -0.2197 -0.0288
 4738TIP3    H114171   6.251   4.054   5.000  1.0708 -1.1323  1.4381
 4738TIP3    H214172   6.379   3.975   4.984  1.6081  0.1561 -1.0666
 4739TIP3   OH214173   5.074   3.429   4.303 -0.3699 -0.8500  0.6244
 4739TIP3    H114174   5.076   3.333   4.307  0.2694 -0.8772 -0.1431
 4739TIP3    H214175   5.011   3.448   4.234 -1.1636 -0.6865  1.3781
 4740TIP3   OH214176   8.045   1.461   1.597 -0.1616  0.5043  0.0879
 4740TIP3    H114177   8.131   1.470   1.557 -0.4445  3.1433 -0.1491
 4740TIP3    H214178   8.062   1.430   1.686  0.7578 -1.6398 -0.7711
 4741TIP3   OH214179   0.463   6.849   3.931 -0.0548 -0.1296  0.3529
 4741TIP3    H114180   0.523   6.829   4.002 -0.3378  0.3357  0.7279
 4741TIP3    H214181   0.453   6.766   3.883 -1.3338 -0.9690  1.9634
 4742TIP3   OH214182   2.823   3.181   6.062 -0.1800  0.6155 -0.4335
 4742TIP3    H114183   2.822   3.087   6.046  1.3032  0.4996 -0.0206
 4742TIP3    H214184   2.853   3.219   5.979  1.0544  0.5514 -0.0358
 4743TIP3   OH214185   8.060   6.449   0.502  0.3521  0.0683  0.2122
 4743TIP3    H114186   8.003   6.387   0.548  1.6612 -0.1798  1.6037
 4743TIP3    H214187   8.120   6.393   0.451 -0.6919  0.3277 -1.3782
 4744TIP3   OH214188   0.596   3.024   4.557  0.2630  0.1080  0.4064
 4744TIP3    H114189   0.679   3.004   4.599 -0.3192 -0.1809  1.4726
 4744TIP3    H214190   0.570   3.108   4.595  0.3312  0.4762 -0.3452
 4745TIP3   OH214191   4.563   5.568   3.993  0.3632 -0.3144 -0.2951
 4745TIP3    H114192   4.532   5.656   4.014  0.5198 -0.6503  1.5859
 4745TIP3    H214193   4.498   5.532   3.933  0.9284  1.4853 -2.0659
 4746TIP3   OH214194   8.013   7.232   5.055  0.1945 -0.0874 -0.2209
 4746TIP3    H114195   8.047   7.222   4.966 -1.3605 -0.7093 -0.7727
 4746TIP3    H214196   7.924   7.265   5.043  0.0319  0.0052  1.1203
 4747TIP3   OH214197   0.820   6.211   5.472  0.1023 -0.3022  0.0455
 4747TIP3    H114198   0.838   6.299   5.504 -0.1787 -0.7790  1.6110
 4747TIP3    H214199   0.734   6.189   5.508  0.6189 -1.5933  0.5485
 4748TIP3   OH214200   2.650   0.447   3.838 -1.0311 -0.1601  0.2379
 4748TIP3    H114201   2.563   0.443   3.878 -0.0307  0.5631  2.7241
 4748TIP3    H214202   2.656   0.536   3.802 -1.2522 -0.1217  0.2964
 4749TIP3   OH214203   8.089   4.245   1.474  0.1658  0.2472 -0.0304
 4749TIP3    H114204   8.028   4.266   1.404  0.4324 -2.5038 -1.2095
 4749TIP3    H214205   8.174   4.241   1.430  0.7256  0.8124  0.9604
 4750TIP3   OH214206   3.006   3.917   2.258 -0.1787 -1.2000  0.3994
 4750TIP3    H114207   2.986   3.973   2.334  0.0561 -0.7244  0.1156
 4750TIP3    H214208   3.099   3.931   2.242 -0.7495  0.9195 -1.7107
 4751TIP3   OH214209   5.043   4.621   2.708 -0.7954  0.4014  0.0030
 4751TIP3    H114210   5.018   4.529   2.717 -2.1953  0.5668 -1.6469
 4751TIP3    H214211   5.131   4.619   2.671 -0.9095 -0.2799 -0.2386
 4752TIP3   OH214212   4.682   0.881  -0.002 -0.0268  0.3082  0.3191
 4752TIP3    H114213   4.648   0.948  -0.061  2.6008  0.1747 -1.5291
 4752TIP3    H214214   4.732   0.930   0.063  1.8726  0.2539 -1.0169
 4753TIP3   OH214215   6.422   0.296   1.613 -0.2203  0.1524 -0.0005
 4753TIP3    H114216   6.424   0.267   1.704  1.2761 -0.1229 -0.1004
 4753TIP3    H214217   6.464   0.226   1.564  1.1321  1.3084 -0.5785
 4754TIP3   OH214218   7.142   1.291   6.292  0.1103  0.2622  0.2140
 4754TIP3    H114219   7.230   1.327   6.301 -0.4462  2.0136 -0.9220
 4754TIP3    H214220   7.145   1.242   6.210  0.0197  0.2974  0.1901
 4755TIP3   OH214221   6.223   3.555   6.754  0.2053  0.3853  0.1740
 4755TIP3    H114222   6.165   3.561   6.678  0.7545  0.3378 -0.2545
 4755TIP3    H214223   6.304   3.519   6.720  0.2041 -0.3627  0.9288
 4756TIP3   OH214224   2.002   7.575   5.709  0.4404 -0.4708 -0.4194
 4756TIP3    H114225   2.003   7.670   5.716 -2.6053 -0.2108 -1.8514
 4756TIP3    H214226   2.006   7.544   5.800 -1.5299  1.1888  0.3098
 4757TIP3   OH214227   4.616   2.401   5.526  0.0200  0.1302 -0.4417
 4757TIP3    H114228   4.524   2.379   5.538  0.6125 -1.5209  1.6351
 4757TIP3    H214229   4.646   2.425   5.613  1.5433  0.7628 -1.1065
 4758TIP3   OH214230   2.916   4.714   3.446  0.2466 -0.3401 -0.5576
 4758TIP3    H114231   2.936   4.652   3.376 -0.0561 -0.1060 -0.8547
 4758TIP3    H214232   2.942   4.669   3.526  1.5004 -0.2300 -0.8893
 4759TIP3   OH214233   4.551   0.446   4.610 -0.3229 -0.2472  0.3433
 4759TIP3    H114234   4.466   0.483   4.634  0.2035  1.7967 -0.7147
 4759TIP3    H214235   4.590   0.417   4.692 -2.0556 -1.3365  0.8346
 4760TIP3   OH214236   5.170   7.598   0.472  0.2610 -0.0188  0.1741
 4760TIP3    H114237   5.170   7.681   0.424 -0.6573  1.3407  2.3270
 4760TIP3    H214238   5.131   7.620   0.557  1.3136 -2.3623  1.3623
 4761TIP3   OH214239   4.985   4.984   2.815 -0.1532 -0.5899  0.2891
 4761TIP3    H114240   4.989   4.943   2.901  0.6249 -1.0266  0.0498
 4761TIP3    H214241   4.895   5.016   2.808 -0.9173 -2.5767  0.3412
 4762TIP3   OH214242   7.887   4.171   2.851  0.9484 -0.2206  0.2537
 4762TIP3    H114243   7.855   4.137   2.934 -0.2007 -1.4882 -0.6624
 4762TIP3    H214244   7.962   4.116   2.829  0.5090 -0.6814 -0.1153
 4763TIP3   OH214245   4.417   0.373   5.923 -0.7230  0.2377 -0.0346
 4763TIP3    H114246   4.376   0.446   5.878 -0.3113 -0.2324 -1.2243
 4763TIP3    H214247   4.475   0.333   5.857  1.3598  0.6414  1.4391
 4764TIP3   OH214248   5.512   4.781   0.773  0.9721 -0.6525  0.0080
 4764TIP3    H114249   5.558   4.816   0.697 -0.3527 -1.7346 -1.3553
 4764TIP3    H214250   5.471   4.700   0.742 -0.5490 -0.5550  1.5567
 4765TIP3   OH214251   7.768   5.599   4.681  0.2232 -0.2092  0.2024
 4765TIP3    H114252   7.781   5.694   4.692 -3.3470  0.6142 -1.3928
 4765TIP3    H214253   7.796   5.581   4.592 -3.0455  0.3434 -1.0480
 4766TIP3   OH214254   0.730   1.673   1.347  0.4039  0.1393  0.5016
 4766TIP3    H114255   0.699   1.664   1.437 -0.1268  0.9299  0.4096
 4766TIP3    H214256   0.718   1.586   1.309 -0.3243  0.0546  0.9037
 4767TIP3   OH214257   2.914   0.315   5.988  0.0946 -0.3395 -0.3411
 4767TIP3    H114258   2.898   0.345   5.898  1.5801  0.0308 -0.5007
 4767TIP3    H214259   2.963   0.234   5.977 -0.7086 -0.8982  0.1390
 4768TIP3   OH214260   2.713   2.863   4.603  0.1843  0.4505 -0.2560
 4768TIP3    H114261   2.752   2.899   4.523  1.4624  0.1509  0.1987
 4768TIP3    H214262   2.787   2.821   4.647 -0.3980  1.0321  1.3207
 4769TIP3   OH214263   0.550   7.652   6.297 -0.0686  0.0382  0.5592
 4769TIP3    H114264   0.537   7.628   6.389 -0.6260 -2.3424 -0.0702
 4769TIP3    H214265   0.640   7.626   6.277 -0.4429 -0.9284  0.0548
 4770TIP3   OH214266   4.121   6.712   1.419  0.1553  0.0694  0.6847
 4770TIP3    H114267   4.215   6.703   1.434 -0.1391  0.2854  3.0191
 4770TIP3    H214268   4.113   6.789   1.362  1.4131 -0.5221 -0.3389
 4771TIP3   OH214269   2.749   1.056   5.459  0.5442  0.0594  0.2183
 4771TIP3    H114270   2.707   1.005   5.529  1.0261 -0.0275  0.4516
 4771TIP3    H214271   2.726   1.147   5.478 -2.2280 -0.1830 -1.4761
 4772TIP3   OH214272   4.654   0.109   5.033  0.0721 -0.3487  0.3140
 4772TIP3    H114273   4.595   0.096   5.107 -1.3242 -2.4706 -1.0669
 4772TIP3    H214274   4.608   0.073   4.958  2.2846 -0.1764 -1.2482
 4773TIP3   OH214275   4.251   1.038   4.592  0.4533  0.5214  0.3331
 4773TIP3    H114276   4.157   1.044   4.603  0.6228  1.2133  1.5436
 4773TIP3    H214277   4.284   1.125   4.617  1.4747  0.0649  0.6301
 4774TIP3   OH214278   5.297   3.810   2.131  0.1121  0.2699 -0.7345
 4774TIP3    H114279   5.380   3.779   2.094  0.5723 -0.3406  0.7049
 4774TIP3    H214280   5.240   3.733   2.128  0.4679 -0.0728  0.6420
 4775TIP3   OH214281   1.360   0.133   1.781  0.3823 -0.5993 -0.1263
 4775TIP3    H114282   1.426   0.200   1.761 -0.7674  0.0947 -1.8657
 4775TIP3    H214283   1.355   0.132   1.877  1.3996  0.8447 -0.0272
 4776TIP3   OH214284   1.527   1.696   4.393 -0.2714  0.1927  0.2999
 4776TIP3    H114285   1.524   1.791   4.383 -0.6134  0.1010 -0.5112
 4776TIP3    H214286   1.446   1.665   4.353 -0.0886 -0.4543  0.4221
 4777TIP3   OH214287   3.731   1.084   6.668 -0.2435 -0.0637  0.3311
 4777TIP3    H114288   3.736   1.015   6.601  0.1908  0.9696 -0.7494
 4777TIP3    H214289   3.819   1.087   6.707  0.4224  1.2763 -1.1364
 4778TIP3   OH214290   5.656   6.868   3.852  0.2882  0.0810  0.3927
 4778TIP3    H114291   5.595   6.889   3.782  1.0759 -0.3883 -0.4488
 4778TIP3    H214292   5.664   6.949   3.903 -0.5694  0.3116  0.1626
 4779TIP3   OH214293   4.556   2.302   6.243 -0.1751 -0.8234  0.0427
 4779TIP3    H114294   4.570   2.214   6.207  0.1152 -0.5393 -0.5384
 4779TIP3    H214295   4.463   2.319   6.229 -0.5285 -1.5301  1.2842
 4780TIP3   OH214296   3.503   5.892   5.487  0.2928 -0.7584  0.4523
 4780TIP3    H114297   3.431   5.938   5.445 -0.8573 -1.1689  1.8916
 4780TIP3    H214298   3.515   5.813   5.435 -0.4760 -0.8104  0.3432
 4781TIP3   OH214299   3.467   0.729   3.895 -0.2003 -0.0467  0.8360
 4781TIP3    H114300   3.491   0.789   3.965 -0.6423  0.4124  0.5952
 4781TIP3    H214301   3.441   0.649   3.941  0.4054 -0.0691  1.1542
 4782TIP3   OH214302   6.295   1.811   3.340 -0.5413 -0.0189 -0.2449
 4782TIP3    H114303   6.244   1.796   3.261 -0.2925  1.1287 -0.6422
 4782TIP3    H214304   6.383   1.782   3.318 -0.5999 -0.2406 -0.1901
 4783TIP3   OH214305   0.810   3.605   2.429 -0.4099 -0.1128 -0.1888
 4783TIP3    H114306   0.806   3.628   2.336 -0.5715 -3.3279 -1.0752
 4783TIP3    H214307   0.719   3.606   2.458 -0.6939 -1.9791 -0.9053
 4784TIP3   OH214308   4.244   0.977   5.817  0.1367  0.0630 -0.0855
 4784TIP3    H114309   4.251   0.896   5.766  3.0700  0.3033 -0.2447
 4784TIP3    H214310   4.216   1.043   5.753  0.1668 -0.3550 -0.5347
 4785TIP3   OH214311   2.606   0.434   2.352 -0.5506 -0.1902 -0.5751
 4785TIP3    H114312   2.547   0.503   2.382 -0.9907 -0.2403 -1.3246
 4785TIP3    H214313   2.619   0.379   2.430 -1.1665  0.0446 -0.3000
 4786TIP3   OH214314   0.663   1.949   2.966 -0.2598  0.9633  0.3276
 4786TIP3    H114315   0.752   1.985   2.969  0.7148 -1.3059  0.2197
 4786TIP3    H214316   0.669   1.873   2.908 -2.3187  0.8292  0.1982
 4787TIP3   OH214317   5.243   3.166   4.760 -0.2204 -0.1490  0.0603
 4787TIP3    H114318   5.276   3.100   4.701  1.3814 -0.2086  0.9658
 4787TIP3    H214319   5.174   3.211   4.711  2.0497  0.8343 -2.4621
 4788TIP3   OH214320   5.105   4.117   5.812 -0.2475 -0.2711 -0.7989
 4788TIP3    H114321   5.013   4.096   5.827 -0.3287 -0.1744 -1.1459
 4788TIP3    H214322   5.134   4.054   5.747 -0.3090  0.2496 -1.3388
 4789TIP3   OH214323   4.037   4.307   3.181 -0.6276  0.0763  0.0863
 4789TIP3    H114324   3.979   4.358   3.124 -0.2462 -0.1163 -0.4881
 4789TIP3    H214325   4.060   4.230   3.129  0.5710  0.4131  0.0829
 4790TIP3   OH214326   6.524   6.272   6.679 -0.2890 -0.1622  0.3781
 4790TIP3    H114327   6.497   6.357   6.714  1.0377  0.1329  0.7605
 4790TIP3    H214328   6.614   6.261   6.710 -0.4227 -1.6973  0.2981
 4791TIP3   OH214329   2.454   3.130   0.954 -0.0814  0.0192  0.0787
 4791TIP3    H114330   2.511   3.056   0.971 -1.3546 -1.2566 -0.9986
 4791TIP3    H214331   2.366   3.094   0.958 -0.7020  1.2959 -1.2140
 4792TIP3   OH214332   0.893   7.278   4.226 -0.3031 -0.4701  0.1717
 4792TIP3    H114333   0.809   7.270   4.270  0.4885 -0.5648  1.7248
 4792TIP3    H214334   0.940   7.198   4.248  0.7599  0.2459  0.5919
 4793TIP3   OH214335   2.272   4.255   1.672 -0.2509  0.1596 -0.1819
 4793TIP3    H114336   2.259   4.350   1.679  0.0011  0.2400 -0.7164
 4793TIP3    H214337   2.184   4.219   1.664 -0.6354  0.0178  3.4005
 4794TIP3   OH214338   1.143   5.844   2.128  0.0009 -0.0172 -0.2548
 4794TIP3    H114339   1.136   5.749   2.125  0.0020 -0.0199 -0.1791
 4794TIP3    H214340   1.144   5.871   2.036  0.3180 -0.1145 -0.2805
 4795TIP3   OH214341   7.290   7.008   3.566  0.1292  0.8027 -0.2853
 4795TIP3    H114342   7.206   7.036   3.528  0.0770  0.3708 -0.5051
 4795TIP3    H214343   7.295   7.054   3.649  0.5363  2.2630 -1.0806
 4796TIP3   OH214344   3.025   2.091   1.507 -0.8010 -0.1515 -0.0586
 4796TIP3    H114345   3.110   2.079   1.466 -1.2736 -0.0594 -1.0872
 4796TIP3    H214346   3.025   2.029   1.581  0.8912  1.2346  1.1717
 4797TIP3   OH214347   2.652   7.362   6.406 -0.2049  0.4805  0.1431
 4797TIP3    H114348   2.669   7.423   6.477  0.2530  1.7846 -1.0520
 4797TIP3    H214349   2.716   7.385   6.339 -0.2366 -1.1097 -0.4781
 4798TIP3   OH214350   5.803   7.584   5.712 -0.4549  0.2058  0.2938
 4798TIP3    H114351   5.834   7.512   5.767 -1.3432 -1.9617 -1.8872
 4798TIP3    H214352   5.774   7.651   5.775  0.4147 -1.2906  2.4082
 4799TIP3   OH214353   3.245   7.198   3.363 -0.2372 -0.1466  0.1379
 4799TIP3    H114354   3.259   7.128   3.298 -0.3072 -0.2712  0.2576
 4799TIP3    H214355   3.161   7.236   3.339  0.0453  0.2423 -0.2475
 4800TIP3   OH214356   7.004   1.501   5.340  0.2063  0.8702 -0.0083
 4800TIP3    H114357   7.048   1.471   5.420 -0.2660 -1.8647 -0.6701
 4800TIP3    H214358   7.047   1.452   5.269 -1.4317  0.8890 -1.0723
 4801TIP3   OH214359   5.157   3.478   4.891 -0.2412 -0.2952 -0.3294
 4801TIP3    H114360   5.121   3.494   4.804 -0.7598  2.0077  0.2425
 4801TIP3    H214361   5.087   3.436   4.940 -0.2231 -0.8650 -0.7902
 4802TIP3   OH214362   4.468   6.486   0.797  0.5705 -0.2752  0.8672
 4802TIP3    H114363   4.514   6.569   0.795 -1.1537  0.7285  1.1568
 4802TIP3    H214364   4.487   6.446   0.712  2.4704 -0.2309  1.2216
 4803TIP3   OH214365   0.495   1.880   6.254 -0.0099 -0.0677 -0.4279
 4803TIP3    H114366   0.502   1.786   6.273 -1.5906  0.0921  1.2094
 4803TIP3    H214367   0.514   1.922   6.338 -2.2893  0.9262 -0.3576
 4804TIP3   OH214368   7.122   3.674   0.942  0.2485 -0.2377 -0.0958
 4804TIP3    H114369   7.129   3.690   0.848 -0.1031 -1.0450 -0.2707
 4804TIP3    H214370   7.034   3.705   0.965  1.5714  3.4318  0.7369
 4805TIP3   OH214371   1.369   6.853   2.228  0.0463  0.0334  0.0528
 4805TIP3    H114372   1.414   6.933   2.203  0.6676 -0.1560  0.5446
 4805TIP3    H214373   1.379   6.847   2.323  0.9840 -1.1916 -0.0961
 4806TIP3   OH214374   2.880   6.253   4.822 -0.0964  0.1853  0.6007
 4806TIP3    H114375   2.842   6.172   4.789  0.1810  0.3361 -0.1132
 4806TIP3    H214376   2.818   6.284   4.887 -0.9361  0.1519 -0.1610
 4807TIP3   OH214377   4.072   4.280   5.609  0.4863  0.0154 -0.6040
 4807TIP3    H114378   4.015   4.338   5.558  0.9001  0.2743 -0.7781
 4807TIP3    H214379   4.066   4.196   5.564 -1.2660 -0.4890  0.4992
 4808TIP3   OH214380   8.141   2.505   3.429 -0.1379 -1.0962  0.4219
 4808TIP3    H114381   8.049   2.529   3.435 -0.3365 -1.6178 -0.4240
 4808TIP3    H214382   8.141   2.411   3.413  0.4077 -0.6845 -2.5959
 4809TIP3   OH214383   2.200   4.065   2.176  0.1549 -0.4257  0.0629
 4809TIP3    H114384   2.239   4.101   2.097 -1.4663 -0.0540 -0.6069
 4809TIP3    H214385   2.271   4.064   2.240  1.6788 -1.3602 -1.5575
 4810TIP3   OH214386   5.248   0.656   1.407 -0.3474  0.7354 -0.9506
 4810TIP3    H114387   5.161   0.647   1.366 -0.2814 -2.4212 -0.7037
 4810TIP3    H214388   5.308   0.620   1.341  0.4325  0.6246 -0.1855
 4811TIP3   OH214389   1.760   2.449   3.694 -0.4843  0.1788  0.7354
 4811TIP3    H114390   1.737   2.488   3.779  1.3035  0.6200  1.0718
 4811TIP3    H214391   1.792   2.362   3.716 -0.1586  0.2395  0.5090
 4812TIP3   OH214392   5.300   0.023   4.571  0.4730 -0.0921  0.5573
 4812TIP3    H114393   5.343   0.004   4.655  2.1979 -0.3900 -0.3511
 4812TIP3    H214394   5.277   0.115   4.576  0.7877 -0.0428  1.2634
 4813TIP3   OH214395   2.207   0.006   3.652 -0.3879 -0.2916  0.3492
 4813TIP3    H114396   2.161  -0.006   3.735 -1.4669  1.1252  0.0043
 4813TIP3    H214397   2.178   0.092   3.622  0.3568 -0.5800 -1.2668
 4814TIP3   OH214398   5.500   5.915   5.723  0.7318  0.2593 -0.1504
 4814TIP3    H114399   5.596   5.923   5.726  0.8089 -0.7202  0.5914
 4814TIP3    H214400   5.485   5.826   5.691  0.0855  0.0185  0.7963
 4815TIP3   OH214401   1.990   3.962   6.037  0.0156  0.5409 -0.0571
 4815TIP3    H114402   2.021   4.045   6.073 -0.0606 -0.6494  2.9893
 4815TIP3    H214403   1.918   3.936   6.094 -0.2395 -1.4629 -1.1817
 4816TIP3   OH214404   5.971   6.456   1.952 -0.2638  0.4694 -0.1948
 4816TIP3    H114405   6.028   6.445   2.029 -2.0620  0.8765  1.2884
 4816TIP3    H214406   5.991   6.544   1.920  0.6546  0.2176 -0.3350
 4817TIP3   OH214407   6.745   0.106   6.393  0.1792  0.4770  0.2659
 4817TIP3    H114408   6.688   0.182   6.408 -0.9853 -0.3207  0.0984
 4817TIP3    H214409   6.763   0.108   6.299 -0.7196 -0.0105  0.0682
 4818TIP3   OH214410   2.054   6.699   2.868  0.0645 -0.1692 -0.4822
 4818TIP3    H114411   2.126   6.669   2.924  0.1566  0.5120 -0.2326
 4818TIP3    H214412   2.072   6.659   2.782  1.1088  0.5457 -0.6039
 4819TIP3   OH214413   7.957   0.420   3.356 -0.1200 -0.8172 -0.1428
 4819TIP3    H114414   7.933   0.385   3.441 -0.4821  2.3149  1.1749
 4819TIP3    H214415   7.913   0.363   3.293 -0.0774 -3.0411  1.7067
 4820TIP3   OH214416   3.563   5.379   4.352 -0.6084 -0.1333  0.0176
 4820TIP3    H114417   3.619   5.446   4.314 -2.5797  1.6682  0.0904
 4820TIP3    H214418   3.540   5.322   4.278  0.4683 -0.2774 -0.2110
 4821TIP3   OH214419   5.868   6.546   6.456  0.0284 -0.5095  0.6904
 4821TIP3    H114420   5.818   6.481   6.406 -0.3252 -0.1908  0.6302
 4821TIP3    H214421   5.841   6.533   6.547  0.0484 -0.5241  0.6944
 4822TIP3   OH214422   6.864   2.892   2.061  0.3550  0.4059 -0.3758
 4822TIP3    H114423   6.943   2.842   2.044 -0.3630 -1.5328  1.5504
 4822TIP3    H214424   6.833   2.917   1.974  0.9605 -2.2633 -1.4764
 4823TIP3   OH214425   6.270   6.181   1.723 -0.3277  0.0471 -0.0051
 4823TIP3    H114426   6.304   6.160   1.810 -0.1651  1.7447  0.3758
 4823TIP3    H214427   6.338   6.152   1.663  0.4698  0.7214  0.5640
 4824TIP3   OH214428   4.869   4.696   5.848  0.1071 -0.1748  0.3994
 4824TIP3    H114429   4.785   4.661   5.819  0.0411  1.0905 -1.1191
 4824TIP3    H214430   4.933   4.631   5.819 -0.3050 -1.0447  1.3860
 4825TIP3   OH214431   2.047   4.889   1.501  0.6206  0.1457  0.2232
 4825TIP3    H114432   2.136   4.895   1.536  0.4181 -0.1059  0.8029
 4825TIP3    H214433   2.042   4.801   1.464  0.6461  0.1942  0.1060
 4826TIP3   OH214434   0.719   6.785   1.619  0.1210 -0.4857 -0.4140
 4826TIP3    H114435   0.702   6.748   1.533 -0.5152  0.1829 -0.5833
 4826TIP3    H214436   0.795   6.736   1.652  0.8349 -0.2491 -1.6527
 4827TIP3   OH214437   2.803   6.205   1.127  0.6404 -0.3432 -0.1840
 4827TIP3    H114438   2.792   6.274   1.062  0.2408  0.2963  0.5373
 4827TIP3    H214439   2.868   6.241   1.188 -0.9275  0.2097  1.2316
 4828TIP3   OH214440   3.920   6.062   5.639  0.2392  0.0702  0.3184
 4828TIP3    H114441   3.897   5.972   5.662  2.0058 -0.3902  0.4545
 4828TIP3    H214442   3.922   6.109   5.723 -0.4335  0.1863  0.2748
 4829TIP3   OH214443   2.662   4.967   1.529  0.2925 -0.1720  0.5268
 4829TIP3    H114444   2.715   4.915   1.470 -0.9432 -0.9858  0.0865
 4829TIP3    H214445   2.622   4.904   1.588 -1.0783  0.2701  0.1140
 4830TIP3   OH214446   6.634   5.724   3.980 -0.1418 -0.0325  0.2237
 4830TIP3    H114447   6.603   5.777   4.053 -1.6852  2.1899 -1.8998
 4830TIP3    H214448   6.574   5.649   3.977 -0.1819 -0.0408  1.0572
 4831TIP3   OH214449   2.122   1.690   6.466  0.5095 -0.3125 -0.0698
 4831TIP3    H114450   2.140   1.689   6.372  1.4922 -1.8360  0.0916
 4831TIP3    H214451   2.033   1.655   6.473  0.5337 -0.4567 -0.4222
 4832TIP3   OH214452   7.057   6.123   5.531 -0.5292  0.4073  0.7346
 4832TIP3    H114453   7.008   6.057   5.582 -0.6501  0.9073  1.2759
 4832TIP3    H214454   7.063   6.085   5.443  1.0473 -1.2074  1.4722
 4833TIP3   OH214455   4.917   2.095   4.886  0.1644 -0.5654 -0.5796
 4833TIP3    H114456   4.919   2.091   4.791 -0.2026 -1.5768 -0.5591
 4833TIP3    H214457   4.827   2.073   4.909  0.2944 -0.5070  0.0107
 4834TIP3   OH214458   2.133   7.107   3.350 -0.4604  0.8888 -0.5756
 4834TIP3    H114459   2.095   7.090   3.436  0.0428 -0.7994 -0.6457
 4834TIP3    H214460   2.180   7.190   3.361  0.8714 -0.0249  1.2556
 4835TIP3   OH214461   6.171   0.679   0.845 -0.3668  0.2318 -0.0017
 4835TIP3    H114462   6.191   0.772   0.861 -0.8401  0.4296 -0.5242
 4835TIP3    H214463   6.137   0.677   0.756  1.6338 -0.7557 -0.8059
 4836TIP3   OH214464   1.348   1.744   1.168  0.3515 -0.4995  0.1888
 4836TIP3    H114465   1.327   1.665   1.117  0.5642  0.7148 -1.9171
 4836TIP3    H214466   1.292   1.739   1.245 -1.2206 -1.6518 -0.9540
 4837TIP3   OH214467   6.455   1.329   2.036  0.1270  0.2501  0.0427
 4837TIP3    H114468   6.428   1.348   1.946  1.0572 -0.9619 -0.5060
 4837TIP3    H214469   6.458   1.234   2.041  1.0213  0.3189  1.0795
 4838TIP3   OH214470   7.343   4.858   4.295  0.1095  0.4557  0.0628
 4838TIP3    H114471   7.358   4.795   4.224 -0.2584  0.0161  0.3699
 4838TIP3    H214472   7.273   4.915   4.262  2.7831  3.0193 -1.7053
 4839TIP3   OH214473   3.921   6.230   2.190 -0.7004  0.0987 -0.1342
 4839TIP3    H114474   4.008   6.193   2.206 -0.6004  0.9934  1.6316
 4839TIP3    H214475   3.932   6.282   2.110  0.1757 -0.3914 -0.3555
 4840TIP3   OH214476   6.088   7.473   0.736 -0.0440 -0.3872 -0.0089
 4840TIP3    H114477   6.135   7.464   0.653  0.3477  1.0759  0.0202
 4840TIP3    H214478   6.115   7.396   0.787 -3.0871 -3.3762 -2.4328
 4841TIP3   OH214479   3.240   5.330   0.469 -0.3577  0.0993 -0.5946
 4841TIP3    H114480   3.200   5.390   0.531 -0.9289  0.0593 -0.9232
 4841TIP3    H214481   3.308   5.285   0.520 -0.3875  0.5226 -0.1723
 4842TIP3   OH214482   3.332   0.079   5.018  0.1460 -0.3813 -0.1221
 4842TIP3    H114483   3.277   0.114   4.948 -1.4092 -2.0674  0.1800
 4842TIP3    H214484   3.348   0.153   5.076 -2.2407  0.0914  0.0241
 4843TIP3   OH214485   0.911   5.599   0.288 -0.1162  0.1560  0.2073
 4843TIP3    H114486   0.855   5.574   0.362 -1.0869  0.1761 -0.4969
 4843TIP3    H214487   0.968   5.667   0.324 -0.2214 -0.1921  1.0697
 4844TIP3   OH214488   7.486   5.390   2.316  0.0089  0.3083 -0.2551
 4844TIP3    H114489   7.553   5.403   2.248 -0.9056  0.7785 -1.0824
 4844TIP3    H214490   7.503   5.460   2.379  1.3596 -0.6022  0.4360
 4845TIP3   OH214491   8.258   1.438   4.583 -0.0737  0.1427  0.4138
 4845TIP3    H114492   8.253   1.515   4.641  0.3981 -0.1967  0.9207
 4845TIP3    H214493   8.194   1.455   4.514  0.0114  0.9863  0.5335
 4846TIP3   OH214494   7.260   3.711   6.718  0.4884  0.1389  0.0071
 4846TIP3    H114495   7.352   3.710   6.689 -0.2477  0.9941 -2.6570
 4846TIP3    H214496   7.241   3.804   6.731  0.1674 -0.0885  1.2535
 4847TIP3   OH214497   7.741   6.809   1.690  0.0105  0.4329  0.4470
 4847TIP3    H114498   7.701   6.896   1.690  0.8295  0.8299  0.8884
 4847TIP3    H214499   7.824   6.821   1.737 -0.2418 -0.7591  1.2442
 4848TIP3   OH214500   3.463   3.309   5.253  0.3885 -0.5368  0.2102
 4848TIP3    H114501   3.503   3.236   5.299  1.4835  0.5377  1.0462
 4848TIP3    H214502   3.447   3.375   5.321  0.1070  0.2890 -0.6255
 4849TIP3   OH214503   0.112   0.224   5.000 -0.1260  0.2926  0.5986
 4849TIP3    H114504   0.129   0.149   5.056  1.1616 -0.7191 -1.0472
 4849TIP3    H214505   0.188   0.281   5.010 -1.1227  1.4681  1.8857
 4850TIP3   OH214506   2.422   6.076   4.645  0.2453 -0.4120  0.1209
 4850TIP3    H114507   2.341   6.027   4.629 -0.5697  0.2841  1.8101
 4850TIP3    H214508   2.403   6.164   4.611  0.1001 -0.1168  0.9490
 4851TIP3   OH214509   7.509   4.204   3.302 -0.0749  0.1265 -0.7153
 4851TIP3    H114510   7.422   4.233   3.274  0.5924  0.8396 -2.1433
 4851TIP3    H214511   7.515   4.231   3.394  0.1056  3.7163 -1.6323
 4852TIP3   OH214512   4.120   3.832   0.643  0.2483  0.1030 -0.3544
 4852TIP3    H114513   4.084   3.748   0.671  0.3135  0.1563 -0.1084
 4852TIP3    H214514   4.043   3.887   0.628  0.1742 -0.2682 -1.3709
 4853TIP3   OH214515   3.514   1.128   2.780 -0.4118  0.1515  0.1614
 4853TIP3    H114516   3.467   1.132   2.697  1.4752  3.0665 -0.9018
 4853TIP3    H214517   3.566   1.048   2.774 -1.0731 -0.2224 -0.9722
 4854TIP3   OH214518   1.626   6.568   3.758 -0.4330  0.4526 -0.2298
 4854TIP3    H114519   1.600   6.571   3.666  1.3180 -0.4763 -0.8136
 4854TIP3    H214520   1.611   6.477   3.784  0.5925  0.3002 -0.1117
 4855TIP3   OH214521   7.957   2.041   3.720  0.2180 -0.1197  0.4224
 4855TIP3    H114522   7.970   1.951   3.690  1.2249 -0.3079  1.3775
 4855TIP3    H214523   8.036   2.087   3.694 -0.4984  0.6415 -0.5094
 4856TIP3   OH214524   8.027   2.315   1.966  0.1952 -0.2359  0.0031
 4856TIP3    H114525   7.984   2.332   2.050  0.7576 -1.9251  0.6898
 4856TIP3    H214526   7.965   2.346   1.901 -0.7875  0.0370  1.0268
 4857TIP3   OH214527   6.016   0.301   0.051 -0.1874 -0.6006 -0.1231
 4857TIP3    H114528   6.066   0.264  -0.021  0.1096  0.7757 -0.6535
 4857TIP3    H214529   6.078   0.305   0.124  1.6611  3.9943 -1.6054
 4858TIP3   OH214530   5.780   5.407   3.141  0.0239 -0.5027 -0.1577
 4858TIP3    H114531   5.804   5.456   3.220  0.6552  0.4744 -0.9107
 4858TIP3    H214532   5.785   5.315   3.166 -2.0027 -0.2073  1.5400
 4859TIP3   OH214533   4.762   1.147   6.253  0.0047  0.0541  0.3396
 4859TIP3    H114534   4.806   1.224   6.289  0.5570 -0.1586  0.1443
 4859TIP3    H214535   4.724   1.103   6.329  1.6810 -0.7118  0.7854
 4860TIP3   OH214536   0.627   5.519   4.197 -0.4557 -0.3850 -0.2958
 4860TIP3    H114537   0.580   5.449   4.152 -2.3154  1.2284 -1.0494
 4860TIP3    H214538   0.593   5.517   4.287 -0.0343 -0.8290 -0.1430
 4861TIP3   OH214539   0.552   1.804   1.940  0.3683 -0.0562  0.3981
 4861TIP3    H114540   0.582   1.723   1.981 -1.6462 -1.7884 -1.3128
 4861TIP3    H214541   0.615   1.819   1.869  1.9569  1.1308  1.9751
 4862TIP3   OH214542   4.020   4.895   1.560 -1.1402  0.3014  0.6006
 4862TIP3    H114543   4.030   4.989   1.574  0.3851  0.0647  1.3800
 4862TIP3    H214544   4.035   4.857   1.647 -2.4993 -0.6365  0.4522
 4863TIP3   OH214545   6.571   4.924   1.811 -0.1489  0.1489  0.4283
 4863TIP3    H114546   6.488   4.960   1.842 -0.6944  0.3051 -1.1163
 4863TIP3    H214547   6.567   4.831   1.835  0.1094  0.5204  2.0666
 4864TIP3   OH214548   5.213   7.198   0.999  0.4228 -0.4075 -0.3801
 4864TIP3    H114549   5.160   7.119   0.989 -0.9219  0.1559  1.6293
 4864TIP3    H214550   5.164   7.266   0.952 -0.2880 -0.0673  0.7924
 4865TIP3   OH214551   5.082   1.938   4.068  0.2587  0.4085  0.0990
 4865TIP3    H114552   4.993   1.911   4.092  0.6312 -0.7925  0.1979
 4865TIP3    H214553   5.099   2.014   4.123 -0.8300  0.8727 -0.1710
 4866TIP3   OH214554   4.502   4.518   1.674  0.0603  0.1394  0.5763
 4866TIP3    H114555   4.420   4.559   1.646  0.6375 -1.0602 -3.4863
 4866TIP3    H214556   4.532   4.573   1.747 -1.7535  3.8787 -1.1808
 4867TIP3   OH214557   1.562   4.962   6.741 -0.3737 -0.0154 -0.4803
 4867TIP3    H114558   1.653   4.965   6.711 -1.0623  1.3793 -2.6827
 4867TIP3    H214559   1.514   4.923   6.668 -1.6085 -0.5302  0.5640
 4868TIP3   OH214560   1.096   2.212   3.301 -0.5073  0.4894 -0.4659
 4868TIP3    H114561   1.009   2.172   3.294 -0.9943  1.1128  1.3482
 4868TIP3    H214562   1.079   2.300   3.335  0.7418  1.2438 -1.6857
 4869TIP3   OH214563   5.856   3.427   4.741  0.2318  0.1733 -0.2606
 4869TIP3    H114564   5.897   3.487   4.679  1.2018 -0.5039 -0.3161
 4869TIP3    H214565   5.772   3.467   4.763 -0.0866  0.4921 -1.9151
 4870TIP3   OH214566   4.338   1.069   2.113 -0.0330  0.7113 -0.2236
 4870TIP3    H114567   4.251   1.072   2.153  0.6629  1.9358  1.3286
 4870TIP3    H214568   4.352   0.976   2.094 -1.8152  0.5326 -0.8942
 4871TIP3   OH214569   1.855   1.105   4.651 -0.2033  0.6883  0.4327
 4871TIP3    H114570   1.792   1.168   4.615 -0.9376 -1.4643 -2.3783
 4871TIP3    H214571   1.824   1.020   4.620  3.8599 -0.5482 -0.8125
 4872TIP3   OH214572   3.840   4.695   1.281 -0.3629  0.5095 -0.5461
 4872TIP3    H114573   3.863   4.788   1.278 -0.0732  0.4139 -2.7032
 4872TIP3    H214574   3.814   4.674   1.192 -0.2867 -1.5403 -0.1286
 4873TIP3   OH214575   8.049   0.361   0.649  0.3085 -0.0915  0.0171
 4873TIP3    H114576   8.068   0.286   0.593 -0.4884  0.1762 -0.6311
 4873TIP3    H214577   8.115   0.357   0.718  0.5844 -1.0938 -0.2928
 4874TIP3   OH214578   0.241   3.827   3.802  0.1369  0.3783  0.2496
 4874TIP3    H114579   0.335   3.833   3.820  0.0009  0.2877  1.0383
 4874TIP3    H214580   0.232   3.749   3.747  0.3044 -0.9277  1.9616
 4875TIP3   OH214581   5.251   7.152   1.570 -0.4147  0.1483 -0.2687
 4875TIP3    H114582   5.243   7.144   1.665  1.1875  0.3094 -0.0812
 4875TIP3    H214583   5.227   7.066   1.536 -1.3143  0.1851  0.2453
 4876TIP3   OH214584   6.621   7.013   4.182 -0.4045 -0.4824 -0.3109
 4876TIP3    H114585   6.540   7.012   4.131  0.0521 -0.8186 -1.0536
 4876TIP3    H214586   6.602   6.960   4.259 -0.8026 -0.8162 -0.6339
 4877TIP3   OH214587   3.002   7.325   3.247  0.7792  0.2877  0.2244
 4877TIP3    H114588   2.958   7.294   3.167  1.4891  0.2310 -0.1578
 4877TIP3    H214589   2.931   7.348   3.306  0.2054 -1.2827  0.2129
 4878TIP3   OH214590   4.995   1.300   1.090 -0.7925 -0.4539  0.1222
 4878TIP3    H114591   4.979   1.394   1.102  0.4759 -0.1694 -0.2871
 4878TIP3    H214592   4.934   1.275   1.021  0.5232  0.6411 -1.5213
 4879TIP3   OH214593   5.261   6.417   5.135  0.0356 -0.1097 -0.0923
 4879TIP3    H114594   5.335   6.364   5.107 -0.0059  0.2906 -0.9984
 4879TIP3    H214595   5.279   6.505   5.101 -0.8578 -0.0121 -0.3449
 4880TIP3   OH214596   6.962   4.358   2.792 -0.1125  0.0863 -0.0173
 4880TIP3    H114597   7.057   4.354   2.781  0.1420  1.0652  1.6030
 4880TIP3    H214598   6.946   4.325   2.880 -1.1885  0.7075  0.0398
 4881TIP3   OH214599   2.347   4.055   0.086  0.3239 -0.5003 -0.0974
 4881TIP3    H114600   2.291   4.039   0.162 -0.5604 -0.6161 -0.7516
 4881TIP3    H214601   2.433   4.024   0.112 -0.7332 -4.1605 -0.4144
 4882TIP3   OH214602   7.692   5.816   1.445 -0.4309 -0.2187  0.1820
 4882TIP3    H114603   7.695   5.721   1.428  1.4852 -0.1560 -0.0893
 4882TIP3    H214604   7.703   5.856   1.359  2.2449  0.1647  0.6034
 4883TIP3   OH214605   1.081   0.161   0.247 -0.6216 -0.1321  0.0946
 4883TIP3    H114606   1.052   0.248   0.275 -0.5753 -0.0876  0.0055
 4883TIP3    H214607   1.176   0.162   0.258  0.1087  1.4844 -4.2003
 4884TIP3   OH214608   2.214   4.233   4.108 -0.3048  0.1729 -0.1531
 4884TIP3    H114609   2.202   4.233   4.013 -1.3766 -0.3920 -0.0340
 4884TIP3    H214610   2.300   4.273   4.122  0.2970 -0.6535 -1.4084
 4885TIP3   OH214611   3.147   2.637   6.589  0.6105 -0.3435 -0.2794
 4885TIP3    H114612   3.084   2.584   6.540 -2.0375  0.6357  1.7780
 4885TIP3    H214613   3.199   2.573   6.639  1.4786 -1.1869 -2.1769
 4886TIP3   OH214614   2.150   1.089   2.712 -0.5385  0.0798 -0.9444
 4886TIP3    H114615   2.226   1.143   2.735 -0.2755 -1.2908  1.7236
 4886TIP3    H214616   2.075   1.148   2.719 -0.0657  0.5947 -0.0049
 4887TIP3   OH214617   6.560   6.139   2.807  0.0015 -0.0146 -0.2188
 4887TIP3    H114618   6.589   6.089   2.884 -2.2741  0.0277  0.7675
 4887TIP3    H214619   6.485   6.190   2.839  0.9360  2.4519 -1.7237
 4888TIP3   OH214620   0.868   5.302   4.972 -0.4974  0.6427  0.1351
 4888TIP3    H114621   0.955   5.264   4.982 -0.9807 -0.2264  1.3056
 4888TIP3    H214622   0.864   5.329   4.880  0.5714 -0.4068 -0.2448
 4889TIP3   OH214623   1.453   0.409   1.791  0.4544 -0.2712  0.7133
 4889TIP3    H114624   1.526   0.431   1.734 -0.3136 -0.5330 -0.4248
 4889TIP3    H214625   1.436   0.488   1.841  1.6153 -0.2644  1.1203
 4890TIP3   OH214626   5.288   0.296   4.627 -0.2048 -0.3781  0.4979
 4890TIP3    H114627   5.298   0.361   4.557 -1.4036 -2.2511 -1.5337
 4890TIP3    H214628   5.280   0.349   4.707 -0.2651  1.9270 -0.9257
 4891TIP3   OH214629   6.066   1.332   3.763 -0.2843  0.1248 -0.2768
 4891TIP3    H114630   6.145   1.311   3.813 -0.3357  1.2736  0.3178
 4891TIP3    H214631   6.094   1.400   3.702 -1.1430  1.6568  0.9929
 4892TIP3   OH214632   4.188   7.017   6.143  0.0215 -0.1433 -0.3218
 4892TIP3    H114633   4.140   7.092   6.107  0.4068  0.4511  0.3787
 4892TIP3    H214634   4.258   7.001   6.080 -0.5122 -0.4036 -0.8603
 4893TIP3   OH214635   6.318   5.709   4.170 -0.1363  0.3421  0.1224
 4893TIP3    H114636   6.280   5.656   4.101 -0.4499 -1.8662  1.8709
 4893TIP3    H214637   6.396   5.661   4.198  0.1216  1.2839  1.1273
 4894TIP3   OH214638   1.574   4.822   5.736  0.1089  0.5155 -0.3197
 4894TIP3    H114639   1.630   4.798   5.810  1.5747  0.3913 -1.4344
 4894TIP3    H214640   1.555   4.915   5.749  0.0502  0.4094  0.3944
 4895TIP3   OH214641   3.851   0.673   5.000  0.3246  0.1417  0.1111
 4895TIP3    H114642   3.814   0.676   5.088  0.4564  0.6417  0.1535
 4895TIP3    H214643   3.775   0.677   4.941  0.2948  1.0414  0.1971
 4896TIP3   OH214644   5.647   0.253   1.127 -0.3913 -0.8299 -0.0901
 4896TIP3    H114645   5.685   0.237   1.041  0.5451 -1.1101  0.3644
 4896TIP3    H214646   5.714   0.303   1.174 -0.0381 -2.3361  1.1211
 4897TIP3   OH214647   0.949   3.561   1.869  0.5957  0.4589 -0.5315
 4897TIP3    H114648   0.855   3.555   1.856  0.7283  0.8841 -1.8558
 4897TIP3    H214649   0.971   3.486   1.925 -0.5529  0.5016 -0.0157
 4898TIP3   OH214650   5.677   0.713   3.757  0.2961  0.4945  0.0782
 4898TIP3    H114651   5.724   0.766   3.821 -0.0301 -0.1855  0.9102
 4898TIP3    H214652   5.736   0.710   3.681  0.5540  1.5705  0.2165
 4899TIP3   OH214653   4.541   7.672   1.253  0.3767  0.2434  0.1253
 4899TIP3    H114654   4.582   7.605   1.308  0.6953  0.9467  0.7541
 4899TIP3    H214655   4.588   7.752   1.273 -0.0984  0.6910 -0.5187
 4900TIP3   OH214656   6.256   5.815   6.708 -0.4169  0.2987 -0.0250
 4900TIP3    H114657   6.192   5.855   6.767  0.2249  2.9319 -0.9570
 4900TIP3    H214658   6.222   5.833   6.620  0.5188 -0.1906 -0.4966
 4901TIP3   OH214659   5.618   0.557   6.444 -0.4462  0.0004 -0.2116
 4901TIP3    H114660   5.703   0.517   6.466  1.0394  2.9782 -0.0882
 4901TIP3    H214661   5.600   0.526   6.355 -0.2384 -2.1474  0.4207
 4902TIP3   OH214662   6.722   5.203   5.223  0.0362  0.6296  0.0341
 4902TIP3    H114663   6.648   5.236   5.273 -1.3725 -0.7921 -1.0031
 4902TIP3    H214664   6.745   5.120   5.265  0.6747  0.7802 -0.0050
 4903TIP3   OH214665   2.714   7.378   3.617  0.5669 -0.0015 -0.1730
 4903TIP3    H114666   2.763   7.300   3.643 -0.2711 -0.1489  1.0900
 4903TIP3    H214667   2.723   7.437   3.692  0.5580  0.8003 -0.8001
 4904TIP3   OH214668   0.109   6.071   0.276  0.2982 -0.4431  0.0142
 4904TIP3    H114669   0.177   6.098   0.214 -0.0659  1.3330  0.3523
 4904TIP3    H214670   0.078   5.987   0.242  1.7683 -0.6749 -0.8471
 4905TIP3   OH214671   1.889   2.078   0.640  0.3963 -0.0590  0.3613
 4905TIP3    H114672   1.892   2.170   0.612 -1.6241 -0.1488 -0.3421
 4905TIP3    H214673   1.942   2.032   0.575  1.5021  0.6020  0.7702
 4906TIP3   OH214674   2.074   7.084   5.747 -0.0811 -0.1934  0.6914
 4906TIP3    H114675   2.094   7.071   5.840  0.0712 -1.5035  0.4927
 4906TIP3    H214676   2.111   7.007   5.703  1.0813  1.0733 -0.6526
 4907TIP3   OH214677   7.932   1.813   6.592 -0.0058 -0.2556  0.1353
 4907TIP3    H114678   7.978   1.734   6.620  0.5510 -0.4833 -1.3199
 4907TIP3    H214679   7.962   1.827   6.502  0.0487  1.7116  0.4241
 4908TIP3   OH214680   2.728   1.458   0.370  0.2408 -0.3185 -0.2904
 4908TIP3    H114681   2.776   1.437   0.291  0.5706 -1.4942  0.2076
 4908TIP3    H214682   2.718   1.375   0.416 -0.4512  0.2417  0.6257
 4909TIP3   OH214683   2.188   6.958   2.658 -0.0223  0.5464  0.2185
 4909TIP3    H114684   2.264   6.901   2.669  0.9304  1.8157  0.5259
 4909TIP3    H214685   2.184   7.007   2.741 -1.0659  0.6283  0.1278
 4910TIP3   OH214686   7.608   7.462   6.165  0.2214 -0.7954 -0.4713
 4910TIP3    H114687   7.660   7.542   6.170  0.4477 -0.9248 -0.6921
 4910TIP3    H214688   7.628   7.426   6.078 -0.5951 -0.6074 -0.7463
 4911TIP3   OH214689   3.619   2.927   0.150  0.1456  0.4684 -0.8680
 4911TIP3    H114690   3.674   2.848   0.143  0.8129  0.6925  1.1265
 4911TIP3    H214691   3.537   2.896   0.190 -0.9186  0.2842 -3.0496
 4912TIP3   OH214692   1.833   7.237   3.516  0.2984  0.4384  0.6189
 4912TIP3    H114693   1.772   7.286   3.571 -0.4220  0.4405 -0.1696
 4912TIP3    H214694   1.887   7.188   3.579 -1.5821 -0.8723  1.3229
 4913TIP3   OH214695   1.933   7.661   4.863  0.5313  0.1443 -0.8496
 4913TIP3    H114696   1.957   7.752   4.843  1.3933 -0.6383 -3.8124
 4913TIP3    H214697   1.842   7.654   4.834  0.2883  0.1893 -0.1075
 4914TIP3   OH214698   6.195   1.881   3.743 -0.1025 -0.0603  0.4000
 4914TIP3    H114699   6.184   1.867   3.837  0.0733  0.2540  0.4692
 4914TIP3    H214700   6.207   1.976   3.734  1.3350 -0.2497  0.1989
 4915TIP3   OH214701   6.714   7.189   3.205 -0.4377 -0.0164 -0.2285
 4915TIP3    H114702   6.649   7.121   3.188 -1.1722  0.2956  1.1492
 4915TIP3    H214703   6.792   7.160   3.158 -1.5231 -0.4558 -1.8373
 4916TIP3   OH214704   3.566   2.861   5.844 -0.5173 -0.4305  0.3541
 4916TIP3    H114705   3.655   2.894   5.834 -0.2749 -0.9610  0.7378
 4916TIP3    H214706   3.510   2.935   5.818  0.0292 -0.1415 -0.0176
 4917TIP3   OH214707   0.900   7.086   2.503  0.2793  0.6612 -0.1248
 4917TIP3    H114708   0.973   7.085   2.564 -0.2562 -0.7601  0.5520
 4917TIP3    H214709   0.896   6.996   2.470 -0.3196  1.0578 -1.1859
 4918TIP3   OH214710   8.293   0.152   1.818  0.6905 -0.3941  0.1848
 4918TIP3    H114711   8.305   0.057   1.816 -2.2464 -0.8393 -1.7035
 4918TIP3    H214712   8.208   0.165   1.860  0.7109  1.3674 -0.2252
 4919TIP3   OH214713   3.061   0.387   0.453  0.0306  0.4253  0.3658
 4919TIP3    H114714   2.969   0.411   0.445  0.0963  0.4665 -0.2644
 4919TIP3    H214715   3.090   0.372   0.364 -0.4114 -3.6360  0.7326
 4920TIP3   OH214716   1.352   5.345   3.580 -0.1603  0.4614  0.5796
 4920TIP3    H114717   1.318   5.389   3.502  0.4525  3.5999  1.9043
 4920TIP3    H214718   1.447   5.347   3.569 -0.0977  0.2128  1.0589
 4921TIP3   OH214719   4.331   6.144   4.969 -0.7447  0.1842  0.6552
 4921TIP3    H114720   4.297   6.170   4.883 -1.6578 -1.4143  0.5047
 4921TIP3    H214721   4.426   6.150   4.959 -0.8667  2.2591  0.2894
 4922TIP3   OH214722   5.306   2.987   2.784 -0.2108 -0.2355 -0.3513
 4922TIP3    H114723   5.325   2.968   2.692  0.1916  1.2964 -0.6128
 4922TIP3    H214724   5.234   2.928   2.806 -1.1424  0.2150 -2.0243
 4923TIP3   OH214725   1.170   3.384   0.817  0.2008 -0.1346 -0.0311
 4923TIP3    H114726   1.087   3.338   0.833  0.2772  0.0132  0.8840
 4923TIP3    H214727   1.176   3.447   0.889  1.5608 -0.8010  0.4704
 4924TIP3   OH214728   5.031   6.934   0.091 -0.0249  0.8834 -0.6141
 4924TIP3    H114729   4.952   6.944   0.038 -1.1690 -2.1150  0.2988
 4924TIP3    H214730   5.000   6.939   0.182  0.7393 -0.6271 -0.2385
 4925TIP3   OH214731   8.278   4.531   2.861  0.3936 -0.3847 -0.7475
 4925TIP3    H114732   8.259   4.606   2.916  1.0580 -0.9589  0.2837
 4925TIP3    H214733   8.193   4.507   2.823  0.3160  1.3632 -1.7468
 4926TIP3   OH214734   1.862   3.308   1.255 -0.2887 -0.4241 -0.0241
 4926TIP3    H114735   1.917   3.386   1.253 -0.6497 -0.1758 -1.4132
 4926TIP3    H214736   1.925   3.236   1.265  0.0182  0.0323  1.5807
 4927TIP3   OH214737   5.146   6.892   5.055 -0.1394 -0.0671 -0.0036
 4927TIP3    H114738   5.172   6.982   5.035 -1.1762  0.5212  1.1623
 4927TIP3    H214739   5.110   6.859   4.973 -0.2633  0.7660 -0.3009
 4928TIP3   OH214740   2.623   3.460   1.707  0.1156 -0.2192 -0.2810
 4928TIP3    H114741   2.567   3.460   1.784  0.7567 -0.5395  0.1928
 4928TIP3    H214742   2.624   3.369   1.677 -0.2392 -0.0731 -0.7567
 4929TIP3   OH214743   3.038   3.886   3.434 -0.6212  0.1743  0.1110
 4929TIP3    H114744   3.037   3.835   3.515 -0.1948  0.0183  0.0197
 4929TIP3    H214745   2.945   3.901   3.414 -0.7161  0.7814  0.9792
 4930TIP3   OH214746   0.212   6.943  -0.013 -0.2342  0.1584 -0.2424
 4930TIP3    H114747   0.250   6.901   0.063 -1.3187  0.3717  0.4419
 4930TIP3    H214748   0.274   7.012  -0.036  0.0315  0.1949  0.5516
 4931TIP3   OH214749   1.598   3.806   0.548  0.3522  0.3993 -0.0983
 4931TIP3    H114750   1.631   3.771   0.465  2.7029  1.7845  0.1587
 4931TIP3    H214751   1.555   3.889   0.524  1.1314  0.8559  0.0534
 4932TIP3   OH214752   2.130   6.955   0.408  0.3831 -0.1316  0.3404
 4932TIP3    H114753   2.111   7.048   0.397  0.7974 -0.0412  0.3678
 4932TIP3    H214754   2.106   6.916   0.324 -0.8996 -0.1951  0.7125
 4933TIP3   OH214755   6.764   4.889   1.636 -0.4536 -0.2130 -0.0938
 4933TIP3    H114756   6.778   4.941   1.557  0.2680  3.0252  1.9534
 4933TIP3    H214757   6.695   4.936   1.683 -0.5539 -1.7886  1.4028
 4934TIP3   OH214758   0.639   0.423   4.732 -0.8061 -0.5225 -0.0844
 4934TIP3    H114759   0.565   0.382   4.778  0.2398 -0.6932  1.5332
 4934TIP3    H214760   0.611   0.514   4.719 -0.9409 -0.3142  1.4434
 4935TIP3   OH214761   0.627   3.147   6.643 -0.1811  0.1094 -0.0445
 4935TIP3    H114762   0.573   3.072   6.666 -0.6468  0.5739  0.4189
 4935TIP3    H214763   0.699   3.146   6.706  0.3046 -0.4512 -0.5982
 4936TIP3   OH214764   2.451   7.736   1.013  0.4242  0.3283 -0.3407
 4936TIP3    H114765   2.467   7.649   1.048  1.5404 -0.0703 -1.7492
 4936TIP3    H214766   2.527   7.787   1.042  0.1657  0.6357 -0.1917
 4937TIP3   OH214767   5.904   4.825   2.213 -0.0332 -0.2998  0.5257
 4937TIP3    H114768   5.934   4.790   2.129 -0.0897 -1.7674  1.0818
 4937TIP3    H214769   5.829   4.880   2.190  0.0923 -0.4924 -0.4015
 4938TIP3   OH214770   7.609   4.463   4.682  0.6358 -0.8018 -0.0705
 4938TIP3    H114771   7.638   4.507   4.602 -0.0594  0.0811  0.1481
 4938TIP3    H214772   7.658   4.380   4.683  1.7811 -0.1586 -0.6216
 4939TIP3   OH214773   7.857   0.744   3.940 -0.2536  0.0014 -0.5246
 4939TIP3    H114774   7.899   0.677   3.886 -0.0066  0.3529 -0.7724
 4939TIP3    H214775   7.875   0.716   4.030  0.6723  0.2357 -0.6226
 4940TIP3   OH214776   4.568   2.473   2.298  0.2589  0.3817  0.6715
 4940TIP3    H114777   4.489   2.426   2.271  0.4406  0.8903 -0.8469
 4940TIP3    H214778   4.610   2.416   2.362 -0.6193 -0.5189  0.4669
 4941TIP3   OH214779   6.887   4.999   1.399  0.1430  0.0070 -0.0412
 4941TIP3    H114780   6.940   4.966   1.327 -0.5527  0.7905 -0.9524
 4941TIP3    H214781   6.798   4.970   1.379 -0.0096 -0.0584  0.6949
 4942TIP3   OH214782   6.409   7.194   5.894  0.1650  0.0406  0.3782
 4942TIP3    H114783   6.339   7.130   5.897  0.6544 -0.5229  0.0187
 4942TIP3    H214784   6.381   7.259   5.830 -0.0758 -0.1142  0.3272
 4943TIP3   OH214785   6.434   1.307   0.339  0.6408  0.0597 -0.1755
 4943TIP3    H114786   6.348   1.271   0.360  1.1223 -0.2407  1.3765
 4943TIP3    H214787   6.447   1.286   0.247 -0.3790 -1.0674 -0.0834
 4944TIP3   OH214788   4.228   4.266   1.648  0.4887  0.0035  0.1211
 4944TIP3    H114789   4.134   4.254   1.656  0.5885 -0.9320  0.0444
 4944TIP3    H214790   4.243   4.358   1.672 -0.1682 -0.4369  2.5067
 4945TIP3   OH214791   8.085   1.945   6.057 -0.0645 -0.3991  0.1381
 4945TIP3    H114792   8.011   1.998   6.027 -1.6089 -3.0889 -1.1148
 4945TIP3    H214793   8.139   1.935   5.979 -0.1228 -1.1809  0.1963
 4946TIP3   OH214794   7.270   5.760   1.290  0.1047 -0.0016 -0.4064
 4946TIP3    H114795   7.296   5.849   1.312  0.0234 -0.1634  0.3791
 4946TIP3    H214796   7.336   5.705   1.331 -0.6045 -0.3534  0.2726
 4947TIP3   OH214797   2.875   0.247   4.419  0.0756  0.1665 -0.2518
 4947TIP3    H114798   2.792   0.251   4.372 -0.0960 -0.0558  0.0310
 4947TIP3    H214799   2.855   0.201   4.500  0.3069  0.8172  0.1801
 4948TIP3   OH214800   8.233   4.801   5.809 -0.5675 -0.5490  0.0263
 4948TIP3    H114801   8.313   4.770   5.768  0.5480  0.7228  1.1490
 4948TIP3    H214802   8.250   4.794   5.903 -1.5013  0.4132  0.2844
 4949TIP3   OH214803   0.673   7.184   4.617  0.3081 -0.0479  0.0715
 4949TIP3    H114804   0.668   7.146   4.704  0.1417  0.4302  0.2734
 4949TIP3    H214805   0.729   7.124   4.568 -2.6036 -2.4029 -0.6149
 4950TIP3   OH214806   4.294   1.688   5.980 -0.0821  0.3266  0.1288
 4950TIP3    H114807   4.288   1.602   6.024  2.0495 -0.3502 -0.8064
 4950TIP3    H214808   4.298   1.751   6.052  1.4034 -0.6212  0.9279
 4951TIP3   OH214809   2.617   4.073   4.911  0.2553  0.0583 -0.0112
 4951TIP3    H114810   2.668   3.997   4.882 -0.0614 -0.6665  1.2683
 4951TIP3    H214811   2.583   4.048   4.997 -0.5442  1.3360  0.0697
 4952TIP3   OH214812   2.975   3.740   3.637 -0.3323 -0.5957 -0.5291
 4952TIP3    H114813   2.909   3.689   3.684 -0.9660 -1.9920 -2.8082
 4952TIP3    H214814   3.056   3.728   3.688 -0.8627 -2.4564 -0.0673
 4953TIP3   OH214815   7.556   0.281   5.211 -0.2027 -0.2440  0.2784
 4953TIP3    H114816   7.626   0.341   5.236 -0.3275  0.2568 -0.5301
 4953TIP3    H214817   7.500   0.275   5.288  0.1676  0.1672  0.5789
 4954TIP3   OH214818   6.137   4.434   5.490  0.6709  0.3536 -0.1064
 4954TIP3    H114819   6.156   4.348   5.452 -0.2170  0.7464 -1.4666
 4954TIP3    H214820   6.098   4.414   5.575  2.7205 -0.5354  0.6924
 4955TIP3   OH214821   1.257   6.706   0.740  0.3313 -0.0569  0.0760
 4955TIP3    H114822   1.313   6.733   0.667  0.2784  1.3268  0.5090
 4955TIP3    H214823   1.317   6.699   0.814  0.2793 -0.8169  0.0541
 4956TIP3   OH214824   0.105   2.425   5.048 -0.0966 -0.0625 -0.2191
 4956TIP3    H114825   0.197   2.436   5.025 -0.0191  0.4761  0.3321
 4956TIP3    H214826   0.104   2.422   5.143 -0.5534 -0.9958 -0.2391
 4957TIP3   OH214827   0.700   0.887   2.878 -0.6882 -0.2545 -0.8019
 4957TIP3    H114828   0.771   0.932   2.833  0.0471 -0.9208 -0.3380
 4957TIP3    H214829   0.742   0.811   2.919 -1.5161 -0.2188  0.1485
 4958TIP3   OH214830   4.453   0.172   2.723 -0.1190  0.9006  0.1341
 4958TIP3    H114831   4.423   0.200   2.636 -1.6736 -0.2034  0.2761
 4958TIP3    H214832   4.449   0.252   2.776 -0.5647  1.2754 -0.4499
 4959TIP3   OH214833   2.137   4.064   6.695  0.4568 -0.6927  0.0818
 4959TIP3    H114834   2.182   4.018   6.624  1.4029  0.0650  0.1758
 4959TIP3    H214835   2.206   4.108   6.744 -0.0648 -1.8950  2.0260
 4960TIP3   OH214836   2.648   2.871   2.746  0.1751 -0.2698 -0.6247
 4960TIP3    H114837   2.657   2.777   2.731  1.1230 -0.3926  0.5589
 4960TIP3    H214838   2.646   2.880   2.841 -0.7164  0.8461 -0.7277
 4961TIP3   OH214839   2.844   6.974   3.376 -0.7112 -0.5351  0.1310
 4961TIP3    H114840   2.904   6.925   3.319  1.3887  0.7394  1.1332
 4961TIP3    H214841   2.811   6.908   3.437 -1.5553 -1.5564 -1.3481
 4962TIP3   OH214842   2.687   2.358   1.924  0.2775 -0.0910  0.6579
 4962TIP3    H114843   2.745   2.282   1.936  0.0280 -0.6932 -1.4986
 4962TIP3    H214844   2.747   2.433   1.921  1.2171 -0.7817 -2.4511
 4963TIP3   OH214845   4.400   4.646   3.266  0.0989  0.0113 -0.1564
 4963TIP3    H114846   4.371   4.603   3.346 -0.6968 -0.9898 -0.9370
 4963TIP3    H214847   4.375   4.584   3.196  1.3096  0.5683 -1.1201
 4964TIP3   OH214848   7.883   7.757   5.779 -0.1733  0.9737 -0.0168
 4964TIP3    H114849   7.792   7.784   5.792  0.2988  2.5819  0.1905
 4964TIP3    H214850   7.913   7.811   5.706  0.4137 -0.0837 -0.5759
 4965TIP3   OH214851   4.101   7.759   4.735  0.8245  0.1849 -0.4814
 4965TIP3    H114852   4.134   7.845   4.760 -0.9242  1.0161 -0.8765
 4965TIP3    H214853   4.084   7.714   4.817 -0.5746  1.1760 -0.1940
 4966TIP3   OH214854   6.595   0.831   4.851 -0.3232  0.3319  0.0172
 4966TIP3    H114855   6.668   0.886   4.881 -0.0823  0.8000 -1.3632
 4966TIP3    H214856   6.532   0.833   4.924  0.8837  0.1822  1.1031
 4967TIP3   OH214857   7.861   2.882   5.243  0.0451  0.5641  0.0786
 4967TIP3    H114858   7.802   2.953   5.216  0.0310 -0.2920 -2.3944
 4967TIP3    H214859   7.806   2.823   5.295 -0.5826  1.0985  0.0308
 4968TIP3   OH214860   7.527   3.206   0.493  0.0608  0.2136 -0.1452
 4968TIP3    H114861   7.511   3.152   0.415 -1.0624 -1.6202  1.2723
 4968TIP3    H214862   7.586   3.153   0.546 -0.3906  0.7466  0.9066
 4969TIP3   OH214863   6.274   2.766   1.815  0.1381  0.0362  0.1904
 4969TIP3    H114864   6.352   2.751   1.868  0.2183  0.1154  0.0963
 4969TIP3    H214865   6.261   2.861   1.816  1.9481  0.4390 -2.4149
 4970TIP3   OH214866   6.864   7.037   1.586 -0.0389  0.6580 -0.2257
 4970TIP3    H114867   6.806   6.973   1.544  0.4841  0.8257 -1.2577
 4970TIP3    H214868   6.863   7.015   1.679 -1.1726  0.2047 -0.3379
 4971TIP3   OH214869   0.292   0.814   2.101 -0.1139  0.0124 -0.1917
 4971TIP3    H114870   0.307   0.907   2.120 -0.5870 -0.3617  2.3848
 4971TIP3    H214871   0.213   0.792   2.151  0.4938 -1.9921 -0.0304
 4972TIP3   OH214872   3.935   6.775   6.708 -0.1270  0.5340  0.1924
 4972TIP3    H114873   3.846   6.750   6.735 -0.6911 -0.3171 -2.1493
 4972TIP3    H214874   3.991   6.707   6.745 -0.6462  0.2036  0.3882
 4973TIP3   OH214875   7.211   3.606   0.638 -0.5543 -0.1936 -0.3041
 4973TIP3    H114876   7.141   3.599   0.573 -0.9662  0.3892  0.0673
 4973TIP3    H214877   7.264   3.679   0.607  0.1797 -0.9346 -0.8424
 4974TIP3   OH214878   6.012   1.520   3.047 -0.2233  0.1366  0.1502
 4974TIP3    H114879   6.089   1.576   3.038  0.3700 -0.4950  1.0530
 4974TIP3    H214880   6.011   1.467   2.967 -0.6865  1.2763 -0.6248
 4975TIP3   OH214881   7.861   0.091   2.611 -0.1485  0.0297 -0.5260
 4975TIP3    H114882   7.858   0.013   2.555 -3.8767  0.3444 -0.9887
 4975TIP3    H214883   7.791   0.078   2.675 -1.8999  3.5256 -1.4899
 4976TIP3   OH214884   1.926   2.047   0.920 -0.0077 -0.0557  0.4185
 4976TIP3    H114885   1.918   2.068   0.827  0.7272  1.7642  0.7305
 4976TIP3    H214886   2.000   1.987   0.925  0.3453  0.3262 -0.1088
 4977TIP3   OH214887   8.174   6.145   1.558 -0.2450  0.2984  0.0178
 4977TIP3    H114888   8.104   6.082   1.542  0.7849 -0.5775 -1.2449
 4977TIP3    H214889   8.152   6.220   1.503 -0.0376 -0.1061 -0.6247
 4978TIP3   OH214890   1.434   0.560   6.123 -0.6390 -0.1237  0.0825
 4978TIP3    H114891   1.409   0.519   6.040 -1.9822 -0.6963  0.7458
 4978TIP3    H214892   1.380   0.639   6.129 -0.2324  0.1513  0.2221
 4979TIP3   OH214893   7.329   6.843   1.070 -0.1285 -0.6265 -0.5028
 4979TIP3    H114894   7.392   6.788   1.024 -0.0260 -1.2461  0.3530
 4979TIP3    H214895   7.381   6.891   1.134  0.0034  1.5023 -2.0843
 4980TIP3   OH214896   7.548   5.254   0.295 -0.1336 -0.2592  0.2692
 4980TIP3    H114897   7.536   5.243   0.389 -1.2592 -2.3830 -0.0606
 4980TIP3    H214898   7.478   5.313   0.268 -0.4374 -0.4649  0.6115
 4981TIP3   OH214899   5.703   6.294   4.974  0.4198  0.2966  0.9870
 4981TIP3    H114900   5.711   6.206   5.009 -0.8090  0.3700  1.5248
 4981TIP3    H214901   5.652   6.283   4.893 -1.4621  0.6821  2.0604
 4982TIP3   OH214902   6.163   7.709   4.451  0.1490  0.3447 -0.2750
 4982TIP3    H114903   6.174   7.661   4.369 -1.4797 -0.6331  0.0207
 4982TIP3    H214904   6.100   7.778   4.431 -2.3738 -1.5122  0.6426
 4983TIP3   OH214905   7.085   4.622   5.962  0.1869  0.4872  0.0405
 4983TIP3    H114906   7.157   4.563   5.939 -0.8417 -0.0802 -1.9067
 4983TIP3    H214907   7.064   4.600   6.053  2.3647  0.6107  0.6391
 4984TIP3   OH214908   3.257   5.102   5.060  0.2315  0.6323 -0.2370
 4984TIP3    H114909   3.350   5.089   5.042  0.2459 -0.1080  0.3435
 4984TIP3    H214910   3.247   5.082   5.153 -0.7416 -0.5910 -0.5832
 4985TIP3   OH214911   6.986   5.321   5.716  0.4357  0.5832  0.0688
 4985TIP3    H114912   6.938   5.386   5.768 -0.6930  1.4342 -1.9030
 4985TIP3    H214913   7.069   5.363   5.695 -0.8175  2.1371 -2.3592
 4986TIP3   OH214914   2.865   3.357   6.331  0.0887 -0.3208 -0.3330
 4986TIP3    H114915   2.772   3.365   6.315  0.0081  0.3058  0.3798
 4986TIP3    H214916   2.904   3.343   6.245 -0.6005 -0.0099 -0.7006
 4987TIP3   OH214917   5.460   5.364   6.482 -0.4833  0.2713  0.0733
 4987TIP3    H114918   5.420   5.298   6.425 -0.6919  1.8247 -1.6857
 4987TIP3    H214919   5.389   5.426   6.499  0.0880  0.8221  0.4639
 4988TIP3   OH214920   1.549   5.489   6.344  0.6238  0.1012 -0.0411
 4988TIP3    H114921   1.542   5.465   6.436  2.2224 -1.7371 -0.3344
 4988TIP3    H214922   1.632   5.536   6.338  0.9690 -0.5740 -0.6709
 4989TIP3   OH214923   5.804   5.325   5.728  0.1539 -0.1579  0.0107
 4989TIP3    H114924   5.893   5.358   5.718 -0.1014  1.0421  1.4968
 4989TIP3    H214925   5.755   5.365   5.656  0.8491 -1.1276 -1.0519
 4990TIP3   OH214926   8.292   0.205   0.181  0.3408  0.2030 -0.4973
 4990TIP3    H114927   8.288   0.163   0.095 -1.0243 -2.2963  0.6578
 4990TIP3    H214928   8.239   0.283   0.173  2.2807  1.4300 -2.5382
 4991TIP3   OH214929   4.582   4.060   6.365  0.3858  0.2627 -0.1038
 4991TIP3    H114930   4.648   4.125   6.345  0.3171  0.1484 -0.7031
 4991TIP3    H214931   4.508   4.110   6.399 -0.2729  0.6743 -2.0357
 4992TIP3   OH214932   7.170   3.203   3.503 -0.2794  0.0909 -0.2273
 4992TIP3    H114933   7.100   3.248   3.550  1.0359  1.3342  0.6495
 4992TIP3    H214934   7.203   3.269   3.442  1.2024  0.1127  0.5513
 4993TIP3   OH214935   4.310   3.096   5.275  0.3350 -0.7382  0.2017
 4993TIP3    H114936   4.403   3.093   5.296  0.5631  1.0440 -0.3994
 4993TIP3    H214937   4.300   3.036   5.201  0.9617 -1.1049  0.4084
 4994TIP3   OH214938   6.510   7.420   2.223  1.0335 -0.1216  0.5196
 4994TIP3    H114939   6.477   7.474   2.295  1.5524 -0.5373  1.0759
 4994TIP3    H214940   6.486   7.468   2.144 -3.0475 -1.4786  0.7116
 4995TIP3   OH214941   8.324   7.493   3.042 -0.2549 -0.5245  0.2161
 4995TIP3    H114942   8.305   7.575   2.998  1.5847 -0.1491  0.0335
 4995TIP3    H214943   8.244   7.441   3.033 -1.1418  0.9046 -0.4175
 4996TIP3   OH214944   7.143   7.724   4.345  0.0823  0.2005  0.0085
 4996TIP3    H114945   7.228   7.765   4.365 -0.1168  0.7311 -0.2213
 4996TIP3    H214946   7.089   7.744   4.421  0.1107  0.0006  0.0822
 4997TIP3   OH214947   6.508   3.388   3.877  0.2869  0.1483  0.3271
 4997TIP3    H114948   6.518   3.459   3.814  1.6206  1.3945  1.8680
 4997TIP3    H214949   6.420   3.354   3.861  0.1464  1.2067 -1.3832
 4998TIP3   OH214950   0.872   2.103   5.576 -0.2437  0.0836 -0.5306
 4998TIP3    H114951   0.892   2.068   5.663  2.4951  1.9086 -0.3356
 4998TIP3    H214952   0.931   2.057   5.517 -0.5680  0.4090 -1.1223
 4999TIP3   OH214953   3.108   2.061   3.523  0.3419 -0.5927  0.0007
 4999TIP3    H114954   3.080   1.970   3.521  0.5440 -0.6587  0.2120
 4999TIP3    H214955   3.107   2.085   3.616  0.4199 -0.4196 -0.0419
 5000TIP3   OH214956   0.831   5.325   2.774  0.1153  0.1116 -0.3901
 5000TIP3    H114957   0.798   5.292   2.858 -0.2022  1.0831 -0.1175
 5000TIP3    H214958   0.751   5.347   2.725  0.2904 -0.7136 -1.0666
 5001TIP3   OH214959   5.920   3.981   6.720  0.4495 -0.3862  0.6454
 5001TIP3    H114960   5.905   3.916   6.652  0.8344  1.1004 -0.9464
 5001TIP3    H214961   5.902   3.935   6.802  0.2357 -2.3219 -0.4269
 5002TIP3   OH214962   6.547   2.857   3.169  0.1229  0.3690 -0.0643
 5002TIP3    H114963   6.574   2.875   3.079 -0.6277  0.3845 -0.2958
 5002TIP3    H214964   6.586   2.927   3.221  0.2578  0.5623 -0.4269
 5003TIP3   OH214965   5.292   5.481   6.112  0.0740 -0.1048 -0.3156
 5003TIP3    H114966   5.275   5.559   6.164  0.1125 -1.0646  1.1840
 5003TIP3    H214967   5.338   5.514   6.035 -2.2799  1.6839 -1.0972
 5004TIP3   OH214968   3.448   4.360   2.801  0.3291  0.0681  0.4597
 5004TIP3    H114969   3.445   4.347   2.706  0.6751 -0.5612  0.5288
 5004TIP3    H214970   3.356   4.370   2.826  0.1637 -0.5895  0.1579
 5005TIP3   OH214971   7.981   6.361   6.041 -0.2034 -0.8231  0.0786
 5005TIP3    H114972   7.893   6.333   6.068 -0.1040 -0.4821  0.7762
 5005TIP3    H214973   8.031   6.362   6.123  0.2530 -0.2903 -0.2063
 5006TIP3   OH214974   4.180   1.766   3.231  0.0826  0.4282 -0.0615
 5006TIP3    H114975   4.190   1.861   3.241 -0.9182  0.5655 -0.2359
 5006TIP3    H214976   4.255   1.729   3.277  0.1587  1.2891  0.5269
 5007TIP3   OH214977   8.207   2.790   1.054 -0.4564  0.7801 -0.3838
 5007TIP3    H114978   8.247   2.777   0.968  0.4698  0.6891  0.0515
 5007TIP3    H214979   8.270   2.752   1.116 -2.2471 -1.4703  0.1867
 5008TIP3   OH214980  -0.006   1.434   5.927  0.2207  0.1627  0.1041
 5008TIP3    H114981   0.015   1.504   5.988  1.5854 -0.1569  0.0242
 5008TIP3    H214982   0.014   1.353   5.976 -0.0174 -0.1381 -0.2867
 5009TIP3   OH214983   3.113   4.938   6.348  0.2438 -0.4718  0.2084
 5009TIP3    H114984   3.130   5.030   6.368 -2.8987  0.8284 -2.1988
 5009TIP3    H214985   3.133   4.930   6.255  0.6951 -2.3195  0.4422
 5010TIP3   OH214986   7.895   6.345   3.134  0.1733 -1.0294  0.1873
 5010TIP3    H114987   7.886   6.316   3.044  1.6497  0.7173 -0.5782
 5010TIP3    H214988   7.985   6.324   3.157  0.0282 -0.7903  1.0126
 5011TIP3   OH214989   6.400   4.321   1.677 -0.3168 -0.5507  0.2044
 5011TIP3    H114990   6.428   4.406   1.641 -0.4522 -0.4517  0.3315
 5011TIP3    H214991   6.369   4.342   1.765  0.2771 -0.8377  0.4835
 5012TIP3   OH214992   1.308   0.993   0.315 -0.0790  1.0310 -0.1311
 5012TIP3    H114993   1.342   0.909   0.344  0.3043  0.7978 -1.1964
 5012TIP3    H214994   1.215   0.977   0.298 -0.3806  1.2449  1.1737
 5013TIP3   OH214995   2.579   7.705   5.386 -0.1147  0.1764 -0.5440
 5013TIP3    H114996   2.574   7.673   5.476 -1.1603  0.1287 -0.6098
 5013TIP3    H214997   2.672   7.701   5.364  0.2099  0.5861  0.6726
 5014TIP3   OH214998   8.198   3.822   2.531 -0.3362  0.2152  0.0350
 5014TIP3    H114999   8.187   3.897   2.589 -0.8451  1.1447 -1.2257
 5014TIP3    H215000   8.177   3.855   2.444  2.5636 -0.5280 -1.0784
 5015TIP3   OH215001   6.990   1.273   0.201  0.1109  0.5383  0.2546
 5015TIP3    H115002   6.929   1.199   0.201  1.5161 -0.6773 -0.4032
 5015TIP3    H215003   7.066   1.240   0.250  0.8070  1.5109 -0.1635
 5016TIP3   OH215004   5.345   2.813   3.857 -0.5487  0.0526 -0.3495
 5016TIP3    H115005   5.380   2.899   3.880  1.7384 -0.9756  0.3464
 5016TIP3    H215006   5.360   2.805   3.763 -1.9400  0.8789 -0.6626
 5017TIP3   OH215007   0.043   1.546   3.553 -0.2252 -0.5652 -0.7531
 5017TIP3    H115008   0.129   1.550   3.510 -0.0334 -1.6539 -0.5146
 5017TIP3    H215009   0.057   1.488   3.628 -0.7545  0.6407  0.3129
 5018TIP3   OH215010   4.024   7.756   0.485  0.3150 -0.1724  0.0161
 5018TIP3    H115011   4.012   7.702   0.563 -0.1444 -1.5419 -0.9718
 5018TIP3    H215012   3.935   7.773   0.454  0.5309 -1.1504 -1.1971
 5019TIP3   OH215013   0.075   0.510   1.630  0.3376  0.2027  0.2309
 5019TIP3    H115014   0.164   0.481   1.649  0.0066 -0.9706  0.0615
 5019TIP3    H215015   0.020   0.437   1.657 -0.4918  0.4469 -0.7368
 5020TIP3   OH215016   6.466   1.801   5.290  0.5809  0.1834 -0.2836
 5020TIP3    H115017   6.503   1.734   5.232  0.1784  0.8110 -1.3033
 5020TIP3    H215018   6.430   1.867   5.230  0.2247  0.9008  0.6930
 5021TIP3   OH215019   4.760   4.692   4.803 -0.0919  0.3009 -0.0683
 5021TIP3    H115020   4.676   4.684   4.758  0.7866 -0.2344 -1.6943
 5021TIP3    H215021   4.777   4.605   4.840 -0.1851  0.3798  0.1662
 5022TIP3   OH215022   0.693   2.504   4.984  0.0696 -0.3474 -0.3124
 5022TIP3    H115023   0.726   2.435   4.927 -0.4209  0.4206 -1.5587
 5022TIP3    H215024   0.613   2.468   5.022 -0.5041 -0.2652 -1.4169
 5023TIP3   OH215025   5.243   3.564   2.825  0.1952 -0.3011  0.5283
 5023TIP3    H115026   5.330   3.524   2.828  1.2629  1.8835  1.0476
 5023TIP3    H215027   5.241   3.622   2.902 -1.1479  0.7608 -0.2660
 5024TIP3   OH215028   2.023   4.875   5.398 -0.3180 -0.4014  0.5919
 5024TIP3    H115029   2.117   4.887   5.414 -0.2443 -0.0083 -0.1323
 5024TIP3    H215030   2.015   4.782   5.375 -0.0422 -0.3357  0.2196
 5025TIP3   OH215031   5.191   5.782   2.876  0.3166  0.1095  0.1171
 5025TIP3    H115032   5.265   5.793   2.937  0.6161  0.4503 -0.3019
 5025TIP3    H215033   5.149   5.701   2.905  0.5781  0.1591  0.6528
 5026TIP3   OH215034   5.706   3.476   3.554  0.4747  0.1387  0.1747
 5026TIP3    H115035   5.727   3.383   3.565  1.1700  0.1562 -0.9102
 5026TIP3    H215036   5.785   3.514   3.515 -0.1009  1.0315 -0.1427
 5027TIP3   OH215037   6.578   2.467   2.367  0.2898 -0.4782  1.3519
 5027TIP3    H115038   6.558   2.374   2.369 -0.1613 -0.3747  1.7833
 5027TIP3    H215039   6.561   2.494   2.277  0.8426 -0.8994  1.1163
 5028TIP3   OH215040   3.900   5.278   0.193  0.0409  0.1102  0.0427
 5028TIP3    H115041   3.861   5.365   0.181  0.6651  0.3930  0.0154
 5028TIP3    H215042   3.833   5.218   0.161  0.1446  0.6544 -1.3080
 5029TIP3   OH215043   4.911   7.633   2.311  0.2492 -0.6799 -0.6230
 5029TIP3    H115044   4.826   7.640   2.355 -0.0893 -1.2558 -1.1511
 5029TIP3    H215045   4.918   7.714   2.261  0.3996 -0.2553  0.0795
 5030TIP3   OH215046   2.973   7.115   1.633  0.6377  0.2608  0.4513
 5030TIP3    H115047   2.937   7.031   1.661 -0.1562  1.0953  2.1416
 5030TIP3    H215048   3.050   7.093   1.582 -0.4030 -1.5174 -0.4477
 5031TIP3   OH215049   1.261   7.487   2.262  0.0169  0.0844  0.0197
 5031TIP3    H115050   1.230   7.405   2.224  1.0283 -0.1677 -0.2791
 5031TIP3    H215051   1.183   7.543   2.266 -0.4984 -0.5802 -0.5811
 5032TIP3   OH215052   5.351   6.532   6.194 -0.1684 -0.2313  0.2359
 5032TIP3    H115053   5.325   6.586   6.120 -0.0031 -0.4369  0.0271
 5032TIP3    H215054   5.314   6.445   6.175 -1.2587  0.0250  1.0252
 5033TIP3   OH215055   3.705   5.145   3.529  0.5086  0.2986  0.4065
 5033TIP3    H115056   3.632   5.131   3.589  0.1308 -0.2040 -0.1530
 5033TIP3    H215057   3.776   5.178   3.584  0.4948 -1.0811  1.3134
 5034TIP3   OH215058  -0.020   3.731   3.882 -0.3141  0.7234  0.0560
 5034TIP3    H115059   0.010   3.652   3.926 -0.8938 -1.5287 -3.2348
 5034TIP3    H215060   0.060   3.778   3.859  0.2577 -0.5211 -0.6150
 5035TIP3   OH215061   3.580   2.627   2.120 -0.3246  0.1263 -0.4025
 5035TIP3    H115062   3.524   2.622   2.198 -0.1161 -0.7947 -0.3008
 5035TIP3    H215063   3.542   2.564   2.059  0.2328 -0.0508 -0.5747
 5036TIP3   OH215064   6.832   3.076   0.793  0.2090 -0.1140  0.0744
 5036TIP3    H115065   6.819   3.030   0.710  0.6084 -0.5331  0.2390
 5036TIP3    H215066   6.925   3.067   0.811  0.8056  2.6689 -1.0080
 5037TIP3   OH215067   3.752   3.726   6.308 -0.1149  0.0093  0.1679
 5037TIP3    H115068   3.684   3.699   6.369  0.2355  1.2550  1.1508
 5037TIP3    H215069   3.824   3.756   6.363  0.5712  0.3093 -0.8570
 5038TIP3   OH215070   0.075   0.860   2.854  0.4771 -0.5326 -0.0339
 5038TIP3    H115071   0.054   0.768   2.866  2.2141 -0.9787 -0.1712
 5038TIP3    H215072  -0.010   0.902   2.838 -0.2868 -2.1919 -0.6001
 5039TIP3   OH215073   4.675   2.749   3.723  0.2626  0.2754  0.1579
 5039TIP3    H115074   4.666   2.710   3.810 -0.6297  0.5971  0.2242
 5039TIP3    H215075   4.746   2.701   3.682  1.1108  0.5355  1.2886
 5040TIP3   OH215076   4.340   0.817   6.459 -0.2449 -0.8501 -0.2349
 5040TIP3    H115077   4.354   0.793   6.550 -0.1464  1.0029  0.2685
 5040TIP3    H215078   4.261   0.870   6.460  0.1769 -0.1822 -1.1145
 5041TIP3   OH215079   7.194   1.356   0.675 -0.7547 -0.3945 -0.3540
 5041TIP3    H115080   7.259   1.355   0.604 -0.3823 -0.9813 -0.0176
 5041TIP3    H215081   7.131   1.288   0.652 -0.3967 -0.8844  0.0808
 5042TIP3   OH215082   2.500   6.200   3.297  0.1537  0.3445 -0.1774
 5042TIP3    H115083   2.428   6.161   3.246 -0.3575  0.7893  0.1852
 5042TIP3    H215084   2.456   6.244   3.370  0.7552  1.1015 -0.2593
 5043TIP3   OH215085   0.901   1.050   0.879 -0.8268  0.5996  0.0152
 5043TIP3    H115086   0.961   1.094   0.939  0.0625 -0.5342 -0.0145
 5043TIP3    H215087   0.872   0.972   0.926  0.1793 -0.5111 -1.1304
 5044TIP3   OH215088   2.269   1.432   2.470  0.1791  0.3228  0.3585
 5044TIP3    H115089   2.238   1.476   2.549  0.6860 -0.0842  0.7868
 5044TIP3    H215090   2.189   1.407   2.423 -0.1173  1.0347  0.4763
 5045TIP3   OH215091   4.658   2.216   0.739 -0.1669  0.1553 -0.4544
 5045TIP3    H115092   4.628   2.174   0.819  2.8282 -0.5909  0.3850
 5045TIP3    H215093   4.601   2.292   0.729 -0.3695  0.5175  2.6318
 5046TIP3   OH215094   1.758   2.269   4.773 -0.7864 -0.2430 -0.2585
 5046TIP3    H115095   1.718   2.263   4.859 -0.9517  1.2634 -0.2112
 5046TIP3    H215096   1.818   2.343   4.779 -0.9259 -0.0078 -1.4949
 5047TIP3   OH215097   6.147   3.511   2.321  0.0154  0.3212 -0.2852
 5047TIP3    H115098   6.220   3.452   2.344 -0.3187 -0.3119 -0.8071
 5047TIP3    H215099   6.075   3.452   2.300 -0.8166  0.9570  0.7512
 5048TIP3   OH215100   1.962   6.463   4.088  0.5166  0.4411  0.5037
 5048TIP3    H115101   1.955   6.420   4.003 -0.4237 -1.2420  1.3881
 5048TIP3    H215102   2.045   6.433   4.124 -0.2016 -0.8152  1.1784
 5049TIP3   OH215103   6.492   4.000   5.199 -0.2069  1.1715 -0.1234
 5049TIP3    H115104   6.557   3.984   5.130 -1.0924  1.9015 -1.1637
 5049TIP3    H215105   6.541   4.045   5.268  0.5717  0.9601 -0.5269
 5050TIP3   OH215106   3.058   2.752   1.471 -0.0191  0.1087 -0.2677
 5050TIP3    H115107   3.140   2.753   1.422  0.9120  2.1888  1.2091
 5050TIP3    H215108   3.018   2.668   1.447  0.8526  0.4948 -3.6681
 5051TIP3   OH215109   3.677   4.240   5.080  0.5639 -0.2180 -0.2787
 5051TIP3    H115110   3.655   4.277   4.994 -1.1875 -0.1535  0.1696
 5051TIP3    H215111   3.719   4.156   5.059  3.5296  1.3793 -1.2644
 5052TIP3   OH215112   6.637   1.252   5.215 -0.1728  0.5659  0.0274
 5052TIP3    H115113   6.690   1.216   5.287  0.3838  0.5944 -0.3642
 5052TIP3    H215114   6.643   1.186   5.146 -0.6529  0.5691 -0.0173
 5053TIP3   OH215115   4.792   6.442   5.642  0.7979 -0.4364 -0.5119
 5053TIP3    H115116   4.797   6.500   5.565 -1.7216  0.7385  0.1207
 5053TIP3    H215117   4.869   6.386   5.634  1.7909  1.0873 -2.7240
 5054TIP3   OH215118   7.506   4.708   0.823 -0.1953 -0.2355  0.0309
 5054TIP3    H115119   7.457   4.626   0.821 -1.4033  0.4790 -0.6503
 5054TIP3    H215120   7.595   4.684   0.795 -1.4128 -0.7346 -3.8941
 5055TIP3   OH215121   6.204   3.120   5.811  0.6404 -0.3143 -0.2229
 5055TIP3    H115122   6.113   3.149   5.813  0.9638  0.9402  3.2637
 5055TIP3    H215123   6.204   3.037   5.859  1.3641 -0.1905  0.0022
 5056TIP3   OH215124   8.300   3.871   1.067 -0.7373 -0.2944 -0.0866
 5056TIP3    H115125   8.225   3.811   1.071 -1.3777  0.2775 -2.3241
 5056TIP3    H215126   8.260   3.957   1.056  0.2395  0.3312  1.0178
 5057TIP3   OH215127   0.989   4.666   6.309 -0.1272  0.1810 -0.1105
 5057TIP3    H115128   1.064   4.624   6.352 -1.2620 -1.1547  0.6681
 5057TIP3    H215129   0.928   4.684   6.381 -0.6622  1.0142 -0.7627
 5058TIP3   OH215130   7.714   2.753   2.370 -0.0857 -0.4501 -0.0182
 5058TIP3    H115131   7.733   2.832   2.420  0.3601 -0.9775  0.6697
 5058TIP3    H215132   7.704   2.685   2.436  0.6438 -1.1894 -0.6395
 5059TIP3   OH215133   0.828   2.921   0.431 -0.8543  0.0344 -0.6161
 5059TIP3    H115134   0.889   2.848   0.441 -1.4752 -0.1700  2.8646
 5059TIP3    H215135   0.741   2.880   0.435 -1.2139  0.7849 -0.6094
 5060TIP3   OH215136   2.068   5.314   5.298  0.5930 -0.2340 -0.0555
 5060TIP3    H115137   2.097   5.269   5.378 -0.8138 -0.4835  0.3489
 5060TIP3    H215138   1.976   5.333   5.314  0.4642  0.3259 -1.3608
 5061TIP3   OH215139   6.566   5.535   0.286 -0.4937  0.3972  0.2073
 5061TIP3    H115140   6.501   5.602   0.309  1.1759  2.6293 -1.1021
 5061TIP3    H215141   6.613   5.573   0.212  1.5162 -1.6468  0.3424
 5062TIP3   OH215142   0.872   6.818   2.427 -0.3857  0.0563 -0.4233
 5062TIP3    H115143   0.948   6.789   2.479 -0.9582  0.2454  0.5355
 5062TIP3    H215144   0.881   6.770   2.344  1.9337  1.6590 -1.1898
 5063TIP3   OH215145   6.510   1.130   4.965 -0.0536  0.5422  0.6355
 5063TIP3    H115146   6.505   1.225   4.975 -2.1944  0.4688  0.5861
 5063TIP3    H215147   6.447   1.096   5.028  0.5044 -0.8520  0.4724
 5064TIP3   OH215148   5.846   4.999   1.590  0.0144 -0.2644  0.0247
 5064TIP3    H115149   5.857   5.079   1.540 -2.3828  0.5031  0.5952
 5064TIP3    H215150   5.848   4.929   1.525  0.2158  0.4293 -0.7254
 5065TIP3   OH215151   2.412   5.192   6.648  0.2284 -0.4622 -0.0592
 5065TIP3    H115152   2.358   5.213   6.572  0.0068 -0.0026  0.2148
 5065TIP3    H215153   2.367   5.235   6.721 -0.4317 -2.2005  0.6151
 5066TIP3   OH215154   6.701   4.360   5.393  0.7194  0.0930 -0.4800
 5066TIP3    H115155   6.626   4.358   5.333  0.8578  0.9438 -0.6919
 5066TIP3    H215156   6.672   4.416   5.465  0.9997  0.0743 -0.3539
 5067TIP3   OH215157   6.496   5.719   0.787  0.1366  0.4202  0.5378
 5067TIP3    H115158   6.465   5.638   0.746 -0.7160  1.1653 -0.3255
 5067TIP3    H215159   6.591   5.717   0.775  0.0700 -0.2121  0.0642
 5068TIP3   OH215160   0.666   0.919   1.391 -0.2303 -0.6703 -0.2351
 5068TIP3    H115161   0.756   0.941   1.414 -0.1241  1.8458 -2.4871
 5068TIP3    H215162   0.673   0.837   1.342  0.8981 -0.3631 -0.6215
 5069TIP3   OH215163   1.584   6.584   6.789 -0.1320  0.2665 -0.0160
 5069TIP3    H115164   1.507   6.640   6.786 -0.9153 -0.7390  0.4710
 5069TIP3    H215165   1.569   6.519   6.720  0.4090  0.2294 -0.1010
 5070TIP3   OH215166   1.749   0.910   1.514  0.1077  0.6164 -0.1672
 5070TIP3    H115167   1.774   0.881   1.602 -1.4191  2.6720  1.0402
 5070TIP3    H215168   1.832   0.919   1.467  0.9820 -0.1695  1.1643
 5071TIP3   OH215169   1.623   1.649   0.401  0.0437  0.3158 -0.8405
 5071TIP3    H115170   1.697   1.675   0.455 -0.4001  0.3526 -0.2361
 5071TIP3    H215171   1.572   1.589   0.457  0.0052 -0.2859 -1.5068
 5072TIP3   OH215172   4.942   2.668   0.890  0.1110 -0.5068  0.0973
 5072TIP3    H115173   4.962   2.762   0.888  1.2735 -0.6092  2.7445
 5072TIP3    H215174   5.027   2.626   0.904 -0.2437 -2.0907 -1.9674
 5073TIP3   OH215175   1.571   2.675   5.900  0.3084  0.3616  0.0829
 5073TIP3    H115176   1.501   2.651   5.838 -0.2539  0.3676  0.7073
 5073TIP3    H215177   1.628   2.733   5.849 -1.1476  1.8982  0.0669
 5074TIP3   OH215178   4.491   0.113   0.316 -0.0751  0.4068  0.4637
 5074TIP3    H115179   4.456   0.177   0.378 -0.3364  0.0808  0.6515
 5074TIP3    H215180   4.423   0.046   0.308 -0.3750  0.8259 -0.7610
 5075TIP3   OH215181   0.403   1.403   3.211 -0.0001 -0.0036  0.1285
 5075TIP3    H115182   0.439   1.315   3.224 -0.5224 -0.2013  0.2791
 5075TIP3    H215183   0.476   1.462   3.232 -0.2042 -0.3595  2.0215
 5076TIP3   OH215184   6.527   1.493   0.512  0.0650  0.1763 -0.1817
 5076TIP3    H115185   6.544   1.460   0.600  0.4751  0.1932 -0.2527
 5076TIP3    H215186   6.507   1.415   0.460  1.3247 -0.0041 -0.4174
 5077TIP3   OH215187   7.206   4.911   1.337 -0.4837 -0.0613  0.7010
 5077TIP3    H115188   7.298   4.926   1.361 -0.2975  1.1756 -0.6203
 5077TIP3    H215189   7.209   4.832   1.283  0.1216  1.0096 -0.9015
 5078TIP3   OH215190   6.218   6.241   0.412 -0.1392 -0.6194  0.4365
 5078TIP3    H115191   6.256   6.166   0.366 -1.3276 -1.1804  0.3380
 5078TIP3    H215192   6.235   6.224   0.504  1.0157 -0.1875  0.3207
 5079TIP3   OH215193   5.556   5.992   3.274  0.5134 -0.3921  0.1245
 5079TIP3    H115194   5.482   6.046   3.301  0.4052 -0.7432  0.5368
 5079TIP3    H215195   5.585   6.031   3.192  0.9499  0.7963  0.8172
 5080TIP3   OH215196   2.168   6.881   3.139 -0.5961  0.6295  0.8024
 5080TIP3    H115197   2.125   6.944   3.198 -0.7348  0.3281  1.0235
 5080TIP3    H215198   2.113   6.803   3.143  0.3411 -0.0005  1.6069
 5081TIP3   OH215199   5.988   2.175   6.509  0.1620 -0.4730  0.2081
 5081TIP3    H115200   6.064   2.119   6.523 -0.4094 -0.9800  1.4952
 5081TIP3    H215201   5.914   2.114   6.505 -0.4983  0.1563  1.8577
 5082TIP3   OH215202   6.538   7.477   6.004 -0.1488 -0.1587 -0.4045
 5082TIP3    H115203   6.521   7.411   5.936  2.0190 -0.0939 -1.1133
 5082TIP3    H215204   6.623   7.514   5.980 -0.6787  1.9717  0.7335
 5083TIP3   OH215205   3.287   5.155   2.213 -0.0772  0.1793 -0.3977
 5083TIP3    H115206   3.272   5.063   2.234 -0.1470  0.6997  2.1847
 5083TIP3    H215207   3.301   5.197   2.298  1.5257  2.2950 -1.5939
 5084TIP3   OH215208   7.551   2.809   2.631 -0.0418  0.2134 -0.2943
 5084TIP3    H115209   7.534   2.803   2.725 -1.6903 -0.9042 -0.6219
 5084TIP3    H215210   7.465   2.798   2.591  0.7021  0.2536 -1.9546
 5085TIP3   OH215211   0.559   2.238   6.667  0.2369 -0.2406 -0.4584
 5085TIP3    H115212   0.645   2.276   6.686 -0.4921  0.9846  0.5837
 5085TIP3    H215213   0.526   2.213   6.753 -0.4418 -0.7271 -0.8601
 5086TIP3   OH215214   6.456   5.044   3.676  0.0501  0.3977  0.4061
 5086TIP3    H115215   6.382   5.097   3.707 -0.9423 -1.9101  2.3411
 5086TIP3    H215216   6.417   4.985   3.611  0.7632  0.7965 -0.4045
 5087TIP3   OH215217   1.648   3.714   4.303  0.4167 -0.4646  0.3771
 5087TIP3    H115218   1.653   3.769   4.224 -1.0331 -1.3981 -0.4282
 5087TIP3    H215219   1.645   3.625   4.269  0.5566 -0.9302  1.5490
 5088TIP3   OH215220   4.611   4.722   0.429  0.1021  0.3025  0.0027
 5088TIP3    H115221   4.562   4.683   0.502 -0.6634  1.7810  0.3082
 5088TIP3    H215222   4.586   4.814   0.429  0.7870  0.5254 -1.5848
 5089TIP3   OH215223   2.044   6.751   4.540  0.2301 -0.6183  0.2038
 5089TIP3    H115224   1.963   6.800   4.557  0.4169 -0.8589  1.8781
 5089TIP3    H215225   2.042   6.736   4.445 -1.5981 -0.4491  0.1649
 5090TIP3   OH215226   8.152   2.609   2.223 -0.1759 -0.3627  0.1930
 5090TIP3    H115227   8.244   2.586   2.228 -0.0792 -0.1055 -0.4185
 5090TIP3    H215228   8.106   2.525   2.231  0.0081 -0.3104  2.8610
 5091TIP3   OH215229   4.622   5.926   6.746  0.1571  0.2922 -0.7793
 5091TIP3    H115230   4.688   5.900   6.681  0.5918  1.0699 -0.6612
 5091TIP3    H215231   4.648   6.014   6.772 -0.7684  0.4866 -0.5056
 5092TIP3   OH215232   6.145   1.686   5.560  0.3834 -0.1702 -0.1185
 5092TIP3    H115233   6.065   1.644   5.592 -1.0412  1.7301 -0.9379
 5092TIP3    H215234   6.175   1.630   5.489  0.1962 -1.2960  0.6692
 5093TIP3   OH215235   5.612   3.911   3.494 -0.7612 -0.0489 -0.0851
 5093TIP3    H115236   5.648   3.990   3.535  0.2610 -1.1428  1.2096
 5093TIP3    H215237   5.629   3.923   3.400 -0.4892  1.1872  0.1065
 5094TIP3   OH215238   5.644   3.741   3.988  0.3724 -0.1007  0.3557
 5094TIP3    H115239   5.628   3.731   3.895 -3.0751 -1.2462  0.9101
 5094TIP3    H215240   5.636   3.835   4.005 -0.2495 -0.0214 -0.3409
 5095TIP3   OH215241   6.320   3.047   1.834  0.3956 -0.1197 -0.1212
 5095TIP3    H115242   6.415   3.031   1.835  0.9193  2.6119 -0.5937
 5095TIP3    H215243   6.309   3.124   1.779 -2.0028  0.3284  0.8913
 5096TIP3   OH215244   6.395   2.363   0.129 -0.5929 -0.0517 -0.7057
 5096TIP3    H115245   6.388   2.377   0.035 -1.9334  3.0215 -0.2751
 5096TIP3    H215246   6.486   2.385   0.150 -0.6051  0.4561 -1.1596
 5097TIP3   OH215247   3.999   1.755   6.042 -0.5100  0.1130  0.2290
 5097TIP3    H115248   3.910   1.779   6.066 -0.4706  0.0296  0.4644
 5097TIP3    H215249   4.042   1.737   6.125 -0.6131 -1.0134  0.0578
 5098TIP3   OH215250   6.656   5.463   0.910  0.3933 -0.2805  0.2785
 5098TIP3    H115251   6.647   5.555   0.932  1.9207  0.3586 -1.5210
 5098TIP3    H215252   6.593   5.418   0.967 -3.2868  2.2183 -1.5169
 5099TIP3   OH215253   1.632   6.115   4.935  0.6436 -0.3436 -0.1912
 5099TIP3    H115254   1.572   6.186   4.957  1.7250  0.5120  0.1372
 5099TIP3    H215255   1.695   6.156   4.875  2.1385 -0.5998  1.1392
 5100TIP3   OH215256   5.342   6.915   2.985  0.4968 -0.0208  0.0712
 5100TIP3    H115257   5.419   6.912   3.042  0.0396  0.1766  0.7154
 5100TIP3    H215258   5.316   6.823   2.975  0.2542 -0.0210  0.6480
 5101TIP3   OH215259   1.252   3.765   0.877 -0.1564  0.4180  0.5444
 5101TIP3    H115260   1.202   3.711   0.939  1.5076 -1.8454  0.0454
 5101TIP3    H215261   1.186   3.801   0.818 -1.3690 -0.9337  1.0234
 5102TIP3   OH215262   0.360   4.297   0.086 -0.4681 -0.0547  0.4453
 5102TIP3    H115263   0.268   4.278   0.069 -0.8025  0.7900  1.2132
 5102TIP3    H215264   0.366   4.393   0.083  0.2556 -0.0717  1.0044
 5103TIP3   OH215265   5.874   0.366   6.544 -0.2727 -0.4874 -0.7436
 5103TIP3    H115266   5.939   0.304   6.513 -1.9921 -0.9454 -3.8594
 5103TIP3    H215267   5.827   0.319   6.614 -0.1254 -1.8711 -1.5403
 5104TIP3   OH215268   8.099   1.906   4.274  0.1438  0.4344  0.2500
 5104TIP3    H115269   8.120   1.999   4.271  0.6354  0.3562  1.2025
 5104TIP3    H215270   8.051   1.890   4.192 -1.3319  1.8580  0.7775
 5105TIP3   OH215271   3.439   2.738   4.197  0.1058 -0.2159  0.4764
 5105TIP3    H115272   3.444   2.752   4.102 -0.0513  0.5180  0.5706
 5105TIP3    H215273   3.503   2.668   4.214  0.6895  0.1722 -0.0635
 5106TIP3   OH215274   2.417   5.744   4.060  0.1073 -0.3297  0.4023
 5106TIP3    H115275   2.397   5.710   3.973 -0.6720 -0.0595  0.4610
 5106TIP3    H215276   2.382   5.678   4.120 -1.5981  0.6001  0.5201
 5107TIP3   OH215277   2.812   7.318   1.882 -0.2016 -0.0365 -0.4215
 5107TIP3    H115278   2.827   7.224   1.895 -0.5469 -0.0500 -0.0960
 5107TIP3    H215279   2.733   7.336   1.932 -1.0939  0.1004 -1.8213
 5108TIP3   OH215280   0.431   0.080   3.792  0.9834 -0.1844 -0.0162
 5108TIP3    H115281   0.374   0.133   3.847  2.3528  2.1498 -0.7029
 5108TIP3    H215282   0.493   0.143   3.754  1.3390 -1.9571 -2.6455
 5109TIP3   OH215283   4.803   6.173   3.581 -0.1411 -0.7326  0.0262
 5109TIP3    H115284   4.839   6.112   3.646 -0.3223 -0.7949  0.0680
 5109TIP3    H215285   4.745   6.230   3.632  0.0037 -0.5436 -0.0177
 5110TIP3   OH215286   1.446   6.705   6.570  0.1206  0.0518 -0.1649
 5110TIP3    H115287   1.446   6.801   6.578  1.3406  0.0493 -0.0558
 5110TIP3    H215288   1.538   6.681   6.569 -0.1723 -1.2535  1.1887
 5111TIP3   OH215289   3.400   7.547   3.719 -0.2310 -0.2796 -0.0410
 5111TIP3    H115290   3.381   7.464   3.761  0.5921  0.1734  1.3068
 5111TIP3    H215291   3.328   7.560   3.657 -0.7793 -1.6081  0.2820
 5112TIP3   OH215292   5.788   0.155   4.665  0.3420  0.0575 -0.4001
 5112TIP3    H115293   5.858   0.113   4.615 -0.8125 -1.7109 -0.6390
 5112TIP3    H215294   5.789   0.110   4.750 -0.7740 -0.3218 -0.5671
 5113TIP3   OH215295   5.117   0.052   6.185  0.5015 -0.7673  0.1527
 5113TIP3    H115296   5.193   0.048   6.128  1.1558 -0.7817  0.9973
 5113TIP3    H215297   5.055   0.109   6.139  1.0941 -0.6069 -0.4603
 5114TIP3   OH215298   2.510   3.198   1.377 -0.1599 -0.4731 -0.2518
 5114TIP3    H115299   2.480   3.287   1.356  1.5312  0.7196  2.0582
 5114TIP3    H215300   2.580   3.181   1.314  0.7728  0.6148  0.4646
 5115TIP3   OH215301   0.589   0.025   4.720  0.6860  0.3464 -0.2709
 5115TIP3    H115302   0.657   0.065   4.666  1.4399 -0.5857 -0.0366
 5115TIP3    H215303   0.637  -0.022   4.789 -0.2246  0.5199  0.4988
 5116TIP3   OH215304   4.979   3.574   6.079  0.1362 -0.0688 -0.4271
 5116TIP3    H115305   5.030   3.625   6.017 -1.8389  2.5818 -0.0423
 5116TIP3    H215306   4.983   3.624   6.161  0.8031 -2.3079  1.0007
 5117TIP3   OH215307   1.604   0.777   1.950 -0.1715  0.1947  0.0525
 5117TIP3    H115308   1.673   0.733   2.001 -0.4795 -2.1738 -1.3981
 5117TIP3    H215309   1.542   0.707   1.929 -2.4651  2.0142  0.3112
 5118TIP3   OH215310   1.423   4.910   1.848  0.1268  0.2860  0.0278
 5118TIP3    H115311   1.333   4.895   1.818  0.1680  0.2217 -0.0639
 5118TIP3    H215312   1.475   4.848   1.797  0.1683  0.0117  0.3995
 5119TIP3   OH215313   0.529   6.802   3.495 -0.4005  0.1800  0.6010
 5119TIP3    H115314   0.588   6.845   3.433 -0.5908  0.0108  0.3001
 5119TIP3    H215315   0.443   6.840   3.475 -0.6157 -0.5206  0.1612
 5120TIP3   OH215316   3.068   6.071   2.845 -0.1515 -0.2691  0.2164
 5120TIP3    H115317   2.999   6.005   2.842 -1.5732  1.1870 -0.2416
 5120TIP3    H215318   3.024   6.152   2.869  1.5244  0.5826  0.6222
 5121TIP3   OH215319   7.277   4.516   3.074 -0.1544 -0.3492 -0.2221
 5121TIP3    H115320   7.271   4.565   2.992  0.6912 -0.6531 -0.4767
 5121TIP3    H215321   7.319   4.434   3.051 -0.7560 -0.8350  0.3637
 5122TIP3   OH215322   3.453   1.558   1.433  0.0996 -1.2404  0.3914
 5122TIP3    H115323   3.428   1.472   1.465 -0.7576 -0.7931  0.9746
 5122TIP3    H215324   3.370   1.601   1.411  0.6156 -1.3505 -2.0287
 5123TIP3   OH215325   6.679   0.661   5.155 -0.9175 -0.0250 -0.0896
 5123TIP3    H115326   6.598   0.631   5.113 -0.9319 -0.4562  0.2430
 5123TIP3    H215327   6.658   0.664   5.248 -0.0382 -1.8215  0.2008
 5124TIP3   OH215328   4.997   5.841   5.611  0.0444 -0.0929 -0.5124
 5124TIP3    H115329   4.949   5.820   5.531  0.3450  1.3224 -1.0962
 5124TIP3    H215330   5.082   5.873   5.580  0.9240 -1.4291  0.4618
 5125TIP3   OH215331   0.275   0.360   5.709  0.0304  0.2202 -0.3975
 5125TIP3    H115332   0.224   0.370   5.790  0.7691  1.2973 -0.0603
 5125TIP3    H215333   0.282   0.448   5.673  0.0085 -0.1971 -1.4752
 5126TIP3   OH215334   0.774   3.813   6.693 -0.2642  0.0089  1.1441
 5126TIP3    H115335   0.850   3.807   6.634 -1.1472  3.0572 -0.4858
 5126TIP3    H215336   0.738   3.724   6.693  1.0962 -0.6535 -1.1101
 5127TIP3   OH215337   7.914   5.015   4.223  0.1536  0.2331  0.1279
 5127TIP3    H115338   7.959   5.043   4.302  2.6679 -0.1951 -1.0769
 5127TIP3    H215339   7.830   5.062   4.226  1.4316  2.6213  1.5022
 5128TIP3   OH215340   7.323   0.226   1.061  0.3636  0.0465  0.1572
 5128TIP3    H115341   7.396   0.253   1.006 -0.0790  0.4696 -0.2351
 5128TIP3    H215342   7.345   0.259   1.149  0.9980 -0.4992  0.2109
 5129TIP3   OH215343   7.064   1.714   0.541 -0.2610  0.3568 -0.3411
 5129TIP3    H115344   7.072   1.672   0.627 -2.2454  0.6486  0.0477
 5129TIP3    H215345   7.122   1.790   0.546 -0.2777  0.3220  0.7177
 5130TIP3   OH215346   3.332   6.245   5.870 -0.6083 -0.1094 -0.0548
 5130TIP3    H115347   3.403   6.184   5.887  1.0557  1.2616 -1.6421
 5130TIP3    H215348   3.340   6.267   5.777 -1.8335  1.6274  0.1889
 5131TIP3   OH215349   5.542   0.908   1.811  0.7087 -0.8758 -0.4279
 5131TIP3    H115350   5.499   0.912   1.726  1.4867 -3.2565 -1.0059
 5131TIP3    H215351   5.635   0.906   1.792  1.0601  1.4116  0.6852
 5132TIP3   OH215352   5.210   0.129   1.290  0.2084 -0.0134 -0.1338
 5132TIP3    H115353   5.250   0.158   1.371 -2.1448 -0.2651  1.2203
 5132TIP3    H215354   5.135   0.076   1.317 -0.9708  0.3019 -2.4394
 5133TIP3   OH215355   6.017   6.734   1.912  0.2915  0.3588 -0.3866
 5133TIP3    H115356   5.957   6.797   1.873  1.9439  2.5749  0.4256
 5133TIP3    H215357   6.017   6.756   2.005  0.6905 -1.0716 -0.0257
 5134TIP3   OH215358   7.617   1.367   3.355 -0.3279 -0.1685  0.1341
 5134TIP3    H115359   7.554   1.402   3.292  0.2187 -0.6591 -0.6974
 5134TIP3    H215360   7.700   1.366   3.308  0.2011 -0.0604  1.0357
 5135TIP3   OH215361   7.367   1.365   0.437  0.5316  0.0544 -0.1177
 5135TIP3    H115362   7.317   1.330   0.363  0.8305  0.1538 -0.3728
 5135TIP3    H215363   7.451   1.319   0.433  0.8352  0.6135 -0.3073
 5136TIP3   OH215364   0.853   4.125   5.484 -0.2621 -0.3285 -0.4909
 5136TIP3    H115365   0.775   4.168   5.518 -0.0727  1.2146 -1.8901
 5136TIP3    H215366   0.874   4.059   5.550  0.0555  2.4073  2.4078
 5137TIP3   OH215367   5.685   7.312   6.200  0.1781  0.0857 -0.0057
 5137TIP3    H115368   5.634   7.364   6.139 -0.3106 -1.1994 -0.7207
 5137TIP3    H215369   5.645   7.225   6.199  0.7028 -0.2192  1.4785
 5138TIP3   OH215370   1.380   4.745   1.203  0.3620 -0.2211 -0.1858
 5138TIP3    H115371   1.360   4.665   1.153 -0.0089  0.9503 -1.9816
 5138TIP3    H215372   1.391   4.714   1.293  0.3024 -2.3086 -0.8409
 5139TIP3   OH215373   7.281   5.251   3.356  0.7100  0.3345 -0.5068
 5139TIP3    H115374   7.231   5.194   3.415 -1.0993  0.7968 -1.4953
 5139TIP3    H215375   7.371   5.243   3.386  0.5157 -2.7786 -0.3859
 5140TIP3   OH215376   3.892   6.119   5.200 -0.6855 -0.1091 -0.5080
 5140TIP3    H115377   3.868   6.129   5.293 -1.8154 -3.4165 -0.3299
 5140TIP3    H215378   3.979   6.081   5.201 -0.9897 -0.8355 -0.7466
 5141TIP3   OH215379   4.312   4.940   2.308 -0.6122 -0.3546  0.7231
 5141TIP3    H115380   4.306   4.950   2.213 -2.0835  0.0496  0.8320
 5141TIP3    H215381   4.324   5.029   2.341 -1.8878 -0.2533  0.9907
 5142TIP3   OH215382   4.269   4.362   5.307  0.4023  0.0900 -0.0848
 5142TIP3    H115383   4.183   4.323   5.291 -0.2711  1.1771  0.7706
 5142TIP3    H215384   4.293   4.401   5.223  0.7812 -1.5245 -0.7627
 5143TIP3   OH215385   4.224   2.653   1.830 -0.1386  0.5165  0.1866
 5143TIP3    H115386   4.133   2.656   1.860 -0.3846  2.7935 -0.5725
 5143TIP3    H215387   4.218   2.655   1.734  0.7060 -0.2736  0.1054
 5144TIP3   OH215388   3.901   5.504   1.143  0.2032  0.5039 -0.2561
 5144TIP3    H115389   3.975   5.556   1.112  1.7571 -0.9857  0.7455
 5144TIP3    H215390   3.880   5.543   1.228  2.3016 -1.2048  1.1720
 5145TIP3   OH215391   7.193   0.910   4.134  0.1873  0.2842  0.5992
 5145TIP3    H115392   7.270   0.869   4.095  0.1378 -0.6465  1.4476
 5145TIP3    H215393   7.204   0.898   4.229 -1.9394 -1.6815  0.6943
 5146TIP3   OH215394   6.191   7.704   6.380 -0.3600 -0.5505  0.3667
 5146TIP3    H115395   6.252   7.658   6.323 -1.0088 -0.7394 -0.1956
 5146TIP3    H215396   6.218   7.681   6.469  1.0271  0.2090  0.1635
 5147TIP3   OH215397   0.047   0.070   6.677  0.0811 -0.0066  0.3250
 5147TIP3    H115398  -0.024   0.008   6.660  0.5531 -0.1320 -1.4217
 5147TIP3    H215399   0.101   0.065   6.598  0.7009  1.8622  0.6025
 5148TIP3   OH215400   5.890   2.720   3.690 -0.6517  0.1002 -0.4807
 5148TIP3    H115401   5.873   2.627   3.677 -0.6323  0.0761 -0.3363
 5148TIP3    H215402   5.941   2.746   3.614  0.1686 -0.2208 -0.0534
 5149TIP3   OH215403   2.258   3.387   6.758  0.5943  0.4678 -0.0054
 5149TIP3    H115404   2.347   3.353   6.771  0.1834 -0.8077 -0.4192
 5149TIP3    H215405   2.251   3.400   6.664 -0.2248 -1.1443 -0.2081
 5150TIP3   OH215406   0.995   0.628   3.787 -0.0911 -0.3429  0.4203
 5150TIP3    H115407   0.922   0.575   3.820  1.1234 -0.8621  2.4779
 5150TIP3    H215408   1.025   0.581   3.709 -0.4947 -1.4068  0.8850
 5151TIP3   OH215409   3.087   4.017   6.727  0.2160 -0.1104  0.5759
 5151TIP3    H115410   3.169   4.048   6.765  0.7829 -0.7429 -0.0936
 5151TIP3    H215411   3.032   4.096   6.719  1.2559  0.5555 -0.1935
 5152TIP3   OH215412   4.996   0.297   2.207  0.0405  0.3232  0.3878
 5152TIP3    H115413   5.003   0.317   2.300  0.5846  0.8626  0.2348
 5152TIP3    H215414   5.082   0.263   2.183  0.2992  1.3619 -0.1877
 5153TIP3   OH215415   7.082   5.866   3.030 -0.1034 -0.6559  0.0644
 5153TIP3    H115416   7.127   5.817   2.961 -0.4346  1.4363 -1.7786
 5153TIP3    H215417   6.990   5.866   3.003 -0.0698  1.1421 -0.1895
 5154TIP3   OH215418   2.562   1.820   0.919 -0.0157  0.2428  0.3768
 5154TIP3    H115419   2.547   1.733   0.955 -0.9272  0.5047  0.6687
 5154TIP3    H215420   2.608   1.867   0.988 -2.0435  0.8413  1.3888
 5155TIP3   OH215421   0.902   5.764   4.177 -0.1492  0.1574  0.1720
 5155TIP3    H115422   0.836   5.799   4.117  0.0640 -0.2243 -0.2882
 5155TIP3    H215423   0.910   5.831   4.245  0.4181  1.1303 -0.8184
 5156TIP3   OH215424   2.472   6.422   6.113  0.1619  0.4788  0.1968
 5156TIP3    H115425   2.521   6.354   6.067  1.8025  1.5521  0.2981
 5156TIP3    H215426   2.485   6.501   6.061  0.4270  1.2828  1.4308
 5157TIP3   OH215427   5.688   3.447   5.145  0.1611 -0.5841 -0.0432
 5157TIP3    H115428   5.653   3.536   5.132 -1.5080 -0.9217  1.5593
 5157TIP3    H215429   5.747   3.456   5.220  0.1855 -0.7610 -0.0425
 5158TIP3   OH215430   2.235   4.425   0.282  0.1215 -0.1263  0.6554
 5158TIP3    H115431   2.208   4.442   0.192  1.1722  2.9181  0.7925
 5158TIP3    H215432   2.303   4.358   0.274  0.3865  0.2795 -0.8599
 5159TIP3   OH215433   0.694   6.364   3.918 -0.2198 -0.9064 -0.3683
 5159TIP3    H115434   0.764   6.308   3.951 -0.6034  0.4053  3.0870
 5159TIP3    H215435   0.727   6.453   3.929 -1.3307 -0.3336 -1.4399
 5160TIP3   OH215436   6.346   3.649   3.029 -0.1379 -0.3254  0.1067
 5160TIP3    H115437   6.301   3.681   2.951 -1.4417  1.7014  1.6241
 5160TIP3    H215438   6.425   3.702   3.035 -1.5704  1.7891  1.7953
 5161TIP3   OH215439   2.927   1.403   5.803  0.0598  0.7345 -0.0457
 5161TIP3    H115440   2.963   1.408   5.714 -0.1107  1.2030 -0.0904
 5161TIP3    H215441   2.892   1.490   5.819  0.9830  0.9547  0.8661
 5162TIP3   OH215442   1.585   4.931   2.653  0.1426  0.0111 -0.5427
 5162TIP3    H115443   1.583   4.903   2.744  0.5167 -1.2425 -0.8992
 5162TIP3    H215444   1.575   4.850   2.603 -0.0965  0.6828 -1.6195
 5163TIP3   OH215445   2.630   0.047   3.499 -0.0075 -0.6078 -0.2849
 5163TIP3    H115446   2.685  -0.029   3.481  1.6335  0.5864 -0.5495
 5163TIP3    H215447   2.590   0.068   3.415  1.1977  0.0391 -0.7298
 5164TIP3   OH215448   7.672   7.590   2.094 -0.1144 -0.1266 -1.2366
 5164TIP3    H115449   7.669   7.535   2.172  1.8563  1.7467  0.2795
 5164TIP3    H215450   7.589   7.573   2.049 -2.0811 -0.1389  2.0931
 5165TIP3   OH215451   5.766   3.192   0.613 -0.0084 -0.2038 -0.1936
 5165TIP3    H115452   5.785   3.129   0.543 -0.2976 -0.3099 -0.1813
 5165TIP3    H215453   5.769   3.141   0.693 -0.0884 -0.1703 -0.1690
 5166TIP3   OH215454   4.099   1.984   5.880 -0.0420  0.1210 -0.0133
 5166TIP3    H115455   4.064   1.944   5.960  0.4627  0.1732  0.2352
 5166TIP3    H215456   4.186   1.945   5.869  0.2182  0.7063 -0.0950
 5167TIP3   OH215457   8.228   5.486   5.600 -0.4147  0.2402  0.2674
 5167TIP3    H115458   8.303   5.493   5.659 -0.5564  0.1106  0.4643
 5167TIP3    H215459   8.259   5.521   5.517 -0.4334  1.1175  0.6214
 5168TIP3   OH215460   2.965   7.335   2.697  0.8198  0.2966 -0.2157
 5168TIP3    H115461   2.961   7.427   2.724 -2.1728  0.0297  0.5784
 5168TIP3    H215462   2.889   7.324   2.639  1.1268 -1.6872 -0.3022
 5169TIP3   OH215463   1.784   1.215   1.236  0.4344 -0.5515  0.2478
 5169TIP3    H115464   1.731   1.279   1.188  0.1445  0.1949  1.5218
 5169TIP3    H215465   1.737   1.202   1.318  1.9635 -0.2610  1.1978
 5170TIP3   OH215466   6.283   6.644   5.584  0.0934 -0.2276  0.3549
 5170TIP3    H115467   6.373   6.646   5.551 -0.3702  0.0975 -0.9443
 5170TIP3    H215468   6.243   6.568   5.541 -0.4134 -0.0434  0.4895
 5171TIP3   OH215469   7.910   1.257   0.184  0.5875 -0.0539  0.2915
 5171TIP3    H115470   7.916   1.320   0.256 -0.2977  0.0294  0.2984
 5171TIP3    H215471   7.821   1.222   0.190  1.1879 -1.6383  0.5644
 5172TIP3   OH215472   6.373   7.071   4.021 -0.1395 -0.4963 -0.4736
 5172TIP3    H115473   6.418   7.155   4.015  1.5132 -1.4265 -2.2333
 5172TIP3    H215474   6.283   7.093   4.044  0.3015  1.7177 -0.6791
 5173TIP3   OH215475   7.742   2.895   4.504  0.0488 -0.5211 -0.0003
 5173TIP3    H115476   7.714   2.941   4.425  0.0009 -0.4359  0.0665
 5173TIP3    H215477   7.669   2.836   4.525 -0.3157  0.0876  0.4802
 5174TIP3   OH215478   0.598   7.172   4.265  0.2067  0.8880 -0.0157
 5174TIP3    H115479   0.670   7.123   4.304 -0.5901 -0.3375 -0.0048
 5174TIP3    H215480   0.593   7.140   4.175 -1.7282 -0.8267  0.5950
 5175TIP3   OH215481   7.325   2.675   3.297 -0.2461 -0.1299  0.9036
 5175TIP3    H115482   7.301   2.679   3.204 -0.4356  1.2618  0.9935
 5175TIP3    H215483   7.367   2.590   3.307  2.1587  0.7186 -1.0382
 5176TIP3   OH215484   6.259   2.388   1.450  0.7010  0.1970 -0.4809
 5176TIP3    H115485   6.331   2.451   1.457 -1.7011  3.1324 -0.3012
 5176TIP3    H215486   6.182   2.441   1.433 -1.9371 -2.4927  1.9036
 5177TIP3   OH215487   4.695   3.760   4.423 -0.2031  0.3387  0.0925
 5177TIP3    H115488   4.740   3.754   4.338  0.9733  1.8746  0.5616
 5177TIP3    H215489   4.605   3.785   4.401  0.5614  2.7023 -0.6848
 5178TIP3   OH215490   2.074   0.793   4.804  0.6228 -0.0022  0.1480
 5178TIP3    H115491   2.118   0.798   4.889  0.1539  1.2985  0.3350
 5178TIP3    H215492   1.989   0.835   4.819  0.2306 -0.4532 -0.7732
 5179TIP3   OH215493   6.656   3.174   5.912 -0.1807  0.2463 -0.6624
 5179TIP3    H115494   6.724   3.232   5.946 -0.7585  0.4196  0.2277
 5179TIP3    H215495   6.697   3.129   5.838  0.5840  1.0576 -0.7371
 5180TIP3   OH215496   2.564   6.564   0.100 -0.0221  0.2705  0.0885
 5180TIP3    H115497   2.635   6.513   0.061  0.0347  0.6173 -0.2674
 5180TIP3    H215498   2.585   6.566   0.193  1.0318  1.2831 -0.1529
 5181TIP3   OH215499   0.039   0.930   6.755 -0.3374  0.5426 -0.5056
 5181TIP3    H115500   0.065   0.838   6.748 -0.5148  0.6097 -2.8087
 5181TIP3    H215501   0.114   0.973   6.794  0.8478 -0.1708 -1.9104
 5182TIP3   OH215502   3.176   3.194   3.012  0.4370 -0.1864 -0.5053
 5182TIP3    H115503   3.179   3.119   2.952  1.1165 -0.9567  0.4655
 5182TIP3    H215504   3.243   3.175   3.078  1.0382  1.5435 -0.5434
 5183TIP3   OH215505   3.546   1.468   2.559  0.3621 -0.1192 -0.6367
 5183TIP3    H115506   3.638   1.464   2.585 -0.0039  0.9411  0.9143
 5183TIP3    H215507   3.530   1.561   2.542 -1.0146  0.1029  1.4950
 5184TIP3   OH215508   0.201   3.021   3.933  0.2859 -0.1051 -0.5607
 5184TIP3    H115509   0.217   2.933   3.968 -1.2033  0.3488  1.4208
 5184TIP3    H215510   0.138   3.060   3.993  2.4986  3.1579 -0.0962
 5185TIP3   OH215511   3.732   5.480   0.102 -0.2927  0.3133  0.2610
 5185TIP3    H115512   3.748   5.489   0.008 -0.2849 -0.6941  0.1537
 5185TIP3    H215513   3.658   5.419   0.108 -0.4109  0.5119  0.9047
 5186TIP3   OH215514   0.949   5.937   4.941  0.0169 -0.0768  0.0405
 5186TIP3    H115515   1.016   5.983   4.990 -0.6219  2.4908 -1.3191
 5186TIP3    H215516   0.869   5.947   4.993 -0.2177  0.8102 -0.4696
 5187TIP3   OH215517   2.296   4.208   2.734 -0.1648 -0.0985 -0.2364
 5187TIP3    H115518   2.370   4.195   2.674  0.4207 -0.2956  0.5178
 5187TIP3    H215519   2.331   4.266   2.802  0.2459 -2.5718  1.7704
 5188TIP3   OH215520   7.744   5.807   5.999  0.3507 -0.1525  0.3386
 5188TIP3    H115521   7.714   5.888   5.958  0.5401 -0.6352 -0.8020
 5188TIP3    H215522   7.771   5.752   5.925  0.2602 -1.2377  1.0920
 5189TIP3   OH215523   6.356   4.602   5.994  0.1585 -0.0731  0.3523
 5189TIP3    H115524   6.382   4.521   6.038 -3.4738 -1.7170 -0.1688
 5189TIP3    H215525   6.341   4.664   6.065  3.6518  0.5421  0.7308
 5190TIP3   OH215526   2.160   2.450   1.229  0.0913  0.2713 -0.1934
 5190TIP3    H115527   2.172   2.355   1.236 -1.7282 -0.1025 -1.3016
 5190TIP3    H215528   2.171   2.482   1.318  0.3660 -1.0254  0.2717
 5191TIP3   OH215529   6.080   0.560   4.375 -0.2059 -0.1448  0.3465
 5191TIP3    H115530   6.158   0.563   4.319 -0.3096 -0.5895  0.1689
 5191TIP3    H215531   6.027   0.634   4.347 -0.3051 -0.4221 -0.2253
 5192TIP3   OH215532   1.144   0.460   4.801  0.1232  0.0380  0.4548
 5192TIP3    H115533   1.070   0.473   4.860  0.6355  1.9085  0.7388
 5192TIP3    H215534   1.192   0.542   4.804  1.3978 -0.6128 -0.8774
 5193TIP3   OH215535   5.471   5.408   3.036 -0.3049  0.0426 -0.2020
 5193TIP3    H115536   5.385   5.379   3.066  0.4844 -2.6820 -0.2402
 5193TIP3    H215537   5.528   5.395   3.112  0.3712  0.2078 -0.6738
 5194TIP3   OH215538   1.713   6.439   6.144  0.3934  0.3687 -0.2036
 5194TIP3    H115539   1.805   6.463   6.133  0.5305  0.3172  0.7441
 5194TIP3    H215540   1.693   6.460   6.236 -0.8398  1.3872 -0.6721
 5195TIP3   OH215541   8.009   6.951   0.265 -0.3095 -0.3222 -0.2427
 5195TIP3    H115542   8.100   6.955   0.234  0.0176 -0.9647  0.6052
 5195TIP3    H215543   8.015   6.913   0.353 -1.3244  0.4244  0.1706
 5196TIP3   OH215544   5.642   1.447   0.868  0.2120 -0.4367  0.3503
 5196TIP3    H115545   5.628   1.517   0.932  1.0030 -0.5069  0.6142
 5196TIP3    H215546   5.561   1.444   0.818  0.0404  0.4511  0.5495
 5197TIP3   OH215547   6.729   6.357   0.698 -0.4379  0.3969 -0.9126
 5197TIP3    H115548   6.699   6.407   0.623  3.2677  0.8805 -2.2955
 5197TIP3    H215549   6.772   6.422   0.754 -0.8085 -0.3778  0.3027
 5198TIP3   OH215550   1.677   0.562   5.103  0.4312 -1.2127 -0.9546
 5198TIP3    H115551   1.635   0.569   5.189  1.8023  0.0237 -0.3369
 5198TIP3    H215552   1.656   0.474   5.073  0.5375 -1.9471  0.9975
 5199TIP3   OH215553   4.990   3.560   4.681  0.1420 -0.0710 -0.2737
 5199TIP3    H115554   4.989   3.469   4.653  0.7327 -0.2842  0.3760
 5199TIP3    H215555   5.019   3.609   4.604  2.0832 -0.6748  0.0192
 5200TIP3   OH215556   4.496   7.040   2.034 -0.3677 -0.3490  0.0512
 5200TIP3    H115557   4.473   6.951   2.059 -0.9389 -0.4014 -0.6458
 5200TIP3    H215558   4.450   7.055   1.951  1.9466 -0.3885 -1.3117
 5201TIP3   OH215559   0.131   0.771   3.751 -0.0373  0.1675 -0.5277
 5201TIP3    H115560   0.061   0.723   3.795  0.5897  0.5293  0.8905
 5201TIP3    H215561   0.095   0.859   3.738 -1.1827 -0.5579 -3.1178
 5202TIP3   OH215562   6.781   1.408   3.958 -0.3712  0.3394 -0.0658
 5202TIP3    H115563   6.726   1.416   4.036  0.5585  2.7313  0.4318
 5202TIP3    H215564   6.719   1.408   3.885 -1.1237  1.0835  0.5519
 5203TIP3   OH215565   4.352   5.811   5.247 -0.0853  0.1572  0.3661
 5203TIP3    H115566   4.322   5.724   5.218  0.2195  0.2363 -0.2096
 5203TIP3    H215567   4.367   5.801   5.341  0.0907 -0.4648  0.2799
 5204TIP3   OH215568   6.275   2.640   4.580  0.0199  0.2022 -0.1282
 5204TIP3    H115569   6.194   2.681   4.610 -0.4865 -0.1496 -0.9810
 5204TIP3    H215570   6.246   2.572   4.520  0.8924 -0.7483  0.4995
 5205TIP3   OH215571   6.776   7.228   3.496  0.3553  0.6260  0.6157
 5205TIP3    H115572   6.731   7.269   3.422 -3.0245 -1.3994  1.3273
 5205TIP3    H215573   6.712   7.231   3.567  1.8992 -1.2609  2.1826
 5206TIP3   OH215574   3.192   0.496   5.275 -0.0904  0.7742 -0.4991
 5206TIP3    H115575   3.197   0.471   5.368 -0.1070 -0.0774 -0.7225
 5206TIP3    H215576   3.132   0.571   5.274 -1.5414 -0.3324 -0.0398
 5207TIP3   OH215577   2.718   2.658   2.261 -0.3552  0.5157 -0.3266
 5207TIP3    H115578   2.804   2.620   2.277 -0.0347  1.9010  1.4965
 5207TIP3    H215579   2.723   2.692   2.171  0.4842 -0.6782 -0.7503
 5208TIP3   OH215580   2.431   6.971   1.434  0.3261 -0.0670 -0.4365
 5208TIP3    H115581   2.476   6.926   1.505  0.3598  1.3886  0.5197
 5208TIP3    H215582   2.497   7.029   1.396 -0.3845  1.2374  0.2259
 5209TIP3   OH215583   2.883   0.272   6.701 -0.1762  0.1162  0.5163
 5209TIP3    H115584   2.791   0.297   6.691 -0.0520  0.8649  1.1858
 5209TIP3    H215585   2.929   0.355   6.713  0.9186 -0.0145 -2.1310
 5210TIP3   OH215586   0.916   7.051   0.624 -0.1940 -0.3317 -0.4850
 5210TIP3    H115587   0.997   7.039   0.673 -0.2447 -0.0649 -0.3314
 5210TIP3    H215588   0.876   7.129   0.663 -0.4316 -0.3523 -0.6842
 5211TIP3   OH215589   5.484   6.379   2.593 -0.4842  0.2996 -0.0673
 5211TIP3    H115590   5.491   6.284   2.594  1.0203  0.3880  1.4023
 5211TIP3    H215591   5.469   6.401   2.500  1.1488 -1.2507 -0.7468
 5212TIP3   OH215592   2.492   3.325   2.650 -0.0414 -0.1899  0.5559
 5212TIP3    H115593   2.404   3.362   2.647  0.0902  0.1829  1.1519
 5212TIP3    H215594   2.496   3.267   2.574 -0.5270  0.3996  0.0643
 5213TIP3   OH215595  -0.022   1.248   1.359  0.0475  0.0638  0.2606
 5213TIP3    H115596   0.065   1.220   1.330 -1.2042 -2.3765 -1.5267
 5213TIP3    H215597  -0.041   1.326   1.308  0.3123 -0.7402 -1.1167
 5214TIP3   OH215598   6.844   5.604   1.443 -0.0780 -0.0696 -0.5168
 5214TIP3    H115599   6.884   5.553   1.513 -0.3732  0.2557 -0.1041
 5214TIP3    H215600   6.750   5.596   1.460 -0.1163  1.3666  0.1099
 5215TIP3   OH215601   6.892   1.805   2.098  0.3085 -0.0466 -0.2676
 5215TIP3    H115602   6.904   1.869   2.167 -0.0908  0.8541 -1.0152
 5215TIP3    H215603   6.955   1.831   2.030 -0.9270  0.5113 -1.2373
 5216TIP3   OH215604   7.904   3.878   4.931  0.7711 -0.3677  0.8494
 5216TIP3    H115605   7.919   3.811   4.864  2.2462  0.2526  0.5384
 5216TIP3    H215606   7.930   3.960   4.890  0.1687  0.2411  1.6558
 5217TIP3   OH215607   2.831   1.203   0.867  0.5253  0.1366  0.1034
 5217TIP3    H115608   2.826   1.161   0.953  0.3327 -1.8005 -0.8076
 5217TIP3    H215609   2.796   1.138   0.806  1.1337  1.2589 -1.5229
 5218TIP3   OH215610   1.171   7.232   2.170  0.0787 -0.2280  0.3478
 5218TIP3    H115611   1.173   7.272   2.083 -0.6802  0.0999  0.4683
 5218TIP3    H215612   1.080   7.203   2.181 -0.0687  0.5152  1.3647
 5219TIP3   OH215613   6.463   4.058   3.754 -0.4909 -0.0646  0.2052
 5219TIP3    H115614   6.454   3.984   3.813 -0.5354  0.6967  1.1840
 5219TIP3    H215615   6.550   4.049   3.716 -0.1538 -0.1392  0.9948
 5220TIP3   OH215616   7.991   5.663   0.930 -0.4532 -0.4885 -0.4276
 5220TIP3    H115617   7.913   5.714   0.912  0.5276  2.1079  1.8619
 5220TIP3    H215618   8.050   5.682   0.858 -0.5203  0.8057 -0.1662
 5221TIP3   OH215619   0.357   3.412   4.479  0.1747 -0.0272 -0.4832
 5221TIP3    H115620   0.272   3.368   4.476  0.6297 -0.8863 -2.1007
 5221TIP3    H215621   0.347   3.489   4.423  0.5429 -0.3273 -0.9763
 5222TIP3   OH215622   4.930   3.485   4.082 -0.2338  0.1067  0.2182
 5222TIP3    H115623   4.907   3.426   4.010  0.5265 -0.3310  0.3223
 5222TIP3    H215624   4.990   3.548   4.043  1.0429 -0.7781  0.6927
 5223TIP3   OH215625   3.960   2.327   0.083 -0.2824  0.0529  0.0407
 5223TIP3    H115626   3.953   2.314   0.177  0.9920  0.9123  0.2824
 5223TIP3    H215627   4.053   2.316   0.064 -0.4407  0.4212 -1.0283
 5224TIP3   OH215628   3.264   7.125   6.598 -0.3794 -0.4158  0.2425
 5224TIP3    H115629   3.256   7.043   6.647  0.4535 -0.9836 -0.5291
 5224TIP3    H215630   3.181   7.171   6.613 -0.0093 -0.3834  2.4678
 5225TIP3   OH215631   6.711   2.541   1.582 -0.0305  0.1072  0.1765
 5225TIP3    H115632   6.656   2.481   1.631 -0.0686 -0.5162 -0.6092
 5225TIP3    H215633   6.693   2.627   1.620  0.2845 -0.4145  1.5355
 5226TIP3   OH215634   2.780   5.241   1.947 -0.4103  0.6058  0.1149
 5226TIP3    H115635   2.819   5.199   2.023 -0.0699  1.5627  0.4777
 5226TIP3    H215636   2.787   5.175   1.877 -0.4339 -0.1558  0.8165
 5227TIP3   OH215637   5.085   2.340   3.783  0.0135  0.0147 -0.4704
 5227TIP3    H115638   5.165   2.382   3.816  0.4904  0.4611 -2.0790
 5227TIP3    H215639   5.072   2.265   3.841  0.3127  1.1904  1.2101
 5228TIP3   OH215640   5.449   4.498   1.856 -0.2162 -0.9718 -0.4023
 5228TIP3    H115641   5.426   4.585   1.824  0.5096 -0.4557  0.4543
 5228TIP3    H215642   5.526   4.511   1.911 -0.5855 -2.0325  0.4073
 5229TIP3   OH215643   5.542   5.274   5.034 -0.5398  0.1760  0.5962
 5229TIP3    H115644   5.620   5.279   4.978 -0.6244 -2.7427  0.0497
 5229TIP3    H215645   5.577   5.263   5.122 -0.3328  0.2874  0.5280
 5230TIP3   OH215646   2.803   5.636   2.772 -0.0360 -0.3385  0.2142
 5230TIP3    H115647   2.821   5.563   2.713  0.4884  0.2866 -0.4157
 5230TIP3    H215648   2.740   5.690   2.725 -0.3933 -0.3613  0.6620
 5231TIP3   OH215649   1.024   6.654   0.150  0.6238  0.6053  0.3608
 5231TIP3    H115650   1.043   6.690   0.236 -1.6160  1.6079  0.5134
 5231TIP3    H215651   0.932   6.627   0.155  0.3489  0.9330 -1.7778
 5232TIP3   OH215652   8.272   3.776   2.084 -0.5542 -0.4105  0.3697
 5232TIP3    H115653   8.256   3.709   2.018 -0.2564 -1.5413  1.4103
 5232TIP3    H215654   8.282   3.857   2.034 -0.8747 -1.1404 -0.9201
 5233TIP3   OH215655   0.656   7.057   1.651  0.5481 -0.6115 -0.0434
 5233TIP3    H115656   0.655   6.962   1.639 -1.2772 -0.5674 -0.4294
 5233TIP3    H215657   0.662   7.069   1.745 -1.3709 -1.1703  0.1892
 5234TIP3   OH215658   6.183   6.560   0.887 -0.1745 -0.1349  0.0186
 5234TIP3    H115659   6.092   6.532   0.891  0.2989 -1.9275 -0.7048
 5234TIP3    H215660   6.200   6.574   0.794  0.4993 -0.6988  0.0441
 5235TIP3   OH215661   1.330   6.315   0.060  0.2883  0.6972 -0.2218
 5235TIP3    H115662   1.270   6.389   0.065  1.8813  2.0290 -0.3046
 5235TIP3    H215663   1.345   6.289   0.151  1.8117  2.2446  0.0082
 5236TIP3   OH215664   3.832   2.259   0.726 -0.0701  0.4508 -0.2064
 5236TIP3    H115665   3.785   2.176   0.723 -0.4573  0.6463  0.2771
 5236TIP3    H215666   3.907   2.243   0.784  1.0672 -0.1502 -1.7682
 5237TIP3   OH215667   1.812   7.097   5.641 -0.3597  0.0807 -0.6664
 5237TIP3    H115668   1.897   7.057   5.656 -0.5332  0.3059  1.0291
 5237TIP3    H215669   1.832   7.182   5.602  0.1694 -0.0216 -0.6196
 5238TIP3   OH215670   0.239   2.937   6.660  0.0615 -0.1337  0.3077
 5238TIP3    H115671   0.229   2.974   6.572 -1.4720  1.0439  0.9231
 5238TIP3    H215672   0.211   2.846   6.651 -1.2270  0.2854 -0.2158
 5239TIP3   OH215673   5.085   0.862   3.242 -0.1662  0.1978 -0.2092
 5239TIP3    H115674   5.112   0.886   3.153 -1.2571 -1.3530 -1.0165
 5239TIP3    H215675   5.116   0.772   3.253 -1.5930 -0.2699  0.2599
 5240TIP3   OH215676   7.139   3.073   4.682 -0.5705  0.2175  0.0183
 5240TIP3    H115677   7.136   2.977   4.688  2.1237  0.0729  0.5255
 5240TIP3    H215678   7.087   3.103   4.757  0.7257 -0.9499  1.4621
 5241TIP3   OH215679   3.842   1.292   6.384 -0.4028  0.2040 -0.1299
 5241TIP3    H115680   3.891   1.249   6.314 -1.0267  0.3637 -0.6826
 5241TIP3    H215681   3.883   1.262   6.465  1.3586  1.2449 -0.5821
 5242TIP3   OH215682   0.982   1.319   4.093  0.2726  0.0748 -0.3032
 5242TIP3    H115683   0.969   1.376   4.017  0.5028 -1.8996 -1.9140
 5242TIP3    H215684   0.937   1.238   4.070  1.4927 -1.0564  1.1040
 5243TIP3   OH215685   3.166   5.939   4.819  0.0046 -0.2448 -0.4041
 5243TIP3    H115686   3.173   5.908   4.909  0.5160  1.5901  0.2276
 5243TIP3    H215687   3.212   5.873   4.767 -0.4681 -1.4283  0.6229
 5244TIP3   OH215688   6.793   5.935   2.915  0.9062  0.2338  0.0977
 5244TIP3    H115689   6.755   5.966   2.997  0.4079 -2.8318  1.1616
 5244TIP3    H215690   6.840   6.011   2.880 -1.3479  2.5297  1.6489
 5245TIP3   OH215691   7.850   3.661   4.405 -0.1360 -0.4493 -0.2832
 5245TIP3    H115692   7.861   3.754   4.426 -0.5024 -0.6050  0.6640
 5245TIP3    H215693   7.934   3.635   4.368 -0.2442  0.4130 -1.1721
 5246TIP3   OH215694   4.676   0.976   5.091  0.4449  0.0433  0.0327
 5246TIP3    H115695   4.748   0.935   5.043  0.5795 -1.9496  1.7738
 5246TIP3    H215696   4.701   0.970   5.183 -1.4667  0.2337  0.6183
 5247TIP3   OH215697   5.874   0.747   0.825 -0.2134  0.8853  0.1793
 5247TIP3    H115698   5.839   0.831   0.855 -0.6312  0.3720  1.1459
 5247TIP3    H215699   5.942   0.725   0.888 -0.8744 -0.0494  0.5814
 5248TIP3   OH215700   3.604   7.320   4.906  0.2285  0.2659  0.2554
 5248TIP3    H115701   3.634   7.240   4.863 -1.1208 -0.4228  0.5545
 5248TIP3    H215702   3.650   7.321   4.990  2.9446  1.6607 -1.1172
 5249TIP3   OH215703   8.095   7.322   6.705  0.3445 -0.2480  1.2141
 5249TIP3    H115704   8.189   7.338   6.719  0.3927  0.4652  0.1913
 5249TIP3    H215705   8.057   7.410   6.697 -0.0090 -0.5330 -0.7724
 5250TIP3   OH215706   3.231   4.275   5.598 -0.0337 -0.2322  0.2196
 5250TIP3    H115707   3.227   4.328   5.678  0.2775 -0.8912  0.6767
 5250TIP3    H215708   3.252   4.338   5.529  1.0305  0.1451  0.8629
 5251TIP3   OH215709   3.066   7.725   3.743 -0.1559 -0.4241  0.2257
 5251TIP3    H115710   3.020   7.786   3.685  1.3882 -0.0599 -0.7044
 5251TIP3    H215711   3.065   7.768   3.828 -2.0470 -0.7318  0.3871
 5252TIP3   OH215712   3.391   6.194   0.835 -0.0166  0.5399  0.2395
 5252TIP3    H115713   3.447   6.252   0.784  0.5478 -0.5761 -0.4466
 5252TIP3    H215714   3.407   6.107   0.798 -2.2802  0.1911 -0.0606
 5253TIP3   OH215715   1.441   1.970   1.426 -0.3739  0.3328 -0.2751
 5253TIP3    H115716   1.529   1.932   1.424 -1.0342 -1.3253  0.2136
 5253TIP3    H215717   1.393   1.914   1.487 -1.6554  1.4849 -0.1927
 5254TIP3   OH215718   4.880   0.144   4.023  0.0418  0.0686  0.4273
 5254TIP3    H115719   4.839   0.197   4.092 -0.9164 -2.0345  1.5723
 5254TIP3    H215720   4.958   0.108   4.064  0.1099 -0.2599  0.0079
 5255TIP3   OH215721   2.608   3.057   5.718  0.6676 -0.0473  0.8942
 5255TIP3    H115722   2.587   3.133   5.664  1.8828 -0.0619  0.3819
 5255TIP3    H215723   2.675   3.009   5.669 -1.4779 -2.6058  0.1874
 5256TIP3   OH215724   3.955   7.134   6.424 -0.6534 -0.7370 -0.1546
 5256TIP3    H115725   3.922   7.171   6.343  0.0724 -1.3827 -0.7580
 5256TIP3    H215726   3.878   7.097   6.467 -0.8010 -1.7845 -1.2971
 5257TIP3   OH215727   0.510   4.005   3.638 -0.0394  0.0286  0.3953
 5257TIP3    H115728   0.464   4.063   3.698 -0.8719  0.3389 -0.5166
 5257TIP3    H215729   0.453   3.999   3.561 -0.4443 -2.7289  0.7992
 5258TIP3   OH215730   3.609   4.369   3.555 -0.1647  0.5229 -0.2753
 5258TIP3    H115731   3.688   4.368   3.609  0.7928  0.3285 -1.6414
 5258TIP3    H215732   3.602   4.279   3.522 -0.5241  0.7297 -0.7733
 5259TIP3   OH215733   6.479   0.530   0.982  0.0667 -0.0420  0.2586
 5259TIP3    H115734   6.457   0.451   1.031  0.6165 -0.6158 -0.3989
 5259TIP3    H215735   6.540   0.500   0.914 -1.6555  0.4851 -1.6166
 5260TIP3   OH215736   5.913   7.369   5.467 -0.0150 -0.1840 -0.5271
 5260TIP3    H115737   5.975   7.296   5.466 -1.0100 -1.0926  0.5677
 5260TIP3    H215738   5.958   7.439   5.515  0.3076 -0.7112 -0.0468
 5261TIP3   OH215739   4.509   5.541   0.168 -0.0208 -0.0680  0.8137
 5261TIP3    H115740   4.506   5.633   0.195  0.6894 -0.4153  2.1815
 5261TIP3    H215741   4.455   5.538   0.089 -0.3484  1.4521  0.9320
 5262TIP3   OH215742   3.058   0.064   5.917  0.3033  0.2183 -0.6910
 5262TIP3    H115743   3.097   0.028   5.838 -0.0626 -0.2244 -0.6731
 5262TIP3    H215744   3.121   0.045   5.986  0.4225  0.2222 -0.7980
 5263TIP3   OH215745   0.630   1.992   4.623 -0.0080 -0.3220 -0.7333
 5263TIP3    H115746   0.584   2.034   4.551 -0.7890 -0.3369 -0.2580
 5263TIP3    H215747   0.639   2.061   4.689 -1.8706 -1.0216  0.3150
 5264TIP3   OH215748   6.247   2.112   4.883 -0.7775  0.1713 -0.0471
 5264TIP3    H115749   6.280   2.200   4.863 -4.5302  1.5604 -0.8779
 5264TIP3    H215750   6.225   2.076   4.797  1.2360 -1.9156  0.2348
 5265TIP3   OH215751   1.794   0.103   5.782 -0.0211 -0.0263 -0.0307
 5265TIP3    H115752   1.706   0.131   5.756  0.2215  0.3399 -0.4826
 5265TIP3    H215753   1.809   0.148   5.865 -1.6629 -2.8995  2.0258
 5266TIP3   OH215754   7.618   5.096   2.565 -0.3920  0.0676 -0.2439
 5266TIP3    H115755   7.578   5.140   2.640 -1.2027  1.4848 -1.4583
 5266TIP3    H215756   7.553   5.032   2.537 -1.6981  1.9658 -1.8519
 5267TIP3   OH215757   4.412   4.341   0.558  0.3636  0.2160  0.2160
 5267TIP3    H115758   4.496   4.305   0.527 -0.0748 -1.1575  0.5379
 5267TIP3    H215759   4.346   4.281   0.523 -0.4594  1.0334  0.3332
 5268TIP3   OH215760   2.376   4.567   6.757  0.1784  0.1785 -0.2230
 5268TIP3    H115761   2.393   4.482   6.715  0.8050 -0.3524  1.0592
 5268TIP3    H215762   2.451   4.621   6.732 -0.0690  0.2722 -0.7900
 5269TIP3   OH215763   5.380   2.588   2.343 -0.1240 -0.0680  0.2803
 5269TIP3    H115764   5.349   2.527   2.410 -0.3803 -1.2079 -0.8538
 5269TIP3    H215765   5.472   2.604   2.365 -0.4025  0.1656  1.3285
 5270TIP3   OH215766   8.004   0.888   5.077  0.3474  0.9497 -0.5471
 5270TIP3    H115767   7.987   0.930   5.161 -0.0353  0.6189 -0.4530
 5270TIP3    H215768   7.925   0.903   5.026  0.7283  1.4793 -0.9912
 5271TIP3   OH215769   2.758   1.416   0.116  0.1561 -0.1461  0.2034
 5271TIP3    H115770   2.845   1.440   0.084  0.1424  0.7730  0.8238
 5271TIP3    H215771   2.741   1.331   0.076  0.5652  0.4877 -1.3877
 5272TIP3   OH215772   2.537   6.838   1.647 -1.1236 -0.3210 -0.3470
 5272TIP3    H115773   2.467   6.838   1.711 -0.1828 -2.8579  0.8118
 5272TIP3    H215774   2.560   6.746   1.635  1.4464  0.3331 -1.2830
 5273TIP3   OH215775   4.527   5.083   2.092 -0.4900  0.1612 -0.3551
 5273TIP3    H115776   4.503   5.073   2.000  0.5275 -1.7260 -0.4655
 5273TIP3    H215777   4.483   5.163   2.120 -0.9034  0.7167 -2.4462
 5274TIP3   OH215778   0.198   2.054   4.217 -0.2648 -0.2871  0.0195
 5274TIP3    H115779   0.207   2.147   4.240  1.0667 -0.6680  1.2152
 5274TIP3    H215780   0.153   2.015   4.292 -0.5194 -0.6788 -0.3303
 5275TIP3   OH215781   1.679   5.625   6.707  0.0351  0.0757 -0.0319
 5275TIP3    H115782   1.775   5.616   6.711  0.1326  0.3591 -1.2677
 5275TIP3    H215783   1.651   5.553   6.651 -0.2759  1.0287 -1.1429
 5276TIP3   OH215784   3.623   0.378   3.014  0.3376 -0.1959  0.0231
 5276TIP3    H115785   3.668   0.293   3.018  0.1329 -0.4414 -1.9194
 5276TIP3    H215786   3.560   0.369   2.942  0.1441  1.5263 -0.0740
 5277TIP3   OH215787   2.850   4.322   6.236  0.4711  0.7227 -0.5098
 5277TIP3    H115788   2.829   4.391   6.299  0.6461  1.4335 -1.2176
 5277TIP3    H215789   2.764   4.289   6.208  0.3116  1.9595 -1.5740
 5278TIP3   OH215790   7.569   4.516   2.412 -0.3474  0.2548 -0.1117
 5278TIP3    H115791   7.514   4.562   2.348  0.0930  2.0370  0.7130
 5278TIP3    H215792   7.509   4.453   2.454 -0.9427 -0.0566 -1.3866
 5279TIP3   OH215793   6.212   4.752   0.264 -0.3857  0.5072  0.2982
 5279TIP3    H115794   6.279   4.802   0.216  0.1568 -0.3861  0.1094
 5279TIP3    H215795   6.149   4.726   0.196 -0.5914  0.7966  0.3740
 5280TIP3   OH215796   1.867   4.233   5.964  0.2635 -0.3591 -0.1366
 5280TIP3    H115797   1.902   4.314   5.928  1.8897 -1.3780 -0.9453
 5280TIP3    H215798   1.877   4.169   5.893 -1.2599 -1.2133  0.3759
 5281TIP3   OH215799   6.420   4.590   0.421 -0.1302 -0.1380 -0.3628
 5281TIP3    H115800   6.370   4.604   0.340  0.0046 -0.1253 -0.4449
 5281TIP3    H215801   6.364   4.625   0.490 -0.3229 -0.3087 -0.4309
 5282TIP3   OH215802   3.086   7.446   6.440  0.7140  0.0858 -0.2728
 5282TIP3    H115803   3.055   7.508   6.373 -0.2412  0.5953  0.6026
 5282TIP3    H215804   3.164   7.487   6.477 -0.0919  0.9500  0.5183
 5283TIP3   OH215805   0.339   2.887   6.092  0.7997  0.0416  0.0596
 5283TIP3    H115806   0.352   2.961   6.033 -1.4532  2.1385  1.9685
 5283TIP3    H215807   0.417   2.889   6.149  0.4974  1.3732  0.4628
 5284TIP3   OH215808   5.887   5.965   4.111  0.3898 -0.0414 -0.2494
 5284TIP3    H115809   5.929   5.892   4.157 -0.2600 -0.3411 -0.1099
 5284TIP3    H215810   5.905   5.949   4.019  1.3312  0.3246 -0.1351
 5285TIP3   OH215811   2.063   7.365   2.877 -0.2878  0.1161  0.0060
 5285TIP3    H115812   2.042   7.372   2.970 -0.6737 -0.1128 -0.0625
 5285TIP3    H215813   2.151   7.327   2.875 -0.7661 -1.0754  0.2706
 5286TIP3   OH215814   3.090   2.186   3.777 -0.2569 -0.1480 -0.0213
 5286TIP3    H115815   2.998   2.204   3.798  0.0587  0.4917  0.9052
 5286TIP3    H215816   3.139   2.239   3.841  0.7462 -0.8281 -0.2174
 5287TIP3   OH215817   0.813   7.412   5.200 -0.3332 -0.3724  0.4154
 5287TIP3    H115818   0.840   7.440   5.287 -2.7176  1.5440  0.6289
 5287TIP3    H215819   0.887   7.359   5.168  1.6540  0.9040  2.5896
 5288TIP3   OH215820   8.221   7.038   4.609 -0.9024  0.3482 -0.1472
 5288TIP3    H115821   8.265   6.979   4.670  0.7851  1.5696 -0.0916
 5288TIP3    H215822   8.223   6.992   4.525 -1.1639 -0.3848  0.2456
 5289TIP3   OH215823   3.845   6.058   4.143  0.3388 -0.1175 -0.2670
 5289TIP3    H115824   3.757   6.021   4.144 -0.2379  1.1839  0.3967
 5289TIP3    H215825   3.878   6.045   4.232  1.6107 -2.2819 -0.9776
 5290TIP3   OH215826   0.214   5.444   1.202  0.2956  0.3725  0.3422
 5290TIP3    H115827   0.300   5.416   1.170  0.6101 -0.1730  1.6318
 5290TIP3    H215828   0.191   5.380   1.269 -1.4241  0.1377 -0.4130
 5291TIP3   OH215829   6.880   2.971   3.508 -0.1504 -0.6868 -0.3679
 5291TIP3    H115830   6.886   2.910   3.581  2.1107  1.3054  1.2729
 5291TIP3    H215831   6.957   2.951   3.454 -0.2840 -0.3283 -0.6963
 5292TIP3   OH215832   0.709   1.958   4.231 -0.1307 -0.4250 -0.9416
 5292TIP3    H115833   0.724   2.014   4.155  0.5044  0.4206 -0.2197
 5292TIP3    H215834   0.632   1.905   4.207 -0.6335  0.6188 -1.7324
 5293TIP3   OH215835   7.810   5.427   0.875  0.2549 -0.1523  0.0212
 5293TIP3    H115836   7.825   5.430   0.780 -0.0214  1.5792  0.0056
 5293TIP3    H215837   7.882   5.477   0.913 -0.9727  1.3149  0.5135
 5294TIP3   OH215838   8.213   1.143   0.845 -0.4657  0.5924 -0.2297
 5294TIP3    H115839   8.291   1.097   0.814 -1.0403  0.7560 -2.0271
 5294TIP3    H215840   8.149   1.073   0.862 -0.1032  0.4912  0.8495
 5295TIP3   OH215841   3.402   4.709   4.000  0.6554  0.0167  1.0241
 5295TIP3    H115842   3.448   4.748   4.074  0.5980 -0.8073  1.5002
 5295TIP3    H215843   3.320   4.758   3.995  1.6995  1.7637 -0.0863
 5296TIP3   OH215844   8.239   3.323   1.670  0.5992 -0.0132 -0.1525
 5296TIP3    H115845   8.325   3.366   1.664  0.6496 -0.2054 -0.9417
 5296TIP3    H215846   8.259   3.230   1.660  0.4334 -0.1845  1.0165
 5297TIP3   OH215847   3.927   0.166   4.308 -0.0919  0.0877  0.4570
 5297TIP3    H115848   3.876   0.243   4.334 -1.6371 -0.6923 -0.1788
 5297TIP3    H215849   4.014   0.182   4.345 -0.7698  1.4658  1.5505
 5298TIP3   OH215850   3.287   5.734   4.670 -0.6053  0.0248  0.4666
 5298TIP3    H115851   3.347   5.675   4.624  0.0596  0.9100  0.1814
 5298TIP3    H215852   3.227   5.675   4.716 -0.3804 -0.8764 -0.3537
 5299TIP3   OH215853   0.905   4.151   0.559  0.0943 -0.4170 -0.2444
 5299TIP3    H115854   0.820   4.174   0.596  0.8448  0.8687  0.7951
 5299TIP3    H215855   0.885   4.118   0.472 -1.4225  0.4335 -0.2576
 5300TIP3   OH215856   3.469   1.009   6.177 -0.1801  0.7409  0.3673
 5300TIP3    H115857   3.393   1.063   6.155  0.5948  1.8003  0.2184
 5300TIP3    H215858   3.459   0.930   6.124 -1.0372  0.9785  0.1615
 5301TIP3   OH215859   7.138   1.356   3.490 -0.1616 -0.6483 -0.2931
 5301TIP3    H115860   7.061   1.366   3.547  0.6004  0.4868  0.5932
 5301TIP3    H215861   7.196   1.297   3.539 -0.5569 -1.7231 -1.0845
 5302TIP3   OH215862   2.828   7.060   2.162  0.5079  0.3630 -0.1974
 5302TIP3    H115863   2.876   7.027   2.086  0.6756  1.3376 -0.5372
 5302TIP3    H215864   2.746   7.012   2.161  1.4836 -1.3752  0.4386
 5303TIP3   OH215865   1.692   3.978   5.074  0.2105 -0.3543 -0.2528
 5303TIP3    H115866   1.761   3.963   5.139  0.1336 -0.9173 -0.2945
 5303TIP3    H215867   1.651   3.892   5.063 -1.0597  0.1494  0.3897
 5304TIP3   OH215868   4.884   5.794   5.122 -0.8646 -0.1002  0.2867
 5304TIP3    H115869   4.808   5.805   5.065 -0.3477 -0.6936 -0.5437
 5304TIP3    H215870   4.851   5.743   5.195 -1.6014  0.8933  0.6721
 5305TIP3   OH215871   1.711   7.656   2.532  0.2413  0.2713  0.3893
 5305TIP3    H115872   1.680   7.715   2.601 -1.0011  0.1824 -0.0741
 5305TIP3    H215873   1.656   7.677   2.457  0.9629 -0.2826 -0.3062
 5306TIP3   OH215874   6.662   2.605   0.209 -0.4061 -0.2740  0.1927
 5306TIP3    H115875   6.699   2.562   0.131  0.4039  0.0501  0.3845
 5306TIP3    H215876   6.651   2.534   0.272 -0.6725 -0.4719 -0.0780
 5307TIP3   OH215877   1.763   0.395   3.249 -0.2704  0.1534  0.4300
 5307TIP3    H115878   1.695   0.332   3.273 -1.2871  1.3610  0.8242
 5307TIP3    H215879   1.759   0.398   3.153 -0.6111  0.0400  0.4383
 5308TIP3   OH215880   2.303   4.447   4.692  0.5803  0.2643 -0.1169
 5308TIP3    H115881   2.339   4.384   4.630 -0.6235 -1.2203  0.6122
 5308TIP3    H215882   2.379   4.483   4.738  1.3943  0.5119 -1.6145
 5309TIP3   OH215883   2.359   2.006   4.517  0.2938  0.6009  0.5373
 5309TIP3    H115884   2.345   1.925   4.567  2.9385 -0.2641  0.0084
 5309TIP3    H215885   2.293   2.002   4.448  0.8687 -1.5780  0.0280
 5310TIP3   OH215886   8.027   6.112   5.512  0.2314 -0.8798  1.2267
 5310TIP3    H115887   8.054   6.031   5.555 -2.5565 -1.3530  2.2574
 5310TIP3    H215888   7.996   6.083   5.426  0.7612 -0.6393  0.9454
 5311TIP3   OH215889   1.555   4.744   4.682 -0.2666 -0.2678  0.4247
 5311TIP3    H115890   1.641   4.733   4.723  0.9293 -0.5519 -2.0144
 5311TIP3    H215891   1.569   4.808   4.612 -1.9220 -0.7217 -0.3867
 5312TIP3   OH215892   4.115   6.315   4.347 -0.5660  0.2152  0.4940
 5312TIP3    H115893   4.086   6.251   4.282  2.0050  0.3057 -0.9148
 5312TIP3    H215894   4.061   6.392   4.330 -1.7052 -0.6264  0.2180
 5313TIP3   OH215895   5.349   0.751   3.323  0.3566  0.3356  0.3137
 5313TIP3    H115896   5.350   0.664   3.282  1.3263  1.0275 -1.2154
 5313TIP3    H215897   5.420   0.799   3.280 -0.3332  1.9819  0.9316
 5314TIP3   OH215898   0.280   5.699   6.441 -0.3865 -0.2173  0.1260
 5314TIP3    H115899   0.205   5.682   6.499  0.6819 -1.2697  1.2843
 5314TIP3    H215900   0.343   5.745   6.496 -0.0882  0.4939 -0.7819
 5315TIP3   OH215901   3.019   0.742   6.578  0.6561 -0.8078 -0.0630
 5315TIP3    H115902   2.949   0.721   6.516  0.8133 -1.8118  0.0675
 5315TIP3    H215903   3.095   0.694   6.545  0.9948 -0.5798  0.3759
 5316TIP3   OH215904   4.881   0.031   0.407  0.0805 -0.0600 -0.0380
 5316TIP3    H115905   4.802   0.036   0.460 -0.4034  1.8198 -0.8593
 5316TIP3    H215906   4.862  -0.036   0.341 -0.8692  0.4222 -0.2729
 5317TIP3   OH215907   5.118   2.926   4.452  0.0321 -0.4740  0.4085
 5317TIP3    H115908   5.078   2.840   4.467 -0.1150 -0.5091 -0.1515
 5317TIP3    H215909   5.205   2.906   4.418 -1.0051 -0.4862 -2.5780
 5318TIP3   OH215910   1.537   0.959   4.734  0.6267 -0.0499  0.2431
 5318TIP3    H115911   1.522   0.914   4.817 -0.3953  0.6558  0.4649
 5318TIP3    H215912   1.511   1.050   4.751  0.6626  0.1658 -0.7737
 5319TIP3   OH215913   6.171   6.270   5.218 -0.3834  0.2002 -0.4829
 5319TIP3    H115914   6.150   6.319   5.138  0.6891  0.9224 -0.3388
 5319TIP3    H215915   6.207   6.187   5.186 -2.1304 -0.5000 -0.7272
 5320TIP3   OH215916   7.513   3.818   1.274 -0.6771 -0.1175  0.4694
 5320TIP3    H115917   7.444   3.822   1.208 -2.6658 -0.6414  2.4268
 5320TIP3    H215918   7.550   3.730   1.265 -0.3776  0.0894 -0.4441
 5321TIP3   OH215919   1.836   2.311   6.056  0.3677 -0.2282 -0.1331
 5321TIP3    H115920   1.908   2.333   5.997  0.8718 -1.2316  0.0897
 5321TIP3    H215921   1.865   2.232   6.101 -1.0144 -0.8341 -0.2708
 5322TIP3   OH215922   1.369   2.571   5.722 -0.9923  0.6180 -0.4938
 5322TIP3    H115923   1.336   2.489   5.758 -0.9833  0.2629 -1.2732
 5322TIP3    H215924   1.296   2.632   5.732 -0.9160  0.5835  0.3091
 5323TIP3   OH215925   0.640   3.855   4.940 -0.4565  0.0569  0.4191
 5323TIP3    H115926   0.689   3.779   4.910  0.0376 -0.2061  1.8161
 5323TIP3    H215927   0.644   3.917   4.866  1.8085 -0.0473  0.3823
 5324TIP3   OH215928   5.850   2.449   5.501 -0.3435  0.0040 -0.1808
 5324TIP3    H115929   5.820   2.538   5.481 -1.2350 -0.4132 -0.7620
 5324TIP3    H215930   5.804   2.425   5.581 -3.3204 -1.3854 -2.1135
 5325TIP3   OH215931   5.166   1.951   4.945 -0.1949  0.0999  0.1614
 5325TIP3    H115932   5.097   1.994   4.894 -0.3001  1.0172  1.0477
 5325TIP3    H215933   5.216   1.902   4.880 -0.3314  1.2390 -0.8444
 5326TIP3   OH215934   3.260   3.518   0.357 -0.7114 -0.1817  0.1604
 5326TIP3    H115935   3.190   3.542   0.296 -0.3339 -0.4681 -0.3922
 5326TIP3    H215936   3.317   3.461   0.306 -0.2433 -0.2041  0.7066
 5327TIP3   OH215937   3.337   6.769   2.459  0.0024 -0.3185  0.0168
 5327TIP3    H115938   3.302   6.715   2.530 -0.5113  0.6904  0.5360
 5327TIP3    H215939   3.260   6.802   2.414  0.3203 -1.2172 -1.2423
 5328TIP3   OH215940   1.201   1.794   0.831 -0.3413 -0.2659 -0.2325
 5328TIP3    H115941   1.252   1.876   0.836 -1.1389  0.1845  0.7918
 5328TIP3    H215942   1.113   1.823   0.806 -0.0622 -1.0694 -2.3052
 5329TIP3   OH215943   4.361   3.148   6.138 -0.6019 -0.1865  0.2273
 5329TIP3    H115944   4.418   3.154   6.214 -1.8148  1.9949  1.0607
 5329TIP3    H215945   4.273   3.140   6.175 -1.2646  1.4429 -0.9014
 5330TIP3   OH215946   1.638   1.683   3.296  0.7623 -0.2450 -0.1815
 5330TIP3    H115947   1.726   1.671   3.260  1.0016  0.6618  0.0540
 5330TIP3    H215948   1.649   1.670   3.390  0.5359 -0.6833 -0.2189
 5331TIP3   OH215949   1.811   7.588   1.880  0.4809 -0.7171 -0.2253
 5331TIP3    H115950   1.730   7.577   1.830 -0.9095 -1.1489  1.9895
 5331TIP3    H215951   1.842   7.499   1.897  0.3357 -0.6372  0.5310
 5332TIP3   OH215952   7.516   3.546   1.278  0.2675  0.0715  0.0084
 5332TIP3    H115953   7.551   3.475   1.333  1.1119 -0.0788 -0.7128
 5332TIP3    H215954   7.440   3.507   1.236 -0.5139  0.2458  1.1977
 5333TIP3   OH215955   3.695   7.241   2.189  0.4026 -0.2511  0.6536
 5333TIP3    H115956   3.626   7.305   2.170  0.2610 -0.5962 -0.0077
 5333TIP3    H215957   3.777   7.286   2.167  0.2592 -0.5391 -0.5182
 5334TIP3   OH215958   7.964   7.194   3.056  0.1992 -0.1080  0.1427
 5334TIP3    H115959   8.017   7.115   3.068  0.1569 -0.0687  0.6217
 5334TIP3    H215960   7.992   7.252   3.127  0.1717  0.2775 -0.1572
 5335TIP3   OH215961   2.005   0.140   6.244  0.3369 -0.1109 -0.1781
 5335TIP3    H115962   1.913   0.113   6.250 -0.0685  0.8067 -1.8104
 5335TIP3    H215963   2.011   0.218   6.299  0.7030 -1.4050  1.7250
 5336TIP3   OH215964   1.078   6.092   6.405 -0.4530  1.1122  0.3241
 5336TIP3    H115965   1.046   6.007   6.433  2.3487 -0.3056 -0.4417
 5336TIP3    H215966   1.019   6.155   6.448 -0.8318 -1.0866  3.3548
 5337TIP3   OH215967   3.871   4.337   1.443 -0.2119  0.2846 -0.2172
 5337TIP3    H115968   3.902   4.290   1.520  0.7192 -0.0852 -0.7978
 5337TIP3    H215969   3.883   4.275   1.371  0.2525  1.1069 -0.8643
 5338TIP3   OH215970   4.136   3.004   4.772  0.4262 -0.0105  0.4963
 5338TIP3    H115971   4.167   2.943   4.838 -2.5253 -0.3211  1.7557
 5338TIP3    H215972   4.130   3.088   4.817  1.5628  0.5584 -0.3673
 5339TIP3   OH215973   6.086   1.296   3.231 -0.3293 -0.5488  0.0721
 5339TIP3    H115974   6.177   1.314   3.208 -0.6470 -1.2931 -1.9828
 5339TIP3    H215975   6.035   1.353   3.173 -1.1819 -0.8998  0.4623
 5340TIP3   OH215976   3.020   2.711   2.160 -0.0054  0.3416 -0.3878
 5340TIP3    H115977   3.078   2.785   2.141  0.1103  1.0204  2.2088
 5340TIP3    H215978   3.071   2.654   2.217 -1.6447  0.7166  1.5794
 5341TIP3   OH215979   2.757   1.630   2.763 -0.6848  0.2742  0.1159
 5341TIP3    H115980   2.798   1.618   2.848  0.0029 -0.7990 -0.3571
 5341TIP3    H215981   2.787   1.556   2.710 -2.0550  0.2723 -0.6993
 5342TIP3   OH215982   5.130   6.846   6.213 -0.3281 -0.1868  0.5560
 5342TIP3    H115983   5.194   6.804   6.155 -1.9615 -3.3372  0.8468
 5342TIP3    H215984   5.075   6.899   6.155  1.7112  1.6512  0.1639
 5343TIP3   OH215985   2.288   2.498   2.996  0.0060  0.5241 -0.1900
 5343TIP3    H115986   2.215   2.550   2.962  0.6167  2.0866  0.7935
 5343TIP3    H215987   2.269   2.487   3.089  0.8723  0.6921  0.0168
 5344TIP3   OH215988   3.121   7.590   2.392  0.0301 -0.1190 -0.3933
 5344TIP3    H115989   3.027   7.597   2.378 -0.0789 -0.1296  0.3225
 5344TIP3    H215990   3.134   7.504   2.431  0.2252  0.2462  0.3716
 5345TIP3   OH215991   2.859   0.943   1.523  0.3563 -0.2795 -0.3831
 5345TIP3    H115992   2.935   0.985   1.563  0.9371  0.0576 -1.7859
 5345TIP3    H215993   2.784   0.977   1.573  1.0348  0.2131  0.3248
 5346TIP3   OH215994   5.739   4.075   5.476 -0.7438 -0.0832  0.2173
 5346TIP3    H115995   5.683   3.997   5.472 -1.7574  0.5554  1.2928
 5346TIP3    H215996   5.691   4.136   5.532  2.1740 -0.4699  3.4577
 5347TIP3   OH215997   0.297   5.922   5.720 -0.5263  0.4873 -0.2762
 5347TIP3    H115998   0.300   5.913   5.815 -0.8406  0.9992 -0.2103
 5347TIP3    H215999   0.387   5.907   5.691 -0.3669  0.6445  0.1323
 5348TIP3   OH216000   4.853   3.381   0.766  0.6953 -0.3704 -1.1046
 5348TIP3    H116001   4.851   3.450   0.699  0.1334  1.5587  0.8081
 5348TIP3    H216002   4.890   3.424   0.843 -1.8063 -1.5197  0.8609
 5349TIP3   OH216003   8.019   2.034   5.071 -0.2786  0.1540 -0.8600
 5349TIP3    H116004   8.006   1.966   5.005  0.3133 -0.5778 -0.2456
 5349TIP3    H216005   8.033   2.114   5.020  0.7855 -0.5048 -1.6634
 5350TIP3   OH216006   6.287   6.801   3.161  0.3066  0.0158 -0.0771
 5350TIP3    H116007   6.254   6.855   3.233  2.4472  0.7348  0.4480
 5350TIP3    H216008   6.215   6.798   3.098 -0.7059  1.5287  0.9472
 5351TIP3   OH216009   5.400   3.264   5.708 -0.3392 -0.2887  0.4156
 5351TIP3    H116010   5.357   3.347   5.685  1.2724  0.5719  0.3629
 5351TIP3    H216011   5.484   3.290   5.745  0.8763 -1.9164 -1.0249
 5352TIP3   OH216012   8.025   5.683   6.132 -0.7614  0.1826  0.3697
 5352TIP3    H116013   8.007   5.591   6.111  0.3783 -0.2398  1.1544
 5352TIP3    H216014   7.944   5.728   6.109 -1.6840 -1.1492  0.8399
 5353TIP3   OH216015   4.937   3.950   6.379  0.2419 -0.2259  0.2796
 5353TIP3    H116016   5.001   4.019   6.364  0.5943 -0.6823 -0.3532
 5353TIP3    H216017   4.879   3.985   6.447  1.4255  0.0005  1.1981
 5354TIP3   OH216018   2.771   2.037   5.476 -0.0636 -0.8146  0.4656
 5354TIP3    H116019   2.682   2.003   5.475 -0.4877  0.0993  2.4557
 5354TIP3    H216020   2.827   1.959   5.483 -0.6640 -1.4014 -0.9858
 5355TIP3   OH216021   0.131   4.548   1.827  0.0517  0.3707  0.0655
 5355TIP3    H116022   0.086   4.512   1.750  0.2319  0.5156 -0.1057
 5355TIP3    H216023   0.220   4.565   1.797  0.5347 -0.9365  0.6966
 5356TIP3   OH216024   7.739   6.489   6.642 -0.0541 -0.3631 -0.0473
 5356TIP3    H116025   7.764   6.447   6.559  0.1308 -1.5118  0.5604
 5356TIP3    H216026   7.658   6.536   6.623 -0.4355 -1.2663 -0.6969
 5357TIP3   OH216027   2.280   1.591   2.982  0.6069 -0.5704  0.0476
 5357TIP3    H116028   2.363   1.559   3.017 -0.6364 -2.3149  1.5115
 5357TIP3    H216029   2.214   1.531   3.015 -1.3735  1.1919 -0.4613
 5358TIP3   OH216030   4.970   4.268   0.821  0.0624 -0.2858 -0.6323
 5358TIP3    H116031   5.060   4.250   0.847  0.1616  0.9754 -0.0326
 5358TIP3    H216032   4.971   4.259   0.725  0.8801 -0.0493 -0.6559
 5359TIP3   OH216033   3.582   4.344   2.204  0.1459 -0.0921  0.1581
 5359TIP3    H116034   3.660   4.323   2.153 -0.0777 -0.4185 -0.0527
 5359TIP3    H216035   3.605   4.425   2.250  0.7747 -0.4292  0.4549
 5360TIP3   OH216036   7.585   5.655   2.620 -0.5474  0.1063  0.5054
 5360TIP3    H116037   7.613   5.564   2.632  0.4609  0.2315 -0.6884
 5360TIP3    H216038   7.493   5.648   2.593 -0.5279 -0.5513  0.5901
 5361TIP3   OH216039   5.253   1.424   1.483  0.1728 -0.0913 -0.1323
 5361TIP3    H116040   5.213   1.351   1.436  0.9432  0.4198 -1.6465
 5361TIP3    H216041   5.197   1.499   1.465 -1.1275 -0.4090  2.1547
 5362TIP3   OH216042   8.002   7.387   0.831 -0.0226 -0.4032  0.0042
 5362TIP3    H116043   8.024   7.294   0.833 -1.0295 -0.6774 -0.6184
 5362TIP3    H216044   7.948   7.397   0.752  2.3862  1.2567 -1.5749
 5363TIP3   OH216045   1.736   3.287   3.530 -0.4337  0.5250  0.0435
 5363TIP3    H116046   1.789   3.240   3.594 -0.2412  0.3369 -0.2506
 5363TIP3    H216047   1.678   3.220   3.494 -1.3960  0.8720  0.8927
 5364TIP3   OH216048   5.842   4.826   6.303 -0.2447  0.4139  0.1254
 5364TIP3    H116049   5.816   4.868   6.385 -1.1974  1.3054 -0.6114
 5364TIP3    H216050   5.915   4.878   6.272  0.1776  0.0188  0.4471
 5365TIP3   OH216051   2.728   2.115   3.599  0.2943 -0.1986 -0.1444
 5365TIP3    H116052   2.680   2.198   3.589 -0.0255 -0.2177  1.0667
 5365TIP3    H216053   2.660   2.048   3.602  0.4168 -0.2932  0.9082
 5366TIP3   OH216054   3.424   2.891   1.698 -0.3214 -0.5845  0.0573
 5366TIP3    H116055   3.438   2.809   1.650  1.3817 -0.3110  0.0382
 5366TIP3    H216056   3.345   2.875   1.749 -0.7259 -1.7936 -0.8892
 5367TIP3   OH216057   7.721   0.995   6.677  0.0096  0.1580 -0.3206
 5367TIP3    H116058   7.712   0.912   6.630  0.8342  0.1356 -0.4515
 5367TIP3    H216059   7.796   0.981   6.735  0.4538  0.9801 -0.6931
 5368TIP3   OH216060   0.804   7.368   3.427  0.3000  0.0403 -0.1479
 5368TIP3    H116061   0.763   7.449   3.458  0.0433 -0.0421 -0.2709
 5368TIP3    H216062   0.867   7.345   3.496  0.3378  0.3168 -0.0902
 5369TIP3   OH216063   3.395   7.680   5.920  0.1647 -0.4104  0.4946
 5369TIP3    H116064   3.305   7.709   5.904  0.6994  0.7449 -0.6804
 5369TIP3    H216065   3.395   7.588   5.893 -0.6897 -0.4552  0.6008
 5370TIP3   OH216066   8.055   2.327   2.834 -0.2801  0.5026  0.0949
 5370TIP3    H116067   8.056   2.422   2.845  1.4631  0.3248  2.2866
 5370TIP3    H216068   7.998   2.296   2.904 -0.1123 -0.1018 -0.0315
 5371TIP3   OH216069   6.742   5.484   0.573 -0.0725  0.3291  0.3523
 5371TIP3    H116070   6.676   5.428   0.534  0.1839  1.2193 -1.4895
 5371TIP3    H216071   6.767   5.440   0.654  0.5355 -2.5226 -1.2467
 5372TIP3   OH216072   5.278   5.119   1.103  0.7511  0.3418  0.3878
 5372TIP3    H116073   5.259   5.203   1.145  1.3345  0.5372  0.2769
 5372TIP3    H216074   5.371   5.104   1.122  0.4402 -0.6941  1.1253
 5373TIP3   OH216075   5.221   0.220   2.081 -0.1643  0.1015  0.0612
 5373TIP3    H116076   5.315   0.216   2.062 -0.0233  1.0018  0.5390
 5373TIP3    H216077   5.186   0.141   2.040  0.5505  0.5304 -1.4490
 5374TIP3   OH216078   6.944   4.137   0.382 -0.3750 -0.0055  0.2742
 5374TIP3    H116079   6.923   4.051   0.345  2.2561 -1.2383  1.3928
 5374TIP3    H216080   6.946   4.196   0.307  2.0166 -1.8543 -1.2547
 5375TIP3   OH216081   3.388   1.364   2.885  0.1267  0.0629  0.1602
 5375TIP3    H116082   3.408   1.273   2.860  0.8984  0.2493  0.0952
 5375TIP3    H216083   3.461   1.415   2.851 -0.1973  0.6854  0.3918
 5376TIP3   OH216084   4.010   0.216   2.875  0.2088 -0.1232 -0.4470
 5376TIP3    H116085   3.977   0.280   2.812 -0.5641 -0.2750 -0.2065
 5376TIP3    H216086   3.982   0.131   2.841 -0.2884 -0.1989  0.1416
 5377TIP3   OH216087   3.403   0.077   0.490 -0.2535  0.2236  0.0701
 5377TIP3    H116088   3.319   0.030   0.494 -0.0906 -0.1363 -0.5869
 5377TIP3    H216089   3.437   0.071   0.579 -0.8586  0.2568  0.3143
 5378TIP3   OH216090   6.903   1.360   4.920 -0.6979  0.1011  0.2479
 5378TIP3    H116091   6.903   1.282   4.976  0.4233  0.3144  0.5749
 5378TIP3    H216092   6.944   1.331   4.838 -1.4082  0.0467 -0.0974
 5379TIP3   OH216093   7.071   1.034   3.476  0.0607  0.1695 -0.2798
 5379TIP3    H116094   7.041   0.953   3.519 -0.5433  0.1526 -0.7203
 5379TIP3    H216095   7.005   1.099   3.500  1.3789  0.9543  1.3982
 5380TIP3   OH216096   7.035   3.443   3.648 -0.8205 -0.0599 -0.5713
 5380TIP3    H116097   6.952   3.487   3.665 -0.2616  1.0170 -0.5037
 5380TIP3    H216098   7.021   3.352   3.675 -1.9738  0.0962 -0.6004
 5381TIP3   OH216099   3.542   2.560   0.609 -0.3438  0.5362 -1.0706
 5381TIP3    H116100   3.554   2.653   0.591 -1.5145  0.6844 -1.1649
 5381TIP3    H216101   3.450   2.552   0.632  0.3773 -0.0997  2.0706
 5382TIP3   OH216102   2.106   1.764   4.565 -0.7970  0.2355 -0.1639
 5382TIP3    H116103   2.030   1.712   4.590 -1.1580  0.1572 -1.3747
 5382TIP3    H216104   2.161   1.705   4.514 -1.8385  1.3090 -2.6966
 5383TIP3   OH216105   0.238   2.728   5.343 -0.1421 -0.7506 -0.1538
 5383TIP3    H116106   0.263   2.636   5.356  0.5764 -0.4299  0.9100
 5383TIP3    H216107   0.289   2.755   5.267 -0.1783 -1.1638 -0.3313
 5384TIP3   OH216108   2.135   4.905   4.885  0.1934  0.8810 -0.8841
 5384TIP3    H116109   2.052   4.937   4.848 -0.0285  0.7002 -0.5487
 5384TIP3    H216110   2.163   4.974   4.945  0.6135  1.2275 -1.4715
 5385TIP3   OH216111   4.725   5.340   0.759 -0.4031  0.5526 -0.2645
 5385TIP3    H116112   4.718   5.258   0.710  0.3263  0.9147 -1.0082
 5385TIP3    H216113   4.747   5.313   0.848 -1.1495 -0.0908 -0.2628
 5386TIP3   OH216114   7.358   5.570   1.109 -0.0330 -0.5058 -0.5003
 5386TIP3    H116115   7.446   5.607   1.111  0.2134 -1.0931 -0.1575
 5386TIP3    H216116   7.305   5.631   1.161  0.5031 -0.9411  0.5958
 5387TIP3   OH216117   5.134   2.028   6.022 -0.2037 -0.0277 -0.2096
 5387TIP3    H116118   5.143   2.112   5.977  0.8927  0.2816  0.5348
 5387TIP3    H216119   5.042   2.003   6.010 -0.6248  1.4262 -0.1832
 5388TIP3   OH216120   8.030   7.117   0.008  0.6337 -0.4221  0.6107
 5388TIP3    H116121   7.997   7.084   0.092  0.9439 -0.4070  0.7378
 5388TIP3    H216122   8.005   7.050  -0.056 -0.2118 -0.1174  0.6005
 5389TIP3   OH216123   5.616   6.537   1.038 -0.1215  0.3844 -0.3756
 5389TIP3    H116124   5.530   6.580   1.046 -0.8109 -1.1648  1.1634
 5389TIP3    H216125   5.674   6.590   1.093 -0.5881  0.2917  0.2205
 5390TIP3   OH216126   6.704   2.384   0.748 -0.1021 -0.6965 -0.0628
 5390TIP3    H116127   6.760   2.431   0.811  1.8757 -1.1965 -1.3557
 5390TIP3    H216128   6.630   2.354   0.800  0.2821  0.8969  1.5277
 5391TIP3   OH216129   1.483   6.890   3.915 -0.0563  0.2531 -0.6420
 5391TIP3    H116130   1.450   6.919   4.000 -0.7897 -2.4601  0.0890
 5391TIP3    H216131   1.414   6.914   3.853  0.3795  2.0348 -0.4830
 5392TIP3   OH216132   5.175   4.103   6.767  0.1588  0.5115  0.0546
 5392TIP3    H116133   5.107   4.129   6.705 -0.1645 -0.7496 -0.1352
 5392TIP3    H216134   5.143   4.132   6.852  0.0802  1.2340 -0.2153
 5393TIP3   OH216135   4.157   0.945   1.451  0.3036  0.2508 -0.3004
 5393TIP3    H116136   4.126   1.026   1.491 -2.3068  0.0950 -1.7344
 5393TIP3    H216137   4.081   0.887   1.452  1.6812 -1.6610 -0.6347
 5394TIP3   OH216138   5.845   7.075   0.509  0.4897  0.1145  0.4651
 5394TIP3    H116139   5.854   7.155   0.561 -0.5262  1.6847 -1.6505
 5394TIP3    H216140   5.913   7.082   0.442  0.4989 -0.8921  0.3592
 5395TIP3   OH216141   6.448   6.555   6.724 -0.0590  0.2535 -0.2135
 5395TIP3    H116142   6.429   6.641   6.688 -1.0608  0.9182  1.7152
 5395TIP3    H216143   6.543   6.553   6.736 -0.0119  1.0220 -0.4431
 5396TIP3   OH216144   2.359   0.890   2.175  0.1319 -0.1172  0.5951
 5396TIP3    H116145   2.326   0.959   2.232  0.0601  0.5586 -0.2338
 5396TIP3    H216146   2.286   0.830   2.165  0.0580 -0.0938  0.9931
 5397TIP3   OH216147   7.705   5.779   4.326  0.7271 -0.3597  0.2872
 5397TIP3    H116148   7.641   5.829   4.378  1.1044 -0.8437  1.2366
 5397TIP3    H216149   7.676   5.688   4.333  0.6648 -0.4148 -0.5413
 5398TIP3   OH216150   5.258   1.837   3.284 -0.6468  0.3881 -0.3806
 5398TIP3    H116151   5.222   1.823   3.371  0.8733 -1.7399 -0.0284
 5398TIP3    H216152   5.200   1.789   3.225 -0.9855  0.8347 -0.4228
 5399TIP3   OH216153   1.216   7.274   3.937  0.3748  0.4394 -0.1422
 5399TIP3    H116154   1.273   7.338   3.894  1.3538 -0.2765  0.0341
 5399TIP3    H216155   1.127   7.300   3.914  0.8450  0.4746 -2.0176
 5400TIP3   OH216156   3.567   0.358   0.709 -0.4042 -0.9199 -0.3302
 5400TIP3    H116157   3.584   0.395   0.622  1.4383  1.4968  0.9012
 5400TIP3    H216158   3.644   0.305   0.728 -0.6850 -1.2450 -0.0891
 5401TIP3   OH216159   7.005   0.373   1.614 -0.1539  0.0125  0.6331
 5401TIP3    H116160   6.944   0.362   1.542 -0.7367  0.1577  1.0983
 5401TIP3    H216161   6.955   0.349   1.692  0.3823  0.1305  1.0199
 5402TIP3   OH216162   6.673   6.937   1.386  0.3963  0.0549 -0.2098
 5402TIP3    H116163   6.638   6.849   1.398 -0.0875  0.2062 -0.4581
 5402TIP3    H216164   6.661   6.955   1.293  2.1083 -0.2784 -0.5295
 5403TIP3   OH216165   5.574   0.589   5.303 -0.0843  0.0081 -0.1821
 5403TIP3    H116166   5.574   0.661   5.240  0.5419  0.0954 -0.0847
 5403TIP3    H216167   5.657   0.543   5.287 -0.4393 -0.6427 -0.1921
 5404TIP3   OH216168   8.127   2.813   1.532  0.4029  0.1300  0.0380
 5404TIP3    H116169   8.065   2.801   1.461  3.0399 -1.5062 -2.1946
 5404TIP3    H216170   8.153   2.724   1.557  2.4899  0.7412  0.2216
 5405TIP3   OH216171   8.188   4.341   2.237 -0.3657  0.0189  0.4615
 5405TIP3    H116172   8.216   4.424   2.200  0.4841 -0.4142  0.1137
 5405TIP3    H216173   8.167   4.286   2.161 -1.2400  0.0061  0.6925
 5406TIP3   OH216174   2.022   5.123   5.897  0.1725  0.2471  0.0948
 5406TIP3    H116175   2.087   5.069   5.854  0.0367 -0.0670  0.2756
 5406TIP3    H216176   1.955   5.139   5.830 -0.9600 -1.7633  0.6534
 5407TIP3   OH216177   5.002   7.572   1.590  0.5890  0.2658 -0.5340
 5407TIP3    H116178   4.949   7.534   1.521 -1.7083 -1.0815  1.7650
 5407TIP3    H216179   4.979   7.665   1.589 -1.8442 -0.2440  0.2582
 5408TIP3   OH216180   7.317   4.596   5.040  0.7801 -0.3400 -0.1232
 5408TIP3    H116181   7.360   4.634   4.964 -1.4605  1.9676 -0.3721
 5408TIP3    H216182   7.388   4.558   5.092  2.7053  0.7163 -1.8671
 5409TIP3   OH216183   6.936   5.461   4.596 -0.0632 -0.0476  0.5905
 5409TIP3    H116184   6.977   5.375   4.596 -0.8454 -0.4868 -1.8064
 5409TIP3    H216185   6.994   5.516   4.543 -1.2903 -0.0516 -0.8163
 5410TIP3   OH216186   4.242   7.721   3.818 -0.4581 -0.4061 -0.0009
 5410TIP3    H116187   4.276   7.683   3.898 -1.3023 -2.4660 -0.5720
 5410TIP3    H216188   4.218   7.811   3.842  1.0537 -0.3578  1.5309
 5411TIP3   OH216189   2.348   0.809   5.675  0.2164 -0.7378 -0.4249
 5411TIP3    H116190   2.351   0.741   5.742 -1.7947 -0.6533 -0.2030
 5411TIP3    H216191   2.294   0.878   5.713  1.6230  0.7186 -0.9299
 5412TIP3   OH216192   5.794   1.600   0.236  0.7468 -0.5651 -0.2542
 5412TIP3    H116193   5.860   1.622   0.170  0.5939  0.8633  0.0284
 5412TIP3    H216194   5.841   1.604   0.319  0.5429 -0.6016 -0.1367
 5413TIP3   OH216195   5.857   6.816   5.849  0.2385 -0.0747  0.2826
 5413TIP3    H116196   5.916   6.765   5.904 -1.7668 -3.5878 -0.5244
 5413TIP3    H216197   5.880   6.791   5.759 -1.1279  0.0124 -0.1220
 5414TIP3   OH216198   0.163   6.545   6.097  0.0717 -0.0197 -0.8904
 5414TIP3    H116199   0.070   6.548   6.120  0.3388 -0.1086  0.2878
 5414TIP3    H216200   0.199   6.476   6.153  1.2927  1.6190  0.4362
 5415TIP3   OH216201   3.271   3.878   3.294 -0.4090 -0.3378  0.0174
 5415TIP3    H116202   3.321   3.813   3.344  1.2276  1.2811  0.6109
 5415TIP3    H216203   3.187   3.884   3.339  0.0879 -0.7754  1.0261
 5416TIP3   OH216204   4.467   1.695   2.275 -0.1406 -0.3988 -0.2198
 5416TIP3    H116205   4.374   1.674   2.281 -0.4701  0.7623 -0.9793
 5416TIP3    H216206   4.500   1.684   2.364 -1.1442 -0.1790  0.1932
 5417TIP3   OH216207   1.563   4.638   4.202  0.2281 -0.4869 -0.6488
 5417TIP3    H116208   1.516   4.634   4.286  0.5936  0.9254 -0.3626
 5417TIP3    H216209   1.510   4.697   4.148  1.0555  0.2045 -0.7184
 5418TIP3   OH216210   6.088   0.398   1.453 -0.1782  0.2034 -0.5310
 5418TIP3    H116211   6.161   0.336   1.442 -1.0413 -0.7333 -1.2151
 5418TIP3    H216212   6.074   0.435   1.366 -0.3841  0.5370 -0.3592
 5419TIP3   OH216213   5.751   7.213   1.311 -0.7033 -0.0760 -0.4675
 5419TIP3    H116214   5.820   7.183   1.251 -0.4065  1.1366 -0.7735
 5419TIP3    H216215   5.679   7.152   1.298  1.0207 -2.7432  1.4355
 5420TIP3   OH216216   2.726   2.947   5.960  0.1222 -0.2239 -0.0177
 5420TIP3    H116217   2.680   2.987   5.886  0.8037  0.8903  0.1473
 5420TIP3    H216218   2.708   2.853   5.952 -0.2678 -0.0511 -1.2706
 5421TIP3   OH216219   8.182   5.433   3.488 -0.0715  0.0621 -0.8149
 5421TIP3    H116220   8.175   5.344   3.455  1.8360  0.2325 -1.8174
 5421TIP3    H216221   8.093   5.458   3.512 -0.6206 -2.1306 -0.4199
 5422TIP3   OH216222   1.006   1.776   5.439 -0.0888  0.0761  0.5150
 5422TIP3    H116223   0.985   1.817   5.355  0.6052 -1.3650 -0.3938
 5422TIP3    H216224   1.102   1.784   5.446 -0.1717  0.4549  1.3262
 5423TIP3   OH216225   4.823   1.749   3.359  0.4391  0.1851  0.5468
 5423TIP3    H116226   4.755   1.684   3.376 -0.5460  1.0650  0.1085
 5423TIP3    H216227   4.858   1.724   3.273 -1.3184  1.3209 -0.5771
 5424TIP3   OH216228   4.899   7.570   1.318 -0.2156 -0.0067 -0.3685
 5424TIP3    H116229   4.897   7.532   1.231  1.0151  2.6563 -1.6660
 5424TIP3    H216230   4.808   7.566   1.349 -0.7429 -0.5960 -1.9260
 5425TIP3   OH216231   4.004   4.137   2.097 -0.4847  0.1005 -0.2443
 5425TIP3    H116232   4.041   4.080   2.165 -2.4645  0.4909  1.2539
 5425TIP3    H216233   3.975   4.077   2.029 -0.5442 -0.5097  0.3079
 5426TIP3   OH216234   3.313   6.669   0.235  0.0764  0.2446 -0.3557
 5426TIP3    H116235   3.398   6.713   0.229 -0.0695  0.4802 -0.6987
 5426TIP3    H216236   3.275   6.678   0.148  0.7935 -2.0595 -0.9791
 5427TIP3   OH216237   7.500   3.222   0.823  0.0050 -0.5525  0.0269
 5427TIP3    H116238   7.508   3.141   0.773 -0.9352 -0.9738  0.5260
 5427TIP3    H216239   7.443   3.278   0.771 -1.3286 -1.1550  0.7765
 5428TIP3   OH216240   2.104   0.755   1.881  0.4691  0.3811 -0.0838
 5428TIP3    H116241   2.088   0.671   1.924  0.2072  0.8742  0.7932
 5428TIP3    H216242   2.168   0.799   1.937  0.0732  1.0604 -0.1543
 5429TIP3   OH216243   4.994   3.823   3.530  0.5354 -0.1096 -0.3543
 5429TIP3    H116244   5.073   3.816   3.477 -0.1326  0.2159 -1.4342
 5429TIP3    H216245   4.926   3.782   3.477  0.0983 -1.0466  0.8703
 5430TIP3   OH216246   5.147   0.367   2.637 -0.5046 -0.9711 -0.2941
 5430TIP3    H116247   5.180   0.286   2.677  0.2506 -0.3821  0.2857
 5430TIP3    H216248   5.087   0.336   2.569  0.3861 -2.0428 -0.6280
 5431TIP3   OH216249   6.118   0.429   3.589 -0.1245  0.1854  0.0214
 5431TIP3    H116250   6.187   0.366   3.573  0.0287 -0.2178  2.0190
 5431TIP3    H216251   6.042   0.394   3.543 -0.7321 -2.8561  2.9617
 5432TIP3   OH216252   5.458   1.492   1.120 -0.4884  0.5424  0.2159
 5432TIP3    H116253   5.478   1.433   1.192 -2.1464 -1.4477 -0.8493
 5432TIP3    H216254   5.538   1.543   1.107  0.7980 -1.0354  1.5829
 5433TIP3   OH216255   2.602   3.492   5.664 -0.1348  0.1656 -0.0882
 5433TIP3    H116256   2.610   3.558   5.595 -2.4654 -1.1980 -1.8013
 5433TIP3    H216257   2.528   3.523   5.717 -0.2222 -0.2719  0.0469
 5434TIP3   OH216258   5.215   3.222   5.168 -0.3337 -0.1281 -0.1881
 5434TIP3    H116259   5.150   3.203   5.101  0.4087 -1.7473 -0.4990
 5434TIP3    H216260   5.241   3.313   5.151 -2.4127  0.5461 -0.0898
 5435TIP3   OH216261   5.087   4.661   6.573 -0.0205  0.1942  0.5415
 5435TIP3    H116262   5.002   4.683   6.535 -1.3493 -1.8777  2.1019
 5435TIP3    H216263   5.115   4.583   6.526  1.3958  1.2479 -0.4207
 5436TIP3   OH216264   5.610   3.176   3.472  0.1521 -0.4591 -0.1849
 5436TIP3    H116265   5.677   3.220   3.419  0.0770 -1.3740 -1.0612
 5436TIP3    H216266   5.655   3.102   3.512  0.7587  1.3023  2.7627
 5437TIP3   OH216267   1.198   5.077   4.264 -0.4806  0.2523  0.0851
 5437TIP3    H116268   1.167   5.166   4.252 -0.0584  0.6267  1.6057
 5437TIP3    H216269   1.244   5.056   4.183  1.6437  2.3534  0.6565
 5438TIP3   OH216270   4.639   3.397   3.253  0.3133 -0.4740 -0.1952
 5438TIP3    H116271   4.707   3.338   3.223  0.9622 -0.5736  1.3876
 5438TIP3    H216272   4.577   3.342   3.301 -0.7344 -0.3332 -1.3356
 5439TIP3   OH216273   6.966   1.506   6.295  0.3082 -0.1512 -0.0673
 5439TIP3    H116274   7.040   1.451   6.268 -0.6702 -1.8475  0.5460
 5439TIP3    H216275   6.890   1.448   6.291 -0.4278  0.4528  2.8043
 5440TIP3   OH216276   0.188   1.911   5.113 -0.5636  0.1114 -0.0079
 5440TIP3    H116277   0.240   1.845   5.159  2.1795  0.8901 -1.7138
 5440TIP3    H216278   0.103   1.909   5.156  0.6904 -1.6303  2.6910
 5441TIP3   OH216279   0.790   7.236   6.422  0.2028  0.7491 -0.4156
 5441TIP3    H116280   0.831   7.274   6.344  0.8219  3.2552  1.0443
 5441TIP3    H216281   0.716   7.186   6.388  1.2340  0.6496 -2.6989
 5442TIP3   OH216282   3.047   4.216   4.382  0.0743  0.0510  0.2412
 5442TIP3    H116283   3.020   4.193   4.471  1.0226  1.2717  0.8672
 5442TIP3    H216284   3.129   4.264   4.392 -0.5953  1.5993 -1.1508
 5443TIP3   OH216285   5.916   2.647   6.549  0.0887  0.6347  0.0176
 5443TIP3    H116286   5.959   2.678   6.469  1.5350 -0.0700  0.4756
 5443TIP3    H216287   5.844   2.708   6.563  0.2455  1.1909 -1.4306
 5444TIP3   OH216288   3.337   3.724   4.202 -0.4461 -0.5239 -0.3837
 5444TIP3    H116289   3.282   3.688   4.272 -0.1272  0.9169  0.6545
 5444TIP3    H216290   3.295   3.807   4.179  1.1587  0.5546  0.3433
 5445TIP3   OH216291   6.942   1.237   1.283 -0.2126 -0.1896  0.7822
 5445TIP3    H116292   6.908   1.150   1.300 -0.0546 -0.5780 -0.7475
 5445TIP3    H216293   6.864   1.293   1.281 -0.6569 -0.7924 -1.0224
 5446TIP3   OH216294   3.491   7.428   2.141 -0.5053  0.6602  0.2765
 5446TIP3    H116295   3.503   7.416   2.047 -1.8079  0.1867  0.1457
 5446TIP3    H216296   3.456   7.517   2.150  0.9856  1.2514  0.4635
 5447TIP3   OH216297   7.445   6.827   3.188  0.3731  0.0510 -0.0762
 5447TIP3    H116298   7.468   6.779   3.109  1.1744  1.3621 -0.6754
 5447TIP3    H216299   7.395   6.902   3.157 -1.7074 -0.8479  0.9177
 5448TIP3   OH216300   4.597   1.385   2.021 -0.3782  0.5446  0.2467
 5448TIP3    H116301   4.657   1.318   2.053 -1.2214  0.7451  2.4089
 5448TIP3    H216302   4.520   1.336   1.990  0.5497  0.3328 -1.8914
 5449TIP3   OH216303   3.909   2.912   3.297  0.5387  0.2158  0.0908
 5449TIP3    H116304   3.854   2.885   3.223  0.1128 -0.0253  0.4962
 5449TIP3    H216305   3.936   3.001   3.275 -0.4415  0.5293  0.1338
 5450TIP3   OH216306   4.767   6.969   1.765  0.2006 -0.4529 -0.1264
 5450TIP3    H116307   4.696   6.904   1.772  0.0045 -0.0787  2.2766
 5450TIP3    H216308   4.843   6.925   1.802  0.9623 -0.4532 -1.6489
 5451TIP3   OH216309   2.065   0.553   2.999  1.0012  0.4626  0.2979
 5451TIP3    H116310   1.971   0.539   3.006  1.3295 -1.5602  1.7633
 5451TIP3    H216311   2.085   0.540   2.907  0.1786 -1.8747  0.3996
 5452TIP3   OH216312   0.063   2.856   3.239 -0.0549  0.0513 -0.6005
 5452TIP3    H116313   0.067   2.760   3.247 -1.2110  0.1004  1.0849
 5452TIP3    H216314   0.108   2.875   3.157  0.8449 -1.8771 -0.6040
 5453TIP3   OH216315   7.178   1.082   5.716  0.1671  0.0448  0.4661
 5453TIP3    H116316   7.088   1.107   5.737 -0.1142 -0.3593 -0.2127
 5453TIP3    H216317   7.220   1.164   5.691 -0.4788  0.0177 -0.7999
 5454TIP3   OH216318   7.150   0.125   5.561 -0.3330 -0.0321 -0.1580
 5454TIP3    H116319   7.086   0.194   5.579  0.3463  0.0971  2.0211
 5454TIP3    H216320   7.161   0.080   5.644 -0.2755 -2.4063 -1.3798
 5455TIP3   OH216321   1.517   0.658   6.383  0.5563 -0.0441  0.2610
 5455TIP3    H116322   1.527   0.753   6.371 -1.1743  0.1809  0.2902
 5455TIP3    H216323   1.473   0.629   6.302 -1.3023 -0.3336  1.3095
 5456TIP3   OH216324   3.625   3.099   3.297 -0.1263 -0.2453  0.0735
 5456TIP3    H116325   3.643   3.008   3.277 -0.0736 -0.4102  0.8496
 5456TIP3    H216326   3.530   3.102   3.314 -0.1066 -0.1888  0.1806
 5457TIP3   OH216327   3.000   2.108   2.351  0.2085 -0.2359 -0.2360
 5457TIP3    H116328   2.917   2.076   2.316 -1.6667  2.8662  0.9988
 5457TIP3    H216329   3.054   2.124   2.274 -0.6925 -1.3299 -1.1379
 5458TIP3   OH216330   1.613   1.366   3.235  0.3556  0.2233  0.1810
 5458TIP3    H116331   1.615   1.454   3.198 -1.7227  0.2780  0.0743
 5458TIP3    H216332   1.522   1.339   3.228  0.8735 -1.8190  0.5346
 5459TIP3   OH216333   0.579   1.000   4.773 -0.0848  0.6464  0.3939
 5459TIP3    H116334   0.572   1.095   4.762 -2.1379  0.5388  0.5137
 5459TIP3    H216335   0.491   0.972   4.798  0.9358 -1.0385  2.3771
 5460TIP3   OH216336   1.292   5.953   0.710 -0.1693  0.3899 -0.2110
 5460TIP3    H116337   1.347   6.030   0.705 -0.3033  0.6507  1.7055
 5460TIP3    H216338   1.203   5.987   0.719 -0.2196  0.0233  0.7670
 5461TIP3   OH216339   0.629   6.923   2.093  0.3484  0.6194  0.2470
 5461TIP3    H116340   0.658   6.835   2.071 -0.1482  0.5694 -0.2151
 5461TIP3    H216341   0.634   6.972   2.010  0.5912  1.0203  0.4916
 5462TIP3   OH216342   7.789   5.012   1.019  0.5232  0.7108  0.7684
 5462TIP3    H116343   7.705   5.029   1.062 -0.2069 -1.4181  0.3100
 5462TIP3    H216344   7.854   5.058   1.072 -0.7712  1.1577  2.0003
 5463TIP3   OH216345   2.750   0.310   3.632  0.0060  0.0272  0.1144
 5463TIP3    H116346   2.725   0.356   3.712  0.4117  1.5469 -0.5775
 5463TIP3    H216347   2.803   0.236   3.661  0.8778  1.0508  1.2359
 5464TIP3   OH216348   1.040   4.456   6.728 -0.2204  0.3051  0.0383
 5464TIP3    H116349   0.972   4.407   6.682 -1.6147  0.9131  1.3910
 5464TIP3    H216350   1.098   4.388   6.764 -1.4209 -0.3350  0.8294
 5465TIP3   OH216351   7.144   7.374   2.439  1.0388  0.2454  0.0937
 5465TIP3    H116352   7.094   7.306   2.484 -0.9274  0.9038 -0.9403
 5465TIP3    H216353   7.168   7.435   2.509  0.8403 -0.3710  0.7119
 5466TIP3   OH216354   7.174   3.150   0.478 -0.0447 -0.2989  0.0107
 5466TIP3    H116355   7.124   3.101   0.412  0.6335  0.9377 -1.4689
 5466TIP3    H216356   7.214   3.082   0.532  1.4560 -1.4832 -2.4119
 5467TIP3   OH216357   2.054   7.055   3.643  0.3269 -0.2109 -0.0628
 5467TIP3    H116358   2.134   7.043   3.694 -0.3637 -0.1208  1.0691
 5467TIP3    H216359   1.990   7.089   3.705  0.0143  1.8992 -1.4282
 5468TIP3   OH216360   0.626   1.314   1.735 -0.0979  0.2332 -0.1069
 5468TIP3    H116361   0.710   1.323   1.689 -0.8517 -2.5887 -2.3333
 5468TIP3    H216362   0.625   1.223   1.765 -0.8681  1.2084  3.2490
 5469TIP3   OH216363   3.337   2.308   1.015  0.0846  0.0858 -0.1394
 5469TIP3    H116364   3.369   2.395   0.992 -0.7981 -0.2092 -2.7618
 5469TIP3    H216365   3.416   2.254   1.022  0.6798  1.0992  1.9674
 5470TIP3   OH216366   1.414   7.346   5.342  0.1647 -0.0431  0.5355
 5470TIP3    H116367   1.320   7.354   5.360 -0.0236 -0.2108 -0.3257
 5470TIP3    H216368   1.425   7.256   5.313  0.0598  0.7446 -2.2294
 5471TIP3   OH216369   4.720   6.903   4.424 -0.0565 -0.2431  0.0443
 5471TIP3    H116370   4.798   6.878   4.375  1.6168  1.2007  1.8204
 5471TIP3    H216371   4.648   6.858   4.379  1.7844 -1.7997 -1.5315
 5472TIP3   OH216372   2.210   2.065   0.047 -0.5357  0.2917  0.6725
 5472TIP3    H116373   2.221   2.018   0.129  0.5545  0.4316  0.6189
 5472TIP3    H216374   2.120   2.095   0.048 -0.1876  1.3785  2.3926
 5473TIP3   OH216375   4.697   5.811   0.765  0.6002 -0.1856 -0.1010
 5473TIP3    H116376   4.771   5.820   0.825  0.2000 -0.9340  0.5258
 5473TIP3    H216377   4.641   5.886   0.783  0.7030 -0.1701  0.1485
 5474TIP3   OH216378   0.445   2.431   5.054  0.1876 -0.2011 -0.0984
 5474TIP3    H116379   0.454   2.341   5.086  0.6623 -0.6126 -1.3145
 5474TIP3    H216380   0.408   2.421   4.966  1.2577  0.7200 -0.6730
 5475TIP3   OH216381   3.048   5.346   5.264 -0.0513  0.3873 -0.0455
 5475TIP3    H116382   3.081   5.257   5.276  0.3177  0.2081 -2.0875
 5475TIP3    H216383   3.112   5.401   5.309  0.1973 -0.3208  0.4793
 5476TIP3   OH216384   1.724   6.460   1.108  0.1728 -0.0521 -0.0459
 5476TIP3    H116385   1.693   6.460   1.017 -0.8735 -0.4957  0.2928
 5476TIP3    H216386   1.816   6.435   1.101  0.2339  0.3823 -1.0219
 5477TIP3   OH216387   3.743   1.582   3.419 -0.4466 -0.1678  0.5082
 5477TIP3    H116388   3.811   1.626   3.368  0.7591 -0.7588  1.5595
 5477TIP3    H216389   3.674   1.647   3.428 -0.1129  0.3918 -0.7303
 5478TIP3   OH216390   3.027   2.417   4.489 -0.0774 -0.5445  0.3964
 5478TIP3    H116391   3.010   2.331   4.526 -0.0770  0.1385  2.0552
 5478TIP3    H216392   3.118   2.413   4.459 -0.3422 -1.3771 -0.3155
 5479TIP3   OH216393   1.343   6.354   1.633 -0.2378 -0.6246  0.7168
 5479TIP3    H116394   1.306   6.415   1.568  0.9728  1.1235  1.5755
 5479TIP3    H216395   1.328   6.397   1.717  1.6265 -0.9555  1.2599
 5480TIP3   OH216396   6.251   7.502   0.504 -0.7090  0.5388 -0.7115
 5480TIP3    H116397   6.331   7.500   0.452  0.1689 -1.1455  0.6225
 5480TIP3    H216398   6.236   7.594   0.521  1.4431  0.8537 -0.2513
 5481TIP3   OH216399   6.872   1.760   5.122  0.1972  0.8064 -0.1565
 5481TIP3    H116400   6.849   1.706   5.198 -0.8133  0.1687 -0.8955
 5481TIP3    H216401   6.920   1.702   5.064  2.4100  1.7179  0.6637
 5482TIP3   OH216402   1.485   1.684   6.000  0.4072 -0.0907  0.3563
 5482TIP3    H116403   1.534   1.644   6.072  0.6209  0.3000  0.4285
 5482TIP3    H216404   1.543   1.752   5.965  0.3170 -0.2940 -0.2039
 5483TIP3   OH216405   8.305   3.301   4.839  0.0126  0.1741  0.3478
 5483TIP3    H116406   8.274   3.242   4.770 -1.0389 -0.8534  1.6379
 5483TIP3    H216407   8.237   3.296   4.907 -0.3117  3.1845  0.3699
 5484TIP3   OH216408   2.411   5.057   2.065 -0.2408 -0.0121  1.0352
 5484TIP3    H116409   2.478   4.993   2.042 -1.2461 -1.3151  1.6183
 5484TIP3    H216410   2.355   5.012   2.128 -2.1663  0.7242 -0.0498
 5485TIP3   OH216411   7.229   4.100   0.474 -0.0718  0.2588 -0.0732
 5485TIP3    H116412   7.261   4.164   0.410  1.1712 -0.3944 -0.1312
 5485TIP3    H216413   7.140   4.079   0.445  0.8199 -0.8347 -2.2492
 5486TIP3   OH216414   7.573   4.475   3.788  0.2274  0.7808 -0.2528
 5486TIP3    H116415   7.492   4.525   3.793 -1.6811 -2.1924  1.3163
 5486TIP3    H216416   7.556   4.408   3.721  1.0821 -0.3030  0.5647
 5487TIP3   OH216417   7.939   2.628   4.725  0.1940 -0.3487  0.0455
 5487TIP3    H116418   7.873   2.609   4.792  0.7516 -0.5953  0.5246
 5487TIP3    H216419   8.022   2.633   4.772  0.3446  1.4253 -0.3273
 5488TIP3   OH216420   0.430   4.843   0.793 -0.0228  0.0469  0.2623
 5488TIP3    H116421   0.432   4.902   0.868 -2.4882  0.6743 -0.0624
 5488TIP3    H216422   0.379   4.767   0.824  0.5467 -0.5513 -0.2348
 5489TIP3   OH216423   3.766   3.770   2.793 -0.0602  0.4615  0.6417
 5489TIP3    H116424   3.736   3.795   2.705 -0.5274 -0.7530  0.4267
 5489TIP3    H216425   3.843   3.824   2.808 -0.2544  1.0410 -0.3182
 5490TIP3   OH216426   2.873   3.114   2.879 -0.5901  0.5092  0.0334
 5490TIP3    H116427   2.930   3.181   2.841  1.6685 -0.7866  0.8999
 5490TIP3    H216428   2.785   3.138   2.850  0.4361  2.2500 -1.9802
 5491TIP3   OH216429   1.130   7.080   2.673  0.8733 -0.3342 -0.0272
 5491TIP3    H116430   1.097   7.166   2.701 -0.2726 -1.0219  0.8147
 5491TIP3    H216431   1.197   7.058   2.738  0.4259 -0.5368  0.3696
 5492TIP3   OH216432   7.148   1.369   5.528 -0.1471 -0.2205 -0.9292
 5492TIP3    H116433   7.217   1.427   5.559 -1.3972  2.0410 -2.1685
 5492TIP3    H216434   7.092   1.355   5.605 -0.8947  1.8877 -1.0266
 5493TIP3   OH216435   0.029   6.187   0.790  0.0754 -0.2093 -0.4838
 5493TIP3    H116436   0.064   6.167   0.703  0.3445 -0.8446 -0.2332
 5493TIP3    H216437   0.082   6.135   0.850  0.6303  1.0698  0.1710
 5494TIP3   OH216438   5.919   7.579   5.214  0.3870  0.0737  0.2595
 5494TIP3    H116439   5.869   7.608   5.138  1.6237  1.3495 -0.1079
 5494TIP3    H216440   5.855   7.573   5.284 -0.1303  2.9414  0.1365
 5495TIP3   OH216441   0.040   4.566   0.374 -0.2820  0.4724 -0.7836
 5495TIP3    H116442   0.117   4.515   0.397  0.0656  0.8559 -1.0709
 5495TIP3    H216443   0.074   4.637   0.319 -0.7324  1.0869 -0.2892
 5496TIP3   OH216444   0.817   7.308   6.163  0.2347 -0.4510 -0.3082
 5496TIP3    H116445   0.729   7.313   6.124  0.8732  2.4840 -1.5748
 5496TIP3    H216446   0.835   7.396   6.194  2.2581 -1.3066  1.1643
 5497TIP3   OH216447   2.441   5.314   1.014  0.4951 -0.3830 -0.7752
 5497TIP3    H116448   2.391   5.232   1.018  1.0278 -0.6856 -0.0951
 5497TIP3    H216449   2.423   5.357   1.097  0.0893  0.2765 -1.1993
 5498TIP3   OH216450   3.841   6.409   2.707 -0.4270  0.2985 -0.0700
 5498TIP3    H116451   3.911   6.386   2.646  0.5284 -0.1577  1.1575
 5498TIP3    H216452   3.885   6.450   2.781 -1.6465  1.6228 -0.0282
 5499TIP3   OH216453   7.296   3.900   5.385  0.2527  0.5518  0.0214
 5499TIP3    H116454   7.288   3.855   5.301 -0.8015  0.4161  0.1741
 5499TIP3    H216455   7.256   3.986   5.370  0.3994  0.6675  0.2804
 5500TIP3   OH216456   0.069   4.043   1.674 -0.7124 -0.0811 -0.3504
 5500TIP3    H116457   0.015   4.122   1.676  0.1080  0.4952 -0.2175
 5500TIP3    H216458   0.101   4.034   1.764  0.7217  0.5416 -0.7645
 5501TIP3   OH216459   0.785   7.025   4.397  0.4159  0.1365  0.0959
 5501TIP3    H116460   0.758   6.937   4.426 -1.9761 -0.3021 -2.8926
 5501TIP3    H216461   0.869   7.011   4.354 -0.3303 -0.9431 -1.0959
 5502TIP3   OH216462   2.565   5.673   6.638 -0.1835 -0.1451 -0.0949
 5502TIP3    H116463   2.647   5.684   6.590 -0.3611  0.5676 -0.2466
 5502TIP3    H216464   2.499   5.658   6.570 -0.2072 -0.5395  0.0148
 5503TIP3   OH216465   6.833   1.997   0.266 -0.1599  0.0562  1.0465
 5503TIP3    H116466   6.869   2.082   0.291 -0.4989 -0.3009  2.8761
 5503TIP3    H216467   6.834   1.998   0.170 -0.7490  2.3633  1.0052
 5504TIP3   OH216468   4.892   5.927   3.793 -0.2026 -0.0819 -0.3659
 5504TIP3    H116469   4.964   5.946   3.733 -1.7748  1.5315 -1.8695
 5504TIP3    H216470   4.855   5.845   3.760 -0.0371 -0.0782 -0.5627
 5505TIP3   OH216471   0.691   1.659   2.143 -0.0192 -0.3045  0.7482
 5505TIP3    H116472   0.781   1.628   2.129  1.0677  2.8983 -0.2510
 5505TIP3    H216473   0.690   1.687   2.234  0.1310  0.0467  0.6423
 5506TIP3   OH216474   5.300   2.420   1.385  0.1915 -0.7104 -0.4031
 5506TIP3    H116475   5.285   2.342   1.333  0.8044 -0.8813 -0.3364
 5506TIP3    H216476   5.395   2.432   1.383  0.0205  0.6271 -1.2692
 5507TIP3   OH216477   3.414   6.714   0.624 -0.6887 -0.3605  0.3923
 5507TIP3    H116478   3.452   6.715   0.712 -0.2958  3.2884  0.3181
 5507TIP3    H216479   3.486   6.737   0.566 -1.7985  1.5278 -0.3392
 5508TIP3   OH216480   1.901   5.447   6.521 -0.3144 -0.0551  0.3415
 5508TIP3    H116481   1.898   5.431   6.427  2.5486  1.2452 -0.1007
 5508TIP3    H216482   1.889   5.361   6.561 -1.2216 -0.6773 -1.2027
 5509TIP3   OH216483   6.220   3.323   1.962 -0.3412  0.3698 -0.5142
 5509TIP3    H116484   6.205   3.276   1.880 -2.3441  0.3042 -0.1670
 5509TIP3    H216485   6.150   3.388   1.966 -0.0273  0.6579  0.9507
 5510TIP3   OH216486   4.731   4.282   6.279  0.3586  0.3564 -0.3187
 5510TIP3    H116487   4.801   4.286   6.213  1.8420 -1.6611  1.0025
 5510TIP3    H216488   4.756   4.347   6.344  0.3335  0.5234 -0.4770
 5511TIP3   OH216489   7.268   4.250   5.235  0.4744 -0.0501  0.0478
 5511TIP3    H116490   7.323   4.176   5.208 -1.1391 -0.2356 -3.1875
 5511TIP3    H216491   7.325   4.327   5.224  1.2361 -0.5354  0.4988
 5512TIP3   OH216492   7.454   0.095   2.819  0.1265  0.2195  0.1763
 5512TIP3    H116493   7.378   0.056   2.863  0.1960  0.2701  0.3438
 5512TIP3    H216494   7.443   0.072   2.727 -0.2913  0.5535  0.1395
 5513TIP3   OH216495   4.928   1.552   1.073  0.1989 -0.4427  0.3691
 5513TIP3    H116496   4.892   1.536   0.986  0.2515  0.6586  0.1303
 5513TIP3    H216497   4.965   1.641   1.068 -0.3927 -0.0992  1.7015
 5514TIP3   OH216498   3.142   0.170   5.358  0.7542  0.0080 -0.5129
 5514TIP3    H116499   3.167   0.080   5.336  1.5033  0.2785 -0.7947
 5514TIP3    H216500   3.223   0.220   5.348  0.5692  0.5501  0.5890
 5515TIP3   OH216501   5.796   1.817   3.385  0.0868 -0.3909  0.1950
 5515TIP3    H116502   5.858   1.824   3.458 -0.5641 -0.3283  0.7552
 5515TIP3    H216503   5.712   1.799   3.427 -0.2162 -0.8161 -0.5735
 5516TIP3   OH216504   5.220   3.807   3.831  0.0563 -0.6969  0.1514
 5516TIP3    H116505   5.235   3.887   3.881  0.9424 -1.0982  0.5500
 5516TIP3    H216506   5.273   3.819   3.752  0.7622 -1.1888  0.5445
 5517TIP3   OH216507   6.643   6.879   5.566 -0.2828  0.6762 -0.2490
 5517TIP3    H116508   6.607   6.917   5.646 -0.2985  1.4797 -0.6259
 5517TIP3    H216509   6.732   6.913   5.562  0.4319 -1.0059  0.4841
 5518TIP3   OH216510   8.186   7.638   3.862 -0.1366 -0.4745 -0.6592
 5518TIP3    H116511   8.175   7.594   3.946  0.2097  0.0019 -0.3605
 5518TIP3    H216512   8.174   7.731   3.881 -0.1395 -0.3690 -1.1527
 5519TIP3   OH216513   3.089   3.299   6.010 -0.1846  0.0431 -0.1714
 5519TIP3    H116514   3.098   3.205   5.997 -1.2049 -0.1913  0.6234
 5519TIP3    H216515   3.007   3.322   5.966 -0.1945  0.4702  0.0567
 5520TIP3   OH216516   8.033   3.238   4.499 -0.3722  0.1064  0.0254
 5520TIP3    H116517   8.001   3.191   4.422  0.6807 -2.3260  1.0040
 5520TIP3    H216518   8.098   3.299   4.464  2.4633 -3.1413 -0.8433
 5521TIP3   OH216519   5.871   7.480   1.233  0.1553 -0.2414  0.4478
 5521TIP3    H116520   5.821   7.399   1.238 -0.5189 -0.0206 -1.7735
 5521TIP3    H216521   5.822   7.542   1.288 -1.9095 -0.1200 -1.4201
 5522TIP3   OH216522   4.555   3.633   4.907  0.4340 -0.0464  0.0091
 5522TIP3    H116523   4.502   3.585   4.843 -0.7614  0.1026  0.8549
 5522TIP3    H216524   4.506   3.713   4.924  0.1375 -0.6017  1.9556
 5523TIP3   OH216525   3.992   1.666   1.800 -0.4137  0.2356 -0.2259
 5523TIP3    H116526   3.942   1.584   1.799  0.0570 -0.0604  0.0981
 5523TIP3    H216527   4.055   1.657   1.728  0.5396 -0.2683  0.6438
 5524TIP3   OH216528   5.541   4.343   4.839 -0.3295  0.4161  0.2134
 5524TIP3    H116529   5.592   4.398   4.780 -2.5708  3.6116  1.0269
 5524TIP3    H216530   5.559   4.377   4.927 -0.4266 -1.3683  0.9735
 5525TIP3   OH216531   5.656   7.608   3.381 -0.3942  0.2456 -0.4768
 5525TIP3    H116532   5.737   7.590   3.429 -0.6857 -1.0716 -0.4408
 5525TIP3    H216533   5.612   7.675   3.433 -0.8313 -1.3325  1.3001
 5526TIP3   OH216534   5.689   2.459   2.195 -0.1979  0.3144  0.6686
 5526TIP3    H116535   5.602   2.419   2.199 -0.4966  1.0647  2.6510
 5526TIP3    H216536   5.734   2.412   2.124 -1.4104 -1.6690  1.1443
 5527TIP3   OH216537   3.701   3.565   4.233 -0.4678  0.1875 -0.3250
 5527TIP3    H116538   3.670   3.654   4.218 -0.3200  0.3963  0.5498
 5527TIP3    H216539   3.787   3.562   4.192  0.0440  0.8254  0.6556
 5528TIP3   OH216540   2.714   2.734   6.205  0.0825 -0.4626 -0.2623
 5528TIP3    H116541   2.704   2.829   6.200  0.4253 -0.3641  0.6439
 5528TIP3    H216542   2.693   2.702   6.117 -0.1250  0.4407 -0.5469
 5529TIP3   OH216543   4.250   3.646   5.798 -0.4830  0.2615 -0.2562
 5529TIP3    H116544   4.292   3.650   5.713 -1.9470  0.1407 -1.0191
 5529TIP3    H216545   4.321   3.627   5.859  0.6267  0.5793 -1.4067
 5530TIP3   OH216546   4.935   4.364   4.711  0.1666 -0.9135  0.0031
 5530TIP3    H116547   5.025   4.339   4.691  0.1246 -2.0070  1.0357
 5530TIP3    H216548   4.882   4.293   4.674 -0.2744 -0.3383 -0.4918
 5531TIP3   OH216549   7.976   3.953   4.453  0.0005  0.2366  0.5378
 5531TIP3    H116550   7.899   3.990   4.498 -0.6442 -0.8170  0.3416
 5531TIP3    H216551   8.025   3.909   4.523  1.0136  1.8039  0.8556
 5532TIP3   OH216552   3.157   6.482   6.547 -0.0879  0.2303  0.2651
 5532TIP3    H116553   3.252   6.487   6.536 -0.1788  0.8819 -0.3191
 5532TIP3    H216554   3.127   6.422   6.478 -0.2027  0.8664 -0.2513
 5533TIP3   OH216555   4.494   2.345   3.608  0.4141 -0.2413 -0.2993
 5533TIP3    H116556   4.551   2.274   3.579  0.0989 -0.6440  0.0406
 5533TIP3    H216557   4.508   2.416   3.545  1.1555 -0.3966 -0.3159
 5534TIP3   OH216558   6.159   5.011   3.373  0.2951 -0.3266  0.0361
 5534TIP3    H116559   6.143   4.947   3.442  0.0434 -2.0955 -1.5780
 5534TIP3    H216560   6.250   4.995   3.346  0.2768  0.1000 -0.2898
 5535TIP3   OH216561   3.261   3.109   2.290  0.3233 -0.2368 -0.4614
 5535TIP3    H116562   3.205   3.114   2.368  2.2570 -0.5588  1.0383
 5535TIP3    H216563   3.350   3.106   2.325  1.5894  3.3874 -2.7806
 5536TIP3   OH216564   7.966   3.081   6.207  0.2238  0.1020  0.2996
 5536TIP3    H116565   7.957   3.059   6.300 -0.0950  1.9700  0.7706
 5536TIP3    H216566   8.015   3.164   6.208  2.0602 -0.8864 -1.3280
 5537TIP3   OH216567   4.186   5.682   2.315  0.5691 -0.6734 -0.2187
 5537TIP3    H116568   4.160   5.685   2.407  0.4100  0.0946 -0.2841
 5537TIP3    H216569   4.187   5.774   2.287  0.6326 -0.8979 -0.9792
 5538TIP3   OH216570   2.423   5.496   2.837  0.2192 -0.1448  0.3114
 5538TIP3    H116571   2.498   5.468   2.785  0.1655  0.0985  0.1002
 5538TIP3    H216572   2.449   5.580   2.875 -0.1075  0.1650 -0.1300
 5539TIP3   OH216573   6.690   2.398   3.239  0.9548 -0.0827 -0.5791
 5539TIP3    H116574   6.714   2.484   3.205 -1.4494  0.4490 -1.1159
 5539TIP3    H216575   6.684   2.342   3.161  1.2735 -0.4166 -0.3678
 5540TIP3   OH216576   7.531   1.082   3.398 -0.5542 -0.4321 -0.2100
 5540TIP3    H116577   7.443   1.101   3.364 -0.4930  1.7366  0.6441
 5540TIP3    H216578   7.570   1.169   3.412  2.0977 -1.3365 -1.4153
 5541TIP3   OH216579   7.092   0.276   0.104 -0.2996  0.1816 -0.2351
 5541TIP3    H116580   7.173   0.284   0.154 -0.8977  0.1360  0.7644
 5541TIP3    H216581   7.087   0.358   0.054 -0.4513  0.9432  0.9669
 5542TIP3   OH216582   5.536   7.845   2.380  0.5282 -0.1165  0.7563
 5542TIP3    H116583   5.454   7.822   2.423 -0.5506 -0.2882 -1.2708
 5542TIP3    H216584   5.583   7.762   2.374 -0.1365 -0.4535 -0.0131
 5543TIP3   OH216585   4.136   6.951   3.025 -0.0697 -0.4253  0.1800
 5543TIP3    H116586   4.099   6.903   3.099 -1.7662  0.5367  0.0119
 5543TIP3    H216587   4.061   6.969   2.968  1.0317 -0.2568 -1.2705
 5544TIP3   OH216588   5.361   7.172   5.709 -0.2062  0.2033  0.3140
 5544TIP3    H116589   5.323   7.177   5.621  0.3741  1.3106  0.1035
 5544TIP3    H216590   5.307   7.231   5.762 -0.0456  0.1888  0.4957
 5545TIP3   OH216591   3.663   0.678   2.360  0.3750  0.3025 -0.6639
 5545TIP3    H116592   3.648   0.738   2.286  1.2825  1.0584 -0.2649
 5545TIP3    H216593   3.743   0.711   2.401 -0.6438  0.5398  1.2710
 5546TIP3   OH216594   0.026   1.239   2.873  0.3360  0.3013 -0.1266
 5546TIP3    H116595   0.062   1.326   2.859  0.6276  0.2729  0.4204
 5546TIP3    H216596   0.088   1.196   2.932  0.9535 -0.7785 -1.4762
 5547TIP3   OH216597   2.472   0.268   1.303  0.0076 -0.0933 -0.0628
 5547TIP3    H116598   2.563   0.293   1.320  0.0632 -0.9156  0.9836
 5547TIP3    H216599   2.462   0.276   1.209  1.4319 -0.8148 -0.3096
 5548TIP3   OH216600   4.914   2.672   3.982  0.1834 -0.4479  0.3083
 5548TIP3    H116601   4.999   2.651   3.943  0.1919 -0.0660  0.1161
 5548TIP3    H216602   4.923   2.649   4.074  0.1393 -1.4385  0.0712
 5549TIP3   OH216603   3.055   4.402   2.564 -0.5866  0.0023 -0.4271
 5549TIP3    H116604   2.995   4.470   2.536 -1.4075 -0.8192 -0.7259
 5549TIP3    H216605   3.000   4.325   2.576  0.1956 -0.4283  0.6248
 5550TIP3   OH216606   7.255   1.993   3.866 -0.4086  0.2382 -0.5011
 5550TIP3    H116607   7.275   2.081   3.833  1.0824  0.4808  0.9152
 5550TIP3    H216608   7.341   1.952   3.879 -1.0721 -1.4773 -1.1882
 5551TIP3   OH216609   1.505   0.906   3.745  0.2363 -1.0205 -0.0702
 5551TIP3    H116610   1.556   0.923   3.824 -0.9463 -0.2531  0.5798
 5551TIP3    H216611   1.503   0.811   3.737  2.3621 -1.0572 -0.5578
 5552TIP3   OH216612   3.943   3.110   3.742  0.4044  0.2379  0.0781
 5552TIP3    H116613   3.959   3.174   3.673 -0.0460 -2.0402 -2.2984
 5552TIP3    H216614   3.850   3.091   3.736  0.0968  0.8404  2.1820
 5553TIP3   OH216615   7.700   7.435   5.588 -0.4350 -0.4975 -0.0069
 5553TIP3    H116616   7.608   7.439   5.563 -0.4717  0.2449  0.2170
 5553TIP3    H216617   7.744   7.494   5.526  0.0066 -1.4312 -0.5956
 5554TIP3   OH216618   5.477   6.885   1.946 -0.7379 -0.3766  1.1104
 5554TIP3    H116619   5.479   6.961   2.003 -1.4735  0.3617  0.1892
 5554TIP3    H216620   5.423   6.821   1.992 -0.6045 -0.1243  1.6222
 5555TIP3   OH216621   4.462   0.350   5.460 -0.7242 -0.3994  0.0724
 5555TIP3    H116622   4.396   0.410   5.495  0.5852  2.2584 -1.7086
 5555TIP3    H216623   4.435   0.336   5.369  0.7704  0.1939 -0.4813
 5556TIP3   OH216624   1.774   0.691   4.680  0.1751  0.1576 -0.0879
 5556TIP3    H116625   1.682   0.711   4.660  0.0841  0.5950  0.7425
 5556TIP3    H216626   1.824   0.743   4.617 -0.1074  1.5112  0.7850
 5557TIP3   OH216627   4.478   7.119   4.897 -0.0740 -0.2639 -0.0921
 5557TIP3    H116628   4.488   7.133   4.991  2.7838 -0.7089 -0.2501
 5557TIP3    H216629   4.480   7.024   4.886  0.8471 -0.1868 -0.6757
 5558TIP3   OH216630   3.419   6.637   3.971  0.6784 -0.4766  0.1458
 5558TIP3    H116631   3.505   6.658   4.009  0.3734 -1.1413  1.2548
 5558TIP3    H216632   3.389   6.560   4.020  0.0685 -1.1247 -1.1946
 5559TIP3   OH216633   6.121   4.560   3.232 -0.1480 -0.6122  0.3503
 5559TIP3    H116634   6.094   4.493   3.295  0.3243 -0.3931  0.7910
 5559TIP3    H216635   6.215   4.545   3.220  0.1837  0.6260  1.2597
 5560TIP3   OH216636   6.956   4.784   3.418  0.5861  0.1609  0.4585
 5560TIP3    H116637   6.893   4.854   3.437 -1.0237 -1.4051  1.1413
 5560TIP3    H216638   6.954   4.776   3.323 -1.4124 -0.8334  0.5332
 5561TIP3   OH216639   3.118   6.624   4.688 -0.2006 -0.4017 -0.1011
 5561TIP3    H116640   3.087   6.535   4.671 -0.2249 -0.3786 -0.1778
 5561TIP3    H216641   3.063   6.680   4.633 -1.7537 -0.1082  1.6368
 5562TIP3   OH216642   7.443   3.368   3.919  0.6139 -0.3984 -0.2074
 5562TIP3    H116643   7.490   3.285   3.909  2.8729  0.6218  1.1170
 5562TIP3    H216644   7.457   3.392   4.011  0.1983  1.5463 -0.6109
 5563TIP3   OH216645   1.716   1.753   1.823  0.0108  0.6644  0.0078
 5563TIP3    H116646   1.653   1.683   1.808  0.2709  0.1653  1.1180
 5563TIP3    H216647   1.726   1.756   1.918  0.6124  1.6744 -0.0700
 5564TIP3   OH216648   7.610   0.051   1.087 -0.6043 -0.3175  0.4884
 5564TIP3    H116649   7.703   0.031   1.074  0.4947  3.5538  0.9902
 5564TIP3    H216650   7.602   0.063   1.182 -0.8174  1.9828  0.2573
 5565TIP3   OH216651   0.343   1.131   5.922  0.2341  0.2728  0.2281
 5565TIP3    H116652   0.404   1.075   5.969 -0.7744  2.4112  4.6804
 5565TIP3    H216653   0.293   1.071   5.866  3.0868 -2.1959  0.0678
 5566TIP3   OH216654   1.952   6.358   2.257 -0.0806 -0.1760 -0.2348
 5566TIP3    H116655   1.965   6.444   2.217  0.5196 -0.3710 -0.4755
 5566TIP3    H216656   1.861   6.359   2.287 -0.3601  0.2000 -1.0625
 5567TIP3   OH216657   4.310   7.446   3.771  0.2266  0.2874 -0.1159
 5567TIP3    H116658   4.302   7.406   3.684  0.3068  1.6069 -0.7466
 5567TIP3    H216659   4.258   7.525   3.766 -1.2595 -0.5058  1.6352
 5568TIP3   OH216660   1.015   0.408   2.999 -0.7188  0.7987  0.4509
 5568TIP3    H116661   0.955   0.341   3.033  0.4696 -0.5209  0.0637
 5568TIP3    H216662   0.972   0.440   2.920 -0.7489 -0.4137 -0.0469
 5569TIP3   OH216663   4.627   1.195   1.147  0.0592 -0.0923 -0.7455
 5569TIP3    H116664   4.616   1.104   1.172  1.0915  0.1496  0.7623
 5569TIP3    H216665   4.574   1.206   1.068 -3.7180 -0.8674  1.4363
 5570TIP3   OH216666   2.122   0.659   2.724 -0.0554  0.0544  0.0672
 5570TIP3    H116667   2.109   0.731   2.662 -1.4952  0.4050  0.7251
 5570TIP3    H216668   2.188   0.691   2.784  0.2366  0.3218 -0.3904
 5571TIP3   OH216669   3.145   1.685   5.752 -0.2236  1.0094 -0.3688
 5571TIP3    H116670   3.213   1.745   5.722 -0.3550  1.2533 -0.1830
 5571TIP3    H216671   3.174   1.656   5.839 -0.5557  1.4365 -0.1094
 5572TIP3   OH216672   3.687   3.064   3.731  0.5886  0.2013 -0.1050
 5572TIP3    H116673   3.648   3.138   3.685  1.1081  0.6049  0.0874
 5572TIP3    H216674   3.640   3.059   3.814  0.8515  0.6025  0.0702
 5573TIP3   OH216675   1.861   4.328   1.147  0.0023 -0.7958  0.3678
 5573TIP3    H116676   1.879   4.281   1.066 -0.0253 -1.1665  0.5759
 5573TIP3    H216677   1.771   4.303   1.169 -0.0050 -0.6623  0.4887
 5574TIP3   OH216678   8.223   0.617   6.348  0.0175 -0.1269  0.1896
 5574TIP3    H116679   8.297   0.632   6.289 -1.0659 -1.2460 -1.5390
 5574TIP3    H216680   8.171   0.697   6.341 -0.1505 -0.2842 -0.4830
 5575TIP3   OH216681   2.582   0.861   2.018  0.1419  0.3422  0.0303
 5575TIP3    H116682   2.503   0.878   2.069 -2.3392 -0.9702 -3.0306
 5575TIP3    H216683   2.585   0.766   2.010  2.9237  0.2543  1.2194
 5576TIP3   OH216684   3.316   7.048   4.402 -0.0924  0.4723  0.2482
 5576TIP3    H116685   3.360   7.018   4.482 -0.8464  0.6779  0.7586
 5576TIP3    H216686   3.230   7.077   4.433 -0.5650  0.1213 -0.7140
 5577TIP3   OH216687   1.325   0.046   4.780  0.4242  0.0128 -0.1380
 5577TIP3    H116688   1.348   0.138   4.769 -0.5735  0.1587 -1.1492
 5577TIP3    H216689   1.264   0.045   4.854 -0.5523  0.3454 -0.9232
 5578TIP3   OH216690   5.479   1.207   2.937  0.2351 -0.0890 -0.2550
 5578TIP3    H116691   5.389   1.211   2.968  0.3847  0.4837  0.1102
 5578TIP3    H216692   5.481   1.265   2.861 -0.2296 -1.7894 -1.6328
 5579TIP3   OH216693   6.117   3.169   3.782 -0.1953 -0.2281  0.2207
 5579TIP3    H116694   6.089   3.123   3.861  1.7767 -0.7448  0.6735
 5579TIP3    H216695   6.154   3.251   3.814  1.7057 -0.9586 -0.0149
 5580TIP3   OH216696   0.880   3.944   3.251 -0.5380  0.7805  0.0268
 5580TIP3    H116697   0.823   3.975   3.322 -1.6918 -0.1424 -0.4638
 5580TIP3    H216698   0.968   3.949   3.288 -1.1920 -0.9758  2.0406
 5581TIP3   OH216699   2.546   2.257   3.219  0.0589 -0.5676  0.0446
 5581TIP3    H116700   2.572   2.170   3.190  1.7992  0.3263 -1.2359
 5581TIP3    H216701   2.544   2.309   3.139  2.3194  1.3292  1.0991
 5582TIP3   OH216702   0.858   6.029   5.781  0.3300  0.2084  0.3279
 5582TIP3    H116703   0.951   6.028   5.803  0.3930 -1.4703  0.1213
 5582TIP3    H216704   0.849   5.966   5.709 -0.8454  0.9423 -0.2029
 5583TIP3   OH216705   8.095   1.373   0.952  0.2609 -0.1563 -0.0424
 5583TIP3    H116706   8.138   1.294   0.920 -0.0921  0.4266 -2.0776
 5583TIP3    H216707   8.033   1.341   1.018  0.5825 -1.5076 -0.3618
 5584TIP3   OH216708   0.152   7.309   5.798  0.9341 -0.0203 -0.7180
 5584TIP3    H116709   0.150   7.374   5.727  0.6682 -1.6351 -2.2718
 5584TIP3    H216710   0.103   7.235   5.763  2.7883 -1.7732  0.2360
 5585TIP3   OH216711   4.524   5.988   2.295  0.5656  0.7634  0.0502
 5585TIP3    H116712   4.539   5.991   2.389 -0.2225 -0.3734  0.2393
 5585TIP3    H216713   4.610   5.974   2.257  0.9138  1.4167  0.5908
 5586TIP3   OH216714   7.493   2.679   4.586 -0.5749 -0.3947 -0.0926
 5586TIP3    H116715   7.422   2.743   4.594 -1.4095 -1.3348  0.2278
 5586TIP3    H216716   7.491   2.631   4.669 -0.8186 -1.7029 -0.8315
 5587TIP3   OH216717   1.250   5.608   4.215 -0.5007 -0.0146  0.0195
 5587TIP3    H116718   1.188   5.620   4.143  0.0075  0.7901 -0.2911
 5587TIP3    H216719   1.305   5.535   4.188 -0.3349  0.2610 -0.3985
 5588TIP3   OH216720   0.431   0.370   0.836  0.0185  0.0574 -0.0798
 5588TIP3    H116721   0.509   0.319   0.859  2.0012  2.7061 -0.3825
 5588TIP3    H216722   0.412   0.345   0.745  0.1881 -0.9632  0.1512
 5589TIP3   OH216723   7.028   4.158   6.069 -0.3016 -0.1648  0.0883
 5589TIP3    H116724   7.116   4.169   6.104  0.2599  1.6208 -1.6702
 5589TIP3    H216725   6.980   4.235   6.100 -0.6691 -0.1314 -0.5439
 5590TIP3   OH216726   0.528   6.792   1.153 -0.1566 -0.0567 -0.0707
 5590TIP3    H116727   0.477   6.815   1.231  0.7662 -0.1209  0.5642
 5590TIP3    H216728   0.516   6.866   1.094  0.8544  1.0009  0.9954
 5591TIP3   OH216729   2.575   0.576   2.017  0.7528  0.1828 -0.2551
 5591TIP3    H116730   2.537   0.547   1.934 -2.3887  1.7079  0.4779
 5591TIP3    H216731   2.589   0.495   2.066  0.8602 -0.6203 -1.5590
 5592TIP3   OH216732   6.116   2.474   1.842  0.2596  0.3038 -0.1411
 5592TIP3    H116733   6.193   2.423   1.818  0.8547  0.9948  0.2830
 5592TIP3    H216734   6.049   2.448   1.779  0.3663 -1.4379  0.4098
 5593TIP3   OH216735   3.733   4.108   5.768  0.1444  0.1374  0.7129
 5593TIP3    H116736   3.738   4.075   5.678  0.8744  2.6900 -0.2640
 5593TIP3    H216737   3.641   4.093   5.793  0.2703 -1.9234  0.1433
 5594TIP3   OH216738   0.338   3.625   6.274  0.2609 -1.2099  0.1818
 5594TIP3    H116739   0.340   3.542   6.321 -1.3060 -1.3804  0.0039
 5594TIP3    H216740   0.354   3.602   6.183 -0.3305 -1.3546  0.1089
 5595TIP3   OH216741   0.095   3.248   6.366 -1.3549 -0.3081  0.5873
 5595TIP3    H116742   0.125   3.158   6.359 -1.6234 -0.2922 -1.0728
 5595TIP3    H216743   0.017   3.243   6.421 -1.3458 -1.0796  0.5415
 5596TIP3   OH216744   0.424   5.949   0.101 -0.7507 -0.1675  0.0446
 5596TIP3    H116745   0.501   6.004   0.090  0.3398 -1.3201  1.5379
 5596TIP3    H216746   0.453   5.879   0.159 -2.8298 -0.8473  0.3285
 5597TIP3   OH216747   7.817   2.673   5.688 -0.2191  0.1961  0.1445
 5597TIP3    H116748   7.805   2.623   5.608 -2.3488 -0.1091  0.5828
 5597TIP3    H216749   7.833   2.608   5.756 -1.9206  0.1182  0.5261
 5598TIP3   OH216750   3.925   2.081   4.794  0.3437  0.4227  0.7102
 5598TIP3    H116751   3.864   2.144   4.832 -1.4446  0.5574 -2.0632
 5598TIP3    H216752   3.956   2.124   4.714  1.6102 -0.9626  0.4169
 5599TIP3   OH216753   7.370   5.778   2.069 -0.3823 -0.5324 -0.0084
 5599TIP3    H116754   7.358   5.870   2.089 -1.7655 -0.5391 -0.6344
 5599TIP3    H216755   7.281   5.744   2.058  0.1171 -1.3047 -2.4648
 5600TIP3   OH216756   5.409   0.850   5.178  0.7336 -0.2743  0.6935
 5600TIP3    H116757   5.328   0.889   5.146  0.2700 -0.5963  1.4632
 5600TIP3    H216758   5.465   0.925   5.199 -0.2358  0.0193  2.3793
 5601TIP3   OH216759   6.658   0.554   3.162 -0.6713  0.4886  0.6946
 5601TIP3    H116760   6.641   0.494   3.089 -1.5050  1.4467  0.0887
 5601TIP3    H216761   6.741   0.522   3.199 -1.1674 -1.1370  0.5047
 5602TIP3   OH216762   2.557   6.384   1.064 -0.6114  0.1157  0.1348
 5602TIP3    H116763   2.508   6.466   1.069 -0.7745  0.0463 -0.3369
 5602TIP3    H216764   2.561   6.363   0.971  2.4050  1.3849 -0.1343
 5603TIP3   OH216765   5.383   3.357   2.465  0.5729  0.0935 -0.0075
 5603TIP3    H116766   5.316   3.313   2.517  0.2616 -0.7104 -1.0264
 5603TIP3    H216767   5.334   3.403   2.397  0.9342  1.6269  0.7367
 5604TIP3   OH216768   5.696   0.336   4.930 -0.2039 -0.1098  0.6757
 5604TIP3    H116769   5.782   0.322   4.970  0.2577  0.3836 -0.1129
 5604TIP3    H216770   5.714   0.340   4.836 -0.7474  2.2614  0.6046
 5605TIP3   OH216771   2.175   6.065   3.844 -0.3284  0.2270 -0.2669
 5605TIP3    H116772   2.100   6.005   3.835  0.2217 -0.2779 -1.8486
 5605TIP3    H216773   2.148   6.144   3.797  1.0259 -0.8967 -3.1461
 5606TIP3   OH216774   6.399   1.285   2.626  0.1942  0.9632 -0.1378
 5606TIP3    H116775   6.424   1.245   2.709  1.6215 -0.7578 -1.3412
 5606TIP3    H216776   6.424   1.377   2.635  1.3997  0.5534  0.9120
 5607TIP3   OH216777   8.220   1.259   6.261 -0.7786 -0.4859  0.4613
 5607TIP3    H116778   8.150   1.219   6.208 -0.8990  1.4810 -0.9598
 5607TIP3    H216779   8.183   1.264   6.349 -1.3376 -2.0269  0.3505
 5608TIP3   OH216780   0.012   4.029   6.799  0.6837  0.1568 -0.1747
 5608TIP3    H116781  -0.049   4.010   6.727  2.0642 -1.3889 -0.9794
 5608TIP3    H216782   0.043   4.117   6.780  2.9164 -1.0810 -2.9832
 5609TIP3   OH216783   5.243   0.943   4.296 -0.0529  0.0451 -0.8870
 5609TIP3    H116784   5.234   1.008   4.366  3.6267 -0.8167  0.6106
 5609TIP3    H216785   5.324   0.967   4.251  0.8792 -2.7926 -0.9442
 5610TIP3   OH216786   0.858   4.122   4.856 -0.7712 -0.0640  0.4636
 5610TIP3    H116787   0.931   4.068   4.825 -1.5397 -0.5392 -0.5645
 5610TIP3    H216788   0.802   4.132   4.780 -1.1147  1.4261  0.8939
 5611TIP3   OH216789   5.419   2.655   5.035 -0.6142  0.2125 -0.1145
 5611TIP3    H116790   5.437   2.626   4.946 -0.6871  0.4222 -0.1987
 5611TIP3    H216791   5.333   2.698   5.029 -0.7743 -0.0699  0.1222
 5612TIP3   OH216792   3.402   7.448   1.034  0.1723  0.3420 -0.5381
 5612TIP3    H116793   3.324   7.483   0.990  0.1905 -0.2814 -1.0678
 5612TIP3    H216794   3.372   7.367   1.075  0.2002  0.8224  0.4538
 5613TIP3   OH216795   1.750   7.468   5.198 -0.9609 -0.7583 -0.3980
 5613TIP3    H116796   1.705   7.526   5.260 -0.2008 -0.6770  0.0990
 5613TIP3    H216797   1.710   7.382   5.211 -1.4383 -0.5431 -0.4523
 5614TIP3   OH216798   4.511   6.894   1.617  0.3767 -0.3400 -0.1880
 5614TIP3    H116799   4.485   6.825   1.556  0.3191 -0.2880 -0.2235
 5614TIP3    H216800   4.598   6.920   1.587  1.0927 -1.5185  0.8269
 5615TIP3   OH216801   6.663   3.493   2.996 -0.5027 -0.1281  0.0582
 5615TIP3    H116802   6.653   3.408   3.038 -1.1481  0.1192  0.4192
 5615TIP3    H216803   6.588   3.499   2.936  0.0584 -0.2075 -0.6673
 5616TIP3   OH216804   5.161   5.343   2.098 -1.2054  0.2013  0.0470
 5616TIP3    H116805   5.166   5.414   2.034 -0.5492  0.7167  0.6585
 5616TIP3    H216806   5.155   5.264   2.045 -1.6970  0.6862 -0.6484
 5617TIP3   OH216807   3.633   2.102   6.575  0.1960 -0.0259  0.0546
 5617TIP3    H116808   3.540   2.120   6.592  0.4915  1.2240  0.4342
 5617TIP3    H216809   3.664   2.060   6.655 -0.0522 -0.5408 -0.1113
 5618TIP3   OH216810   3.030   6.589   0.836  0.1464  0.0735 -0.3365
 5618TIP3    H116811   3.086   6.514   0.814 -0.3161 -0.5938  0.6847
 5618TIP3    H216812   2.983   6.561   0.915 -0.1914  1.3636 -0.0653
 5619TIP3   OH216813   5.420   6.553   2.777  0.1664 -0.5168 -0.1954
 5619TIP3    H116814   5.496   6.611   2.787  0.1883 -0.2859 -1.4746
 5619TIP3    H216815   5.453   6.480   2.725 -0.1141 -1.2021  0.5709
 5620TIP3   OH216816   2.236   1.071   0.587 -0.6615 -0.2486 -0.2534
 5620TIP3    H116817   2.279   1.005   0.641  1.9330  0.3530 -1.4505
 5620TIP3    H216818   2.226   1.029   0.502 -0.9933  0.1884 -0.4330
 5621TIP3   OH216819   1.099   3.876   3.042  0.1441  0.4007  0.1348
 5621TIP3    H116820   1.132   3.821   2.971  0.1922  0.4842  0.0931
 5621TIP3    H216821   1.139   3.840   3.121 -1.3068 -0.8477  0.3529
 5622TIP3   OH216822   2.730   3.806   2.276 -0.1314 -0.1780 -0.0337
 5622TIP3    H116823   2.781   3.768   2.205  0.0404 -0.2034  0.1016
 5622TIP3    H216824   2.668   3.864   2.233 -0.0381 -0.2058 -0.2055
 5623TIP3   OH216825   7.570   2.046   1.026 -0.9635  0.1280  0.0522
 5623TIP3    H116826   7.566   2.121   1.085 -0.3437  0.2167 -0.0184
 5623TIP3    H216827   7.593   2.084   0.941 -1.1647 -0.0803 -0.0951
 5624TIP3   OH216828   2.687   6.041   4.677 -0.6491 -0.8783 -0.4540
 5624TIP3    H116829   2.594   6.023   4.691 -0.6945 -0.5043 -0.2494
 5624TIP3    H216830   2.733   5.982   4.737 -0.8113 -0.0200  0.5608
 5625TIP3   OH216831   7.838   1.154   4.464  0.2052 -0.2985 -0.2694
 5625TIP3    H116832   7.877   1.080   4.416  0.4884 -0.2778 -0.0718
 5625TIP3    H216833   7.909   1.188   4.518  0.0612  0.0874 -0.3173
 5626TIP3   OH216834   6.217   0.149   5.799 -0.6110 -0.1088  0.1487
 5626TIP3    H116835   6.220   0.239   5.832 -1.5290 -0.6291  1.7506
 5626TIP3    H216836   6.200   0.095   5.877  0.4522 -1.7355 -0.6775
 5627TIP3   OH216837   1.885   1.042   2.097  0.4616  0.2879 -0.7228
 5627TIP3    H116838   1.942   0.965   2.104  1.1285  0.9275  1.7784
 5627TIP3    H216839   1.943   1.113   2.069  0.9964  0.9370  1.8143
 5628TIP3   OH216840   6.105   0.936   3.999  0.3377  0.0281  0.6023
 5628TIP3    H116841   6.192   0.901   4.017  0.3034 -0.3419  0.0603
 5628TIP3    H216842   6.081   0.900   3.914 -0.7522 -0.6908  1.1702
 5629TIP3   OH216843   2.840   2.929   2.209  0.2723  0.9826 -0.0784
 5629TIP3    H116844   2.750   2.898   2.209 -0.3280  2.5873 -0.3488
 5629TIP3    H216845   2.893   2.850   2.215 -1.1077 -0.1323 -1.5616
 5630TIP3   OH216846   4.808   7.299   1.387 -0.1208 -0.3093  0.1373
 5630TIP3    H116847   4.895   7.326   1.358 -0.3812  1.1547  0.6023
 5630TIP3    H216848   4.824   7.234   1.455  0.7317  1.5672  1.8294
 5631TIP3   OH216849   6.701   7.178   5.710 -0.1355 -0.2199 -0.1491
 5631TIP3    H116850   6.621   7.134   5.739 -0.3683 -0.2685 -0.8579
 5631TIP3    H216851   6.771   7.118   5.734 -0.4800 -1.2046 -1.4929
 5632TIP3   OH216852   6.581   5.615   5.202  0.2853  0.0247  0.1946
 5632TIP3    H116853   6.577   5.527   5.239  0.3515 -0.5590 -1.1228
 5632TIP3    H216854   6.489   5.640   5.191  0.2342  0.8759  2.2171
 5633TIP3   OH216855   3.533   5.284   0.878  0.1772  0.0824  0.4429
 5633TIP3    H116856   3.478   5.226   0.931  0.0171  0.8584  1.1366
 5633TIP3    H216857   3.475   5.315   0.808  0.8744 -2.4799 -1.4675
 5634TIP3   OH216858   1.498   5.785   6.545  0.5610  0.8564 -0.6669
 5634TIP3    H116859   1.469   5.830   6.624 -0.1427 -2.7543  1.3389
 5634TIP3    H216860   1.418   5.766   6.497  0.4819 -0.7328  0.0262
 5635TIP3   OH216861   6.219   2.103   2.991  0.5628  0.2803  0.3447
 5635TIP3    H116862   6.235   2.171   3.056  1.1915  1.1139 -0.6424
 5635TIP3    H216863   6.208   2.150   2.908  0.1013 -0.7667 -0.2192
 5636TIP3   OH216864   0.071   0.939   1.812 -0.1394 -0.6942 -0.6107
 5636TIP3    H116865   0.089   0.991   1.890 -1.8355  0.3878 -0.9034
 5636TIP3    H216866   0.036   0.856   1.846  0.8833 -0.9711 -0.1969
 5637TIP3   OH216867   4.028   4.276   5.112  0.4821 -0.2026 -0.1577
 5637TIP3    H116868   3.997   4.314   5.030  0.4852 -0.0073 -0.0691
 5637TIP3    H216869   4.068   4.193   5.086  0.3393 -0.2170 -0.3332
 5638TIP3   OH216870   6.285   1.054   5.069 -0.6259 -0.2351 -0.2689
 5638TIP3    H116871   6.200   1.049   5.111 -0.6179  0.2006 -0.1933
 5638TIP3    H216872   6.289   0.978   5.012 -0.6262 -0.8570  0.5377
 5639TIP3   OH216873   3.438   5.835   6.788 -0.2271  0.1095  0.0985
 5639TIP3    H116874   3.387   5.888   6.727 -0.1805 -1.5499 -1.4905
 5639TIP3    H216875   3.523   5.824   6.745 -0.4269 -1.6666  0.0800
 5640TIP3   OH216876   6.352   3.699   4.525 -0.5365 -0.4965  0.7598
 5640TIP3    H116877   6.299   3.640   4.579 -0.3525 -1.4038 -0.0228
 5640TIP3    H216878   6.322   3.682   4.435  0.8567 -0.8174  0.3288
 5641TIP3   OH216879   5.536   2.418   0.470  0.7007  0.2722  0.7484
 5641TIP3    H116880   5.554   2.502   0.429  0.7402 -0.2537 -0.3370
 5641TIP3    H216881   5.572   2.353   0.410 -0.5081 -0.5889  0.9094
 5642TIP3   OH216882   1.388   0.992   2.869  0.1976 -0.0872 -0.3593
 5642TIP3    H116883   1.393   1.020   2.961 -0.2989  1.3825 -0.7538
 5642TIP3    H216884   1.477   0.965   2.848  0.6930  1.0695  0.1170
 5643TIP3   OH216885   6.493   6.006   6.595 -0.0899  0.3542  0.1958
 5643TIP3    H116886   6.503   6.102   6.594 -1.1842  0.4741 -0.4599
 5643TIP3    H216887   6.429   5.990   6.664  1.0077 -0.0216  1.1556
 5644TIP3   OH216888   2.158   1.334   1.757  0.1742  0.5097  0.2297
 5644TIP3    H116889   2.106   1.307   1.681 -0.1068  2.3448 -0.2870
 5644TIP3    H216890   2.248   1.340   1.724  0.2683  0.0141  0.3951
 5645TIP3   OH216891   6.546   2.943   1.540 -0.0821 -0.0597  0.3079
 5645TIP3    H116892   6.592   3.027   1.546 -0.3294  0.0553  0.6240
 5645TIP3    H216893   6.473   2.959   1.480  1.1161 -0.6273 -1.3715
 5646TIP3   OH216894   3.920   3.676   0.341 -0.0481  0.2584  0.1318
 5646TIP3    H116895   4.013   3.675   0.321 -0.6063  0.0631 -3.0150
 5646TIP3    H216896   3.890   3.587   0.322 -1.0371  0.5741  0.1222
 5647TIP3   OH216897   0.298   4.599   6.181 -0.1880  0.4508 -0.0797
 5647TIP3    H116898   0.372   4.549   6.147 -1.3060 -0.2745 -1.5247
 5647TIP3    H216899   0.303   4.587   6.276  1.0583 -0.2481 -0.2097
 5648TIP3   OH216900   3.188   2.139   4.216  0.3240  0.5727 -0.2195
 5648TIP3    H116901   3.200   2.046   4.236 -0.3309  0.7856  1.3753
 5648TIP3    H216902   3.098   2.146   4.185  0.4452  0.6449 -0.5558
 5649TIP3   OH216903   6.906   5.440   1.687  0.3389 -0.2651  0.4614
 5649TIP3    H116904   6.989   5.468   1.725  0.4978 -0.5525  0.3200
 5649TIP3    H216905   6.847   5.515   1.702  0.9022  0.3612 -0.3930
 5650TIP3   OH216906   0.106   5.497   1.491  0.6981 -0.5856  0.1079
 5650TIP3    H116907   0.010   5.493   1.493  0.6961 -0.2808  0.7764
 5650TIP3    H216908   0.125   5.584   1.455  0.7194 -0.4422  0.4609
 5651TIP3   OH216909   4.950   0.773   4.519  0.0454 -0.5053  0.6483
 5651TIP3    H116910   4.909   0.813   4.442  1.0278 -1.6395 -0.5132
 5651TIP3    H216911   4.878   0.729   4.564 -0.4756 -0.1820  0.1516
 5652TIP3   OH216912   2.829   2.167   5.723  0.0859  0.0630 -0.2033
 5652TIP3    H116913   2.807   2.108   5.796  1.5450 -0.3301 -0.0505
 5652TIP3    H216914   2.810   2.116   5.645  0.7073 -0.3863 -0.0731
 5653TIP3   OH216915   5.973   6.984   5.629 -0.0198 -0.2787  0.2592
 5653TIP3    H116916   6.019   7.029   5.558  0.2456  1.7397  1.6212
 5653TIP3    H216917   6.042   6.937   5.676  0.1067 -0.1595  0.1957
 5654TIP3   OH216918   5.626   4.712   0.250  0.0103 -0.5639 -0.1116
 5654TIP3    H116919   5.671   4.719   0.166 -1.1635  0.5779 -0.6862
 5654TIP3    H216920   5.610   4.619   0.261  0.7052 -0.7836 -0.8554
 5655TIP3   OH216921   0.756   0.234   5.762 -0.5236 -0.3246 -0.4131
 5655TIP3    H116922   0.783   0.271   5.678  0.1140  1.2419  0.4433
 5655TIP3    H216923   0.686   0.291   5.792 -0.3635 -0.5478  0.3896
 5656TIP3   OH216924   5.486   7.124   1.353 -0.0108  0.0965  0.1633
 5656TIP3    H116925   5.491   7.163   1.265  0.6875 -1.0767 -0.3502
 5656TIP3    H216926   5.467   7.197   1.411  1.1418  1.1723 -0.7688
 5657TIP3   OH216927   4.918   2.108   1.649  0.2516  0.3313 -0.4090
 5657TIP3    H116928   4.929   2.092   1.556 -1.2331 -1.3015 -0.3690
 5657TIP3    H216929   5.007   2.119   1.683  0.7834  1.5449 -2.0770
 5658TIP3   OH216930   1.567   7.485   1.767 -0.2089 -0.3352 -0.8448
 5658TIP3    H116931   1.487   7.520   1.728 -1.9884 -3.1188  0.0273
 5658TIP3    H216932   1.546   7.476   1.860  0.8720 -1.7240 -0.7064
 5659TIP3   OH216933   3.963   0.916   0.895  0.2927  0.5555 -0.3402
 5659TIP3    H116934   3.969   0.906   0.800 -0.3691 -0.3537 -0.2992
 5659TIP3    H216935   3.923   1.003   0.908 -1.2231 -0.0238 -0.9500
 5660TIP3   OH216936   7.996   0.989   3.920 -0.5828  0.3826  0.3564
 5660TIP3    H116937   7.932   0.918   3.927 -1.4365  0.9773 -1.0057
 5660TIP3    H216938   8.051   0.964   3.845 -0.9522  1.1911 -0.1956
 5661TIP3   OH216939   0.081   4.473   2.101 -0.6006  0.4485  0.5453
 5661TIP3    H116940   0.153   4.411   2.114  0.4962  1.6262  0.1457
 5661TIP3    H216941   0.070   4.479   2.006 -1.2127  0.3094  0.6001
 5662TIP3   OH216942   5.509   3.848   2.922  0.3873 -0.7522  0.2422
 5662TIP3    H116943   5.585   3.818   2.873  1.8657 -0.8391  2.4790
 5662TIP3    H216944   5.486   3.775   2.978 -0.7592 -0.3681  0.3006
 5663TIP3   OH216945   2.146   0.471   1.989 -0.4470 -0.0663 -0.3227
 5663TIP3    H116946   2.185   0.465   1.902  2.1365  0.9057  0.6741
 5663TIP3    H216947   2.114   0.382   2.007  1.2145 -0.9118 -1.3000
 5664TIP3   OH216948   0.950   1.326   0.068 -0.2491  0.2650 -0.3384
 5664TIP3    H116949   1.044   1.338   0.055  0.0029 -1.8369 -0.7861
 5664TIP3    H216950   0.915   1.313  -0.019 -0.3124 -2.7025  0.0425
 5665TIP3   OH216951   0.107   3.719   6.412 -0.1167  0.6598 -0.3320
 5665TIP3    H116952   0.134   3.738   6.502 -1.0555 -0.6266  0.2612
 5665TIP3    H216953   0.180   3.670   6.375 -0.1755  0.2362  0.1021
 5666TIP3   OH216954   3.462   0.897   6.443 -0.3390  0.0301  0.9128
 5666TIP3    H116955   3.457   0.952   6.365 -1.3417 -1.6994 -0.3297
 5666TIP3    H216956   3.374   0.899   6.479 -0.6431 -1.4017  0.3267
 5667TIP3   OH216957   1.943   7.013   1.322 -0.3123  0.6789 -0.6604
 5667TIP3    H116958   1.928   6.946   1.256  0.5717  0.9857 -1.1887
 5667TIP3    H216959   1.856   7.039   1.350 -0.7686  1.5583 -2.7324
 5668TIP3   OH216960   1.525   5.443   0.010  0.1979 -0.5568  0.2089
 5668TIP3    H116961   1.490   5.358   0.035 -0.5937  0.7245  4.2749
 5668TIP3    H216962   1.591   5.462   0.076 -0.1477  2.2677 -0.1351
 5669TIP3   OH216963   3.500   6.036   3.967 -0.4767 -1.1048 -0.0178
 5669TIP3    H116964   3.418   5.997   3.998 -1.1590  0.6340  0.4814
 5669TIP3    H216965   3.473   6.105   3.908  0.6902 -1.2501 -0.7523
 5670TIP3   OH216966   8.213   4.529   3.605 -0.3822  0.0905 -0.1355
 5670TIP3    H116967   8.252   4.528   3.518  1.7099 -1.6974  0.7406
 5670TIP3    H216968   8.286   4.549   3.664 -1.3634 -0.5674  1.3616
 5671TIP3   OH216969   6.291   5.404   2.929 -0.1801  0.0826  0.5112
 5671TIP3    H116970   6.343   5.484   2.923  1.1421 -0.8739 -2.4195
 5671TIP3    H216971   6.346   5.344   2.980  0.7407 -0.2350 -0.7928
 5672TIP3   OH216972   7.228   4.359   2.719 -0.5438  0.2817  0.3665
 5672TIP3    H116973   7.286   4.418   2.768 -2.2725  1.1578  1.4671
 5672TIP3    H216974   7.200   4.410   2.643  1.1201 -0.6290 -0.9434
 5673TIP3   OH216975   4.340   2.090   5.200  0.2818 -0.6587 -0.2583
 5673TIP3    H116976   4.435   2.097   5.194  0.2337 -1.2033 -2.6154
 5673TIP3    H216977   4.309   2.180   5.208  0.9610 -0.4174 -0.3158
 5674TIP3   OH216978   6.582   5.302   2.537 -0.3060  0.2515  0.4472
 5674TIP3    H116979   6.622   5.230   2.585 -0.3484 -1.9848 -2.5504
 5674TIP3    H216980   6.500   5.319   2.583 -0.0670 -1.2927  1.5388
 5675TIP3   OH216981   1.262   0.688   4.848  0.3621 -0.1836 -0.2944
 5675TIP3    H116982   1.180   0.735   4.836  0.1308 -0.3485  0.5727
 5675TIP3    H216983   1.303   0.729   4.924 -0.1466 -1.7364  0.8922
 5676TIP3   OH216984   2.381   1.188   5.063 -0.0213  0.4894  0.6891
 5676TIP3    H116985   2.352   1.195   5.154 -0.9169 -0.4157  0.4808
 5676TIP3    H216986   2.365   1.097   5.039  3.6343 -0.3226  0.7462
 5677TIP3   OH216987   5.548   5.707   5.195 -0.0396 -0.4192 -0.4136
 5677TIP3    H116988   5.478   5.659   5.152  0.7613 -1.1790 -0.9125
 5677TIP3    H216989   5.527   5.701   5.289 -0.6190 -0.6658 -0.5573
 5678TIP3   OH216990   8.227   5.469   1.142 -0.1459 -0.5821 -0.0476
 5678TIP3    H116991   8.321   5.472   1.159  0.1027  0.9892 -1.5105
 5678TIP3    H216992   8.220   5.450   1.049 -1.2404  0.7481 -0.2616
 5679TIP3   OH216993   6.573   3.913   1.074 -0.3049  0.1014 -0.2822
 5679TIP3    H116994   6.575   3.894   1.168  0.8457  0.4242 -0.2177
 5679TIP3    H216995   6.617   3.839   1.033 -2.2966 -0.8649 -0.7598
 5680TIP3   OH216996   4.583   5.048   6.097  0.0747  0.1601  0.4346
 5680TIP3    H116997   4.535   5.116   6.049  0.3475 -0.6821 -1.0877
 5680TIP3    H216998   4.655   5.095   6.140 -0.2910  0.9613  0.1803
 5681TIP3   OH216999   0.435   7.785   4.491  0.2373 -0.2572 -0.4903
 5681TIP3    H117000   0.425   7.880   4.494  0.6458 -0.2252  1.7671
 5681TIP3    H217001   0.461   7.767   4.401 -1.9722  1.5033 -1.5723
 5682TIP3   OH217002   4.769   2.466   6.204  0.5177  0.2738  0.1620
 5682TIP3    H117003   4.692   2.410   6.200  0.7345 -0.0772  0.8415
 5682TIP3    H217004   4.749   2.538   6.143 -0.0985 -0.1106 -0.1005
 5683TIP3   OH217005   4.381   0.878   5.368  0.1728  0.2621  0.4218
 5683TIP3    H117006   4.405   0.905   5.457  0.7874  1.2056 -0.0178
 5683TIP3    H217007   4.453   0.823   5.340 -0.5133 -0.9031  0.8735
 5684TIP3   OH217008   6.957   7.639   3.872 -0.1905  0.3288  0.2957
 5684TIP3    H117009   6.943   7.705   3.941 -1.0692  2.5220 -1.8429
 5684TIP3    H217010   6.878   7.643   3.819  1.8235  1.3804 -2.9090
 5685TIP3   OH217011   4.839   7.621   3.646 -0.2389 -0.1664 -0.2653
 5685TIP3    H117012   4.917   7.596   3.695  0.2808  1.3385 -0.2864
 5685TIP3    H217013   4.872   7.659   3.565 -0.9844  0.2337 -0.3917
 5686TIP3   OH217014   5.859   3.095   4.473 -0.4229 -0.4218 -0.0440
 5686TIP3    H117015   5.912   3.148   4.413  0.9208 -1.5576  0.0905
 5686TIP3    H217016   5.908   3.095   4.555 -0.8739 -1.1057  0.2373
 5687TIP3   OH217017   0.773   0.544   6.587  0.1660  0.3460  0.2052
 5687TIP3    H117018   0.773   0.483   6.661  1.7927 -1.8618 -1.4910
 5687TIP3    H217019   0.767   0.487   6.509  0.9993  2.4105 -1.4457
 5688TIP3   OH217020   0.836   4.556   5.493  0.2044  0.1919  0.4618
 5688TIP3    H117021   0.819   4.597   5.578 -3.0125  0.0914 -0.0096
 5688TIP3    H217022   0.907   4.494   5.511  0.0023  0.5512  2.9511
 5689TIP3   OH217023   2.553   3.282   4.690 -0.0072  0.1524 -0.3795
 5689TIP3    H117024   2.530   3.192   4.711  0.2847  0.3016  0.6315
 5689TIP3    H217025   2.620   3.274   4.622 -0.7591 -0.3514 -1.0791
 5690TIP3   OH217026   8.299   4.874   5.475 -0.6100  0.1005  0.0597
 5690TIP3    H117027   8.234   4.912   5.534  1.1056  0.6041  1.7535
 5690TIP3    H217028   8.343   4.949   5.435 -1.7171 -0.2382 -1.9008
 5691TIP3   OH217029   7.712   0.500   1.366 -0.1834 -0.2071 -0.0416
 5691TIP3    H117030   7.714   0.594   1.350  1.0098 -0.1895  0.1451
 5691TIP3    H217031   7.759   0.463   1.291  1.4394 -0.4639  1.0592
 5692TIP3   OH217032   6.288   5.536   1.735 -0.5447 -0.2213  0.4320
 5692TIP3    H117033   6.306   5.535   1.641 -0.3876  1.2587  0.4213
 5692TIP3    H217034   6.230   5.611   1.748 -0.0620 -0.0219  1.5949
 5693TIP3   OH217035   0.363   7.730   4.773 -0.2650  0.2995 -0.0573
 5693TIP3    H117036   0.340   7.819   4.801  0.7192  0.2570  0.9655
 5693TIP3    H217037   0.420   7.744   4.697 -1.1640  0.4850 -0.7182
 5694TIP3   OH217038   0.085   2.580   3.277 -0.0861  0.2092  0.2324
 5694TIP3    H117039   0.018   2.528   3.321  0.7335 -0.6144  0.5399
 5694TIP3    H217040   0.154   2.591   3.341 -0.9378  3.2319  0.7903
 5695TIP3   OH217041   1.034   0.472   1.050 -0.2201 -0.1041 -0.2889
 5695TIP3    H117042   0.955   0.426   1.022  0.5763 -0.7718 -1.5598
 5695TIP3    H217043   1.076   0.413   1.113 -0.1283 -0.3092 -0.5380
 5696TIP3   OH217044   5.332   4.805   0.175 -0.4195  0.2099  0.3979
 5696TIP3    H117045   5.339   4.760   0.259  1.2546 -1.4169 -0.5643
 5696TIP3    H217046   5.337   4.736   0.109 -3.1994  1.2499 -1.1176
 5697TIP3   OH217047   4.159   1.991   3.782 -0.3606 -0.1086 -0.1342
 5697TIP3    H117048   4.250   2.020   3.772 -0.6187 -0.0218 -3.0067
 5697TIP3    H217049   4.148   1.922   3.716 -2.5498  0.3432 -0.3163
 5698TIP3   OH217050   2.715   4.533   5.635 -0.7544  0.1020 -0.2572
 5698TIP3    H117051   2.650   4.466   5.615 -0.0931 -0.5320 -0.3478
 5698TIP3    H217052   2.797   4.498   5.598 -0.7427  1.8223 -2.0101
 5699TIP3   OH217053   0.205   4.315   2.399 -0.2429  0.2198 -0.1002
 5699TIP3    H117054   0.115   4.324   2.367 -0.2020 -0.3900 -0.3976
 5699TIP3    H217055   0.217   4.391   2.457 -1.2145 -0.1174  0.5687
 5700TIP3   OH217056   7.296   5.184   5.104 -0.0233  0.7443  0.6043
 5700TIP3    H117057   7.297   5.092   5.130 -0.1028  0.9145  1.2230
 5700TIP3    H217058   7.243   5.185   5.024 -0.0888  0.2675  0.6349
 5701TIP3   OH217059   0.910   7.611   4.976 -0.1272 -0.3661  0.1340
 5701TIP3    H117060   0.881   7.520   4.972 -0.4537 -0.2385 -1.9183
 5701TIP3    H217061   0.846   7.658   4.922  0.2982  0.9984  0.7906
 5702TIP3   OH217062   1.489   0.411   1.115 -0.2658 -0.1126 -0.1408
 5702TIP3    H117063   1.504   0.347   1.185 -2.5524  0.4280  0.9705
 5702TIP3    H217064   1.418   0.466   1.149  0.9498  2.4215 -1.4513
 5703TIP3   OH217065   3.094   2.268   0.731  0.5528 -0.1301 -0.2353
 5703TIP3    H117066   3.072   2.333   0.798 -0.6175 -0.8503  0.0993
 5703TIP3    H217067   3.010   2.231   0.703  1.2319 -3.1983  1.3068
 5704TIP3   OH217068   1.727   3.076   3.720 -0.4046  0.2394 -0.0663
 5704TIP3    H117069   1.741   2.985   3.747 -0.1548  0.5457  0.9012
 5704TIP3    H217070   1.679   3.070   3.637  0.1290 -0.7733 -0.3140
 5705TIP3   OH217071   3.652   4.196   4.479  0.2995 -0.7127  0.5631
 5705TIP3    H117072   3.718   4.222   4.415 -0.3240  1.5696  0.7760
 5705TIP3    H217073   3.576   4.173   4.426 -0.4464  1.8289  0.3917
 5706TIP3   OH217074   1.632   2.924   4.408 -0.0353  0.4519 -0.3254
 5706TIP3    H117075   1.705   2.927   4.469 -0.9887 -1.3614  0.9972
 5706TIP3    H217076   1.635   2.836   4.371 -1.6567  0.2673 -0.0939
 5707TIP3   OH217077   8.260   4.305   5.160 -0.3854 -0.5583  0.1063
 5707TIP3    H117078   8.279   4.301   5.254 -1.7216 -0.0007  0.4207
 5707TIP3    H217079   8.220   4.391   5.147  0.0644 -0.5034 -1.0437
 5708TIP3   OH217080   3.413   2.276   5.266  0.4658  0.2160 -0.3897
 5708TIP3    H117081   3.378   2.188   5.257  1.5239 -0.6772  2.8873
 5708TIP3    H217082   3.337   2.330   5.290  0.4702 -0.8127  2.2169
 5709TIP3   OH217083   1.440   2.905   0.852 -0.0198 -0.7808 -0.1124
 5709TIP3    H117084   1.482   2.952   0.780  1.0453 -0.7544  0.4987
 5709TIP3    H217085   1.385   2.839   0.810 -0.0399 -0.2337 -0.9524
 5710TIP3   OH217086   6.622   4.754   2.267  0.6408 -0.4494  0.3217
 5710TIP3    H117087   6.599   4.739   2.358 -0.2369  0.5024  0.2656
 5710TIP3    H217088   6.689   4.822   2.270  1.3735 -1.1510  0.3022
 5711TIP3   OH217089   6.620   6.390   1.763  0.0188 -0.6907 -0.4858
 5711TIP3    H117090   6.649   6.326   1.698 -0.3224 -0.8009 -0.5331
 5711TIP3    H217091   6.525   6.379   1.767 -0.2025  0.6457 -1.3822
 5712TIP3   OH217092   3.478   3.984   6.199 -0.1837  0.0263  0.6719
 5712TIP3    H117093   3.433   3.899   6.209 -1.2315  0.5974  1.0153
 5712TIP3    H217094   3.418   4.036   6.146  0.1282  0.7819  1.0583
 5713TIP3   OH217095   0.310   1.518   0.339 -0.1444 -0.2512 -0.0041
 5713TIP3    H117096   0.242   1.456   0.366 -1.5415  0.6262 -1.4164
 5713TIP3    H217097   0.308   1.585   0.407  0.5916 -1.1291  0.9219
 5714TIP3   OH217098   3.787   3.553   4.993  0.1057 -0.5170  0.3573
 5714TIP3    H117099   3.771   3.520   5.081 -0.2491  1.3737  1.0584
 5714TIP3    H217100   3.715   3.613   4.976  1.1261  0.5343 -0.4813
 5715TIP3   OH217101   5.398   0.705   1.079  0.5995 -0.2181  0.5908
 5715TIP3    H117102   5.422   0.778   1.022 -0.7684 -0.1356  0.1033
 5715TIP3    H217103   5.462   0.709   1.150  1.1143  0.8856  0.0943
 5716TIP3   OH217104   1.834   3.649   0.146 -0.5482  0.0851  0.1623
 5716TIP3    H117105   1.866   3.559   0.141 -0.9570 -0.3381  3.1833
 5716TIP3    H217106   1.865   3.690   0.065  0.4094 -2.5036 -0.8917
 5717TIP3   OH217107   5.002   0.499   6.110 -0.0108 -0.1228  0.1471
 5717TIP3    H117108   4.995   0.404   6.116 -0.0072 -0.0689  1.1973
 5717TIP3    H217109   5.084   0.515   6.063  1.0999 -0.6302  1.8273
 5718TIP3   OH217110   5.775   5.930   3.643  0.3022  0.0787  0.3268
 5718TIP3    H117111   5.818   5.933   3.557  0.7026 -1.3582  0.4618
 5718TIP3    H217112   5.708   5.999   3.638  1.6567  1.4171 -0.3908
 5719TIP3   OH217113   4.078   6.439   4.679 -0.1443 -0.0973  0.1070
 5719TIP3    H117114   4.003   6.461   4.734 -0.1397 -2.0693  0.9666
 5719TIP3    H217115   4.047   6.455   4.590 -1.1977  0.2144  0.5114
 5720TIP3   OH217116   1.276   4.173   0.484  0.2307  0.7258  0.2172
 5720TIP3    H117117   1.234   4.245   0.530  0.5604  0.0368  1.6592
 5720TIP3    H217118   1.349   4.147   0.541 -0.4396 -1.3378  0.2042
 5721TIP3   OH217119   1.078   7.822   0.584 -0.0894  0.1533 -0.1131
 5721TIP3    H117120   1.057   7.729   0.596 -1.2941  0.7573  3.5234
 5721TIP3    H217121   1.009   7.854   0.526 -0.3106 -0.9762 -0.5089
 5722TIP3   OH217122   0.823   1.626  -0.003 -0.9260  0.1238  0.6258
 5722TIP3    H117123   0.851   1.541   0.030 -1.9898 -1.6796 -2.7011
 5722TIP3    H217124   0.728   1.621  -0.007 -0.9276  0.8492 -1.0488
 5723TIP3   OH217125   3.352   0.213   3.930 -0.2642  0.2089 -0.1383
 5723TIP3    H117126   3.262   0.244   3.917 -1.2270 -2.5131 -0.7121
 5723TIP3    H217127   3.375   0.172   3.847  0.1702 -2.1123  1.0669
 5724TIP3   OH217128   6.900   3.057   1.139 -0.1805 -0.0408 -0.3521
 5724TIP3    H117129   6.905   2.968   1.103  0.0439  0.2729 -1.1195
 5724TIP3    H217130   6.964   3.107   1.088  0.7599  0.2498  1.0292
 5725TIP3   OH217131   1.370   6.543   2.157 -0.1037 -0.3407  0.2651
 5725TIP3    H117132   1.441   6.482   2.177 -1.1596 -1.9712 -0.6728
 5725TIP3    H217133   1.395   6.625   2.199  2.4661 -0.7599 -0.2811
 5726TIP3   OH217134   1.209   4.124   0.890  0.1923 -0.1809  0.8508
 5726TIP3    H117135   1.181   4.106   0.800 -0.0867  0.3235  0.8323
 5726TIP3    H217136   1.228   4.037   0.927  1.1784 -0.3212  0.0340
 5727TIP3   OH217137   1.720   1.100   0.426 -0.6513  0.6125 -0.0911
 5727TIP3    H117138   1.662   1.174   0.443  1.3789  2.4621 -0.7506
 5727TIP3    H217139   1.760   1.120   0.341  2.9758  0.9410  1.4970
 5728TIP3   OH217140   0.718   0.550   3.257  0.3539 -0.1922 -0.2188
 5728TIP3    H117141   0.662   0.472   3.254 -0.3142  0.1596  1.5446
 5728TIP3    H217142   0.659   0.620   3.285  1.7602  0.0506  2.4266
 5729TIP3   OH217143   4.939   4.652   4.501  0.4619 -0.1183 -0.5099
 5729TIP3    H117144   4.876   4.581   4.509 -0.4603  0.7538  0.1596
 5729TIP3    H217145   4.935   4.678   4.409  0.3400 -0.5082 -0.6167
 5730TIP3   OH217146   0.007   5.669   4.154  0.4440  0.4694 -0.3084
 5730TIP3    H117147   0.010   5.667   4.250 -0.1317  2.1347 -0.2365
 5730TIP3    H217148   0.099   5.660   4.127  0.6859  0.7526  0.4112
 5731TIP3   OH217149   0.746   2.132   2.522  0.0184 -0.3122  0.0929
 5731TIP3    H117150   0.818   2.069   2.528  0.0709 -0.2774 -0.1488
 5731TIP3    H217151   0.726   2.137   2.428  1.0853  1.2253 -0.0841
 5732TIP3   OH217152   4.480   7.606   4.350 -0.0655  0.2457 -0.9216
 5732TIP3    H117153   4.488   7.679   4.289  1.2843 -0.0871 -1.1807
 5732TIP3    H217154   4.407   7.630   4.407  0.7142  2.0841 -0.6200
 5733TIP3   OH217155   3.241   4.684   3.353  0.1670  0.5139  0.3599
 5733TIP3    H117156   3.207   4.679   3.442  1.0508 -1.3232  0.6502
 5733TIP3    H217157   3.292   4.603   3.342  1.0423  1.2383 -1.4157
 5734TIP3   OH217158   5.689   2.078   3.217  0.0908 -0.1018  0.1166
 5734TIP3    H117159   5.717   2.004   3.163  1.3411  0.5601 -0.1588
 5734TIP3    H217160   5.683   2.041   3.306 -2.4183 -1.3032 -0.4610
 5735TIP3   OH217161   5.575   4.519   2.107 -0.2526  0.5498 -0.0341
 5735TIP3    H117162   5.614   4.588   2.161  0.2125 -0.4277  0.9341
 5735TIP3    H217163   5.481   4.525   2.124 -0.1663  0.6351  0.4437
 5736TIP3   OH217164   7.825   0.346   3.670  0.1777 -0.1778  0.3512
 5736TIP3    H117165   7.868   0.267   3.701  0.9649  0.5123  1.0801
 5736TIP3    H217166   7.877   0.418   3.706  0.9411  0.7023 -2.2610
 5737TIP3   OH217167   4.335   5.922   0.741 -0.0439 -0.2258 -0.1984
 5737TIP3    H117168   4.335   5.835   0.702  0.7380  0.3808 -1.6484
 5737TIP3    H217169   4.266   5.919   0.808 -0.9330 -1.5426 -1.1312
 5738TIP3   OH217170   5.094   1.270   2.126  0.3333  0.0407 -0.7662
 5738TIP3    H117171   5.154   1.279   2.200  0.4474  0.3454 -0.8934
 5738TIP3    H217172   5.117   1.186   2.086 -0.9890 -1.0591  0.6681
 5739TIP3   OH217173   3.121   4.777   4.001  0.3671 -0.0364 -0.8015
 5739TIP3    H117174   3.108   4.850   3.941  1.5573  0.1266 -0.8832
 5739TIP3    H217175   3.041   4.725   3.993 -1.0422  1.8366  0.1105
 5740TIP3   OH217176   0.401   3.938   1.305 -0.0933 -0.4232 -0.6241
 5740TIP3    H117177   0.312   3.916   1.333 -0.0714 -0.2030 -0.3724
 5740TIP3    H217178   0.390   4.016   1.251  0.0688  0.3791  0.4590
 5741TIP3   OH217179   5.084   3.377   3.241 -0.6297  0.3770  0.4041
 5741TIP3    H117180   5.062   3.389   3.334 -0.9695 -2.5137  0.7747
 5741TIP3    H217181   5.168   3.331   3.242 -0.1285  1.2150 -0.7866
 5742TIP3   OH217182   0.095   6.842   0.651 -0.4892 -0.2270  0.5969
 5742TIP3    H117183   0.110   6.753   0.618  0.5748  0.0060  0.4159
 5742TIP3    H217184   0.174   6.863   0.700 -0.5160  0.8122  0.2216
 5743TIP3   OH217185   0.731   7.041   0.394  0.1318  0.1810  0.0203
 5743TIP3    H117186   0.807   7.062   0.448 -0.3191  0.5790  0.5013
 5743TIP3    H217187   0.666   7.107   0.416 -0.0857  0.3151 -0.9616
 5744TIP3   OH217188   7.686   6.003   3.577  0.3478  0.3722 -0.1190
 5744TIP3    H117189   7.628   6.016   3.502  0.2523 -1.3531 -0.3857
 5744TIP3    H217190   7.629   6.010   3.653  0.5304  2.6339 -0.1283
 5745TIP3   OH217191   0.677   1.340   4.028 -0.0739 -0.2355 -0.2376
 5745TIP3    H117192   0.700   1.321   4.119  0.7671  1.5582 -0.0251
 5745TIP3    H217193   0.588   1.375   4.033  0.0924  0.1737 -0.0425
 5746TIP3   OH217194   0.581   4.483   5.029 -0.1855  0.2791  0.2815
 5746TIP3    H117195   0.526   4.492   5.107  0.1499  0.3212  0.5162
 5746TIP3    H217196   0.559   4.559   4.975 -3.1737 -1.6279 -1.4283
 5747TIP3   OH217197   5.894   4.126   3.826 -0.2277  0.1881 -0.3115
 5747TIP3    H117198   5.825   4.087   3.878  0.3225  1.0598  1.1347
 5747TIP3    H217199   5.850   4.158   3.747 -1.8269  2.1531  1.2605
 5748TIP3   OH217200   2.876   6.671   2.328 -0.0799 -0.0015  0.1932
 5748TIP3    H117201   2.802   6.623   2.292  1.6897 -1.2959 -2.0011
 5748TIP3    H217202   2.913   6.613   2.394  0.2574 -0.3482 -0.2919
 5749TIP3   OH217203   2.096   6.395   4.723 -0.2190  0.1190 -0.3773
 5749TIP3    H117204   2.028   6.439   4.672 -0.2929 -1.5029 -1.7448
 5749TIP3    H217205   2.163   6.371   4.658  0.7772  0.0195  0.6535
 5750TIP3   OH217206   0.467   2.754   6.758  0.3423  0.3019 -0.3410
 5750TIP3    H117207   0.466   2.813   6.682 -0.3912  0.8201  0.0562
 5750TIP3    H217208   0.388   2.700   6.747  2.6630 -3.0515 -2.5249
 5751TIP3   OH217209   0.377   0.088   5.725  0.1583  0.1569  0.0491
 5751TIP3    H117210   0.455   0.105   5.778  1.4815 -1.6128 -1.2119
 5751TIP3    H217211   0.405   0.023   5.661 -1.9891  0.5512 -1.3991
 5752TIP3   OH217212   5.475   3.367   6.685  0.4126  0.2126 -0.2253
 5752TIP3    H117213   5.520   3.355   6.769 -0.7358  0.0261  0.3961
 5752TIP3    H217214   5.392   3.320   6.696 -0.4411  1.5017 -0.8878
 5753TIP3   OH217215   6.359   3.352   1.374 -0.1573  0.0354  0.2138
 5753TIP3    H117216   6.314   3.371   1.292  1.0141 -1.7507 -0.9109
 5753TIP3    H217217   6.356   3.434   1.423 -0.7225  1.2039 -1.6989
 5754TIP3   OH217218   4.610   6.021   1.581  0.5954  0.4415 -0.4311
 5754TIP3    H117219   4.550   6.031   1.507 -1.9272 -2.0029  1.0949
 5754TIP3    H217220   4.604   6.103   1.629 -2.8686 -0.1895  0.4768
 5755TIP3   OH217221   1.745   2.150   3.951 -0.5101 -0.2687  0.1658
 5755TIP3    H117222   1.683   2.104   3.894 -0.3979  1.2494 -1.2620
 5755TIP3    H217223   1.824   2.159   3.898 -0.0312  0.2878  0.9518
 5756TIP3   OH217224   6.945   0.710   2.038 -0.1217 -0.1612 -0.8777
 5756TIP3    H117225   6.928   0.643   2.104  0.8804  0.2504 -0.1695
 5756TIP3    H217226   6.952   0.662   1.956 -0.2493 -0.8235 -0.5117
 5757TIP3   OH217227   7.092   5.367   0.700 -0.6367  0.2394 -0.2265
 5757TIP3    H117228   7.001   5.343   0.717 -0.4219 -0.4107  0.0482
 5757TIP3    H217229   7.110   5.438   0.763 -0.6831 -0.2513  0.3467
 5758TIP3   OH217230   3.223   4.176   0.779  0.4605 -0.6889 -0.3670
 5758TIP3    H117231   3.217   4.238   0.852  0.8902 -2.4377  1.2463
 5758TIP3    H217232   3.259   4.227   0.706  0.4011  1.0302  0.7556
 5759TIP3   OH217233   1.848   5.866   3.863  0.0155  0.2082 -0.7386
 5759TIP3    H117234   1.887   5.825   3.940 -0.6392  0.5379 -0.2224
 5759TIP3    H217235   1.920   5.876   3.801  1.0763  2.1062  0.7090
 5760TIP3   OH217236   0.156   2.372   1.485  0.0590  0.0060 -0.2738
 5760TIP3    H117237   0.125   2.367   1.394 -0.2776  2.8854 -0.4073
 5760TIP3    H217238   0.081   2.344   1.537 -0.9521  1.5398 -0.8220
 5761TIP3   OH217239   1.039   0.562   1.946 -0.1887  0.6119  0.1578
 5761TIP3    H117240   1.035   0.535   1.854 -0.3815  1.6951 -0.1715
 5761TIP3    H217241   0.948   0.579   1.970 -0.1484  0.2361  0.5819
 5762TIP3   OH217242   3.936   7.405   3.716 -0.6302  0.9934  0.1728
 5762TIP3    H117243   3.999   7.465   3.675  0.7784 -0.8922 -0.5522
 5762TIP3    H217244   3.855   7.455   3.719 -0.1923  2.0968 -2.7923
 5763TIP3   OH217245   2.070   2.183   5.683  0.4876 -0.2234 -0.3059
 5763TIP3    H117246   2.066   2.247   5.612  1.5473 -1.2601 -1.3647
 5763TIP3    H217247   2.070   2.235   5.763 -1.0373  0.9798 -1.0269
 5764TIP3   OH217248   7.040   4.352   1.014 -0.3230 -0.2126  0.1568
 5764TIP3    H117249   7.044   4.350   0.918 -0.3888 -1.2705  0.1700
 5764TIP3    H217250   6.947   4.352   1.034 -0.3664  1.6850  0.2249
 5765TIP3   OH217251   2.534   5.205   1.418 -0.5208  0.4534  0.1108
 5765TIP3    H117252   2.579   5.137   1.468 -1.2516 -0.2019 -0.0940
 5765TIP3    H217253   2.507   5.270   1.483  0.3729  0.6606  0.2796
 5766TIP3   OH217254   8.172   4.933   0.381 -0.0813  0.2692 -0.4231
 5766TIP3    H117255   8.152   4.995   0.451 -2.1930 -0.6840 -0.1243
 5766TIP3    H217256   8.142   4.976   0.301 -1.2497 -0.1999 -0.2534
 5767TIP3   OH217257   8.244   1.357   4.918  0.0910  0.2433  0.4306
 5767TIP3    H117258   8.182   1.354   4.991 -0.3316 -1.6081  0.0533
 5767TIP3    H217259   8.238   1.270   4.878  0.3391  1.1825 -1.7970
 5768TIP3   OH217260   7.723   5.040   6.159 -0.4218  0.6153  0.2750
 5768TIP3    H117261   7.701   4.978   6.229 -1.3587  0.4492 -0.1587
 5768TIP3    H217262   7.715   4.989   6.078  0.3560  0.8900  0.0148
 5769TIP3   OH217263   2.452   3.380   0.176  0.1373  0.5160  0.3400
 5769TIP3    H117264   2.420   3.303   0.130 -0.9991  0.2308  1.5380
 5769TIP3    H217265   2.373   3.424   0.207  0.7779  1.9482  0.0544
 5770TIP3   OH217266   4.554   5.752   3.309 -0.5631  0.1225  0.2995
 5770TIP3    H117267   4.630   5.805   3.285  0.9670 -1.4352  1.4699
 5770TIP3    H217268   4.554   5.680   3.246 -1.4133  0.4116 -0.0370
 5771TIP3   OH217269   6.174   6.528   2.849 -0.0446  0.2331  0.2695
 5771TIP3    H117270   6.143   6.589   2.915 -0.9230  2.9976 -2.4475
 5771TIP3    H217271   6.266   6.553   2.834  0.2322 -0.5576  0.5957
 5772TIP3   OH217272   6.852   4.918   0.984 -0.8023  0.3907 -0.4284
 5772TIP3    H117273   6.815   4.998   1.020  0.7207  0.6366  0.7333
 5772TIP3    H217274   6.930   4.947   0.937  1.3153 -0.5272  2.2376
 5773TIP3   OH217275   6.777   0.220   2.718  0.2189 -0.0593  0.1672
 5773TIP3    H117276   6.700   0.164   2.705  0.8895 -1.0647  0.4053
 5773TIP3    H217277   6.777   0.240   2.812  2.0248 -2.8195  0.8795
 5774TIP3   OH217278   3.579   1.631   5.455 -0.6080  0.1861 -0.5927
 5774TIP3    H117279   3.544   1.544   5.439 -0.9223  0.1897  0.0452
 5774TIP3    H217280   3.630   1.651   5.376  1.0044 -1.3311 -0.0011
 5775TIP3   OH217281   4.603   4.692   1.898  0.5314 -0.1626 -0.1772
 5775TIP3    H117282   4.641   4.775   1.925  1.5017 -0.4497 -0.6110
 5775TIP3    H217283   4.508   4.705   1.904  0.6829  0.8225  0.1771
 5776TIP3   OH217284   6.378   1.992   1.777 -0.3398 -0.2708  0.0058
 5776TIP3    H117285   6.418   2.044   1.846  0.2049  0.1345 -0.5970
 5776TIP3    H217286   6.383   1.902   1.808  0.1796 -0.1195  0.3611
 5777TIP3   OH217287   8.186   7.730   2.604  0.4611 -0.5735 -0.0005
 5777TIP3    H117288   8.173   7.668   2.532  0.1098  1.8377 -2.1237
 5777TIP3    H217289   8.099   7.738   2.644  0.4642 -1.2411  0.1617
 5778TIP3   OH217290   3.799   2.670   0.265  0.1867  0.3320 -0.4539
 5778TIP3    H117291   3.758   2.586   0.284  0.4538  0.9819  3.9830
 5778TIP3    H217292   3.890   2.648   0.243 -0.4379 -0.6036 -2.3295
 5779TIP3   OH217293   6.387   3.789   3.787 -0.1384 -0.3107 -0.3631
 5779TIP3    H117294   6.293   3.805   3.796  0.0807  2.0637 -1.5214
 5779TIP3    H217295   6.408   3.819   3.698  1.9688  0.6441  0.3926
 5780TIP3   OH217296   6.539   5.871   4.747 -0.2148 -0.3659 -0.7433
 5780TIP3    H117297   6.571   5.783   4.770  0.4001 -0.3035 -1.3328
 5780TIP3    H217298   6.486   5.897   4.822 -0.6939 -1.3877 -0.7051
 5781TIP3   OH217299   4.658   5.359   5.235  0.1047  0.0779 -0.1689
 5781TIP3    H117300   4.744   5.378   5.197 -0.4205  0.2688 -1.3152
 5781TIP3    H217301   4.674   5.290   5.299  1.1455  0.2836 -0.1994
 5782TIP3   OH217302   6.803   2.201   3.916 -0.8109  0.2033 -0.2268
 5782TIP3    H117303   6.712   2.192   3.889 -0.4158 -0.7012 -1.3827
 5782TIP3    H217304   6.853   2.167   3.841  0.4862  1.1363  0.1828
 5783TIP3   OH217305   0.716   3.479   3.688  0.0647 -0.3973  0.1472
 5783TIP3    H117306   0.725   3.384   3.684 -2.5926 -0.6746 -1.6398
 5783TIP3    H217307   0.656   3.495   3.761 -0.0606 -0.1787  0.0002
 5784TIP3   OH217308   3.440   0.430   2.508 -0.8005  0.7297 -0.0403
 5784TIP3    H117309   3.417   0.503   2.451 -1.8102  0.7156  0.3354
 5784TIP3    H217310   3.371   0.365   2.492 -1.7284  1.1596  1.9781
 5785TIP3   OH217311   6.510   5.599   4.725  0.1077  0.2447  0.4156
 5785TIP3    H117312   6.576   5.570   4.787 -0.1289 -0.7928  0.1936
 5785TIP3    H217313   6.491   5.522   4.671 -1.1427  0.5726  0.3479
 5786TIP3   OH217314   7.411   1.329   6.729  0.4615  0.0861 -0.5438
 5786TIP3    H117315   7.418   1.278   6.648  1.9253  0.7838 -0.8867
 5786TIP3    H217316   7.430   1.419   6.703  0.3504  0.4216  0.4788
 5787TIP3   OH217317   6.317   5.334   5.595  0.1677 -0.0310 -0.7913
 5787TIP3    H117318   6.371   5.256   5.587  1.1640  0.5137  0.3109
 5787TIP3    H217319   6.312   5.369   5.506 -0.1186 -1.2046 -1.2630
 5788TIP3   OH217320   4.193   3.607   1.898 -0.0001  0.3380  0.2172
 5788TIP3    H117321   4.249   3.619   1.822  1.2491 -0.8308  0.9198
 5788TIP3    H217322   4.104   3.602   1.862  0.5743 -0.3050 -1.1559
 5789TIP3   OH217323   5.360   7.665   3.451 -0.3676 -0.3702 -0.1170
 5789TIP3    H117324   5.364   7.578   3.491 -0.3976 -0.3406 -0.0488
 5789TIP3    H217325   5.370   7.649   3.357  0.5606 -0.3715 -0.0241
 5790TIP3   OH217326   2.504   5.285   3.166  0.4396 -0.4302 -0.0238
 5790TIP3    H117327   2.563   5.270   3.239  0.2307  0.1120  0.2563
 5790TIP3    H217328   2.561   5.293   3.090  0.7936  0.9265  0.3676
 5791TIP3   OH217329   1.199   3.807   2.568  0.6335  0.2349  0.4766
 5791TIP3    H117330   1.107   3.792   2.589  1.0764 -0.7341  1.8582
 5791TIP3    H217331   1.241   3.722   2.578  1.7140  0.6954  0.0293
 5792TIP3   OH217332   7.857   2.229   1.480 -0.2713  0.8558 -0.3600
 5792TIP3    H117333   7.807   2.227   1.562 -0.1991 -0.2980 -0.3241
 5792TIP3    H217334   7.915   2.304   1.489 -1.2876  1.6173  0.0238
 5793TIP3   OH217335   2.162   6.181   2.284  0.4612 -0.0237  0.3389
 5793TIP3    H117336   2.117   6.118   2.341 -1.2232  2.2378  1.6632
 5793TIP3    H217337   2.095   6.246   2.262  1.2548 -0.3469 -3.7024
 5794TIP3   OH217338   7.849   5.785   2.933 -0.7808  0.1384  0.5267
 5794TIP3    H117339   7.912   5.837   2.983 -0.5550  1.7861 -1.3299
 5794TIP3    H217340   7.899   5.709   2.902  0.1740  1.1231 -0.4273
 5795TIP3   OH217341   4.944   6.645   0.396  0.0705 -0.4430  0.6943
 5795TIP3    H117342   4.877   6.590   0.356 -0.3000  0.0657  0.6174
 5795TIP3    H217343   5.027   6.602   0.372 -0.0270  0.6171 -1.8612
 5796TIP3   OH217344   1.531   4.294   3.195  0.0352  0.2192  0.3052
 5796TIP3    H117345   1.623   4.301   3.221  0.8345 -2.1249 -1.5216
 5796TIP3    H217346   1.519   4.363   3.130  0.3217  0.8720  0.9306
 5797TIP3   OH217347   4.253   1.070   1.771  0.8570 -0.4394 -0.3785
 5797TIP3    H117348   4.219   1.148   1.727 -1.3524 -0.2591  1.4284
 5797TIP3    H217349   4.189   1.052   1.840  3.1070 -1.7889  1.5235
 5798TIP3   OH217350   2.209   5.530   5.143  0.0623  0.4018 -0.0783
 5798TIP3    H117351   2.238   5.558   5.230  1.4843 -0.1093 -0.3699
 5798TIP3    H217352   2.164   5.447   5.159  0.3418  0.2951  0.1671
 5799TIP3   OH217353   4.337   7.568   2.080  0.0162  0.2036  0.3155
 5799TIP3    H117354   4.360   7.573   1.987 -0.0312  1.2849  0.3465
 5799TIP3    H217355   4.338   7.475   2.100 -1.9361 -0.2266 -1.2603
 5800TIP3   OH217356   1.386   3.275   0.679 -0.4382  0.5051 -0.1902
 5800TIP3    H117357   1.376   3.308   0.589 -1.1595 -0.2457 -0.3914
 5800TIP3    H217358   1.304   3.297   0.722 -0.0299  1.0124  0.3550
 5801TIP3   OH217359   2.703   0.695   3.709  0.5299 -0.3447  0.5111
 5801TIP3    H117360   2.701   0.678   3.615  1.1608 -0.3572  0.4959
 5801TIP3    H217361   2.781   0.749   3.722  0.5134 -0.4441  1.0434
 5802TIP3   OH217362   6.510   5.096   5.613  0.6129  0.4685 -0.2727
 5802TIP3    H117363   6.523   5.066   5.703  2.6082 -0.0516 -0.6826
 5802TIP3    H217364   6.596   5.125   5.584  0.6546 -1.7691 -2.8416
 5803TIP3   OH217365   1.109   5.117   4.730  0.4830 -0.0174 -0.2775
 5803TIP3    H117366   1.140   5.079   4.813  0.4685 -0.4577 -0.4695
 5803TIP3    H217367   1.172   5.087   4.665  0.9038  0.9311 -0.3125
 5804TIP3   OH217368   8.193   4.953   2.103 -0.5182  0.0064  0.0479
 5804TIP3    H117369   8.194   4.936   2.197 -0.8940 -0.4985 -0.0350
 5804TIP3    H217370   8.254   4.889   2.066 -0.0945  0.4442 -0.0150
 5805TIP3   OH217371   3.870   1.058   2.384  0.2200  0.0358 -1.0205
 5805TIP3    H117372   3.884   1.112   2.462 -0.1878 -1.4455  0.1236
 5805TIP3    H217373   3.845   0.972   2.419 -1.7005 -0.1960 -2.8106
 5806TIP3   OH217374   7.178   1.097   4.910  0.3670 -0.4439  0.3071
 5806TIP3    H117375   7.124   1.143   4.846 -0.4907  0.4892  1.6564
 5806TIP3    H217376   7.120   1.083   4.985  1.6418 -0.5296  1.3115
 5807TIP3   OH217377   1.773   1.262   1.747 -0.1026  0.5151  0.0303
 5807TIP3    H117378   1.853   1.225   1.710 -0.4075  0.7129 -0.8488
 5807TIP3    H217379   1.752   1.205   1.821 -0.1447 -0.5912 -0.8284
 5808TIP3   OH217380   1.294   2.617   1.312  0.1281 -0.3126  0.0893
 5808TIP3    H117381   1.349   2.622   1.391 -0.1422  1.3926  0.2116
 5808TIP3    H217382   1.325   2.688   1.256 -0.9869 -0.2360 -0.4672
 5809TIP3   OH217383   2.687   0.987   3.227  0.6065  0.0956 -0.0887
 5809TIP3    H117384   2.737   1.028   3.157 -2.0700  0.1959 -2.0870
 5809TIP3    H217385   2.654   1.062   3.279  0.3837  0.1794 -0.3479
 5810TIP3   OH217386   4.970   3.115   0.325 -0.2656  0.5692  0.1799
 5810TIP3    H117387   4.881   3.118   0.361 -0.4636  0.9323 -0.3270
 5810TIP3    H217388   4.998   3.207   0.322 -0.6126  0.6445 -1.4530
 5811TIP3   OH217389   6.489   0.340   2.364  0.8202  0.3410  0.0007
 5811TIP3    H117390   6.488   0.382   2.278  1.9873  1.9745  0.7359
 5811TIP3    H217391   6.579   0.308   2.374  1.4559  2.4169  1.5942
 5812TIP3   OH217392   6.393   7.413   6.489  0.9165  0.5525 -0.4286
 5812TIP3    H117393   6.317   7.403   6.431  0.7006 -0.3956 -0.0124
 5812TIP3    H217394   6.469   7.403   6.431  0.7502  1.7790 -0.8952
 5813TIP3   OH217395   3.438   2.274   0.225  0.0097 -0.6553  0.2980
 5813TIP3    H117396   3.361   2.233   0.187  0.9668 -0.3474 -2.1729
 5813TIP3    H217397   3.417   2.285   0.318 -2.1091 -2.3410  0.0801
 5814TIP3   OH217398   4.089   1.326   1.108  0.3513 -1.0673  0.1780
 5814TIP3    H117399   4.014   1.266   1.112  0.9236 -1.8737 -0.5483
 5814TIP3    H217400   4.163   1.269   1.090  1.1192 -0.2594  0.7157
 5815TIP3   OH217401   2.575   6.426   4.636  0.5674  0.1787 -0.8632
 5815TIP3    H117402   2.569   6.372   4.715 -1.1143 -0.1673 -1.1861
 5815TIP3    H217403   2.668   6.444   4.626  0.8096  0.4117  1.3204
 5816TIP3   OH217404   2.324   7.643   3.638  0.3273  0.2861  0.6117
 5816TIP3    H117405   2.266   7.654   3.562 -0.3664 -3.3737  0.4163
 5816TIP3    H217406   2.267   7.607   3.706  1.9229 -1.6697  1.0254
 5817TIP3   OH217407   1.269   6.000   1.158 -0.8032  0.2103 -0.8605
 5817TIP3    H117408   1.207   6.066   1.190  0.2915  1.2315 -0.7766
 5817TIP3    H217409   1.330   6.049   1.103  0.5035 -0.5852 -0.1688
 5818TIP3   OH217410   7.508   5.214   5.536 -0.3991 -0.1742  0.0088
 5818TIP3    H117411   7.490   5.132   5.582 -1.1190 -1.0194 -1.6833
 5818TIP3    H217412   7.425   5.263   5.540 -0.3245 -0.0481  0.0188
 5819TIP3   OH217413   6.917   3.036   1.811  0.6601  0.3746 -0.4470
 5819TIP3    H117414   6.881   3.124   1.805  1.4032  0.6494 -0.9551
 5819TIP3    H217415   7.008   3.048   1.838  0.3281 -0.3257  1.1330
 5820TIP3   OH217416   3.061   0.793   4.412  0.1984  0.0573  0.1833
 5820TIP3    H117417   3.006   0.771   4.486  0.6851  1.7244  1.0776
 5820TIP3    H217418   3.003   0.838   4.351  0.0116 -0.4721 -0.0353
 5821TIP3   OH217419   3.770   7.721   0.835  0.2054 -0.2289 -0.3173
 5821TIP3    H117420   3.843   7.684   0.885  0.9935  0.3814 -0.9972
 5821TIP3    H217421   3.749   7.802   0.881  0.1490 -0.2558 -0.2957
 5822TIP3   OH217422   1.696   1.439   6.707 -0.1344  0.4308 -0.3359
 5822TIP3    H117423   1.641   1.372   6.668 -0.2100  0.8486 -0.9593
 5822TIP3    H217424   1.642   1.518   6.706  0.3261  0.7456 -0.5705
 5823TIP3   OH217425   3.142   6.754   3.510  0.3978 -0.1601  0.1436
 5823TIP3    H117426   3.092   6.809   3.570  0.5654 -0.5097  0.6137
 5823TIP3    H217427   3.225   6.737   3.555  0.9231  0.3575 -0.5996
 5824TIP3   OH217428   1.660   0.693   0.545  0.2068  1.0970 -0.2433
 5824TIP3    H117429   1.709   0.694   0.463  0.3499 -2.0009 -0.3387
 5824TIP3    H217430   1.708   0.752   0.602  2.0973  0.7641 -1.3889
 5825TIP3   OH217431   3.552   3.664   6.487  0.3875  0.0755 -0.2640
 5825TIP3    H117432   3.492   3.734   6.461  1.3122  1.5192  1.2244
 5825TIP3    H217433   3.496   3.599   6.528 -0.3522  0.6405 -0.3490
 5826TIP3   OH217434   0.474   6.973   4.931  0.7047  0.2511  0.2829
 5826TIP3    H117435   0.412   7.006   4.866  0.8094  0.9650  0.5324
 5826TIP3    H217436   0.446   6.884   4.948 -1.5001  1.1576  1.8609
 5827TIP3   OH217437   1.910   6.635   5.943 -0.7908 -0.5066  0.2113
 5827TIP3    H117438   1.860   6.568   5.896 -1.2154 -0.1027  0.0762
 5827TIP3    H217439   1.989   6.590   5.973 -1.1484 -1.1116  0.2656
 5828TIP3   OH217440   4.085   2.825   5.720  0.4766 -0.2250  0.4658
 5828TIP3    H117441   4.112   2.881   5.647 -0.2302 -0.6407 -0.1283
 5828TIP3    H217442   4.162   2.820   5.777  0.6378  1.1272  0.3957
 5829TIP3   OH217443   0.760   6.594   5.000  0.3242  0.3581  0.2203
 5829TIP3    H117444   0.786   6.573   5.090 -0.1238  0.4211  0.3659
 5829TIP3    H217445   0.754   6.509   4.957  1.7170  0.3917 -0.0866
 5830TIP3   OH217446   6.429   6.262   2.239  0.3874 -0.0558  0.3409
 5830TIP3    H117447   6.407   6.177   2.277 -0.4806 -0.1555 -0.3568
 5830TIP3    H217448   6.375   6.325   2.288  0.9986  0.1089  0.8300
 5831TIP3   OH217449   7.877   6.915   5.944  0.0571  0.0600  0.4411
 5831TIP3    H117450   7.883   6.951   5.855 -0.6466  2.7800  1.3831
 5831TIP3    H217451   7.795   6.866   5.945 -1.2494  2.1151  0.1962
 5832TIP3   OH217452   7.191   6.516   5.981 -0.1082 -0.2976  0.2003
 5832TIP3    H117453   7.222   6.491   5.894 -2.2629  0.9900 -1.0131
 5832TIP3    H217454   7.153   6.435   6.016  0.3092 -0.7065 -0.2749
 5833TIP3   OH217455   3.790   2.999   0.668 -0.1440  0.1635  0.6943
 5833TIP3    H117456   3.805   3.092   0.655 -0.2185  0.2565  1.2510
 5833TIP3    H217457   3.841   2.956   0.599 -0.6454  0.6346  0.0107
 5834TIP3   OH217458   5.514   5.288   5.457  0.4392  0.0160 -0.1375
 5834TIP3    H117459   5.595   5.317   5.416 -0.0495  0.5186 -0.7695
 5834TIP3    H217460   5.484   5.215   5.403  1.0197 -0.9027  0.7295
 5835TIP3   OH217461   5.465   5.057   4.392  0.3319 -0.3926 -0.7049
 5835TIP3    H117462   5.460   5.120   4.320  1.8206 -0.8661 -1.2519
 5835TIP3    H217463   5.529   4.992   4.363  0.9392 -0.6231  1.0201
 5836TIP3   OH217464   6.000   2.526   3.906 -0.2328  0.0730  0.0385
 5836TIP3    H117465   5.947   2.484   3.839  0.1435 -1.9514  0.9262
 5836TIP3    H217466   6.083   2.545   3.862 -0.2851 -0.4641 -0.3142
 5837TIP3   OH217467   0.506   3.051   0.364 -0.4585  0.0303 -0.1810
 5837TIP3    H117468   0.495   2.997   0.443  1.2105 -1.1778 -0.7318
 5837TIP3    H217469   0.428   3.107   0.363 -0.9400 -0.5104  1.8585
 5838TIP3   OH217470   4.706   7.227   5.907 -0.0957  0.4144  0.0701
 5838TIP3    H117471   4.734   7.292   5.971 -0.1033 -0.0222  0.5243
 5838TIP3    H217472   4.655   7.164   5.958 -0.9586  0.5991 -0.5413
 5839TIP3   OH217473   3.951   5.329   2.433  0.1244  0.2403  0.0361
 5839TIP3    H117474   3.998   5.337   2.350  0.8341 -1.4983  0.2214
 5839TIP3    H217475   3.863   5.360   2.413  0.6454  1.1357 -1.0025
 5840TIP3   OH217476   5.915   3.897   3.357  0.6174  0.5519  0.6416
 5840TIP3    H117477   5.943   3.894   3.266 -0.5144  0.3152  0.2925
 5840TIP3    H217478   5.862   3.977   3.364 -0.6784 -0.2915  0.6727
 5841TIP3   OH217479   2.758   5.327   5.003  0.3693 -0.0700 -0.0277
 5841TIP3    H117480   2.673   5.368   4.990  0.7557  0.9789  0.5514
 5841TIP3    H217481   2.792   5.312   4.914 -0.3525 -0.3605 -0.2550
 5842TIP3   OH217482   5.036   6.474   6.728 -0.2641 -0.0053  0.7553
 5842TIP3    H117483   5.103   6.411   6.757  1.2882  0.7224 -0.9883
 5842TIP3    H217484   5.061   6.556   6.770 -0.2155  0.2042  0.3202
 5843TIP3   OH217485   5.699   0.571   2.127  0.3728 -0.1950  0.0561
 5843TIP3    H117486   5.771   0.526   2.083 -0.8685 -2.2778  0.0347
 5843TIP3    H217487   5.740   0.615   2.201  1.8046 -0.5064 -0.5237
 5844TIP3   OH217488   6.808   4.143   0.735 -0.4547 -0.1743 -0.3942
 5844TIP3    H117489   6.875   4.211   0.746  0.5663 -0.9792 -1.3458
 5844TIP3    H217490   6.755   4.173   0.661  0.2074 -0.5574 -1.0361
 5845TIP3   OH217491   1.080   3.134   3.653  0.1898  0.1193 -0.1980
 5845TIP3    H117492   0.992   3.165   3.632  0.0736 -0.4975 -0.6572
 5845TIP3    H217493   1.077   3.039   3.636  2.0075  0.5566 -4.0936
 5846TIP3   OH217494   0.899   5.277   4.706  0.4635  0.0506 -0.3135
 5846TIP3    H117495   0.893   5.296   4.612 -0.5648  1.2274 -0.0364
 5846TIP3    H217496   0.975   5.219   4.714  1.3433  0.9351 -1.7310
 5847TIP3   OH217497   6.258   0.151   2.838  0.1472  0.7578 -0.1158
 5847TIP3    H117498   6.189   0.101   2.882  1.3422  0.4020  1.4490
 5847TIP3    H217499   6.242   0.135   2.745 -3.4258  2.7799 -0.0451
 5848TIP3   OH217500   6.838   5.880   2.203 -0.1161 -0.3304  0.3387
 5848TIP3    H117501   6.844   5.947   2.272 -0.2549  0.9152 -0.8118
 5848TIP3    H217502   6.882   5.803   2.240  1.1979  0.7978  1.2483
 5849TIP3   OH217503   0.835   0.310   2.311 -0.6901  0.4735  0.3799
 5849TIP3    H117504   0.902   0.264   2.260 -1.0673  0.5601 -0.1957
 5849TIP3    H217505   0.829   0.260   2.393 -3.0837 -2.2819 -1.2873
 5850TIP3   OH217506   3.424   6.901   4.189 -0.3816  0.2439 -0.2309
 5850TIP3    H117507   3.365   6.921   4.116 -0.9681 -2.4085 -0.5862
 5850TIP3    H217508   3.393   6.957   4.260 -0.9233  1.5999 -1.4691
 5851TIP3   OH217509   7.114   4.702   3.698  0.2718  0.4485 -0.3186
 5851TIP3    H117510   7.163   4.708   3.615 -0.0562  3.6992 -0.4122
 5851TIP3    H217511   7.023   4.691   3.671  0.4804 -2.0834 -0.2185
 5852TIP3   OH217512   5.152   1.556   4.324  0.0341  0.0284  0.2369
 5852TIP3    H117513   5.227   1.601   4.364  0.3583 -0.9303  0.7349
 5852TIP3    H217514   5.129   1.488   4.387 -1.5978  0.6409  0.3306
 5853TIP3   OH217515   0.378   5.302   0.983 -0.2425 -0.3198 -0.5144
 5853TIP3    H117516   0.445   5.268   0.923 -0.5534  0.5361 -1.3627
 5853TIP3    H217517   0.296   5.263   0.953 -0.7050  1.6035 -1.8960
 5854TIP3   OH217518   7.259   0.720   6.281 -0.1644 -0.4205  0.7186
 5854TIP3    H117519   7.296   0.632   6.274 -0.1137 -0.2639 -1.6629
 5854TIP3    H217520   7.166   0.709   6.258 -0.6429 -0.1353  2.4045
 5855TIP3   OH217521   0.335   7.515   5.879  0.1649 -0.5579  0.0296
 5855TIP3    H117522   0.256   7.569   5.891  0.6289 -0.0488  0.8750
 5855TIP3    H217523   0.305   7.441   5.827 -0.5616  0.3627 -0.9269
 5856TIP3   OH217524   5.732   2.845   6.572 -0.2177  0.5418  0.3608
 5856TIP3    H117525   5.728   2.911   6.502 -1.9085 -0.3659 -0.4652
 5856TIP3    H217526   5.734   2.896   6.653  2.2707  1.6335 -0.2922
 5857TIP3   OH217527   5.936   6.868   4.365  0.1160 -0.2982  0.0454
 5857TIP3    H117528   6.011   6.913   4.326  0.2646 -0.3866  0.2292
 5857TIP3    H217529   5.877   6.939   4.390 -0.2835 -0.2654 -0.9414
 5858TIP3   OH217530   0.135   3.066   4.937 -0.0561  0.0509  0.1009
 5858TIP3    H117531   0.129   3.079   5.031  1.3794  1.6458  0.0202
 5858TIP3    H217532   0.116   3.152   4.899 -1.0529 -0.6606 -1.1158
 5859TIP3   OH217533   7.395   0.548   0.791 -0.7142 -0.1231  0.0525
 5859TIP3    H117534   7.440   0.463   0.797  0.8377  0.6218 -0.4859
 5859TIP3    H217535   7.337   0.538   0.716  1.1353 -0.0372 -1.4823
 5860TIP3   OH217536   0.868   4.581   4.753  0.1522  0.8305 -0.3324
 5860TIP3    H117537   0.929   4.635   4.803  0.5997  0.3137 -0.3158
 5860TIP3    H217538   0.845   4.510   4.813  1.0721 -0.0656 -1.0239
 5861TIP3   OH217539   6.366   5.161   0.759 -0.0355 -0.2742  0.4731
 5861TIP3    H117540   6.285   5.195   0.723 -0.9520 -1.7752  1.0211
 5861TIP3    H217541   6.346   5.144   0.851  1.6063  1.4536  1.2302
 5862TIP3   OH217542   4.949   5.514   4.523 -0.3144  0.2390  0.1986
 5862TIP3    H117543   4.952   5.481   4.433  0.2308  0.4328  0.1435
 5862TIP3    H217544   4.983   5.441   4.576  0.1618  0.4266  0.1566
 5863TIP3   OH217545   4.998   2.671   0.438 -0.8078  0.1136  0.0568
 5863TIP3    H117546   5.039   2.597   0.483 -0.6075  0.6871  0.8473
 5863TIP3    H217547   5.009   2.652   0.345 -1.4764 -1.2372  0.2316
 5864TIP3   OH217548   8.050   5.804   4.009  0.7031 -0.3499 -0.5484
 5864TIP3    H117549   8.086   5.839   4.091  2.3547  1.1388 -1.8283
 5864TIP3    H217550   8.107   5.730   3.988 -0.7708 -1.8433  0.4562
 5865TIP3   OH217551   6.109   4.147   5.096 -0.3902 -0.1107 -0.3540
 5865TIP3    H117552   6.091   4.113   5.183  0.2412 -0.7128 -0.4522
 5865TIP3    H217553   6.110   4.242   5.107 -1.4659 -0.1348  0.0608
 5866TIP3   OH217554   3.792   0.097   1.992  0.1831 -0.0704  0.3802
 5866TIP3    H117555   3.839   0.014   2.004  0.4113  0.0767  0.4979
 5866TIP3    H217556   3.783   0.132   2.080  2.0560  1.1218  0.1474
 5867TIP3   OH217557   5.363   6.969   3.336  0.1694  0.3808 -0.3662
 5867TIP3    H117558   5.367   6.875   3.319  2.2212 -0.0666  2.0315
 5867TIP3    H217559   5.328   6.976   3.425  2.2950  1.6741  0.4369
 5868TIP3   OH217560   0.633   3.972   4.290  0.1671  0.0413 -1.2430
 5868TIP3    H117561   0.576   4.012   4.356 -0.3596 -1.9318 -0.4353
 5868TIP3    H217562   0.577   3.909   4.245  1.3066 -0.8413 -1.4615
 5869TIP3   OH217563   3.370   5.521   0.319 -0.0749  0.0995 -0.4936
 5869TIP3    H117564   3.345   5.604   0.360 -0.0749 -0.1899  0.0933
 5869TIP3    H217565   3.316   5.455   0.363  1.7714 -0.5700  0.8838
 5870TIP3   OH217566   3.743   0.732   3.088 -0.7102 -0.5499  0.3146
 5870TIP3    H117567   3.670   0.681   3.054  0.2022 -1.8948  0.3199
 5870TIP3    H217568   3.819   0.675   3.078 -0.0397 -0.1444  2.5309
 5871TIP3   OH217569   0.393   1.938   2.099 -0.5768 -0.1095 -0.1234
 5871TIP3    H117570   0.327   1.873   2.124 -1.9521  0.3175 -2.4083
 5871TIP3    H217571   0.453   1.891   2.042 -0.8071  0.2941 -0.7051
 5872TIP3   OH217572   3.074   3.110   5.109  0.3206  0.2617 -0.3110
 5872TIP3    H117573   3.060   3.056   5.031  1.9028  1.0204 -1.1592
 5872TIP3    H217574   3.125   3.185   5.078  0.9661  0.5973  1.4463
 5873TIP3   OH217575   5.479   2.306   4.174 -0.1039 -0.2013  0.3459
 5873TIP3    H117576   5.548   2.360   4.135 -1.2036  0.2940 -1.0430
 5873TIP3    H217577   5.506   2.216   4.158  1.0933 -0.0599  1.4653
 5874TIP3   OH217578   3.919   5.527   0.660 -0.0061  0.0799  0.0059
 5874TIP3    H117579   3.909   5.550   0.753  0.1843 -0.0121  0.0492
 5874TIP3    H217580   4.004   5.484   0.655  0.0423  0.2019 -0.2359
 5875TIP3   OH217581   4.754   5.210   3.499 -0.0672 -0.3503 -0.4471
 5875TIP3    H117582   4.829   5.200   3.440  1.2187  0.9328  0.8964
 5875TIP3    H217583   4.732   5.303   3.495  0.0175 -0.2390  1.0229
 5876TIP3   OH217584   7.131   0.989   1.659  0.2644 -0.9715 -0.0444
 5876TIP3    H117585   7.221   1.014   1.639  0.8503 -2.4659  0.5414
 5876TIP3    H217586   7.120   1.012   1.751  0.4194 -1.7415  0.1754
 5877TIP3   OH217587   0.107   4.047   3.876  0.0878 -0.2033  0.0964
 5877TIP3    H117588   0.149   3.967   3.843 -0.6170 -0.6305  0.1976
 5877TIP3    H217589   0.102   4.104   3.800  2.7388  0.7244  0.5333
 5878TIP3   OH217590   1.406   6.495   5.784 -0.2910 -0.2648  0.0415
 5878TIP3    H117591   1.461   6.457   5.852  0.1425  0.7353  0.2628
 5878TIP3    H217592   1.463   6.554   5.736 -0.0338 -2.3782 -2.5043
 5879TIP3   OH217593   1.971   1.931   4.395  0.0823  0.6091  0.3440
 5879TIP3    H117594   2.020   1.870   4.450  0.3435  0.8867  0.4194
 5879TIP3    H217595   1.944   2.001   4.455  1.0975  1.3504 -0.0319
 5880TIP3   OH217596   6.633   3.818   1.354  0.0288  0.4785  0.0715
 5880TIP3    H117597   6.573   3.862   1.415 -2.2038 -0.0722 -1.5889
 5880TIP3    H217598   6.671   3.746   1.405  1.7151  2.6330  2.0504
 5881TIP3   OH217599   5.773   6.478   5.791 -0.2014 -0.1684  0.0685
 5881TIP3    H117600   5.843   6.533   5.756  1.6322 -1.6664  1.1958
 5881TIP3    H217601   5.701   6.538   5.807  1.0888  1.5874 -0.4091
 5882TIP3   OH217602   1.093   5.607   5.693 -0.3276  0.0443 -0.0114
 5882TIP3    H117603   1.168   5.650   5.736 -1.6162  2.5714 -0.0545
 5882TIP3    H217604   1.026   5.602   5.762 -0.4684 -1.2426 -0.2309
 5883TIP3   OH217605   6.388   0.253   3.825 -0.5100 -0.4674 -0.1606
 5883TIP3    H117606   6.481   0.241   3.842  0.8173  4.0605 -2.4643
 5883TIP3    H217607   6.356   0.300   3.903 -1.0396 -2.3013  0.7719
 5884TIP3   OH217608   0.934   2.724   6.070 -0.1067 -0.9107 -0.8609
 5884TIP3    H117609   0.876   2.663   6.025 -0.7582  0.1349 -1.4937
 5884TIP3    H217610   0.879   2.800   6.088  1.0792  0.1463 -1.5535
 5885TIP3   OH217611   7.381   1.033   0.024  0.0401 -0.2209  0.0489
 5885TIP3    H117612   7.364   0.940   0.041 -1.2908 -0.0205 -0.0981
 5885TIP3    H217613   7.474   1.044   0.044  0.2952 -1.6475 -0.2131
 5886TIP3   OH217614   7.160   0.027   2.361 -0.5803 -0.2888  0.0702
 5886TIP3    H117615   7.126   0.070   2.439  1.5189  0.4846  0.6376
 5886TIP3    H217616   7.177   0.098   2.299  2.8257 -0.1359  0.9748
 5887TIP3   OH217617   8.146   5.596   3.859  0.2151 -0.0605  0.1064
 5887TIP3    H117618   8.080   5.573   3.794 -0.5100  2.1172 -0.0210
 5887TIP3    H217619   8.226   5.554   3.829 -0.2447  0.4137 -1.9015
 5888TIP3   OH217620   5.913   6.606   0.270  0.1476  0.5828  0.2958
 5888TIP3    H117621   5.846   6.553   0.313  0.1241  1.2530  1.0965
 5888TIP3    H217622   5.996   6.573   0.306  0.2083  0.2460 -0.1474
 5889TIP3   OH217623   7.583   4.074   0.108  0.2512  0.2636  0.0430
 5889TIP3    H117624   7.535   4.151   0.075  2.0814  1.4531  0.0336
 5889TIP3    H217625   7.668   4.108   0.133  1.3680 -1.9023 -0.5974
 5890TIP3   OH217626   2.290   7.324   1.919  0.6226 -0.3879 -0.1023
 5890TIP3    H117627   2.240   7.324   2.000  1.0219  0.9614  0.1756
 5890TIP3    H217628   2.224   7.316   1.850 -0.1051  2.0152  0.2237
 5891TIP3   OH217629   1.280   2.739   6.347  0.4967 -0.1971  0.1652
 5891TIP3    H117630   1.260   2.823   6.389 -0.5175  0.2421 -1.1202
 5891TIP3    H217631   1.198   2.690   6.352  0.4793 -0.3032 -0.8745
 5892TIP3   OH217632   0.806   5.599   0.763 -0.3204 -0.4969  0.6399
 5892TIP3    H117633   0.819   5.670   0.826 -0.5341 -0.5587  0.7549
 5892TIP3    H217634   0.847   5.523   0.805 -0.2921 -0.4938  0.6179
 5893TIP3   OH217635   5.887   1.408   2.793  0.3160  0.5743  0.0161
 5893TIP3    H117636   5.974   1.398   2.754  0.9768  1.3226  1.2410
 5893TIP3    H217637   5.853   1.489   2.755  0.0940  0.2164 -0.5578
 5894TIP3   OH217638   2.677   3.008   6.246  0.0744 -0.2930  0.0394
 5894TIP3    H117639   2.694   3.082   6.188  1.7905 -1.4099 -0.9355
 5894TIP3    H217640   2.582   3.011   6.261 -0.1506  1.0317 -1.4319
 5895TIP3   OH217641   0.674   3.119   5.799  0.2673 -0.0489 -0.2668
 5895TIP3    H117642   0.644   3.175   5.727  0.5659  0.2869 -0.1313
 5895TIP3    H217643   0.697   3.180   5.869  1.5308 -0.2724 -0.4587
 5896TIP3   OH217644   3.133   6.341   6.316 -0.1453  0.6358 -0.3987
 5896TIP3    H117645   3.098   6.262   6.357  0.2235  0.6745  0.0037
 5896TIP3    H217646   3.114   6.331   6.223 -0.5108  0.2911 -0.2914
 5897TIP3   OH217647   2.314   4.885   1.513 -0.1750 -0.6965 -0.5065
 5897TIP3    H117648   2.349   4.887   1.602 -0.5063 -1.0085 -0.3631
 5897TIP3    H217649   2.365   4.817   1.468  0.9864  0.4721 -0.9934
 5898TIP3   OH217650   6.616   1.999   0.985 -0.6995  0.1563 -0.4634
 5898TIP3    H117651   6.611   2.018   1.079 -1.5673  0.7009 -0.6018
 5898TIP3    H217652   6.708   1.982   0.968 -0.4025  0.9095  0.3319
 5899TIP3   OH217653   0.778   1.300   0.731 -0.0534  0.3005 -0.6359
 5899TIP3    H117654   0.776   1.234   0.801 -4.6113  1.4323  0.6652
 5899TIP3    H217655   0.812   1.378   0.774 -0.8890  0.4463 -0.2099
 5900TIP3   OH217656   5.259   5.478   1.533  0.0408 -0.0814  0.3876
 5900TIP3    H117657   5.260   5.383   1.521 -0.3965 -0.0999  0.4658
 5900TIP3    H217658   5.259   5.513   1.444  1.7357 -0.1185  0.3528
 5901TIP3   OH217659   3.599   0.151   1.416  0.2813 -0.0495 -0.1417
 5901TIP3    H117660   3.544   0.124   1.343  0.2305  0.1963 -0.1937
 5901TIP3    H217661   3.545   0.211   1.467  0.0643 -0.7526  0.4874
 5902TIP3   OH217662   7.828   4.809   4.065  0.3152  0.0292 -0.8194
 5902TIP3    H117663   7.850   4.868   4.137 -0.4887 -0.8632  0.1942
 5902TIP3    H217664   7.764   4.857   4.013  1.0463  0.7557 -1.0573
 5903TIP3   OH217665   6.029   4.257   5.706  0.2228  0.5597  0.3831
 5903TIP3    H117666   5.941   4.294   5.708  0.0624  0.3262 -1.1315
 5903TIP3    H217667   6.016   4.163   5.715  0.1669  0.3784 -1.2537
 5904TIP3   OH217668   3.123   4.174   0.013  0.0519 -0.1139  0.0851
 5904TIP3    H117669   3.028   4.185   0.012  0.0180 -0.3886 -1.0787
 5904TIP3    H217670   3.146   4.180   0.106 -1.3219 -1.9492  0.6030
 5905TIP3   OH217671   1.599   0.423   6.592 -0.4963  0.0224 -0.4487
 5905TIP3    H117672   1.628   0.417   6.683 -2.6605  0.1750  0.3025
 5905TIP3    H217673   1.521   0.478   6.595 -0.5003  0.1910 -2.4346
 5906TIP3   OH217674   0.251   4.090   6.455  0.3789  0.3234  0.3018
 5906TIP3    H117675   0.309   4.021   6.486 -0.4521 -0.7038 -0.3774
 5906TIP3    H217676   0.302   4.134   6.387  0.7939  0.1770  0.5129
 5907TIP3   OH217677   7.939   2.797   1.053 -0.3316  0.3952  0.0352
 5907TIP3    H117678   7.911   2.716   1.011 -1.0684  0.6702 -0.0196
 5907TIP3    H217679   8.034   2.797   1.044 -0.5034  1.6205 -3.9578
 5908TIP3   OH217680   4.738   1.099   3.739 -0.5518  0.6256  0.4264
 5908TIP3    H117681   4.686   1.097   3.659 -0.4315  2.8456  0.2314
 5908TIP3    H217682   4.809   1.037   3.724 -0.3684  1.2201 -1.3120
 5909TIP3   OH217683   3.851   4.769   2.689 -0.3697 -0.0181 -0.4532
 5909TIP3    H117684   3.896   4.827   2.751 -0.0466 -1.5979  0.8860
 5909TIP3    H217685   3.882   4.796   2.603  0.6638  1.0173  0.2168
 5910TIP3   OH217686   0.439   4.208   5.099 -0.8723  0.5537  0.3875
 5910TIP3    H117687   0.482   4.195   5.015 -0.3014  1.5596  0.5112
 5910TIP3    H217688   0.355   4.248   5.077 -0.0209  2.4384  0.3543
 5911TIP3   OH217689   6.595   0.859   4.400 -0.4442 -0.6512 -0.2676
 5911TIP3    H117690   6.605   0.892   4.489  1.3586 -0.6819 -0.4295
 5911TIP3    H217691   6.500   0.861   4.385 -0.7053  0.4437  1.2258
 5912TIP3   OH217692   5.549   4.978   4.115 -0.1222  0.4663 -0.0803
 5912TIP3    H117693   5.592   5.058   4.083  0.0834 -0.2640 -1.7309
 5912TIP3    H217694   5.621   4.925   4.150  0.0959  0.0422 -1.1235
 5913TIP3   OH217695   2.825   2.911   0.830 -0.1124 -0.5726 -0.3319
 5913TIP3    H117696   2.800   2.934   0.920  0.2940  1.7174 -0.7353
 5913TIP3    H217697   2.883   2.835   0.839  2.0500  1.1681  1.6200
 5914TIP3   OH217698   2.867   2.753   5.481  0.5875 -0.2187  0.3414
 5914TIP3    H117699   2.939   2.697   5.449  0.1894  0.8565 -2.7605
 5914TIP3    H217700   2.792   2.728   5.428  0.0902  2.3750 -0.2935
 5915TIP3   OH217701   2.971   0.952   0.540  0.1035 -0.0449  0.3798
 5915TIP3    H117702   2.975   0.873   0.486 -2.3555  1.1168 -1.7107
 5915TIP3    H217703   3.046   1.004   0.511 -1.4890  0.8197 -2.5403
 5916TIP3   OH217704   7.308   3.081   3.074 -0.1714 -0.2304 -0.3649
 5916TIP3    H117705   7.263   3.055   3.155 -0.9216  1.4747 -0.1886
 5916TIP3    H217706   7.354   3.162   3.098 -0.7544  0.5342 -1.7387
 5917TIP3   OH217707   2.781   3.145   4.966  0.0016 -0.3118  0.2299
 5917TIP3    H117708   2.777   3.050   4.977 -3.3184 -0.2459  0.5357
 5917TIP3    H217709   2.820   3.157   4.879  0.1305 -1.9398  0.0268
 5918TIP3   OH217710   2.338   6.777   3.659  0.0086  0.4224 -0.2522
 5918TIP3    H117711   2.314   6.782   3.751  2.8699  0.9001  0.5733
 5918TIP3    H217712   2.258   6.750   3.614 -0.6479 -3.5216  2.7868
 5919TIP3   OH217713   7.328   6.046   3.991  0.0147 -0.3665  0.2972
 5919TIP3    H117714   7.306   6.112   4.056  1.9459  0.0173  0.6067
 5919TIP3    H217715   7.278   5.969   4.017 -0.8397  0.4090  1.0031
 5920TIP3   OH217716   6.439   4.192   0.691  0.1725 -0.0379  0.4120
 5920TIP3    H117717   6.527   4.229   0.688 -0.0616  0.5324  0.5041
 5920TIP3    H217718   6.453   4.098   0.700  0.7735 -0.0118 -0.2416
 5921TIP3   OH217719   6.078   2.136   5.086  0.6896 -0.5171  0.0876
 5921TIP3    H117720   6.138   2.186   5.142 -1.6840  3.2953 -0.4319
 5921TIP3    H217721   6.125   2.127   5.003  0.9240  1.8605 -0.1156
 5922TIP3   OH217722   5.721   2.678   6.094 -0.2918  0.0810  0.3518
 5922TIP3    H117723   5.692   2.616   6.027 -0.7190  0.3777  0.2550
 5922TIP3    H217724   5.657   2.749   6.088 -0.3899  0.0603  1.1417
 5923TIP3   OH217725   6.562   4.653   1.888  0.2260 -0.0752 -0.8175
 5923TIP3    H117726   6.510   4.706   1.949 -2.8479 -1.5886 -1.9190
 5923TIP3    H217727   6.557   4.564   1.924  0.7171 -0.5124 -1.8080
 5924TIP3   OH217728   5.708   0.753   3.157  0.5516  0.0754  0.0544
 5924TIP3    H117729   5.769   0.700   3.208 -0.6589  0.2698  1.7898
 5924TIP3    H217730   5.709   0.839   3.200 -1.5612 -0.1689  0.6974
 5925TIP3   OH217731   7.128   7.646   0.852  0.0337 -0.2527 -0.4429
 5925TIP3    H117732   7.159   7.564   0.814 -0.5051 -0.2833 -0.8248
 5925TIP3    H217733   7.185   7.660   0.928  0.6662 -0.5495 -0.8517
 5926TIP3   OH217734   1.438   6.511   5.268 -0.1879  0.0071 -0.3054
 5926TIP3    H117735   1.517   6.526   5.320  0.6406 -1.2369 -1.1241
 5926TIP3    H217736   1.379   6.583   5.291  1.5830  1.5808 -0.4290
 5927TIP3   OH217737   2.914   4.364   0.831  0.1153  0.6926  0.1502
 5927TIP3    H117738   2.844   4.399   0.886  0.0924 -2.0299  2.0385
 5927TIP3    H217739   2.970   4.314   0.891  1.6371 -0.2177 -1.8834
 5928TIP3   OH217740   0.121   1.600   4.945  0.0986  1.0116 -0.3749
 5928TIP3    H117741   0.074   1.683   4.936 -0.1054  1.1428  1.5466
 5928TIP3    H217742   0.053   1.534   4.954  0.2647  0.8645 -0.1805
 5929TIP3   OH217743   1.417   1.393   6.294 -0.4978  0.4960 -0.0792
 5929TIP3    H117744   1.371   1.410   6.211  1.3479  0.0939 -1.2469
 5929TIP3    H217745   1.457   1.307   6.281  0.0734  0.5745  1.1339
 5930TIP3   OH217746   7.681   3.335   2.553 -0.5042 -0.4171  0.6597
 5930TIP3    H117747   7.690   3.396   2.626 -4.1330 -2.2006  2.9056
 5930TIP3    H217748   7.721   3.254   2.585  1.0566 -0.3292 -0.8764
 5931TIP3   OH217749   4.787   1.329   1.325 -0.3979 -0.2544 -0.5528
 5931TIP3    H117750   4.723   1.305   1.258 -0.5076  0.5919 -0.7631
 5931TIP3    H217751   4.784   1.424   1.327 -0.9621 -0.2807  1.2071
 5932TIP3   OH217752   5.870   6.447   4.526 -0.5292  0.2872  0.3138
 5932TIP3    H117753   5.958   6.427   4.495 -0.1889  0.6713  1.0183
 5932TIP3    H217754   5.865   6.543   4.526 -1.3211  0.2614 -0.7476
 5933TIP3   OH217755   3.436   1.639   3.981 -0.1315 -0.2452  0.0966
 5933TIP3    H117756   3.488   1.622   3.903  1.6569  0.1781  1.1434
 5933TIP3    H217757   3.424   1.734   3.982  0.1070 -0.2154  0.4735
 5934TIP3   OH217758   8.159   6.487   4.714  0.2821 -0.6785 -0.0067
 5934TIP3    H117759   8.225   6.547   4.680 -0.7725  0.2094 -0.5421
 5934TIP3    H217760   8.075   6.523   4.683 -0.6419 -0.5762  2.3490
 5935TIP3   OH217761   2.220   3.205   3.133  0.4380 -0.3805 -0.1842
 5935TIP3    H117762   2.231   3.239   3.045  1.4496 -2.8581 -1.0971
 5935TIP3    H217763   2.125   3.201   3.145  0.2948  0.4457 -0.9235
 5936TIP3   OH217764   1.854   4.661   4.652 -0.1881 -0.4353 -0.2473
 5936TIP3    H117765   1.848   4.701   4.739  0.7424 -2.8050  0.9892
 5936TIP3    H217766   1.849   4.735   4.591 -1.7693  1.2053  1.7596
 5937TIP3   OH217767   1.341   3.186   3.758  0.3238 -0.2058  0.0090
 5937TIP3    H117768   1.255   3.151   3.736  1.0308 -0.7872 -2.0722
 5937TIP3    H217769   1.395   3.108   3.772  1.0895  0.0573 -1.2598
 5938TIP3   OH217770   1.847   5.509   0.109 -0.1790  0.3158  0.4289
 5938TIP3    H117771   1.894   5.432   0.139 -0.2599  0.8846  2.1618
 5938TIP3    H217772   1.896   5.540   0.033 -1.5285 -2.7663 -1.8743
 5939TIP3   OH217773   0.326   7.340   1.194  0.0617 -0.2432  0.0248
 5939TIP3    H117774   0.245   7.389   1.186 -0.1108 -0.2856  1.2737
 5939TIP3    H217775   0.385   7.398   1.242  0.4384 -0.5905 -0.0100
 5940TIP3   OH217776   7.487   1.578   2.172  0.2698 -0.8127 -0.3309
 5940TIP3    H117777   7.425   1.647   2.149  1.2722 -0.7781 -3.4377
 5940TIP3    H217778   7.571   1.623   2.181  0.3798 -1.2350  0.9583
 5941TIP3   OH217779   3.174   1.316   6.543 -0.3609 -0.5062 -0.5012
 5941TIP3    H117780   3.196   1.311   6.450  1.5215  1.7089 -0.2672
 5941TIP3    H217781   3.225   1.246   6.583 -0.4373 -0.8615 -1.0121
 5942TIP3   OH217782   2.355   3.809   1.468  0.2853 -0.1040 -0.5025
 5942TIP3    H117783   2.398   3.893   1.487 -0.3387  0.1850 -0.3266
 5942TIP3    H217784   2.376   3.754   1.544 -1.6723  0.8453  0.8256
 5943TIP3   OH217785   2.447   5.844   3.326  0.1456  0.2855  0.7000
 5943TIP3    H117786   2.503   5.770   3.348  0.7248  0.8078  0.9969
 5943TIP3    H217787   2.369   5.804   3.287  1.1314 -0.3972 -0.6226
 5944TIP3   OH217788   6.390   2.716   2.060 -0.1602 -0.1177 -0.5263
 5944TIP3    H117789   6.453   2.645   2.070  1.0946  0.7732 -1.8943
 5944TIP3    H217790   6.433   2.793   2.098 -1.4059  0.0146  0.7188
 5945TIP3   OH217791   4.142   6.918   1.872 -0.1926 -0.5678  0.2701
 5945TIP3    H117792   4.218   6.878   1.912 -0.4605  0.5700  2.0304
 5945TIP3    H217793   4.067   6.878   1.916 -0.5032  0.4682  0.7296
 5946TIP3   OH217794   2.965   6.548   2.587 -0.2884 -0.3451 -0.2210
 5946TIP3    H117795   3.059   6.536   2.598 -0.0951  0.3113 -1.0612
 5946TIP3    H217796   2.929   6.459   2.596  0.4733 -0.6926 -0.4871
 5947TIP3   OH217797   4.088   2.179   5.606 -0.4601  0.0531  0.0273
 5947TIP3    H117798   4.047   2.129   5.535  0.2829 -2.3896  1.2045
 5947TIP3    H217799   4.070   2.128   5.685 -1.5766  2.8652  1.7383
 5948TIP3   OH217800   3.541   5.013   1.147 -0.3828  0.2457 -0.1116
 5948TIP3    H117801   3.630   5.047   1.137 -0.2386  0.0125  0.3596
 5948TIP3    H217802   3.542   4.929   1.102 -0.2477  0.0537  0.2452
 5949TIP3   OH217803   4.173   5.855   0.946 -0.1995 -0.3624 -0.0990
 5949TIP3    H117804   4.123   5.929   0.982  0.8327  0.3663 -0.1268
 5949TIP3    H217805   4.232   5.829   1.017  0.2384 -0.4162 -0.4801
 5950TIP3   OH217806   4.402   1.781   0.439  0.2076 -0.6247  0.3620
 5950TIP3    H117807   4.394   1.784   0.535 -0.4848  1.2638  0.2913
 5950TIP3    H217808   4.469   1.847   0.419 -1.8510  1.3010 -0.5859
 5951TIP3   OH217809   7.295   5.081   0.983 -0.3029 -0.2026  0.0697
 5951TIP3    H117810   7.322   5.160   1.030 -1.3694 -0.3391  0.9648
 5951TIP3    H217811   7.322   5.009   1.040  1.0596 -0.5404 -0.9436
 5952TIP3   OH217812   3.999   5.149   1.608 -0.3746 -0.4026  0.5691
 5952TIP3    H117813   4.026   5.230   1.652 -0.2429 -0.4549  0.5819
 5952TIP3    H217814   3.961   5.179   1.525  0.1600 -0.3657  0.3371
 5953TIP3   OH217815   7.922   3.524   5.075 -0.7027 -0.0411 -0.1261
 5953TIP3    H117816   7.829   3.515   5.056 -0.5599 -0.3203 -0.7098
 5953TIP3    H217817   7.951   3.596   5.019 -0.6810  0.4126  0.4608
 5954TIP3   OH217818   6.974   1.521   1.079 -0.1518  0.0766  0.2557
 5954TIP3    H117819   6.967   1.577   1.156 -0.5836 -2.8325  2.4730
 5954TIP3    H217820   7.050   1.466   1.095 -0.0938 -0.4471 -1.5515
 5955TIP3   OH217821   3.221   0.559   6.530  0.2537 -0.4683  0.7806
 5955TIP3    H117822   3.217   0.467   6.505  0.3508  0.0133 -1.1680
 5955TIP3    H217823   3.220   0.606   6.447  1.3196  1.2579  1.6923
 5956TIP3   OH217824   6.254   0.954   6.043 -0.7190  0.0407  0.1994
 5956TIP3    H117825   6.292   1.038   6.019  3.2991 -1.7830 -0.5259
 5956TIP3    H217826   6.270   0.947   6.138 -2.5016  0.6731  0.5864
 5957TIP3   OH217827   2.512   1.936   3.627  0.2760 -0.2955  0.6668
 5957TIP3    H117828   2.422   1.919   3.599 -0.1622  1.9224  0.6125
 5957TIP3    H217829   2.525   1.876   3.700 -0.6098 -1.9014 -0.4064
 5958TIP3   OH217830   7.230   3.612   5.431 -0.0761  0.1323  0.5938
 5958TIP3    H117831   7.245   3.691   5.483  0.8646 -0.2302  0.8930
 5958TIP3    H217832   7.152   3.632   5.379  0.7162  1.6560 -0.0747
 5959TIP3   OH217833   0.611   5.312   1.610 -0.1143  0.3314 -0.5254
 5959TIP3    H117834   0.571   5.378   1.666 -1.4587  0.5602 -1.6985
 5959TIP3    H217835   0.538   5.255   1.584  0.5652 -0.0787 -1.5891
 5960TIP3   OH217836   4.536   6.645   5.471 -0.3246 -0.0275  0.1144
 5960TIP3    H117837   4.459   6.596   5.445 -0.8312 -0.1522  1.7551
 5960TIP3    H217838   4.609   6.600   5.428 -1.1525  0.2828 -1.7132
 5961TIP3   OH217839   7.231   6.763   2.353 -0.2478  0.1732  0.1960
 5961TIP3    H117840   7.195   6.851   2.364  0.5072  0.5949 -0.6257
 5961TIP3    H217841   7.325   6.775   2.348  0.1698 -0.9918  3.0191
 5962TIP3   OH217842   2.883   2.877   4.276 -0.0303  0.3805 -0.4289
 5962TIP3    H117843   2.968   2.900   4.237  0.2526  0.3912  0.1808
 5962TIP3    H217844   2.898   2.794   4.320  0.1146  1.1566  1.0594
 5963TIP3   OH217845   8.080   6.744   5.896  0.2443  0.1864 -0.3711
 5963TIP3    H117846   8.091   6.780   5.808 -1.8000 -1.3148 -1.3319
 5963TIP3    H217847   8.012   6.800   5.935  0.9599  0.6853  0.1842
 5964TIP3   OH217848   1.833   4.858   2.138  0.2471  0.4208 -0.5029
 5964TIP3    H117849   1.908   4.810   2.173  1.1810  2.4207  0.3710
 5964TIP3    H217850   1.816   4.928   2.202  1.2482  3.4900 -3.3014
 5965TIP3   OH217851   5.915   7.539   3.479  0.3318  0.1667  0.3111
 5965TIP3    H117852   5.956   7.553   3.394 -1.7546 -0.3602 -0.8428
 5965TIP3    H217853   5.972   7.475   3.522  2.5016  1.9024  0.1747
 5966TIP3   OH217854   7.182   2.936   6.494  0.8576 -0.2958 -0.3725
 5966TIP3    H117855   7.125   2.860   6.505 -0.0430  0.4697  0.2923
 5966TIP3    H217856   7.127   3.002   6.453  1.0186  0.7177  0.9888
 5967TIP3   OH217857   6.128   1.658   6.140  0.4097 -0.1412  0.4351
 5967TIP3    H117858   6.124   1.593   6.070 -0.5708 -1.2406  1.4771
 5967TIP3    H217859   6.124   1.742   6.094 -1.9489 -0.8312 -0.7889
 5968TIP3   OH217860   6.256   4.513   4.117 -0.2811  0.1541  0.0056
 5968TIP3    H117861   6.193   4.512   4.190  0.2548  2.1134  0.5563
 5968TIP3    H217862   6.208   4.554   4.045 -0.0009  0.6307  0.0856
 5969TIP3   OH217863   4.136   0.245   6.238 -0.3311  0.2714  0.1590
 5969TIP3    H117864   4.181   0.295   6.170  0.3746  1.6288  1.5793
 5969TIP3    H217865   4.151   0.153   6.213  0.1465  0.7194 -1.3428
 5970TIP3   OH217866   6.061   2.046   2.544 -0.3114  0.2764 -0.7427
 5970TIP3    H117867   6.057   2.023   2.637 -2.9372  0.6302 -0.6997
 5970TIP3    H217868   6.090   1.965   2.501 -0.2732 -0.2675  0.2718
 5971TIP3   OH217869   6.218   5.659   4.400  0.0673  0.0720 -0.3393
 5971TIP3    H117870   6.272   5.676   4.324 -1.0820 -0.6270 -1.3571
 5971TIP3    H217871   6.269   5.599   4.453  0.0839 -1.0451 -1.5681
 5972TIP3   OH217872   3.683   5.312   1.615  0.0591  0.2273  0.3363
 5972TIP3    H117873   3.645   5.236   1.573 -0.3601  1.0440 -0.8066
 5972TIP3    H217874   3.615   5.379   1.611  1.4155  1.6092 -1.4441
 5973TIP3   OH217875   3.046   0.961   5.968 -0.2148 -0.4149  0.3940
 5973TIP3    H117876   3.000   0.878   5.983 -2.1020  1.0279  4.1993
 5973TIP3    H217877   3.001   1.000   5.893 -1.2272 -1.6194  0.3328
 5974TIP3   OH217878   2.590   0.443   0.288 -0.3088 -0.0184 -0.3809
 5974TIP3    H117879   2.496   0.448   0.273 -0.5340  0.5604  1.1080
 5974TIP3    H217880   2.624   0.402   0.208 -1.7634  0.0779 -1.0935
 5975TIP3   OH217881   6.897   3.425   6.707 -0.7406  0.6529 -0.4270
 5975TIP3    H117882   6.866   3.396   6.621 -0.5985 -0.7786 -0.0178
 5975TIP3    H217883   6.818   3.459   6.750 -0.5141  2.9765 -1.7057
 5976TIP3   OH217884   3.001   3.509   0.169  0.2823  0.2648  0.2127
 5976TIP3    H117885   2.936   3.482   0.235 -0.5339 -1.6664 -1.2513
 5976TIP3    H217886   2.958   3.579   0.120  0.4626  0.9551  1.0246
 5977TIP3   OH217887   4.815   6.208   6.154  0.2998 -0.1651  0.1388
 5977TIP3    H117888   4.774   6.287   6.190 -0.1213 -0.0356 -0.6078
 5977TIP3    H217889   4.803   6.216   6.059  0.6104 -0.9327  0.0309
 5978TIP3   OH217890   6.485   2.100   0.035  0.1277  0.3510  0.1818
 5978TIP3    H117891   6.458   2.180   0.079 -0.5973 -0.5484  1.4522
 5978TIP3    H217892   6.430   2.032   0.074  0.4526 -0.7059 -1.1403
 5979TIP3   OH217893   1.084   6.083   0.285  0.1237 -0.5791  0.2590
 5979TIP3    H117894   1.017   6.087   0.217 -0.4152 -0.1588  0.7952
 5979TIP3    H217895   1.092   6.173   0.316 -0.9006 -1.0245  1.9258
 5980TIP3   OH217896   0.259   4.562   0.027 -0.0050  0.8577  0.3486
 5980TIP3    H117897   0.232   4.602  -0.056 -0.5498  1.1582  0.6640
 5980TIP3    H217898   0.216   4.615   0.094 -0.6747 -0.1991  0.7744
 5981TIP3   OH217899   3.155   4.161   0.332 -0.7785  0.4482  0.0241
 5981TIP3    H117900   3.151   4.132   0.423  0.1329  1.0404  0.2658
 5981TIP3    H217901   3.249   4.161   0.311 -1.0069 -0.0604 -1.0393
 5982TIP3   OH217902   1.330   3.934   5.101 -0.2022 -0.3639  0.0207
 5982TIP3    H117903   1.256   3.887   5.063  0.9804 -1.4359 -1.0597
 5982TIP3    H217904   1.401   3.870   5.102  0.4290  0.3155  2.0548
 5983TIP3   OH217905   8.087   7.742   5.998 -0.4725  0.3126  0.3331
 5983TIP3    H117906   8.037   7.766   5.921 -0.3596 -0.8740 -0.1348
 5983TIP3    H217907   8.037   7.669   6.037 -1.2935  1.7667  2.1915
 5984TIP3   OH217908   2.868   7.033   4.305  0.8292 -0.4606 -0.2345
 5984TIP3    H117909   2.811   7.067   4.374 -0.1063 -1.3584 -0.5449
 5984TIP3    H217910   2.892   7.111   4.253 -0.7802 -0.1623 -0.5808
 5985TIP3   OH217911   6.297   1.551   2.496  0.3230  0.1439  0.4528
 5985TIP3    H117912   6.382   1.561   2.539  0.4606  3.0106 -0.2883
 5985TIP3    H217913   6.318   1.512   2.411  0.4566 -2.0401  1.4048
 5986TIP3   OH217914   5.524   0.369   4.225 -0.4930 -0.0397 -0.2104
 5986TIP3    H117915   5.488   0.457   4.234 -1.2211 -0.3777  0.4119
 5986TIP3    H217916   5.483   0.320   4.297  1.6785 -0.3211  0.9232
 5987TIP3   OH217917   5.642   0.192   1.934  0.1010 -0.1230 -0.0849
 5987TIP3    H117918   5.573   0.176   1.997  0.8442 -0.8500  0.5737
 5987TIP3    H217919   5.713   0.134   1.961  0.7810  0.2328 -1.0395
 5988TIP3   OH217920   5.833   4.567   4.245 -0.1681 -0.3202 -0.1830
 5988TIP3    H117921   5.762   4.576   4.309 -0.0474 -0.6523  0.0034
 5988TIP3    H217922   5.791   4.578   4.160 -0.2619  0.5214 -0.0287
 5989TIP3   OH217923   5.888   1.641   1.978  0.1860  0.3663 -0.2602
 5989TIP3    H117924   5.852   1.715   1.929 -0.1987  0.4037  0.0731
 5989TIP3    H217925   5.813   1.582   1.991  0.2865  0.3502  0.2635
 5990TIP3   OH217926   7.847   2.486   3.859 -0.1970  0.5074  0.0814
 5990TIP3    H117927   7.783   2.430   3.814 -0.5031 -0.8088  2.0251
 5990TIP3    H217928   7.932   2.455   3.829 -0.3984 -0.3480  0.3638
 5991TIP3   OH217929   2.784   0.655   0.742 -1.0306 -0.4808  0.2946
 5991TIP3    H117930   2.756   0.593   0.675 -0.4198 -0.3707 -0.0735
 5991TIP3    H217931   2.880   0.656   0.734 -0.9468 -0.5472  1.2395
 5992TIP3   OH217932   5.452   6.561   6.451  0.4189 -0.2169  0.0681
 5992TIP3    H117933   5.412   6.559   6.364  0.7161 -1.6466 -0.0625
 5992TIP3    H217934   5.520   6.628   6.445 -0.6611  0.8717 -0.2799
 5993TIP3   OH217935   4.908   2.288   4.540  0.0749  0.0819 -0.2872
 5993TIP3    H117936   4.988   2.293   4.592  0.0793  0.7946 -0.3501
 5993TIP3    H217937   4.856   2.219   4.581  0.2332  0.3921  0.4427
 5994TIP3   OH217938   3.357   1.232   2.252 -0.1613  0.4584  0.6041
 5994TIP3    H117939   3.402   1.204   2.172 -0.6326 -0.6985  0.7249
 5994TIP3    H217940   3.276   1.271   2.221 -0.4301 -0.1572  0.5081
 5995TIP3   OH217941   6.688   2.417   5.901 -0.4623  0.1752 -0.0692
 5995TIP3    H117942   6.756   2.351   5.918 -1.5672 -1.2388 -0.8440
 5995TIP3    H217943   6.709   2.452   5.815 -0.6840 -0.2490 -0.3008
 5996TIP3   OH217944   5.491   5.540   2.268 -0.0324 -0.3734  0.2259
 5996TIP3    H117945   5.460   5.486   2.340  1.4913 -1.2093  0.2992
 5996TIP3    H217946   5.574   5.577   2.299 -0.8003  1.6824  0.0112
 5997TIP3   OH217947   7.462   7.531   1.934  0.3048  0.5187  0.1283
 5997TIP3    H117948   7.447   7.527   1.840 -0.3815 -1.0369  0.2615
 5997TIP3    H217949   7.397   7.470   1.971  1.0213  0.5686  1.5432
 5998TIP3   OH217950   5.153   7.156   5.176 -0.7067  0.3632 -0.7654
 5998TIP3    H117951   5.072   7.111   5.202 -1.9229  3.4445  1.4125
 5998TIP3    H217952   5.130   7.200   5.094 -1.0179  0.6449 -0.5310
 5999TIP3   OH217953   6.644   0.991   2.629  0.5120  0.3279 -0.2390
 5999TIP3    H117954   6.609   0.905   2.608  1.8594 -0.4023  0.3614
 5999TIP3    H217955   6.667   1.030   2.545  0.0287  0.0497 -0.5006
 6000TIP3   OH217956   5.059   4.844   0.945  0.0567  0.8873 -0.0024
 6000TIP3    H117957   5.023   4.813   0.862 -1.4589 -0.1880  1.0020
 6000TIP3    H217958   5.153   4.827   0.939  0.4022  3.0410 -2.4120
 6001TIP3   OH217959   3.221   4.347   5.173  0.1086  0.0689  1.0490
 6001TIP3    H117960   3.179   4.375   5.092  0.7735  0.4608  0.8362
 6001TIP3    H217961   3.300   4.302   5.145 -0.9952 -2.2340  1.3654
 6002TIP3   OH217962   1.015   3.167   0.872 -0.1310  0.4084  0.5744
 6002TIP3    H117963   0.961   3.195   0.946 -0.9251 -1.3167  0.6979
 6002TIP3    H217964   1.080   3.108   0.910  0.8122  1.1670  0.1782
 6003TIP3   OH217965   5.698   0.287   2.364  0.6659 -0.1379  0.0620
 6003TIP3    H117966   5.710   0.211   2.420  0.6582  1.2190  2.0205
 6003TIP3    H217967   5.734   0.360   2.415 -1.0614  1.4738 -0.9042
 6004TIP3   OH217968   2.184   6.978   5.975 -0.0578  0.3696 -0.4614
 6004TIP3    H117969   2.266   7.007   5.935 -0.2808 -0.6292 -1.6989
 6004TIP3    H217970   2.211   6.906   6.033  0.0241  0.5427 -0.2815
 6005TIP3   OH217971   6.305   6.053   2.344 -0.1651  0.5582  0.7365
 6005TIP3    H117972   6.281   6.012   2.427 -0.0062 -1.0740  0.0176
 6005TIP3    H217973   6.283   5.987   2.278  0.4910  1.4910 -0.4508
 6006TIP3   OH217974   1.415   6.598   0.223  0.3047 -0.4685  0.2831
 6006TIP3    H117975   1.442   6.643   0.143 -0.4289  1.3127  0.9842
 6006TIP3    H217976   1.355   6.530   0.193 -0.0735  0.2687 -0.6904
 6007TIP3   OH217977   2.063   0.742   6.058  0.1922 -0.6269 -0.0487
 6007TIP3    H117978   2.060   0.832   6.091  0.7085 -1.1947  1.6621
 6007TIP3    H217979   2.053   0.750   5.963 -1.6219  1.0879  0.2348
 6008TIP3   OH217980   7.817   6.902   5.429 -0.3691  0.3519 -0.0072
 6008TIP3    H117981   7.736   6.883   5.381 -1.4810 -1.1844  2.3065
 6008TIP3    H217982   7.818   6.997   5.438 -1.3721  0.4693 -0.9548
 6009TIP3   OH217983   1.021   3.443   2.410 -0.3922 -0.4327  0.1205
 6009TIP3    H117984   1.007   3.380   2.340  0.6138  2.2918 -2.7281
 6009TIP3    H217985   0.938   3.489   2.418 -0.1871 -0.0180 -0.0833
 6010TIP3   OH217986   4.911   1.840   0.826  0.3532  0.3150 -0.2701
 6010TIP3    H117987   4.959   1.777   0.772  1.2794  1.3896 -0.7407
 6010TIP3    H217988   4.819   1.818   0.812  0.6075 -2.9278  1.9952
 6011TIP3   OH217989   3.482   3.795   3.884 -0.4777  0.2604  0.1357
 6011TIP3    H117990   3.392   3.784   3.855 -0.3981  0.1970 -0.0877
 6011TIP3    H217991   3.533   3.742   3.823 -0.2906  0.2880  0.2688
 6012TIP3   OH217992   2.979   7.640   4.371 -0.4681 -0.1500 -0.7285
 6012TIP3    H117993   3.039   7.702   4.412 -0.6971 -0.9079  0.8226
 6012TIP3    H217994   2.892   7.680   4.381 -0.7795 -1.2308  1.4297
 6013TIP3   OH217995   0.719   1.501   6.605  0.5384 -0.5784  0.8982
 6013TIP3    H117996   0.722   1.428   6.668 -2.3413 -1.7741 -0.1716
 6013TIP3    H217997   0.627   1.510   6.584  0.7014  3.6908  1.1748
 6014TIP3   OH217998   5.213   6.941   5.436  0.0114 -0.3245 -0.1635
 6014TIP3    H117999   5.273   7.016   5.430 -0.4355  0.2921  2.1137
 6014TIP3    H218000   5.266   6.866   5.408  1.6937  0.2945  1.1770
 6015TIP3   OH218001   3.177   5.248   1.372 -0.2177  0.0045  0.3108
 6015TIP3    H118002   3.205   5.242   1.281 -1.2124  1.7182 -0.1576
 6015TIP3    H218003   3.258   5.263   1.421  0.4174 -1.6293 -0.1561
 6016TIP3   OH218004   1.910   6.593   1.550 -0.1039 -0.1741 -0.2746
 6016TIP3    H118005   1.936   6.502   1.560 -0.7099 -0.2673  0.5573
 6016TIP3    H218006   1.840   6.591   1.485 -2.5458 -0.8115  2.1650
 6017TIP3   OH218007   5.135   2.280   5.908  0.2599  0.2054  0.2006
 6017TIP3    H118008   5.106   2.320   5.990  0.9180  0.9466  0.0822
 6017TIP3    H218009   5.109   2.343   5.841  1.6629  0.6377  0.0469
 6018TIP3   OH218010   5.199   7.000   1.296  0.2396  0.1337 -0.1725
 6018TIP3    H118011   5.192   6.976   1.203  0.6219 -0.0956 -0.1465
 6018TIP3    H218012   5.275   7.058   1.300 -0.6018  1.2808 -0.2135
 6019TIP3   OH218013   1.230   4.125   5.577  0.5738  0.2804 -0.1568
 6019TIP3    H118014   1.177   4.101   5.501  1.2890 -0.4339 -0.4437
 6019TIP3    H218015   1.194   4.073   5.649  1.0016 -0.3459 -0.3930
 6020TIP3   OH218016   3.037   7.573   0.551  0.0882  0.4321 -0.2393
 6020TIP3    H118017   3.081   7.491   0.530  0.3518  0.1511  1.2889
 6020TIP3    H218018   2.945   7.549   0.563  0.0014  0.5312 -0.6815
 6021TIP3   OH218019   7.609   5.927   2.110 -0.0412  0.2281  0.3252
 6021TIP3    H118020   7.585   5.906   2.020  1.2050  1.6100 -0.3792
 6021TIP3    H218021   7.663   5.854   2.138  1.9898  1.0825 -1.1144
 6022TIP3   OH218022   8.315   5.250   4.714  0.3364  0.0873 -0.2469
 6022TIP3    H118023   8.237   5.297   4.742  0.0059  0.1428 -1.2306
 6022TIP3    H218024   8.283   5.183   4.653  1.1597  0.9906 -1.7471
 6023TIP3   OH218025   4.380   5.220   5.416  0.4735  0.8089 -0.0942
 6023TIP3    H118026   4.346   5.168   5.489  2.3888 -0.2052  0.1556
 6023TIP3    H218027   4.429   5.291   5.459  1.1907  0.4919 -0.3729
 6024TIP3   OH218028   3.575   0.000   4.314 -0.8107 -0.4390  0.0224
 6024TIP3    H118029   3.520   0.043   4.247 -0.2030 -1.0704 -0.9019
 6024TIP3    H218030   3.582   0.065   4.384  0.2636  1.1172 -1.4380
 6025TIP3   OH218031   7.540   7.048   3.793  0.3420 -0.1102 -0.1235
 6025TIP3    H118032   7.509   6.961   3.768  0.7732  0.0115 -1.1492
 6025TIP3    H218033   7.463   7.091   3.830  0.3644 -1.2443  1.3292
 6026TIP3   OH218034   7.671   4.409   3.183  0.0727  0.5231  0.5636
 6026TIP3    H118035   7.734   4.379   3.249 -0.2540  1.0401  1.1287
 6026TIP3    H218036   7.593   4.355   3.198  0.6980 -0.7930 -0.7795
 6027TIP3   OH218037   4.031   0.370   4.688 -0.7661  0.1354  0.5333
 6027TIP3    H118038   4.030   0.452   4.638 -0.8125  0.5074  1.1337
 6027TIP3    H218039   3.939   0.354   4.709 -0.7404  0.0114  0.5548
 6028TIP3   OH218040   3.981   5.761   6.757  0.2298 -0.3365 -0.1163
 6028TIP3    H118041   3.980   5.667   6.737 -0.0508 -0.1026 -1.3167
 6028TIP3    H218042   4.072   5.787   6.744  0.1405 -0.2821 -0.6901
 6029TIP3   OH218043   3.503   2.798   1.129 -0.1802 -0.0704 -0.2067
 6029TIP3    H118044   3.598   2.800   1.113 -0.2646  0.5929 -0.6852
 6029TIP3    H218045   3.472   2.723   1.078  0.0508 -0.1328 -0.2578
 6030TIP3   OH218046   1.670   7.182   5.007  0.2724 -0.1350  0.4495
 6030TIP3    H118047   1.752   7.201   5.053  0.1980  1.1005  0.0983
 6030TIP3    H218048   1.644   7.266   4.967 -1.3190 -0.4273  0.8007
 6031TIP3   OH218049   3.631   2.198   0.959  0.2497  0.0636  0.2727
 6031TIP3    H118050   3.642   2.104   0.945  1.1772  0.3657 -1.3544
 6031TIP3    H218051   3.598   2.231   0.875  1.2226  1.3503  0.3573
 6032TIP3   OH218052   6.120   7.028   6.681  0.0730 -0.1042 -0.1054
 6032TIP3    H118053   6.215   7.035   6.668 -0.0979  0.4095 -1.1745
 6032TIP3    H218054   6.088   7.117   6.670 -0.4484 -0.1306  1.1181
 6033TIP3   OH218055   0.302   2.705   0.725  0.1573 -0.7169 -0.2706
 6033TIP3    H118056   0.368   2.673   0.787 -1.1912 -3.0392  0.1067
 6033TIP3    H218057   0.328   2.667   0.641  0.9175  0.8628 -0.7955
 6034TIP3   OH218058   4.468   1.743   5.149  0.4025 -0.3823  0.4827
 6034TIP3    H118059   4.475   1.813   5.084 -0.4772 -0.5185  0.2237
 6034TIP3    H218060   4.529   1.675   5.119  0.0008 -0.4481 -0.2115
 6035TIP3   OH218061   7.978   0.342   2.413  0.1176 -0.0489  0.3864
 6035TIP3    H118062   7.950   0.425   2.453 -0.9234 -0.5602  0.7610
 6035TIP3    H218063   7.922   0.276   2.454 -0.3111 -0.7124 -1.1883
 6036TIP3   OH218064   3.435   6.208   3.534 -0.2859 -0.0567 -0.1228
 6036TIP3    H118065   3.433   6.113   3.518  0.0928 -0.3019  1.1987
 6036TIP3    H218066   3.507   6.221   3.596 -1.3886  0.8680  1.0259
 6037TIP3   OH218067   5.239   3.894   6.252 -0.2874 -0.3023  0.1118
 6037TIP3    H118068   5.293   3.932   6.322  1.5148 -1.9551 -0.2824
 6037TIP3    H218069   5.248   3.956   6.180  0.3275 -0.0819  0.3654
 6038TIP3   OH218070   7.233   6.798   5.842  0.2540  0.2282  0.1983
 6038TIP3    H118071   7.163   6.864   5.838 -0.5225 -0.4453  1.6704
 6038TIP3    H218072   7.214   6.749   5.922  2.9809  0.6230  1.1754
 6039TIP3   OH218073   3.074   3.858   4.493  0.7118  0.0324  0.2910
 6039TIP3    H118074   3.116   3.774   4.510 -2.4318 -1.6946  0.2779
 6039TIP3    H218075   3.000   3.861   4.553 -0.8449  1.5061 -1.5570
 6040TIP3   OH218076   4.934   7.148   1.579  0.1348  0.2420 -0.4796
 6040TIP3    H118077   4.961   7.223   1.633  0.3313  0.0069 -0.2498
 6040TIP3    H218078   4.910   7.080   1.642  1.7608 -0.5407 -0.6442
 6041TIP3   OH218079   4.562   0.805   2.383 -0.3349  0.4795 -0.4669
 6041TIP3    H118080   4.641   0.792   2.331 -0.3243  0.8238 -0.5391
 6041TIP3    H218081   4.549   0.722   2.429  0.6638  0.7615  0.3620
 6042TIP3   OH218082   1.011   7.293   3.577 -0.0956 -0.1023  0.3627
 6042TIP3    H118083   1.075   7.222   3.578 -0.9355 -0.9230  3.0706
 6042TIP3    H218084   1.053   7.363   3.627 -1.1254 -0.5180  1.8533
 6043TIP3   OH218085   5.620   2.711   5.727 -0.4286  0.0214  0.2938
 6043TIP3    H118086   5.541   2.673   5.765  0.2724 -2.0336 -0.1782
 6043TIP3    H218087   5.692   2.670   5.774  0.3913  0.4067 -0.5765
 6044TIP3   OH218088   8.043   2.616   5.353 -0.0884 -0.1862 -0.1189
 6044TIP3    H118089   8.028   2.537   5.405  1.1343 -1.0666 -1.0508
 6044TIP3    H218090   8.062   2.684   5.418 -0.7229 -0.7453  0.6733
 6045TIP3   OH218091   2.384   4.641   4.157 -0.2030 -0.1998  0.1279
 6045TIP3    H118092   2.445   4.610   4.090 -0.5000 -1.6116  0.4758
 6045TIP3    H218093   2.298   4.634   4.115 -0.4289 -1.4460  0.7354
 6046TIP3   OH218094   8.255   2.532   3.994 -0.5463 -0.0523 -0.0621
 6046TIP3    H118095   8.203   2.525   4.074 -0.2774 -1.8763 -0.0178
 6046TIP3    H218096   8.197   2.501   3.925 -0.2342 -0.0138 -0.3442
 6047TIP3   OH218097   0.909   6.183   1.679 -0.1729  0.6962 -0.2578
 6047TIP3    H118098   0.967   6.157   1.607 -1.0788  0.6380 -0.9871
 6047TIP3    H218099   0.824   6.148   1.655 -0.4976  0.7013  0.8480
 6048TIP3   OH218100   5.179   2.928   6.033  0.5617  0.1241  0.1187
 6048TIP3    H118101   5.138   3.009   6.063 -2.3676 -0.8708 -0.8516
 6048TIP3    H218102   5.183   2.937   5.938  1.1933 -0.4474  0.0871
 6049TIP3   OH218103   7.623   3.323   6.628  1.0358 -0.3869 -0.3719
 6049TIP3    H118104   7.563   3.289   6.695 -2.4108  2.0870 -1.8833
 6049TIP3    H218105   7.610   3.265   6.553 -0.5198  0.7863 -1.0772
 6050TIP3   OH218106   2.414   2.545   1.057  0.5704 -0.1440  0.2455
 6050TIP3    H118107   2.389   2.609   1.123 -1.7814 -0.1388 -0.5640
 6050TIP3    H218108   2.455   2.597   0.988 -0.5152  0.3989 -0.0094
 6051TIP3   OH218109   6.705   5.105   0.415  0.0532 -0.6639 -0.1418
 6051TIP3    H118110   6.694   5.027   0.469  0.1830 -1.5263 -1.3418
 6051TIP3    H218111   6.799   5.116   0.407  0.0383 -0.1748  0.3107
 6052TIP3   OH218112   2.759   7.099   3.672  0.4582  0.3406 -0.3289
 6052TIP3    H118113   2.684   7.040   3.682  0.2501  0.9557  2.7994
 6052TIP3    H218114   2.828   7.043   3.636 -0.1329 -1.5682  1.2730
 6053TIP3   OH218115   7.906   1.574   2.979 -0.4527  0.1196  0.0814
 6053TIP3    H118116   7.991   1.537   3.005 -0.2028 -0.3944 -1.3732
 6053TIP3    H218117   7.916   1.668   2.996 -0.2172 -0.1382  1.5106
 6054TIP3   OH218118   1.513   1.191   3.745 -0.2540  0.6975  0.0486
 6054TIP3    H118119   1.603   1.193   3.714 -0.8844 -1.4438 -2.2019
 6054TIP3    H218120   1.493   1.098   3.757 -2.0289  1.1447  1.0075
 6055TIP3   OH218121   5.049   1.020   2.013 -0.1212  0.1960  0.3314
 6055TIP3    H118122   4.997   0.952   2.057  0.6187  0.8125  2.2743
 6055TIP3    H218123   4.997   1.044   1.936 -1.0531 -1.5912  0.3549
 6056TIP3   OH218124   6.935   3.324   0.502  0.0516  0.3553  0.0626
 6056TIP3    H118125   6.844   3.295   0.503 -0.1106  0.7811 -0.9324
 6056TIP3    H218126   6.982   3.255   0.455  0.2450  0.1275  0.5913
 6057TIP3   OH218127   0.837   4.553   3.398  0.4724  0.3915  0.4795
 6057TIP3    H118128   0.804   4.548   3.309 -0.3764  0.1305  0.8049
 6057TIP3    H218129   0.931   4.533   3.390  0.4549  0.6217 -0.3759
 6058TIP3   OH218130   1.819   0.688   2.104  0.0710  0.2879 -0.2567
 6058TIP3    H118131   1.826   0.613   2.163  0.9810 -0.1582 -0.9157
 6058TIP3    H218132   1.854   0.761   2.155 -1.6306  0.4799  0.7085
 6059TIP3   OH218133   5.236   0.211   3.205 -0.1461  0.2350  0.4467
 6059TIP3    H118134   5.265   0.297   3.236 -0.7060  0.0677  1.4671
 6059TIP3    H218135   5.195   0.170   3.281 -3.2914  0.5204 -0.9539
 6060TIP3   OH218136   6.464   0.122   3.040  0.3926  0.2803 -0.5647
 6060TIP3    H118137   6.410   0.061   3.089 -0.2105 -0.3630 -1.9585
 6060TIP3    H218138   6.402   0.184   3.001  0.9805  1.7639  0.7328
 6061TIP3   OH218139   6.929   7.789   1.589 -0.2832  0.0320 -0.1177
 6061TIP3    H118140   6.886   7.842   1.655 -0.4881 -0.3522  0.0632
 6061TIP3    H218141   7.019   7.777   1.621  0.3588  1.8475 -1.0800
 6062TIP3   OH218142   2.089   1.375   4.296  0.0639  0.0784 -0.5518
 6062TIP3    H118143   2.153   1.313   4.263  1.1021  0.9830 -0.2862
 6062TIP3    H218144   2.054   1.334   4.375  1.2685  0.1347  0.0326
 6063TIP3   OH218145   8.041   5.951   0.381 -0.0338 -0.0470  0.0488
 6063TIP3    H118146   7.952   5.926   0.402 -0.7438  1.2790 -1.2096
 6063TIP3    H218147   8.083   5.964   0.466 -0.7829 -1.4472  0.6626
 6064TIP3   OH218148   2.048   2.871   6.217  0.1685  0.0107  0.2112
 6064TIP3    H118149   2.023   2.779   6.206  1.3248 -0.4071  0.9047
 6064TIP3    H218150   2.023   2.892   6.307 -0.8883  0.6599 -0.2104
 6065TIP3   OH218151   0.607   6.210   0.693  0.1922  0.7610 -0.1858
 6065TIP3    H118152   0.690   6.163   0.699  0.4321  1.1156 -0.6485
 6065TIP3    H218153   0.629   6.300   0.716  0.1579  1.0841 -1.3404
 6066TIP3   OH218154   7.316   2.341   3.932 -0.1896 -0.4847 -0.0336
 6066TIP3    H118155   7.228   2.320   3.899 -0.0362 -0.8505 -0.2081
 6066TIP3    H218156   7.306   2.339   4.027 -0.5406  0.1846 -0.0477
 6067TIP3   OH218157   7.693   1.710   1.461  0.4367 -0.2519 -0.2790
 6067TIP3    H118158   7.627   1.695   1.393 -0.0152  0.8564 -0.1143
 6067TIP3    H218159   7.772   1.667   1.428 -0.3522 -1.6071 -0.4810
 6068TIP3   OH218160   1.351   4.927   4.750  0.0531  0.1623  0.1228
 6068TIP3    H118161   1.317   4.950   4.663 -1.3337  2.4345  1.1613
 6068TIP3    H218162   1.425   4.870   4.732 -0.5011  0.1182 -2.5342
 6069TIP3   OH218163   4.828   1.868   2.323 -0.7977  0.3858 -0.3614
 6069TIP3    H118164   4.917   1.854   2.292  0.9874 -0.4933  4.4107
 6069TIP3    H218165   4.779   1.793   2.290  1.1124 -0.9639 -0.2480
 6070TIP3   OH218166   0.518   1.584   1.177  0.1135  0.0140  0.1253
 6070TIP3    H118167   0.544   1.665   1.134  3.6943 -1.2323 -0.3532
 6070TIP3    H218168   0.506   1.609   1.269  1.3832  1.0898  0.0332
 6071TIP3   OH218169   4.135   3.433   4.520  0.2519 -0.4693  0.7075
 6071TIP3    H118170   4.208   3.480   4.481  1.0783  0.3124  2.9963
 6071TIP3    H218171   4.058   3.466   4.474  1.1830  0.0509 -0.5243
 6072TIP3   OH218172   5.998   2.907   0.339 -0.2808 -0.2107  0.1374
 6072TIP3    H118173   5.971   2.964   0.268  1.0081  0.2006 -0.0468
 6072TIP3    H218174   5.996   2.819   0.302 -0.8975 -0.1440  0.0031
 6073TIP3   OH218175   1.484   6.392   6.616 -0.6456  0.2320  0.6339
 6073TIP3    H118176   1.553   6.413   6.552 -2.8598  1.6976 -1.4496
 6073TIP3    H218177   1.467   6.299   6.602 -0.1694  0.2240  0.0194
 6074TIP3   OH218178   6.938   0.878   6.690  0.0663 -0.2356 -0.3543
 6074TIP3    H118179   7.005   0.937   6.654  0.3762 -0.3407  0.0506
 6074TIP3    H218180   6.987   0.803   6.723 -0.4223 -1.3552 -2.0499
 6075TIP3   OH218181   5.536   5.112   1.712  0.2164  0.0953  0.5013
 6075TIP3    H118182   5.550   5.041   1.775  0.1651  0.9910  1.5578
 6075TIP3    H218183   5.597   5.181   1.740 -0.1878  0.7168 -0.1186
 6076TIP3   OH218184   5.820   3.472   5.366  0.4372  0.6216  0.0196
 6076TIP3    H118185   5.831   3.511   5.453  2.1785 -0.6349  0.4239
 6076TIP3    H218186   5.899   3.419   5.354 -0.4991 -0.4741 -1.6818
 6077TIP3   OH218187   2.259   5.329   6.248  0.3158  0.1460 -0.2000
 6077TIP3    H118188   2.267   5.280   6.329  0.7551  0.0709 -0.2848
 6077TIP3    H218189   2.304   5.412   6.266 -0.0597  0.3475 -0.1904
 6078TIP3   OH218190   5.648   2.977   5.427  0.5059  0.2148  0.2238
 6078TIP3    H118191   5.612   3.065   5.413 -1.6457 -0.6515 -0.0810
 6078TIP3    H218192   5.587   2.919   5.382  0.7825 -1.6091  2.0658
 6079TIP3   OH218193   6.030   6.284   0.651  0.8937 -0.4596  0.6424
 6079TIP3    H118194   5.985   6.333   0.720  0.5872 -0.0992  0.1941
 6079TIP3    H218195   6.056   6.202   0.693  0.5303 -0.3302  1.1293
 6080TIP3   OH218196   4.105   5.637   5.351  0.0128 -0.5449  0.5464
 6080TIP3    H118197   4.194   5.604   5.337 -0.9615 -2.6538 -1.3839
 6080TIP3    H218198   4.064   5.572   5.408 -1.4566 -2.0097 -1.9805
 6081TIP3   OH218199   2.423   6.387   4.305 -0.7986 -0.1817 -0.4166
 6081TIP3    H118200   2.418   6.292   4.309 -1.8220 -0.1323 -0.2407
 6081TIP3    H218201   2.503   6.405   4.255 -0.1455 -1.1108  0.2714
 6082TIP3   OH218202   4.265   1.257   0.273 -0.0543 -0.4275 -0.2088
 6082TIP3    H118203   4.243   1.193   0.205  1.0039  0.5584 -1.5354
 6082TIP3    H218204   4.328   1.316   0.231  0.5336  0.3021  1.5953
 6083TIP3   OH218205   4.771   3.783   4.853  0.3227 -0.6211 -0.0460
 6083TIP3    H118206   4.842   3.787   4.916  1.5050 -2.5152 -1.1577
 6083TIP3    H218207   4.714   3.714   4.885  0.5820 -1.1396 -0.6704
 6084TIP3   OH218208   2.028   2.049   3.282 -0.3621  0.2913  0.7801
 6084TIP3    H118209   2.020   2.138   3.316 -1.2779 -0.1189  1.7038
 6084TIP3    H218210   2.014   2.058   3.188 -2.4838  0.8871  1.1008
 6085TIP3   OH218211   0.569   4.408   6.160  0.3120  0.0479  0.2160
 6085TIP3    H118212   0.616   4.492   6.159  0.9721 -0.3149 -0.8783
 6085TIP3    H218213   0.523   4.405   6.076  0.3793 -0.7323  0.2016
 6086TIP3   OH218214   2.753   7.062   5.031  0.3743  0.2944  0.1982
 6086TIP3    H118215   2.799   7.122   4.972  0.8426 -0.6071 -0.3764
 6086TIP3    H218216   2.786   6.975   5.007  0.3996 -0.1166  1.6257
 6087TIP3   OH218217   3.905   0.825   1.519 -0.3334  0.6540 -0.1322
 6087TIP3    H118218   3.902   0.776   1.602 -1.3672 -1.1782 -1.1772
 6087TIP3    H218219   3.887   0.759   1.452  0.3014  2.1213 -1.8282
 6088TIP3   OH218220   0.761   1.840   5.999  0.1905  0.0789 -0.0120
 6088TIP3    H118221   0.846   1.869   5.967 -0.1959 -1.2302 -2.4724
 6088TIP3    H218222   0.698   1.897   5.955 -0.2658  1.0424  1.7883
 6089TIP3   OH218223   7.358   5.271   6.476 -0.1560 -0.0020 -0.2917
 6089TIP3    H118224   7.374   5.288   6.383  1.7554 -0.5518 -0.1005
 6089TIP3    H218225   7.417   5.199   6.498  0.8921  1.4105  1.8225
 6090TIP3   OH218226   6.075   7.325   1.834 -0.1158  0.3424  0.5762
 6090TIP3    H118227   6.169   7.307   1.831 -0.1105  0.4146 -1.9237
 6090TIP3    H218228   6.067   7.404   1.886  1.3241  0.8359  0.0952
 6091TIP3   OH218229   2.344   4.893   6.045  0.0939 -0.0707 -0.3678
 6091TIP3    H118230   2.419   4.951   6.058 -0.7029  0.8252  0.4316
 6091TIP3    H218231   2.305   4.924   5.963  0.5283 -0.4615 -0.7235
 6092TIP3   OH218232   5.996   5.500   2.494 -0.2396  0.2446 -0.3268
 6092TIP3    H118233   6.042   5.584   2.493 -1.6905  1.1655  1.9259
 6092TIP3    H218234   6.061   5.436   2.464  1.0785  2.0700 -1.5175
 6093TIP3   OH218235   1.963   5.832   2.939 -0.0317 -0.3380 -0.6721
 6093TIP3    H118236   1.914   5.852   3.019  2.7277 -1.2097  1.3498
 6093TIP3    H218237   1.945   5.740   2.922 -0.9166 -0.0628 -1.3625
 6094TIP3   OH218238   1.235   7.114   3.521 -0.2156 -0.3117  0.3104
 6094TIP3    H118239   1.321   7.139   3.556 -0.5597  1.0522  0.2530
 6094TIP3    H218240   1.246   7.118   3.426 -0.7246  1.4126  0.2898
 6095TIP3   OH218241   6.072   1.957   1.703  0.5380 -0.5690  0.2155
 6095TIP3    H118242   6.096   1.875   1.660  1.5150  0.4159 -1.1986
 6095TIP3    H218243   6.151   1.982   1.752  0.4296 -0.2108  0.2099
 6096TIP3   OH218244   5.934   0.091   0.927  0.3800 -0.6845  0.4707
 6096TIP3    H118245   5.874   0.164   0.908  1.5769  0.6443  1.5075
 6096TIP3    H218246   5.896   0.016   0.882 -1.3770  0.3847  0.0624
 6097TIP3   OH218247   7.462   5.808   0.321  0.7153 -0.0220 -0.2071
 6097TIP3    H118248   7.444   5.816   0.415  0.5388  0.6820 -0.2920
 6097TIP3    H218249   7.539   5.864   0.307  0.0401  0.8122 -0.6710
 6098TIP3   OH218250   2.901   1.303   4.849  0.7714 -0.2560  0.1778
 6098TIP3    H118251   2.993   1.326   4.863  0.8087  0.4085 -1.0341
 6098TIP3    H218252   2.897   1.209   4.870  1.5204 -0.0982  1.1126
 6099TIP3   OH218253   1.831   6.263   5.595 -0.3993 -0.2247  0.6196
 6099TIP3    H118254   1.922   6.244   5.577 -0.0742  1.9274 -0.3043
 6099TIP3    H218255   1.783   6.228   5.520  0.0022  1.0261 -0.2535
 6100TIP3   OH218256   7.856   3.812   3.395 -0.1590  0.8123  0.5503
 6100TIP3    H118257   7.921   3.805   3.326 -0.7789 -1.2557  0.1009
 6100TIP3    H218258   7.894   3.765   3.470 -1.9016 -2.4857 -0.4369
 6101TIP3   OH218259   7.245   3.601   4.175 -0.0278  0.0562  0.3921
 6101TIP3    H118260   7.323   3.593   4.120 -1.6463 -1.6794 -1.8155
 6101TIP3    H218261   7.179   3.640   4.117 -1.3516 -0.3258  1.5993
 6102TIP3   OH218262   3.591   4.193   0.952  0.5373 -0.3609  0.2872
 6102TIP3    H118263   3.533   4.197   1.028  1.3155  1.5324  0.8671
 6102TIP3    H218264   3.675   4.162   0.988  0.7183 -0.1001  0.0991
 6103TIP3   OH218265   4.409   5.540   6.125 -0.3104  0.3503 -0.2834
 6103TIP3    H118266   4.350   5.468   6.149  1.5194 -0.7577  1.1190
 6103TIP3    H218267   4.457   5.560   6.205  1.2290  1.2060 -1.3611
 6104TIP3   OH218268   3.384   1.908   4.034 -0.3512  0.0856 -0.1216
 6104TIP3    H118269   3.328   1.909   4.111 -0.0471 -2.1260  0.2024
 6104TIP3    H218270   3.447   1.978   4.048 -2.5637  2.2254 -0.1994
 6105TIP3   OH218271   7.426   0.562   3.084  0.4282  0.2055  0.0121
 6105TIP3    H118272   7.392   0.637   3.132 -1.0448 -0.3734 -0.0665
 6105TIP3    H218273   7.519   0.580   3.072  0.2549  1.6233  0.6978
 6106TIP3   OH218274   0.509   6.997   0.995  0.4840  0.0694  0.4958
 6106TIP3    H118275   0.597   6.978   0.963  0.5805 -1.6068  1.6333
 6106TIP3    H218276   0.503   7.093   0.992  2.0933  0.1843 -0.2204
 6107TIP3   OH218277   5.503   0.657   1.904  0.0828 -0.3383  0.4680
 6107TIP3    H118278   5.504   0.750   1.880 -1.7069 -0.0610  1.3418
 6107TIP3    H218279   5.569   0.650   1.974  1.0499  0.0091 -0.3748
 6108TIP3   OH218280   2.380   3.362   3.314  0.6741  0.7626  0.2126
 6108TIP3    H118281   2.451   3.416   3.278  2.0404 -0.1319  1.4492
 6108TIP3    H218282   2.370   3.290   3.252  1.0562  0.7398  0.1770
 6109TIP3   OH218283   4.730   2.878   4.671 -0.2166 -0.4339 -0.1635
 6109TIP3    H118284   4.713   2.811   4.604  0.6225 -0.6857 -0.1431
 6109TIP3    H218285   4.711   2.834   4.754  1.3537 -1.0306 -0.0764
 6110TIP3   OH218286   5.525   6.250   1.306 -0.5121  0.2295  0.2758
 6110TIP3    H118287   5.618   6.268   1.297 -0.3434 -0.4488  0.5957
 6110TIP3    H218288   5.490   6.258   1.218  0.3226 -2.0515 -0.3362
 6111TIP3   OH218289   5.490   3.312   4.370 -0.4402  0.1300  0.0642
 6111TIP3    H118290   5.470   3.226   4.407 -0.5248 -0.3854 -1.1133
 6111TIP3    H218291   5.508   3.367   4.445  1.0788 -1.2792  0.7931
 6112TIP3   OH218292   2.281   4.918   3.388  0.3721 -0.1511 -0.1398
 6112TIP3    H118293   2.231   4.879   3.317 -0.7694  0.9882 -0.0007
 6112TIP3    H218294   2.215   4.942   3.454  1.2961 -0.2325  0.8499
 6113TIP3   OH218295   4.402   4.866   4.283  0.4573 -0.6148  0.6782
 6113TIP3    H118296   4.488   4.823   4.285  2.1887  2.5174  2.1877
 6113TIP3    H218297   4.359   4.838   4.364  1.0055 -0.5334  1.0044
 6114TIP3   OH218298   7.586   0.297   0.972 -0.0238 -0.4014 -0.2308
 6114TIP3    H118299   7.669   0.328   0.936  0.8522 -2.0306  0.2768
 6114TIP3    H218300   7.599   0.203   0.984 -2.0305 -0.7281 -0.3275
 6115TIP3   OH218301   1.981   4.039   3.579  0.2936 -0.2805  0.6692
 6115TIP3    H118302   1.909   4.029   3.641  1.4334 -1.8859  1.8156
 6115TIP3    H218303   2.024   3.953   3.579  1.2445  0.1438 -1.2127
 6116TIP3   OH218304   1.603   0.986   5.843  0.0572  0.2760  0.6107
 6116TIP3    H118305   1.527   0.941   5.879 -0.2098 -0.7218 -1.0808
 6116TIP3    H218306   1.597   1.076   5.876  0.0638 -0.6320  3.2873
 6117TIP3   OH218307   1.973   2.841   5.048 -0.1069  0.2197 -0.2858
 6117TIP3    H118308   2.043   2.889   5.091 -1.2867  2.3396 -0.6152
 6117TIP3    H218309   1.921   2.804   5.119 -1.3669  2.7162  0.2164
 6118TIP3   OH218310   3.536   3.232   6.515  0.2732 -0.5536 -0.0088
 6118TIP3    H118311   3.544   3.293   6.441  3.3847  1.0641  1.4437
 6118TIP3    H218312   3.489   3.281   6.582 -1.2602 -1.4844 -0.3747
 6119TIP3   OH218313   1.827   2.860   2.106 -0.1750 -0.0402 -0.1384
 6119TIP3    H118314   1.828   2.943   2.155  0.5668  0.1317 -0.4358
 6119TIP3    H218315   1.743   2.821   2.128  0.1913 -0.0429  1.4278
 6120TIP3   OH218316   1.616   0.999   4.007 -0.4168  0.4938 -0.5128
 6120TIP3    H118317   1.570   0.924   4.046 -0.3894 -0.5219 -2.3050
 6120TIP3    H218318   1.708   0.984   4.030 -0.2716 -0.6154 -1.6716
 6121TIP3   OH218319   3.162   0.441   5.544  0.0263  0.0656 -0.1696
 6121TIP3    H118320   3.068   0.434   5.530  0.1308  0.2284 -1.0686
 6121TIP3    H218321   3.176   0.410   5.633 -0.9319  0.4633  0.1370
 6122TIP3   OH218322   3.510   3.481   1.035  0.0152  0.1598  0.3824
 6122TIP3    H118323   3.454   3.540   1.086 -0.1426  3.3446 -3.0917
 6122TIP3    H218324   3.449   3.436   0.977  0.6124  0.2946 -0.3510
 6123TIP3   OH218325   7.565   7.797   1.823 -0.1560  0.2170  0.4628
 6123TIP3    H118326   7.557   7.711   1.863  0.0905 -0.8595 -1.6905
 6123TIP3    H218327   7.475   7.829   1.815 -0.2130  0.4438  1.7708
 6124TIP3   OH218328   6.754   3.662   5.150  0.1968 -0.0794 -0.1478
 6124TIP3    H118329   6.769   3.680   5.057  0.4315  3.4115  0.4324
 6124TIP3    H218330   6.659   3.668   5.160  0.2011 -0.0930 -0.0970
 6125TIP3   OH218331   4.741   4.296   5.828 -0.1487  0.2038  0.0798
 6125TIP3    H118332   4.701   4.355   5.892  1.2980 -0.3107  1.5115
 6125TIP3    H218333   4.822   4.341   5.802 -0.1580 -0.1247 -0.5335
 6126TIP3   OH218334   4.373   0.543   2.165 -0.1439 -1.2757  0.2221
 6126TIP3    H118335   4.364   0.542   2.069 -1.2667 -0.3047  0.3041
 6126TIP3    H218336   4.437   0.474   2.183  1.8683  0.0374 -1.3856
 6127TIP3   OH218337   4.338   4.263   3.978  0.4569  0.3178  0.7931
 6127TIP3    H118338   4.365   4.174   3.999 -0.2590  0.3412  1.8556
 6127TIP3    H218339   4.329   4.307   4.063 -1.7097  0.6554  0.4595
 6128TIP3   OH218340   2.337   1.296   2.775  0.2316 -0.3462  0.4324
 6128TIP3    H118341   2.376   1.384   2.770 -0.0640 -0.2650 -0.5907
 6128TIP3    H218342   2.412   1.237   2.770  0.3406 -0.1658 -0.1580
 6129TIP3   OH218343   0.101   0.482   5.925 -0.1235  0.3168 -0.3639
 6129TIP3    H118344   0.024   0.496   5.980  0.4136  2.5077 -0.0701
 6129TIP3    H218345   0.174   0.482   5.987  0.2594 -0.2906 -0.7977
 6130TIP3   OH218346   0.289   7.346   1.999 -0.6682 -0.2265  0.0465
 6130TIP3    H118347   0.266   7.391   2.080 -2.1296 -0.3554 -0.2767
 6130TIP3    H218348   0.354   7.403   1.958 -1.6863  1.0727  0.1608
 6131TIP3   OH218349   0.442   1.934   2.395 -0.4990 -0.0657  0.5339
 6131TIP3    H118350   0.412   1.927   2.304  1.4598 -2.2637 -0.0311
 6131TIP3    H218351   0.362   1.947   2.446 -1.7201  0.5192 -1.4153
 6132TIP3   OH218352   0.860   5.491   2.485 -0.0651 -0.0451  0.1090
 6132TIP3    H118353   0.811   5.527   2.411 -1.3166 -0.2283  0.8284
 6132TIP3    H218354   0.860   5.562   2.549 -0.3844 -0.4454  0.5560
 6133TIP3   OH218355   7.432   1.765   3.160 -0.3184 -0.0845 -0.0114
 6133TIP3    H118356   7.424   1.675   3.192  0.2761 -0.4016 -0.7243
 6133TIP3    H218357   7.392   1.818   3.229  0.6436 -0.7745  1.1273
 6134TIP3   OH218358   6.171   5.678   3.326 -0.0634 -0.1449 -0.0647
 6134TIP3    H118359   6.247   5.641   3.281 -0.7456  0.3549 -1.7352
 6134TIP3    H218360   6.147   5.754   3.273 -1.0832  0.3232  1.0287
 6135TIP3   OH218361   4.548   4.179   6.095  0.1817  0.0710  0.0739
 6135TIP3    H118362   4.604   4.244   6.138 -0.7756  0.1754  1.2151
 6135TIP3    H218363   4.547   4.105   6.155 -1.6087  0.4187  0.5449
 6136TIP3   OH218364   6.845   0.817   0.602 -0.2654  0.1542 -0.6302
 6136TIP3    H118365   6.928   0.800   0.647  0.0801  0.9929 -0.9324
 6136TIP3    H218366   6.778   0.811   0.671  0.0091 -0.7613 -0.4300
 6137TIP3   OH218367   1.614   3.086   3.404 -0.4451  0.7477  0.1195
 6137TIP3    H118368   1.528   3.123   3.382  0.0891  0.5974 -2.5926
 6137TIP3    H218369   1.605   2.992   3.385  0.1189  0.6248  0.4474
 6138TIP3   OH218370   4.542   0.660   6.691 -0.4071 -0.5196  0.2282
 6138TIP3    H118371   4.516   0.740   6.736  2.2776 -1.1894  3.3348
 6138TIP3    H218372   4.611   0.687   6.631 -0.9761 -0.2462 -0.3139
 6139TIP3   OH218373   6.992   6.059   4.413  0.0775  0.2861  0.2893
 6139TIP3    H118374   6.953   6.077   4.328  1.5933 -0.6881 -0.6607
 6139TIP3    H218375   7.072   6.010   4.393 -0.6145 -1.8753  2.3656
 6140TIP3   OH218376   1.289   6.461   2.533 -0.0330  0.2677  0.1154
 6140TIP3    H118377   1.237   6.397   2.581  0.4160  0.0400  0.3024
 6140TIP3    H218378   1.351   6.409   2.482  1.6926  0.5511  1.7882
 6141TIP3   OH218379   7.478   5.703   2.930  0.2360 -0.1636 -0.2742
 6141TIP3    H118380   7.509   5.639   2.994  0.8200  0.9009  0.5280
 6141TIP3    H218381   7.542   5.700   2.859  0.2597 -0.4635 -0.2398
 6142TIP3   OH218382   2.892   4.211   5.790 -0.0725 -0.5282  0.3124
 6142TIP3    H118383   2.910   4.285   5.847  2.0618 -0.3354 -0.5294
 6142TIP3    H218384   2.921   4.134   5.839 -0.0799 -0.5687  0.2539
 6143TIP3   OH218385   3.529   2.627   5.675 -0.0116  0.3982 -0.4210
 6143TIP3    H118386   3.552   2.705   5.725  2.6934 -0.8303  0.4983
 6143TIP3    H218387   3.589   2.560   5.708 -1.0455 -1.6099 -2.3717
 6144TIP3   OH218388   5.059   7.302   4.953 -0.3463 -0.4358 -0.2436
 6144TIP3    H118389   5.074   7.388   4.913  0.4722 -0.1096  0.7048
 6144TIP3    H218390   5.109   7.242   4.898  0.7546  0.0032  0.2339
 6145TIP3   OH218391   2.660   1.373   4.734 -0.3303 -0.2279  0.0508
 6145TIP3    H118392   2.663   1.461   4.697 -0.1274 -0.0025  0.5985
 6145TIP3    H218393   2.746   1.361   4.774  0.1569 -1.1996 -1.2067
 6146TIP3   OH218394   5.459   7.449   6.058 -0.2830  0.1174 -0.7925
 6146TIP3    H118395   5.501   7.497   5.987  2.5211  0.7880  1.1557
 6146TIP3    H218396   5.401   7.514   6.100  0.5832  0.7087 -0.4878
 6147TIP3   OH218397   6.436   3.420   6.653 -0.3618  0.0042  0.2044
 6147TIP3    H118398   6.499   3.396   6.585 -1.3500 -0.7921 -0.4666
 6147TIP3    H218399   6.464   3.370   6.730  0.2415  0.2116  0.1228
 6148TIP3   OH218400   4.131   1.794   0.260 -0.7599  0.0652  0.3115
 6148TIP3    H118401   4.144   1.840   0.176 -1.7586  1.8925  1.0890
 6148TIP3    H218402   4.187   1.717   0.254 -1.7994 -0.5971 -2.5756
 6149TIP3   OH218403   7.065   6.846   2.081 -0.3108  0.2629  0.1553
 6149TIP3    H118404   7.031   6.872   2.166 -0.2857 -1.4718  0.7364
 6149TIP3    H218405   7.157   6.873   2.082  0.6239 -2.5547  2.0515
 6150TIP3   OH218406   1.732   6.629   2.651  0.1082 -0.6911 -0.1441
 6150TIP3    H118407   1.767   6.687   2.719 -2.8087 -0.8290  1.6688
 6150TIP3    H218408   1.777   6.546   2.664  1.9390  0.1860 -0.5883
 6151TIP3   OH218409   4.742   7.458   5.094  0.2796  0.5481 -0.5549
 6151TIP3    H118410   4.723   7.552   5.094  1.3822  0.8080 -2.1788
 6151TIP3    H218411   4.710   7.427   5.009 -0.2952 -0.6214  0.0592
 6152TIP3   OH218412   0.671   5.372   1.061  0.0557  0.0307 -0.3465
 6152TIP3    H118413   0.659   5.442   0.996  1.2672  2.7374  2.1114
 6152TIP3    H218414   0.625   5.404   1.139  0.5175 -2.0207  0.8246
 6153TIP3   OH218415   1.609   0.361   2.163  0.1931  0.2950 -0.0408
 6153TIP3    H118416   1.546   0.300   2.125 -1.3576  2.3395 -0.9894
 6153TIP3    H218417   1.628   0.325   2.250 -1.2267 -1.1122 -0.2661
 6154TIP3   OH218418   6.419   4.102   2.124 -0.1366  0.0148 -0.2212
 6154TIP3    H118419   6.506   4.086   2.160 -0.7205 -0.8957  0.8486
 6154TIP3    H218420   6.428   4.087   2.030  0.6682 -0.9047 -0.0043
 6155TIP3   OH218421   6.397   6.041   3.257 -0.0185  0.0319 -0.2096
 6155TIP3    H118422   6.425   6.064   3.345  2.1282 -0.3370 -0.7484
 6155TIP3    H218423   6.476   6.048   3.204 -1.0190 -0.8513 -1.8971
 6156TIP3   OH218424   6.739   2.939   5.182 -0.0270 -0.0457 -0.2160
 6156TIP3    H118425   6.645   2.960   5.179 -0.0500  0.0646  0.7692
 6156TIP3    H218426   6.783   3.022   5.168 -0.0936  0.1081  0.4526
 6157TIP3   OH218427   0.109   7.297   3.893  0.1167  0.6210 -0.4236
 6157TIP3    H118428   0.093   7.307   3.987  0.0617  1.6722 -0.5328
 6157TIP3    H218429   0.176   7.230   3.886 -0.6725 -0.2743  0.3045
 6158TIP3   OH218430   1.345   0.167   2.061  0.5957  0.0238  0.1717
 6158TIP3    H118431   1.297   0.213   2.130  0.0733 -0.3035  0.0280
 6158TIP3    H218432   1.343   0.075   2.087  0.6502 -0.0629 -0.1242
 6159TIP3   OH218433   4.049   3.970   3.871 -0.1947  0.4122  0.0032
 6159TIP3    H118434   3.982   4.010   3.816 -0.3463  1.5424  0.9895
 6159TIP3    H218435   4.131   3.987   3.824 -0.3114  1.4339  0.1464
 6160TIP3   OH218436   0.913   4.665   0.427 -0.2126  0.0805 -0.0536
 6160TIP3    H118437   0.846   4.603   0.455  0.4900 -0.5763  0.1989
 6160TIP3    H218438   0.890   4.747   0.471 -0.5336 -0.2850  0.4662
 6161TIP3   OH218439   7.851   0.146   5.304 -0.2740  0.0113  0.2087
 6161TIP3    H118440   7.828   0.215   5.366 -1.0849 -1.5073  1.6942
 6161TIP3    H218441   7.799   0.165   5.226 -1.7291  0.1891  1.1881
 6162TIP3   OH218442   3.604   6.487   4.471 -1.1442 -0.3198 -0.1871
 6162TIP3    H118443   3.524   6.540   4.476 -0.4540  0.6392  1.1462
 6162TIP3    H218444   3.671   6.547   4.439 -1.0809 -1.3443 -2.1577
 6163TIP3   OH218445   7.836   7.283   4.501 -0.4149  0.0040  0.2174
 6163TIP3    H118446   7.748   7.249   4.485 -0.1105  0.4124 -2.7664
 6163TIP3    H218447   7.887   7.256   4.425  2.0476 -0.0446  1.7633
 6164TIP3   OH218448   1.176   2.777   2.428 -0.0661 -0.4418  0.1036
 6164TIP3    H118449   1.158   2.702   2.370  0.4002 -0.8698  0.5011
 6164TIP3    H218450   1.175   2.853   2.370  0.3582 -0.8603 -0.4701
 6165TIP3   OH218451   6.285   0.148   0.467 -0.3548  0.3322 -0.0153
 6165TIP3    H118452   6.287   0.096   0.547  1.7065  0.2758 -0.0466
 6165TIP3    H218453   6.211   0.208   0.479 -0.4962 -0.1185  1.6421
 6166TIP3   OH218454   5.701   1.075   6.240 -0.3874 -0.2924 -0.0575
 6166TIP3    H118455   5.656   1.143   6.189  0.0103  0.4764  0.5954
 6166TIP3    H218456   5.777   1.051   6.186  0.1176  0.6295  0.2222
 6167TIP3   OH218457   3.559   0.893   0.712  0.3131 -0.4820 -0.2403
 6167TIP3    H118458   3.620   0.939   0.655 -0.9390  1.2566 -0.2715
 6167TIP3    H218459   3.529   0.818   0.661  0.5972  0.0168 -1.1551
 6168TIP3   OH218460   6.535   1.146   6.367  0.1112  0.0848  0.5667
 6168TIP3    H118461   6.478   1.212   6.406  0.5801  0.0686  1.3015
 6168TIP3    H218462   6.518   1.067   6.419  0.6987  0.0478  0.7051
 6169TIP3   OH218463   4.157   0.182   3.606  0.3095  0.3502  0.8130
 6169TIP3    H118464   4.214   0.154   3.534 -0.3501  0.8070  0.0944
 6169TIP3    H218465   4.154   0.107   3.665 -1.0312 -0.9708 -0.8131
 6170TIP3   OH218466   8.021   6.798   3.868 -0.6465  0.2103  0.7914
 6170TIP3    H118467   8.107   6.764   3.893  0.4164  2.3692  0.3379
 6170TIP3    H218468   8.026   6.892   3.887 -2.3597  0.6508 -0.6492
 6171TIP3   OH218469   1.168   4.687   3.692  0.4106 -0.3776  0.2237
 6171TIP3    H118470   1.143   4.710   3.602 -0.5227 -1.1126  0.2829
 6171TIP3    H218471   1.111   4.614   3.715  1.7309 -1.2512  0.8561
 6172TIP3   OH218472   1.719   3.802   5.347  0.1085 -0.0112  0.2136
 6172TIP3    H118473   1.783   3.848   5.292 -0.9982 -0.1441 -1.2712
 6172TIP3    H218474   1.640   3.856   5.341 -1.0118 -1.6516 -0.9940
 6173TIP3   OH218475   6.264   6.141   4.304 -0.2231  0.2318  0.6424
 6173TIP3    H118476   6.196   6.108   4.363 -1.3354  0.6451 -0.3482
 6173TIP3    H218477   6.266   6.077   4.232 -0.8408  1.1230 -0.2023
 6174TIP3   OH218478   0.700   1.294   0.192 -0.3805 -0.2546 -0.1186
 6174TIP3    H118479   0.783   1.317   0.149  0.1746 -1.4395  0.2668
 6174TIP3    H218480   0.668   1.376   0.228  1.5471 -0.0568  1.2735
 6175TIP3   OH218481   3.141   1.704   2.401 -0.2262 -0.2123  0.0387
 6175TIP3    H118482   3.126   1.621   2.446  0.9635  0.0013  0.8826
 6175TIP3    H218483   3.079   1.765   2.441 -1.0809 -0.6644 -0.5634
 6176TIP3   OH218484   0.407   4.089   1.785  0.0428  0.4244 -0.4062
 6176TIP3    H118485   0.457   4.077   1.865 -1.0395  1.4193  0.4548
 6176TIP3    H218486   0.328   4.136   1.812 -1.2533 -0.8592 -1.7621
 6177TIP3   OH218487   6.092   5.972   5.524 -0.5298  0.4279 -0.2606
 6177TIP3    H118488   6.093   5.916   5.446 -0.3706  0.0074  0.0365
 6177TIP3    H218489   6.054   6.054   5.495 -1.4316 -0.0828 -0.5419
 6178TIP3   OH218490   5.839   4.387   4.502 -0.0267 -0.2908 -0.1876
 6178TIP3    H118491   5.900   4.428   4.564  1.1277  0.3764 -1.7163
 6178TIP3    H218492   5.872   4.298   4.491  0.8432  0.1240 -1.1555
 6179TIP3   OH218493   3.229   6.897   0.444 -0.4849 -0.2384  0.3948
 6179TIP3    H118494   3.220   6.846   0.363 -0.0164  0.8769 -0.3992
 6179TIP3    H218495   3.301   6.854   0.491 -0.4493 -0.6318 -0.0096
 6180TIP3   OH218496   4.146   1.627   4.627  0.2064 -0.2721 -0.3327
 6180TIP3    H118497   4.211   1.626   4.697  0.3467  0.2345 -0.4480
 6180TIP3    H218498   4.198   1.635   4.546 -0.0341  2.3515 -0.3113
 6181TIP3   OH218499   4.458   5.909   5.838  0.5596  0.4796 -0.2373
 6181TIP3    H118500   4.371   5.887   5.870  0.0326  1.4701 -0.9140
 6181TIP3    H218501   4.443   5.983   5.779  2.0314  1.5656  0.7033
 6182TIP3   OH218502   2.724   5.492   4.716  0.2603  0.4403  0.3641
 6182TIP3    H118503   2.773   5.411   4.699 -1.3320 -0.4278 -0.3133
 6182TIP3    H218504   2.743   5.548   4.640  0.2684  0.1513  0.1531
 6183TIP3   OH218505   7.542   2.011   2.579  0.3209  0.1111 -0.4750
 6183TIP3    H118506   7.623   1.989   2.626 -2.0562 -2.5075  2.9049
 6183TIP3    H218507   7.540   1.952   2.504  1.2740 -0.1661 -0.2867
 6184TIP3   OH218508   6.420   0.056   5.142  0.5856  0.0386  0.0843
 6184TIP3    H118509   6.468  -0.020   5.175 -2.0772 -1.6910  0.2454
 6184TIP3    H218510   6.422   0.046   5.046 -1.7841 -1.6885  0.1408
 6185TIP3   OH218511   3.558   1.759   0.256 -0.0018 -0.4941  0.0001
 6185TIP3    H118512   3.614   1.836   0.250 -1.1915  0.2855 -2.1537
 6185TIP3    H218513   3.605   1.699   0.314  2.3622  0.6536 -0.6208
 6186TIP3   OH218514   5.641   3.884   3.229 -0.5820  0.5327  0.1515
 6186TIP3    H118515   5.652   3.813   3.166  1.1480  1.7326 -0.9807
 6186TIP3    H218516   5.550   3.912   3.217 -0.7816 -0.3642 -0.5713
 6187TIP3   OH218517   0.626   4.485   4.293 -0.0953  0.3427 -0.1090
 6187TIP3    H118518   0.626   4.580   4.285  0.3509  0.4429  0.9233
 6187TIP3    H218519   0.678   4.467   4.372 -0.3126 -0.7424 -0.1925
 6188TIP3   OH218520   6.222   7.008   2.657 -0.0179  0.2920  0.3881
 6188TIP3    H118521   6.138   7.032   2.617 -0.8359 -2.2002  0.4638
 6188TIP3    H218522   6.258   6.940   2.600  1.2607  0.2896  1.1522
 6189TIP3   OH218523   7.829   4.757   0.501  0.5977 -0.1870 -0.0496
 6189TIP3    H118524   7.773   4.759   0.424 -1.0257  0.0641  1.0715
 6189TIP3    H218525   7.914   4.728   0.469 -0.1860 -0.6465 -1.8223
 6190TIP3   OH218526   7.061   7.034   5.790  0.1400  0.3181 -0.5846
 6190TIP3    H118527   7.101   7.105   5.839 -0.1407  1.6146 -2.1674
 6190TIP3    H218528   6.992   7.001   5.848  1.4601  0.0787  0.9102
 6191TIP3   OH218529   1.969   1.191   3.836 -0.3536  0.0839 -0.1277
 6191TIP3    H118530   1.987   1.258   3.902  0.2736 -1.2906  1.1539
 6191TIP3    H218531   1.958   1.111   3.886 -1.2192 -0.7691 -1.6180
 6192TIP3   OH218532   4.855   4.325   4.212 -0.1438 -0.2742 -0.7420
 6192TIP3    H118533   4.822   4.414   4.221  1.8544  0.3564  1.2112
 6192TIP3    H218534   4.943   4.335   4.176  0.6201 -1.3245  0.7335
 6193TIP3   OH218535   0.236   2.114   0.664 -0.1088 -0.1245  0.2770
 6193TIP3    H118536   0.186   2.037   0.692  1.4767 -1.4412 -0.2974
 6193TIP3    H218537   0.308   2.077   0.611  0.9882  1.7241  0.3943
 6194TIP3   OH218538   0.497   7.598   0.716 -0.4744  0.3538 -0.1090
 6194TIP3    H118539   0.488   7.620   0.623  1.2503  1.0746 -0.1399
 6194TIP3    H218540   0.413   7.621   0.754 -0.8205  1.1377 -1.2839
 6195TIP3   OH218541   8.098   3.998   3.202 -0.1583 -0.2092  0.3268
 6195TIP3    H118542   8.189   3.982   3.226 -0.4181  0.3567  1.8060
 6195TIP3    H218543   8.066   3.913   3.171  0.2895 -0.9593  1.8290
 6196TIP3   OH218544   0.389   7.638   5.498 -1.0268 -0.1622 -0.4147
 6196TIP3    H118545   0.352   7.717   5.535 -0.4571 -0.1657  0.1849
 6196TIP3    H218546   0.479   7.661   5.476 -1.0245 -0.4815 -0.7612
 6197TIP3   OH218547   8.316   3.026   2.836  0.4714  0.4304  0.4113
 6197TIP3    H118548   8.306   3.008   2.743  2.0596  1.3812  0.0226
 6197TIP3    H218549   8.232   3.063   2.863 -0.4957 -1.1618 -0.2841
 6198TIP3   OH218550   0.501   6.357   5.324  0.2324  0.6438  0.0147
 6198TIP3    H118551   0.413   6.390   5.342  0.0613  0.0137  0.3782
 6198TIP3    H218552   0.493   6.262   5.333  1.1265  0.6322  0.8944
 6199TIP3   OH218553   6.766   6.493   0.207 -0.1284  0.2798  0.0025
 6199TIP3    H118554   6.791   6.527   0.293  1.6807 -0.6559 -0.1032
 6199TIP3    H218555   6.791   6.562   0.146 -0.2980  0.4515  0.1260
 6200TIP3   OH218556   6.596   0.419   4.642  0.0319  0.0654 -0.5207
 6200TIP3    H118557   6.570   0.421   4.550 -0.2427  0.2684 -0.4406
 6200TIP3    H218558   6.513   0.417   4.690  0.1732  0.0798 -0.2759
 6201TIP3   OH218559   5.143   6.899   2.143 -0.1218  0.7799 -0.8585
 6201TIP3    H118560   5.099   6.982   2.164 -0.1447  0.4974  0.2862
 6201TIP3    H218561   5.151   6.855   2.227  3.4383  1.3270 -0.7674
 6202TIP3   OH218562   0.526   5.122   0.130 -0.8769 -0.5697  0.1620
 6202TIP3    H118563   0.518   5.085   0.042  1.4400  0.3285 -0.5073
 6202TIP3    H218564   0.537   5.216   0.116  1.0692 -0.5775  1.2701
 6203TIP3   OH218565   5.986   0.574   1.027 -0.4778 -0.2179  0.4957
 6203TIP3    H118566   6.023   0.496   1.068 -2.7272 -0.9125  1.3047
 6203TIP3    H218567   6.061   0.614   0.982  1.2904 -1.4180  2.1781
 6204TIP3   OH218568   3.450   1.108   3.050 -0.0695  0.0086 -0.9550
 6204TIP3    H118569   3.468   1.103   2.956  1.0254 -1.3928 -0.6996
 6204TIP3    H218570   3.386   1.039   3.066  0.2509 -0.2047 -0.5685
 6205TIP3   OH218571   7.148   3.803   3.031  0.3843  0.6939  0.4502
 6205TIP3    H118572   7.242   3.783   3.032  0.5252  1.2882  2.6992
 6205TIP3    H218573   7.121   3.799   3.122 -1.9387 -0.0043 -0.1899
 6206TIP3   OH218574   2.530   3.785   3.677  0.7000 -0.4521  0.2465
 6206TIP3    H118575   2.552   3.791   3.770  0.9763  1.0107  0.1060
 6206TIP3    H218576   2.594   3.722   3.642  0.5791 -1.0281  1.0416
 6207TIP3   OH218577   8.144   0.077   6.170 -0.1149  0.0446 -0.6425
 6207TIP3    H118578   8.175   0.168   6.177 -1.0172  0.5109 -2.1838
 6207TIP3    H218579   8.223   0.026   6.154  0.3046  0.6828 -0.6643
 6208TIP3   OH218580   4.746   2.844   2.985  0.7578 -0.6050 -0.1485
 6208TIP3    H118581   4.688   2.804   3.050  0.3807  0.1268 -0.0230
 6208TIP3    H218582   4.693   2.913   2.945  1.3086 -0.4017 -0.5374
 6209TIP3   OH218583   2.562   7.516   5.600  0.0092  0.4448  0.0174
 6209TIP3    H118584   2.513   7.441   5.568  0.7541 -0.1408  0.2001
 6209TIP3    H218585   2.619   7.479   5.668 -0.1414  1.3084  0.6272
 6210TIP3   OH218586   1.312   1.394   2.446 -0.5177 -0.0743 -0.6050
 6210TIP3    H118587   1.234   1.426   2.491 -0.7664 -0.1498 -0.9679
 6210TIP3    H218588   1.323   1.305   2.478  0.7592  0.6781  1.1525
 6211TIP3   OH218589   7.754   0.282   3.217  0.2515 -0.4793  0.3696
 6211TIP3    H118590   7.736   0.317   3.130  1.3292  0.9965  0.6993
 6211TIP3    H218591   7.757   0.187   3.205 -0.9536 -0.3924 -0.9178
 6212TIP3   OH218592   3.501   2.475   2.355 -0.3051 -0.1602  0.1007
 6212TIP3    H118593   3.589   2.441   2.372 -0.3784  0.0084  0.8625
 6212TIP3    H218594   3.469   2.423   2.281  1.0111  0.8052 -1.2051
 6213TIP3   OH218595   1.563   5.579   5.384 -0.1640  0.0903  0.9521
 6213TIP3    H118596   1.559   5.630   5.466  1.9471  0.7505  0.7113
 6213TIP3    H218597   1.537   5.641   5.316  1.2516  0.5646  0.7979
 6214TIP3   OH218598   5.779   5.698   3.071 -0.6322 -0.3288 -0.3093
 6214TIP3    H118599   5.794   5.606   3.089 -0.3392  0.0035  1.2590
 6214TIP3    H218600   5.866   5.734   3.056 -0.6255 -0.0873  0.2715
 6215TIP3   OH218601   0.861   0.431   0.388 -0.5387 -0.0292  0.1393
 6215TIP3    H118602   0.770   0.459   0.398 -0.7532 -0.5465 -0.2793
 6215TIP3    H218603   0.877   0.432   0.293 -0.8824 -2.2101 -0.0024
 6216TIP3   OH218604   0.344   1.265   2.347  0.2330  0.4173  0.3135
 6216TIP3    H118605   0.413   1.228   2.402 -0.0738 -0.1468  0.3276
 6216TIP3    H218606   0.334   1.355   2.379  0.6209  0.3513  0.6338
 6217TIP3   OH218607   1.741   5.167   6.575  0.6296 -0.1984 -0.4207
 6217TIP3    H118608   1.763   5.085   6.530  0.4887 -1.2677  1.3602
 6217TIP3    H218609   1.810   5.177   6.640  0.3432  0.8290 -0.2658
 6218TIP3   OH218610   7.260   6.839   3.944 -0.1306 -0.2838  0.0680
 6218TIP3    H118611   7.298   6.788   4.015  0.0153 -0.4317 -0.1154
 6218TIP3    H218612   7.314   6.818   3.868  0.2055  0.4849  0.0893
 6219TIP3   OH218613   4.475   0.922   1.732  0.2531 -0.2447  0.5702
 6219TIP3    H118614   4.526   0.991   1.691  2.0273 -2.2539 -0.8489
 6219TIP3    H218615   4.396   0.965   1.763  0.7780  2.1816 -1.1971
 6220TIP3   OH218616   6.977   2.577   1.687 -0.1149 -0.3789 -0.5109
 6220TIP3    H118617   6.911   2.569   1.618  1.1499  2.0669 -2.1379
 6220TIP3    H218618   7.040   2.640   1.653  1.6138 -0.5329  2.1250
 6221TIP3   OH218619   4.559   6.738   0.814 -0.3195 -0.1580  0.2888
 6221TIP3    H118620   4.642   6.727   0.769  0.1108 -1.1390  1.2798
 6221TIP3    H218621   4.544   6.833   0.814  1.4212  0.1622  1.1539
 6222TIP3   OH218622   6.349   4.208   5.504 -0.4496  0.2337  0.0970
 6222TIP3    H118623   6.408   4.257   5.560 -0.3941  0.0614  0.1908
 6222TIP3    H218624   6.270   4.195   5.558 -0.1830 -0.4189  0.3432
 6223TIP3   OH218625   5.156   3.954   0.167  0.7008 -0.1310 -0.0336
 6223TIP3    H118626   5.139   3.863   0.190  1.2929  0.0363  1.1562
 6223TIP3    H218627   5.251   3.957   0.152  0.7477  0.3660  0.3362
 6224TIP3   OH218628   7.811   4.701   5.059 -0.3912  0.3291  0.0366
 6224TIP3    H118629   7.836   4.639   4.991  2.6024  0.9315  0.4652
 6224TIP3    H218630   7.801   4.647   5.138  1.5891  0.2423  0.2696
 6225TIP3   OH218631   7.873   2.574   3.391 -0.6125 -0.0321  0.5294
 6225TIP3    H118632   7.792   2.600   3.435 -0.5955 -0.8198  1.0375
 6225TIP3    H218633   7.902   2.653   3.345 -1.6569  0.2604  0.3539
 6226TIP3   OH218634   1.516   7.617   5.269  0.2741 -0.0502  0.2453
 6226TIP3    H118635   1.504   7.674   5.345  0.2103 -1.4067  1.2759
 6226TIP3    H218636   1.453   7.546   5.282 -0.4646  0.2092 -1.6082
 6227TIP3   OH218637   6.608   7.805   2.876 -0.7360  0.5569 -0.7519
 6227TIP3    H118638   6.616   7.713   2.851 -1.7559  0.7853 -1.9987
 6227TIP3    H218639   6.699   7.836   2.881 -0.2417 -0.9897  1.7516
 6228TIP3   OH218640   2.484   1.851   4.147  0.8136  0.2422 -0.4318
 6228TIP3    H118641   2.444   1.775   4.103  1.0505 -0.7483  1.0026
 6228TIP3    H218642   2.576   1.827   4.158  0.7686  0.4685  0.5480
 6229TIP3   OH218643   1.873   1.547   0.268  0.3136 -0.2186  0.0524
 6229TIP3    H118644   1.799   1.538   0.328 -0.5341 -1.6422 -1.1242
 6229TIP3    H218645   1.841   1.603   0.198  0.1437 -1.2817 -0.7369
 6230TIP3   OH218646   1.176   1.054   1.855  0.5901  0.3724 -0.0437
 6230TIP3    H118647   1.241   1.124   1.852 -1.2303  2.2042  0.8857
 6230TIP3    H218648   1.228   0.973   1.856  2.7916  1.7080 -0.2578
 6231TIP3   OH218649   2.340   6.736   0.244  0.1105  0.0637 -0.3866
 6231TIP3    H118650   2.374   6.655   0.207  0.8228  0.6314 -0.9934
 6231TIP3    H218651   2.245   6.724   0.245  0.2467 -1.1996  0.5385
 6232TIP3   OH218652   5.792   2.083   2.513 -0.0844 -0.1508  0.2365
 6232TIP3    H118653   5.729   2.060   2.580 -0.0211 -0.9175  0.0455
 6232TIP3    H218654   5.877   2.061   2.551 -0.0768 -1.0026 -0.2410
 6233TIP3   OH218655   1.787   2.505   2.818 -0.2246 -0.3288 -0.4902
 6233TIP3    H118656   1.849   2.468   2.755  1.4157  0.5687  0.5136
 6233TIP3    H218657   1.798   2.599   2.811  0.4698 -0.2043  1.5282
 6234TIP3   OH218658   1.305   3.943   0.330  0.1447 -0.3558 -0.1540
 6234TIP3    H118659   1.288   3.999   0.405 -0.6233 -1.9389  0.9062
 6234TIP3    H218660   1.395   3.963   0.305  0.3731  0.2916  1.1094
 6235TIP3   OH218661   7.837   2.297   2.996  0.1742 -0.1019 -0.0773
 6235TIP3    H118662   7.807   2.208   3.012  1.2893 -0.2215  1.7215
 6235TIP3    H218663   7.859   2.330   3.083  1.3998  1.3354 -0.8905
 6236TIP3   OH218664   5.789   6.438   2.865  0.2154 -0.1284  0.3877
 6236TIP3    H118665   5.852   6.398   2.925  0.3634  1.6652  1.4970
 6236TIP3    H218666   5.818   6.410   2.778  1.6892 -0.5037  0.9706
 6237TIP3   OH218667   3.353   5.631   3.464  0.2645 -0.1082  0.3637
 6237TIP3    H118668   3.317   5.693   3.401 -1.2299  0.9750  2.1862
 6237TIP3    H218669   3.446   5.623   3.440  0.0010  1.1699 -1.2161
 6238TIP3   OH218670   3.887   3.385   6.002 -0.0853 -0.1369 -0.2392
 6238TIP3    H118671   3.982   3.379   5.989 -0.4153 -1.1010 -2.6702
 6238TIP3    H218672   3.877   3.439   6.081  2.4611  1.0742 -0.6442
 6239TIP3   OH218673   7.183   0.550   2.924 -0.3829  0.2606 -0.2956
 6239TIP3    H118674   7.259   0.542   2.982 -1.2352  0.8807  0.9428
 6239TIP3    H218675   7.141   0.632   2.950 -1.7264 -0.2839 -0.6495
 6240TIP3   OH218676   2.685   0.274   0.044  0.2621  0.3692 -0.1881
 6240TIP3    H118677   2.597   0.258   0.009 -0.3411  2.5596  0.1828
 6240TIP3    H218678   2.743   0.226  -0.015 -1.2344 -2.8743  0.7432
 6241TIP3   OH218679   1.802   1.517   5.360  0.3905  0.5045  0.6764
 6241TIP3    H118680   1.746   1.592   5.342  0.2596  0.6820  1.7789
 6241TIP3    H218681   1.837   1.492   5.274  1.6788  2.8122  0.4436
 6242TIP3   OH218682   4.809   3.699   5.687  0.1744  0.0016 -0.0955
 6242TIP3    H118683   4.893   3.654   5.676  0.2859  0.5498 -1.7827
 6242TIP3    H218684   4.806   3.761   5.614 -0.0979  2.5425  1.9293
 6243TIP3   OH218685   1.839   6.195   3.419  0.4758 -0.4968 -0.4958
 6243TIP3    H118686   1.759   6.194   3.471  1.6827 -1.7566  1.4612
 6243TIP3    H218687   1.834   6.116   3.366  0.1600 -0.2672 -0.8084
 6244TIP3   OH218688   2.716   5.508   3.261 -0.3528  0.1585 -0.1732
 6244TIP3    H118689   2.794   5.467   3.225 -0.6621  0.0685 -0.7536
 6244TIP3    H218690   2.685   5.566   3.192  0.0839  1.3995  0.6475
 6245TIP3   OH218691   1.239   4.707   1.620  0.5065  0.0742  0.8134
 6245TIP3    H118692   1.283   4.736   1.540  0.0296  2.1377  1.2461
 6245TIP3    H218693   1.296   4.638   1.655  1.3792  0.0255 -0.6250
 6246TIP3   OH218694   1.208   0.591   6.458 -0.0576  0.1469  0.0802
 6246TIP3    H118695   1.148   0.587   6.384  1.6281  0.2328 -1.3679
 6246TIP3    H218696   1.176   0.664   6.512  0.2927  2.0424 -2.1180
 6247TIP3   OH218697   7.489   5.009   0.135 -0.0346  0.5413  0.1747
 6247TIP3    H118698   7.483   5.088   0.188 -0.7827 -0.5222  1.7523
 6247TIP3    H218699   7.406   5.006   0.087  0.3696  1.1555 -0.5938
 6248TIP3   OH218700   1.209   2.987   5.513 -0.4573 -0.1280  0.4860
 6248TIP3    H118701   1.166   2.981   5.598 -0.7455 -0.5778  0.3141
 6248TIP3    H218702   1.145   2.951   5.452  0.6110 -1.9165  0.3657
 6249TIP3   OH218703   1.410   5.044   3.649 -0.2239 -0.1812 -0.3068
 6249TIP3    H118704   1.475   5.088   3.703 -0.7571 -1.3704  1.4114
 6249TIP3    H218705   1.377   5.112   3.590  1.8099  0.6785 -0.5307
 6250TIP3   OH218706   2.403   6.843   5.032  0.2634 -0.4623 -0.0723
 6250TIP3    H118707   2.380   6.802   5.115 -1.0286 -1.2238 -0.7803
 6250TIP3    H218708   2.438   6.929   5.056 -1.7198  0.0456  1.1926
 6251TIP3   OH218709   2.257   3.781   2.255 -0.1429 -0.3163 -0.5136
 6251TIP3    H118710   2.224   3.869   2.237  1.7828  0.1685 -2.0203
 6251TIP3    H218711   2.257   3.737   2.170 -0.9581 -1.7584  0.1925
 6252TIP3   OH218712   1.574   6.191   3.532  0.3241  0.7182 -0.9471
 6252TIP3    H118713   1.487   6.204   3.572  0.3159  1.3321 -1.1714
 6252TIP3    H218714   1.603   6.106   3.567 -0.5103  0.3438 -1.1349
 6253TIP3   OH218715   6.414   7.281   4.546  0.0444 -0.1010 -0.3316
 6253TIP3    H118716   6.446   7.353   4.492  0.2722 -0.4431 -0.6610
 6253TIP3    H218717   6.485   7.217   4.544  0.6495  0.4671  1.5326
 6254TIP3   OH218718   1.904   6.256   1.798  0.6807  0.2547  0.2925
 6254TIP3    H118719   1.978   6.314   1.781  1.3748 -0.9289 -0.8988
 6254TIP3    H218720   1.920   6.179   1.744 -0.3377 -0.9708  1.6342
 6255TIP3   OH218721   4.204   6.929   4.609 -0.2020  0.5045  0.1808
 6255TIP3    H118722   4.152   6.883   4.676 -0.4562  2.0967  1.1301
 6255TIP3    H218723   4.142   6.946   4.538  0.0735 -1.2137 -0.5261
 6256TIP3   OH218724   4.475   5.257   1.166 -0.2488  0.1592 -0.3254
 6256TIP3    H118725   4.476   5.201   1.243  0.3398 -0.8733 -1.0643
 6256TIP3    H218726   4.383   5.283   1.157  0.0666  2.6032  2.2958
 6257TIP3   OH218727   3.158   0.083   5.633 -0.4546 -0.8141 -0.0790
 6257TIP3    H118728   3.126   0.127   5.554 -1.6380  0.1169  0.8804
 6257TIP3    H218729   3.174   0.154   5.696  0.5481 -1.5275  0.5139
 6258TIP3   OH218730   2.653   4.956   6.401  0.2921  0.0831  0.2032
 6258TIP3    H118731   2.559   4.959   6.420 -0.0711  0.1993 -1.4701
 6258TIP3    H218732   2.659   4.909   6.318  1.7177  0.2522  0.1861
 6259TIP3   OH218733   0.289   0.988   6.292 -0.0400 -0.2883 -0.3999
 6259TIP3    H118734   0.303   1.073   6.335 -0.3666 -1.1162  1.3993
 6259TIP3    H218735   0.198   0.991   6.262  0.0360  0.0942 -0.6049
 6260TIP3   OH218736   1.382   0.818   3.166 -0.5714  0.2175 -0.6875
 6260TIP3    H118737   1.473   0.787   3.160 -0.3946  0.6750 -0.3633
 6260TIP3    H218738   1.388   0.913   3.153 -1.1210  0.1264 -1.7590
 6261TIP3   OH218739   0.089   7.149   3.332  0.8480  0.0746 -0.1645
 6261TIP3    H118740   0.016   7.108   3.379  0.4426  0.2365 -0.6371
 6261TIP3    H218741   0.120   7.080   3.273  0.9008  0.0921 -0.1570
 6262TIP3   OH218742   4.877   2.454   5.423 -0.2378  0.4050  0.0989
 6262TIP3    H118743   4.875   2.549   5.439  0.8471  0.4569  0.0081
 6262TIP3    H218744   4.786   2.431   5.404 -0.3267  1.6500 -1.1560
 6263TIP3   OH218745   0.728   2.070   3.575 -0.2363 -0.0920  0.0093
 6263TIP3    H118746   0.654   2.012   3.593 -1.7437  1.1832 -1.6366
 6263TIP3    H218747   0.735   2.125   3.653 -0.0081 -1.2146  0.8006
 6264TIP3   OH218748   6.304   6.087   5.077  0.2412  0.2485 -0.2163
 6264TIP3    H118749   6.394   6.119   5.069  1.5872 -2.5679  1.7587
 6264TIP3    H218750   6.299   6.014   5.015 -0.1832 -0.4602  0.6268
 6265TIP3   OH218751   1.093   3.555   4.963 -0.5089 -0.6331  0.2331
 6265TIP3    H118752   1.076   3.489   4.895 -0.7135  1.1507 -1.5589
 6265TIP3    H218753   1.163   3.609   4.927 -0.5172  0.2892  1.5255
 6266TIP3   OH218754   0.877   6.599   6.013 -0.0978 -0.0515 -0.2215
 6266TIP3    H118755   0.812   6.638   5.955  0.3828  0.6561 -0.3049
 6266TIP3    H218756   0.836   6.520   6.046 -1.2755  0.7452  0.2873
 6267TIP3   OH218757   5.039   0.891   0.281 -0.1355 -0.2692 -0.3048
 6267TIP3    H118758   5.038   0.796   0.275 -0.1535 -0.2801 -0.1553
 6267TIP3    H218759   5.110   0.919   0.224  0.7199 -0.4539  0.6508
 6268TIP3   OH218760   2.460   6.651   3.301  0.5412  0.4672  0.2665
 6268TIP3    H118761   2.462   6.746   3.318  0.6488  0.6605 -0.7797
 6268TIP3    H218762   2.479   6.612   3.386  0.1626  1.3774  0.7942
 6269TIP3   OH218763   5.701   6.098   2.717  0.4117 -0.2075 -0.1899
 6269TIP3    H118764   5.663   6.058   2.795 -2.0420 -0.3819 -1.3689
 6269TIP3    H218765   5.626   6.135   2.670  2.0458  1.7651 -1.4360
 6270TIP3   OH218766   0.871   0.437   0.114  0.1166  0.1263 -0.1337
 6270TIP3    H118767   0.912   0.370   0.059  0.7485  0.9247 -0.6606
 6270TIP3    H218768   0.789   0.457   0.069 -0.3830 -0.7269  0.3638
 6271TIP3   OH218769   6.673   4.148   1.265 -0.9242 -1.0197 -0.4542
 6271TIP3    H118770   6.728   4.225   1.254 -1.0265 -0.9247 -0.3080
 6271TIP3    H218771   6.586   4.175   1.235 -0.8798 -1.1830 -0.7313
 6272TIP3   OH218772   7.513   6.663   6.609 -0.0970 -0.4860  0.3932
 6272TIP3    H118773   7.453   6.697   6.675  0.4585 -2.2602  1.9021
 6272TIP3    H218774   7.558   6.740   6.575 -2.2412  0.7294  0.1816
 6273TIP3   OH218775   5.380   6.363   3.233  0.3624 -0.3771  0.2319
 6273TIP3    H118776   5.390   6.430   3.300  3.7453 -1.8943  1.4628
 6273TIP3    H218777   5.453   6.378   3.173 -0.5789 -1.1730 -1.1829
 6274TIP3   OH218778   3.721   2.130   3.673  0.2134 -0.5683  0.5261
 6274TIP3    H118779   3.803   2.180   3.670  0.4675 -0.9626  0.7771
 6274TIP3    H218780   3.658   2.190   3.715 -0.8939  1.4562 -3.5432
 6275TIP3   OH218781   3.900   7.022   2.886 -0.2323  0.5161 -0.0929
 6275TIP3    H118782   3.884   6.997   2.796  1.1509 -0.7018 -0.0221
 6275TIP3    H218783   3.844   6.965   2.938 -1.1114  1.2912 -0.1540
 6276TIP3   OH218784   2.991   3.771   1.253 -0.1839 -0.0133 -0.7565
 6276TIP3    H118785   2.920   3.812   1.303  1.1025  2.0443 -0.4843
 6276TIP3    H218786   3.007   3.831   1.180  1.8246  0.0516 -0.3265
 6277TIP3   OH218787   1.131   4.330   6.311  0.0046 -0.4578 -0.2885
 6277TIP3    H118788   1.209   4.327   6.254 -0.9491  0.4577 -1.7047
 6277TIP3    H218789   1.139   4.413   6.357  1.4557 -1.7650  2.0382
 6278TIP3   OH218790   3.685   0.067   1.746  0.1236 -0.5282 -0.1879
 6278TIP3    H118791   3.738   0.077   1.825  0.6055  0.2959 -0.6089
 6278TIP3    H218792   3.646   0.154   1.732 -0.1523 -0.7332 -0.7171
 6279TIP3   OH218793   1.370   0.691   1.152  0.0666 -0.3178  0.6151
 6279TIP3    H118794   1.431   0.765   1.143 -0.2136 -0.0883  0.5700
 6279TIP3    H218795   1.321   0.691   1.070  1.0288 -1.4393  0.0137
 6280TIP3   OH218796   0.313   6.949   2.535  0.3201 -0.2350  0.3698
 6280TIP3    H118797   0.288   6.994   2.616  0.0268 -1.4037  0.9479
 6280TIP3    H218798   0.385   6.891   2.561  1.1094  0.3231 -0.4906
 6281TIP3   OH218799   2.538   5.242   5.634 -0.3170  0.2418  0.2540
 6281TIP3    H118800   2.600   5.293   5.582 -1.5507  0.0023 -1.5435
 6281TIP3    H218801   2.497   5.306   5.693 -0.7948  1.0648 -0.9422
 6282TIP3   OH218802   7.423   7.441   5.535  0.3812  0.7434  0.1739
 6282TIP3    H118803   7.426   7.366   5.476  0.9599  0.1575  0.9342
 6282TIP3    H218804   7.350   7.494   5.502 -0.1038 -0.1987 -0.3078
 6283TIP3   OH218805   4.594   0.872   2.005  0.7228 -0.7594  0.3506
 6283TIP3    H118806   4.649   0.794   1.997 -1.0114 -2.0226  0.0004
 6283TIP3    H218807   4.562   0.888   1.916 -0.2208 -0.6401  0.6987
 6284TIP3   OH218808   6.811   6.661   6.570 -0.0056 -0.4914 -0.5175
 6284TIP3    H118809   6.821   6.570   6.597 -0.3381  0.2673  2.5316
 6284TIP3    H218810   6.741   6.659   6.504 -1.8032 -2.2285  1.2898
 6285TIP3   OH218811   5.718   5.360   1.141  0.3325  0.2404  0.1012
 6285TIP3    H118812   5.635   5.404   1.125  0.4140 -0.0484 -1.1982
 6285TIP3    H218813   5.780   5.431   1.157  0.1807  0.5385 -0.6142
 6286TIP3   OH218814   3.896   0.355   5.181  0.2020 -0.0085 -0.4268
 6286TIP3    H118815   3.948   0.394   5.111  0.6490 -0.2337 -0.2266
 6286TIP3    H218816   3.838   0.293   5.137  1.7343 -1.5161 -0.4688
 6287TIP3   OH218817   1.989   1.753   5.147  0.2045  0.2163  0.3902
 6287TIP3    H118818   1.999   1.683   5.083  0.6333  0.6070  0.0159
 6287TIP3    H218819   1.908   1.797   5.122 -0.4098 -0.5384  1.0222
 6288TIP3   OH218820   1.035   3.655   3.641 -0.4344 -0.7347 -0.0105
 6288TIP3    H118821   1.042   3.569   3.682 -0.9005 -1.9059 -2.1937
 6288TIP3    H218822   0.967   3.644   3.574 -0.6395  1.4042 -0.2337
 6289TIP3   OH218823   0.771   4.609   5.870  0.0893  0.3423  0.1721
 6289TIP3    H118824   0.822   4.679   5.911  0.7738  0.3366 -0.6470
 6289TIP3    H218825   0.779   4.535   5.930 -0.6698  0.9561  1.0649
 6290TIP3   OH218826   5.158   2.750   5.052  0.6112  0.0299 -0.0401
 6290TIP3    H118827   5.090   2.704   5.004  0.7869 -2.1301  1.6118
 6290TIP3    H218828   5.147   2.842   5.029 -1.0227 -0.6038 -1.9953
 6291TIP3   OH218829   0.153   5.180   5.710 -0.2374  0.1225 -0.5713
 6291TIP3    H118830   0.133   5.111   5.773 -0.1850  0.1167 -0.5607
 6291TIP3    H218831   0.069   5.222   5.692 -0.0609  1.0174  0.5462
 6292TIP3   OH218832   2.095   3.712   1.452  0.1996 -0.2816  0.5680
 6292TIP3    H118833   2.189   3.733   1.448  0.2058 -0.1718  1.2011
 6292TIP3    H218834   2.091   3.629   1.499 -0.1055  0.3992  1.7746
 6293TIP3   OH218835   7.864   4.966   3.810 -0.4208  0.0796 -0.4879
 6293TIP3    H118836   7.868   4.884   3.860  0.8865 -1.1537 -2.4898
 6293TIP3    H218837   7.937   4.960   3.749  1.1821  3.7912  0.7744
 6294TIP3   OH218838   2.576   7.807   3.423  0.0690  0.0717  0.6705
 6294TIP3    H118839   2.617   7.788   3.508 -0.2879  1.6720  1.2350
 6294TIP3    H218840   2.489   7.841   3.446 -0.3074 -0.1331 -0.3825
 6295TIP3   OH218841   3.894   4.468   3.007  0.1316 -0.1503  1.0554
 6295TIP3    H118842   3.815   4.491   3.056 -0.8641  4.2576 -2.0101
 6295TIP3    H218843   3.861   4.424   2.928  1.0938 -1.1496  1.1818
 6296TIP3   OH218844   5.882   0.053   0.108 -0.3455 -0.0387 -0.2713
 6296TIP3    H118845   5.882   0.148   0.095  1.1274  0.3412  1.9537
 6296TIP3    H218846   5.806   0.036   0.163  0.5056  0.1848  1.0191
 6297TIP3   OH218847   3.874   4.975   6.215 -0.2624  0.3621 -0.0418
 6297TIP3    H118848   3.967   4.991   6.198  0.0792 -2.3671 -1.2851
 6297TIP3    H218849   3.873   4.927   6.298 -0.5642  0.4577  0.0081
 6298TIP3   OH218850   7.854   7.684   2.267  0.0166 -0.1087 -0.1269
 6298TIP3    H118851   7.785   7.643   2.215  0.8480 -1.7732  0.0078
 6298TIP3    H218852   7.922   7.706   2.203  0.1411 -0.1920 -0.0234
 6299TIP3   OH218853   5.818   7.175   0.856 -0.1916 -0.2774 -0.1689
 6299TIP3    H118854   5.730   7.138   0.849 -0.1651 -0.5453  0.7869
 6299TIP3    H218855   5.869   7.107   0.899 -0.0517  0.6953  1.2784
 6300TIP3   OH218856   4.665   6.232   1.732  0.1149  0.2492  0.5379
 6300TIP3    H118857   4.760   6.224   1.736  0.0844 -1.9263 -1.1341
 6300TIP3    H218858   4.649   6.324   1.711  1.9030  0.4601 -0.0199
 6301TIP3   OH218859   3.841   0.444   1.611 -0.5376 -0.0345 -0.1653
 6301TIP3    H118860   3.905   0.402   1.553 -1.6635 -1.6514 -0.2941
 6301TIP3    H218861   3.772   0.475   1.552 -0.0345  1.4682  0.0005
 6302TIP3   OH218862   2.982   3.484   3.344  0.3230 -0.7323  0.0909
 6302TIP3    H118863   3.060   3.477   3.288 -0.3827 -1.2480 -0.8490
 6302TIP3    H218864   2.984   3.405   3.398  0.7236 -0.4870  0.4458
 6303TIP3   OH218865   0.491   1.880   4.982 -0.1312  0.2388 -0.4086
 6303TIP3    H118866   0.585   1.894   4.992 -0.1422  1.9733 -2.1001
 6303TIP3    H218867   0.451   1.943   5.041 -0.2254  0.1726 -0.4017
 6304TIP3   OH218868   2.304   5.260   2.912 -0.2797 -0.2708  0.1329
 6304TIP3    H118869   2.293   5.292   3.002  0.1026  0.2425 -0.0001
 6304TIP3    H218870   2.340   5.335   2.864  1.5359 -1.1612  0.0212
 6305TIP3   OH218871   6.823   6.680   4.949 -0.2258  0.3027  0.0780
 6305TIP3    H118872   6.775   6.763   4.953  0.1133  0.5393 -0.5936
 6305TIP3    H218873   6.820   6.646   5.038 -1.0573  0.6486  0.1898
 6306TIP3   OH218874   5.025   5.462   6.774  0.5942 -0.4607  0.1792
 6306TIP3    H118875   5.054   5.439   6.686  2.4155 -1.5504  0.9860
 6306TIP3    H218876   4.982   5.547   6.764  0.4756 -0.7126 -1.7903
 6307TIP3   OH218877   7.771   0.166   1.322 -0.0853  0.4659  0.0522
 6307TIP3    H118878   7.836   0.221   1.279  0.6977  0.1402  0.7960
 6307TIP3    H218879   7.747   0.215   1.401 -2.7850  1.8906 -1.4950
 6308TIP3   OH218880   4.211   2.810   3.915 -0.0517 -0.5299 -0.2292
 6308TIP3    H118881   4.263   2.888   3.897 -0.8433 -0.3012 -1.6205
 6308TIP3    H218882   4.250   2.742   3.860 -0.6043 -0.6114 -0.5215
 6309TIP3   OH218883   2.879   7.314   4.909  0.1119 -0.2587  0.0619
 6309TIP3    H118884   2.949   7.346   4.851  0.1751  0.5939  0.5955
 6309TIP3    H218885   2.868   7.384   4.974 -0.2649 -1.0103  0.8188
 6310TIP3   OH218886   3.668   1.948   5.090  0.1741 -0.2413 -0.3753
 6310TIP3    H118887   3.652   1.973   4.999 -0.7413 -2.5328 -0.9207
 6310TIP3    H218888   3.763   1.941   5.097  0.2222 -0.8689 -1.4321
 6311TIP3   OH218889   7.368   6.241   6.662  0.2788 -0.2012 -0.6481
 6311TIP3    H118890   7.275   6.227   6.645  0.1404 -1.7807  1.0746
 6311TIP3    H218891   7.409   6.158   6.637  0.9240 -0.2617  0.5591
 6312TIP3   OH218892   3.919   2.334   2.324 -0.4950  0.4990 -0.2428
 6312TIP3    H118893   3.911   2.244   2.356 -0.1166 -0.0341 -1.5614
 6312TIP3    H218894   3.933   2.324   2.230 -3.4367  2.0226 -0.9637
 6313TIP3   OH218895   6.021   4.851   3.605  0.4452  0.2219 -0.0137
 6313TIP3    H118896   5.943   4.844   3.660 -0.4023 -2.3682 -1.4203
 6313TIP3    H218897   6.090   4.877   3.667 -1.2563  1.5025  1.4652
 6314TIP3   OH218898   0.475   7.189   3.056  0.0152 -0.0455  0.7613
 6314TIP3    H118899   0.460   7.249   2.982 -0.9838  1.0702  1.8238
 6314TIP3    H218900   0.549   7.227   3.103 -0.6097  0.3756  1.4284
 6315TIP3   OH218901   2.001   4.810   3.743  0.6279  0.0986 -0.0410
 6315TIP3    H118902   2.003   4.766   3.659  1.8416  1.6912 -0.9050
 6315TIP3    H218903   2.062   4.761   3.798 -0.8572 -1.5064  0.2741
 6316TIP3   OH218904   3.676   4.255   3.260 -0.5630  0.4175  0.6117
 6316TIP3    H118905   3.654   4.261   3.167  3.3622  0.1372 -0.4876
 6316TIP3    H218906   3.661   4.163   3.282  0.5747 -0.0243 -0.3900
 6317TIP3   OH218907   4.150   2.613   4.106 -0.2431  0.2172 -0.3318
 6317TIP3    H118908   4.061   2.590   4.133  0.3850 -0.2969  1.4727
 6317TIP3    H218909   4.141   2.695   4.058 -2.0004 -1.2221 -2.6864
 6318TIP3   OH218910   5.163   3.972   1.123 -0.1542 -0.1265 -0.0496
 6318TIP3    H118911   5.103   3.952   1.194  1.7916  0.2355  1.7919
 6318TIP3    H218912   5.187   3.886   1.087  1.4243 -0.6318  2.0312
 6319TIP3   OH218913   5.459   7.637   6.625 -0.0982  1.0401 -0.1431
 6319TIP3    H118914   5.365   7.638   6.608 -0.3141  1.7636  0.9978
 6319TIP3    H218915   5.486   7.547   6.606 -1.1229  0.6730  0.0809
 6320TIP3   OH218916   5.512   6.022   0.871 -0.1631 -0.2642  0.0350
 6320TIP3    H118917   5.509   6.009   0.776 -0.7044  1.1028 -0.1616
 6320TIP3    H218918   5.549   6.109   0.883 -0.0616 -0.4340  1.0911
 6321TIP3   OH218919   2.323   5.935   5.378  0.1170 -0.0970 -0.0798
 6321TIP3    H118920   2.298   5.958   5.467  1.6163  4.3519 -0.5305
 6321TIP3    H218921   2.242   5.908   5.336 -1.1527  0.3750  1.9565
 6322TIP3   OH218922   3.617   0.174   4.508 -0.2303 -0.0172 -0.0903
 6322TIP3    H118923   3.637   0.265   4.488 -0.4448 -0.3340 -1.9479
 6322TIP3    H218924   3.548   0.179   4.575 -0.1051  1.1792 -0.0276
 6323TIP3   OH218925   7.964   5.295   4.622  0.0350  0.0971 -0.6214
 6323TIP3    H118926   7.995   5.325   4.707 -0.8402  1.1694 -0.6627
 6323TIP3    H218927   7.899   5.359   4.596 -0.1222 -0.5298 -1.8504
 6324TIP3   OH218928   5.073   4.061   0.594 -0.0657  0.0462  0.3247
 6324TIP3    H118929   5.117   3.977   0.606  0.2686  0.2700  0.6886
 6324TIP3    H218930   4.985   4.048   0.631 -0.4172 -0.4866 -0.6569
 6325TIP3   OH218931   2.598   2.395   2.634  0.7059 -0.2092 -0.2131
 6325TIP3    H118932   2.595   2.372   2.541  2.3034 -2.9045  0.2940
 6325TIP3    H218933   2.514   2.364   2.669  0.1484  0.7080 -0.6955
 6326TIP3   OH218934   2.474   4.780   3.506 -0.4119  0.0973 -0.6677
 6326TIP3    H118935   2.510   4.708   3.453 -1.4849 -0.7594 -0.2905
 6326TIP3    H218936   2.401   4.814   3.453 -1.8582 -1.1427  0.4433
 6327TIP3   OH218937   8.292   1.795   1.647 -0.6297 -0.5407  0.3848
 6327TIP3    H118938   8.221   1.825   1.704 -0.1643  0.0119  0.6816
 6327TIP3    H218939   8.363   1.857   1.662  0.7073 -2.2935  1.7243
 6328TIP3   OH218940   2.719   4.938   4.047 -0.3267 -0.2467 -0.1181
 6328TIP3    H118941   2.766   4.999   4.104  2.0579 -0.3488 -1.8160
 6328TIP3    H218942   2.781   4.867   4.032 -1.0831 -0.5159 -2.3201
 6329TIP3   OH218943   5.473   7.103   5.451  0.2316  0.0641 -0.1454
 6329TIP3    H118944   5.547   7.083   5.508 -0.0672  0.9501  0.5867
 6329TIP3    H218945   5.456   7.196   5.467 -0.1021  0.2365 -1.4092
 6330TIP3   OH218946   0.577   0.616   0.833 -0.3321 -0.1625 -0.7598
 6330TIP3    H118947   0.552   0.693   0.884  0.0114 -0.1447 -0.6129
 6330TIP3    H218948   0.503   0.556   0.842  0.3727 -0.8421  1.1393
 6331TIP3   OH218949   8.237   3.051   5.929 -0.0563 -0.6965 -0.2793
 6331TIP3    H118950   8.270   3.111   5.996  0.2564  0.8583 -1.7603
 6331TIP3    H218951   8.264   2.964   5.959 -0.5605 -0.1389  1.9495
 6332TIP3   OH218952   3.520   2.830   0.607  0.0004  0.1794  0.1641
 6332TIP3    H118953   3.495   2.875   0.527 -1.6123  1.4992  1.3412
 6332TIP3    H218954   3.588   2.886   0.646 -2.4005  2.0736  1.9114
 6333TIP3   OH218955   4.790   2.074   6.509  0.4207  0.5230  0.1359
 6333TIP3    H118956   4.742   2.098   6.429  0.8434 -0.9526 -0.6038
 6333TIP3    H218957   4.841   2.152   6.531  0.5584  0.8504 -1.2543
 6334TIP3   OH218958   4.471   4.941   4.030  0.3217 -0.4935 -0.4826
 6334TIP3    H118959   4.450   4.877   3.961 -0.7641  0.4494 -1.0563
 6334TIP3    H218960   4.418   4.914   4.105 -0.4664 -0.0296 -0.8641
 6335TIP3   OH218961   3.388   7.286   3.812 -0.6860  0.2748  0.9301
 6335TIP3    H118962   3.346   7.210   3.851 -0.2634  0.2317  1.3055
 6335TIP3    H218963   3.469   7.297   3.861  0.6673 -0.7477 -0.9098
 6336TIP3   OH218964   0.334   1.132   3.618  0.0488  0.3838  0.2382
 6336TIP3    H118965   0.277   1.127   3.695 -0.2242 -1.1367 -0.0366
 6336TIP3    H218966   0.356   1.225   3.611  1.5843  0.3614  3.2527
 6337TIP3   OH218967   4.767   5.835   1.704 -0.1360 -0.0909 -0.5612
 6337TIP3    H118968   4.702   5.872   1.645 -1.4419  1.1117  1.5011
 6337TIP3    H218969   4.722   5.764   1.750 -0.0175  0.6513  0.7748
 6338TIP3   OH218970   1.754   2.733   6.793  0.3611  0.0012 -0.1708
 6338TIP3    H118971   1.794   2.817   6.771 -2.3234  1.4245 -0.0250
 6338TIP3    H218972   1.804   2.669   6.742  1.3175  1.8947 -1.7717
 6339TIP3   OH218973   7.014   5.118   6.278  0.1510 -0.0327  0.2498
 6339TIP3    H118974   7.102   5.095   6.250 -0.4326 -0.8241 -1.0744
 6339TIP3    H218975   6.975   5.162   6.203 -0.6051  0.2334  0.7773
 6340TIP3   OH218976   0.963   5.761   1.645  0.0209  0.3078 -0.0031
 6340TIP3    H118977   0.934   5.829   1.584  2.8731  1.8964  0.2010
 6340TIP3    H218978   0.988   5.687   1.588 -1.5255  0.0363 -0.3601
 6341TIP3   OH218979   3.089   5.994   3.617 -0.2200 -0.0329  0.6632
 6341TIP3    H118980   3.108   6.088   3.626 -0.2352  0.0184  0.2044
 6341TIP3    H218981   3.146   5.965   3.546 -0.6626 -0.2358  0.3845
 6342TIP3   OH218982   4.728   3.340   4.792 -0.4278  0.2500  0.2033
 6342TIP3    H118983   4.726   3.409   4.858 -0.8037 -0.0151  0.4750
 6342TIP3    H218984   4.646   3.292   4.805  0.2307 -0.8098  0.6099
 6343TIP3   OH218985   1.956   1.070   2.421 -0.0613  0.2962  0.3409
 6343TIP3    H118986   1.958   1.069   2.325  3.7915 -0.4781  0.2873
 6343TIP3    H218987   1.977   1.161   2.444  0.2560  0.2082  0.4076
 6344TIP3   OH218988   5.121   3.699   4.064  0.1089 -0.4038  0.0973
 6344TIP3    H118989   5.152   3.749   3.989  0.9834  0.8556  1.2409
 6344TIP3    H218990   5.101   3.765   4.130 -0.0370 -1.4997  1.1931
 6345TIP3   OH218991   8.036   5.683   1.290 -0.0086  0.3181 -0.6624
 6345TIP3    H118992   8.060   5.607   1.236  0.3704  1.3190 -1.9442
 6345TIP3    H218993   8.048   5.653   1.380  1.6380 -0.6634 -1.1781
 6346TIP3   OH218994   2.459   6.120   5.709 -0.3901 -0.3973  0.3827
 6346TIP3    H118995   2.532   6.174   5.680 -0.3779  0.0383  1.1915
 6346TIP3    H218996   2.498   6.035   5.731 -0.3288 -0.5720 -0.3918
 6347TIP3   OH218997   5.989   0.022   5.686 -0.7796 -0.5732  0.0354
 6347TIP3    H118998   6.068   0.071   5.711 -1.3739 -0.0673  0.9872
 6347TIP3    H218999   6.017  -0.069   5.682 -0.8400 -0.9072  3.8430
 6348TIP3   OH219000   7.256   1.295   4.408 -0.1973 -0.2775  0.0599
 6348TIP3    H119001   7.166   1.280   4.380 -0.4975 -1.0749  1.3372
 6348TIP3    H219002   7.277   1.218   4.461  1.0758  0.1139  0.1423
 6349TIP3   OH219003   4.241   2.051   3.236 -0.2216 -0.0850 -0.1109
 6349TIP3    H119004   4.243   2.083   3.327 -0.7447  1.2304 -0.5410
 6349TIP3    H219005   4.322   2.082   3.197  0.0449 -0.7268 -0.0840
 6350TIP3   OH219006   0.794   2.954   3.370 -0.1891  0.1834 -0.6498
 6350TIP3    H119007   0.711   2.998   3.391 -1.0857 -0.4147 -2.7247
 6350TIP3    H219008   0.849   3.023   3.334  0.5669  0.7475  1.4231
 6351TIP3   OH219009   7.742   0.712   3.502  0.5674 -0.0839  0.3422
 6351TIP3    H119010   7.681   0.742   3.435  2.1421 -0.1871 -1.2424
 6351TIP3    H219011   7.752   0.618   3.484 -0.1182 -0.4298  1.7023
 6352TIP3   OH219012   4.342   7.021   0.308 -1.2905  0.4139  0.6679
 6352TIP3    H119013   4.291   7.059   0.380 -0.9163  0.8552  0.7082
 6352TIP3    H219014   4.313   7.069   0.230  1.1192  2.8327  1.0792
 6353TIP3   OH219015   1.230   1.300   5.772 -0.2450 -0.2373 -0.0942
 6353TIP3    H119016   1.176   1.317   5.695  0.1324 -0.6718 -0.4643
 6353TIP3    H219017   1.311   1.262   5.736 -0.2998 -0.9902  0.5570
 6354TIP3   OH219018   2.586   0.836   6.011  0.1611 -0.6519  0.0929
 6354TIP3    H119019   2.508   0.810   5.963  1.0301 -2.4064 -0.4635
 6354TIP3    H219020   2.555   0.900   6.075 -1.1683  1.2281 -2.2550
 6355TIP3   OH219021   3.374   0.260   5.230  0.0080  0.0050  0.0063
 6355TIP3    H119022   3.316   0.335   5.246 -0.2752 -0.3524  0.6848
 6355TIP3    H219023   3.422   0.250   5.312  0.6790 -0.0168 -0.3806
 6356TIP3   OH219024   5.564   2.425   6.483 -0.1683  0.0616  0.7711
 6356TIP3    H119025   5.481   2.412   6.528 -0.4719  0.7038  0.4043
 6356TIP3    H219026   5.628   2.377   6.536 -1.0140 -1.7954  0.2010
 6357TIP3   OH219027   0.501   2.940   3.915  0.1236  0.4877  0.5958
 6357TIP3    H119028   0.476   2.912   4.003 -0.7629 -1.3560 -0.1970
 6357TIP3    H219029   0.507   2.859   3.865 -1.4108  1.6282 -1.5700
 6358TIP3   OH219030   8.111   2.654   5.814  0.2090 -0.6495  0.1606
 6358TIP3    H119031   8.170   2.625   5.884 -0.9381 -0.0776  1.4186
 6358TIP3    H219032   8.046   2.583   5.808  0.3731 -0.7548 -0.4293
 6359TIP3   OH219033   2.049   0.076   6.581  0.5328 -0.0157 -0.2371
 6359TIP3    H119034   2.144   0.091   6.576  0.3968  1.4967  0.8277
 6359TIP3    H219035   2.016   0.101   6.495  1.1068 -0.8137 -0.7080
 6360TIP3   OH219036   3.220   2.374   1.890 -0.1540 -0.4944  0.1435
 6360TIP3    H119037   3.227   2.278   1.894  2.2032 -0.3896 -0.0065
 6360TIP3    H219038   3.243   2.396   1.800 -2.5273  0.1673 -0.3757
 6361TIP3   OH219039   1.836   1.803   4.202  0.1923 -0.1332  0.0004
 6361TIP3    H119040   1.880   1.864   4.261 -1.8871 -1.0743  2.7328
 6361TIP3    H219041   1.745   1.834   4.200 -0.5864 -2.2403  0.3173
 6362TIP3   OH219042   5.298   4.159   5.499 -0.4229 -0.0352 -0.5310
 6362TIP3    H119043   5.225   4.215   5.528 -1.5029 -1.6777  0.0949
 6362TIP3    H219044   5.287   4.153   5.404 -1.0157 -0.1052 -0.4666
 6363TIP3   OH219045   2.892   6.148   4.089  0.5630 -0.3507 -0.0579
 6363TIP3    H119046   2.916   6.099   4.010  1.0184  0.7490 -0.6224
 6363TIP3    H219047   2.956   6.121   4.155  2.2480  1.1266 -1.0113
 6364TIP3   OH219048   4.540   0.697   5.713  0.1736 -0.2980  0.0329
 6364TIP3    H119049   4.529   0.782   5.756 -0.2138 -0.1293 -0.3880
 6364TIP3    H219050   4.629   0.699   5.679 -0.5749  0.9268 -2.0441
 6365TIP3   OH219051   6.102   0.293   1.015  0.4956  0.2497 -0.1240
 6365TIP3    H119052   6.029   0.245   0.975  0.9265 -0.2699 -0.3008
 6365TIP3    H219053   6.165   0.304   0.945  1.8423 -1.8225  0.6385
 6366TIP3   OH219054   6.857   2.682   4.736 -0.0101 -0.0568  0.0875
 6366TIP3    H119055   6.792   2.692   4.667  0.1646  0.9809  0.0612
 6366TIP3    H219056   6.812   2.711   4.816  0.4610  0.8579  0.0371
 6367TIP3   OH219057   3.848   4.051   0.861 -0.1815  0.5342 -0.2402
 6367TIP3    H119058   3.794   4.081   0.788  0.2502 -1.7068 -1.5600
 6367TIP3    H219059   3.926   4.105   0.857 -0.5308  1.0105 -0.8921
 6368TIP3   OH219060   0.486   2.862   3.330  0.1356  0.4611 -0.2715
 6368TIP3    H119061   0.528   2.893   3.409  0.4328 -0.0977 -0.2090
 6368TIP3    H219062   0.396   2.896   3.336 -0.6232 -1.6336  1.5424
 6369TIP3   OH219063   3.325   4.996   3.621 -0.1820  0.2176  0.0338
 6369TIP3    H119064   3.361   4.956   3.542  1.3958 -0.5027  1.0698
 6369TIP3    H219065   3.400   5.034   3.666 -0.6478 -1.1942  2.1964
 6370TIP3   OH219066   6.158   5.229   5.193  0.1703 -0.1107  0.6258
 6370TIP3    H119067   6.236   5.265   5.234 -0.3386  0.5107  1.0640
 6370TIP3    H219068   6.180   5.137   5.177  1.3237  0.2749 -0.1340
 6371TIP3   OH219069   3.547   1.266   0.498  0.2523  0.6864 -0.3417
 6371TIP3    H119070   3.550   1.303   0.409  2.1550  0.2402 -0.5194
 6371TIP3    H219071   3.598   1.185   0.491 -2.3386 -1.1110  0.4364
 6372TIP3   OH219072   1.821   6.734   3.441  0.0600  0.1839 -0.7768
 6372TIP3    H119073   1.754   6.756   3.376 -0.6021 -1.9923 -0.9083
 6372TIP3    H219074   1.854   6.648   3.413  1.1368  0.0831  0.6967
 6373TIP3   OH219075   7.874   0.720   2.464 -0.2740  0.0370 -0.0643
 6373TIP3    H119076   7.903   0.656   2.528  1.3352 -0.0422 -0.8200
 6373TIP3    H219077   7.821   0.782   2.513 -0.1701 -0.7510  1.0661
 6374TIP3   OH219078   3.341   2.736   5.954 -0.0790 -0.3769 -0.2982
 6374TIP3    H119079   3.356   2.768   6.043  1.2048 -0.7322 -0.3729
 6374TIP3    H219080   3.425   2.747   5.910 -0.9978  0.9347 -1.8441
 6375TIP3   OH219081   2.708   6.583   1.705 -0.6318 -0.0212  0.1862
 6375TIP3    H119082   2.800   6.560   1.718  0.0050  0.5435 -2.6921
 6375TIP3    H219083   2.691   6.650   1.772  1.9785  2.0050 -0.9839
 6376TIP3   OH219084   4.669   0.736   4.562  0.3325  0.0623 -0.7027
 6376TIP3    H119085   4.599   0.801   4.570  1.5181  1.3000  0.4430
 6376TIP3    H219086   4.672   0.694   4.648  0.5221 -0.4922 -0.9778
 6377TIP3   OH219087   0.878   3.920   2.136 -0.2201  0.8693 -0.2180
 6377TIP3    H119088   0.934   3.977   2.189 -1.5037  1.5210  0.4987
 6377TIP3    H219089   0.913   3.832   2.151 -0.5854  1.0219  1.8309
 6378TIP3   OH219090   2.078   5.886   5.260 -0.1605 -0.3871 -0.1609
 6378TIP3    H119091   2.008   5.825   5.280  0.8607 -1.0918  1.3778
 6378TIP3    H219092   2.042   5.941   5.190 -2.2764 -0.6439  0.6652
 6379TIP3   OH219093   6.556   7.517   2.886 -0.0731 -0.3044 -0.2034
 6379TIP3    H119094   6.576   7.436   2.839 -0.2052 -1.0184  0.9348
 6379TIP3    H219095   6.469   7.541   2.854  0.2318 -0.2523 -1.0210
 6380TIP3   OH219096   0.885   6.926   1.263  0.7904  0.2933  0.0261
 6380TIP3    H119097   0.925   6.955   1.345  1.9751 -1.9842  0.3093
 6380TIP3    H219098   0.923   6.983   1.196 -0.1088  2.1103  0.9758
 6381TIP3   OH219099   1.907   5.310   0.608 -0.0052  0.2270 -0.5679
 6381TIP3    H119100   1.867   5.240   0.556 -0.2864  1.8519 -2.6551
 6381TIP3    H219101   1.880   5.391   0.565  2.3837  1.5427  0.2366
 6382TIP3   OH219102   1.592   4.232   0.055 -0.4781  0.2570 -0.0010
 6382TIP3    H119103   1.511   4.209   0.009 -0.3922  2.7612 -1.6521
 6382TIP3    H219104   1.662   4.204  -0.005 -0.1956 -0.1005  0.4923
 6383TIP3   OH219105   3.422   1.533   6.265  0.2705 -0.0118  0.5728
 6383TIP3    H119106   3.473   1.604   6.227  0.8337 -0.2126  0.9295
 6383TIP3    H219107   3.363   1.576   6.327 -3.1812  0.7719 -2.8641
 6384TIP3   OH219108   6.599   0.132   5.990  0.4921  0.0907 -0.2525
 6384TIP3    H119109   6.542   0.071   5.942  1.2034  0.1819 -1.2374
 6384TIP3    H219110   6.538   0.190   6.036 -0.2781  0.9257 -2.1963
 6385TIP3   OH219111   4.856   6.852   6.348 -0.0752 -0.0007  0.1049
 6385TIP3    H119112   4.931   6.798   6.373 -0.1899 -0.0243  0.4058
 6385TIP3    H219113   4.832   6.821   6.260  1.5092  1.3797 -0.8636
 6386TIP3   OH219114   3.848   0.040   4.904 -0.2918 -0.6012  0.5389
 6386TIP3    H119115   3.897   0.049   4.822 -2.0922 -1.0777 -0.6603
 6386TIP3    H219116   3.824  -0.053   4.907 -0.7390 -0.4688  1.3142
 6387TIP3   OH219117   5.964   3.616   4.576  0.6888 -0.1194 -0.0822
 6387TIP3    H119118   5.981   3.670   4.499  0.3928  0.2808  0.1285
 6387TIP3    H219119   6.000   3.667   4.649 -1.2196  0.6857  0.3539
 6388TIP3   OH219120   1.814   6.434   5.793  0.1261 -0.5249  0.4844
 6388TIP3    H119121   1.821   6.387   5.710  0.5011 -0.4362  0.4620
 6388TIP3    H219122   1.745   6.388   5.841  0.5813 -1.1834  0.5193
 6389TIP3   OH219123   0.824   4.472   0.647  0.0569 -0.3299 -0.0009
 6389TIP3    H119124   0.767   4.541   0.680 -1.3407 -0.7253 -1.4402
 6389TIP3    H219125   0.837   4.414   0.722 -0.9163  0.1169  0.5323
 6390TIP3   OH219126   2.890   1.711   6.048 -0.0783 -0.1351 -0.2680
 6390TIP3    H119127   2.841   1.735   6.127 -0.8442  0.3850 -0.8916
 6390TIP3    H219128   2.928   1.625   6.069 -2.2502 -1.1307 -0.1857
 6391TIP3   OH219129   4.171   3.328   5.352 -0.2596 -0.8819  0.1723
 6391TIP3    H119130   4.225   3.248   5.353 -0.0396 -0.8081 -1.7363
 6391TIP3    H219131   4.084   3.297   5.327 -0.5004 -0.6783  0.7509
 6392TIP3   OH219132   2.207   0.731   5.067  0.0919  0.1390  0.1254
 6392TIP3    H119133   2.279   0.694   5.118  0.1876 -0.2467 -0.2866
 6392TIP3    H219134   2.129   0.686   5.100  0.2970 -1.0272 -0.9141
 6393TIP3   OH219135   2.014   6.605   6.475  0.8529 -0.0458 -0.2985
 6393TIP3    H119136   1.932   6.558   6.462  2.5275 -3.0589 -0.8481
 6393TIP3    H219137   2.017   6.666   6.401 -0.4861 -0.4839 -0.7586
 6394TIP3   OH219138   2.120   3.004   5.818 -0.3589  0.3965  0.1698
 6394TIP3    H119139   2.041   3.058   5.823 -0.6652 -0.1626  2.7084
 6394TIP3    H219140   2.158   3.024   5.732 -2.4815  1.7465 -0.5162
 6395TIP3   OH219141   2.320   2.034   2.000  0.2270 -0.3034 -0.7402
 6395TIP3    H119142   2.228   2.017   1.977 -0.6852  0.4618  1.9219
 6395TIP3    H219143   2.359   2.065   1.919 -2.1587  0.3556 -1.7437
 6396TIP3   OH219144   2.633   2.391   3.005  0.5306  0.2673  0.2108
 6396TIP3    H119145   2.564   2.408   2.941  0.2741 -0.8130  0.1830
 6396TIP3    H219146   2.683   2.473   3.009  0.2025  0.5385 -0.9412
 6397TIP3   OH219147   8.184   1.739   2.017  0.0859 -0.7764 -0.4026
 6397TIP3    H119148   8.230   1.712   1.938 -0.1932 -1.7678 -0.2434
 6397TIP3    H219149   8.114   1.674   2.027 -0.9129  0.2891 -0.2496
 6398TIP3   OH219150   1.182   6.192   4.472  0.1810 -0.2624  0.0040
 6398TIP3    H119151   1.262   6.181   4.524  1.1128  1.1683 -1.0586
 6398TIP3    H219152   1.195   6.136   4.396  0.3176  0.2038 -0.3189
 6399TIP3   OH219153   3.296   3.989   1.640 -0.1862  0.4678  0.1905
 6399TIP3    H119154   3.289   3.899   1.670  0.0379 -0.3243 -2.0245
 6399TIP3    H219155   3.208   4.025   1.652 -0.9313 -0.8228 -1.2278
 6400TIP3   OH219156   6.877   0.232   0.762  0.3074  0.2608  0.4313
 6400TIP3    H119157   6.932   0.262   0.689  0.8689  0.8139  1.0601
 6400TIP3    H219158   6.938   0.222   0.835 -0.0807 -1.2696  0.5729
 6401TIP3   OH219159   4.156   4.140   3.000 -0.1010 -0.4665  0.0635
 6401TIP3    H119160   4.208   4.067   3.032  0.4780  0.5042  1.4661
 6401TIP3    H219161   4.218   4.196   2.954 -0.3066 -0.3115 -0.0254
 6402TIP3   OH219162   4.834   5.731   3.259 -0.5309  0.2340  0.3117
 6402TIP3    H119163   4.814   5.805   3.316 -3.7225 -2.0264  2.4385
 6402TIP3    H219164   4.862   5.772   3.177 -1.3548  3.7756  1.6091
 6403TIP3   OH219165   0.358   1.143  -0.021  0.4133 -0.0502 -0.3422
 6403TIP3    H119166   0.303   1.065  -0.017  0.1320  0.2038  1.2721
 6403TIP3    H219167   0.390   1.155   0.068  1.2206  1.1422 -0.7596
 6404TIP3   OH219168   5.289   1.805   4.231  0.2084  0.6232 -0.1027
 6404TIP3    H119169   5.237   1.769   4.159  0.8454 -1.1672  0.2773
 6404TIP3    H219170   5.367   1.750   4.234  2.0080  3.0004 -0.4115
 6405TIP3   OH219171   5.720   7.075   5.534 -0.1993  0.1544  0.4478
 6405TIP3    H119172   5.763   7.161   5.530 -1.7027  1.1310  2.9161
 6405TIP3    H219173   5.779   7.021   5.587 -0.0413  0.1776  0.2953
 6406TIP3   OH219174   4.946   1.568   4.715  0.3771 -0.1023 -0.7301
 6406TIP3    H119175   4.864   1.541   4.756  0.3813  0.7193 -0.1693
 6406TIP3    H219176   4.993   1.486   4.700  1.2872 -0.3622  2.8082
 6407TIP3   OH219177   6.477   4.449   3.812 -0.4806 -0.2941 -0.1658
 6407TIP3    H119178   6.507   4.374   3.863  1.1339 -0.8424 -1.8057
 6407TIP3    H219179   6.403   4.415   3.761 -0.9949 -0.2261  0.5359
 6408TIP3   OH219180   6.427   2.184   1.309  0.1004  0.3726 -0.5999
 6408TIP3    H119181   6.509   2.178   1.260 -0.4426  0.3971 -1.5359
 6408TIP3    H219182   6.428   2.272   1.346  0.2801  0.5472 -1.0091
 6409TIP3   OH219183   7.561   6.034   3.350 -0.3029  0.3179  0.2606
 6409TIP3    H119184   7.525   6.005   3.266 -1.5238  0.2618  0.7899
 6409TIP3    H219185   7.597   6.121   3.331 -2.4650  1.2439  0.1173
 6410TIP3   OH219186   6.917   1.004   2.411 -0.3591  0.0390  0.3269
 6410TIP3    H119187   6.890   0.913   2.424 -0.3020 -0.0638 -0.2481
 6410TIP3    H219188   6.996   1.013   2.465 -0.1968 -0.3413  0.1636
 6411TIP3   OH219189   0.908   1.650   2.520  0.0790 -0.0365 -0.0368
 6411TIP3    H119190   0.966   1.576   2.539  1.0932  0.6917 -0.2032
 6411TIP3    H219191   0.960   1.708   2.464  0.2222  1.9623  2.0095
 6412TIP3   OH219192   6.256   2.540   3.806  0.3514  0.1496  0.2164
 6412TIP3    H119193   6.321   2.489   3.855 -0.7081  0.7129  2.3282
 6412TIP3    H219194   6.242   2.490   3.725  1.2175 -1.5399  1.0632
 6413TIP3   OH219195   5.167   4.975   5.157  0.6690  0.4827  0.5409
 6413TIP3    H119196   5.209   5.036   5.098  0.3482  1.6775  1.5033
 6413TIP3    H219197   5.145   4.899   5.103  2.3190  0.6280 -0.3673
 6414TIP3   OH219198   2.428   7.827   3.797 -0.5830 -0.2435  0.0853
 6414TIP3    H119199   2.404   7.744   3.755  0.2597 -0.2524 -0.4179
 6414TIP3    H219200   2.357   7.887   3.774 -1.6877 -1.0662  1.2622
 6415TIP3   OH219201   6.333   2.950   3.330  0.0528 -0.5637 -0.5646
 6415TIP3    H119202   6.246   2.971   3.295  0.0380  1.3322  0.5281
 6415TIP3    H219203   6.391   2.954   3.253 -0.8012 -2.0252 -1.3367
 6416TIP3   OH219204   5.594   4.602   5.792  0.1877  0.2623  0.4156
 6416TIP3    H119205   5.538   4.532   5.827  0.9488  0.0008  1.1202
 6416TIP3    H219206   5.559   4.682   5.831 -0.2838  0.2122  0.1086
 6417TIP3   OH219207   0.262   4.685   2.197  0.0150 -0.3568  0.0266
 6417TIP3    H119208   0.288   4.616   2.136 -1.0484 -0.1300 -0.7238
 6417TIP3    H219209   0.177   4.656   2.231  0.2558 -0.1264  0.8487
 6418TIP3   OH219210   6.166   3.761   5.051  0.8620 -0.4741 -0.5105
 6418TIP3    H119211   6.135   3.677   5.085  1.7214 -0.5365  0.1777
 6418TIP3    H219212   6.261   3.749   5.040  1.3593  0.9917  1.5181
 6419TIP3   OH219213   3.125   0.335   0.914  0.2576 -0.1310 -0.8279
 6419TIP3    H119214   3.180   0.379   0.849  2.4333 -1.0351  0.2856
 6419TIP3    H219215   3.065   0.403   0.945  0.9235  0.9902 -1.9290
 6420TIP3   OH219216   0.928   4.600   1.501  0.2717  0.0101  0.5526
 6420TIP3    H119217   1.010   4.573   1.461  0.2240  2.1866 -1.2129
 6420TIP3    H219218   0.953   4.632   1.588  1.3008  0.4968  0.0911
 6421TIP3   OH219219   1.041   4.909   3.150 -0.0551  0.1949  0.2817
 6421TIP3    H119220   1.116   4.927   3.206 -0.7455  0.6164  1.1023
 6421TIP3    H219221   0.968   4.896   3.211 -0.5119 -0.9329 -0.4651
 6422TIP3   OH219222   4.730   5.315   0.097  0.3624 -0.6367 -0.4381
 6422TIP3    H119223   4.643   5.341   0.129  0.0871 -2.8685  0.8035
 6422TIP3    H219224   4.791   5.361   0.156 -0.0064 -0.3480 -0.2732
 6423TIP3   OH219225   0.791   7.707   3.936 -0.2743  0.1079 -0.3841
 6423TIP3    H119226   0.810   7.631   3.992 -1.6730 -0.7262 -0.9725
 6423TIP3    H219227   0.870   7.719   3.884  0.7289  0.3427  1.1080
 6424TIP3   OH219228   7.488   7.100   6.612 -0.1570 -0.1013  0.4138
 6424TIP3    H119229   7.487   7.191   6.583  2.2620 -0.3098 -0.6028
 6424TIP3    H219230   7.511   7.104   6.705 -0.1711  0.3440  0.3996
 6425TIP3   OH219231   0.500   3.485   3.037  0.0188  0.3762 -0.1929
 6425TIP3    H119232   0.588   3.454   3.018 -0.3935 -1.4034  0.6751
 6425TIP3    H219233   0.455   3.411   3.077 -1.3927  1.7265  0.8919
 6426TIP3   OH219234   7.725   3.623   0.131  0.3750 -0.3666 -0.1841
 6426TIP3    H119235   7.740   3.711   0.096 -1.5832 -0.1373 -0.5343
 6426TIP3    H219236   7.708   3.569   0.054 -1.0418 -0.4777  0.1871
 6427TIP3   OH219237   4.648   6.885   5.296  0.2573  0.1648 -0.2544
 6427TIP3    H119238   4.651   6.838   5.379 -0.2937  2.6836  1.3202
 6427TIP3    H219239   4.738   6.913   5.281 -0.0021  1.8502  0.9343
 6428TIP3   OH219240   8.089   1.026   3.247  0.0765 -0.0533  0.0398
 6428TIP3    H119241   8.090   0.930   3.252  1.2022 -0.0745 -0.3843
 6428TIP3    H219242   7.996   1.048   3.239 -0.0713 -1.2883 -2.9649
 6429TIP3   OH219243   1.345   7.715   4.969  0.0748  0.0137 -0.2364
 6429TIP3    H119244   1.320   7.662   4.893 -0.5686 -0.0032 -0.0206
 6429TIP3    H219245   1.290   7.682   5.040  1.4252 -0.7028  0.5223
 6430TIP3   OH219246   5.580   4.638   5.522 -0.2223 -0.9408  0.1234
 6430TIP3    H119247   5.672   4.656   5.505 -0.3000 -0.5673  0.0699
 6430TIP3    H219248   5.574   4.630   5.617 -0.5728  1.8476  0.4478
 6431TIP3   OH219249   3.581   1.685   0.664  0.0042  0.1027  0.1255
 6431TIP3    H119250   3.502   1.669   0.613  0.1006  1.5596 -0.5360
 6431TIP3    H219251   3.604   1.600   0.700 -1.1905 -0.5763 -0.6518
 6432TIP3   OH219252   7.636   0.541   6.123  0.0377 -0.6499  0.0271
 6432TIP3    H119253   7.564   0.516   6.181  2.0583 -1.2232  2.4821
 6432TIP3    H219254   7.601   0.532   6.035 -2.2480 -2.9338  1.0581
 6433TIP3   OH219255   3.512   0.402   3.502 -0.8791 -0.1085  0.0534
 6433TIP3    H119256   3.598   0.405   3.458 -0.6640  1.5403  0.5197
 6433TIP3    H219257   3.510   0.481   3.555 -3.5986  1.0929 -1.6327
 6434TIP3   OH219258   5.568   6.242   5.599  0.1078  0.2372  0.0006
 6434TIP3    H119259   5.647   6.191   5.614  0.2398  0.6833  0.8566
 6434TIP3    H219260   5.528   6.202   5.522  2.8728  1.9938 -2.6100
 6435TIP3   OH219261   3.450   2.559   1.799 -0.0858 -0.7025 -0.1424
 6435TIP3    H119262   3.397   2.632   1.769  0.7343 -0.9618 -2.3899
 6435TIP3    H219263   3.428   2.487   1.740  1.6802 -1.2218 -0.2246
 6436TIP3   OH219264   0.307   0.419   1.727  0.5773  0.2595 -0.5704
 6436TIP3    H119265   0.319   0.496   1.782 -1.7249 -0.0383  0.4331
 6436TIP3    H219266   0.392   0.375   1.728  0.6804  0.3173  2.6834
 6437TIP3   OH219267   5.256   0.607   2.075  0.4583 -0.3585 -0.0333
 6437TIP3    H119268   5.319   0.541   2.101  0.7468  0.3517  1.1461
 6437TIP3    H219269   5.296   0.651   2.000  2.8375  2.0446  2.4148
 6438TIP3   OH219270   0.364   5.806   2.221  0.3382  0.5280 -0.5796
 6438TIP3    H119271   0.313   5.725   2.213 -0.8584  1.4064 -2.8719
 6438TIP3    H219272   0.447   5.786   2.177  1.8120 -0.6497  2.4560
 6439TIP3   OH219273   1.879   6.697   0.820  0.4176  0.0033 -0.3926
 6439TIP3    H119274   1.914   6.756   0.753  1.6781  1.2450  1.2878
 6439TIP3    H219275   1.793   6.733   0.841 -0.4521 -1.0138 -2.0515
 6440TIP3   OH219276   5.458   0.002   3.711  0.4050 -0.5710  0.2943
 6440TIP3    H119277   5.493   0.091   3.709 -0.0232 -0.3995  0.2869
 6440TIP3    H219278   5.367   0.013   3.738  0.8015 -1.1524  1.9735
 6441TIP3   OH219279   2.665   7.100   4.475 -0.3571  0.7911  0.1293
 6441TIP3    H119280   2.694   7.152   4.550 -0.0195  0.1800  0.4318
 6441TIP3    H219281   2.574   7.125   4.463 -0.4857  0.7187  0.8952
 6442TIP3   OH219282   2.046   5.342   6.066 -0.0148 -0.0142  0.3550
 6442TIP3    H119283   2.055   5.263   6.012 -0.2061  0.3180 -0.1715
 6442TIP3    H219284   2.120   5.338   6.127  1.0921  0.3680 -0.9188
 6443TIP3   OH219285   5.369   4.777   5.438 -0.0398 -0.3483  0.3715
 6443TIP3    H119286   5.435   4.713   5.467  0.0766 -0.8626 -0.9498
 6443TIP3    H219287   5.286   4.740   5.466  0.0035 -1.2458 -0.6291
 6444TIP3   OH219288   3.510   7.462   4.692 -0.3910  0.0447 -0.5404
 6444TIP3    H119289   3.432   7.513   4.713  0.8833  1.4400  1.1271
 6444TIP3    H219290   3.531   7.416   4.774 -0.7483 -2.2088 -1.6263
 6445TIP3   OH219291   4.340   5.469   0.911  0.1082 -0.2354 -0.5482
 6445TIP3    H119292   4.417   5.499   0.959 -0.2313 -0.1869 -0.0221
 6445TIP3    H219293   4.376   5.423   0.835  0.6416  0.4946 -0.7523
 6446TIP3   OH219294   7.905   0.363   5.613  0.5121  0.1143  0.0379
 6446TIP3    H119295   7.933   0.416   5.538 -0.9504 -0.1749 -0.7351
 6446TIP3    H219296   7.823   0.403   5.641  1.2824  0.5399  1.8480
 6447TIP3   OH219297   6.643   2.765   1.719 -0.4124 -0.0806  0.5947
 6447TIP3    H119298   6.630   2.837   1.657  0.8925  1.0183  1.5191
 6447TIP3    H219299   6.597   2.793   1.798 -1.4408 -1.1370  0.4078
 6448TIP3   OH219300   2.570   5.818   4.823 -0.1027 -0.6980 -0.3752
 6448TIP3    H119301   2.620   5.783   4.896  0.7114 -0.1372 -0.6559
 6448TIP3    H219302   2.599   5.767   4.747  2.5667  1.7684 -1.1721
 6449TIP3   OH219303   0.745   2.231   0.364 -0.0051 -0.0905 -0.3739
 6449TIP3    H119304   0.799   2.293   0.413 -0.1781 -0.0304 -0.2581
 6449TIP3    H219305   0.782   2.146   0.384 -1.7603 -0.3672  2.1266
 6450TIP3   OH219306   5.882   4.609   5.507  0.0112  0.4875  0.0162
 6450TIP3    H119307   5.969   4.614   5.547 -0.6653  0.5530  1.5370
 6450TIP3    H219308   5.858   4.700   5.492  1.4561  0.4516 -3.3795
 6451TIP3   OH219309   7.178   3.894   6.202 -0.1392  0.1890  0.0336
 6451TIP3    H119310   7.176   3.941   6.286 -0.5411  1.4142 -0.6326
 6451TIP3    H219311   7.185   3.802   6.226 -0.0824  0.5315  1.4103
 6452TIP3   OH219312   5.921   3.902   2.459  0.1192 -0.3805  0.6904
 6452TIP3    H119313   5.946   3.933   2.372 -1.1373 -2.6955 -0.6144
 6452TIP3    H219314   5.986   3.834   2.479 -0.0562 -0.3942  1.2165
 6453TIP3   OH219315   2.626   6.502   3.998  0.2115 -0.3185  0.5000
 6453TIP3    H119316   2.610   6.416   3.958 -0.5822 -0.2401  0.6386
 6453TIP3    H219317   2.569   6.562   3.950  0.3076  0.0267  0.8139
 6454TIP3   OH219318   6.147   7.339   2.910 -0.5401 -0.3690  0.4282
 6454TIP3    H119319   6.234   7.305   2.932 -1.2117 -2.3728  0.1518
 6454TIP3    H219320   6.133   7.411   2.972 -0.0539 -2.2202  2.8100
 6455TIP3   OH219321   2.497   0.487   1.733  0.1247 -0.8105  0.1697
 6455TIP3    H119322   2.543   0.403   1.736 -0.3380 -1.0535  0.5714
 6455TIP3    H219323   2.405   0.464   1.722  0.1430 -0.3171 -1.2264
 6456TIP3   OH219324   3.542   6.096   6.351 -0.7104 -0.3634  0.1132
 6456TIP3    H119325   3.498   6.181   6.357  0.4196  0.2419 -0.0064
 6456TIP3    H219326   3.615   6.103   6.412 -0.3132 -1.0765 -0.2759
 6457TIP3   OH219327   0.956   1.969   3.968  0.5591  0.2318  0.1656
 6457TIP3    H119328   1.012   2.030   4.016  0.1597  2.7390 -2.2664
 6457TIP3    H219329   0.867   1.991   3.997  0.5555 -1.3454  1.4692
 6458TIP3   OH219330   6.667   3.678   3.389  1.1285 -0.0119 -0.6632
 6458TIP3    H119331   6.659   3.583   3.394 -0.1086  0.1582  1.4932
 6458TIP3    H219332   6.743   3.699   3.444  1.9763  0.2217 -1.8719
 6459TIP3   OH219333   1.410   5.468   1.140 -0.5264 -0.5170 -0.3700
 6459TIP3    H119334   1.469   5.452   1.066  0.5554 -1.8974  0.7498
 6459TIP3    H219335   1.350   5.536   1.108 -0.7319 -1.7657 -2.8626
 6460TIP3   OH219336   0.727   1.320   6.205 -0.7145  0.1276  0.8918
 6460TIP3    H119337   0.672   1.264   6.259 -0.7417 -1.2795 -0.5009
 6460TIP3    H219338   0.668   1.385   6.168 -0.9577  0.2004  1.4115
 6461TIP3   OH219339   3.041   2.136   4.653  0.3641  0.2053 -0.2883
 6461TIP3    H119340   3.011   2.198   4.720  0.0023 -0.6954  0.4123
 6461TIP3    H219341   2.965   2.126   4.595 -0.0927 -0.6554  0.4238
 6462TIP3   OH219342   4.159   1.225   0.685 -0.7419 -0.9853 -0.4005
 6462TIP3    H119343   4.194   1.165   0.750  0.2466  0.7344  0.7478
 6462TIP3    H219344   4.184   1.186   0.601  1.9948 -1.0446  0.3213
 6463TIP3   OH219345   2.826   7.551   5.366  0.0598  0.1794 -0.1312
 6463TIP3    H119346   2.831   7.576   5.458 -2.6093 -1.0419  0.4202
 6463TIP3    H219347   2.885   7.476   5.358  1.2903  1.0774  0.2331
 6464TIP3   OH219348   5.574   2.056   4.142  0.0586 -0.2816  0.0531
 6464TIP3    H119349   5.660   2.066   4.185 -0.0666  2.7501 -0.2258
 6464TIP3    H219350   5.595   2.031   4.052  0.6633  0.5552 -0.0435
 6465TIP3   OH219351   8.052   3.073   3.007 -0.1168 -0.2065 -0.0493
 6465TIP3    H119352   8.015   3.055   2.921 -0.9445 -0.4680  0.3456
 6465TIP3    H219353   8.065   3.168   3.008 -2.8308  0.2625  0.5323
 6466TIP3   OH219354   0.858   5.629   6.504  0.6031 -0.2006  0.0874
 6466TIP3    H119355   0.896   5.693   6.443  1.0665 -0.1067  0.4645
 6466TIP3    H219356   0.925   5.561   6.511 -0.0841 -0.9810 -0.6826
 6467TIP3   OH219357   5.976   4.539   2.611 -0.1166  0.6303 -0.2756
 6467TIP3    H119358   5.916   4.610   2.588 -0.3318  0.4738 -0.1945
 6467TIP3    H219359   6.032   4.529   2.534  0.6245  1.6178  0.1080
 6468TIP3   OH219360   1.538   3.874   2.595 -0.2997  0.5170 -0.4899
 6468TIP3    H119361   1.568   3.839   2.511 -1.8340  1.4030 -1.4552
 6468TIP3    H219362   1.455   3.830   2.611  0.8933 -1.1692  1.6391
 6469TIP3   OH219363   5.165   6.196   1.529  0.3321 -0.3399  0.2130
 6469TIP3    H119364   5.162   6.219   1.436 -0.8946 -0.9922  0.0712
 6469TIP3    H219365   5.178   6.280   1.574 -0.1112  0.1232 -0.5020
 6470TIP3   OH219366   5.369   2.810   3.136  0.4388 -0.6190 -0.1907
 6470TIP3    H119367   5.292   2.753   3.133 -1.9120  2.2577  0.6944
 6470TIP3    H219368   5.388   2.819   3.230 -0.7046  1.7059 -0.1050
 6471TIP3   OH219369   4.487   6.353   3.531 -0.1122 -0.1716 -0.1058
 6471TIP3    H119370   4.402   6.397   3.519 -0.4997 -0.7070  0.5837
 6471TIP3    H219371   4.481   6.313   3.618  1.3129  0.7984  0.4844
 6472TIP3   OH219372   5.839   0.563   5.811 -0.6504  0.1938  0.4101
 6472TIP3    H119373   5.839   0.551   5.716 -3.1723  1.7994  0.1122
 6472TIP3    H219374   5.927   0.594   5.831 -0.8117  2.4026 -1.8332
 6473TIP3   OH219375   5.880   7.653   0.568  0.3443  0.3442 -0.3450
 6473TIP3    H119376   5.826   7.598   0.624 -0.5427  0.4652 -1.0653
 6473TIP3    H219377   5.881   7.739   0.610  0.2306  0.2588 -0.1706
 6474TIP3   OH219378   8.070   4.131   5.528  0.0094  0.3044  0.3136
 6474TIP3    H119379   8.051   4.070   5.600 -2.2594 -0.8339 -1.1389
 6474TIP3    H219380   8.121   4.079   5.466  0.7352  0.8620  0.4225
 6475TIP3   OH219381   3.604   7.111   0.449  0.1992  0.1722  0.3417
 6475TIP3    H119382   3.675   7.141   0.392  0.3387 -0.7579  0.0056
 6475TIP3    H219383   3.590   7.020   0.424 -1.0000  0.2837  0.5303
 6476TIP3   OH219384   6.791   5.012   6.380  0.1467  0.1398  0.0646
 6476TIP3    H119385   6.868   5.061   6.352 -0.7291  0.8382 -1.1904
 6476TIP3    H219386   6.800   4.927   6.337  0.8951 -0.3029  1.0393
 6477TIP3   OH219387   4.918   1.776   1.704 -0.2192 -0.0209 -0.2125
 6477TIP3    H119388   4.900   1.799   1.795 -2.3054 -1.3018 -0.2365
 6477TIP3    H219389   4.832   1.779   1.661  0.5279 -0.7050 -1.8407
 6478TIP3   OH219390   2.190   6.471   3.347  0.9001  0.2128 -0.3349
 6478TIP3    H119391   2.235   6.400   3.393 -0.0402 -0.5670 -0.5874
 6478TIP3    H219392   2.258   6.537   3.333  1.5681 -0.2118  0.7589
 6479TIP3   OH219393   7.994   3.361   4.787  0.7073  0.1809  0.4108
 6479TIP3    H119394   7.984   3.275   4.746 -0.5771  0.9109 -0.8892
 6479TIP3    H219395   8.000   3.342   4.880  2.1112 -1.4214  0.0674
 6480TIP3   OH219396   7.760   4.461   4.421  0.0140  0.0697 -0.4678
 6480TIP3    H119397   7.679   4.482   4.374 -0.1197  0.5142 -0.0465
 6480TIP3    H219398   7.829   4.502   4.369 -0.2011  1.1758  0.0959
 6481TIP3   OH219399   4.785   3.677   2.678 -0.6342  0.0905 -0.2070
 6481TIP3    H119400   4.776   3.713   2.766 -2.0279 -1.4342  0.3311
 6481TIP3    H219401   4.868   3.630   2.680 -1.2198 -0.9732  0.7456
 6482TIP3   OH219402   0.266   6.241   3.199  0.0002  0.2418 -0.5162
 6482TIP3    H119403   0.213   6.253   3.121 -0.1481 -0.7507 -0.5786
 6482TIP3    H219404   0.301   6.152   3.191  0.7180  0.4542  0.1010
 6483TIP3   OH219405   4.204   4.272   4.866  0.5828 -0.1319  0.2741
 6483TIP3    H119406   4.189   4.362   4.839 -0.1600 -0.3640 -0.1279
 6483TIP3    H219407   4.298   4.258   4.854  0.4441  0.0736 -1.2865
 6484TIP3   OH219408   0.414   3.735   2.115  0.1353 -0.0813  0.3501
 6484TIP3    H119409   0.473   3.779   2.176 -0.4942 -1.1618  1.7825
 6484TIP3    H219410   0.351   3.690   2.170 -2.5757  1.6740 -1.0732
 6485TIP3   OH219411   3.751   3.398   5.195 -0.7065  0.2747 -0.0106
 6485TIP3    H119412   3.678   3.340   5.173  0.0721 -0.7063 -0.0740
 6485TIP3    H219413   3.814   3.342   5.240 -0.4333  1.3364  0.9861
 6486TIP3   OH219414   0.671   3.987   3.001 -0.3351 -0.1786  0.4738
 6486TIP3    H119415   0.643   3.896   2.991  0.2627 -0.3196 -0.0253
 6486TIP3    H219416   0.595   4.038   2.974 -0.7740 -0.5204  1.0379
 6487TIP3   OH219417   6.538   0.964   3.134  0.2522 -0.2163 -0.1430
 6487TIP3    H119418   6.607   1.022   3.164  0.7581 -0.5220 -0.6967
 6487TIP3    H219419   6.458   1.015   3.143  0.4519 -0.0908  1.1573
 6488TIP3   OH219420   3.774   0.275   4.747 -0.5697  0.0885  0.1403
 6488TIP3    H119421   3.771   0.209   4.817  3.3617 -0.2524  0.1946
 6488TIP3    H219422   3.707   0.248   4.685 -0.2347 -2.9949  0.9942
 6489TIP3   OH219423   7.769   1.457   5.785 -0.5265 -0.5899  0.3158
 6489TIP3    H119424   7.813   1.541   5.770 -0.9653 -0.0805  1.7008
 6489TIP3    H219425   7.830   1.391   5.750 -0.3860  0.3052 -1.2324
 6490TIP3   OH219426   7.271   0.899   2.061  0.1774  0.4761 -0.8745
 6490TIP3    H119427   7.286   0.814   2.021  0.2537  0.4404 -0.7695
 6490TIP3    H219428   7.242   0.879   2.150  1.2846  0.5802 -0.4753
 6491TIP3   OH219429   3.657   6.319   5.470  0.3476 -0.1553  0.9757
 6491TIP3    H119430   3.707   6.367   5.405 -0.5914 -0.0646  0.3184
 6491TIP3    H219431   3.652   6.230   5.436 -2.3087  0.4252 -0.3971
 6492TIP3   OH219432   5.252   3.955   1.558 -0.0932  0.2666  0.5099
 6492TIP3    H119433   5.295   4.035   1.588 -0.5490  0.6295  0.2271
 6492TIP3    H219434   5.323   3.897   1.533  0.2448  0.5848  0.7184
 6493TIP3   OH219435   1.152   0.941   5.842 -0.2456 -0.3978 -0.3398
 6493TIP3    H119436   1.062   0.910   5.831  0.0588 -1.0339 -1.1566
 6493TIP3    H219437   1.186   0.947   5.752 -0.0329  1.5970 -0.1876
 6494TIP3   OH219438   4.001   0.660   5.794  0.5305  0.0224 -0.8625
 6494TIP3    H119439   3.983   0.567   5.779 -2.5498  0.1502  1.0176
 6494TIP3    H219440   4.075   0.660   5.855 -0.4703 -1.3739  0.4677
 6495TIP3   OH219441   3.606   7.386   0.871 -0.7046 -0.4809 -0.4036
 6495TIP3    H119442   3.576   7.399   0.781 -1.0427 -0.3191 -0.2673
 6495TIP3    H219443   3.527   7.389   0.924 -0.4163  0.2741 -0.0083
 6496TIP3   OH219444   0.072   1.018   0.383 -0.2157  0.0106  0.2264
 6496TIP3    H119445   0.036   0.978   0.303  0.8242  0.0971 -0.2988
 6496TIP3    H219446   0.111   0.945   0.430 -0.1873  0.0751  0.3018
 6497TIP3   OH219447   5.418   4.621   4.194  0.0934 -0.3585 -0.5946
 6497TIP3    H119448   5.331   4.658   4.179 -0.0213 -0.3769  0.0373
 6497TIP3    H219449   5.412   4.531   4.162 -0.0999 -0.3450 -0.5973
 6498TIP3   OH219450   6.791   0.546   6.698  0.0249 -0.1974  0.3763
 6498TIP3    H119451   6.816   0.456   6.676  0.6595 -0.3081  1.4981
 6498TIP3    H219452   6.861   0.578   6.755 -1.3353  0.1806  1.9279
 6499TIP3   OH219453   5.470   2.438   1.892 -0.0816  0.0186 -0.6987
 6499TIP3    H119454   5.383   2.447   1.931  1.1847  0.5212  2.3071
 6499TIP3    H219455   5.500   2.528   1.881  0.2952 -0.1635 -1.1489
 6500TIP3   OH219456   7.181   3.783   0.271 -0.0496  0.1003 -0.0148
 6500TIP3    H119457   7.181   3.727   0.349 -0.9859  0.3724  0.1923
 6500TIP3    H219458   7.268   3.824   0.272 -0.6032  1.3615  1.8212
 6501TIP3   OH219459   4.372   0.416   4.398  0.1667  0.4268 -0.8176
 6501TIP3    H119460   4.445   0.422   4.459 -0.2341 -1.8492  0.0084
 6501TIP3    H219461   4.411   0.424   4.312  1.2561  0.1779 -0.3596
 6502TIP3   OH219462   2.649   2.868   0.328 -0.3229 -0.5684 -0.1681
 6502TIP3    H119463   2.569   2.920   0.329  0.0583  0.0465 -0.9541
 6502TIP3    H219464   2.720   2.932   0.323  0.2295 -1.0991  0.5676
 6503TIP3   OH219465   3.121   3.334   4.242 -0.0349  0.0927  0.0720
 6503TIP3    H119466   3.117   3.307   4.150  0.7014 -0.3657  0.1707
 6503TIP3    H219467   3.214   3.335   4.264 -0.1976  0.2688  0.7941
 6504TIP3   OH219468   7.273   5.135   2.107  0.1833 -0.0884  0.1516
 6504TIP3    H119469   7.333   5.066   2.079 -1.0842 -1.0391 -0.2918
 6504TIP3    H219470   7.286   5.206   2.044  1.5926  0.1803  0.6931
 6505TIP3   OH219471   0.380   1.834   0.762  0.0146 -0.1251 -0.0467
 6505TIP3    H119472   0.339   1.856   0.845 -0.5746  1.2585 -0.6790
 6505TIP3    H219473   0.452   1.896   0.753  1.1780 -1.3761  0.2055
 6506TIP3   OH219474   8.078   6.972   3.237  0.0217  0.4377 -0.2621
 6506TIP3    H119475   8.102   6.993   3.327 -0.1062  1.1230 -0.3783
 6506TIP3    H219476   7.988   6.941   3.242  0.4345 -0.7358 -0.0029
 6507TIP3   OH219477   1.674   1.050   1.899  0.1103  0.1802 -0.4858
 6507TIP3    H119478   1.643   0.962   1.923 -0.6620  0.6040  0.1018
 6507TIP3    H219479   1.742   1.069   1.964  0.2862  0.0138 -0.6203
 6508TIP3   OH219480   3.951   2.017   1.507 -0.1741  0.4827  0.3020
 6508TIP3    H119481   3.981   1.951   1.445 -1.6141 -1.7567  1.8213
 6508TIP3    H219482   3.979   1.983   1.592 -2.0179  1.1701  1.2262
 6509TIP3   OH219483   2.134   2.348   4.841 -0.2443 -0.2888 -0.2995
 6509TIP3    H119484   2.138   2.271   4.898 -1.1651 -0.2802 -0.2105
 6509TIP3    H219485   2.111   2.420   4.900  0.0525 -0.0415 -0.4814
 6510TIP3   OH219486   4.369   6.434   1.387  0.3387 -0.3015 -0.3553
 6510TIP3    H119487   4.286   6.387   1.389  1.0157 -1.5048  1.1137
 6510TIP3    H219488   4.428   6.377   1.338  0.8598 -0.5005  0.4756
 6511TIP3   OH219489   6.273   4.962   5.145  0.6656  0.3810  0.4532
 6511TIP3    H119490   6.323   4.907   5.085  0.5244  0.1383  0.5595
 6511TIP3    H219491   6.334   4.978   5.218  0.5589  0.0105  0.6251
 6512TIP3   OH219492   1.593   5.121   0.865  0.8277  0.8232 -0.3359
 6512TIP3    H119493   1.611   5.212   0.886  1.5345  0.6985 -0.3611
 6512TIP3    H219494   1.501   5.119   0.840 -0.3732  0.8506  3.5079
 6513TIP3   OH219495   3.550   3.678   1.387  0.1892  0.2591 -0.1209
 6513TIP3    H119496   3.579   3.592   1.356  0.2113 -0.5764  2.0369
 6513TIP3    H219497   3.471   3.697   1.337 -0.1424 -1.2958 -0.2136
 6514TIP3   OH219498   1.197   2.242   4.360  0.0683  0.1687 -0.0806
 6514TIP3    H119499   1.157   2.327   4.343 -0.1496 -0.3068 -2.2062
 6514TIP3    H219500   1.290   2.262   4.370  0.2017  0.5855 -1.7658
 6515TIP3   OH219501   1.613   6.810   3.238 -0.1897 -0.2509  0.0647
 6515TIP3    H119502   1.587   6.784   3.149  1.0369 -1.2029 -0.0489
 6515TIP3    H219503   1.652   6.896   3.227  1.1929 -0.9234 -0.5823
 6516TIP3   OH219504   5.313   4.623   2.598 -0.4571 -0.3204  0.3810
 6516TIP3    H119505   5.370   4.609   2.674 -0.6008  1.5199  0.8859
 6516TIP3    H219506   5.346   4.562   2.532  0.5216 -1.0312  1.4765
 6517TIP3   OH219507   3.170   2.823   4.157 -0.0905 -0.1572 -0.4131
 6517TIP3    H119508   3.157   2.806   4.063  1.7728  0.4864 -0.8398
 6517TIP3    H219509   3.247   2.771   4.180  0.2638  0.7096  0.4306
 6518TIP3   OH219510   3.553   5.602   4.985  0.1612  0.7059  0.0401
 6518TIP3    H119511   3.585   5.565   4.903 -1.4512 -0.5386 -0.0604
 6518TIP3    H219512   3.490   5.669   4.958  0.4713  1.1004  0.2749
 6519TIP3   OH219513   4.707   7.557   6.359 -0.0083 -0.3473 -0.2362
 6519TIP3    H119514   4.777   7.532   6.299  0.0873 -2.7233  0.7866
 6519TIP3    H219515   4.736   7.527   6.445 -1.8438 -0.4915  0.3718
 6520TIP3   OH219516   3.744   1.844   2.761  0.4125  0.2847 -0.1371
 6520TIP3    H119517   3.651   1.825   2.768  0.1455  1.3621 -0.5265
 6520TIP3    H219518   3.767   1.884   2.845  0.4333  0.3704 -0.1836
 6521TIP3   OH219519   3.087   3.914   0.217  0.0631 -0.1213 -0.1902
 6521TIP3    H119520   3.084   4.000   0.258 -1.4371 -0.1472 -0.1905
 6521TIP3    H219521   3.164   3.872   0.255 -0.2729  0.5058  1.2469
 6522TIP3   OH219522   5.771   6.258   3.225  0.7343 -0.0998 -0.5405
 6522TIP3    H119523   5.707   6.268   3.295  1.1094  0.0696 -0.2168
 6522TIP3    H219524   5.850   6.298   3.260  0.5365  1.2572 -1.6065
 6523TIP3   OH219525   4.199   6.597   0.028 -0.3271 -0.0371  0.0305
 6523TIP3    H119526   4.288   6.571   0.004 -0.2082  0.1425  0.2701
 6523TIP3    H219527   4.143   6.529  -0.011 -0.0721 -0.2558  0.0391
 6524TIP3   OH219528   3.765   4.008   4.685  0.0838 -0.2838  0.2395
 6524TIP3    H119529   3.858   4.014   4.705 -0.1753 -0.2398  1.4805
 6524TIP3    H219530   3.752   4.071   4.614  0.9993 -0.3500 -0.0036
 6525TIP3   OH219531   3.930   6.901   0.105 -0.0246 -0.0160  0.0897
 6525TIP3    H119532   3.894   6.946   0.182  2.5493  2.0283  0.2297
 6525TIP3    H219533   3.877   6.932   0.032 -0.5395  0.4740  0.6599
 6526TIP3   OH219534   4.312   6.391   6.270 -0.6188  0.0611 -0.0596
 6526TIP3    H119535   4.274   6.408   6.183  0.0945  0.4465 -0.3012
 6526TIP3    H219536   4.244   6.418   6.331 -1.2161 -0.4099 -0.4970
 6527TIP3   OH219537   0.195   7.726   1.424 -0.1645 -0.8236 -0.3619
 6527TIP3    H119538   0.133   7.667   1.467 -0.9300 -0.5848 -1.1139
 6527TIP3    H219539   0.153   7.750   1.342  1.8006 -2.2438 -1.8750
 6528TIP3   OH219540   0.428   5.297   6.631  0.4874 -0.6757 -0.1536
 6528TIP3    H119541   0.371   5.223   6.649  1.1236 -1.4334 -1.1450
 6528TIP3    H219542   0.403   5.363   6.695 -2.1626 -0.5947 -1.1361
 6529TIP3   OH219543   1.959   4.372   3.966 -0.0853 -0.0924 -0.0045
 6529TIP3    H119544   2.049   4.371   3.933  0.4173  0.1159  1.3005
 6529TIP3    H219545   1.966   4.404   4.055 -1.4880  0.0755  0.0771
 6530TIP3   OH219546   5.307   0.950   2.392  0.2741  0.1471 -0.3331
 6530TIP3    H119547   5.285   0.976   2.481  1.5093  2.1760 -0.5472
 6530TIP3    H219548   5.398   0.921   2.398  0.0177 -0.7698 -0.7523
 6531TIP3   OH219549   2.130   7.421   0.156  0.5646 -0.2920 -0.2024
 6531TIP3    H119550   2.124   7.346   0.097 -0.4363 -0.2887 -0.1165
 6531TIP3    H219551   2.118   7.383   0.244  0.2159 -0.0608 -0.1479
 6532TIP3   OH219552   3.240   7.550   0.822  0.1256  0.3155 -0.0580
 6532TIP3    H119553   3.209   7.512   0.740 -1.9621  0.8160  0.4254
 6532TIP3    H219554   3.179   7.622   0.840  0.2868 -0.0055  2.1067
 6533TIP3   OH219555   5.468   2.824   4.607  0.2199  0.5194  0.3668
 6533TIP3    H119556   5.437   2.850   4.520  0.3527  1.0209  0.4649
 6533TIP3    H219557   5.397   2.771   4.643 -0.4936  1.5442  0.5362
 6534TIP3   OH219558   7.001   5.912   5.331 -0.0361 -0.0371 -0.2201
 6534TIP3    H119559   7.028   5.854   5.260 -0.8902  0.1810 -0.7375
 6534TIP3    H219560   6.914   5.882   5.356  0.3615 -0.2704  0.9214
 6535TIP3   OH219561   4.205   5.294   1.118  0.0197 -0.5902  0.5232
 6535TIP3    H119562   4.141   5.226   1.101  2.2124 -2.7648  0.3873
 6535TIP3    H219563   4.216   5.339   1.034 -0.5479 -0.8836  0.2874
 6536TIP3   OH219564   6.809   4.801   4.735 -0.1693 -0.1030 -0.1006
 6536TIP3    H119565   6.761   4.761   4.808 -2.7309  3.5009  0.5114
 6536TIP3    H219566   6.876   4.855   4.777 -2.0968  2.5364 -0.1207
 6537TIP3   OH219567   2.460   0.476   6.115  0.4702 -0.2655 -1.2772
 6537TIP3    H119568   2.415   0.469   6.200  0.2030  0.6875 -1.3273
 6537TIP3    H219569   2.535   0.418   6.124 -0.5184 -1.5527 -1.0349
 6538TIP3   OH219570   6.165   6.484   2.187  0.2372  0.6123  0.2096
 6538TIP3    H119571   6.126   6.566   2.216 -0.2827  1.0010 -1.5089
 6538TIP3    H219572   6.120   6.416   2.238 -1.1109  1.2210 -0.1341
 6539TIP3   OH219573   2.328   6.861   1.822  0.3933 -0.1874 -0.1462
 6539TIP3    H119574   2.287   6.946   1.810 -1.7004 -1.0131  0.6551
 6539TIP3    H219575   2.255   6.802   1.843  1.8525 -2.0371 -0.0164
 6540TIP3   OH219576   7.565   0.548   5.473 -0.0133 -0.3365 -0.0863
 6540TIP3    H119577   7.606   0.617   5.421 -1.2075  0.6158  0.1781
 6540TIP3    H219578   7.495   0.593   5.521 -2.8263 -2.2149 -2.1277
 6541TIP3   OH219579   3.086   7.133   4.559  0.3724  0.3137 -0.5865
 6541TIP3    H119580   3.037   7.051   4.555  1.9033 -0.5944 -2.1868
 6541TIP3    H219581   3.019   7.201   4.549 -0.9597 -0.6935  1.0060
 6542TIP3   OH219582   4.429   1.996   3.785 -0.3636 -0.8316 -0.3028
 6542TIP3    H119583   4.502   2.058   3.788 -0.7608 -0.3367 -0.6519
 6542TIP3    H219584   4.428   1.955   3.872 -0.2148 -0.2106 -0.0029
 6543TIP3   OH219585   1.459   1.899   2.696 -0.2786 -0.5728  0.1841
 6543TIP3    H119586   1.511   1.841   2.640 -1.1605 -1.0019 -0.2142
 6543TIP3    H219587   1.394   1.937   2.638 -0.8756 -0.6129  0.8060
 6544TIP3   OH219588   1.817   3.413   6.265 -0.1264 -0.4366 -0.4187
 6544TIP3    H119589   1.848   3.499   6.293  0.1511 -1.1642  1.7478
 6544TIP3    H219590   1.870   3.392   6.188  1.6996  0.2474  0.5872
 6545TIP3   OH219591   6.424   4.404   2.661 -0.5147  0.5386  0.2789
 6545TIP3    H119592   6.331   4.413   2.639 -1.0677  0.5495  2.4234
 6545TIP3    H219593   6.427   4.337   2.730  0.6452  2.6872  2.4979
 6546TIP3   OH219594   4.093   3.187   0.692  0.1374 -0.0664  0.1670
 6546TIP3    H119595   4.005   3.192   0.729 -0.2005 -1.0339 -0.4643
 6546TIP3    H219596   4.080   3.203   0.598  0.4697 -1.3372 -0.1089
 6547TIP3   OH219597   4.668   2.354   4.881 -0.0561 -0.0385 -0.3742
 6547TIP3    H119598   4.677   2.307   4.798  2.6410 -0.0578 -0.1719
 6547TIP3    H219599   4.733   2.424   4.876 -1.7442  1.7115  0.6562
 6548TIP3   OH219600   2.754   4.358   5.174  0.3495 -0.3105 -0.1212
 6548TIP3    H119601   2.773   4.443   5.135  0.3317 -0.5403 -0.6384
 6548TIP3    H219602   2.827   4.342   5.234 -0.3509  0.7109  1.0675
 6549TIP3   OH219603   1.141   1.932   3.006  0.1127  0.3705  0.1576
 6549TIP3    H119604   1.074   1.989   2.968  0.1889 -1.0591 -2.3481
 6549TIP3    H219605   1.221   1.985   3.004 -0.1051  0.6808 -0.7688
 6550TIP3   OH219606   5.355   2.759   3.498 -0.0566 -0.0081 -0.1794
 6550TIP3    H119607   5.298   2.715   3.561  3.1242 -0.7158  2.5125
 6550TIP3    H219608   5.384   2.689   3.439  1.5514 -0.7126  1.3641
 6551TIP3   OH219609   2.709   1.319   5.529  0.1699 -0.5988  0.1099
 6551TIP3    H119610   2.626   1.356   5.559  0.8707  0.1244  1.2389
 6551TIP3    H219611   2.736   1.376   5.458  0.1601 -0.2642  0.3733
 6552TIP3   OH219612   4.389   4.043   2.437 -0.3825 -0.2011  0.6151
 6552TIP3    H119613   4.309   3.998   2.466 -0.2234  0.3182  1.9232
 6552TIP3    H219614   4.460   3.990   2.473 -0.1222 -0.5074 -0.3184
 6553TIP3   OH219615   6.449   1.755   4.751  0.0763 -0.3016 -0.3283
 6553TIP3    H119616   6.505   1.787   4.822 -1.1750  0.5063  0.3222
 6553TIP3    H219617   6.456   1.821   4.683 -0.3372 -0.0277 -0.1093
 6554TIP3   OH219618   2.960   1.426   0.802 -0.6072  0.1294 -0.2642
 6554TIP3    H119619   2.905   1.351   0.824 -0.9027  0.2403 -0.6141
 6554TIP3    H219620   3.044   1.388   0.777 -0.4624 -0.0316  0.4347
 6555TIP3   OH219621   6.322   5.886   2.743 -0.2542  0.0997 -0.0897
 6555TIP3    H119622   6.273   5.873   2.661 -0.4072  1.3072 -0.2167
 6555TIP3    H219623   6.406   5.922   2.715 -0.9917  2.2915  0.3462
 6556TIP3   OH219624   1.034   0.305   6.399  0.5116  0.3643 -0.0960
 6556TIP3    H119625   1.091   0.371   6.359 -0.3507  0.8610 -0.5286
 6556TIP3    H219626   0.957   0.303   6.343  0.7992 -1.5053 -0.4785
 6557TIP3   OH219627   4.149   4.456   1.967 -0.3540  0.2903  0.1015
 6557TIP3    H119628   4.094   4.485   2.039  0.4742 -0.3112  0.9934
 6557TIP3    H219629   4.089   4.448   1.893 -1.2604  0.6604  0.7817
 6558TIP3   OH219630   5.168   4.556   3.888  0.2237  0.4966 -0.2212
 6558TIP3    H119631   5.120   4.519   3.814 -0.9696 -0.7262  1.1103
 6558TIP3    H219632   5.137   4.647   3.893 -1.5279 -0.0726  0.1991
 6559TIP3   OH219633   6.055   6.187   0.201  0.1401 -0.1044  0.3417
 6559TIP3    H119634   5.971   6.233   0.197 -0.2254 -0.6486  1.2662
 6559TIP3    H219635   6.109   6.240   0.259  1.1649  1.2952 -1.7454
 6560TIP3   OH219636   0.077   3.625   2.644 -0.1174  0.0812  0.5284
 6560TIP3    H119637   0.001   3.674   2.615 -0.1679 -1.2986 -1.9877
 6560TIP3    H219638   0.105   3.575   2.567  2.8815 -0.0640  1.5536
 6561TIP3   OH219639   3.024   5.710   2.102  0.6702 -0.1292 -0.2479
 6561TIP3    H119640   3.015   5.701   2.197  0.1443 -0.5023 -0.3270
 6561TIP3    H219641   3.008   5.622   2.068 -1.8282  0.4772 -0.8573
 6562TIP3   OH219642   4.367   3.610   1.686  0.2722 -0.2829  0.2829
 6562TIP3    H119643   4.316   3.606   1.605 -1.4710 -1.1074  1.3561
 6562TIP3    H219644   4.391   3.519   1.704  0.4422 -0.1407  0.7958
 6563TIP3   OH219645   4.386   1.860   0.745  0.1002 -0.4220 -0.1838
 6563TIP3    H119646   4.405   1.931   0.805  0.8727 -0.9251  0.1782
 6563TIP3    H219647   4.291   1.854   0.744 -0.1606  2.0936 -1.9560
 6564TIP3   OH219648   4.479   5.981   2.806 -0.1861  0.0771  0.1916
 6564TIP3    H119649   4.537   6.006   2.734  0.6802  1.7408  1.3958
 6564TIP3    H219650   4.538   5.960   2.879 -1.0618  0.2115  0.9611
 6565TIP3   OH219651   8.244   0.821   3.495  0.0633  0.0308  0.6789
 6565TIP3    H119652   8.235   0.875   3.574 -0.8441  0.4636  0.2923
 6565TIP3    H219653   8.155   0.792   3.476  0.2473  0.0998 -0.3136
 6566TIP3   OH219654   2.291   0.841   6.668 -0.3680  0.6273  0.1051
 6566TIP3    H119655   2.286   0.847   6.572 -0.8894  1.0862  0.1615
 6566TIP3    H219656   2.282   0.747   6.686  3.6321 -0.0390 -0.5136
 6567TIP3   OH219657   4.310   0.230   4.775  0.8025  0.4259 -0.1904
 6567TIP3    H119658   4.233   0.223   4.831  0.7779 -0.2584 -0.2989
 6567TIP3    H219659   4.302   0.314   4.732  0.5566  0.7355  0.4493
 6568TIP3   OH219660   3.251   2.371   0.426  0.3941 -0.0061  0.2267
 6568TIP3    H119661   3.238   2.276   0.426  1.2898 -0.1400  0.6392
 6568TIP3    H219662   3.171   2.406   0.386 -0.0001 -0.9212  0.1790
 6569TIP3   OH219663   3.445   7.004   5.263  0.3411  0.1871 -0.0531
 6569TIP3    H119664   3.368   7.056   5.241 -0.7000 -1.5734 -0.7223
 6569TIP3    H219665   3.492   6.995   5.180 -0.1889 -1.0182 -0.2403
 6570TIP3   OH219666   1.176   3.747   0.505  0.1530  0.6304  0.2414
 6570TIP3    H119667   1.233   3.680   0.541 -1.7231 -1.1914  0.0112
 6570TIP3    H219668   1.222   3.781   0.429  2.0891  1.1860  1.5977
 6571TIP3   OH219669   6.933   6.122   1.703 -0.5384 -0.4482  0.0234
 6571TIP3    H119670   7.016   6.144   1.745 -1.3491  0.7360  1.1017
 6571TIP3    H219671   6.873   6.109   1.777 -1.7960  0.7852 -0.7456
 6572TIP3   OH219672   0.703   0.106   3.467  0.0965 -0.0274  0.3913
 6572TIP3    H119673   0.783   0.098   3.417  0.0668  2.0656 -0.0891
 6572TIP3    H219674   0.642   0.045   3.426  1.0531 -0.7008 -0.0424
 6573TIP3   OH219675   6.103   0.922   5.458  0.5120  0.2580  0.4908
 6573TIP3    H119676   6.180   0.928   5.514 -0.4733 -0.5163  2.0126
 6573TIP3    H219677   6.110   0.996   5.398  1.9269  0.7667  1.2493
 6574TIP3   OH219678   6.368   2.135   2.727 -0.1718 -0.0814  0.0660
 6574TIP3    H119679   6.450   2.179   2.751 -0.2130  0.0182  0.0225
 6574TIP3    H219680   6.303   2.204   2.726 -0.3182 -0.2103  0.4005
 6575TIP3   OH219681   3.683   1.680   1.569 -0.1953 -0.5700  0.2358
 6575TIP3    H119682   3.755   1.688   1.506 -1.5332  0.4225 -1.2324
 6575TIP3    H219683   3.618   1.626   1.524 -1.1344  0.0657  0.8049
 6576TIP3   OH219684   1.317   7.510   4.752  0.2140  0.2047  0.4060
 6576TIP3    H119685   1.234   7.556   4.766  0.2691 -0.0051  1.4290
 6576TIP3    H219686   1.370   7.572   4.701 -0.0760  0.8854  0.9217
 6577TIP3   OH219687   8.027   6.508   1.998  0.0289  0.0590 -0.5025
 6577TIP3    H119688   8.025   6.442   1.928  1.4233 -0.5631  0.0033
 6577TIP3    H219689   7.992   6.463   2.075 -0.0469  0.2526 -0.4229
 6578TIP3   OH219690   6.177   2.435   2.235 -0.0446 -0.4354 -0.4985
 6578TIP3    H119691   6.100   2.448   2.291 -0.3684 -0.5124 -0.9245
 6578TIP3    H219692   6.178   2.512   2.177 -0.6788 -1.1709 -1.5156
 6579TIP3   OH219693   4.159   2.494   5.073 -0.2555  0.0089 -0.0788
 6579TIP3    H119694   4.164   2.511   4.979 -2.2962 -1.4715 -0.5485
 6579TIP3    H219695   4.170   2.580   5.114  0.9786  0.6403 -1.6253
 6580TIP3   OH219696   7.329   7.124   2.852 -0.1182  0.0250  0.1260
 6580TIP3    H119697   7.345   7.074   2.772 -1.8196  1.1607 -0.9996
 6580TIP3    H219698   7.385   7.201   2.843  1.9356 -1.2162  1.5050
 6581TIP3   OH219699   1.621   0.056   2.203 -0.1482 -0.0931  1.2235
 6581TIP3    H119700   1.614  -0.038   2.221 -1.8213 -0.6268 -1.5379
 6581TIP3    H219701   1.534   0.091   2.223 -0.4921  0.2158 -0.5864
 6582TIP3   OH219702   7.605   2.466   3.111  0.0957 -0.1535 -0.0367
 6582TIP3    H119703   7.662   2.389   3.119  1.4169  0.6863 -1.0194
 6582TIP3    H219704   7.551   2.464   3.190 -0.7262 -2.7148 -0.5732
 6583TIP3   OH219705   4.117   7.334   3.345  0.2867 -0.4590  0.0823
 6583TIP3    H119706   4.148   7.287   3.267 -1.3096  0.3833 -1.1338
 6583TIP3    H219707   4.194   7.341   3.401  0.6461 -4.4768  0.3750
 6584TIP3   OH219708   0.031   2.759   4.376  0.2967  0.3989  0.0060
 6584TIP3    H119709  -0.027   2.683   4.382  0.5897  0.2264  0.8552
 6584TIP3    H219710   0.020   2.792   4.287  0.5672 -0.9596 -0.5490
 6585TIP3   OH219711   7.555   6.834   5.039 -0.1775 -0.1406  0.8890
 6585TIP3    H119712   7.577   6.741   5.040 -0.1816 -0.1403  1.6317
 6585TIP3    H219713   7.498   6.845   4.962  2.4073 -0.1214 -1.1621
 6586TIP3   OH219714   0.267   5.545   2.231  0.2630 -0.4356  0.2836
 6586TIP3    H119715   0.204   5.504   2.172  0.0739 -2.2998  1.6843
 6586TIP3    H219716   0.224   5.545   2.316  1.3621  0.1451  0.8596
 6587TIP3   OH219717   2.299   2.467   1.503 -0.1714  0.2222  0.5472
 6587TIP3    H119718   2.300   2.393   1.564  0.7434 -0.6330 -0.4702
 6587TIP3    H219719   2.312   2.544   1.558  1.3792 -0.5902  1.3809
 6588TIP3   OH219720   0.540   1.632   6.304 -0.0065  0.1850 -0.4442
 6588TIP3    H119721   0.636   1.631   6.306 -0.0137  0.4964  0.3292
 6588TIP3    H219722   0.517   1.570   6.235  0.7451 -0.0130 -0.5260
 6589TIP3   OH219723   2.015   5.070   1.300  0.3196  0.2519 -0.5458
 6589TIP3    H119724   2.049   5.007   1.237  0.0169  0.8843 -1.3641
 6589TIP3    H219725   2.022   5.026   1.384  1.1465 -0.4423 -0.9634
 6590TIP3   OH219726   1.227   4.943   0.033  0.2432  0.0442 -0.1826
 6590TIP3    H119727   1.228   4.982  -0.055  0.1427 -0.6414 -0.4920
 6590TIP3    H219728   1.280   4.864   0.025  1.5607  0.8065  0.7839
 6591TIP3   OH219729   5.234   1.314   0.493 -0.5254 -0.1963 -0.4675
 6591TIP3    H119730   5.231   1.348   0.404 -0.7629  0.6194 -0.1571
 6591TIP3    H219731   5.143   1.318   0.524 -0.6202 -1.4949 -0.5576
 6592TIP3   OH219732   7.460   0.049   2.553  0.1161  0.3923  0.0117
 6592TIP3    H119733   7.426   0.138   2.560 -0.8995  0.1402 -1.2384
 6592TIP3    H219734   7.399   0.005   2.494 -1.2830 -2.0474  2.9590
 6593TIP3   OH219735   5.737   3.077   4.138  0.3336 -0.1208  0.3226
 6593TIP3    H119736   5.736   3.072   4.042 -1.0301 -0.9752  0.3484
 6593TIP3    H219737   5.730   3.170   4.158  2.3590  0.2179 -0.3841
 6594TIP3   OH219738   0.759   3.816   6.316 -0.0108  0.9241 -0.4625
 6594TIP3    H119739   0.779   3.896   6.366  0.9677  0.5197 -0.1912
 6594TIP3    H219740   0.733   3.752   6.383 -1.0741  1.0887 -0.7061
 6595TIP3   OH219741   2.830   6.250   3.745  0.1831 -0.7703 -0.3830
 6595TIP3    H119742   2.817   6.183   3.678 -0.9455 -1.5252  0.5589
 6595TIP3    H219743   2.743   6.267   3.780  0.7068 -0.2009  0.7176
 6596TIP3   OH219744   5.308   1.759   2.120 -0.1029 -0.2296  0.0909
 6596TIP3    H119745   5.222   1.739   2.156 -0.3660  1.3459  0.4085
 6596TIP3    H219746   5.290   1.814   2.044  0.6352  1.3147  0.9837
 6597TIP3   OH219747   0.278   5.055   5.491 -0.1526  0.4448 -0.4213
 6597TIP3    H119748   0.359   5.005   5.501 -0.9432 -0.5219  1.7348
 6597TIP3    H219749   0.264   5.095   5.576 -1.3026  1.6619 -1.1457
 6598TIP3   OH219750   1.583   7.454   1.243 -0.1559 -0.1610 -0.2638
 6598TIP3    H119751   1.664   7.502   1.255 -0.2232  0.0541 -0.6515
 6598TIP3    H219752   1.555   7.431   1.331  0.5855 -0.6709 -0.1574
 6599TIP3   OH219753   3.978   2.618   3.406 -0.3204 -0.1857 -0.4426
 6599TIP3    H119754   4.028   2.611   3.324 -0.7068  2.1851 -0.9356
 6599TIP3    H219755   3.920   2.693   3.393 -1.2735 -0.5060  1.5696
 6600TIP3   OH219756   5.718   0.059   3.934 -0.1952 -0.5846 -0.2794
 6600TIP3    H119757   5.729   0.146   3.972  1.7650 -0.0712 -1.8475
 6600TIP3    H219758   5.623   0.049   3.923 -0.4146  2.0128 -1.4741
 6601TIP3   OH219759   1.785   0.689   3.725 -0.0489 -0.0486  0.0356
 6601TIP3    H119760   1.761   0.649   3.808  1.2239  2.2080  1.5876
 6601TIP3    H219761   1.850   0.630   3.688 -0.9690 -1.3195  0.3801
 6602TIP3   OH219762   7.395   4.135   1.917  0.0945 -0.0966 -0.7112
 6602TIP3    H119763   7.337   4.061   1.903  1.0835 -1.2726  1.0595
 6602TIP3    H219764   7.337   4.212   1.915 -1.8389 -1.2912  2.1326
 6603TIP3   OH219765   5.576   4.316   6.442 -0.4982  0.2360 -0.5761
 6603TIP3    H119766   5.550   4.388   6.385 -0.1271 -0.1922 -1.2954
 6603TIP3    H219767   5.587   4.357   6.528  0.4859  1.1850 -1.1350
 6604TIP3   OH219768   0.626   4.432   6.425 -0.1902 -0.3725  0.1900
 6604TIP3    H119769   0.533   4.425   6.446 -0.4781  1.8155 -0.0694
 6604TIP3    H219770   0.634   4.393   6.338 -0.7774 -0.9514  0.3836
 6605TIP3   OH219771   5.004   5.033   6.527 -0.3584 -0.4629  0.8671
 6605TIP3    H119772   5.032   5.028   6.618  0.4236  0.6562  0.6997
 6605TIP3    H219773   5.074   4.991   6.478  0.2329  0.7847  0.6083
 6606TIP3   OH219774   6.494   7.736   5.281 -0.3831 -0.2554  0.5060
 6606TIP3    H119775   6.430   7.750   5.352  1.1065 -0.1990  1.8864
 6606TIP3    H219776   6.475   7.806   5.219 -3.7160 -2.0642 -0.7603
 6607TIP3   OH219777   6.806   6.006   5.862  0.3033  0.2542  0.3156
 6607TIP3    H119778   6.813   6.096   5.893  0.9857  0.4297 -0.3094
 6607TIP3    H219779   6.835   5.953   5.937  1.0460  0.6212  0.3027
 6608TIP3   OH219780   7.011   1.651   4.924  0.4294  0.0720 -0.3799
 6608TIP3    H119781   7.023   1.728   4.868 -3.0390  1.5566  0.6709
 6608TIP3    H219782   6.979   1.583   4.865  2.6399 -0.3789 -1.1516
 6609TIP3   OH219783   0.805   2.513   2.177 -0.2485  0.1485  0.0744
 6609TIP3    H119784   0.795   2.419   2.162 -0.2917  0.0322  0.7764
 6609TIP3    H219785   0.715   2.547   2.174 -0.1267  0.3861 -1.4670
 6610TIP3   OH219786   8.250   0.999   6.482  0.0399 -0.4443 -0.1432
 6610TIP3    H119787   8.283   0.949   6.556 -0.7620  0.6892  1.0108
 6610TIP3    H219788   8.178   0.947   6.447  0.9271 -1.3667 -0.6535
 6611TIP3   OH219789   4.340   5.735   5.556  0.1663  0.6407  0.3499
 6611TIP3    H119790   4.373   5.715   5.644 -2.0198 -0.5097  0.9801
 6611TIP3    H219791   4.274   5.803   5.570 -0.0981  0.5537 -0.4196
 6612TIP3   OH219792   4.988   6.546   2.437  0.4266  0.1831  0.3351
 6612TIP3    H119793   4.894   6.566   2.439  0.6780  1.3995  0.9175
 6612TIP3    H219794   4.992   6.456   2.405 -1.0034 -0.2757  1.3221
 6613TIP3   OH219795   4.335   3.639   4.479 -0.3724 -1.1266 -0.3254
 6613TIP3    H119796   4.253   3.669   4.520 -0.1392 -1.0147  0.0597
 6613TIP3    H219797   4.383   3.597   4.551  0.8779  0.7280 -0.0341
 6614TIP3   OH219798   4.254   6.854   6.385  0.1838  0.1460  0.1414
 6614TIP3    H119799   4.249   6.856   6.289 -0.4491 -1.2339  0.1228
 6614TIP3    H219800   4.166   6.828   6.413  0.7972 -1.0661  1.0170
 6615TIP3   OH219801   2.226   5.991   5.667 -0.5628 -0.1601 -0.3465
 6615TIP3    H119802   2.238   5.927   5.737 -0.8339 -1.3105 -1.3201
 6615TIP3    H219803   2.306   6.044   5.669 -0.7102  0.0399  1.0224
 6616TIP3   OH219804   3.231   6.905   4.790  0.2717  0.2840 -0.8982
 6616TIP3    H119805   3.142   6.939   4.780  0.1852  0.0238 -1.0157
 6616TIP3    H219806   3.277   6.973   4.839 -0.2222  0.0306 -0.0575
 6617TIP3   OH219807   3.577   5.753   4.630  0.1448  0.3667 -0.2745
 6617TIP3    H119808   3.584   5.817   4.559  0.1390 -0.7240 -1.2712
 6617TIP3    H219809   3.553   5.806   4.706  0.4911  1.6071 -0.9870
 6618TIP3   OH219810   0.455   3.748   0.034 -0.2120 -0.6372  0.7252
 6618TIP3    H119811   0.477   3.722  -0.056 -0.4026  0.3570  0.3790
 6618TIP3    H219812   0.363   3.722   0.044  0.1282 -1.7878  1.0410
 6619TIP3   OH219813   3.459   2.728   0.244  0.1146  0.4930  0.7421
 6619TIP3    H119814   3.506   2.678   0.311 -1.2607  0.1637  1.4987
 6619TIP3    H219815   3.464   2.674   0.165  1.4903  0.7408  0.6344
 6620TIP3   OH219816   5.234   4.379   0.377  0.0098 -0.1698 -0.3484
 6620TIP3    H119817   5.273   4.335   0.301  0.9754 -1.5288  0.8669
 6620TIP3    H219818   5.308   4.417   0.424  0.3692 -4.0658  2.8198
 6621TIP3   OH219819   5.477   0.999   3.680  0.2525  0.1086  0.0318
 6621TIP3    H119820   5.554   0.948   3.654 -0.4455 -0.5411 -0.8281
 6621TIP3    H219821   5.403   0.941   3.660 -0.4173  0.2059  2.0152
 6622TIP3   OH219822   0.590   6.334   1.467  0.0629  0.6447  0.7068
 6622TIP3    H119823   0.568   6.257   1.415  0.6265  0.5149  0.6439
 6622TIP3    H219824   0.510   6.385   1.471  0.0782  0.7957 -0.5260
 6623TIP3   OH219825   1.985   6.786   6.278  0.1022  0.0629  0.0313
 6623TIP3    H119826   1.899   6.760   6.247  0.4789  0.5433 -1.5472
 6623TIP3    H219827   1.976   6.878   6.302  0.4591  0.5347 -1.5007
 6624TIP3   OH219828   0.405   0.344   5.183  0.5120 -0.6287  0.7000
 6624TIP3    H119829   0.376   0.258   5.212  3.2525 -1.1437  2.1376
 6624TIP3    H219830   0.387   0.402   5.257  0.9372 -0.4637  0.6744
 6625TIP3   OH219831   4.847   5.870   3.000  0.0870  0.3556 -0.1271
 6625TIP3    H119832   4.874   5.815   2.927 -0.2913  0.7133 -0.5417
 6625TIP3    H219833   4.923   5.925   3.019  0.0946  0.4512 -0.4326
 6626TIP3   OH219834   8.111   3.527   5.294  0.1079 -0.0133  0.4112
 6626TIP3    H119835   8.105   3.441   5.335  0.6779 -0.0026  0.5240
 6626TIP3    H219836   8.047   3.524   5.223 -1.0111  0.0269  1.3891
 6627TIP3   OH219837   8.315   0.086   3.962  0.6869 -0.2490  0.1991
 6627TIP3    H119838   8.299   0.047   3.876  0.2023 -1.0157  0.6257
 6627TIP3    H219839   8.243   0.054   4.016  0.0289  1.5804  0.4721
 6628TIP3   OH219840   0.988   5.099   6.546  0.2234 -0.1459  0.1448
 6628TIP3    H119841   0.926   5.081   6.476 -0.1921 -0.2586  0.5409
 6628TIP3    H219842   1.063   5.139   6.501 -0.3659  0.5286 -0.2632
 6629TIP3   OH219843   0.128   5.397   6.700 -0.5713 -0.6408  0.2955
 6629TIP3    H119844   0.148   5.421   6.790  0.3588  0.8436 -0.2734
 6629TIP3    H219845   0.086   5.475   6.663 -2.4427 -1.7767 -0.1389
 6630TIP3   OH219846   1.200   7.019   1.050  0.3489 -0.8493 -0.0603
 6630TIP3    H119847   1.260   7.094   1.046  0.0652 -0.6249 -0.2168
 6630TIP3    H219848   1.252   6.947   1.084  0.4352 -0.3909  0.7880
 6631TIP3   OH219849   1.466   6.142   1.024  0.4765  0.4866 -0.0433
 6631TIP3    H119850   1.503   6.155   0.937  0.6789  0.0572 -0.0215
 6631TIP3    H219851   1.521   6.194   1.082  0.5830  0.4587 -0.1185
 6632TIP3   OH219852   3.034   1.532   3.308  0.4499 -0.3172  0.2704
 6632TIP3    H119853   3.092   1.470   3.264  0.3727 -0.7201  0.7243
 6632TIP3    H219854   3.071   1.540   3.397  0.3731  0.1753  0.2622
 6633TIP3   OH219855   3.816   7.205   5.619 -0.6036  0.0613 -0.0350
 6633TIP3    H119856   3.877   7.184   5.548  0.0716 -0.4078  0.6587
 6633TIP3    H219857   3.858   7.170   5.698 -1.0419  1.0903  0.6923
 6634TIP3   OH219858   1.365   2.852   4.489  0.0575 -0.3059  0.1505
 6634TIP3    H119859   1.453   2.885   4.472  0.5419 -2.3286 -1.6805
 6634TIP3    H219860   1.307   2.911   4.441  0.5522  0.0413 -0.0182
 6635TIP3   OH219861   2.465   3.897   2.952  0.3092 -0.1060  0.0345
 6635TIP3    H119862   2.515   3.880   2.872 -1.4185  0.5973 -1.2548
 6635TIP3    H219863   2.384   3.848   2.941 -0.0036  0.0836  1.3307
 6636TIP3   OH219864   1.052   7.648   2.226 -0.1547  0.3352  0.2418
 6636TIP3    H119865   1.086   7.737   2.233 -3.2087  1.6487 -0.2183
 6636TIP3    H219866   0.957   7.658   2.226 -0.6234 -2.8466 -0.9204
 6637TIP3   OH219867   1.206   3.302   6.027 -0.0744 -0.1669 -0.1107
 6637TIP3    H119868   1.160   3.348   6.097 -1.1919 -0.2190 -0.7840
 6637TIP3    H219869   1.256   3.234   6.072  0.0947  0.4963  0.7238
 6638TIP3   OH219870   0.215   6.053   0.547  0.6422  0.4117 -0.4020
 6638TIP3    H119871   0.303   6.088   0.530  1.6274 -1.8698 -0.4558
 6638TIP3    H219872   0.171   6.057   0.462  1.0784  0.5882 -0.6246
 6639TIP3   OH219873   5.093   5.298   6.038 -0.1850  0.0191  0.4789
 6639TIP3    H119874   5.007   5.341   6.034  0.2820  0.9185 -0.1768
 6639TIP3    H219875   5.156   5.369   6.032  0.6343 -0.5652  1.6486
 6640TIP3   OH219876   4.285   6.826   0.631 -0.4974 -0.3853 -0.4925
 6640TIP3    H119877   4.228   6.772   0.685  0.4991 -1.2994 -0.3107
 6640TIP3    H219878   4.226   6.869   0.569 -1.5649  0.0405  0.7826
 6641TIP3   OH219879   0.683   6.410   6.135 -0.5661 -0.3989  0.0815
 6641TIP3    H119880   0.619   6.453   6.078 -0.9070 -0.8861  0.0972
 6641TIP3    H219881   0.697   6.324   6.096 -1.9646 -1.3553  1.5644
 6642TIP3   OH219882   6.928   2.331   1.563  0.0313 -0.4447  0.0782
 6642TIP3    H119883   6.923   2.377   1.647 -0.7717  1.5919 -1.0284
 6642TIP3    H219884   6.994   2.379   1.514 -0.0488 -1.1614 -0.7540
 6643TIP3   OH219885   3.996   3.902   2.701  0.0209 -0.0224 -0.0849
 6643TIP3    H119886   3.986   3.994   2.676  2.2537  0.2600 -0.1270
 6643TIP3    H219887   4.032   3.904   2.789  0.7985 -0.8368 -0.3704
 6644TIP3   OH219888   7.886   4.930   0.104  0.0347  0.2885  0.0952
 6644TIP3    H119889   7.979   4.908   0.105  0.3474  1.4705 -0.7397
 6644TIP3    H219890   7.868   4.966   0.191  0.3095 -0.0902  0.3111
 6645TIP3   OH219891   0.485   6.432   5.046  0.0975 -0.2667 -0.1093
 6645TIP3    H119892   0.469   6.526   5.038  1.0513  0.0092  0.9366
 6645TIP3    H219893   0.506   6.419   5.138  0.2966 -1.4591 -0.3085
 6646TIP3   OH219894   1.466   7.313   0.519  0.0324 -0.2655 -0.2411
 6646TIP3    H119895   1.525   7.273   0.583 -0.3861  0.6349  0.7399
 6646TIP3    H219896   1.393   7.252   0.511  0.7749 -1.0883 -0.9953
 6647TIP3   OH219897   7.038   3.821   3.743 -0.0418  0.2900 -0.2227
 6647TIP3    H119898   6.957   3.820   3.691  0.6841 -2.0987 -1.4776
 6647TIP3    H219899   7.067   3.912   3.742 -3.1257  1.4281  1.0367
 6648TIP3   OH219900   3.262   4.759   0.413 -0.2866  0.2358  0.7249
 6648TIP3    H119901   3.171   4.754   0.443  0.2660 -0.4951  2.4225
 6648TIP3    H219902   3.263   4.708   0.332 -1.1380 -0.8707  1.3818
 6649TIP3   OH219903   0.318   7.072   3.893  0.2790  0.0331  0.4503
 6649TIP3    H119904   0.359   6.995   3.934  0.1413  1.0475  2.6670
 6649TIP3    H219905   0.388   7.137   3.891  0.0608  0.2460 -0.2399
 6650TIP3   OH219906   3.765   0.638   6.503  0.0444  0.1407  0.1461
 6650TIP3    H119907   3.839   0.579   6.488  0.3985 -0.0332  2.2989
 6650TIP3    H219908   3.805   0.725   6.505  0.0429  0.1391  0.2729
 6651TIP3   OH219909   4.293   6.312   0.553 -0.1840  0.2973 -0.2184
 6651TIP3    H119910   4.330   6.277   0.473  1.4253  0.0430  0.6022
 6651TIP3    H219911   4.258   6.236   0.600 -1.7479  0.5275 -0.9555
 6652TIP3   OH219912   2.357   5.638   3.801  0.1740 -0.2593  0.4226
 6652TIP3    H119913   2.286   5.580   3.827  0.8275 -1.0690  0.4310
 6652TIP3    H219914   2.413   5.584   3.745  0.0687  0.7547 -0.7050
 6653TIP3   OH219915   4.614   1.114   4.828 -0.0070 -0.6380  0.1834
 6653TIP3    H119916   4.627   1.073   4.914 -1.8827 -0.1377  0.7560
 6653TIP3    H219917   4.549   1.059   4.784  0.3435 -0.4365 -0.6092
 6654TIP3   OH219918   4.743   7.667   6.691  0.3543  0.0489 -0.4722
 6654TIP3    H119919   4.743   7.578   6.656 -0.8845  0.9028 -2.9160
 6654TIP3    H219920   4.833   7.696   6.683  0.2029  0.0869 -2.9081
 6655TIP3   OH219921   7.239   7.778   3.551  0.6133 -0.2303  0.3748
 6655TIP3    H119922   7.163   7.759   3.495  1.0493 -1.8007  0.2724
 6655TIP3    H219923   7.208   7.847   3.610 -0.5793 -0.1517 -0.3076
 6656TIP3   OH219924   7.482   5.008   3.377 -0.0602 -0.1524  0.2267
 6656TIP3    H119925   7.566   4.964   3.384  0.7749  0.9035 -2.2024
 6656TIP3    H219926   7.429   4.950   3.322  0.5584  1.0802 -1.7657
 6657TIP3   OH219927   6.944   3.191   3.675  0.3611  1.0389  0.6357
 6657TIP3    H119928   6.970   3.125   3.611 -1.1201  1.3622 -0.3514
 6657TIP3    H219929   6.870   3.151   3.721  0.6802  1.2694  1.3564
 6658TIP3   OH219930   6.444   0.511   0.236  0.0523  0.4748 -0.0010
 6658TIP3    H119931   6.480   0.526   0.149  0.7544  0.5124  0.2894
 6658TIP3    H219932   6.354   0.544   0.231  0.4502  1.5267 -0.3826
 6659TIP3   OH219933   7.371   3.062   2.565 -0.0191  0.0216 -0.0181
 6659TIP3    H119934   7.341   3.012   2.641  0.4987 -0.0243  0.1611
 6659TIP3    H219935   7.305   3.045   2.498 -0.8223  0.5534  0.6006
 6660TIP3   OH219936   4.747   6.269   5.867  0.6844  0.4055 -0.2532
 6660TIP3    H119937   4.841   6.290   5.864  0.4029  1.7852 -0.1390
 6660TIP3    H219938   4.737   6.196   5.805  1.6707  0.9121 -1.0450
 6661TIP3   OH219939   0.755   4.962   2.892  0.0262 -0.3645 -0.4865
 6661TIP3    H119940   0.827   5.025   2.893  1.0075 -1.3860  1.5413
 6661TIP3    H219941   0.686   5.004   2.944  0.1367 -0.3728 -0.3308
 6662TIP3   OH219942   5.224   0.366   5.200  0.0651 -0.1786 -0.4506
 6662TIP3    H119943   5.172   0.310   5.143 -3.0028  0.1446  1.7977
 6662TIP3    H219944   5.251   0.309   5.273  0.1940  0.4021 -0.0357
 6663TIP3   OH219945   1.451   3.160   2.057  0.3047 -0.2099 -0.2194
 6663TIP3    H119946   1.438   3.114   1.974  1.1188 -2.9980  1.0632
 6663TIP3    H219947   1.513   3.229   2.036  1.8561 -1.9179 -1.6864
 6664TIP3   OH219948   3.945   0.154   6.422 -0.2242  0.3782  0.1108
 6664TIP3    H119949   3.908   0.070   6.395  0.3003 -0.0993  0.8306
 6664TIP3    H219950   4.015   0.170   6.359 -0.5747  0.4720 -0.2598
 6665TIP3   OH219951   5.631   3.232   2.442  0.2569  0.1734 -0.1364
 6665TIP3    H119952   5.562   3.287   2.480  0.5970 -0.0187  0.7950
 6665TIP3    H219953   5.650   3.168   2.510  0.2996 -0.7268 -0.9727
 6666TIP3   OH219954   4.094   7.374   1.786  0.0087 -0.6035 -0.3046
 6666TIP3    H119955   4.067   7.370   1.695  2.2297  0.9858 -1.1326
 6666TIP3    H219956   4.069   7.462   1.814  0.2549 -0.7177  0.2888
 6667TIP3   OH219957   7.817   0.447   4.580 -0.3611  0.0944 -0.4591
 6667TIP3    H119958   7.897   0.473   4.626 -0.8650  0.3054  0.2962
 6667TIP3    H219959   7.789   0.526   4.535  0.1210 -0.1072 -1.1509
 6668TIP3   OH219960   1.740   0.795   4.939 -0.0013  0.0366  0.1402
 6668TIP3    H119961   1.717   0.722   4.996  2.0554  0.1288  1.1599
 6668TIP3    H219962   1.764   0.753   4.856  0.1729 -0.3710  0.3931
 6669TIP3   OH219963   8.187   6.356   5.425  0.1637  0.3900 -0.1681
 6669TIP3    H119964   8.139   6.282   5.461 -1.7030  0.2473 -2.7148
 6669TIP3    H219965   8.232   6.321   5.348  1.8185  1.2444  0.3636
 6670TIP3   OH219966   4.256   2.092   3.521  0.2189 -0.5231  0.7987
 6670TIP3    H119967   4.246   2.158   3.590  0.5975 -0.7334  1.0630
 6670TIP3    H219968   4.334   2.043   3.547  0.9753  0.0401 -0.3151
 6671TIP3   OH219969   7.369   4.701   3.792  1.0792 -0.0247 -0.1976
 6671TIP3    H119970   7.409   4.768   3.736  1.3405 -0.3652 -0.4221
 6671TIP3    H219971   7.276   4.706   3.774  1.0326  0.6559  0.1959
 6672TIP3   OH219972   6.094   0.631   0.584 -0.2020  0.1696 -0.5545
 6672TIP3    H119973   6.174   0.579   0.592 -1.2740 -1.3373  0.9848
 6672TIP3    H219974   6.035   0.578   0.531 -2.2520 -1.6391  3.1102
 6673TIP3   OH219975   6.891   0.299   6.642  0.2247 -0.4536  0.5448
 6673TIP3    H119976   6.813   0.244   6.651 -0.5901  0.3394 -1.1341
 6673TIP3    H219977   6.955   0.244   6.598 -0.6066 -0.1076 -1.1846
 6674TIP3   OH219978   2.431   1.189   5.950 -0.0154 -0.7527  0.8909
 6674TIP3    H119979   2.439   1.132   6.027  0.1479 -0.0992  1.3595
 6674TIP3    H219980   2.520   1.218   5.931 -0.1985 -0.0200  1.1366
 6675TIP3   OH219981   3.930   6.326   0.209  0.0758 -0.1724 -0.1072
 6675TIP3    H119982   3.970   6.292   0.129  1.6305 -0.3579  0.7090
 6675TIP3    H219983   3.987   6.398   0.235  0.8982 -1.4897  1.9919
 6676TIP3   OH219984   8.264   6.977   0.143 -0.2069 -0.3318  0.1682
 6676TIP3    H119985   8.280   6.901   0.200 -0.7979  0.9492  2.1267
 6676TIP3    H219986   8.305   6.953   0.060 -1.5113 -3.3460  0.2611
 6677TIP3   OH219987   6.796   5.192   5.561 -0.3567  0.3870 -0.1382
 6677TIP3    H119988   6.741   5.257   5.518  0.5085 -0.3644 -2.4992
 6677TIP3    H219989   6.855   5.244   5.616 -0.5553  1.4896 -0.9412
 6678TIP3   OH219990   1.399   2.032   3.971 -0.1375 -0.3468  0.0357
 6678TIP3    H119991   1.433   2.025   3.882  0.7335  0.3968  0.2880
 6678TIP3    H219992   1.312   2.070   3.961  0.3097  0.5768 -0.4524
 6679TIP3   OH219993   7.680   0.778   1.267 -0.1794 -0.5012  0.7237
 6679TIP3    H119994   7.686   0.871   1.290 -2.6760 -0.1013  0.0278
 6679TIP3    H219995   7.651   0.778   1.176 -1.6914 -1.9192  1.1623
 6680TIP3   OH219996   0.864   4.136   4.393  0.4551  0.0195 -0.1383
 6680TIP3    H119997   0.921   4.203   4.431  0.6633  0.0247 -0.4596
 6680TIP3    H219998   0.877   4.059   4.448  1.8534 -0.4228 -1.0394
 6681TIP3   OH219999   4.750   2.271   0.436  0.0583  0.8154  0.1654
 6681TIP3    H120000   4.699   2.194   0.461 -0.6410  1.6585  1.5042
 6681TIP3    H220001   4.802   2.292   0.514 -0.1180  1.9552 -0.0054
 6682TIP3   OH220002   1.951   1.162   6.731  0.2105 -0.3826 -0.0789
 6682TIP3    H120003   1.946   1.250   6.769  0.0046 -1.5655  2.9253
 6682TIP3    H220004   2.018   1.117   6.783 -1.4006 -2.6962  0.1547
 6683TIP3   OH220005   8.145   5.179   3.386  0.1073  0.1685  0.5253
 6683TIP3    H120006   8.111   5.205   3.300 -1.8960 -0.5903  1.0172
 6683TIP3    H220007   8.073   5.130   3.425  1.8145 -1.4783  1.7408
 6684TIP3   OH220008   2.430   6.412   0.669  0.4377  0.0082 -0.2927
 6684TIP3    H120009   2.399   6.450   0.587  0.2669 -0.7279 -0.5708
 6684TIP3    H220010   2.489   6.478   0.705 -0.7185  1.0363 -0.2115
 6685TIP3   OH220011   8.188   3.091   0.082  0.1230  0.2003  0.3949
 6685TIP3    H120012   8.274   3.074   0.045  0.1167  2.0503 -0.6042
 6685TIP3    H220013   8.205   3.134   0.166  0.1345 -1.2148  1.1478
 6686TIP3   OH220014   4.427   4.246   6.489  0.1504  0.0351  0.5462
 6686TIP3    H120015   4.380   4.280   6.413  0.8298  1.2790  0.6690
 6686TIP3    H220016   4.391   4.295   6.563  0.2782 -0.3906  0.8930
 6687TIP3   OH220017  -0.029   1.526   0.148  0.3067  0.0702  0.1801
 6687TIP3    H120018   0.031   1.544   0.220  0.7019  1.3900 -0.4338
 6687TIP3    H220019   0.004   1.446   0.108  0.0698 -0.6933  1.4414
 6688TIP3   OH220020   1.489   1.091   3.485  0.4138 -0.4425  0.0878
 6688TIP3    H120021   1.448   1.132   3.562  0.9855 -0.1723  0.2531
 6688TIP3    H220022   1.566   1.046   3.521 -1.0379 -3.0831  0.1987
 6689TIP3   OH220023   3.956   4.135   3.391  0.1704 -0.2837 -0.1408
 6689TIP3    H120024   3.971   4.166   3.301 -0.2567 -0.7916 -0.3913
 6689TIP3    H220025   3.867   4.164   3.412 -1.1361 -3.1611 -1.1968
 6690TIP3   OH220026   4.745   6.706   6.749  0.4973 -0.2507 -0.6866
 6690TIP3    H120027   4.743   6.738   6.659  0.0671 -1.1194 -1.0008
 6690TIP3    H220028   4.697   6.624   6.746 -2.1123  1.0996  0.9086
 6691TIP3   OH220029   0.489   7.277   3.743 -0.3628 -0.2552 -0.2590
 6691TIP3    H120030   0.484   7.329   3.662 -0.9700  0.4787  0.2378
 6691TIP3    H220031   0.527   7.337   3.807 -0.5752 -0.6010  0.1920
 6692TIP3   OH220032   6.533   2.583   3.884  0.0722  0.1579  0.0635
 6692TIP3    H120033   6.516   2.537   3.802 -1.4144  0.0128  0.4286
 6692TIP3    H220034   6.571   2.667   3.857  0.4414 -0.2452 -0.7176
 6693TIP3   OH220035   3.955   0.340   2.272  0.0533  0.1100 -0.0481
 6693TIP3    H120036   3.913   0.340   2.186 -1.3685  1.8229  0.5824
 6693TIP3    H220037   3.888   0.372   2.332  0.8030 -1.6171  1.8467
 6694TIP3   OH220038   2.973   3.794   3.125  0.1968 -0.7201 -0.0692
 6694TIP3    H120039   2.920   3.794   3.045 -0.9123 -0.2237  0.6445
 6694TIP3    H220040   3.015   3.880   3.127  0.0221 -0.6376  0.0188
 6695TIP3   OH220041   6.804   6.660   2.117 -0.3555 -0.6950  0.2323
 6695TIP3    H120042   6.883   6.672   2.169  0.0781 -3.6022  0.4424
 6695TIP3    H220043   6.743   6.616   2.176 -0.6602 -2.0660 -1.0379
 6696TIP3   OH220044   2.869   7.735   5.925  0.3756  0.0258 -0.3182
 6696TIP3    H120045   2.903   7.786   5.999 -1.1406  0.8742 -0.1637
 6696TIP3    H220046   2.785   7.702   5.956  0.2557 -0.5802 -1.2686
 6697TIP3   OH220047   5.230   7.733   5.968 -0.2145  0.5277 -0.0775
 6697TIP3    H120048   5.267   7.721   6.056 -0.7187  0.5297  0.1367
 6697TIP3    H220049   5.298   7.782   5.921  0.3086  0.0150  0.1308
 6698TIP3   OH220050   0.450   4.511   4.649 -0.2113 -0.4905  0.7651
 6698TIP3    H120051   0.372   4.476   4.690 -2.1526  3.5693  1.0292
 6698TIP3    H220052   0.499   4.552   4.721  0.3334  0.0656  0.0909
 6699TIP3   OH220053   1.958   0.455   4.736  0.3892  0.0550 -0.4661
 6699TIP3    H120054   1.935   0.546   4.718 -0.0259 -0.0154 -0.3248
 6699TIP3    H220055   2.043   0.459   4.779  0.1454  0.4213  0.0014
 6700TIP3   OH220056   8.073   3.429   1.052 -0.1673 -0.0260  0.9934
 6700TIP3    H120057   8.088   3.336   1.067 -1.2214 -1.0164 -2.8795
 6700TIP3    H220058   7.978   3.437   1.043  0.0204  0.9695 -0.6197
 6701TIP3   OH220059   0.115   1.298   0.348  0.1130  0.2685  0.2772
 6701TIP3    H120060   0.110   1.203   0.340 -0.9241  0.2388  1.0375
 6701TIP3    H220061   0.033   1.323   0.392  0.3418  1.5158  0.0359
 6702TIP3   OH220062   3.157   5.720   5.814  0.2856  0.0271 -0.4512
 6702TIP3    H120063   3.223   5.755   5.874 -0.0382 -0.2055  0.0485
 6702TIP3    H220064   3.173   5.765   5.731 -0.1984  1.4482  0.2060
 6703TIP3   OH220065   2.009   7.660   0.247 -0.2017 -0.2762  0.2084
 6703TIP3    H120066   1.949   7.609   0.302  0.9001 -1.8872 -0.0060
 6703TIP3    H220067   2.073   7.595   0.215  0.7864  1.1153 -0.7460
 6704TIP3   OH220068   6.758   3.279   3.924 -0.4942 -0.0014  0.2442
 6704TIP3    H120069   6.739   3.205   3.866  1.9172 -0.7624  0.3335
 6704TIP3    H220070   6.682   3.336   3.914 -1.2497 -1.2337 -1.8310
 6705TIP3   OH220071   5.826   5.890   6.719 -0.4558 -0.1154 -0.8674
 6705TIP3    H120072   5.824   5.849   6.806  0.5737  0.2415 -0.6569
 6705TIP3    H220073   5.738   5.876   6.684 -0.9384 -0.1398  0.2932
 6706TIP3   OH220074   2.849   3.387   5.857 -0.2284  0.0242 -0.0060
 6706TIP3    H120075   2.758   3.368   5.835 -0.0845  0.2251 -0.8190
 6706TIP3    H220076   2.845   3.462   5.917 -0.7084 -1.3785  1.8167
 6707TIP3   OH220077   1.303   2.614   4.148  0.3988  0.2009 -0.0031
 6707TIP3    H120078   1.227   2.580   4.195  0.7106  1.7799  1.7573
 6707TIP3    H220079   1.353   2.537   4.123 -1.5583 -0.8610 -0.8714
 6708TIP3   OH220080   5.437   0.553   3.665 -0.1228 -0.0258  0.3736
 6708TIP3    H120081   5.520   0.595   3.643  1.2360 -2.0112  1.4185
 6708TIP3    H220082   5.391   0.617   3.720  0.9065  0.9111  0.1662
 6709TIP3   OH220083   5.906   6.728   3.858  0.0234 -0.3529  0.8233
 6709TIP3    H120084   5.949   6.792   3.914  1.8426  1.1392 -2.0378
 6709TIP3    H220085   5.818   6.764   3.843  0.2902  0.3778  0.9643
 6710TIP3   OH220086   1.072   1.351   5.564  0.1357 -0.4882 -0.2693
 6710TIP3    H120087   1.010   1.283   5.538  1.6670 -1.2676 -2.1210
 6710TIP3    H220088   1.114   1.377   5.482  4.1574 -1.8993  1.1354
 6711TIP3   OH220089   1.300   0.107   5.570  0.2215 -0.1239 -0.5869
 6711TIP3    H120090   1.343   0.022   5.580  0.2063  0.0403  1.2479
 6711TIP3    H220091   1.207   0.086   5.563 -0.1210 -0.2391  2.6992
 6712TIP3   OH220092   3.418   3.655   4.554  0.6151  0.1714  0.0247
 6712TIP3    H120093   3.436   3.746   4.578  1.3794  0.2378 -0.7844
 6712TIP3    H220094   3.500   3.609   4.571  1.0688  0.1396 -2.0239
 6713TIP3   OH220095   0.357   0.760   3.945  0.1874 -0.6534 -0.2459
 6713TIP3    H120096   0.275   0.754   3.897 -0.4336  0.6137  0.5944
 6713TIP3    H220097   0.424   0.775   3.878 -0.4941 -0.1274 -0.8192
 6714TIP3   OH220098   4.284   4.598   2.761 -0.2615 -0.0997 -0.3584
 6714TIP3    H120099   4.224   4.591   2.835 -0.4549  0.1631 -0.4855
 6714TIP3    H220100   4.371   4.605   2.800 -0.1098 -2.1828 -0.1941
 6715TIP3   OH220101   2.250   6.015   6.034 -0.4497 -0.1469  0.1624
 6715TIP3    H120102   2.163   6.022   5.994 -0.5304 -0.3481  0.3045
 6715TIP3    H220103   2.244   6.070   6.112 -0.3267  0.1559 -0.0371
 6716TIP3   OH220104   0.576   3.666   2.632  0.6918  0.3676  0.1853
 6716TIP3    H120105   0.619   3.748   2.608  1.3609 -0.4809 -1.7836
 6716TIP3    H220106   0.488   3.673   2.594 -0.0948  1.0838  2.0448
 6717TIP3   OH220107   3.763   5.816   2.993  0.6072 -0.0039  0.1950
 6717TIP3    H120108   3.743   5.723   3.005  2.8720 -0.9325 -2.1101
 6717TIP3    H220109   3.858   5.818   2.985  0.5573  2.4685 -0.3508
 6718TIP3   OH220110   2.518   0.291   3.187  0.1693 -0.2131 -0.0146
 6718TIP3    H120111   2.580   0.244   3.132  0.4853 -0.3759  0.4725
 6718TIP3    H220112   2.440   0.235   3.188  0.9397 -1.3194  1.4823
 6719TIP3   OH220113   0.723   7.110   3.494 -0.2367 -0.3060  0.4672
 6719TIP3    H120114   0.750   7.193   3.455 -0.7960  0.6671  2.0535
 6719TIP3    H220115   0.636   7.093   3.457 -0.7126  0.5454  1.1506
 6720TIP3   OH220116   8.011   7.777   3.019  0.7214  0.3707 -0.5828
 6720TIP3    H120117   8.099   7.740   3.020 -0.6740 -3.3939 -1.0677
 6720TIP3    H220118   7.994   7.795   2.926  0.5769 -0.0643 -0.6438
 6721TIP3   OH220119   0.865   0.005   0.127  0.3409 -0.4576 -0.5824
 6721TIP3    H120120   0.800   0.044   0.067 -1.1302  0.2778  1.3763
 6721TIP3    H220121   0.924   0.077   0.149  1.3778 -0.9240 -1.7068
 6722TIP3   OH220122   1.951   5.632   6.737  0.0550  0.3084  0.0289
 6722TIP3    H120123   2.008   5.709   6.746 -0.3545  0.5912  0.2404
 6722TIP3    H220124   1.967   5.600   6.649  0.3780  0.5175  0.0093
 6723TIP3   OH220125   7.015   0.195   4.767  0.3195  0.2164 -0.2222
 6723TIP3    H120126   7.085   0.221   4.827 -0.9995 -1.2757  2.0759
 6723TIP3    H220127   6.991   0.277   4.722  0.5091  1.6955  2.1963
 6724TIP3   OH220128   5.127   7.561   2.132  0.5383 -0.2194  0.6543
 6724TIP3    H120129   5.140   7.655   2.123  0.2451 -0.2262  0.1161
 6724TIP3    H220130   5.047   7.552   2.183  0.3533 -0.1715  0.3771
 6725TIP3   OH220131   7.971   1.250   3.828 -0.4114 -0.1136 -0.0369
 6725TIP3    H120132   7.982   1.167   3.873  2.5316 -0.5313 -1.3059
 6725TIP3    H220133   7.902   1.233   3.763 -1.0711 -0.9978  0.8627
 6726TIP3   OH220134   4.744   7.317   3.207  0.1339 -0.2209  0.0124
 6726TIP3    H120135   4.653   7.344   3.199 -0.3412 -0.9617  2.2048
 6726TIP3    H220136   4.790   7.396   3.237 -0.0713 -0.2310  0.3548
 6727TIP3   OH220137   0.543   5.845   5.599  0.1873  0.2500 -0.3841
 6727TIP3    H120138   0.635   5.858   5.577 -0.0842  2.8232 -0.3207
 6727TIP3    H220139   0.515   5.771   5.544  2.3624 -0.9285 -0.0071
 6728TIP3   OH220140   6.025   6.117   1.597 -0.2930 -0.3415  0.4912
 6728TIP3    H120141   6.081   6.044   1.570  0.6648 -0.1562  1.8553
 6728TIP3    H220142   6.083   6.174   1.648 -1.3994  0.5781  0.7647
 6729TIP3   OH220143   6.176   0.893   2.262  0.1568 -0.1122 -0.3803
 6729TIP3    H120144   6.172   0.980   2.222  0.9685  0.1701  0.1507
 6729TIP3    H220145   6.116   0.898   2.336 -0.4103 -0.2649 -0.8130
 6730TIP3   OH220146   7.484   5.697   5.730 -0.3256 -0.5585 -0.0111
 6730TIP3    H120147   7.523   5.708   5.644 -1.3808 -0.0949 -0.4447
 6730TIP3    H220148   7.398   5.738   5.723  0.2941  1.2192  1.8247
 6731TIP3   OH220149   2.678   1.916   1.786 -0.5133 -0.0481 -0.1313
 6731TIP3    H120150   2.610   1.981   1.800 -0.6517 -0.2641  0.2352
 6731TIP3    H220151   2.654   1.844   1.845  1.5510  1.0284  2.2152
 6732TIP3   OH220152   4.402   1.967   2.566 -0.1788 -0.2331  0.3894
 6732TIP3    H120153   4.353   1.890   2.537 -0.9346 -0.2885  1.7056
 6732TIP3    H220154   4.336   2.037   2.570  0.4052  0.3743 -0.3464
 6733TIP3   OH220155   7.046   1.342   4.061 -0.3219 -0.0945  0.2677
 6733TIP3    H120156   6.957   1.353   4.028 -0.6411 -0.4889  0.9834
 6733TIP3    H220157   7.042   1.265   4.117  0.6012 -0.4568 -0.1438
 6734TIP3   OH220158   3.715   5.414   2.327 -0.0507  0.1396 -0.0325
 6734TIP3    H120159   3.683   5.464   2.402 -1.2070 -0.4955 -0.0848
 6734TIP3    H220160   3.725   5.479   2.257 -0.8072  0.4304  0.1209
 6735TIP3   OH220161   3.811   4.610   5.306 -0.2880  0.1280  0.1688
 6735TIP3    H120162   3.780   4.524   5.279 -1.5917  0.0568  1.7358
 6735TIP3    H220163   3.860   4.594   5.386  0.2015  0.7485  0.0031
 6736TIP3   OH220164   5.643   3.842   6.552  0.2019  0.0808  0.1063
 6736TIP3    H120165   5.724   3.800   6.523  1.6509  0.7468  2.8822
 6736TIP3    H220166   5.595   3.773   6.598  0.8176  0.4843  1.3923
 6737TIP3   OH220167   2.837   3.236   4.270 -0.4900  0.0693 -0.3550
 6737TIP3    H120168   2.855   3.255   4.177 -1.7345 -1.7247 -0.9952
 6737TIP3    H220169   2.900   3.168   4.293  0.0247  0.7247  0.2491
 6738TIP3   OH220170   7.801   0.787   1.890  0.2143  0.4632 -0.3360
 6738TIP3    H120171   7.715   0.828   1.898 -0.3458 -0.7456  0.0476
 6738TIP3    H220172   7.858   0.856   1.855 -1.1342  0.9923 -1.5727
 6739TIP3   OH220173   0.619   4.751   4.151 -0.1789  0.1765  0.0724
 6739TIP3    H120174   0.530   4.742   4.117 -0.4725 -0.1033  0.9034
 6739TIP3    H220175   0.670   4.689   4.099 -0.5400  0.0678 -0.1568
 6740TIP3   OH220176   4.025   0.001   5.969 -0.5634 -0.2089  0.3848
 6740TIP3    H120177   4.034   0.094   5.946 -0.5910 -0.3643 -0.2504
 6740TIP3    H220178   4.036  -0.046   5.887 -1.0392 -0.7499  0.6253
 6741TIP3   OH220179   7.169   6.629   6.316 -0.0935  0.4237  0.6600
 6741TIP3    H120180   7.212   6.694   6.260 -0.6159  1.1106  1.0361
 6741TIP3    H220181   7.116   6.681   6.377 -0.3643 -0.3505  1.1024
 6742TIP3   OH220182   2.236   1.944   2.379  0.0379 -0.2815  0.9222
 6742TIP3    H120183   2.274   1.894   2.451 -1.3369 -0.4566  1.5645
 6742TIP3    H220184   2.243   1.885   2.304 -0.0873 -0.8124  1.3130
 6743TIP3   OH220185   2.339   2.281   3.847 -0.1935  0.2451  0.4988
 6743TIP3    H120186   2.332   2.267   3.941  1.2370 -1.2382  0.4162
 6743TIP3    H220187   2.421   2.328   3.835 -0.9586  1.5420  0.0524
 6744TIP3   OH220188   2.881   7.210   5.606 -0.5326 -0.4257 -0.0941
 6744TIP3    H120189   2.795   7.200   5.566  0.1074 -1.6974 -1.2041
 6744TIP3    H220190   2.943   7.184   5.538  0.8059  1.4158  0.3448
 6745TIP3   OH220191   4.989   1.917   5.179 -0.5054  0.3392 -0.2272
 6745TIP3    H120192   4.930   1.849   5.146 -1.2506 -0.1279  1.8522
 6745TIP3    H220193   5.055   1.928   5.111 -0.9479 -1.7523 -1.0668
 6746TIP3   OH220194   3.857   7.390   3.239  0.2251  0.5893  0.1903
 6746TIP3    H120195   3.793   7.371   3.308 -0.2350 -1.3972 -0.6995
 6746TIP3    H220196   3.942   7.386   3.283 -0.0194 -1.2723  0.5578
 6747TIP3   OH220197   1.190   3.735   3.277 -0.0867  0.4084 -0.2714
 6747TIP3    H120198   1.253   3.664   3.267 -0.4865  0.0728 -0.4105
 6747TIP3    H220199   1.211   3.775   3.361 -0.8802 -0.8755  0.5557
 6748TIP3   OH220200   8.069   5.793   4.776  0.4830  0.0381 -0.3649
 6748TIP3    H120201   8.115   5.772   4.695  2.2789  2.3530 -0.0503
 6748TIP3    H220202   8.138   5.821   4.836 -1.0104  0.2663  1.3279
 6749TIP3   OH220203   2.212   3.910   6.306 -0.1062 -0.5015  0.1975
 6749TIP3    H120204   2.138   3.963   6.335  0.2844 -0.8226  1.8969
 6749TIP3    H220205   2.173   3.832   6.267 -0.6677  0.3216 -0.9231
 6750TIP3   OH220206   2.167   1.036   3.671 -0.2329  0.1050  0.5112
 6750TIP3    H120207   2.091   1.073   3.717 -0.9452 -0.1591 -0.4165
 6750TIP3    H220208   2.175   0.947   3.706 -1.0319 -0.2401 -0.1671
 6751TIP3   OH220209   5.037   1.102   6.445  0.0836  0.1649 -0.3662
 6751TIP3    H120210   5.016   1.194   6.426  2.1551  0.7016 -0.3079
 6751TIP3    H220211   5.012   1.090   6.536  2.4322  1.5840  0.5498
 6752TIP3   OH220212   6.746   2.975   2.732 -0.5506  0.3767 -0.1323
 6752TIP3    H120213   6.818   3.037   2.725 -0.0922  0.6677  4.1387
 6752TIP3    H220214   6.789   2.892   2.754 -1.3910  0.3353  1.5124
 6753TIP3   OH220215   4.533   2.112   4.098  1.1733  0.3423 -0.1339
 6753TIP3    H120216   4.532   2.031   4.047  0.2876  1.9518 -2.9475
 6753TIP3    H220217   4.445   2.148   4.087  1.8978  2.2604 -0.0194
 6754TIP3   OH220218   6.964   6.035   1.307 -0.0514 -0.2773  0.0123
 6754TIP3    H120219   7.026   6.002   1.241 -1.6403 -1.3156 -1.0335
 6754TIP3    H220220   6.990   5.990   1.387  0.2337 -1.1008 -0.5221
 6755TIP3   OH220221   7.449   4.363   2.924  0.4092 -0.1652  0.1908
 6755TIP3    H120222   7.525   4.350   2.868  0.1818  1.9667 -0.7006
 6755TIP3    H220223   7.396   4.284   2.911  0.8034 -0.1381 -1.9501
 6756TIP3   OH220224   3.371   6.050   4.260 -0.8065 -0.1140 -0.3820
 6756TIP3    H120225   3.418   6.133   4.268 -1.9905  0.7274 -1.6110
 6756TIP3    H220226   3.365   6.017   4.350 -0.7812  1.4090  0.2029
 6757TIP3   OH220227   3.957   2.776   3.833 -0.2194 -0.1611 -0.6528
 6757TIP3    H120228   3.917   2.846   3.781  0.3061 -1.4561 -2.9190
 6757TIP3    H220229   4.039   2.813   3.864 -1.4595  1.3220  1.0526
 6758TIP3   OH220230   7.029   5.823   4.857 -0.1047  0.3383 -0.3479
 6758TIP3    H120231   6.937   5.846   4.873 -0.4468 -1.1690  0.0262
 6758TIP3    H220232   7.075   5.854   4.935 -0.2077  1.4275 -0.6933
 6759TIP3   OH220233   1.230   0.732   5.170 -0.4414 -0.0559  0.2771
 6759TIP3    H120234   1.169   0.791   5.125  0.8578  2.6450  1.7633
 6759TIP3    H220235   1.189   0.717   5.256 -0.0622 -0.0572  0.4613
 6760TIP3   OH220236   0.453   6.556   6.009  0.0794 -0.8820  0.1448
 6760TIP3    H120237   0.399   6.610   6.067  2.5181  1.5391  0.3760
 6760TIP3    H220238   0.391   6.499   5.964 -2.8050  2.2596 -0.2601
 6761TIP3   OH220239   1.507   0.021   0.679  0.0519 -0.8684  0.0470
 6761TIP3    H120240   1.484   0.085   0.746 -0.2035 -0.3997 -0.4838
 6761TIP3    H220241   1.542  -0.053   0.728 -0.7026 -0.7799  0.7406
 6762TIP3   OH220242   0.020   0.259   6.322 -0.2960 -0.1424 -0.7144
 6762TIP3    H120243  -0.013   0.320   6.389  0.6645 -0.6088  0.2141
 6762TIP3    H220244   0.113   0.280   6.315 -0.0161 -1.2896 -0.6063
 6763TIP3   OH220245   7.880   4.980   2.629 -0.3824  0.3472  0.1706
 6763TIP3    H120246   7.828   4.918   2.680 -0.1304 -0.7002 -0.8151
 6763TIP3    H220247   7.821   5.013   2.562  0.0325 -0.4000 -0.5821
 6764TIP3   OH220248   7.792   6.099   0.081 -0.2970  0.1178  0.0416
 6764TIP3    H120249   7.883   6.089   0.054  0.1148  0.7214  1.1100
 6764TIP3    H220250   7.743   6.116   0.000  0.5488 -0.1618 -0.5307
 6765TIP3   OH220251   1.795   2.314   6.575  0.3930  0.5129  0.9547
 6765TIP3    H120252   1.825   2.229   6.608  1.3018  0.5944  0.3584
 6765TIP3    H220253   1.858   2.337   6.507 -1.1825  0.5469 -0.5678
 6766TIP3   OH220254   7.319   6.492   2.860  0.0560 -0.2383  0.0726
 6766TIP3    H120255   7.361   6.434   2.797  0.6300  0.4540 -0.2033
 6766TIP3    H220256   7.336   6.451   2.945  0.7812 -0.2880 -0.0871
 6767TIP3   OH220257   2.784   7.538   4.116  0.0717 -0.2425 -0.1720
 6767TIP3    H120258   2.806   7.603   4.182 -1.4434 -0.4643  0.5891
 6767TIP3    H220259   2.692   7.556   4.094  0.1758 -0.9655 -1.3039
 6768TIP3   OH220260   1.754   6.025   1.028  0.1399 -0.2926  0.3051
 6768TIP3    H120261   1.682   5.963   1.021 -0.1834  0.0913  0.1806
 6768TIP3    H220262   1.726   6.086   1.096  1.2286 -1.2991  1.7166
 6769TIP3   OH220263   5.899   2.768   1.105  0.2670 -0.0240  0.1067
 6769TIP3    H120264   5.950   2.784   1.026  2.0227  2.0529  1.5498
 6769TIP3    H220265   5.833   2.703   1.078  2.6814 -1.7256 -2.2357
 6770TIP3   OH220266   5.622   7.149   5.894  0.0387 -0.1392 -0.2278
 6770TIP3    H120267   5.583   7.216   5.950 -0.7726 -0.1741 -0.7385
 6770TIP3    H220268   5.581   7.163   5.808  3.1059  1.6129 -1.6009
 6771TIP3   OH220269   2.130   6.474   4.331 -0.4639 -0.6863  0.1773
 6771TIP3    H120270   2.183   6.510   4.402  1.1214 -2.3446 -0.0742
 6771TIP3    H220271   2.112   6.548   4.274 -1.1990  0.5504  1.9382
 6772TIP3   OH220272   4.749   0.461   0.538  0.0320  0.6350 -0.6198
 6772TIP3    H120273   4.683   0.529   0.523  1.1389  1.7613 -0.6287
 6772TIP3    H220274   4.728   0.392   0.476 -1.1059  0.9832 -0.6487
 6773TIP3   OH220275   1.177   7.410   0.822  0.4997 -0.0783  0.3092
 6773TIP3    H120276   1.085   7.396   0.797  0.6555  0.6558 -0.7297
 6773TIP3    H220277   1.213   7.464   0.751  1.7690 -0.4646  0.6414
 6774TIP3   OH220278   2.462   1.854   0.293  0.2296 -0.5938  0.1394
 6774TIP3    H120279   2.369   1.864   0.275  0.1513  1.1672  1.3320
 6774TIP3    H220280   2.467   1.774   0.346 -0.9504  0.6484  2.2359
 6775TIP3   OH220281   3.628   1.483   2.251 -0.3724  0.3041  0.3024
 6775TIP3    H120282   3.559   1.433   2.295 -2.6494  2.1112 -0.9797
 6775TIP3    H220283   3.632   1.566   2.298 -0.5997  1.0286 -0.8970
 6776TIP3   OH220284   7.533   6.635   1.777 -0.1501 -0.2918 -0.2484
 6776TIP3    H120285   7.539   6.628   1.872 -1.5823  0.8157 -0.0468
 6776TIP3    H220286   7.614   6.677   1.750 -0.7449  1.5808  0.7609
 6777TIP3   OH220287   6.807   7.273   1.957 -0.1925  0.4054 -0.6107
 6777TIP3    H120288   6.775   7.363   1.959 -1.6648 -0.1007 -0.3182
 6777TIP3    H220289   6.822   7.252   2.049  0.2422  0.3710 -0.6869
 6778TIP3   OH220290   5.227   2.391   3.449  0.1684  0.2946  0.3087
 6778TIP3    H120291   5.161   2.378   3.380  1.8253  1.9077 -1.6941
 6778TIP3    H220292   5.264   2.304   3.463  0.2505  0.0299 -1.3534
 6779TIP3   OH220293   1.878   5.478   6.243 -0.0069  0.3103 -0.2549
 6779TIP3    H120294   1.863   5.550   6.182  2.1369  0.5376 -0.6132
 6779TIP3    H220295   1.929   5.414   6.192  0.3977 -0.2379  0.8052
 6780TIP3   OH220296   0.625   7.181   2.544 -0.2374 -0.2058 -0.5317
 6780TIP3    H120297   0.577   7.129   2.480 -1.1885  0.2890 -0.2457
 6780TIP3    H220298   0.715   7.149   2.539 -0.4488 -0.6710 -1.5870
 6781TIP3   OH220299   1.271   6.371   0.923  0.1414  0.3784  0.3036
 6781TIP3    H120300   1.319   6.449   0.951 -0.2627  0.3971  0.9794
 6781TIP3    H220301   1.313   6.299   0.970  0.5304  0.1792 -0.3382
 6782TIP3   OH220302   7.419   1.634   0.568  0.4359  0.4786 -0.7606
 6782TIP3    H120303   7.361   1.569   0.528  0.6300  0.9657 -1.8686
 6782TIP3    H220304   7.501   1.625   0.519  1.5875 -0.6974  1.2406
 6783TIP3   OH220305   6.726   2.137   5.755  0.1416 -0.2493  0.1056
 6783TIP3    H120306   6.682   2.105   5.834  1.8951 -0.5828  1.0107
 6783TIP3    H220307   6.668   2.204   5.720 -0.1508  0.7676  2.3689
 6784TIP3   OH220308   2.930   6.934   3.013 -0.0365  0.5203  0.6649
 6784TIP3    H120309   2.848   6.901   3.050  0.5120 -1.0895  0.5197
 6784TIP3    H220310   2.998   6.900   3.071  0.7501 -1.0395 -1.0684
 6785TIP3   OH220311   3.523   3.907   1.135 -0.2937  0.2466 -0.4027
 6785TIP3    H120312   3.508   3.816   1.110  0.6280 -0.0138 -0.0575
 6785TIP3    H220313   3.462   3.923   1.207  0.0586 -0.3358  0.0322
 6786TIP3   OH220314   4.215   2.017   6.742  0.5025 -0.2014 -0.3928
 6786TIP3    H120315   4.194   2.110   6.733  2.8474  0.5132  0.5740
 6786TIP3    H220316   4.188   1.978   6.658 -0.0045  1.4586 -1.0392
 6787TIP3   OH220317   5.333   2.518   6.072  0.1302 -0.2729 -0.0270
 6787TIP3    H120318   5.358   2.429   6.047  0.8563 -0.1805  0.3435
 6787TIP3    H220319   5.312   2.561   5.990 -1.7149 -1.2221 -0.0942
 6788TIP3   OH220320   6.174   6.166   6.033  0.1017  0.2016  0.1088
 6788TIP3    H120321   6.180   6.073   6.054 -2.0667 -0.4260 -1.6982
 6788TIP3    H220322   6.163   6.169   5.938  0.3480  2.3449  0.0809
 6789TIP3   OH220323   5.514   2.339   2.808 -0.3394 -0.3754 -0.2086
 6789TIP3    H120324   5.603   2.364   2.834  0.1110  0.4333 -2.3079
 6789TIP3    H220325   5.470   2.319   2.890  1.3385  0.6818  1.0191
 6790TIP3   OH220326   7.605   4.353   1.072 -0.2027 -0.3292  0.5635
 6790TIP3    H120327   7.650   4.325   0.993 -0.1855 -2.3457  1.2237
 6790TIP3    H220328   7.512   4.351   1.050 -0.1638 -0.1255  0.3791
 6791TIP3   OH220329   6.823   7.488   4.368 -0.2163 -0.0123  0.4260
 6791TIP3    H120330   6.776   7.570   4.351 -0.4149 -0.1494  0.3133
 6791TIP3    H220331   6.788   7.456   4.451 -0.2912 -0.0938  0.3621
 6792TIP3   OH220332   3.121   6.288   6.033 -0.1918  0.1956  0.2975
 6792TIP3    H120333   3.194   6.301   5.972  1.6670  0.4728  2.4411
 6792TIP3    H220334   3.119   6.193   6.048 -1.3029  0.0075 -0.8968
 6793TIP3   OH220335   7.285   7.521   3.062  0.4092  0.0701  0.1684
 6793TIP3    H120336   7.240   7.468   3.128 -0.7459  0.6420 -0.1310
 6793TIP3    H220337   7.375   7.529   3.094  0.6621 -2.1685  0.1654
 6794TIP3   OH220338   5.757   3.020   1.108  0.1834  0.4732  0.2135
 6794TIP3    H120339   5.794   2.937   1.137  1.4916  0.7770 -0.5243
 6794TIP3    H220340   5.814   3.086   1.146  1.2683  0.9125 -2.0438
 6795TIP3   OH220341   0.602   3.300   2.038 -0.0876 -0.4993  0.3269
 6795TIP3    H120342   0.668   3.289   2.106  1.3767  0.7403 -0.7985
 6795TIP3    H220343   0.621   3.231   1.974  0.7288  0.3612 -0.4064
 6796TIP3   OH220344   2.847   0.874   0.120 -0.8744 -0.2724 -0.0456
 6796TIP3    H120345   2.884   0.834   0.041 -1.3070  0.0119 -0.3941
 6796TIP3    H220346   2.754   0.849   0.118 -1.0085  0.2085  0.0706
 6797TIP3   OH220347   0.149   3.881   1.480 -0.0690  0.4384 -0.1197
 6797TIP3    H120348   0.223   3.861   1.537 -0.9119  0.3942  0.9780
 6797TIP3    H220349   0.095   3.942   1.530 -0.6941  0.6028 -0.9734
 6798TIP3   OH220350   3.884   1.837   4.853  0.3562 -0.1046 -0.2909
 6798TIP3    H120351   3.877   1.807   4.763 -0.1554  0.2467 -0.3712
 6798TIP3    H220352   3.892   1.932   4.846  1.2796 -0.1536 -0.0073
 6799TIP3   OH220353   7.667   3.344   1.414 -0.2850  0.2684 -0.0499
 6799TIP3    H120354   7.757   3.369   1.438  0.2349  0.8752 -2.3149
 6799TIP3    H220355   7.633   3.299   1.491  2.4581 -1.2597  0.4046
 6800TIP3   OH220356   0.414   3.604   4.300 -0.0002 -0.8400  0.1402
 6800TIP3    H120357   0.443   3.671   4.239  0.5334 -1.6813 -0.5482
 6800TIP3    H220358   0.471   3.614   4.376 -0.2795 -0.1725  0.2659
 6801TIP3   OH220359   4.278   2.277   0.832 -0.7369 -0.0135 -0.4385
 6801TIP3    H120360   4.340   2.322   0.773 -0.3425  0.9141  0.6403
 6801TIP3    H220361   4.317   2.288   0.919 -0.4302 -2.8146 -0.1473
 6802TIP3   OH220362   2.814   1.069   6.132 -0.1885  0.5473  0.2960
 6802TIP3    H120363   2.845   1.082   6.221  0.4271  1.8940 -0.0921
 6802TIP3    H220364   2.871   0.999   6.097 -2.5392 -2.3909  1.9204
 6803TIP3   OH220365   1.742   5.781   0.069 -0.6240  0.4423 -0.0434
 6803TIP3    H120366   1.757   5.706   0.127 -0.1367  1.5267  1.2948
 6803TIP3    H220367   1.759   5.748  -0.019  1.3723 -0.5764  0.6722
 6804TIP3   OH220368   0.001   2.864   0.352 -0.0695 -0.4231  0.0328
 6804TIP3    H120369   0.046   2.788   0.389  2.3222  0.2809 -1.1901
 6804TIP3    H220370   0.011   2.853   0.257 -0.3645  1.0121 -0.1820
 6805TIP3   OH220371   2.453   6.261   1.283 -1.3708  0.0780 -0.1087
 6805TIP3    H120372   2.456   6.355   1.305 -0.4962 -0.2404  1.2603
 6805TIP3    H220373   2.485   6.256   1.193 -0.3734  0.9944  0.1797
 6806TIP3   OH220374   2.912   6.305   0.298 -0.4739  0.3209 -0.1744
 6806TIP3    H120375   2.929   6.308   0.392 -2.1270  1.0685  0.1288
 6806TIP3    H220376   2.890   6.214   0.280 -1.0628  0.3575  0.3389
 6807TIP3   OH220377   1.219   5.651   6.617 -0.3573  0.6637 -0.2618
 6807TIP3    H120378   1.200   5.561   6.641  2.8008  0.1761  0.8470
 6807TIP3    H220379   1.224   5.650   6.521 -2.6077  0.2545 -0.4224
 6808TIP3   OH220380   0.151   7.232   4.414 -0.6161 -0.0565  0.2865
 6808TIP3    H120381   0.238   7.236   4.454 -0.5825 -1.3550  0.3757
 6808TIP3    H220382   0.094   7.200   4.483 -0.5683 -2.2603 -0.6114
 6809TIP3   OH220383   7.245   0.404   4.631 -0.0691  0.0911 -0.0958
 6809TIP3    H120384   7.171   0.436   4.683  0.7097  2.3145 -0.2194
 6809TIP3    H220385   7.238   0.309   4.633 -0.7269  0.1156  3.1110
 6810TIP3   OH220386   5.124   2.210   2.806  0.0033 -0.0982  0.1456
 6810TIP3    H120387   5.093   2.282   2.751 -0.9624 -0.5124  0.1254
 6810TIP3    H220388   5.139   2.250   2.892  0.2876  0.2913 -0.0830
 6811TIP3   OH220389   2.143   0.755   3.797 -0.4343 -0.0608 -0.0379
 6811TIP3    H120390   2.230   0.717   3.809 -0.8142 -0.6925  0.8142
 6811TIP3    H220391   2.090   0.685   3.760 -1.7135 -1.2468  3.5493
 6812TIP3   OH220392   5.638   3.621   3.083  0.1429  0.2198  0.0592
 6812TIP3    H120393   5.606   3.597   3.170 -0.3300 -1.3812 -0.5131
 6812TIP3    H220394   5.604   3.552   3.026  1.1621  0.7683 -1.2500
 6813TIP3   OH220395   4.945   1.532   3.174  0.1219  0.1942 -0.0617
 6813TIP3    H120396   4.986   1.515   3.259 -1.7292 -0.6552  0.7252
 6813TIP3    H220397   4.935   1.445   3.135 -0.3378  0.4430 -0.5013
 6814TIP3   OH220398   7.080   0.720   0.734  0.0908  0.0814 -0.1335
 6814TIP3    H120399   7.061   0.684   0.820  0.6344 -0.7620 -0.3573
 6814TIP3    H220400   7.136   0.655   0.692 -2.0327 -0.6233 -2.0029
 6815TIP3   OH220401   3.297   0.486   6.249 -0.4567  0.5464  0.6346
 6815TIP3    H120402   3.242   0.556   6.213  0.1696  0.3022 -0.8677
 6815TIP3    H220403   3.368   0.533   6.293 -0.6103  0.8663  0.5474
 6816TIP3   OH220404   3.802   4.834   2.266 -0.3563  0.3183  0.0508
 6816TIP3    H120405   3.832   4.910   2.317 -0.7724  0.7572 -0.3443
 6816TIP3    H220406   3.723   4.865   2.221 -1.1131 -0.6505  0.6571
 6817TIP3   OH220407   4.131   0.454   3.628  0.1498  0.6183  0.8328
 6817TIP3    H120408   4.127   0.361   3.603  0.8398  0.8387 -0.1721
 6817TIP3    H220409   4.174   0.454   3.713  1.7485  0.1096  0.0607
 6818TIP3   OH220410   6.830   6.396   6.316 -0.1626  0.2366  0.5300
 6818TIP3    H120411   6.787   6.313   6.293 -0.3967  0.5082 -0.0341
 6818TIP3    H220412   6.777   6.432   6.386 -1.8008  1.2984 -1.1498
 6819TIP3   OH220413   0.949   1.165   4.390 -0.0740 -0.0693  0.6248
 6819TIP3    H120414   1.005   1.204   4.458 -0.5585 -0.5370  1.3139
 6819TIP3    H220415   1.009   1.144   4.319  0.3848  0.7869  0.7515
 6820TIP3   OH220416   3.030   3.097   4.524  0.2999  0.2021 -0.0043
 6820TIP3    H120417   3.076   3.164   4.473 -1.2860  1.4182  0.0844
 6820TIP3    H220418   3.100   3.041   4.558  1.5374  0.4978 -1.8777
 6821TIP3   OH220419   3.380   1.374   1.086  0.1978  0.4653 -0.3810
 6821TIP3    H120420   3.304   1.429   1.105  0.8500  1.2061  0.2020
 6821TIP3    H220421   3.370   1.298   1.143  0.2438  0.8940  0.2036
 6822TIP3   OH220422   4.538   4.109   4.393  0.0720  0.4771  0.1373
 6822TIP3    H120423   4.507   4.199   4.401  0.4090  0.5547  0.6719
 6822TIP3    H220424   4.460   4.057   4.374 -0.5005  0.5854  2.0382
 6823TIP3   OH220425   5.000   5.172   0.705 -0.5666  0.1512  0.3339
 6823TIP3    H120426   4.964   5.088   0.676 -0.9486  0.2422  0.5304
 6823TIP3    H220427   4.980   5.176   0.799 -1.2638  0.8015  0.1769
 6824TIP3   OH220428   0.588   6.320   1.995 -0.1322 -0.0288  0.6064
 6824TIP3    H120429   0.569   6.377   2.070 -1.4575  0.9529 -0.4226
 6824TIP3    H220430   0.503   6.310   1.951  0.3872 -1.5547 -0.1099
 6825TIP3   OH220431   1.714   3.500   2.690 -0.2002 -0.1039  0.2129
 6825TIP3    H120432   1.691   3.556   2.616 -1.2715 -0.1123  0.5333
 6825TIP3    H220433   1.801   3.465   2.667 -0.3363  0.2141 -0.8408
 6826TIP3   OH220434   4.405   4.175   3.291 -0.6163 -0.2197 -0.1116
 6826TIP3    H120435   4.316   4.183   3.325  0.0847  0.1495  1.7562
 6826TIP3    H220436   4.435   4.089   3.319  0.4025  0.5720  1.3688
 6827TIP3   OH220437   3.730   0.138   2.957 -0.1592  0.3674 -0.2589
 6827TIP3    H120438   3.818   0.110   2.934 -0.4333 -0.4048 -0.3904
 6827TIP3    H220439   3.673   0.069   2.923 -0.5949 -1.0845  2.9973
 6828TIP3   OH220440   6.407   2.344   6.532 -0.0562  0.4577 -0.0244
 6828TIP3    H120441   6.480   2.400   6.508 -1.2116  2.1506  0.2383
 6828TIP3    H220442   6.361   2.391   6.602 -1.3543 -0.5878 -0.1128
 6829TIP3   OH220443   0.501   3.379   0.516  0.3987 -0.0678  0.9083
 6829TIP3    H120444   0.493   3.336   0.431  0.7899  2.3270 -0.4226
 6829TIP3    H220445   0.595   3.379   0.534  0.1671 -2.8139  2.6643
 6830TIP3   OH220446   8.001   2.181   5.901  0.4347 -0.6347  0.4597
 6830TIP3    H120447   7.908   2.195   5.886  0.3839  0.4105  1.5376
 6830TIP3    H220448   8.038   2.168   5.814 -0.2427  2.2653 -0.3903
 6831TIP3   OH220449   3.421   6.340   6.333  0.1628  0.2234  0.0862
 6831TIP3    H120450   3.327   6.348   6.313 -0.5212 -1.7427  2.0435
 6831TIP3    H220451   3.465   6.381   6.259 -2.2285 -0.4289 -1.8367
 6832TIP3   OH220452   7.161   2.978   3.297  0.1430 -0.5690  0.2003
 6832TIP3    H120453   7.209   2.938   3.369  0.0158 -0.5765  0.2811
 6832TIP3    H220454   7.158   3.071   3.319  0.4864 -0.5060 -0.0144
 6833TIP3   OH220455   7.515   1.176   4.474 -0.6923 -0.0624 -0.3127
 6833TIP3    H120456   7.605   1.192   4.447 -0.8021  0.1954 -0.5305
 6833TIP3    H220457   7.506   1.224   4.557  0.1470 -2.2175  1.1056
 6834TIP3   OH220458   7.973   6.685   0.432  0.4921 -0.0285 -0.1655
 6834TIP3    H120459   8.009   6.613   0.484 -0.7730 -0.2135  0.4931
 6834TIP3    H220460   7.878   6.680   0.446  0.4012  2.1460  0.4151
 6835TIP3   OH220461   0.489   2.976   1.000 -0.2080  0.3351 -0.0080
 6835TIP3    H120462   0.571   2.967   0.952  0.6123 -0.0575  1.4036
 6835TIP3    H220463   0.512   3.028   1.077 -1.1162 -0.4004  0.7879
 6836TIP3   OH220464   5.088   4.477   1.164 -0.3201  0.2656  0.2413
 6836TIP3    H120465   5.085   4.565   1.201 -0.7051 -0.3689  1.8407
 6836TIP3    H220466   5.144   4.428   1.224  0.6000 -0.3890 -1.1064
 6837TIP3   OH220467   1.394   3.495   5.587  0.4380 -0.1113 -0.0450
 6837TIP3    H120468   1.360   3.578   5.619  0.7987  0.3345 -0.7792
 6837TIP3    H220469   1.329   3.430   5.613 -0.6768  0.6308 -0.8995
 6838TIP3   OH220470   1.035   4.093   1.305  0.2245 -0.2232 -0.4376
 6838TIP3    H120471   1.115   4.061   1.262  1.9905 -1.2978  3.1959
 6838TIP3    H220472   1.060   4.104   1.396 -3.6222  0.2726  0.7363
 6839TIP3   OH220473   4.836   1.113   2.727 -0.0504 -0.4758 -0.0121
 6839TIP3    H120474   4.928   1.122   2.705  0.6351 -0.9125  2.3536
 6839TIP3    H220475   4.803   1.203   2.734 -0.1336 -0.3279 -1.9500
 6840TIP3   OH220476   4.474   2.933   3.185 -0.3102 -0.2918 -0.0720
 6840TIP3    H120477   4.477   2.856   3.127 -0.4446  1.1266 -2.0894
 6840TIP3    H220478   4.403   2.986   3.149 -0.7502  0.4168  1.7833
 6841TIP3   OH220479   7.869   3.290   5.400  0.5022  0.1310  0.4781
 6841TIP3    H120480   7.861   3.217   5.462  0.7739 -1.3518 -1.1825
 6841TIP3    H220481   7.780   3.304   5.368 -0.3664  3.1474  3.4961
 6842TIP3   OH220482   2.578   0.739   5.368 -0.0989  0.0672  0.5944
 6842TIP3    H120483   2.663   0.694   5.373 -0.1883 -0.1370  0.2553
 6842TIP3    H220484   2.520   0.676   5.325 -0.7819 -0.3280  2.0152
 6843TIP3   OH220485   7.282   7.457   4.776 -0.1207  0.2585  1.0257
 6843TIP3    H120486   7.278   7.550   4.754  0.8404 -0.2204 -1.5068
 6843TIP3    H220487   7.232   7.414   4.707 -0.3775 -1.1540  2.0396
 6844TIP3   OH220488   6.535   4.021   3.329 -0.0050 -0.1026  0.3033
 6844TIP3    H120489   6.526   4.116   3.336  0.0824 -0.1611  1.3437
 6844TIP3    H220490   6.621   4.008   3.290 -0.4560  0.2556 -0.8569
 6845TIP3   OH220491   7.079   2.713   5.414 -0.2351  0.5116  0.6507
 6845TIP3    H120492   7.125   2.649   5.468 -0.4381  0.6987  1.0541
 6845TIP3    H220493   7.131   2.719   5.334 -0.5380 -0.5995  0.3497
 6846TIP3   OH220494   2.150   2.524   2.268 -0.1462 -0.5221 -0.4510
 6846TIP3    H120495   2.196   2.552   2.189  1.5068  0.4542  0.7910
 6846TIP3    H220496   2.220   2.504   2.331 -1.3989 -0.2978  1.0856
 6847TIP3   OH220497   6.863   7.605   0.856  0.3755  0.0363 -0.5669
 6847TIP3    H120498   6.928   7.615   0.786 -0.1916  0.7653 -1.0055
 6847TIP3    H220499   6.913   7.618   0.937  0.8598  0.1632 -0.8823
 6848TIP3   OH220500   5.926   6.265   3.514  0.0279 -0.5495 -0.4820
 6848TIP3    H120501   5.987   6.237   3.446 -0.1745 -1.8099 -0.1576
 6848TIP3    H220502   5.974   6.252   3.596 -0.0240  0.1976 -0.3261
 6849TIP3   OH220503   5.021   5.799   5.984 -0.0075 -0.2459 -0.6199
 6849TIP3    H120504   5.046   5.883   5.944  1.0786  0.1812  0.8914
 6849TIP3    H220505   4.969   5.823   6.061  3.8704 -0.6488  2.3960
 6850TIP3   OH220506   1.809   6.129   1.451 -0.0901  0.5344 -0.4275
 6850TIP3    H120507   1.772   6.205   1.495  0.7753  0.4414  0.5047
 6850TIP3    H220508   1.750   6.057   1.473 -1.4046  1.0512 -2.0271
 6851TIP3   OH220509   0.345   3.084   5.885  0.0277 -0.0499  0.2262
 6851TIP3    H120510   0.256   3.085   5.851 -0.3085 -1.3035  1.0118
 6851TIP3    H220511   0.355   3.171   5.925 -0.4014  0.5438 -0.8875
 6852TIP3   OH220512   3.962   0.061   2.260 -0.3405  0.6572  0.6494
 6852TIP3    H120513   4.047   0.086   2.223  0.8067 -1.0566  2.0240
 6852TIP3    H220514   3.951   0.118   2.336 -0.1489  0.4948  0.7995
 6853TIP3   OH220515   3.690   4.447   4.865  0.5215  0.2823  0.3720
 6853TIP3    H120516   3.694   4.527   4.918 -0.5476  0.4259  0.2494
 6853TIP3    H220517   3.782   4.422   4.853  0.8075  0.1446  2.4448
 6854TIP3   OH220518   5.836   4.090   0.338  0.1985 -0.0741 -0.4025
 6854TIP3    H120519   5.800   4.042   0.264 -1.8866 -0.3112  0.6803
 6854TIP3    H220520   5.887   4.025   0.386 -0.0779 -0.4351 -0.5891
 6855TIP3   OH220521   3.352   0.464   1.076 -0.1083  0.0770 -0.0761
 6855TIP3    H120522   3.401   0.497   1.001  0.1568 -0.7589 -0.2788
 6855TIP3    H220523   3.282   0.411   1.038  0.4342 -0.9112  0.2597
 6856TIP3   OH220524   3.061   5.285   5.810 -0.2362 -0.4651  0.0305
 6856TIP3    H120525   2.998   5.214   5.819 -0.0824 -0.7018 -0.7011
 6856TIP3    H220526   3.145   5.241   5.795  0.0709 -0.1505  0.8064
 6857TIP3   OH220527   3.278   6.203   4.494  0.0098 -1.1241  0.7795
 6857TIP3    H120528   3.219   6.241   4.428  0.3389 -2.2708 -0.1920
 6857TIP3    H220529   3.229   6.212   4.576 -0.0014  1.2237  0.5896
 6858TIP3   OH220530   8.116   5.004   4.035  0.1564 -0.2716 -0.4576
 6858TIP3    H120531   8.060   5.010   4.112  1.4863  0.2753  0.5152
 6858TIP3    H220532   8.162   5.088   4.032  1.4730 -0.9665 -0.7589
 6859TIP3   OH220533   8.142   2.667   6.355  0.0865 -0.4242 -0.1642
 6859TIP3    H120534   8.102   2.608   6.418  0.9810 -1.4068 -0.4910
 6859TIP3    H220535   8.069   2.697   6.300 -0.9179  1.4230  2.0397
 6860TIP3   OH220536   5.736   7.383   3.856 -0.1782 -0.5742 -0.0463
 6860TIP3    H120537   5.680   7.399   3.932 -0.6352  1.0664 -0.6779
 6860TIP3    H220538   5.825   7.394   3.889 -0.3775  0.2505  0.2395
 6861TIP3   OH220539   2.558   0.175   0.814 -0.1196 -0.6262 -0.7891
 6861TIP3    H120540   2.509   0.230   0.753 -0.8886 -0.4297 -0.0167
 6861TIP3    H220541   2.512   0.091   0.812  1.1246 -1.3096 -2.0612
 6862TIP3   OH220542   3.040   1.795   6.771 -0.2388 -0.7759 -0.2990
 6862TIP3    H120543   3.096   1.811   6.696 -0.0082 -1.3993 -0.2729
 6862TIP3    H220544   2.954   1.776   6.734 -0.2588 -0.5286 -0.3769
 6863TIP3   OH220545   4.090   5.009   4.111  0.6121  0.1663 -0.2984
 6863TIP3    H120546   4.171   5.040   4.070  0.6970  0.4554  0.0840
 6863TIP3    H220547   4.045   4.960   4.042  1.0059  0.1965 -0.5787
 6864TIP3   OH220548   0.993   6.831   3.459  0.0058  0.2305 -1.0218
 6864TIP3    H120549   0.964   6.835   3.368 -0.9013 -0.9036 -0.7976
 6864TIP3    H220550   1.009   6.923   3.482 -1.8756  0.7836 -1.6675
 6865TIP3   OH220551   5.312   0.486   3.207  0.1421  0.1879 -0.6584
 6865TIP3    H120552   5.349   0.520   3.126 -0.1385  2.9230  0.2682
 6865TIP3    H220553   5.220   0.467   3.186  0.6200 -1.3863 -1.5186
 6866TIP3   OH220554   6.445   4.206   4.266 -0.0232  0.0916 -0.4000
 6866TIP3    H120555   6.456   4.137   4.331 -1.6425  0.3669  0.2270
 6866TIP3    H220556   6.423   4.284   4.318 -1.6454  0.2441 -1.2576
 6867TIP3   OH220557   5.905   6.997   6.068 -0.1068 -0.0963  0.1366
 6867TIP3    H120558   5.865   6.965   5.987 -0.5170 -0.5333  0.5041
 6867TIP3    H220559   5.872   6.937   6.135  1.1379 -0.4475  0.4567
 6868TIP3   OH220560   4.177   2.684   2.191  0.2110  0.4589  0.0902
 6868TIP3    H120561   4.120   2.634   2.133  0.2178  1.5266 -0.8638
 6868TIP3    H220562   4.256   2.699   2.140  0.0983  1.6806  0.2511
 6869TIP3   OH220563   3.326   4.391   2.507  0.5998 -0.3950 -0.3722
 6869TIP3    H120564   3.235   4.396   2.536  0.2975 -2.9839 -0.6832
 6869TIP3    H220565   3.362   4.477   2.528 -1.5170  0.2134  1.0960
 6870TIP3   OH220566   6.407   1.743   0.512 -0.3726  0.0566  0.5353
 6870TIP3    H120567   6.470   1.672   0.519  1.3645  1.3718 -0.6805
 6870TIP3    H220568   6.459   1.822   0.525 -1.3050  1.3212 -2.5281
 6871TIP3   OH220569   0.796   1.217   6.635  0.3808 -0.0710  0.2419
 6871TIP3    H120570   0.814   1.269   6.557 -0.3002  0.6969  0.5871
 6871TIP3    H220571   0.831   1.130   6.615 -0.2219 -0.0231 -1.1201
 6872TIP3   OH220572   4.318   3.135   5.880  0.4531  0.5265 -0.2256
 6872TIP3    H120573   4.317   3.040   5.878  1.5309  0.5007 -0.1050
 6872TIP3    H220574   4.340   3.157   5.970  1.9884  0.8404 -0.6420
 6873TIP3   OH220575   8.024   1.677   0.126  0.2374 -0.1581  0.0840
 6873TIP3    H120576   8.066   1.591   0.130 -0.5402 -0.5297  0.2810
 6873TIP3    H220577   8.071   1.723   0.056 -1.2591 -1.7639 -2.1030
 6874TIP3   OH220578   2.666   6.870   3.128 -0.0428  0.0944 -0.5401
 6874TIP3    H120579   2.604   6.905   3.192 -1.7079 -0.4391 -1.7690
 6874TIP3    H220580   2.687   6.782   3.161 -1.4781 -0.4718 -1.0605
 6875TIP3   OH220581   8.176   1.053   1.143  0.7031 -0.0022  0.4428
 6875TIP3    H120582   8.159   0.980   1.084  1.0549  1.0471 -1.0306
 6875TIP3    H220583   8.266   1.039   1.172  2.0007  1.4385 -2.4139
 6876TIP3   OH220584   3.919   0.278   3.884  0.1337  0.2359  0.3463
 6876TIP3    H120585   3.854   0.345   3.862  1.5013  0.9700 -1.7588
 6876TIP3    H220586   4.003   0.324   3.882  1.0338 -1.3439 -0.2989
 6877TIP3   OH220587   6.646   0.944   3.986  0.0597 -0.5873 -0.1899
 6877TIP3    H120588   6.700   0.872   3.953  0.7632  0.5536 -1.6614
 6877TIP3    H220589   6.695   0.978   4.061  1.1209  0.0357 -1.1270
 6878TIP3   OH220590   7.715   2.027   4.336 -0.0724 -0.3624  0.1486
 6878TIP3    H120591   7.681   2.052   4.251  0.3399  0.4074  0.1984
 6878TIP3    H220592   7.641   2.037   4.396 -0.1823 -0.2432 -0.0079
 6879TIP3   OH220593   0.299   3.729   0.384  0.0483 -0.0182 -0.6997
 6879TIP3    H120594   0.291   3.658   0.322  2.2838  1.4911 -2.9054
 6879TIP3    H220595   0.370   3.703   0.443 -0.7435 -0.5855  0.0345
 6880TIP3   OH220596   7.332   2.817   1.356  0.1095  0.4513  0.1303
 6880TIP3    H120597   7.413   2.866   1.367 -1.0370  2.2727  1.0827
 6880TIP3    H220598   7.285   2.864   1.287 -0.0495 -0.7214 -0.5823
 6881TIP3   OH220599   5.237   3.215   0.099 -0.0238 -0.1001 -0.2911
 6881TIP3    H120600   5.153   3.242   0.136  0.1297  0.4650 -0.3483
 6881TIP3    H220601   5.266   3.290   0.048  1.3161  0.3666  1.0969
 6882TIP3   OH220602   1.786   1.653   5.798 -0.4863 -0.8386  0.8070
 6882TIP3    H120603   1.821   1.610   5.720 -0.0719  0.8252  0.0395
 6882TIP3    H220604   1.693   1.665   5.779  0.2391  2.9386 -1.1704
 6883TIP3   OH220605   4.174   2.842   3.244 -0.2497  0.3520  0.0958
 6883TIP3    H120606   4.099   2.899   3.262 -0.5232 -1.0041  4.3218
 6883TIP3    H220607   4.244   2.877   3.299  1.2127 -0.4151 -1.2060
 6884TIP3   OH220608   0.654   6.692   5.876  0.0328 -0.3170 -0.2004
 6884TIP3    H120609   0.598   6.689   5.799  0.4942  0.2768 -0.5634
 6884TIP3    H220610   0.603   6.649   5.945  0.3146 -2.5195 -1.2664
 6885TIP3   OH220611   7.314   1.317   4.000 -0.2925 -0.2077 -0.4152
 6885TIP3    H120612   7.330   1.253   4.070  0.7453  1.7236  1.2432
 6885TIP3    H220613   7.222   1.339   4.009 -0.5700 -1.1717 -0.7596
 6886TIP3   OH220614   6.923   1.437   3.281  0.3534 -0.1045  0.0788
 6886TIP3    H120615   7.009   1.422   3.320 -0.8152 -1.4768  2.3598
 6886TIP3    H220616   6.915   1.370   3.213  0.2023 -1.6725  1.5506
 6887TIP3   OH220617   2.201   1.269   3.037 -0.0122  0.5818  0.3343
 6887TIP3    H120618   2.222   1.183   3.073  0.2090  1.3708  2.1518
 6887TIP3    H220619   2.265   1.281   2.966  1.2538  0.0750  1.3517
 6888TIP3   OH220620   0.415   4.189   6.247 -0.3087 -0.1253  0.0580
 6888TIP3    H120621   0.477   4.262   6.246  1.4665 -1.5804 -0.0137
 6888TIP3    H220622   0.463   4.115   6.210 -1.5750 -1.7339  1.4297
 6889TIP3   OH220623   5.473   6.112   4.545 -0.0693 -0.3751  0.0383
 6889TIP3    H120624   5.489   6.042   4.481  0.1088 -1.0224  0.7667
 6889TIP3    H220625   5.379   6.111   4.559 -0.4510  1.4293 -2.0272
 6890TIP3   OH220626   3.923   2.634   6.231 -0.2482  0.5800  0.3304
 6890TIP3    H120627   3.883   2.631   6.144 -0.1220  1.9285  0.1921
 6890TIP3    H220628   3.891   2.717   6.268  2.0562  1.5201  0.3717
 6891TIP3   OH220629   7.634   2.666   3.488 -0.0572  0.0226  0.0284
 6891TIP3    H120630   7.557   2.615   3.513  0.3678 -1.7325 -1.9941
 6891TIP3    H220631   7.599   2.748   3.456 -0.8223  0.7129  2.3926
 6892TIP3   OH220632   4.620   1.978   0.539  0.0230 -0.5736  0.0299
 6892TIP3    H120633   4.641   2.046   0.603 -0.1971 -0.5921  0.1245
 6892TIP3    H220634   4.705   1.944   0.511  0.1074 -1.4747  1.2856
 6893TIP3   OH220635   3.694   7.770   3.797  0.1267 -0.2731 -0.3228
 6893TIP3    H120636   3.652   7.837   3.743  0.9208 -0.1528 -0.8026
 6893TIP3    H220637   3.770   7.813   3.835  0.6268 -0.8874 -0.6069
 6894TIP3   OH220638   2.765   2.362   6.169 -0.2664  0.3620 -0.3576
 6894TIP3    H120639   2.801   2.381   6.082 -0.0732 -1.9281 -0.8157
 6894TIP3    H220640   2.821   2.293   6.204 -2.8654 -1.7881 -0.1925
 6895TIP3   OH220641   0.322   0.316   3.937 -0.3589  0.1361  0.0359
 6895TIP3    H120642   0.251   0.343   3.878 -0.3396  1.2017  0.4883
 6895TIP3    H220643   0.278   0.266   4.005 -0.5724  0.1306 -0.1036
 6896TIP3   OH220644   1.117   6.385   4.967 -0.0988 -0.1483  0.8377
 6896TIP3    H120645   1.147   6.447   4.900  2.7945 -0.8322  1.4047
 6896TIP3    H220646   1.096   6.441   5.043 -1.1317  0.4085  0.1731
 6897TIP3   OH220647   3.285   0.958   4.178 -0.0890 -0.1370  0.2181
 6897TIP3    H120648   3.365   0.945   4.128 -0.1988  1.5744 -0.4741
 6897TIP3    H220649   3.225   1.000   4.117 -0.8229  0.4417  1.2991
 6898TIP3   OH220650   1.076   5.022   2.364 -0.1649 -0.1219 -0.7065
 6898TIP3    H120651   1.119   4.999   2.282  0.3086  0.2497 -0.5659
 6898TIP3    H220652   1.138   4.995   2.432  0.8587  2.3606 -0.5504
 6899TIP3   OH220653   5.337   3.363   1.934 -0.6507 -0.4589 -0.4553
 6899TIP3    H120654   5.363   3.279   1.898 -0.3657  0.1990 -1.8345
 6899TIP3    H220655   5.418   3.400   1.970 -0.5922 -0.3902 -0.6562
 6900TIP3   OH220656   2.557   0.549   4.568 -0.5040 -0.3005 -0.1547
 6900TIP3    H120657   2.636   0.576   4.521  0.8067 -2.2537  0.7536
 6900TIP3    H220658   2.546   0.614   4.637  0.8692 -0.4625  0.2436
 6901TIP3   OH220659   3.624   4.080   3.534  0.3456  0.0137  0.5097
 6901TIP3    H120660   3.554   4.034   3.580  0.7165 -0.9420  0.1415
 6901TIP3    H220661   3.637   4.030   3.454  1.6531 -0.0050  0.7102
 6902TIP3   OH220662   0.937   2.580   2.519  0.2087  0.2653 -0.1849
 6902TIP3    H120663   0.944   2.672   2.543 -0.4439 -0.0772  1.4858
 6902TIP3    H220664   0.852   2.573   2.476 -0.5186  0.1803  1.2039
 6903TIP3   OH220665   7.547   1.386   2.351  0.4700  0.3863  0.0229
 6903TIP3    H120666   7.513   1.448   2.285  1.5663  2.2584  1.1226
 6903TIP3    H220667   7.628   1.353   2.312 -0.2205 -0.5523 -0.6552
 6904TIP3   OH220668   7.173   5.414   4.153 -0.2642  0.2448 -0.1295
 6904TIP3    H120669   7.265   5.431   4.136 -0.8207  2.1380 -1.6092
 6904TIP3    H220670   7.173   5.334   4.205  2.1297 -0.7618 -1.4908
 6905TIP3   OH220671   2.974   4.447   5.970  0.4097 -0.7579  0.2988
 6905TIP3    H120672   2.999   4.402   6.050  1.1194 -2.7638 -0.9637
 6905TIP3    H220673   3.056   4.458   5.922 -0.2002 -1.1472 -0.8721
 6906TIP3   OH220674   1.822   7.641   1.245  0.2417 -0.1588 -0.0187
 6906TIP3    H120675   1.889   7.699   1.209  1.5032 -1.0939  0.7780
 6906TIP3    H220676   1.820   7.662   1.339 -2.0323  1.2675 -0.2798
 6907TIP3   OH220677   7.917   0.519   3.019 -0.4188 -0.1449  0.5225
 6907TIP3    H120678   7.935   0.595   2.964 -0.1416 -0.7864 -0.2938
 6907TIP3    H220679   7.991   0.514   3.079  1.5269 -1.8913 -1.8294
 6908TIP3   OH220680   8.247   3.119   4.642 -0.0246  0.4149 -0.5567
 6908TIP3    H120681   8.234   3.056   4.712  1.7732 -0.0868 -0.6150
 6908TIP3    H220682   8.162   3.126   4.598 -0.7341 -0.5115  0.6316
 6909TIP3   OH220683   3.285   2.220   2.283  0.3263  0.3851 -0.6040
 6909TIP3    H120684   3.230   2.239   2.359 -0.6452 -1.5903 -0.7457
 6909TIP3    H220685   3.230   2.244   2.208  1.4896  2.8623 -0.7403
 6910TIP3   OH220686   4.582   1.676   3.622 -0.2197  0.2329  0.0663
 6910TIP3    H120687   4.623   1.719   3.697 -0.5988  1.5750 -0.4642
 6910TIP3    H220688   4.651   1.622   3.584  0.1501  0.0348  0.9940
 6911TIP3   OH220689   7.208   5.945   5.036  0.3775 -0.2370  0.2738
 6911TIP3    H120690   7.188   6.031   5.073  0.6634 -0.3541  0.7055
 6911TIP3    H220691   7.303   5.945   5.024  0.0933  0.6973 -2.7125
 6912TIP3   OH220692   6.137   2.291   5.370 -0.1144  0.1510 -0.7989
 6912TIP3    H120693   6.166   2.382   5.361 -0.6499  0.2458 -1.6564
 6912TIP3    H220694   6.217   2.240   5.355  0.2395  0.4758 -0.0828
 6913TIP3   OH220695   5.161   1.419   2.986 -0.0561 -0.0710  0.3778
 6913TIP3    H120696   5.177   1.473   2.909 -2.1515 -0.4363 -0.3614
 6913TIP3    H220697   5.157   1.329   2.953 -1.9729 -0.1440  0.6933
 6914TIP3   OH220698   7.756   0.432   4.021 -0.4689  1.2149 -0.1947
 6914TIP3    H120699   7.680   0.476   3.981 -1.6855 -0.0718  0.5887
 6914TIP3    H220700   7.748   0.452   4.114 -1.0427 -0.5824  0.1779
 6915TIP3   OH220701   4.667   6.086   2.614 -0.5136  0.4707  0.1138
 6915TIP3    H120702   4.714   6.169   2.621 -1.3781  0.8220  2.8047
 6915TIP3    H220703   4.721   6.033   2.555  1.2782  2.1337  0.1630
 6916TIP3   OH220704   6.290   7.786   0.568 -0.4114  0.6231 -0.0580
 6916TIP3    H120705   6.377   7.798   0.532  0.0991 -0.2022  0.8325
 6916TIP3    H220706   6.306   7.753   0.657 -1.6237  0.4103  0.0958
 6917TIP3   OH220707   1.093   4.133   6.485 -0.1833  0.4173 -0.6295
 6917TIP3    H120708   1.109   4.212   6.434  0.5508 -0.0177 -1.0961
 6917TIP3    H220709   1.091   4.162   6.576 -0.1131  0.9990 -0.8149
 6918TIP3   OH220710   3.379   2.506   2.617 -0.2346  0.1920 -0.0993
 6918TIP3    H120711   3.389   2.599   2.637 -0.1072  0.1171  0.1866
 6918TIP3    H220712   3.423   2.496   2.532 -0.7842  0.5066 -0.4250
 6919TIP3   OH220713   6.762   6.794   4.023  0.0765  0.4396  0.6461
 6919TIP3    H120714   6.722   6.877   4.047  0.3140  1.3406 -1.8434
 6919TIP3    H220715   6.759   6.792   3.928  1.1270 -1.9010  0.5862
 6920TIP3   OH220716   2.735   2.908   5.106 -0.1884 -0.1256  0.3022
 6920TIP3    H120717   2.747   2.820   5.071 -1.7954  0.5937 -2.3888
 6920TIP3    H220718   2.643   2.912   5.131  0.2215  0.3712  1.8730
 6921TIP3   OH220719   2.955   5.588   5.131 -0.4659  0.1934  0.4437
 6921TIP3    H120720   2.999   5.503   5.141  0.5118  0.5948 -0.3145
 6921TIP3    H220721   2.989   5.641   5.203  0.8328  0.7068 -0.5070
 6922TIP3   OH220722   7.809   6.715   0.206 -0.2697 -0.8404  0.1791
 6922TIP3    H120723   7.883   6.757   0.251 -1.4392  1.9033 -0.2698
 6922TIP3    H220724   7.850   6.662   0.138  1.3205  0.1969  0.2618
 6923TIP3   OH220725   6.016  -0.006   1.158 -0.0157 -0.2276 -0.2642
 6923TIP3    H120726   5.928  -0.022   1.191  0.1221  0.7263  0.6241
 6923TIP3    H220727   6.003   0.031   1.071 -0.5646  1.1734  0.3826
 6924TIP3   OH220728   3.791   7.062   3.584 -0.1691 -0.1026 -0.1331
 6924TIP3    H120729   3.870   7.035   3.538 -0.8350 -0.1214 -1.3042
 6924TIP3    H220730   3.753   7.130   3.529 -1.9669 -1.4122 -0.6194
 6925TIP3   OH220731   0.686   5.017   4.071 -0.3227  0.0204  0.0064
 6925TIP3    H120732   0.731   4.982   3.994 -1.1723 -0.6670 -0.1927
 6925TIP3    H220733   0.661   4.940   4.121 -2.2773  0.2992 -0.4615
 6926TIP3   OH220734   7.703   3.151   6.453  0.2828  0.3651  0.3978
 6926TIP3    H120735   7.795   3.132   6.439  0.2113 -0.1690  0.6110
 6926TIP3    H220736   7.656   3.079   6.411  0.0365 -0.5940  2.2051
 6927TIP3   OH220737   3.221   3.293   3.942 -0.2114  0.1649  0.3665
 6927TIP3    H120738   3.264   3.287   3.857 -0.0390 -0.2504  0.4789
 6927TIP3    H220739   3.230   3.384   3.968 -0.5002  0.3561 -0.1834
 6928TIP3   OH220740   2.987   6.576   0.277  0.1536  0.1343  0.4330
 6928TIP3    H120741   2.973   6.485   0.254 -0.3192 -0.1153  1.6398
 6928TIP3    H220742   3.053   6.575   0.345 -0.8545  0.5570  1.4563
 6929TIP3   OH220743   7.945   1.864   5.489 -0.3987  0.3604 -0.0304
 6929TIP3    H120744   7.961   1.829   5.401  0.7633  0.1346  0.2592
 6929TIP3    H220745   7.858   1.905   5.483 -1.0226 -1.0043 -0.8650
 6930TIP3   OH220746   6.372   6.216   0.669  0.3719 -0.3757 -0.2517
 6930TIP3    H120747   6.424   6.141   0.697 -0.1344 -0.5568  0.2137
 6930TIP3    H220748   6.330   6.248   0.749  0.6953  0.4916 -0.4205
 6931TIP3   OH220749   6.314   1.091   3.301  0.1570 -0.3771 -0.3214
 6931TIP3    H120750   6.248   1.114   3.236  0.2061  1.5441  0.2420
 6931TIP3    H220751   6.294   1.001   3.325 -1.8451 -0.0661 -0.6465
 6932TIP3   OH220752   2.778   6.842   0.511  0.0748 -0.2641  0.2880
 6932TIP3    H120753   2.746   6.933   0.513 -0.8774 -0.5614 -0.3911
 6932TIP3    H220754   2.839   6.836   0.584  1.5784  1.4413 -0.7542
 6933TIP3   OH220755   5.222   7.378   1.982 -0.0120 -0.5355  0.0862
 6933TIP3    H120756   5.190   7.429   2.056 -0.9323 -0.2165 -0.5146
 6933TIP3    H220757   5.249   7.444   1.917 -1.1674 -0.7932 -0.6774
 6934TIP3   OH220758   4.003   6.202   1.486 -0.0928 -0.0843 -0.1129
 6934TIP3    H120759   4.020   6.232   1.397 -1.6765 -0.1168 -0.4606
 6934TIP3    H220760   4.047   6.265   1.542  1.4147 -0.3884 -0.9086
 6935TIP3   OH220761   7.710   4.412   2.190 -0.0572 -0.2876  0.3397
 6935TIP3    H120762   7.668   4.432   2.273 -1.1204 -0.1181 -0.2179
 6935TIP3    H220763   7.691   4.487   2.134  1.0229 -0.1962  0.0625
 6936TIP3   OH220764   3.922   4.349   6.614  0.0687 -0.5991 -0.2442
 6936TIP3    H120765   3.991   4.360   6.548  0.1223  0.4359 -0.0339
 6936TIP3    H220766   3.968   4.323   6.693  0.1513 -0.5771 -0.2845
 6937TIP3   OH220767   3.684   2.238   5.486  0.0486 -0.6139 -0.3400
 6937TIP3    H120768   3.667   2.322   5.528  1.0178  0.3609 -1.7794
 6937TIP3    H220769   3.673   2.173   5.555 -1.7770  0.5788  0.5635
 6938TIP3   OH220770   7.234   4.658   5.287  0.8292  0.5209 -0.0669
 6938TIP3    H120771   7.316   4.690   5.324  0.6283  2.4090 -1.1082
 6938TIP3    H220772   7.255   4.637   5.196  0.7518 -1.6643  0.3727
 6939TIP3   OH220773   4.673   0.851   1.428  0.3049 -0.2872  0.1512
 6939TIP3    H120774   4.588   0.894   1.426  0.4825  0.2467  1.9966
 6939TIP3    H220775   4.652   0.757   1.434 -0.1418 -0.1884  0.1730
 6940TIP3   OH220776   2.811   7.124   5.875  0.0173  0.2363 -0.1236
 6940TIP3    H120777   2.775   7.211   5.892  0.9171  0.6691 -0.3758
 6940TIP3    H220778   2.874   7.137   5.805  2.4963 -0.0054  1.8967
 6941TIP3   OH220779   2.364   7.384   5.455 -0.1860  0.1416  0.4868
 6941TIP3    H120780   2.301   7.428   5.398  1.2597 -0.1147 -1.3985
 6941TIP3    H220781   2.327   7.297   5.469 -0.3074  0.0229 -0.5205
 6942TIP3   OH220782   2.946   6.677   1.861 -0.9741  0.1623  0.3099
 6942TIP3    H120783   2.960   6.582   1.869 -3.0473 -0.5252 -2.5716
 6942TIP3    H220784   2.864   6.693   1.907 -0.2217  0.7654  1.4878
 6943TIP3   OH220785   8.156   6.698   3.093 -0.0935 -0.4609 -0.1924
 6943TIP3    H120786   8.219   6.630   3.069  0.3759 -1.2783  2.8584
 6943TIP3    H220787   8.137   6.680   3.185 -3.8395  0.5597 -0.6400
 6944TIP3   OH220788   4.518   1.137   5.296  0.0401  0.2652  0.0611
 6944TIP3    H120789   4.460   1.063   5.313  2.6135 -1.2937  3.1675
 6944TIP3    H220790   4.588   1.101   5.242  1.6889  0.0904  2.1845
 6945TIP3   OH220791   3.431   0.861   1.201 -0.2826  0.8111  0.4955
 6945TIP3    H120792   3.478   0.783   1.172  0.1804  1.6191 -1.0079
 6945TIP3    H220793   3.341   0.847   1.172 -0.0182  1.1988 -0.5510
 6946TIP3   OH220794   7.747   1.756   4.356  0.2271  0.0730  0.0342
 6946TIP3    H120795   7.793   1.720   4.281 -0.5424  1.1972 -1.0155
 6946TIP3    H220796   7.750   1.850   4.344  1.1032  0.3639  2.0590
 6947TIP3   OH220797   4.536   6.788   2.185 -0.1740  0.5610  0.0803
 6947TIP3    H120798   4.514   6.766   2.276  1.0317 -0.8559  0.0610
 6947TIP3    H220799   4.623   6.829   2.191 -0.0099  0.2986 -0.4494
 6948TIP3   OH220800   3.604   5.965   3.179  0.1260 -0.1897  0.6480
 6948TIP3    H120801   3.574   5.874   3.177  0.0339 -0.1532  0.3380
 6948TIP3    H220802   3.676   5.968   3.117  1.4563 -0.5022  2.1098
 6949TIP3   OH220803   2.508   2.606   5.555  0.5920  0.0518  0.1729
 6949TIP3    H120804   2.565   2.640   5.485  1.0183  0.3224  0.6436
 6949TIP3    H220805   2.485   2.683   5.606 -1.2530  0.1554 -0.7332
 6950TIP3   OH220806   3.219   3.325   2.117 -0.2638  1.0747  0.8988
 6950TIP3    H120807   3.260   3.277   2.190 -2.4926  0.3405  1.7663
 6950TIP3    H220808   3.206   3.414   2.151  0.2474  1.1964  0.7718
 6951TIP3   OH220809   1.089   7.737   4.480  0.2555 -0.0388  0.7945
 6951TIP3    H120810   1.005   7.784   4.479  0.7977  0.9464  0.7254
 6951TIP3    H220811   1.118   7.739   4.389  1.6994  2.1349  1.2353
 6952TIP3   OH220812   7.006   1.114   0.684 -0.6298 -0.0012 -0.2599
 6952TIP3    H120813   6.973   1.054   0.750  0.1718  0.3110  0.4435
 6952TIP3    H220814   6.929   1.163   0.655 -1.1483 -0.7886 -0.2518
 6953TIP3   OH220815   8.056   5.338   2.685  0.1751  0.1590  0.1946
 6953TIP3    H120816   8.101   5.304   2.607  2.2752  0.2433  1.3216
 6953TIP3    H220817   8.116   5.322   2.757 -0.7205  2.1802  1.4814
 6954TIP3   OH220818   7.177   1.999   3.078  0.0223  0.1923  0.0078
 6954TIP3    H120819   7.238   1.996   3.004 -0.5716  2.4221 -0.6399
 6954TIP3    H220820   7.091   1.980   3.040 -0.1215  0.1670  0.3381
 6955TIP3   OH220821   7.229   1.624   3.402  0.1857  0.0190 -0.1864
 6955TIP3    H120822   7.198   1.550   3.453 -0.2465  1.4390  1.7309
 6955TIP3    H220823   7.152   1.679   3.389  0.7602  0.8168 -0.3312
 6956TIP3   OH220824   0.896   0.722   0.036  0.0927 -0.4858 -0.4551
 6956TIP3    H120825   0.951   0.653   0.073  0.8825  0.0680 -0.5691
 6956TIP3    H220826   0.841   0.751   0.109  1.2576  0.2178  0.1783
 6957TIP3   OH220827   6.497   1.565   1.603  0.2108  0.3246 -0.3029
 6957TIP3    H120828   6.466   1.475   1.593  2.3558 -0.7094  1.5363
 6957TIP3    H220829   6.438   1.604   1.667 -0.2745  0.0022 -0.5464
 6958TIP3   OH220830   2.056   2.540   0.964  0.2558  0.3637  0.4209
 6958TIP3    H120831   2.095   2.482   1.028  0.8374 -1.0737 -1.1633
 6958TIP3    H220832   2.029   2.617   1.014 -0.7739 -1.3358  2.6294
 6959TIP3   OH220833   3.978   7.610   4.079  0.0092  0.6029  0.0560
 6959TIP3    H120834   4.073   7.621   4.072 -0.0877  0.8760 -1.0617
 6959TIP3    H220835   3.943   7.699   4.085 -0.1996  0.5210  0.0820
 6960TIP3   OH220836   4.411   6.697   1.448  0.0403  0.1011 -0.2338
 6960TIP3    H120837   4.423   6.737   1.362 -0.0640  0.1089 -0.2454
 6960TIP3    H220838   4.410   6.603   1.431  0.8055  0.0729 -0.1402
 6961TIP3   OH220839   1.352   4.365   5.191  0.4615 -0.0409  0.7858
 6961TIP3    H120840   1.372   4.302   5.122  0.4823  0.6389  0.1524
 6961TIP3    H220841   1.356   4.450   5.147  0.2132  0.3846  1.5705
 6962TIP3   OH220842   2.231   7.238   1.468  0.5664  0.3067 -0.1199
 6962TIP3    H120843   2.187   7.231   1.553 -0.1020 -1.5023 -0.5785
 6962TIP3    H220844   2.296   7.308   1.480 -0.7929  1.3963  1.2923
 6963TIP3   OH220845   6.002   4.720   3.024 -0.6809  0.0797 -0.2411
 6963TIP3    H120846   6.017   4.642   3.077  0.6320  0.2179 -0.3517
 6963TIP3    H220847   5.963   4.783   3.084 -2.5013 -0.8924 -0.3516
 6964TIP3   OH220848   7.905   6.109   1.683  0.5436  0.3898 -0.3191
 6964TIP3    H120849   7.884   6.202   1.690 -2.3198 -0.2773  2.1118
 6964TIP3    H220850   7.833   6.071   1.633  1.6899 -0.5491 -1.3223
 6965TIP3   OH220851   4.398   5.048   1.852  0.3316 -0.2665 -0.2769
 6965TIP3    H120852   4.350   4.990   1.912  1.1401  0.0963  0.7616
 6965TIP3    H220853   4.411   4.996   1.773  0.6307 -1.3390  0.4628
 6966TIP3   OH220854   7.731   4.403   0.356 -0.2051  0.0905  0.2578
 6966TIP3    H120855   7.761   4.468   0.292 -0.6939  0.3591  0.3019
 6966TIP3    H220856   7.779   4.426   0.436 -1.2086  1.1053  0.5940
 6967TIP3   OH220857   1.574   5.467   1.693  0.0091 -0.0767 -0.2409
 6967TIP3    H120858   1.523   5.522   1.633 -2.9577 -0.9509  1.2890
 6967TIP3    H220859   1.595   5.525   1.766 -0.5891 -0.2145  0.0467
 6968TIP3   OH220860   8.169   2.787   3.437  0.0190  0.3787 -0.3989
 6968TIP3    H120861   8.240   2.823   3.384 -0.5147  0.5195 -1.0395
 6968TIP3    H220862   8.169   2.693   3.416 -0.4208  0.4904 -0.9500
 6969TIP3   OH220863   2.953   4.717   4.402  0.8467  0.3322  0.5944
 6969TIP3    H120864   2.902   4.636   4.407  1.2932 -0.0083 -0.3035
 6969TIP3    H220865   2.962   4.744   4.494 -0.3411  0.0294  0.8226
 6970TIP3   OH220866   4.626   4.421   1.424  0.4268  0.0156  0.2901
 6970TIP3    H120867   4.592   4.459   1.506  0.8345  1.6544 -0.2681
 6970TIP3    H220868   4.716   4.452   1.419  1.2494 -2.1810  0.4653
 6971TIP3   OH220869   4.915   0.402   5.326 -0.7938  0.2755 -0.4576
 6971TIP3    H120870   4.937   0.413   5.233 -0.1011  0.8155 -0.2402
 6971TIP3    H220871   4.940   0.313   5.347  4.1111  1.5887  0.4864
 6972TIP3   OH220872   2.309   1.639   5.508  0.0173  0.0248 -0.4565
 6972TIP3    H120873   2.223   1.675   5.487  1.3045  2.5202 -1.9620
 6972TIP3    H220874   2.321   1.567   5.446 -0.4692  0.4836 -1.0895
 6973TIP3   OH220875   7.012   1.273   1.799  0.2010 -0.0297  0.0956
 6973TIP3    H120876   7.097   1.309   1.824  1.0695 -0.6312 -1.8314
 6973TIP3    H220877   7.012   1.184   1.836  0.6743 -0.2388 -0.3935
 6974TIP3   OH220878   2.361   1.555   4.742 -0.0640  0.4027  0.3227
 6974TIP3    H120879   2.405   1.473   4.762  0.5722  0.4544 -0.8294
 6974TIP3    H220880   2.345   1.553   4.648  1.7814  2.4544 -0.1180
 6975TIP3   OH220881   1.557   2.358   1.699  0.3539  0.4081 -0.0642
 6975TIP3    H120882   1.604   2.386   1.777  0.8908  0.3893 -0.3751
 6975TIP3    H220883   1.483   2.308   1.731  0.2770  0.8486  0.4502
 6976TIP3   OH220884   7.659   5.476   3.152  0.6817  0.3071 -0.0883
 6976TIP3    H120885   7.635   5.394   3.194  0.5452  0.7682  0.7447
 6976TIP3    H220886   7.648   5.542   3.220  1.3004  0.9460 -0.5960
 6977TIP3   OH220887   1.832   2.053   6.202  0.1085 -0.5330 -0.2060
 6977TIP3    H120888   1.743   2.029   6.228  0.1953  0.1588  0.8007
 6977TIP3    H220889   1.886   2.029   6.277  0.8058 -1.1134 -0.8819
 6978TIP3   OH220890   4.947   2.829   5.242  0.6725 -0.3335  0.0786
 6978TIP3    H120891   5.017   2.780   5.198  0.4984  0.6804 -1.3864
 6978TIP3    H220892   4.989   2.910   5.271  0.1689  0.2161 -0.6783
 6979TIP3   OH220893   5.671   6.697   2.810  0.1539 -0.7164  0.2463
 6979TIP3    H120894   5.730   6.772   2.816 -0.2849 -0.3757  0.3616
 6979TIP3    H220895   5.729   6.621   2.806  0.5752 -0.5078  1.9713
 6980TIP3   OH220896   7.751   5.358   1.638  0.4149 -0.2481 -0.1911
 6980TIP3    H120897   7.809   5.316   1.701  0.8173  0.3136 -0.1793
 6980TIP3    H220898   7.728   5.288   1.576  2.3098 -0.1409 -1.0608
 6981TIP3   OH220899   6.010   6.378   6.141  0.3391  0.5256  0.5145
 6981TIP3    H120900   6.063   6.421   6.207  1.7830 -1.8075  0.9933
 6981TIP3    H220901   6.053   6.293   6.127 -1.7262 -0.3480 -1.1055
 6982TIP3   OH220902   0.293   4.868   2.817 -0.1996  0.0775 -0.2321
 6982TIP3    H120903   0.256   4.790   2.859 -0.4521 -0.2067 -0.9655
 6982TIP3    H220904   0.218   4.927   2.806 -0.1622  0.0904 -0.4198
 6983TIP3   OH220905   5.819   0.930   2.172 -0.2121 -0.3415  0.0714
 6983TIP3    H120906   5.844   0.904   2.084 -1.5268  2.1888 -1.1645
 6983TIP3    H220907   5.862   0.866   2.229  0.4013 -2.2804 -2.3750
 6984TIP3   OH220908   6.716   0.981   0.416  0.0288  0.0100 -0.2439
 6984TIP3    H120909   6.774   0.986   0.341  0.4543  1.0400  0.1443
 6984TIP3    H220910   6.764   0.928   0.480 -0.1490 -0.4956 -0.5244
 6985TIP3   OH220911   4.098   5.075   3.644  0.4725 -0.3098 -0.2451
 6985TIP3    H120912   4.113   5.006   3.708  1.5536  0.5369  0.4482
 6985TIP3    H220913   4.027   5.128   3.683  0.8360 -0.0408  0.0602
 6986TIP3   OH220914   7.666   3.523   3.838 -0.7392  0.0052  0.3522
 6986TIP3    H120915   7.612   3.450   3.871 -0.6574 -0.8201 -1.2591
 6986TIP3    H220916   7.729   3.538   3.908 -0.8349 -1.4091  0.7875
 6987TIP3   OH220917   3.582   7.409   6.120  0.2111  0.6349 -0.1152
 6987TIP3    H120918   3.618   7.342   6.061  0.6005 -0.4861  1.3345
 6987TIP3    H220919   3.618   7.491   6.088  1.3566 -0.0826 -0.7289
 6988TIP3   OH220920   5.986   4.132   4.853  0.4170  0.0927  0.3721
 6988TIP3    H120921   6.033   4.136   4.936  0.9797 -0.8791  0.1075
 6988TIP3    H220922   6.053   4.121   4.787 -0.1940 -3.4959  0.1626
 6989TIP3   OH220923   7.266   6.817   4.624 -0.5403  0.3274  0.1344
 6989TIP3    H120924   7.295   6.816   4.715 -0.6405 -0.3490  0.1637
 6989TIP3    H220925   7.177   6.782   4.627 -0.0091 -1.1401 -0.3940
 6990TIP3   OH220926   0.128   1.330   0.776  0.0017  0.1161 -0.2742
 6990TIP3    H120927   0.101   1.420   0.795  0.2115  0.0469  0.3642
 6990TIP3    H220928   0.045   1.282   0.769 -0.0798  0.1503  0.4379
 6991TIP3   OH220929   7.428   5.508   0.227  0.1445  0.4379  0.3086
 6991TIP3    H120930   7.460   5.556   0.303  0.4399  0.9670 -0.1440
 6991TIP3    H220931   7.375   5.571   0.179 -0.3541 -0.0051  0.2711
 6992TIP3   OH220932   2.774   2.814   3.809 -0.2474  0.2283 -0.2403
 6992TIP3    H120933   2.687   2.778   3.829  1.3037 -3.3038  0.9171
 6992TIP3    H220934   2.793   2.872   3.882 -1.0505 -0.0755  0.2232
 6993TIP3   OH220935   0.504   2.576   3.249  0.0877 -0.0345 -0.2152
 6993TIP3    H120936   0.480   2.661   3.287  1.8829  0.9448 -1.1590
 6993TIP3    H220937   0.494   2.514   3.322 -0.1875  1.1580  0.8016
 6994TIP3   OH220938   4.704   4.807   3.097  0.2889  0.2762  0.6061
 6994TIP3    H120939   4.676   4.894   3.128  1.1955  0.7136  0.2507
 6994TIP3    H220940   4.710   4.754   3.176 -2.6362 -0.2107  0.6067
 6995TIP3   OH220941   3.713   4.884   3.045 -0.1619  0.3538  0.5455
 6995TIP3    H120942   3.783   4.897   2.982 -0.8516  0.8874 -0.1221
 6995TIP3    H220943   3.757   4.850   3.123  0.6564 -0.6404 -0.3214
 6996TIP3   OH220944   6.200   0.556   1.229 -0.5960 -0.2514 -0.3717
 6996TIP3    H120945   6.207   0.651   1.224 -0.8284 -0.1539  0.9007
 6996TIP3    H220946   6.289   0.525   1.213 -0.7326  0.0893 -2.0228
 6997TIP3   OH220947   0.862   6.339   4.907  0.0214 -0.0258 -0.2007
 6997TIP3    H120948   0.948   6.365   4.942 -0.5638  1.9834 -0.1247
 6997TIP3    H220949   0.865   6.365   4.815 -0.0859 -1.1064 -0.5226
 6998TIP3   OH220950   7.149   2.685   3.490 -0.4020  0.7746  0.0112
 6998TIP3    H120951   7.076   2.630   3.461  0.1680  0.2951 -0.5378
 6998TIP3    H220952   7.212   2.682   3.418  0.4734  0.6083  0.7601
 6999TIP3   OH220953   8.004   0.247   6.650 -0.0443 -0.7732 -0.6988
 6999TIP3    H120954   7.955   0.201   6.718 -0.3166  1.3894  0.7006
 6999TIP3    H220955   8.032   0.328   6.693  1.6773 -0.3170 -2.5519
 7000TIP3   OH220956   4.600   2.890   1.676 -0.5083 -0.2883 -0.2139
 7000TIP3    H120957   4.568   2.801   1.661 -0.7070 -0.1421 -0.6884
 7000TIP3    H220958   4.634   2.918   1.591 -1.5729  0.5289 -0.3899
 7001TIP3   OH220959   2.802   6.715   4.349 -0.5477 -0.3709  0.1828
 7001TIP3    H120960   2.744   6.744   4.279  0.0228 -2.1093 -1.1013
 7001TIP3    H220961   2.878   6.678   4.303  0.4949 -0.2952  1.7652
 7002TIP3   OH220962   3.769   6.156   6.546 -0.4255  0.6274 -0.2070
 7002TIP3    H120963   3.705   6.172   6.615  1.6665  0.1893  1.9595
 7002TIP3    H220964   3.847   6.204   6.573  1.5524 -2.1567 -0.4734
 7003TIP3   OH220965   1.071   5.330   3.907 -0.1852  0.4492 -0.3522
 7003TIP3    H120966   1.136   5.352   3.840  0.2103 -1.1943 -0.5649
 7003TIP3    H220967   1.121   5.329   3.989 -0.1897  0.3130 -0.3508
 7004TIP3   OH220968   7.275   2.555   4.325  0.2631 -0.6582 -0.0916
 7004TIP3    H120969   7.293   2.552   4.419  0.9554 -1.4947 -0.2386
 7004TIP3    H220970   7.229   2.473   4.306  0.0159 -0.4391 -0.4603
 7005TIP3   OH220971   1.034   7.661   6.089  0.7549 -0.0675 -0.1512
 7005TIP3    H120972   1.066   7.736   6.038  1.1190  0.1713  0.4140
 7005TIP3    H220973   1.033   7.588   6.027  0.5514  0.3694 -0.6674
 7006TIP3   OH220974   4.945   3.189   5.408 -0.5464  0.5851  0.1442
 7006TIP3    H120975   4.860   3.173   5.450 -0.0998 -2.0233  0.2172
 7006TIP3    H220976   4.995   3.239   5.473 -0.7487 -1.1826  1.7449
 7007TIP3   OH220977   0.818   0.505   6.027  0.0571  0.1510  0.1385
 7007TIP3    H120978   0.852   0.420   6.055  0.9573  0.1392 -0.9159
 7007TIP3    H220979   0.739   0.518   6.079 -0.1864 -1.4114  0.1975
 7008TIP3   OH220980   5.960   4.246   1.652  0.1279  0.2839  0.4270
 7008TIP3    H120981   6.035   4.249   1.593 -1.0767 -0.3736 -1.2300
 7008TIP3    H220982   5.994   4.206   1.733  1.5172 -0.0837 -0.3115
 7009TIP3   OH220983   4.633   2.778   5.812  0.4453  0.4319  0.8363
 7009TIP3    H120984   4.646   2.865   5.775 -0.4576  0.0342 -0.4713
 7009TIP3    H220985   4.611   2.722   5.737  0.2223 -0.7552  1.7501
 7010TIP3   OH220986   6.327   6.698   5.089  0.1232 -0.1101  0.1377
 7010TIP3    H120987   6.260   6.638   5.120  0.0123 -0.7719 -1.2840
 7010TIP3    H220988   6.288   6.739   5.011  1.0832  0.0402 -0.2797
 7011TIP3   OH220989   4.497   4.155   4.879  0.5529  1.3326 -0.0359
 7011TIP3    H120990   4.487   4.150   4.974  0.4091 -2.1986 -0.1369
 7011TIP3    H220991   4.591   4.163   4.866  1.0679 -2.2585  0.4820
 7012TIP3   OH220992   0.353   5.196   3.861 -0.1861 -0.3429  0.5025
 7012TIP3    H120993   0.263   5.173   3.885 -0.2757 -0.6316 -0.0876
 7012TIP3    H220994   0.343   5.248   3.781  0.3208 -3.1309 -1.5353
 7013TIP3   OH220995   7.996   7.192   4.321 -0.5841 -0.0056  0.5288
 7013TIP3    H120996   8.072   7.231   4.277 -1.4953  2.1684  0.7284
 7013TIP3    H220997   7.967   7.124   4.262  0.1118  0.7403 -0.7254
 7014TIP3   OH220998   6.272   7.174   4.311 -0.4215  0.2607  0.1635
 7014TIP3    H120999   6.180   7.191   4.331 -0.7928  0.8551 -1.8374
 7014TIP3    H221000   6.317   7.257   4.327 -0.0738 -0.1824  1.7115
 7015TIP3   OH221001   0.283   2.435   1.057 -0.1752 -0.2889 -0.0333
 7015TIP3    H121002   0.362   2.452   1.006 -1.5324  0.8199 -1.8749
 7015TIP3    H221003   0.240   2.362   1.011 -0.2168 -0.9450  1.0018
 7016TIP3   OH221004   7.158   7.442   5.147  0.6265  0.3403 -0.1586
 7016TIP3    H121005   7.252   7.458   5.153  0.4201  1.2477  1.1726
 7016TIP3    H221006   7.134   7.409   5.233 -0.5304  1.7395  0.0968
 7017TIP3   OH221007   0.580   5.357   2.667  0.2150  0.1102 -0.3404
 7017TIP3    H121008   0.553   5.449   2.666 -1.9600 -0.4574 -0.9615
 7017TIP3    H221009   0.500   5.310   2.694  1.2806 -1.5936 -0.0232
 7018TIP3   OH221010   3.149   7.537   3.588 -0.1258 -0.0588  0.3135
 7018TIP3    H121011   3.068   7.521   3.540  0.4727 -2.0146 -0.1475
 7018TIP3    H221012   3.122   7.589   3.664 -1.6921 -0.0765 -0.1921
 7019TIP3   OH221013   1.263   2.396   1.179  0.1138 -0.0792 -0.4724
 7019TIP3    H121014   1.344   2.378   1.132 -0.0723  0.8717 -1.1871
 7019TIP3    H221015   1.284   2.470   1.236 -0.1292 -0.1158 -0.3327
 7020TIP3   OH221016   1.149   2.960   1.940 -0.5228 -0.6325  0.0744
 7020TIP3    H121017   1.169   2.928   1.852  0.2525 -0.8882  0.3401
 7020TIP3    H221018   1.124   3.052   1.926  1.3201 -0.1420 -0.2384
 7021TIP3   OH221019   5.718   1.209   3.474 -0.3574  0.5402 -0.7194
 7021TIP3    H121020   5.757   1.278   3.527 -1.7536 -0.0263  1.1643
 7021TIP3    H221021   5.667   1.255   3.408 -2.4244  1.4563  1.3680
 7022TIP3   OH221022   1.701   3.577   1.551  0.0578  0.4254 -0.6528
 7022TIP3    H121023   1.758   3.516   1.597 -0.2576  2.4375  2.6941
 7022TIP3    H221024   1.612   3.542   1.563  0.1751 -0.8740 -2.9179
 7023TIP3   OH221025   2.208   7.701   1.086  0.4657 -0.4600  0.4918
 7023TIP3    H121026   2.295   7.734   1.064  0.4736 -0.0184  1.1599
 7023TIP3    H221027   2.196   7.624   1.030  0.7340  0.2554 -0.5709
 7024TIP3   OH221028   7.946   4.264   6.780 -0.5701  0.3541 -0.0366
 7024TIP3    H121029   7.914   4.175   6.771 -0.6701  0.4532 -0.7284
 7024TIP3    H221030   7.986   4.284   6.695  0.9569  0.3793  0.6670
 7025TIP3   OH221031   5.960   7.782   6.692 -0.0199 -0.3809  0.7625
 7025TIP3    H121032   5.914   7.855   6.734 -1.0094 -1.7480  2.1588
 7025TIP3    H221033   6.006   7.822   6.618 -1.8904  1.3835  0.4631
 7026TIP3   OH221034   5.366   0.751   0.256  0.0868  0.4772  0.3997
 7026TIP3    H121035   5.332   0.691   0.323 -0.1888  0.3581  0.1515
 7026TIP3    H221036   5.367   0.699   0.176 -1.8802  1.3261 -0.2277
 7027TIP3   OH221037   7.400   3.812   1.733 -0.2314  0.1860  0.2717
 7027TIP3    H121038   7.464   3.796   1.802 -0.1887  1.8442  0.6519
 7027TIP3    H221039   7.420   3.746   1.666  4.3483  2.7241 -1.3287
 7028TIP3   OH221040   4.591   2.614   4.220  0.1921  0.3151  0.0518
 7028TIP3    H121041   4.533   2.662   4.280  1.2433  1.4259  0.2118
 7028TIP3    H221042   4.626   2.543   4.274  0.1670  0.5623  0.4019
 7029TIP3   OH221043   4.320   1.839   5.744 -0.0788  0.4795 -0.0815
 7029TIP3    H121044   4.287   1.789   5.670  1.2942  0.5174 -0.7499
 7029TIP3    H221045   4.340   1.774   5.811 -2.8277  0.5511  0.9526
 7030TIP3   OH221046   1.311   6.572   4.683  0.3143  0.6307  0.5311
 7030TIP3    H121047   1.341   6.653   4.642 -0.2541  0.7530  0.3386
 7030TIP3    H221048   1.368   6.504   4.648  0.9223  0.9715  0.8425
 7031TIP3   OH221049   2.936   3.133   5.737  0.3504 -0.1581 -0.6184
 7031TIP3    H121050   2.876   3.094   5.674  0.6563  0.0156 -1.0173
 7031TIP3    H221051   2.906   3.223   5.745  0.3723 -0.1541 -0.5841
 7032TIP3   OH221052   5.981   0.785   6.079 -0.0129 -0.1019 -0.5589
 7032TIP3    H121053   5.897   0.825   6.058 -1.3611 -2.1646  0.5150
 7032TIP3    H221054   6.045   0.854   6.066 -1.8385  1.4787 -1.6456
 7033TIP3   OH221055   3.215   6.758   6.470  0.0945  0.0581  0.5006
 7033TIP3    H121056   3.259   6.678   6.497 -0.0684 -0.4609 -0.7025
 7033TIP3    H221057   3.122   6.741   6.486 -0.1971 -0.9073 -1.7944
 7034TIP3   OH221058   7.872   7.523   4.847  0.2888 -0.5320 -0.0068
 7034TIP3    H121059   7.788   7.555   4.812 -0.7910 -1.1678  1.8865
 7034TIP3    H221060   7.890   7.444   4.796 -0.1889 -0.3211 -0.5185
 7035TIP3   OH221061   3.459   3.431   2.345 -0.3707  0.0616 -0.4541
 7035TIP3    H121062   3.523   3.443   2.275  1.6513  1.6920  1.5273
 7035TIP3    H221063   3.454   3.516   2.388 -2.6249 -0.5018  0.5303
 7036TIP3   OH221064   1.103   6.778   0.404  0.1541 -0.0735 -0.0616
 7036TIP3    H121065   1.024   6.797   0.454 -0.0754  2.0970 -1.1203
 7036TIP3    H221066   1.168   6.754   0.471 -0.8677  0.0215  1.0090
 7037TIP3   OH221067   2.450   2.352   0.726  0.2649 -0.2143 -0.5317
 7037TIP3    H121068   2.516   2.417   0.702 -2.0390  2.8924  0.8798
 7037TIP3    H221069   2.380   2.363   0.661 -0.5769 -0.5632  0.2847
 7038TIP3   OH221070   2.164   4.328   5.205 -0.1832 -0.0592  0.2997
 7038TIP3    H121071   2.259   4.312   5.205 -0.0553  0.5897 -1.2835
 7038TIP3    H221072   2.155   4.416   5.241  0.1516  1.3106 -2.6778
 7039TIP3   OH221073   3.359   3.277   5.893  0.3368  0.0646  0.0434
 7039TIP3    H121074   3.383   3.197   5.846 -0.5344 -1.4554  2.0528
 7039TIP3    H221075   3.292   3.318   5.839  1.5279  0.0522 -1.5347
 7040TIP3   OH221076   0.720   2.305   3.755 -0.3867 -0.3979 -0.9886
 7040TIP3    H121077   0.675   2.353   3.685 -0.4675  0.6118 -0.2752
 7040TIP3    H221078   0.701   2.356   3.834  0.9153 -0.7001 -0.4651
 7041TIP3   OH221079   7.534   1.334   4.923  0.4790  0.4159 -0.1347
 7041TIP3    H121080   7.454   1.376   4.891  0.7772  0.6474 -0.5912
 7041TIP3    H221081   7.591   1.331   4.846  0.4202 -0.9272 -0.1367
 7042TIP3   OH221082   0.980   1.368   6.320  0.2830 -0.1242 -0.1479
 7042TIP3    H121083   0.999   1.447   6.270 -2.3114  2.1493  2.1096
 7042TIP3    H221084   0.905   1.329   6.275  0.6191 -0.4801 -0.4061
 7043TIP3   OH221085   3.636   6.791   0.476 -0.4055 -0.6195 -0.4782
 7043TIP3    H121086   3.706   6.855   0.464 -2.5237  1.9537 -0.2509
 7043TIP3    H221087   3.655   6.721   0.414  3.4651 -1.2040  1.0721
 7044TIP3   OH221088   2.710   6.828   0.119 -0.0760 -0.2370  0.5881
 7044TIP3    H121089   2.723   6.771   0.194 -2.0285 -1.4069  0.1015
 7044TIP3    H221090   2.793   6.875   0.110  0.5909 -0.9028  2.7436
 7045TIP3   OH221091   6.401   0.614   3.921  0.1306  0.0844  0.3005
 7045TIP3    H121092   6.482   0.567   3.941 -1.6043 -2.2265  2.5048
 7045TIP3    H221093   6.391   0.605   3.826  2.5178  0.6227 -0.0477
 7046TIP3   OH221094   5.328   3.514   5.183 -0.0344  0.2058  0.0249
 7046TIP3    H121095   5.391   3.495   5.252  0.5108  0.4505 -0.3984
 7046TIP3    H221096   5.370   3.581   5.130 -0.6601  0.3864 -0.2553
 7047TIP3   OH221097   3.999   0.610   4.344  0.4929 -0.2298 -0.1090
 7047TIP3    H121098   3.988   0.609   4.249 -0.3478  1.5457 -0.0753
 7047TIP3    H221099   3.914   0.639   4.378  1.3307  1.0380  1.0369
 7048TIP3   OH221100   3.174   7.121   2.346 -0.0219 -0.0973  0.3551
 7048TIP3    H121101   3.163   7.027   2.328  1.3538  0.0950 -1.8075
 7048TIP3    H221102   3.145   7.164   2.266  0.0376  1.2986  1.0650
 7049TIP3   OH221103   2.478   2.224   4.616  0.0862 -0.1584  0.0383
 7049TIP3    H121104   2.426   2.149   4.586 -0.3331  0.1248  0.0480
 7049TIP3    H221105   2.442   2.298   4.567  1.5744 -0.2079 -1.1991
 7050TIP3   OH221106   1.405   2.713   1.924  0.1305  0.6296  0.8165
 7050TIP3    H121107   1.329   2.727   1.868  1.1153  0.1360 -0.6766
 7050TIP3    H221108   1.379   2.753   2.008 -2.0228 -0.1201  0.5901
 7051TIP3   OH221109   6.491   7.484   5.426 -0.1352  0.2253  0.7337
 7051TIP3    H121110   6.511   7.560   5.371  0.5062 -1.3713 -1.3565
 7051TIP3    H221111   6.401   7.461   5.403 -0.5301  0.6334  1.7832
 7052TIP3   OH221112   2.755   1.735   1.556 -0.1551 -0.3978 -1.0052
 7052TIP3    H121113   2.688   1.758   1.621  1.0485 -2.1400  0.9889
 7052TIP3    H221114   2.774   1.817   1.511 -2.4292  0.4819 -0.5245
 7053TIP3   OH221115   0.159   2.886   4.628  0.2307  0.1771  0.5803
 7053TIP3    H121116   0.231   2.874   4.566  0.1001  1.7914  0.0384
 7053TIP3    H221117   0.088   2.923   4.574 -0.7256 -0.6046  1.2585
 7054TIP3   OH221118   3.360   6.138   3.205 -0.1802 -0.4880 -0.0451
 7054TIP3    H121119   3.309   6.105   3.279 -0.5844 -1.4402 -0.7325
 7054TIP3    H221120   3.447   6.103   3.219 -0.4991 -1.5071 -0.5334
 7055TIP3   OH221121   3.823   1.508   5.080 -0.3161 -0.2377  0.1331
 7055TIP3    H121122   3.919   1.498   5.077 -0.2744  0.1986 -0.0955
 7055TIP3    H221123   3.792   1.425   5.115  0.1833 -0.2079  0.6627
 7056TIP3   OH221124   5.183   1.639   2.817  0.2756  0.3830  0.5451
 7056TIP3    H121125   5.095   1.654   2.783 -0.0322 -1.7538  0.2885
 7056TIP3    H221126   5.220   1.727   2.827 -2.2790  1.4197  1.7587
 7057TIP3   OH221127   1.915   5.722   5.726  0.7793  0.3938 -0.6847
 7057TIP3    H121128   1.995   5.743   5.773  0.9194 -0.7109 -0.3971
 7057TIP3    H221129   1.945   5.686   5.642  0.6054 -0.2530 -0.4777
 7058TIP3   OH221130   6.083   5.357   6.019  0.0164 -0.2786  0.6902
 7058TIP3    H121131   6.139   5.288   6.055  0.0199 -0.4584  0.3408
 7058TIP3    H221132   6.001   5.313   5.998  0.5818 -0.5703 -1.1330
 7059TIP3   OH221133   0.396   7.279   4.817  0.0816 -0.2694 -0.3634
 7059TIP3    H121134   0.359   7.205   4.769  0.5428 -0.4914 -0.3777
 7059TIP3    H221135   0.335   7.351   4.799 -0.0342 -0.4812 -0.8525
 7060TIP3   OH221136   1.481   5.894   4.990  0.1988 -0.2170  0.0125
 7060TIP3    H121137   1.533   5.974   4.993  2.1207 -1.3731 -0.4193
 7060TIP3    H221138   1.402   5.918   4.941  0.5280  1.4992  0.2752
 7061TIP3   OH221139   3.861   1.505   0.503  0.0890  0.3843 -0.3323
 7061TIP3    H121140   3.852   1.590   0.546  1.1756 -0.0723  0.8548
 7061TIP3    H221141   3.935   1.517   0.443 -1.4598  1.0387 -2.2336
 7062TIP3   OH221142   8.211   2.894   2.171 -0.1269 -0.0348  0.4063
 7062TIP3    H121143   8.207   2.800   2.189 -1.8894  0.2366  1.7814
 7062TIP3    H221144   8.242   2.900   2.080 -1.8050 -2.0372 -0.3914
 7063TIP3   OH221145   0.567   2.823   6.227  0.4318 -0.2217  0.2684
 7063TIP3    H121146   0.652   2.855   6.196  0.3952 -1.7198 -1.6054
 7063TIP3    H221147   0.586   2.737   6.263 -0.3502 -0.8127 -0.6975
 7064TIP3   OH221148   7.333   6.462   0.796  0.1034  0.3823  0.0517
 7064TIP3    H121149   7.353   6.458   0.889 -1.5288 -1.0566  0.4060
 7064TIP3    H221150   7.241   6.489   0.792 -0.2019 -0.7056 -1.0621
 7065TIP3   OH221151   6.119   1.933   6.357 -0.0167  0.1449  0.0987
 7065TIP3    H121152   6.134   1.992   6.284  3.7604 -0.0831  0.5157
 7065TIP3    H221153   6.154   1.979   6.433 -0.6671 -1.0198  1.1464
 7066TIP3   OH221154   4.897   0.026   5.078 -0.6507  0.1309 -0.2611
 7066TIP3    H121155   4.882  -0.068   5.065 -1.8476  0.3560 -0.7010
 7066TIP3    H221156   4.809   0.063   5.084 -0.1876  1.1552  0.4868
 7067TIP3   OH221157   3.289   0.748   1.897 -0.1447  0.7316  0.2385
 7067TIP3    H121158   3.205   0.751   1.850 -0.0949 -2.5548 -0.3274
 7067TIP3    H221159   3.296   0.657   1.927  3.3163  0.8000  0.0758
 7068TIP3   OH221160   8.241   3.449   4.429  0.3129 -0.0383  0.8205
 7068TIP3    H121161   8.308   3.397   4.473  0.5413  0.5311  1.1544
 7068TIP3    H221162   8.242   3.533   4.475 -0.1214  0.2242  0.3544
 7069TIP3   OH221163   6.906   0.243   5.640  0.7197  0.2883  0.1108
 7069TIP3    H121164   6.844   0.245   5.567  0.8218 -2.2310 -0.1495
 7069TIP3    H221165   6.862   0.291   5.710 -0.0222  1.4833 -1.1328
 7070TIP3   OH221166   0.173   0.626   6.206  0.8967 -0.4332 -0.8540
 7070TIP3    H121167   0.213   0.539   6.202  0.5165 -0.7123  0.8004
 7070TIP3    H221168   0.202   0.662   6.290  1.0545  1.0610 -1.5179
 7071TIP3   OH221169   4.280   6.533   2.818  0.0608 -0.5564  0.6108
 7071TIP3    H121170   4.260   6.548   2.726  1.3993  0.9942  0.5308
 7071TIP3    H221171   4.257   6.441   2.833 -2.6807 -0.1492 -0.5535
 7072TIP3   OH221172   2.376   3.971   5.765 -0.4420  0.6005 -0.4332
 7072TIP3    H121173   2.371   3.911   5.840  1.0326  0.5142 -0.3761
 7072TIP3    H221174   2.312   4.040   5.785  0.2575  0.8253  1.1461
 7073TIP3   OH221175   4.082   6.423   3.761  0.1219  0.0124  0.2648
 7073TIP3    H121176   4.124   6.372   3.830 -1.2103 -1.5931 -0.0504
 7073TIP3    H221177   3.995   6.443   3.795 -0.1792  0.0858 -0.5235
 7074TIP3   OH221178   6.259   0.338   4.076 -0.0397 -0.0403  0.5412
 7074TIP3    H121179   6.253   0.382   4.161 -1.4521  0.5129  0.1870
 7074TIP3    H221180   6.173   0.297   4.065  0.5924 -1.2590 -0.0194
 7075TIP3   OH221181   1.678   4.000   5.568 -0.5614 -0.1715 -0.3351
 7075TIP3    H121182   1.633   4.084   5.578 -1.4184 -0.7289  0.5437
 7075TIP3    H221183   1.637   3.960   5.491 -1.9158 -0.8637  0.7051
 7076TIP3   OH221184   0.065   7.494   4.974 -0.9703  0.2871 -0.4604
 7076TIP3    H121185   0.075   7.431   4.903  0.2225  0.3867 -0.4029
 7076TIP3    H221186  -0.021   7.533   4.960 -0.3905  0.9723 -2.3888
 7077TIP3   OH221187   4.210   0.279   3.098  0.2028 -0.2301  0.2910
 7077TIP3    H121188   4.165   0.323   3.026  1.7332  0.0759 -0.5273
 7077TIP3    H221189   4.204   0.186   3.077 -1.9488 -0.3948  1.3725
 7078TIP3   OH221190   5.537   0.136   1.485  0.2623 -0.4551 -0.2559
 7078TIP3    H121191   5.575   0.104   1.567  0.9875  0.3231 -0.2753
 7078TIP3    H221192   5.445   0.149   1.505  0.7354  1.3944  0.9883
 7079TIP3   OH221193   5.515   0.475   0.804  0.2183  0.1831 -0.7325
 7079TIP3    H121194   5.567   0.506   0.878 -2.1496 -0.3757  1.3171
 7079TIP3    H221195   5.529   0.540   0.735  0.0144  2.6160  1.3570
 7080TIP3   OH221196   5.857   3.193   5.142 -0.0756  0.0006  0.2684
 7080TIP3    H121197   5.867   3.141   5.222 -1.6782  0.1061  0.5677
 7080TIP3    H221198   5.767   3.177   5.114  0.2754  0.4351 -1.1984
 7081TIP3   OH221199   5.601   7.602   0.362  0.0970 -0.2663 -0.0710
 7081TIP3    H121200   5.687   7.622   0.397 -0.2761  2.5262 -0.5190
 7081TIP3    H221201   5.603   7.508   0.345  3.5429 -0.0708 -1.4251
 7082TIP3   OH221202   6.055   1.620   1.760 -0.3922  0.1816 -0.8731
 7082TIP3    H121203   5.999   1.622   1.838 -1.1908 -0.1032 -1.4216
 7082TIP3    H221204   6.026   1.695   1.708  0.7779  0.9313 -0.4834
 7083TIP3   OH221205   5.010   2.367   3.273  0.0001 -0.0874 -0.0909
 7083TIP3    H121206   5.055   2.390   3.192 -0.3198  0.6660 -0.0647
 7083TIP3    H221207   4.918   2.383   3.255 -0.2359 -1.3493 -0.0507
 7084TIP3   OH221208   5.521   7.500   2.911 -0.1068 -0.5623 -0.0046
 7084TIP3    H121209   5.579   7.436   2.869  1.4150  0.2800  0.7217
 7084TIP3    H221210   5.581   7.561   2.954 -1.4714  1.7516 -1.2127
 7085TIP3   OH221211   8.031   0.637   1.935 -0.4178 -0.1525  0.4722
 7085TIP3    H121212   7.969   0.701   1.971 -0.6317 -0.6402  1.0073
 7085TIP3    H221213   8.014   0.557   1.986  0.7838 -0.2447  0.7583
 7086TIP3   OH221214   1.526   6.743   2.968 -0.0289 -0.0890  0.2082
 7086TIP3    H121215   1.492   6.655   2.987 -0.8498  0.2166  0.2286
 7086TIP3    H221216   1.611   6.728   2.927 -0.2509 -0.9030  0.0250
 7087TIP3   OH221217   4.200   4.367   4.428  0.5864 -0.8208  0.2719
 7087TIP3    H121218   4.110   4.380   4.461  0.5815 -0.3147  0.0712
 7087TIP3    H221219   4.192   4.370   4.333  0.9497  0.2425  0.2607
 7088TIP3   OH221220   7.008   2.381   4.097 -0.3288  0.4075 -0.4422
 7088TIP3    H121221   7.092   2.350   4.131 -0.2560  0.6182 -0.4294
 7088TIP3    H221222   6.950   2.382   4.173 -0.3915  0.0985 -0.4829
 7089TIP3   OH221223   7.781   3.098   0.115  0.0587 -0.2010 -0.5594
 7089TIP3    H121224   7.832   3.117   0.193 -0.7249 -1.0058  0.1654
 7089TIP3    H221225   7.696   3.068   0.147 -0.3458 -0.3672 -1.7143
 7090TIP3   OH221226   6.918   0.034   5.414 -0.4370 -0.2887  0.2593
 7090TIP3    H121227   6.959   0.069   5.493 -0.2785  0.8431 -0.3067
 7090TIP3    H221228   6.831   0.075   5.413  0.0176  0.7158 -0.7937
 7091TIP3   OH221229   6.816   5.545   4.831 -0.2725  0.6567 -0.6782
 7091TIP3    H121230   6.828   5.457   4.866 -1.7867  1.0699  1.0433
 7091TIP3    H221231   6.853   5.541   4.743  0.1747 -1.5344 -0.4561
 7092TIP3   OH221232   1.990   7.458   3.399 -0.0286 -0.4287 -0.1235
 7092TIP3    H121233   1.912   7.439   3.450 -0.3883  2.2843  0.5321
 7092TIP3    H221234   2.063   7.429   3.454 -0.5220 -0.9153  0.2723
 7093TIP3   OH221235   4.459   3.083   0.122 -0.0615  0.2282  0.5913
 7093TIP3    H121236   4.423   3.154   0.068  0.5235  0.1638  0.1112
 7093TIP3    H221237   4.384   3.054   0.174  0.0327  2.1920  1.9192
 7094TIP3   OH221238   4.325   3.788   6.524  0.2687  0.2574  0.0197
 7094TIP3    H121239   4.319   3.882   6.544  0.9137  0.3806 -0.3341
 7094TIP3    H221240   4.251   3.749   6.570  0.4310  0.8393  0.7936
 7095TIP3   OH221241   7.197   1.480   1.958 -0.2984 -0.0767 -0.5496
 7095TIP3    H121242   7.133   1.494   2.028 -0.1486  1.4094 -0.6811
 7095TIP3    H221243   7.240   1.397   1.981 -0.9111 -0.1031  0.5876
 7096TIP3   OH221244   5.687   2.323   0.716  0.0898 -0.1304 -0.4372
 7096TIP3    H121245   5.621   2.273   0.763  0.0355 -0.2618 -0.6521
 7096TIP3    H221246   5.638   2.366   0.645 -0.3160  2.0414  1.0378
 7097TIP3   OH221247   7.876   4.505   6.386  0.1883  0.2403  0.2999
 7097TIP3    H121248   7.880   4.418   6.347  2.0234 -0.4283  1.7849
 7097TIP3    H221249   7.829   4.559   6.323 -0.5976 -1.7166 -0.8555
 7098TIP3   OH221250   0.024   3.778   4.811 -0.2826  0.3501 -0.3264
 7098TIP3    H121251   0.002   3.713   4.878  1.3758 -0.4350 -0.4942
 7098TIP3    H221252   0.052   3.727   4.735  0.4628  1.2321 -0.6754
 7099TIP3   OH221253   5.995   3.913   3.083 -0.0848 -0.2632  0.1415
 7099TIP3    H121254   6.047   3.961   3.018  0.8634 -0.2391  0.9008
 7099TIP3    H221255   5.969   3.833   3.037  2.3567 -1.2640  0.3272
 7100TIP3   OH221256   7.681   4.030   4.191  0.3059 -0.3073  0.0322
 7100TIP3    H121257   7.744   4.090   4.231 -0.4557 -0.4878  1.5866
 7100TIP3    H221258   7.621   4.086   4.143  0.6302  0.0064 -0.0133
 7101TIP3   OH221259   4.260   4.364   6.678  0.5692  0.5759  0.0978
 7101TIP3    H121260   4.259   4.432   6.745  0.2584  1.0528 -0.3832
 7101TIP3    H221261   4.211   4.291   6.717  0.7859  0.6770  0.5612
 7102TIP3   OH221262   5.606   5.239   0.057 -0.0447 -0.3037  0.1072
 7102TIP3    H121263   5.527   5.280   0.092  0.7225  2.1828 -0.8755
 7102TIP3    H221264   5.584   5.146   0.052 -2.1456  0.0076  1.8071
 7103TIP3   OH221265   5.203   5.648   6.312 -0.0850  0.0697  0.3222
 7103TIP3    H121266   5.260   5.644   6.389 -0.0393  0.0608  0.2883
 7103TIP3    H221267   5.196   5.741   6.292 -1.6330  0.2193  1.4712
 7104TIP3   OH221268   0.023   4.404   0.134  0.4039  0.3083 -0.0103
 7104TIP3    H121269  -0.011   4.477   0.184 -0.7810 -0.7401  0.7526
 7104TIP3    H221270   0.070   4.445   0.061 -1.3781  1.8224 -0.3787
 7105TIP3   OH221271   3.625   2.453   4.767  0.2958  0.4428  0.8138
 7105TIP3    H121272   3.632   2.513   4.693  1.2293  0.8124  1.1907
 7105TIP3    H221273   3.648   2.506   4.844 -2.5352  0.6060  1.6680
 7106TIP3   OH221274   3.211   1.145   4.391  0.1233  0.3896 -0.6124
 7106TIP3    H121275   3.219   1.066   4.338 -0.5942 -0.2512  0.2117
 7106TIP3    H221276   3.124   1.139   4.431  0.4757  1.0590  0.3048
 7107TIP3   OH221277   3.050   1.882   2.660  0.2196 -0.5099  0.6359
 7107TIP3    H121278   3.020   1.891   2.750  0.1369 -1.5449  0.7303
 7107TIP3    H221279   3.119   1.948   2.650 -0.8802  0.7221  0.9359
 7108TIP3   OH221280   5.448   6.685   3.935 -0.5526  0.6414  0.5308
 7108TIP3    H121281   5.499   6.613   3.973 -1.5351  0.1594  0.9561
 7108TIP3    H221282   5.512   6.754   3.922  0.3156 -0.1245  0.5940
 7109TIP3   OH221283   0.534   7.436   5.119  0.7513 -0.0088 -0.7696
 7109TIP3    H121284   0.620   7.419   5.159  1.0549 -1.0497 -1.8095
 7109TIP3    H221285   0.554   7.492   5.044  0.6472 -0.9561 -1.5182
 7110TIP3   OH221286   7.006   2.250   4.751 -0.6034 -0.3601  0.3359
 7110TIP3    H121287   6.942   2.310   4.712 -0.0009  0.5369  0.6880
 7110TIP3    H221288   7.055   2.215   4.676 -0.1333  0.5691  0.1913
 7111TIP3   OH221289   8.014   5.105   1.149 -0.4206 -0.4378 -0.4459
 7111TIP3    H121290   8.009   5.035   1.213  1.1726 -1.1576 -1.0501
 7111TIP3    H221291   8.108   5.116   1.133 -0.7228  0.6219 -1.6672
 7112TIP3   OH221292   3.737   6.503   1.031 -0.0450 -0.3465 -0.6115
 7112TIP3    H121293   3.800   6.500   1.103  0.5685 -2.3925 -1.1592
 7112TIP3    H221294   3.737   6.414   0.996  0.2434  0.7284 -3.6237
 7113TIP3   OH221295   4.870   2.912   5.946  0.5064  0.0751  0.3347
 7113TIP3    H121296   4.931   2.857   5.995  1.3200  1.2236  0.6589
 7113TIP3    H221297   4.876   2.998   5.988  0.6603  0.9049 -1.2976
 7114TIP3   OH221298   3.524   5.575   0.858  0.5767  0.2254 -0.4467
 7114TIP3    H121299   3.535   5.480   0.853 -0.6580  0.0776 -0.6070
 7114TIP3    H221300   3.518   5.603   0.766  1.0479  0.4821 -0.4041
 7115TIP3   OH221301   5.811   5.501   4.805  0.3488  0.1957 -0.4790
 7115TIP3    H121302   5.875   5.567   4.778  1.1287  0.5222  1.8920
 7115TIP3    H221303   5.861   5.442   4.862 -0.8757 -1.1101 -0.7055
 7116TIP3   OH221304   0.457   5.920   1.790 -0.4234  0.2356 -0.2148
 7116TIP3    H121305   0.391   5.989   1.800 -1.0251 -0.6183  2.2099
 7116TIP3    H221306   0.486   5.900   1.879  3.2205  0.5992 -1.1670
 7117TIP3   OH221307   2.766   4.597   5.888  0.0682  0.0583  0.0386
 7117TIP3    H121308   2.744   4.561   5.802  0.7804  1.5016 -0.7734
 7117TIP3    H221309   2.844   4.548   5.915  0.7613  0.6381 -0.8471
 7118TIP3   OH221310   6.158   3.462   6.082 -0.2227  0.6783  0.1028
 7118TIP3    H121311   6.113   3.395   6.029 -1.5588  0.7561  1.1067
 7118TIP3    H221312   6.251   3.443   6.069 -0.5579 -1.0455 -0.0884
 7119TIP3   OH221313   4.594   0.909   1.068 -0.0647 -0.4111 -0.2702
 7119TIP3    H121314   4.674   0.856   1.067  0.5975  0.5143  1.0680
 7119TIP3    H221315   4.572   0.921   0.976  0.7590 -1.5257 -0.6357
 7120TIP3   OH221316   7.582   2.613   3.877  0.1852  0.3323 -0.3907
 7120TIP3    H121317   7.558   2.653   3.793 -0.7392 -0.0826 -0.3333
 7120TIP3    H221318   7.671   2.580   3.863 -1.0832 -2.6959 -2.3564
 7121TIP3   OH221319   6.795   5.350   6.297  0.2891 -0.3048 -0.1721
 7121TIP3    H121320   6.865   5.320   6.354 -0.2410 -0.3574  0.4640
 7121TIP3    H221321   6.716   5.343   6.350  0.0171  1.3763 -0.2813
 7122TIP3   OH221322   2.190   6.538   6.002  0.5980 -0.5017  0.1495
 7122TIP3    H121323   2.192   6.464   6.061  1.1329 -1.3542 -0.8990
 7122TIP3    H221324   2.215   6.502   5.917 -0.2201  0.6589 -0.6203
 7123TIP3   OH221325   5.973   7.765   5.488 -0.1316 -0.4676  0.4834
 7123TIP3    H121326   6.014   7.827   5.428 -1.9791  2.5442  2.1130
 7123TIP3    H221327   5.903   7.725   5.437  0.7983 -0.9441 -0.4594
 7124TIP3   OH221328   4.235   6.340   5.145  0.2685  0.1629 -0.5083
 7124TIP3    H121329   4.247   6.270   5.081 -1.7770  0.5922 -1.4699
 7124TIP3    H221330   4.228   6.296   5.229  1.7831 -0.5247 -0.7284
 7125TIP3   OH221331   3.355   4.360   3.690  0.0611  0.5034 -0.5530
 7125TIP3    H121332   3.406   4.404   3.758  1.3912 -0.5768 -0.8154
 7125TIP3    H221333   3.413   4.359   3.613  0.1970 -1.8816 -0.4886
 7126TIP3   OH221334   6.454   3.724   1.682 -0.2837 -0.2902  0.1903
 7126TIP3    H121335   6.394   3.759   1.748  0.8369 -1.4857  1.9426
 7126TIP3    H221336   6.536   3.771   1.696 -0.0435 -0.5251 -0.3884
 7127TIP3   OH221337   5.572   0.928   5.703 -0.1937  0.0922 -0.3322
 7127TIP3    H121338   5.569   0.942   5.797 -0.2418  0.6174 -0.4088
 7127TIP3    H221339   5.486   0.892   5.681 -0.0282 -0.4389 -0.1149
 7128TIP3   OH221340   0.592   5.433   0.086 -0.1301 -0.2241  0.1304
 7128TIP3    H121341   0.522   5.464   0.029 -1.2427  0.0170  1.5509
 7128TIP3    H221342   0.666   5.490   0.067 -0.8498  0.6125 -0.2162
 7129TIP3   OH221343   6.636   6.841   2.927  0.3414  0.1959  0.1706
 7129TIP3    H121344   6.699   6.771   2.911 -1.5669 -1.3534 -1.0718
 7129TIP3    H221345   6.642   6.898   2.850 -1.0743 -1.0630 -0.9345
 7130TIP3   OH221346   5.248   7.110   0.037  0.0532 -0.2941  0.0440
 7130TIP3    H121347   5.181   7.053   0.073 -0.7140  0.7453  0.3258
 7130TIP3    H221348   5.327   7.090   0.087 -0.7211  0.3491  1.5831
 7131TIP3   OH221349   7.719   4.568   1.209  0.6266 -0.3844  0.0993
 7131TIP3    H121350   7.671   4.510   1.149 -0.5579  0.9367 -0.2720
 7131TIP3    H221351   7.756   4.636   1.152 -0.8129  1.0940  0.8558
 7132TIP3   OH221352   0.408   6.785   1.410 -0.1531 -0.3201 -0.0151
 7132TIP3    H121353   0.328   6.832   1.388 -1.4011 -0.4629  3.5364
 7132TIP3    H221354   0.475   6.852   1.414 -0.3535  0.0224 -1.6005
 7133TIP3   OH221355   3.140   4.022   0.582  0.1149  0.1266  0.6273
 7133TIP3    H121356   3.166   4.079   0.655  1.4428 -0.5221  0.6855
 7133TIP3    H221357   3.212   3.959   0.574 -0.9401 -1.0393  0.0327
 7134TIP3   OH221358   4.281   0.642   0.990  0.0085  0.3002  0.0864
 7134TIP3    H121359   4.344   0.628   0.920 -0.1593 -1.2349  0.2159
 7134TIP3    H221360   4.201   0.600   0.959 -0.3562  0.4540  0.7909
 7135TIP3   OH221361   6.348   5.421   4.585  0.6499 -0.3365  0.0529
 7135TIP3    H121362   6.273   5.388   4.633  1.7222  0.6092  2.5871
 7135TIP3    H221363   6.378   5.347   4.533 -1.3536 -1.0402 -0.1810
 7136TIP3   OH221364   8.279   2.500   3.674  0.0522 -0.4704  0.0328
 7136TIP3    H121365   8.224   2.515   3.598 -1.7349  2.0769  1.7073
 7136TIP3    H221366   8.369   2.501   3.639 -0.7132  0.2956 -2.0645
 7137TIP3   OH221367   1.266   6.058   5.313  0.1751 -0.2701 -0.2837
 7137TIP3    H121368   1.282   6.038   5.405 -0.4399 -1.2266 -0.3786
 7137TIP3    H221369   1.348   6.098   5.283  0.7282 -0.8565  0.4145
 7138TIP3   OH221370   6.795   6.842   3.449  0.2501 -0.2514 -0.4870
 7138TIP3    H121371   6.841   6.847   3.366  2.3673  0.1743  0.6261
 7138TIP3    H221372   6.706   6.870   3.430  0.5041 -0.8094 -2.7006
 7139TIP3   OH221373   8.061   0.573   5.430 -0.2586 -0.1994  0.4111
 7139TIP3    H121374   8.068   0.523   5.349  1.3161 -0.0082  0.3900
 7139TIP3    H221375   7.993   0.638   5.413 -0.9914 -1.1192 -0.2258
 7140TIP3   OH221376   6.485   0.071   5.651  0.5093  0.3588  0.4043
 7140TIP3    H121377   6.502   0.011   5.723 -0.6122  0.9294  1.1690
 7140TIP3    H221378   6.397   0.106   5.668 -0.7307 -1.0405 -2.3157
 7141TIP3   OH221379   3.876   7.387   2.372  0.0558 -0.3050 -0.1936
 7141TIP3    H121380   3.887   7.475   2.406 -0.6759  0.9664 -2.9698
 7141TIP3    H221381   3.785   7.382   2.344  0.5569 -1.2108 -1.8454
 7142TIP3   OH221382   5.555   7.717   1.896 -0.3271 -0.6600  0.4905
 7142TIP3    H121383   5.535   7.745   1.985 -0.1724  0.9384  0.0500
 7142TIP3    H221384   5.481   7.662   1.871 -0.6862 -0.5949  1.3734
 7143TIP3   OH221385   3.535   6.043   0.381 -0.2462  0.3554  0.1772
 7143TIP3    H121386   3.458   6.072   0.429 -0.1779 -0.2130  0.6423
 7143TIP3    H221387   3.533   6.093   0.300 -1.2983  0.0801  0.0225
 7144TIP3   OH221388   6.939   3.114   2.249  0.7877 -0.7623  0.2887
 7144TIP3    H121389   6.860   3.093   2.200  0.4946  0.4191  0.2284
 7144TIP3    H221390   7.007   3.125   2.183  0.3906  0.8416  0.0946
 7145TIP3   OH221391   7.790   4.992   5.353 -0.2042 -0.2506 -0.0688
 7145TIP3    H121392   7.714   4.988   5.296 -0.4078  1.6428 -0.0119
 7145TIP3    H221393   7.859   5.029   5.297  0.9527 -2.6241 -0.3406
 7146TIP3   OH221394   6.888   2.652   1.298  0.2329 -0.3226 -0.1467
 7146TIP3    H121395   6.907   2.704   1.376 -0.2728  0.6465 -0.6438
 7146TIP3    H221396   6.927   2.702   1.226 -0.6820 -0.3702 -0.6940
 7147TIP3   OH221397   0.707   1.253   4.284  0.3165  0.2405 -0.3466
 7147TIP3    H121398   0.639   1.215   4.339  0.2326 -0.7202 -1.0839
 7147TIP3    H221399   0.788   1.213   4.316  0.4016  0.5179 -0.2117
 7148TIP3   OH221400   7.434   2.953   1.951 -0.6418 -0.7746  0.5103
 7148TIP3    H121401   7.507   2.985   1.898 -0.2970 -0.5747  1.0886
 7148TIP3    H221402   7.447   2.994   2.036 -1.8534 -0.1510  0.4117
 7149TIP3   OH221403   3.208   4.414   1.260 -0.6690 -0.5853 -0.3910
 7149TIP3    H121404   3.208   4.498   1.214  0.2991 -0.9058 -0.9884
 7149TIP3    H221405   3.162   4.432   1.342  1.2970  1.0543  0.4345
 7150TIP3   OH221406   7.244   1.992   3.335 -0.3974 -0.0744 -0.3359
 7150TIP3    H121407   7.234   2.011   3.242  1.0310 -0.8409 -0.6712
 7150TIP3    H221408   7.277   2.074   3.373  2.8830 -0.8034 -1.2631
 7151TIP3   OH221409   1.107   3.377   3.269  0.3801 -0.1378  0.5770
 7151TIP3    H121410   1.066   3.463   3.279 -1.0013 -0.9880  3.4323
 7151TIP3    H221411   1.196   3.389   3.301  0.3116  0.2894  0.6199
 7152TIP3   OH221412   3.612   2.658   3.020 -0.3659  0.5722 -0.2923
 7152TIP3    H121413   3.642   2.674   2.930  0.1891 -0.8911 -0.3916
 7152TIP3    H221414   3.668   2.588   3.052 -1.2921  0.3140  0.8204
 7153TIP3   OH221415   3.910   3.895   5.441  0.1309 -0.2660 -0.6868
 7153TIP3    H121416   3.817   3.880   5.454  0.0278 -0.1720 -1.2943
 7153TIP3    H221417   3.924   3.879   5.348  0.4268  1.2124 -0.9166
 7154TIP3   OH221418   4.773   3.218   5.664  0.0801  0.0917  0.7615
 7154TIP3    H121419   4.717   3.251   5.734 -0.1458  0.9645  0.1771
 7154TIP3    H221420   4.756   3.275   5.590 -0.9412 -1.7834 -0.5504
 7155TIP3   OH221421   4.624   7.350   4.870  0.6748 -0.1769 -0.3314
 7155TIP3    H121422   4.693   7.339   4.806 -0.1398 -0.9605 -1.0969
 7155TIP3    H221423   4.588   7.262   4.883 -0.6587  0.3108 -0.5256
 7156TIP3   OH221424   0.137   1.450   2.749  0.0498 -0.0653 -0.1522
 7156TIP3    H121425   0.186   1.458   2.667 -0.3032 -0.7682 -0.4364
 7156TIP3    H221426   0.204   1.457   2.817  0.7557 -2.1826 -0.5483
 7157TIP3   OH221427   6.571   7.494   5.102 -0.1812  0.2707 -0.8646
 7157TIP3    H121428   6.631   7.521   5.032  0.6826  0.8660  0.0715
 7157TIP3    H221429   6.560   7.572   5.156  1.2588 -0.7858  1.1170
 7158TIP3   OH221430   7.604   3.140   3.400 -0.6686 -0.3940  0.1561
 7158TIP3    H121431   7.559   3.056   3.409 -0.8561 -0.2126  1.0469
 7158TIP3    H221432   7.696   3.120   3.422 -1.1489  0.0748  3.0875
 7159TIP3   OH221433   6.250   0.371   4.523  0.3292 -0.6617 -0.2133
 7159TIP3    H121434   6.166   0.401   4.488  0.7904  0.3132 -0.5055
 7159TIP3    H221435   6.253   0.407   4.612  1.6236  1.7043 -1.1282
 7160TIP3   OH221436   4.608   4.630   2.402 -0.2616 -0.9049 -0.5491
 7160TIP3    H121437   4.621   4.694   2.472  0.6167 -2.1466  0.5052
 7160TIP3    H221438   4.518   4.600   2.413 -0.2108 -0.9036 -0.0734
 7161TIP3   OH221439   6.710   7.354   6.763  0.0457  0.4115 -0.0571
 7161TIP3    H121440   6.667   7.278   6.724  2.9854 -1.6353  0.3421
 7161TIP3    H221441   6.713   7.419   6.692  0.0642 -0.9990 -1.3980
 7162TIP3   OH221442   4.807   2.591   3.516  0.1689  0.0516 -0.5154
 7162TIP3    H121443   4.867   2.660   3.487  2.4396  0.1892  3.6487
 7162TIP3    H221444   4.857   2.510   3.503 -1.4091 -0.6502 -2.8268
 7163TIP3   OH221445   7.720   6.046   3.033  0.3819  0.0676 -0.0256
 7163TIP3    H121446   7.785   6.066   2.966 -0.8283 -0.4449 -1.4096
 7163TIP3    H221447   7.687   5.959   3.011  0.1507 -0.2474  1.4234
 7164TIP3   OH221448   4.582   7.184   1.532  0.1705 -0.2920 -0.2525
 7164TIP3    H121449   4.633   7.121   1.481  0.7493  1.1933 -1.6228
 7164TIP3    H221450   4.494   7.147   1.536  0.5240 -1.2314 -0.9097
 7165TIP3   OH221451   6.407   1.184   5.509  0.0772 -0.1715 -0.2053
 7165TIP3    H121452   6.386   1.273   5.482  2.2629  0.6289  0.5089
 7165TIP3    H221453   6.381   1.129   5.435 -0.4399  1.1568 -1.0427
 7166TIP3   OH221454   5.476   6.094   2.535 -0.2249 -0.0566 -0.2342
 7166TIP3    H121455   5.472   6.002   2.560 -0.0358 -0.9019 -2.9806
 7166TIP3    H221456   5.416   6.101   2.460  0.2628  1.8930 -0.4874
 7167TIP3   OH221457   7.916   1.209   2.494 -0.0042 -0.3858 -0.3907
 7167TIP3    H121458   7.950   1.203   2.583  0.6655 -0.3736 -0.6398
 7167TIP3    H221459   7.976   1.156   2.442  0.3040  0.5669 -1.0235
 7168TIP3   OH221460   4.101   4.081   5.402 -0.0331 -0.1149  1.2547
 7168TIP3    H121461   4.132   4.060   5.314  0.3383  2.3943  0.7169
 7168TIP3    H221462   4.074   3.997   5.438  2.0120 -1.5805 -0.3654
 7169TIP3   OH221463   6.578   7.597   0.079 -0.1489  0.2242  0.5374
 7169TIP3    H121464   6.537   7.528   0.027 -1.5963 -0.8694  2.9307
 7169TIP3    H221465   6.535   7.678   0.051 -0.8496 -0.3199  0.0100
 7170TIP3   OH221466   5.514   4.159   5.258 -0.0053 -0.7898 -0.2456
 7170TIP3    H121467   5.564   4.239   5.276 -2.9953  0.6629  2.6260
 7170TIP3    H221468   5.464   4.179   5.179 -0.2996  0.0121  0.1269
 7171TIP3   OH221469   2.563   0.935   3.494  0.2337  0.3194  0.3932
 7171TIP3    H121470   2.595   0.872   3.430  0.5773  1.2127 -0.3402
 7171TIP3    H221471   2.483   0.895   3.528  0.9602 -0.9489  0.6751
 7172TIP3   OH221472   0.091   5.223   3.732 -0.1564  0.4101 -0.3328
 7172TIP3    H121473   0.110   5.259   3.645  1.3978 -0.7989 -0.5305
 7172TIP3    H221474   0.053   5.296   3.781  1.8731  2.0206 -1.0553
 7173TIP3   OH221475   1.995   3.424   5.540 -0.1758  0.2300 -0.2109
 7173TIP3    H121476   1.976   3.504   5.489 -1.0164  0.9050  1.1145
 7173TIP3    H221477   1.928   3.362   5.512 -0.9375  0.7592  0.3953
 7174TIP3   OH221478   1.039   5.483   2.752  0.3098 -0.3178  0.1612
 7174TIP3    H121479   0.989   5.401   2.757 -0.0100 -0.1258  0.0573
 7174TIP3    H221480   1.070   5.487   2.662 -0.3327  0.0703 -0.0432
 7175TIP3   OH221481   6.355   7.783   5.515  0.5683  0.0776  0.4238
 7175TIP3    H121482   6.294   7.843   5.473 -0.2797 -0.7702  0.4145
 7175TIP3    H221483   6.300   7.725   5.567  1.2852 -1.1877 -0.1861
 7176TIP3   OH221484   4.366   1.133   4.042 -0.0066  0.0956 -0.2808
 7176TIP3    H121485   4.382   1.068   3.974 -1.9135  0.3987 -1.0867
 7176TIP3    H221486   4.413   1.211   4.013  0.5613 -0.2734 -0.3751
 7177TIP3   OH221487   2.579   5.374   4.176 -0.5735 -0.5819 -0.2893
 7177TIP3    H121488   2.527   5.415   4.245 -1.9146 -3.2484  0.4065
 7177TIP3    H221489   2.576   5.281   4.196  0.8066 -1.2478 -2.7900
 7178TIP3   OH221490   3.862   6.732   2.825 -0.4402  0.1960 -0.7274
 7178TIP3    H121491   3.899   6.668   2.886  1.7678  0.4938 -1.6495
 7178TIP3    H221492   3.770   6.708   2.818 -0.3482 -0.9823  1.2703
 7179TIP3   OH221493   6.557   1.516   5.177 -0.4408  0.1357 -0.5170
 7179TIP3    H121494   6.602   1.431   5.178  3.0891  1.8531 -1.0255
 7179TIP3    H221495   6.608   1.571   5.236 -2.7616  1.9336 -0.0422
 7180TIP3   OH221496   1.515   6.882   4.211 -0.6230 -0.3736 -0.6003
 7180TIP3    H121497   1.605   6.864   4.238 -1.1970 -1.2525  0.8547
 7180TIP3    H221498   1.466   6.805   4.239 -2.0939  0.7495  0.0302
 7181TIP3   OH221499   3.261   0.066   2.902  0.0438  0.9131 -0.1183
 7181TIP3    H121500   3.347   0.031   2.878 -0.2272 -0.1761  0.4018
 7181TIP3    H221501   3.200  -0.002   2.875 -0.5542  1.1887  0.5233
 7182TIP3   OH221502   3.188   5.976   6.109 -0.0450 -0.1047  1.1835
 7182TIP3    H121503   3.242   5.983   6.188  0.4599 -0.0596  0.8431
 7182TIP3    H221504   3.240   5.923   6.049  0.0192  0.6750  0.5235
 7183TIP3   OH221505   2.795   6.070   3.524  0.2190  0.8655 -0.2438
 7183TIP3    H121506   2.884   6.041   3.546 -0.4007 -0.1093  1.1633
 7183TIP3    H221507   2.745   5.989   3.516 -0.6433  1.4181 -0.5863
 7184TIP3   OH221508   1.581   0.068   0.422  0.1644 -0.0187  0.1244
 7184TIP3    H121509   1.574   0.074   0.517  3.5925 -1.1473  0.5906
 7184TIP3    H221510   1.543  -0.017   0.400 -1.1216  0.4694  0.3531
 7185TIP3   OH221511   4.606   4.883   0.693  0.3271 -0.2389  0.7014
 7185TIP3    H121512   4.638   4.793   0.696  0.6748 -0.1470 -0.0504
 7185TIP3    H221513   4.512   4.876   0.710  0.5134 -0.6458  1.5767
 7186TIP3   OH221514   0.591   7.657   3.740 -0.8124  0.0565  0.2212
 7186TIP3    H121515   0.525   7.671   3.808 -1.0183  0.2684 -0.0231
 7186TIP3    H221516   0.675   7.663   3.786 -0.9416  0.5112  0.3983
 7187TIP3   OH221517   3.510   5.641   5.369 -0.7125  0.6473 -0.0858
 7187TIP3    H121518   3.533   5.560   5.415 -0.3068  1.7337  1.7157
 7187TIP3    H221519   3.575   5.649   5.299  1.0017  0.8289  1.4665
 7188TIP3   OH221520   2.088   4.265   4.359  0.1140 -0.0695  1.1550
 7188TIP3    H121521   2.148   4.338   4.376  1.2035 -1.1415  1.9824
 7188TIP3    H221522   2.108   4.238   4.270 -0.5044  0.8085  0.7296
 7189TIP3   OH221523   7.016   5.957   6.484  0.1566  0.0910 -0.1754
 7189TIP3    H121524   6.946   5.946   6.419  0.6062  1.7485 -0.9913
 7189TIP3    H221525   7.036   5.868   6.512 -2.6699 -0.4421  0.5517
 7190TIP3   OH221526   5.286   7.606   1.781 -0.2735 -0.5499 -0.5245
 7190TIP3    H121527   5.193   7.624   1.764 -0.0730  0.0527 -0.9995
 7190TIP3    H221528   5.333   7.653   1.712  0.4411  0.0093  0.3173
 7191TIP3   OH221529   7.508   6.783   2.341  0.4552  0.3519 -0.1873
 7191TIP3    H121530   7.525   6.721   2.270 -0.6483  0.6338 -0.7292
 7191TIP3    H221531   7.542   6.741   2.419  0.6077 -0.4993 -0.6998
 7192TIP3   OH221532   7.751   7.639   1.529  0.9429  0.0114 -0.4156
 7192TIP3    H121533   7.804   7.718   1.520 -0.5293  0.9757 -0.9015
 7192TIP3    H221534   7.792   7.591   1.601  0.9042  2.0062  1.0108
 7193TIP3   OH221535   1.893   2.103   5.021  0.0157  0.0062 -0.0752
 7193TIP3    H121536   1.847   2.022   5.041  0.2184  0.1050  0.8522
 7193TIP3    H221537   1.948   2.082   4.946 -0.1016 -0.6484  0.0192
 7194TIP3   OH221538   1.558   6.336   2.571  0.0343  0.1192 -0.1951
 7194TIP3    H121539   1.532   6.247   2.547 -0.8335  0.1207  0.6811
 7194TIP3    H221540   1.623   6.324   2.639 -0.3872  0.1482  0.2194
 7195TIP3   OH221541   2.946   6.335   1.317 -0.2635 -0.0995  0.2572
 7195TIP3    H121542   2.943   6.247   1.354 -1.1256  0.2667  1.1019
 7195TIP3    H221543   3.025   6.375   1.354  0.1317 -0.5090 -0.1348
 7196TIP3   OH221544   8.117   1.520   0.686 -0.2697 -0.0288  0.3533
 7196TIP3    H121545   8.097   1.465   0.762  2.0399 -0.4458  0.7259
 7196TIP3    H221546   8.200   1.562   0.707 -0.0081  0.5505 -1.5799
 7197TIP3   OH221547   7.114   1.592   0.817  0.1326  0.9814  0.0246
 7197TIP3    H121548   7.029   1.577   0.859  0.9073  0.2199  1.3664
 7197TIP3    H221549   7.125   1.517   0.759 -0.4358  1.4730 -0.7448
 7198TIP3   OH221550   2.125   4.382   2.984  0.1149 -0.1790  0.0202
 7198TIP3    H121551   2.063   4.448   2.955  0.2473 -1.0498 -2.5184
 7198TIP3    H221552   2.194   4.431   3.027 -0.7804  1.1279  0.0039
 7199TIP3   OH221553   6.493   0.453   4.240  0.2733 -0.1537  0.6551
 7199TIP3    H121554   6.471   0.405   4.320 -0.2630 -0.7893  0.1333
 7199TIP3    H221555   6.557   0.519   4.269  1.1219 -1.2534  1.3634
 7200TIP3   OH221556   2.400   4.727   0.346 -0.4091 -0.6532  0.1133
 7200TIP3    H121557   2.328   4.716   0.408  0.5330 -1.6096  1.0922
 7200TIP3    H221558   2.411   4.640   0.306 -1.7854  0.2243 -2.3468
 7201TIP3   OH221559   4.378   2.446   1.935 -0.4915 -0.3911 -0.6691
 7201TIP3    H121560   4.308   2.504   1.906 -0.9952  0.1216  1.4434
 7201TIP3    H221561   4.456   2.479   1.890 -0.9599  1.2792 -0.3319
 7202TIP3   OH221562   0.278   6.205   3.685  0.2690 -0.4006 -0.1614
 7202TIP3    H121563   0.315   6.245   3.764 -0.3114  0.4279 -0.2954
 7202TIP3    H221564   0.265   6.278   3.625 -0.7053 -0.8019 -0.4616
 7203TIP3   OH221565   4.355   1.707   1.833  0.0418 -0.5733  0.1388
 7203TIP3    H121566   4.447   1.711   1.859  0.1456 -2.4845  0.2110
 7203TIP3    H221567   4.310   1.667   1.908 -0.9755  0.8633  0.3429
 7204TIP3   OH221568   6.884   4.505   6.424 -0.2062  0.2250 -0.0262
 7204TIP3    H121569   6.919   4.591   6.445  2.1600 -0.7523  0.3502
 7204TIP3    H221570   6.960   4.446   6.428 -1.8711 -2.0345  0.5913
 7205TIP3   OH221571   0.457   2.005   6.555 -0.1777 -0.0261 -0.2740
 7205TIP3    H121572   0.459   2.082   6.612 -0.2035  0.1021 -0.4446
 7205TIP3    H221573   0.534   2.016   6.498  0.2555 -0.5117  0.2045
 7206TIP3   OH221574   4.165   2.024   0.863  0.4055 -0.1148  0.0542
 7206TIP3    H121575   4.073   2.002   0.843  0.9582 -1.0540 -1.6967
 7206TIP3    H221576   4.179   2.109   0.823  0.5597 -0.4335 -0.5845
 7207TIP3   OH221577   5.801   7.303   3.263 -0.1435  0.8151  0.0411
 7207TIP3    H121578   5.722   7.324   3.313  0.9949  0.6066  2.0695
 7207TIP3    H221579   5.846   7.386   3.253 -0.1707  0.7896 -0.2997
 7208TIP3   OH221580   0.109   3.213   2.071 -0.0079 -0.2530 -0.2115
 7208TIP3    H121581   0.037   3.170   2.025  0.3119  0.5083 -1.4613
 7208TIP3    H221582   0.179   3.148   2.073  0.6758  0.3341 -2.5983
 7209TIP3   OH221583   3.521   7.700   4.917 -0.0639  0.0351  0.2621
 7209TIP3    H121584   3.514   7.613   4.958 -1.3236 -0.7031 -1.4051
 7209TIP3    H221585   3.443   7.747   4.947 -1.0134 -0.5225 -1.2023
 7210TIP3   OH221586   8.084   4.138   1.084  0.5872  0.4999 -0.7126
 7210TIP3    H121587   8.034   4.070   1.037  0.8044 -1.0498  1.2081
 7210TIP3    H221588   8.017   4.193   1.124  0.4080  0.1299 -0.5007
 7211TIP3   OH221589   5.239   0.008   5.966  0.2290  0.6513  0.5962
 7211TIP3    H121590   5.288  -0.074   5.960 -1.1031 -0.0683 -1.7569
 7211TIP3    H221591   5.301   0.075   5.936  0.2914 -0.0229 -0.8379
 7212TIP3   OH221592   1.818   3.119   1.716 -0.4154  0.2585  0.7761
 7212TIP3    H121593   1.788   3.055   1.781  0.4017 -0.7724  0.1710
 7212TIP3    H221594   1.891   3.075   1.672 -1.0125  0.8912 -0.9053
 7213TIP3   OH221595   6.763   1.685   4.596 -0.1952  0.6187 -0.2648
 7213TIP3    H121596   6.777   1.672   4.503 -0.0188  1.4071 -0.3520
 7213TIP3    H221597   6.674   1.720   4.603 -0.0306  1.0243 -0.1794
 7214TIP3   OH221598   6.481   0.808   2.459 -0.5042  0.1260 -0.1753
 7214TIP3    H121599   6.487   0.881   2.397  0.1093  0.7570  0.6146
 7214TIP3    H221600   6.393   0.816   2.497 -1.1056 -0.6081 -1.3609
 7215TIP3   OH221601   7.121   6.526   0.083 -0.1988 -1.0905  0.4568
 7215TIP3    H121602   7.114   6.555   0.173 -0.1891  0.3468  0.0193
 7215TIP3    H221603   7.046   6.467   0.070 -1.9650  1.0028  0.5833
 7216TIP3   OH221604   0.350   7.148   1.600 -0.0866  0.0151 -0.2147
 7216TIP3    H121605   0.262   7.116   1.579  0.2364 -0.1930 -1.3220
 7216TIP3    H221606   0.409   7.083   1.562  0.5567  0.5924 -0.2202
 7217TIP3   OH221607   7.918   6.057   5.230  0.1407 -0.4682 -0.3489
 7217TIP3    H121608   7.928   5.968   5.196  0.2720 -0.1103 -1.2571
 7217TIP3    H221609   7.984   6.109   5.184 -1.2076  0.4912 -1.2697
 7218TIP3   OH221610   6.086   5.937   2.944  0.2065  1.0715  0.2378
 7218TIP3    H121611   6.135   5.949   2.863 -2.4194 -0.6138 -1.7364
 7218TIP3    H221612   6.094   5.844   2.964  0.2214  1.3349  1.5285
 7219TIP3   OH221613   5.675   7.059   4.064 -0.3266 -0.0219  0.4429
 7219TIP3    H121614   5.767   7.056   4.091 -0.2289 -3.8958  0.2478
 7219TIP3    H221615   5.628   7.081   4.144  0.6594 -0.3914  1.1548
 7220TIP3   OH221616   5.096   6.576   0.727  0.8787  0.1558  0.0435
 7220TIP3    H121617   5.155   6.627   0.671  0.3168  1.1902  0.3576
 7220TIP3    H221618   5.030   6.541   0.667 -0.3343  2.1289  0.1197
 7221TIP3   OH221619   2.055   3.595   3.878  0.1946 -0.1234 -0.0583
 7221TIP3    H121620   2.124   3.600   3.812 -0.0981  0.6218 -0.3280
 7221TIP3    H221621   2.056   3.505   3.908 -0.0044 -0.6106 -1.4521
 7222TIP3   OH221622   6.525   3.880   0.512  0.2480  0.0169  0.1881
 7222TIP3    H121623   6.487   3.941   0.450 -1.1528 -0.1319  0.8517
 7222TIP3    H221624   6.527   3.928   0.595  0.5566 -0.3193  0.3768
 7223TIP3   OH221625   1.075   3.286   3.003  0.1610  0.0513  0.4982
 7223TIP3    H121626   1.078   3.208   2.948  0.5354 -1.5211  2.6076
 7223TIP3    H221627   1.164   3.295   3.037  0.1805  1.5636  0.1242
 7224TIP3   OH221628   3.737   1.309   1.207  0.7856 -0.4721  0.4770
 7224TIP3    H121629   3.688   1.284   1.129 -1.2555  1.6111  1.0071
 7224TIP3    H221630   3.805   1.242   1.214 -0.2615 -1.9197 -1.8611
 7225TIP3   OH221631   4.685   3.780   6.530  0.4518 -0.3677  0.1606
 7225TIP3    H121632   4.671   3.786   6.436 -0.2845 -1.0308  0.2173
 7225TIP3    H221633   4.744   3.705   6.541 -0.5733 -1.1764  0.3067
 7226TIP3   OH221634   4.082   7.419   0.392  0.3453 -0.2164 -0.9138
 7226TIP3    H121635   4.028   7.344   0.417  0.3207 -0.5995 -2.0497
 7226TIP3    H221636   4.132   7.439   0.471 -1.7086  0.4186  0.3162
 7227TIP3   OH221637   5.262   1.233   2.357 -0.5734 -0.0167 -0.0150
 7227TIP3    H121638   5.357   1.235   2.352 -0.3892  0.3056  2.3655
 7227TIP3    H221639   5.239   1.141   2.345  0.1242 -0.2555  0.4188
 7228TIP3   OH221640   0.679   4.813   0.526  0.1172 -0.0769 -0.3529
 7228TIP3    H121641   0.618   4.876   0.488  1.5971  1.5602 -0.1364
 7228TIP3    H221642   0.715   4.858   0.603  0.3608 -1.6600  0.5127
 7229TIP3   OH221643   5.307   4.229   4.320 -0.0020 -1.0021 -0.2247
 7229TIP3    H121644   5.382   4.248   4.376 -0.0702 -0.5708 -0.2790
 7229TIP3    H221645   5.237   4.206   4.381 -0.1570 -0.2566 -0.1106
 7230TIP3   OH221646   6.327   5.643   2.158 -0.0056 -0.1433 -0.2001
 7230TIP3    H121647   6.383   5.651   2.081  1.0878 -0.8304  0.5081
 7230TIP3    H221648   6.314   5.549   2.169 -1.4334  0.0058 -0.4337
 7231TIP3   OH221649   1.187   4.231   2.746  0.1521 -0.2827 -0.4739
 7231TIP3    H121650   1.270   4.275   2.724  0.8180 -1.9833 -1.5806
 7231TIP3    H221651   1.128   4.254   2.675 -0.1771  0.4967  0.0397
 7232TIP3   OH221652   2.241   7.833   2.523  0.1351 -0.1947 -0.2896
 7232TIP3    H121653   2.182   7.821   2.598  0.9883  0.7169  0.5469
 7232TIP3    H221654   2.289   7.751   2.517 -0.8843 -0.7792 -0.6984
 7233TIP3   OH221655   7.735   4.699   6.231 -0.2242 -0.1600 -0.0331
 7233TIP3    H121656   7.751   4.731   6.143  1.2451 -1.2175 -0.1965
 7233TIP3    H221657   7.682   4.767   6.272 -0.0362  0.8575 -1.3896
 7234TIP3   OH221658   0.573   0.175   0.419 -0.2093  0.1385  1.0713
 7234TIP3    H121659   0.664   0.202   0.411 -0.1833 -0.2852 -0.2733
 7234TIP3    H221660   0.571   0.084   0.389 -1.0553  0.1135  1.1599
 7235TIP3   OH221661   5.583   4.434   5.258 -0.3342 -0.5351 -0.3423
 7235TIP3    H121662   5.564   4.504   5.321  0.9728  1.0556 -1.6296
 7235TIP3    H221663   5.504   4.428   5.204  0.1068  1.1604 -1.2558
 7236TIP3   OH221664   1.844   5.923   6.607 -0.1083  0.1751 -0.5852
 7236TIP3    H121665   1.836   6.019   6.603  2.2253  0.7256  3.0755
 7236TIP3    H221666   1.763   5.894   6.650  0.2121  0.8437  0.5094
 7237TIP3   OH221667   5.552   3.741   2.020  0.3118  0.3561  0.4437
 7237TIP3    H121668   5.604   3.731   2.100 -0.0666 -0.5630  0.5844
 7237TIP3    H221669   5.572   3.663   1.968  0.6415  1.0008 -0.4137
 7238TIP3   OH221670   5.362   0.847   5.495 -0.1298  0.4434 -0.0505
 7238TIP3    H121671   5.389   0.789   5.424 -1.5321 -0.2515 -0.0564
 7238TIP3    H221672   5.369   0.935   5.458  1.1524  0.2459 -0.3425
 7239TIP3   OH221673   1.567   5.543   2.968 -0.0358 -0.5788 -0.0276
 7239TIP3    H121674   1.498   5.500   2.916 -1.3129  0.5264  0.6786
 7239TIP3    H221675   1.587   5.623   2.920 -1.4393  0.6016  1.2365
 7240TIP3   OH221676   4.260   1.636   4.336  0.3513 -0.2943 -0.0845
 7240TIP3    H121677   4.297   1.599   4.256  1.1499  1.7126 -0.7253
 7240TIP3    H221678   4.336   1.674   4.382 -0.4711  1.2607  0.0728
 7241TIP3   OH221679   1.096   0.366   2.648 -0.7591 -0.5660  0.0357
 7241TIP3    H121680   1.174   0.311   2.651 -0.8116 -0.6676 -0.4738
 7241TIP3    H221681   1.026   0.309   2.682 -0.7916 -0.7768 -0.3841
 7242TIP3   OH221682   5.248   7.399   3.915  0.1228 -0.2202 -0.3462
 7242TIP3    H121683   5.202   7.371   3.994 -2.3608  1.5832 -1.0361
 7242TIP3    H221684   5.335   7.426   3.946 -0.2975 -0.8519  1.5085
 7243TIP3   OH221685   4.980   6.548   4.124 -0.6684 -0.0913  0.2104
 7243TIP3    H121686   5.059   6.602   4.116 -2.1058  2.9710  3.7970
 7243TIP3    H221687   5.005   6.477   4.182 -0.0719 -0.3529 -0.3465
 7244TIP3   OH221688   4.363   2.614   3.803  0.1491  0.6385 -0.1968
 7244TIP3    H121689   4.457   2.613   3.790 -0.0661 -0.1982 -2.0200
 7244TIP3    H221690   4.344   2.533   3.850  0.5205  1.8385  2.1629
 7245TIP3   OH221691   1.566   4.801   2.073  0.2069  0.1048  0.4678
 7245TIP3    H121692   1.567   4.832   1.983  1.8944 -3.5955 -1.0067
 7245TIP3    H221693   1.649   4.830   2.110 -0.0613  0.8122  0.5204
 7246TIP3   OH221694   4.463   2.373   5.054  0.3018  1.0264 -0.4479
 7246TIP3    H121695   4.488   2.341   5.141 -1.0702  2.4884  0.5320
 7246TIP3    H221696   4.525   2.331   4.994  0.5981 -0.8865  1.0991
 7247TIP3   OH221697   1.340   5.219   0.776 -0.1507 -0.8218 -0.7536
 7247TIP3    H121698   1.309   5.155   0.712 -1.3367 -0.6440 -0.3683
 7247TIP3    H221699   1.374   5.291   0.723 -1.7214 -0.3872 -1.2189
 7248TIP3   OH221700   1.640   7.310   2.108  0.3942  0.0037  0.2766
 7248TIP3    H121701   1.676   7.334   2.193 -0.2895  0.9414  0.3157
 7248TIP3    H221702   1.716   7.308   2.050  0.8263 -0.3503  0.8390
 7249TIP3   OH221703   1.674   0.856   4.311  0.5958  0.4178 -0.6349
 7249TIP3    H121704   1.641   0.945   4.303  1.5967  1.0277  1.3373
 7249TIP3    H221705   1.596   0.801   4.310 -0.3622  1.6150  1.4327
 7250TIP3   OH221706   7.893   5.511   3.410 -0.4809  0.5252  0.2109
 7250TIP3    H121707   7.805   5.537   3.383 -0.3359  0.8368  0.0307
 7250TIP3    H221708   7.948   5.528   3.333 -0.1343  1.0612  0.5710
 7251TIP3   OH221709   5.718   4.132   4.184 -0.1037 -0.4351  0.5732
 7251TIP3    H121710   5.781   4.203   4.186 -2.2991  1.6770 -0.5747
 7251TIP3    H221711   5.689   4.122   4.274  1.3857 -1.0647  1.0157
 7252TIP3   OH221712   1.095   0.955   5.071  0.0674 -0.0810  0.5546
 7252TIP3    H121713   1.130   0.975   4.984 -1.5556  1.7450  0.2471
 7252TIP3    H221714   1.015   0.905   5.054  0.3495 -0.7228  1.0630
 7253TIP3   OH221715   5.846   3.480   5.879  0.2635  0.3429  0.2394
 7253TIP3    H121716   5.908   3.436   5.937  1.1970  1.0694 -0.1974
 7253TIP3    H221717   5.815   3.556   5.929  0.8397  0.7987 -0.0828
 7254TIP3   OH221718   4.211   6.642   4.018  0.2149  0.1637 -0.0149
 7254TIP3    H121719   4.211   6.672   4.109 -0.2266 -0.6563  0.2607
 7254TIP3    H221720   4.297   6.601   4.006 -0.4236 -1.4350  0.6235
 7255TIP3   OH221721   2.067   5.931   2.328  0.3467 -0.3402  0.5601
 7255TIP3    H121722   2.006   5.935   2.255  1.2174  0.3238 -0.1411
 7255TIP3    H221723   2.115   5.849   2.316  0.3088 -0.3586  0.5379
 7256TIP3   OH221724   4.528   6.336   2.200 -0.0204 -0.0661 -0.0958
 7256TIP3    H121725   4.504   6.324   2.108 -0.2744 -0.2259 -0.0116
 7256TIP3    H221726   4.494   6.258   2.244  3.8011 -2.1918 -0.5125
 7257TIP3   OH221727   5.675   1.889   4.718  0.5514  0.0432 -0.3640
 7257TIP3    H121728   5.641   1.978   4.709  0.9785  0.2940  0.4678
 7257TIP3    H221729   5.769   1.897   4.707  0.4246 -0.5966 -2.2368
 7258TIP3   OH221730   5.295   5.122   4.967 -0.1943  0.2618  0.1185
 7258TIP3    H121731   5.374   5.166   5.000  0.5000 -1.3856  0.7547
 7258TIP3    H221732   5.327   5.038   4.933 -1.6472 -0.3685  0.2447
 7259TIP3   OH221733   2.810   4.469   0.302  0.1574  0.2037  0.3810
 7259TIP3    H121734   2.771   4.384   0.283  0.7438 -0.3326  1.4586
 7259TIP3    H221735   2.834   4.464   0.394  0.6955  1.3476  0.3216
 7260TIP3   OH221736   6.054   2.579   0.712  0.1433  0.2182  0.7922
 7260TIP3    H121737   5.960   2.567   0.696 -0.2451  1.4871  1.9798
 7260TIP3    H221738   6.082   2.639   0.643 -0.0107  0.1982  0.7102
 7261TIP3   OH221739   6.049   0.375   6.261 -0.2773 -0.0417  0.5058
 7261TIP3    H121740   6.104   0.413   6.192  0.3717 -0.1579  0.9445
 7261TIP3    H221741   6.094   0.399   6.342 -0.5056 -0.7239  0.8410
 7262TIP3   OH221742   6.037   0.193   3.100 -0.3536 -0.5631 -0.1837
 7262TIP3    H121743   6.061   0.119   3.043 -0.5248 -2.1236  1.6650
 7262TIP3    H221744   6.101   0.190   3.171 -0.6203  0.8308  0.1420
 7263TIP3   OH221745   5.333   3.212   3.312  0.1180 -0.4074 -0.3631
 7263TIP3    H121746   5.380   3.161   3.246  0.2652  0.4684 -0.9432
 7263TIP3    H221747   5.400   3.237   3.376 -0.1034 -1.6314  0.3769
 7264TIP3   OH221748   4.962   4.433   2.073 -0.0921 -0.5005 -0.2211
 7264TIP3    H121749   4.953   4.440   1.978  0.5348  1.5485 -0.1755
 7264TIP3    H221750   4.882   4.472   2.108 -0.9903 -2.5156  0.1559
 7265TIP3   OH221751   3.381   6.780   5.692 -0.0998  0.6296  0.2016
 7265TIP3    H121752   3.410   6.726   5.619 -0.1891  0.2441  0.4486
 7265TIP3    H221753   3.349   6.861   5.651 -2.3067 -0.4666 -0.4087
 7266TIP3   OH221754   2.781   2.371   5.901  0.3407 -0.1419  0.1168
 7266TIP3    H121755   2.787   2.455   5.855 -2.0928 -0.3198 -0.7026
 7266TIP3    H221756   2.803   2.306   5.834 -1.4145 -0.3000 -0.3632
 7267TIP3   OH221757   1.754   1.869   5.062  0.3434 -0.3187  0.1747
 7267TIP3    H121758   1.705   1.855   4.981  1.2466  0.0251 -0.4457
 7267TIP3    H221759   1.706   1.818   5.128 -1.3463  0.6838 -0.1990
 7268TIP3   OH221760   6.547   2.964   0.866  0.3144 -0.0274 -0.2583
 7268TIP3    H121761   6.463   3.006   0.848  0.0806 -0.7265 -0.8476
 7268TIP3    H221762   6.612   3.020   0.823 -0.0235 -0.4054 -1.3019
 7269TIP3   OH221763   1.281   5.045   6.277 -0.1356 -0.2963  0.5059
 7269TIP3    H121764   1.374   5.066   6.291 -0.2756 -0.3954  1.6886
 7269TIP3    H221765   1.234   5.118   6.317 -0.5801 -0.1557 -0.2521
 7270TIP3   OH221766   8.143   5.884   5.610  0.0520 -0.8400 -0.5990
 7270TIP3    H121767   8.222   5.851   5.653  0.1104  0.3001  0.2066
 7270TIP3    H221768   8.170   5.897   5.519  0.7968 -0.5212 -0.3488
 7271TIP3   OH221769   7.584   7.177   0.367  0.3279 -0.1868  0.0443
 7271TIP3    H121770   7.508   7.188   0.424  0.0237 -0.8804 -0.2175
 7271TIP3    H221771   7.607   7.266   0.340  0.0883  0.0945  0.7358
 7272TIP3   OH221772   8.010   2.601   2.889  0.3526  0.4316  0.7147
 7272TIP3    H121773   7.921   2.638   2.896 -0.0674 -0.5667  0.8558
 7272TIP3    H221774   8.059   2.646   2.958 -0.5204 -0.2835  1.8358
 7273TIP3   OH221775   2.290   1.273   0.026  0.1883 -0.7289 -0.1539
 7273TIP3    H121776   2.375   1.285   0.068 -0.3517  0.3026  0.7374
 7273TIP3    H221777   2.264   1.362  -0.000 -1.4341 -0.6999  1.3422
 7274TIP3   OH221778   3.436   5.971   0.701 -0.1819 -0.2553  0.1512
 7274TIP3    H121779   3.368   5.931   0.755 -2.2368  0.0264 -2.0712
 7274TIP3    H221780   3.505   5.905   0.697 -0.9035 -1.1248  1.3277
 7275TIP3   OH221781   4.413   1.620   0.229 -0.1683 -0.2154  0.5727
 7275TIP3    H121782   4.401   1.707   0.266  0.3215 -0.2575  0.8352
 7275TIP3    H221783   4.449   1.568   0.302  1.2702 -0.1821 -0.0792
 7276TIP3   OH221784   1.251   3.073   1.008 -0.1903  0.3424 -0.0136
 7276TIP3    H121785   1.311   3.009   0.969 -0.8291 -0.3595  0.1233
 7276TIP3    H221786   1.283   3.086   1.097 -0.3399 -0.1675  0.1175
 7277TIP3   OH221787   3.371   0.830   5.948  0.8273 -0.3333  0.4439
 7277TIP3    H121788   3.459   0.858   5.921  0.3960  0.5410 -0.0910
 7277TIP3    H221789   3.319   0.911   5.948 -0.2370 -1.0021 -0.2503
 7278TIP3   OH221790   6.962   5.896   1.536  0.0483  0.4395  0.3286
 7278TIP3    H121791   6.896   5.828   1.550  0.4370 -0.1949 -0.7869
 7278TIP3    H221792   6.935   5.968   1.593 -1.2638 -0.0398  0.3414
 7279TIP3   OH221793   6.010   7.449   2.387  0.2112  0.3402  0.9218
 7279TIP3    H121794   5.975   7.360   2.380 -0.4930  0.6014  1.1594
 7279TIP3    H221795   6.084   7.450   2.325  0.4302 -0.5044  1.1550
 7280TIP3   OH221796   0.993   1.576   3.638  0.7501 -0.3342 -0.1240
 7280TIP3    H121797   1.039   1.527   3.570  0.7674  1.5711 -1.5977
 7280TIP3    H221798   0.999   1.667   3.609 -0.6666  0.3728  1.6205
 7281TIP3   OH221799   4.611   2.638   2.018 -0.1820 -0.0956  0.4080
 7281TIP3    H121800   4.622   2.566   2.081  1.6603  1.4031  1.9398
 7281TIP3    H221801   4.528   2.679   2.043  0.5913  0.5713  2.0736
 7282TIP3   OH221802   7.980   0.968   5.721  0.3510 -0.2445 -0.1740
 7282TIP3    H121803   8.063   1.016   5.734 -0.1580  0.7299 -0.4005
 7282TIP3    H221804   7.913   1.031   5.748 -0.2667 -1.5016  1.3653
 7283TIP3   OH221805   5.401   3.334   4.904  0.1178  0.4973 -0.3595
 7283TIP3    H121806   5.348   3.411   4.920  0.0294  0.4037 -0.1965
 7283TIP3    H221807   5.343   3.274   4.857  0.1502  0.4860 -0.3847
 7284TIP3   OH221808   0.307   0.121   5.302  0.4199  0.6414  0.1854
 7284TIP3    H121809   0.270   0.139   5.388 -0.7117  0.4282 -0.2474
 7284TIP3    H221810   0.232   0.102   5.246  1.1280  0.8686 -0.8824
 7285TIP3   OH221811   2.321   0.840   1.148 -0.0036  0.3872  0.8247
 7285TIP3    H121812   2.228   0.816   1.139 -0.1260  1.5267 -2.4132
 7285TIP3    H221813   2.369   0.761   1.125 -0.2945  0.7804 -1.3329
 7286TIP3   OH221814   1.835   0.399   0.877  0.0580 -0.6698  0.0427
 7286TIP3    H121815   1.792   0.453   0.943 -0.8809 -1.1714 -0.1424
 7286TIP3    H221816   1.924   0.386   0.910 -0.0576  0.0295  0.6415
 7287TIP3   OH221817   1.908   1.686   3.956 -0.1516 -0.1539  0.1426
 7287TIP3    H121818   1.879   1.714   4.043  1.8697 -2.0636  1.5380
 7287TIP3    H221819   1.917   1.768   3.907 -0.9895  1.0117  1.8140
 7288TIP3   OH221820   6.099   1.244   2.901 -0.2539  0.3197  0.4870
 7288TIP3    H121821   6.027   1.182   2.886  0.4285 -1.0692  2.4486
 7288TIP3    H221822   6.127   1.271   2.814 -1.8330 -0.6734 -0.3651
 7289TIP3   OH221823   6.137   2.086   6.102 -0.0995  0.2580  0.1736
 7289TIP3    H121824   6.110   2.174   6.129  1.5027  0.6222  0.7123
 7289TIP3    H221825   6.155   2.094   6.008  0.8464  0.7359  0.3852
 7290TIP3   OH221826   2.006   7.209   5.392  0.0359 -0.3863  0.5751
 7290TIP3    H121827   1.981   7.298   5.419 -0.6503 -1.0391  2.2260
 7290TIP3    H221828   2.088   7.193   5.438 -0.0025 -0.7344  0.5206
 7291TIP3   OH221829   3.426   3.979   0.881 -0.3782  0.0113  0.4870
 7291TIP3    H121830   3.485   3.981   0.957 -0.3746  2.4713  0.4985
 7291TIP3    H221831   3.405   4.071   0.865 -2.2207 -0.6328 -1.0974
 7292TIP3   OH221832   3.333   0.361   3.299  0.0078 -0.2357  0.1526
 7292TIP3    H121833   3.378   0.391   3.379  0.3913 -0.1526 -0.0936
 7292TIP3    H221834   3.247   0.332   3.330 -0.2232  0.7364  0.4596
 7293TIP3   OH221835   0.492   4.711   4.875 -0.2865 -0.1208  0.0823
 7293TIP3    H121836   0.487   4.806   4.880 -0.3307  0.1585 -2.9447
 7293TIP3    H221837   0.408   4.680   4.909 -0.5629  0.9630  0.4243
 7294TIP3   OH221838   6.818   1.676   2.399 -0.0127  0.0656 -0.3820
 7294TIP3    H121839   6.745   1.677   2.338 -0.2207 -0.1549 -0.1366
 7294TIP3    H221840   6.844   1.584   2.404 -1.2459 -0.2327  1.3380
 7295TIP3   OH221841   2.494   4.700   1.394 -0.3104  0.5197  0.1415
 7295TIP3    H121842   2.447   4.721   1.313 -0.1303 -0.7642 -0.3274
 7295TIP3    H221843   2.582   4.735   1.380  0.2037 -1.0894 -0.9251
 7296TIP3   OH221844   0.794   6.395   1.821 -0.4772 -0.5690  0.4112
 7296TIP3    H121845   0.847   6.331   1.774  1.6529  0.6995  0.9784
 7296TIP3    H221846   0.741   6.342   1.881  0.3828 -1.8703  0.0734
 7297TIP3   OH221847   4.269   1.135   2.932 -0.3008  0.5247  0.6208
 7297TIP3    H121848   4.234   1.182   2.856 -0.5811  0.2955  0.6047
 7297TIP3    H221849   4.302   1.204   2.990  1.1718  0.6441 -0.3057
 7298TIP3   OH221850   5.587   1.810   1.760 -0.0768 -0.1520  0.4904
 7298TIP3    H121851   5.678   1.838   1.774 -0.6887  1.4808  1.6032
 7298TIP3    H221852   5.569   1.833   1.669  0.2443  0.7663  0.6420
 7299TIP3   OH221853   7.459   3.690   6.469 -0.1924  0.1875 -0.0857
 7299TIP3    H121854   7.506   3.750   6.411  0.5794 -0.7578 -0.4744
 7299TIP3    H221855   7.501   3.701   6.554 -1.6755  1.9700  0.4884
 7300TIP3   OH221856   7.479   0.634   0.398 -0.0753 -0.1520 -0.6150
 7300TIP3    H121857   7.389   0.665   0.388 -0.9798 -2.3559  0.0191
 7300TIP3    H221858   7.469   0.541   0.418  2.2934 -0.1095  1.0859
 7301TIP3   OH221859   5.102   6.399   4.371 -0.1604  0.0754 -0.5123
 7301TIP3    H121860   5.183   6.440   4.403  0.6105  1.7407 -4.1043
 7301TIP3    H221861   5.122   6.305   4.371  0.9805  0.2830  0.5650
 7302TIP3   OH221862   8.237   6.318   3.930  0.1427  0.3622 -0.1380
 7302TIP3    H121863   8.271   6.286   3.846  0.0762 -0.1335  0.0203
 7302TIP3    H221864   8.309   6.369   3.967  1.1594 -1.5935  0.7099
 7303TIP3   OH221865   5.002   2.527   6.493  0.5745 -0.2501  0.6152
 7303TIP3    H121866   5.072   2.565   6.547 -0.0725  1.9095  0.0518
 7303TIP3    H221867   5.041   2.521   6.406  0.7399 -1.1186  0.7451
 7304TIP3   OH221868   6.346   7.589   6.162 -0.2453 -0.3075  0.2912
 7304TIP3    H121869   6.283   7.519   6.176 -1.0084  0.2142 -0.4162
 7304TIP3    H221870   6.409   7.554   6.100 -0.1744 -0.6336  0.5483
 7305TIP3   OH221871   8.208   1.895   2.248 -0.3156  0.5483 -0.1340
 7305TIP3    H121872   8.194   1.889   2.153 -1.9294  2.1290 -0.0613
 7305TIP3    H221873   8.286   1.949   2.258  1.4191 -1.7165 -0.5131
 7306TIP3   OH221874   0.421   7.183   4.493  0.0371  0.4895  0.4529
 7306TIP3    H121875   0.497   7.216   4.540 -0.0702  0.0578  0.9462
 7306TIP3    H221876   0.457   7.140   4.415  0.1975  1.4535 -0.0148
 7307TIP3   OH221877   0.325   3.347   5.704  0.4126  0.5868 -0.1622
 7307TIP3    H121878   0.345   3.279   5.639  1.2530  0.0427  0.6398
 7307TIP3    H221879   0.259   3.307   5.761 -0.1248  0.9653 -0.5094
 7308TIP3   OH221880   3.728   2.466   3.314  0.0300 -0.3689 -0.0180
 7308TIP3    H121881   3.814   2.495   3.284 -0.5060  0.7239 -0.5194
 7308TIP3    H221882   3.699   2.534   3.374 -0.3218 -0.9304  0.4591
 7309TIP3   OH221883   6.711   2.376   1.902  0.1198 -0.5791  0.4609
 7309TIP3    H121884   6.734   2.292   1.942  1.2764 -0.8252 -0.6462
 7309TIP3    H221885   6.794   2.408   1.866 -0.5383  0.4789 -0.1499
 7310TIP3   OH221886   0.923   0.127   1.033  0.5805  0.0721  0.6150
 7310TIP3    H121887   1.014   0.121   1.003  1.0055  1.5689  1.5079
 7310TIP3    H221888   0.925   0.191   1.104 -1.1019 -0.2262  0.9754
 7311TIP3   OH221889   4.581   3.489   2.804  0.4283  0.1515  0.5266
 7311TIP3    H121890   4.651   3.526   2.858  1.9876  0.5012 -1.6278
 7311TIP3    H221891   4.627   3.443   2.733 -1.5216  0.1837 -0.8263
 7312TIP3   OH221892   1.225   7.714   3.175  0.3698  0.6648  0.1415
 7312TIP3    H121893   1.188   7.647   3.233  0.7961  1.2110  1.0737
 7312TIP3    H221894   1.156   7.732   3.112 -0.3769  0.5386  0.9038
 7313TIP3   OH221895   7.539   6.524   5.321 -0.1957 -0.0234 -0.5674
 7313TIP3    H121896   7.523   6.432   5.341  0.8426 -0.0882  0.0574
 7313TIP3    H221897   7.475   6.573   5.373 -0.6183 -0.3815 -0.7514
 7314TIP3   OH221898   8.172   4.926   0.101 -0.2738  0.1485 -0.3541
 7314TIP3    H121899   8.171   4.887   0.014  1.2900  0.1518 -0.4036
 7314TIP3    H221900   8.203   5.016   0.087 -1.2363  0.5616  0.0672
 7315TIP3   OH221901   6.946   6.469   2.886  0.6321  0.1452  0.0477
 7315TIP3    H121902   6.884   6.541   2.870  0.2860 -0.4250 -1.3524
 7315TIP3    H221903   6.969   6.477   2.979 -0.7332  1.0143  0.3436
 7316TIP3   OH221904   2.819   0.191   0.956 -0.2090  0.0062  0.0872
 7316TIP3    H121905   2.859   0.217   1.039 -0.1503  0.0250  0.0536
 7316TIP3    H221906   2.731   0.227   0.960  0.2121  1.1488 -0.4110
 7317TIP3   OH221907   7.023   7.809   5.775 -0.5645  0.3088  0.4864
 7317TIP3    H121908   7.077   7.759   5.837  0.3218  0.7315  0.0726
 7317TIP3    H221909   6.986   7.744   5.716  0.9358  0.1541 -0.3210
 7318TIP3   OH221910   5.870   2.992   2.925 -0.2177 -0.2569  0.5438
 7318TIP3    H121911   5.805   3.049   2.884 -2.5631 -2.3552  1.0722
 7318TIP3    H221912   5.891   3.034   3.008  0.4780  1.3111 -0.3797
 7319TIP3   OH221913   3.494   5.233   4.611 -0.4684  0.0953 -0.4720
 7319TIP3    H121914   3.494   5.241   4.515 -1.1399 -1.7689 -0.6581
 7319TIP3    H221915   3.441   5.156   4.629  0.6774 -0.3334  1.3488
 7320TIP3   OH221916   0.242   2.593   1.622 -0.3778  0.1851 -0.5975
 7320TIP3    H121917   0.222   2.589   1.715 -0.0315  0.6953 -0.4917
 7320TIP3    H221918   0.208   2.512   1.586 -0.1035 -0.2288  0.0578
 7321TIP3   OH221919   3.796  -0.003   3.777  0.1912  0.2829 -0.0953
 7321TIP3    H121920   3.820   0.037   3.860 -0.5844  1.0571 -0.2334
 7321TIP3    H221921   3.824   0.059   3.710  1.5151 -0.6779 -0.4890
 7322TIP3   OH221922   1.467   3.282   4.501  0.1449  0.3782  0.3427
 7322TIP3    H121923   1.438   3.253   4.415  0.3575 -1.5142  0.8622
 7322TIP3    H221924   1.554   3.318   4.487  0.7598 -1.1959 -0.0573
 7323TIP3   OH221925   6.898   2.263   6.031  0.8031  0.1148  0.1792
 7323TIP3    H121926   6.928   2.333   6.089  2.0721  0.3161 -0.6825
 7323TIP3    H221927   6.978   2.223   5.998  0.0996 -0.8801 -0.3897
 7324TIP3   OH221928   6.991   7.159   2.547 -0.2179 -0.0577  0.3045
 7324TIP3    H121929   7.001   7.135   2.639 -0.0773 -3.2757 -0.4313
 7324TIP3    H221930   6.898   7.178   2.537 -0.5526 -1.2553  0.8594
 7325TIP3   OH221931   3.175   0.064   0.966  0.0072  0.5559 -0.3115
 7325TIP3    H121932   3.148   0.153   0.944  1.1887  0.9718 -0.1381
 7325TIP3    H221933   3.240   0.041   0.898  0.6612  0.3236  0.3763
 7326TIP3   OH221934   6.416   7.841   1.344  0.0628  0.5830 -0.4626
 7326TIP3    H121935   6.497   7.801   1.377 -0.6887 -0.1984  0.5045
 7326TIP3    H221936   6.396   7.793   1.264 -0.3759 -0.4587  0.2418
 7327TIP3   OH221937   1.151   6.357   3.559  0.6752  0.4470  0.3679
 7327TIP3    H121938   1.222   6.369   3.496  1.8446 -0.0513  1.5604
 7327TIP3    H221939   1.192   6.317   3.635 -1.2601 -1.8545  0.3066
 7328TIP3   OH221940   0.261   5.413   4.604  0.3606  0.2620 -0.1409
 7328TIP3    H121941   0.326   5.386   4.670  1.0625  0.0738 -0.8877
 7328TIP3    H221942   0.188   5.352   4.616  0.9053 -0.4272 -0.1888
 7329TIP3   OH221943   3.329   2.748   1.360 -0.0133  0.0974  0.3536
 7329TIP3    H121944   3.389   2.760   1.434 -1.0748  1.2055  1.0743
 7329TIP3    H221945   3.384   2.760   1.283  1.1007 -0.9683  0.9408
 7330TIP3   OH221946   0.536   2.449   0.952 -0.3231 -0.2618  0.1298
 7330TIP3    H121947   0.527   2.403   0.868 -0.4719 -0.4552  0.2511
 7330TIP3    H221948   0.618   2.497   0.944 -0.5436  0.0525 -0.2879
 7331TIP3   OH221949   0.414   0.219   4.704  0.0195  0.6113  0.2960
 7331TIP3    H121950   0.489   0.161   4.703  0.0409  0.6481 -0.2933
 7331TIP3    H221951   0.398   0.236   4.797  0.1012 -0.2124  0.4630
 7332TIP3   OH221952   1.160   0.688   5.451  0.2170 -0.8012  0.6521
 7332TIP3    H121953   1.177   0.594   5.449 -1.6324 -1.1780  0.5204
 7332TIP3    H221954   1.065   0.695   5.460  0.1308  1.0477 -0.9680
 7333TIP3   OH221955   0.486   0.345   5.872  0.4597  0.2130  0.0973
 7333TIP3    H121956   0.419   0.319   5.809  0.1545  1.1054  0.0369
 7333TIP3    H221957   0.438   0.358   5.954  0.5484  0.8516  0.0529
 7334TIP3   OH221958   0.615   3.796   5.957 -0.1726  0.0410  0.2526
 7334TIP3    H121959   0.679   3.728   5.938 -0.4350 -0.2767  0.5023
 7334TIP3    H221960   0.531   3.759   5.930 -0.3089  0.2903  0.3292
 7335TIP3   OH221961   1.361   6.182   3.975 -0.4644  0.4632  0.2360
 7335TIP3    H121962   1.289   6.232   4.015  0.8953  1.0609  2.0933
 7335TIP3    H221963   1.436   6.199   4.032  0.9603 -0.8126 -1.1665
 7336TIP3   OH221964   4.629   6.744   1.812  0.3437  0.0894 -0.3183
 7336TIP3    H121965   4.614   6.651   1.795 -0.9553  0.0004  1.1952
 7336TIP3    H221966   4.564   6.789   1.757  1.1506  0.1546 -1.2604
 7337TIP3   OH221967   3.007   6.867   4.514  0.4883  0.3627 -0.0831
 7337TIP3    H121968   3.075   6.821   4.464  0.0069  0.2854 -0.6844
 7337TIP3    H221969   2.941   6.890   4.448  0.4370  1.3892  0.3065
 7338TIP3   OH221970   3.948   5.725   6.258  0.3942  0.4711  0.1462
 7338TIP3    H121971   3.878   5.695   6.201 -0.3218  0.3751  1.0649
 7338TIP3    H221972   3.908   5.792   6.313  1.6523  2.2984 -1.0217
 7339TIP3   OH221973   1.527   0.469   4.054 -0.0046 -0.4024 -0.6410
 7339TIP3    H121974   1.521   0.560   4.028 -0.0097 -0.2149 -0.0013
 7339TIP3    H221975   1.456   0.456   4.117  1.2145 -0.2943  0.8191
 7340TIP3   OH221976   8.290   3.037   1.182 -0.9877  0.0420  0.6867
 7340TIP3    H121977   8.214   3.096   1.186  0.1049  1.5330  0.6239
 7340TIP3    H221978   8.256   2.956   1.144 -2.2176  1.1937 -0.7951
 7341TIP3   OH221979   7.112   1.079   6.116  0.3029 -0.1067 -1.2322
 7341TIP3    H121980   7.191   1.025   6.119  1.5522  1.5899 -2.2657
 7341TIP3    H221981   7.049   1.025   6.067  1.6307 -0.5197 -2.5692
 7342TIP3   OH221982   2.552   7.662   0.240  0.3884 -0.7997 -0.0452
 7342TIP3    H121983   2.607   7.637   0.166 -0.1844 -1.9144 -0.1209
 7342TIP3    H221984   2.525   7.578   0.279  0.7694 -0.2366  1.4937
 7343TIP3   OH221985   2.012   0.942   3.943 -0.3108  0.4483 -0.5290
 7343TIP3    H121986   2.037   0.933   4.035 -0.8127  1.4428 -0.2862
 7343TIP3    H221987   2.028   0.855   3.906  1.9060  0.5869 -0.0219
 7344TIP3   OH221988   4.128   3.948   2.235  0.3718 -0.1371  0.0061
 7344TIP3    H121989   4.137   3.931   2.329  1.6895 -0.2987 -0.1228
 7344TIP3    H221990   4.117   3.862   2.195 -1.8620  0.0468  0.1373
 7345TIP3   OH221991   5.513   7.461   2.045 -0.8992 -0.5703  0.4571
 7345TIP3    H121992   5.467   7.418   2.117 -1.8941 -0.9590 -0.3886
 7345TIP3    H221993   5.468   7.544   2.033  0.3467  0.2728  1.3809
 7346TIP3   OH221994   4.200   6.441   3.305 -0.0958 -0.1404 -0.2558
 7346TIP3    H121995   4.205   6.373   3.372  0.7145  0.8514  0.7277
 7346TIP3    H221996   4.120   6.489   3.325 -0.3878 -0.4651 -0.6274
 7347TIP3   OH221997   2.565   2.145   0.600  0.2077 -0.1903 -0.2361
 7347TIP3    H121998   2.541   2.214   0.662  0.2649 -0.1079 -0.3051
 7347TIP3    H221999   2.539   2.180   0.515 -0.0608 -0.3893 -0.2367
 7348TIP3   OH222000   7.366   0.148   3.670  0.4555  0.7623 -0.0841
 7348TIP3    H122001   7.436   0.203   3.706  0.6807 -1.6411  3.7692
 7348TIP3    H222002   7.382   0.061   3.708 -2.2135 -0.9676 -2.5117
 7349TIP3   OH222003   8.265   5.691   2.228  0.6487 -0.4987  0.0277
 7349TIP3    H122004   8.251   5.765   2.170 -1.2073 -0.0829  0.9393
 7349TIP3    H222005   8.286   5.618   2.169  0.8360  0.3562 -0.9965
 7350TIP3   OH222006   1.215   2.125   6.548  0.2868 -0.3878  0.4559
 7350TIP3    H122007   1.284   2.181   6.512 -0.5272  0.2609 -0.1360
 7350TIP3    H222008   1.185   2.171   6.626  1.2165 -1.1914  1.3163
 7351TIP3   OH222009   2.095   0.327   6.450  0.4393 -0.1899 -0.3951
 7351TIP3    H122010   2.076   0.384   6.376  0.4217 -1.4603 -1.4058
 7351TIP3    H222011   2.091   0.384   6.527 -0.4885  0.9669 -1.2781
 7352TIP3   OH222012   3.985   4.193   1.717 -0.2455 -0.0181 -0.4234
 7352TIP3    H122013   4.050   4.126   1.738  0.0965 -0.1057 -1.6991
 7352TIP3    H222014   3.903   4.144   1.704 -0.5351  0.0640  0.8860
 7353TIP3   OH222015   1.946   1.552   5.573  0.1922 -0.4926 -0.4072
 7353TIP3    H122016   1.910   1.522   5.490 -0.5099 -1.0233  0.0699
 7353TIP3    H222017   1.989   1.635   5.553  1.0976 -1.2032 -1.5218
 7354TIP3   OH222018   2.037   3.649   4.728 -0.3212  0.2741 -0.0497
 7354TIP3    H122019   2.086   3.583   4.776 -0.7504 -1.2479 -1.6084
 7354TIP3    H222020   2.104   3.696   4.677 -0.3359 -1.6586 -2.0040
 7355TIP3   OH222021   5.232   5.034   3.206 -0.3803 -0.0866 -0.3575
 7355TIP3    H122022   5.181   5.029   3.287  0.3722  1.0331  0.2042
 7355TIP3    H222023   5.235   4.943   3.175 -3.2348 -0.1436 -0.7887
 7356TIP3   OH222024   5.382   4.815   1.294 -0.0215  0.2054 -0.1413
 7356TIP3    H122025   5.299   4.787   1.254 -0.1775  1.3315 -0.6399
 7356TIP3    H222026   5.448   4.793   1.228  0.1582 -1.1168  0.4451
 7357TIP3   OH222027   6.483   5.240   6.063  0.1558  0.0383 -0.0133
 7357TIP3    H122028   6.504   5.286   5.982 -0.9337  0.3341 -0.1508
 7357TIP3    H222029   6.398   5.199   6.045 -0.5002  0.7841  1.2344
 7358TIP3   OH222030   0.270   7.654   6.726  0.9203 -0.4453  0.0348
 7358TIP3    H122031   0.327   7.584   6.757 -0.4698 -1.5196  0.2488
 7358TIP3    H222032   0.253   7.633   6.634  0.4292 -0.4457  0.1213
 7359TIP3   OH222033   7.700   7.511   2.631  0.0620  0.0850  0.4913
 7359TIP3    H122034   7.683   7.486   2.540 -1.2193 -0.0912  0.7576
 7359TIP3    H222035   7.759   7.443   2.663  0.6190  0.2079 -0.2322
 7360TIP3   OH222036   5.749   1.336   2.253  0.1297  0.2999  0.2361
 7360TIP3    H122037   5.842   1.321   2.234  1.1865  2.0591  3.1542
 7360TIP3    H222038   5.730   1.420   2.213  0.7936  1.4329  2.1638
 7361TIP3   OH222039   2.800   5.978   6.305 -0.5547  0.1061 -0.2894
 7361TIP3    H122040   2.803   5.910   6.238 -0.5216 -0.1963  0.0148
 7361TIP3    H222041   2.729   6.036   6.277 -0.8613 -0.2839 -0.3436
 7362TIP3   OH222042   6.593   0.445   0.695  0.2148  0.3174  0.1542
 7362TIP3    H122043   6.607   0.428   0.602 -0.7709  0.5411 -0.0411
 7362TIP3    H222044   6.671   0.492   0.723  0.2085  0.8559 -0.7174
 7363TIP3   OH222045   2.729   4.216   0.276 -0.2116 -0.3900  0.1894
 7363TIP3    H122046   2.790   4.148   0.304  2.2463  1.6756  0.2094
 7363TIP3    H222047   2.643   4.175   0.285  1.1288 -3.8599 -0.9104
 7364TIP3   OH222048   8.059   6.792   0.811  0.7565  0.3224 -0.2847
 7364TIP3    H122049   7.979   6.779   0.862  1.4903 -0.4314  0.7332
 7364TIP3    H222050   8.100   6.706   0.808  1.5516  0.7021 -0.7575
 7365TIP3   OH222051   2.083   0.327   5.019 -0.6982  0.0412 -0.3705
 7365TIP3    H122052   2.051   0.415   5.036  1.6366  0.8944 -0.0216
 7365TIP3    H222053   2.088   0.286   5.105  1.7600  0.9405 -0.0008
 7366TIP3   OH222054   2.575   2.857   2.101  0.6608 -0.9163  0.0260
 7366TIP3    H122055   2.530   2.941   2.096  0.2075 -1.1273  0.5135
 7366TIP3    H222056   2.609   2.844   2.012 -1.2270 -1.2967 -0.6951
 7367TIP3   OH222057   0.306   3.026   2.639  0.3613  0.1757  0.2850
 7367TIP3    H122058   0.306   2.986   2.726  0.2291 -2.1418 -0.7153
 7367TIP3    H222059   0.231   2.987   2.594 -0.3570  2.2971 -0.5205
 7368TIP3   OH222060   2.448   5.576   0.754 -0.2688 -0.2350 -0.5879
 7368TIP3    H122061   2.506   5.571   0.830 -3.2236 -1.5187  1.7776
 7368TIP3    H222062   2.483   5.510   0.693  1.4923 -0.0148  0.1202
 7369TIP3   OH222063   2.154   1.015   3.383  0.1793 -0.1027 -0.3146
 7369TIP3    H122064   2.179   1.031   3.474  1.7567  0.1806 -0.7677
 7369TIP3    H222065   2.058   1.019   3.383  0.0698 -1.6680  1.6104
 7370TIP3   OH222066   5.407   1.945   4.481 -0.1385 -0.0476  0.5941
 7370TIP3    H122067   5.403   1.912   4.391  0.5506  0.7254  0.2710
 7370TIP3    H222068   5.401   2.040   4.473  0.0398  0.0373  1.3546
 7371TIP3   OH222069   0.293   7.765   1.705 -0.2351  0.1652  0.8164
 7371TIP3    H122070   0.198   7.782   1.706 -0.1162  1.1972 -1.1266
 7371TIP3    H222071   0.310   7.727   1.619  1.0294 -0.7610  1.4434
 7372TIP3   OH222072   3.554   6.817   0.150  0.2490 -0.2076 -0.5118
 7372TIP3    H122073   3.546   6.837   0.057 -0.8788 -1.1204 -0.6384
 7372TIP3    H222074   3.517   6.893   0.194 -2.0004 -0.9880 -0.9192
 7373TIP3   OH222075   1.623   7.243   6.340 -0.1803 -0.7446 -0.3212
 7373TIP3    H122076   1.574   7.164   6.360  0.1428 -0.9557 -0.3577
 7373TIP3    H222077   1.712   7.224   6.368  0.0445 -0.6436 -0.9490
 7374TIP3   OH222078   2.276   6.990   5.264 -0.1862 -0.5289  0.1237
 7374TIP3    H122079   2.220   7.020   5.192  0.8782 -1.5409 -1.1833
 7374TIP3    H222080   2.258   6.896   5.270  2.3574 -1.2267 -1.3663
 7375TIP3   OH222081   1.247   2.124   0.369  0.0965  0.0585 -0.6907
 7375TIP3    H122082   1.256   2.216   0.395  0.6382 -0.0444 -0.5079
 7375TIP3    H222083   1.205   2.082   0.444  0.9800 -0.0888 -0.2706
 7376TIP3   OH222084   6.547   6.351   3.383 -0.2669  0.2179 -0.1221
 7376TIP3    H122085   6.612   6.421   3.395 -1.3309  1.4127 -0.9997
 7376TIP3    H222086   6.476   6.393   3.335 -1.8351 -0.9689  1.0524
 7377TIP3   OH222087   0.156   0.658   3.396 -0.3058  0.0030  0.1059
 7377TIP3    H122088   0.180   0.661   3.304  4.2982  2.1393  1.0457
 7377TIP3    H222089   0.086   0.722   3.406 -0.9799 -0.3729 -1.8443
 7378TIP3   OH222090   1.185   2.915   1.672  0.2167  0.1076  0.5438
 7378TIP3    H122091   1.188   3.008   1.694 -0.0722  0.2324  0.0733
 7378TIP3    H222092   1.251   2.904   1.604 -0.3737  0.1590 -0.0562
 7379TIP3   OH222093   6.861   5.357   6.648  0.4884 -0.4248  0.0427
 7379TIP3    H122094   6.955   5.359   6.630  0.5177  0.5815  0.2572
 7379TIP3    H222095   6.829   5.444   6.623 -0.3385 -0.6681  0.2110
 7380TIP3   OH222096   4.443   4.457   4.530 -0.0502 -0.6350 -0.2125
 7380TIP3    H122097   4.407   4.542   4.555 -0.9196 -1.0302 -0.0632
 7380TIP3    H222098   4.371   4.396   4.545  0.1510 -1.2249 -1.5012
 7381TIP3   OH222099   0.680   3.588   1.015  0.1166 -0.5245  0.0510
 7381TIP3    H122100   0.642   3.656   1.072  0.1899 -0.2141 -0.2700
 7381TIP3    H222101   0.606   3.557   0.963  0.5448  1.1160 -1.6313
 7382TIP3   OH222102   7.885   3.231   3.706  0.1088 -0.0538 -0.6685
 7382TIP3    H122103   7.951   3.173   3.745  0.7008 -0.4810 -2.2320
 7382TIP3    H222104   7.870   3.195   3.618 -0.4529  1.4282 -1.2166
 7383TIP3   OH222105   6.972   1.617   3.996 -0.0022  0.0851 -0.2848
 7383TIP3    H122106   7.021   1.646   3.918 -1.2715 -0.1706 -1.2065
 7383TIP3    H222107   6.930   1.535   3.969  1.3283 -1.2568  1.4132
 7384TIP3   OH222108   2.443   2.246   4.877 -0.3762  0.4001  0.4387
 7384TIP3    H122109   2.450   2.226   4.784  0.8207  1.5799  0.2613
 7384TIP3    H222110   2.360   2.205   4.904 -0.8083  0.1681 -1.1601
 7385TIP3   OH222111   7.363   6.646   0.592 -0.2740  0.0940  0.4203
 7385TIP3    H122112   7.380   6.566   0.543  2.4295  0.4230  0.6453
 7385TIP3    H222113   7.402   6.631   0.678  0.3007  1.6030  0.4699
 7386TIP3   OH222114   7.881   1.213   1.688  0.6636 -0.1590  0.4072
 7386TIP3    H122115   7.921   1.182   1.607  0.1006 -0.7241  0.3385
 7386TIP3    H222116   7.929   1.169   1.758  2.8024  2.1509  0.5541
 7387TIP3   OH222117   6.890   2.795   1.531  0.1364 -0.2526 -0.0289
 7387TIP3    H122118   6.917   2.887   1.525  0.6937 -0.4597 -0.8218
 7387TIP3    H222119   6.837   2.791   1.611  1.0532  0.5203  0.6401
 7388TIP3   OH222120   3.702   1.572   1.280  0.4417  0.5494  0.1534
 7388TIP3    H122121   3.724   1.480   1.264  0.7879  0.7337 -0.4864
 7388TIP3    H222122   3.613   1.570   1.313  0.6721 -0.0668  0.7641
 7389TIP3   OH222123   6.173   4.191   2.256  0.1918 -0.2531  0.1073
 7389TIP3    H122124   6.093   4.153   2.219  0.5668 -2.1353  1.1029
 7389TIP3    H222125   6.239   4.178   2.187  0.1921 -0.9918  0.2327
 7390TIP3   OH222126   6.977   6.821   6.419 -0.0066 -0.4988  0.4882
 7390TIP3    H122127   6.918   6.762   6.466 -0.8484  0.2536  0.4097
 7390TIP3    H222128   7.031   6.860   6.488  1.0510 -1.8624  0.4728
 7391TIP3   OH222129   3.027   6.779   0.648 -0.2677 -0.0387  0.5452
 7391TIP3    H122130   3.023   6.708   0.712 -0.0297  0.5121  1.1780
 7391TIP3    H222131   3.081   6.846   0.689 -0.1589  0.3527 -0.2077
 7392TIP3   OH222132   0.435   6.533   0.582  0.7578 -0.4116 -0.4347
 7392TIP3    H122133   0.360   6.492   0.625 -0.6295  0.3516 -2.0127
 7392TIP3    H222134   0.487   6.569   0.654 -1.2345  0.4203  0.6789
 7393TIP3   OH222135   1.420   3.300   1.021  0.4809  0.0976 -0.0662
 7393TIP3    H122136   1.367   3.234   0.975  1.0829 -0.2902 -0.2190
 7393TIP3    H222137   1.369   3.380   1.014 -0.0628 -0.2551 -0.2595
 7394TIP3   OH222138   0.862   0.533   4.876  0.3994 -0.2716 -0.1353
 7394TIP3    H122139   0.812   0.491   4.806 -0.3492  0.1638  0.1221
 7394TIP3    H222140   0.796   0.580   4.927  1.0191 -0.0662  0.4907
 7395TIP3   OH222141   7.983   2.755   4.472 -0.2928 -0.3350  0.5088
 7395TIP3    H122142   7.993   2.706   4.554 -0.4207 -0.2193  0.5933
 7395TIP3    H222143   7.913   2.818   4.490 -0.7917 -0.7667  0.0957
 7396TIP3   OH222144   5.744   4.545   2.359 -0.0154 -0.3740 -0.3806
 7396TIP3    H122145   5.812   4.524   2.295 -1.5764 -1.1897 -1.8362
 7396TIP3    H222146   5.785   4.611   2.416  2.3396 -1.6073 -0.5157
 7397TIP3   OH222147   2.005   4.174   5.061  0.2968 -0.1926 -0.2993
 7397TIP3    H122148   1.979   4.108   5.126  0.6313 -0.4777 -0.4478
 7397TIP3    H222149   2.050   4.241   5.112 -1.6704  0.8722  0.1279
 7398TIP3   OH222150   7.299   6.751   2.790 -0.1644  0.2572  0.5335
 7398TIP3    H122151   7.390   6.781   2.783 -0.8385  2.2932  0.0776
 7398TIP3    H222152   7.307   6.661   2.822  2.0730 -0.1361 -0.8532
 7399TIP3   OH222153   7.935   5.641   1.698  0.1340 -0.1399  0.2578
 7399TIP3    H122154   7.962   5.674   1.784 -0.3348  3.7830 -0.9088
 7399TIP3    H222155   7.840   5.643   1.700  0.0667  2.5358 -1.0547
 7400TIP3   OH222156   1.632   7.430   4.007  0.3902  0.2332  0.4389
 7400TIP3    H122157   1.604   7.463   4.093 -2.0912 -0.9648  0.1976
 7400TIP3    H222158   1.576   7.476   3.944 -0.3435 -1.4039 -0.1906
 7401TIP3   OH222159   4.705   1.631   3.090 -0.8825 -0.4693 -0.3689
 7401TIP3    H122160   4.795   1.615   3.117 -0.4164  0.4449 -1.3047
 7401TIP3    H222161   4.653   1.618   3.169  0.0751 -0.9231  0.1995
 7402TIP3   OH222162   4.100   3.458   1.144 -0.2774  0.3438  0.0066
 7402TIP3    H122163   4.096   3.423   1.233  0.1189  0.5498  0.1085
 7402TIP3    H222164   4.157   3.534   1.151 -1.7979  1.5349 -0.0497
 7403TIP3   OH222165   2.718   5.413   2.935  0.5087  0.2661 -0.4316
 7403TIP3    H122166   2.669   5.494   2.950  0.3830  0.4417 -1.6742
 7403TIP3    H222167   2.783   5.436   2.869  1.4027 -0.3091  0.2325
 7404TIP3   OH222168   3.743   6.680   2.245  0.5390  0.1207 -0.1969
 7404TIP3    H122169   3.671   6.743   2.243 -0.4757 -0.9977 -0.6307
 7404TIP3    H222170   3.725   6.622   2.171  1.0863 -1.0341  0.5502
 7405TIP3   OH222171   3.493   1.011   5.082 -0.2356  0.5508 -0.0549
 7405TIP3    H122172   3.451   0.962   5.012  1.1252 -1.4804  0.4506
 7405TIP3    H222173   3.560   1.063   5.039  1.2618 -1.4332 -0.2567
 7406TIP3   OH222174   0.540   2.139   4.420 -0.3974 -0.1229  0.2882
 7406TIP3    H122175   0.557   2.233   4.411 -1.6640  0.1141  0.1474
 7406TIP3    H222176   0.572   2.101   4.338  0.2465  0.1602  0.4023
 7407TIP3   OH222177   3.087   5.971   3.907 -0.7230  0.4196 -0.1932
 7407TIP3    H122178   3.094   5.973   3.811 -1.9210 -0.4454 -0.3181
 7407TIP3    H222179   3.021   5.904   3.925 -1.7548  1.7541  1.1919
 7408TIP3   OH222180   6.908   1.835   6.732 -0.3486  0.8399  0.2939
 7408TIP3    H122181   6.862   1.784   6.665  0.2378 -0.0849  0.5821
 7408TIP3    H222182   6.996   1.799   6.734 -0.4246  0.6509  1.7433
 7409TIP3   OH222183   7.449   0.843   1.705 -0.6384  0.1540  0.3965
 7409TIP3    H122184   7.543   0.828   1.698 -0.3981  1.4176  0.6046
 7409TIP3    H222185   7.410   0.757   1.694  0.4395 -0.1538 -1.5090
 7410TIP3   OH222186   3.051   1.902   1.979  0.4804 -0.1797  0.1254
 7410TIP3    H122187   2.971   1.938   2.016 -0.5957 -1.7292 -0.5854
 7410TIP3    H222188   3.071   1.826   2.035  0.4090 -0.8786 -0.7768
 7411TIP3   OH222189   6.869   3.781   0.999 -0.2248  0.0417  0.1633
 7411TIP3    H122190   6.818   3.702   1.015  1.4766 -0.6551  2.7672
 7411TIP3    H222191   6.877   3.823   1.084  3.0638  0.3378 -0.1427
 7412TIP3   OH222192   3.735   3.743   4.679 -0.3981  0.0370 -0.2572
 7412TIP3    H122193   3.751   3.835   4.660 -0.3636  0.0440 -0.1958
 7412TIP3    H222194   3.791   3.696   4.617  0.1601  0.0662  0.2156
 7413TIP3   OH222195   3.256   6.583   3.083  0.5558  0.0665  0.4445
 7413TIP3    H122196   3.327   6.522   3.062  1.3538  0.9810  0.4048
 7413TIP3    H222197   3.292   6.639   3.152 -1.2566 -1.5091  2.8441
 7414TIP3   OH222198   2.402   0.356   5.311  0.4294  0.5231 -0.3689
 7414TIP3    H122199   2.330   0.297   5.334  0.4424  1.3603  2.0900
 7414TIP3    H222200   2.467   0.342   5.380  1.3045  1.9707 -0.8549
 7415TIP3   OH222201   8.253   2.214   6.722  0.1338 -0.1988  0.0076
 7415TIP3    H122202   8.163   2.183   6.717 -0.4436  1.0089  1.8423
 7415TIP3    H222203   8.271   2.251   6.636 -0.4395 -2.1161 -0.9920
 7416TIP3   OH222204   7.468   7.325   4.018 -0.3166  0.3944 -0.0737
 7416TIP3    H122205   7.502   7.336   3.929 -0.3853 -1.5841 -0.3813
 7416TIP3    H222206   7.375   7.347   4.010 -0.2396  0.6172 -0.3916
 7417TIP3   OH222207   1.557   0.716   0.057  0.1263 -0.2999 -0.2730
 7417TIP3    H122208   1.585   0.658   0.128 -0.5160 -2.4053 -1.6566
 7417TIP3    H222209   1.569   0.804   0.093  0.5148 -1.2524  2.1643
 7418TIP3   OH222210   0.956   5.883   2.556  0.5729  0.6671  0.3143
 7418TIP3    H122211   0.976   5.948   2.489  1.4475  1.3663  1.2289
 7418TIP3    H222212   1.035   5.829   2.562 -1.2410 -2.8910 -2.9382
 7419TIP3   OH222213   8.015   0.210   1.932  0.2339  1.1070  0.6651
 7419TIP3    H122214   7.920   0.206   1.916  0.4941  0.8480 -0.8965
 7419TIP3    H222215   8.025   0.284   1.992 -0.9267  1.2975  0.6625
 7420TIP3   OH222216   7.365   1.893   2.884 -0.2414  0.0256  0.2051
 7420TIP3    H122217   7.392   1.852   2.966 -0.8658  0.0406  0.4245
 7420TIP3    H222218   7.368   1.822   2.820  0.1679 -0.0052  0.2537
 7421TIP3   OH222219   0.434   4.523   5.891 -0.3360 -0.2483  0.2660
 7421TIP3    H122220   0.441   4.618   5.882  0.8281 -0.5049 -2.1664
 7421TIP3    H222221   0.424   4.490   5.802 -0.2457 -2.4640  1.0005
 7422TIP3   OH222222   2.103   4.752   5.887 -0.3726  0.3083 -0.0312
 7422TIP3    H122223   2.167   4.741   5.817  0.0653 -0.9533  0.5437
 7422TIP3    H222224   2.039   4.814   5.852 -0.0787 -0.1769 -1.4679
 7423TIP3   OH222225   0.329   4.475   1.634  0.2786  0.5549 -0.0727
 7423TIP3    H122226   0.254   4.437   1.587  0.3942  0.8949 -0.5331
 7423TIP3    H222227   0.392   4.496   1.566  1.0394 -0.2537  0.3616
 7424TIP3   OH222228   7.206   1.038   4.512  0.1688 -0.3653  0.5418
 7424TIP3    H122229   7.263   0.994   4.576  2.7742  1.4420 -0.3617
 7424TIP3    H222230   7.180   0.968   4.452  2.4634 -1.1283  0.3249
 7425TIP3   OH222231   4.327   2.889   5.103  0.3768  0.0969 -0.1678
 7425TIP3    H122232   4.363   2.809   5.065 -0.4749  0.2937 -1.4741
 7425TIP3    H222233   4.232   2.880   5.090  0.1332  0.5568  1.2138
 7426TIP3   OH222234   6.543   4.388   1.211  0.0824  0.2985 -0.2161
 7426TIP3    H122235   6.488   4.447   1.262 -0.7360 -1.9882  1.7434
 7426TIP3    H222236   6.482   4.331   1.164  0.7667 -0.5508 -0.1140
 7427TIP3   OH222237   5.141   2.918   0.416 -0.2463 -0.0982 -0.0110
 7427TIP3    H122238   5.086   2.990   0.385 -1.0895 -0.7927 -0.1805
 7427TIP3    H222239   5.081   2.844   0.424  0.5049 -0.6539  0.6471
 7428TIP3   OH222240   6.176   3.122   0.422 -0.4339  0.2458  0.2825
 7428TIP3    H122241   6.246   3.092   0.481 -0.1293  0.4806  0.0393
 7428TIP3    H222242   6.126   3.043   0.402  1.0747 -0.3334 -1.3203
 7429TIP3   OH222243   7.237   1.191   2.132 -0.8021 -0.2307 -0.3623
 7429TIP3    H122244   7.146   1.195   2.160 -0.4770 -0.7599  0.8275
 7429TIP3    H222245   7.251   1.100   2.107 -0.2835 -0.4493  0.6572
 7430TIP3   OH222246   4.713   0.392   6.430  0.4200 -0.3157  0.0514
 7430TIP3    H122247   4.799   0.352   6.444  0.8756  0.1521 -1.3167
 7430TIP3    H222248   4.657   0.318   6.405  0.7864 -0.4033 -0.5282
 7431TIP3   OH222249   8.055   0.398   5.209 -0.0146 -0.3805 -0.0169
 7431TIP3    H122250   8.069   0.368   5.120 -0.4015 -0.2437 -0.1249
 7431TIP3    H222251   8.133   0.370   5.257  0.8503  0.7888 -0.7097
 7432TIP3   OH222252   0.288   6.079   6.367 -0.5121 -0.0974  0.5161
 7432TIP3    H122253   0.233   6.053   6.441  0.5913 -1.4825  0.9101
 7432TIP3    H222254   0.313   6.169   6.386 -1.7416  0.1734  0.8815
 7433TIP3   OH222255   0.164   7.333   4.167 -0.8652  0.3486  0.9241
 7433TIP3    H122256   0.208   7.418   4.171  1.5321 -0.6692 -0.8721
 7433TIP3    H222257   0.183   7.292   4.251  1.2095  0.2281  0.4711
 7434TIP3   OH222258   3.599   7.631   4.485 -0.3031  0.4478 -0.2646
 7434TIP3    H122259   3.524   7.643   4.426  0.5466  0.7108 -1.3223
 7434TIP3    H222260   3.572   7.562   4.545 -1.6129  0.9391 -0.2646
 7435TIP3   OH222261   7.189   3.730   2.525  0.2448  0.9636  0.3157
 7435TIP3    H122262   7.142   3.697   2.448  0.5988 -0.5928  0.7394
 7435TIP3    H222263   7.120   3.763   2.582 -0.1951  0.3194  0.1716
 7436TIP3   OH222264   6.234   3.457   0.096 -0.0469  0.4708  0.2924
 7436TIP3    H122265   6.283   3.411   0.165 -0.4749 -2.3218 -1.1159
 7436TIP3    H222266   6.301   3.490   0.037  0.2598  0.9276  0.8876
 7437TIP3   OH222267   0.602   5.109   5.850 -0.4412 -0.3061 -0.4957
 7437TIP3    H122268   0.546   5.162   5.794 -1.8869  0.7380  1.7666
 7437TIP3    H222269   0.582   5.140   5.939 -0.4516 -3.7810  0.8745
 7438TIP3   OH222270   2.970   6.867   3.721  0.3743  0.1227 -0.0243
 7438TIP3    H122271   2.893   6.831   3.765 -1.8879  2.4399 -1.8406
 7438TIP3    H222272   2.981   6.954   3.758 -0.4752  1.4120 -2.5699
 7439TIP3   OH222273   0.455   6.456   1.196  0.2867 -0.2498 -0.5099
 7439TIP3    H122274   0.374   6.473   1.244  0.1658  1.2180 -1.1648
 7439TIP3    H222275   0.521   6.508   1.243  0.4982 -0.1119 -0.9548
 7440TIP3   OH222276   3.963   3.972   6.732 -0.2471  0.6553 -0.0701
 7440TIP3    H122277   3.998   3.965   6.821  1.0782 -0.7839 -0.6507
 7440TIP3    H222278   3.904   4.047   6.735 -0.1492  0.7080  1.9851
 7441TIP3   OH222279   5.959   7.439   4.883  0.2669 -0.2686 -0.4963
 7441TIP3    H122280   5.897   7.512   4.883 -0.8920 -1.2113 -1.5355
 7441TIP3    H222281   6.045   7.481   4.878 -0.2774  1.0622  0.6913
 7442TIP3   OH222282   3.134   1.135   2.721  0.3884 -0.6267 -0.3413
 7442TIP3    H122283   3.072   1.064   2.737  1.1381 -1.3247 -0.4682
 7442TIP3    H222284   3.217   1.090   2.703  1.2080  0.3157  0.9854
 7443TIP3   OH222285   8.017   1.268   5.417  0.0317  0.4280 -0.0540
 7443TIP3    H122286   8.081   1.277   5.347  0.1780  0.7061  0.1126
 7443TIP3    H222287   8.063   1.299   5.495  0.0696 -0.4104  0.2774
 7444TIP3   OH222288   3.126   4.067   1.231  0.1807 -0.3913  0.3331
 7444TIP3    H122289   3.070   4.086   1.306  0.3829  2.3875 -0.1200
 7444TIP3    H222290   3.069   4.080   1.155 -0.0753 -3.3547 -0.1160
 7445TIP3   OH222291   0.617   5.394   5.541  0.2161 -0.0403 -0.5908
 7445TIP3    H122292   0.698   5.434   5.510 -0.1723  0.5584 -0.8369
 7445TIP3    H222293   0.627   5.301   5.517  0.2541  0.2625 -1.8328
 7446TIP3   OH222294   2.279   4.475   4.401 -0.1241  0.4634  0.1879
 7446TIP3    H122295   2.359   4.423   4.403  0.0325  0.7065  0.3514
 7446TIP3    H222296   2.308   4.565   4.416 -0.0645  1.0042 -2.5170
 7447TIP3   OH222297   3.002   7.707   0.786 -0.9134 -0.2098 -0.2425
 7447TIP3    H122298   2.913   7.735   0.805 -1.2399 -1.1162 -0.3710
 7447TIP3    H222299   2.994   7.654   0.707 -0.4319 -1.1560  0.3217
 7448TIP3   OH222300   2.739   0.378   1.401 -0.2805  0.8345  0.1172
 7448TIP3    H122301   2.771   0.468   1.391  1.4112  0.1870 -0.7160
 7448TIP3    H222302   2.819   0.325   1.405 -1.1791 -0.5116  2.2132
 7449TIP3   OH222303   7.955   3.234   6.715  0.2768 -0.1856 -0.0857
 7449TIP3    H122304   7.860   3.226   6.727  0.2976  0.9001  0.9586
 7449TIP3    H222305   7.986   3.144   6.712 -0.7418 -0.5523 -0.0171
 7450TIP3   OH222306   3.568   6.837   1.292 -0.1779  0.2088  0.0132
 7450TIP3    H122307   3.663   6.832   1.284  0.1831 -1.8058  3.3792
 7450TIP3    H222308   3.553   6.913   1.348 -0.3604 -0.3037  0.6833
 7451TIP3   OH222309   5.757   3.478   0.178  0.1961 -0.7984  0.2628
 7451TIP3    H122310   5.776   3.384   0.186 -2.1841 -1.3154  0.6390
 7451TIP3    H222311   5.840   3.517   0.151  1.4344 -2.9085  0.7819
 7452TIP3   OH222312   3.794   3.376   1.189  0.0658  0.1406  0.3242
 7452TIP3    H122313   3.710   3.343   1.221 -0.9569  0.7772 -1.5531
 7452TIP3    H222314   3.827   3.305   1.133  0.0007  0.5273 -0.2073
 7453TIP3   OH222315   7.380   2.897   5.294  0.6635  0.3347 -0.4527
 7453TIP3    H122316   7.421   2.912   5.208  1.0370 -1.3118 -0.5945
 7453TIP3    H222317   7.387   2.803   5.308 -2.7611 -0.0358 -0.3072
 7454TIP3   OH222318   2.394   0.914   4.975  0.2019 -0.8759  0.0656
 7454TIP3    H122319   2.329   0.867   5.027 -0.0758  0.5815  1.0858
 7454TIP3    H222320   2.473   0.914   5.029  0.2973 -0.4654 -0.0700
 7455TIP3   OH222321   0.724   6.074   3.663 -0.2763  0.3023  0.0504
 7455TIP3    H122322   0.789   6.008   3.641  1.4104  1.3515  1.6333
 7455TIP3    H222323   0.713   6.125   3.583 -0.9992 -1.3506 -0.9460
 7456TIP3   OH222324   1.893   3.987   5.243 -0.0421  0.2161 -0.2047
 7456TIP3    H122325   1.923   4.053   5.306  0.0002 -1.4369  1.6128
 7456TIP3    H222326   1.973   3.952   5.205 -0.0642  1.1515 -1.1626
 7457TIP3   OH222327   6.122   5.400   6.536 -0.3081 -0.2995 -0.2738
 7457TIP3    H122328   6.216   5.389   6.547 -0.2796 -0.8706 -0.9838
 7457TIP3    H222329   6.094   5.448   6.614  0.5145 -0.4239  0.1112
 7458TIP3   OH222330   7.595   3.003   0.301 -0.4159  0.4041 -0.1080
 7458TIP3    H122331   7.516   2.954   0.279  0.6222 -1.0515 -0.7246
 7458TIP3    H222332   7.646   2.944   0.357  0.0622  1.4812  0.6445
 7459TIP3   OH222333   8.070   1.228   4.617  0.4515 -0.3830 -0.1813
 7459TIP3    H122334   8.095   1.152   4.565  0.3733 -0.6236  0.1282
 7459TIP3    H222335   8.137   1.294   4.598  1.6359 -1.1835  1.0355
 7460TIP3   OH222336   1.883   1.998   2.818 -0.1666 -0.5204  0.2764
 7460TIP3    H122337   1.933   2.041   2.887  0.5351 -1.0097  0.0819
 7460TIP3    H222338   1.902   1.905   2.829  0.5849 -0.5522 -1.0509
 7461TIP3   OH222339   0.901   3.826   5.320  0.4749  0.4150  0.2925
 7461TIP3    H122340   0.928   3.853   5.407 -3.3726  1.8492  1.2835
 7461TIP3    H222341   0.910   3.905   5.266  1.4450 -0.0509 -0.2467
 7462TIP3   OH222342   1.277   5.054   4.005  0.0050 -0.4406 -0.3015
 7462TIP3    H122343   1.322   5.117   3.948 -0.5084  0.5097  0.3100
 7462TIP3    H222344   1.234   4.994   3.944 -0.4208  0.4756 -0.9341
 7463TIP3   OH222345   1.057   3.076   3.962  0.1262  0.6768  0.3104
 7463TIP3    H122346   1.001   3.080   3.885 -1.7561  1.5967  1.6421
 7463TIP3    H222347   1.121   3.008   3.941 -0.8450  0.2930 -1.7037
 7464TIP3   OH222348   7.662   5.118   4.295  0.0657 -0.3180  0.0316
 7464TIP3    H122349   7.673   5.179   4.368  1.1473 -0.4749  0.0116
 7464TIP3    H222350   7.576   5.140   4.259 -0.4735 -0.2157  1.3235
 7465TIP3   OH222351   5.866   4.395   5.358 -0.4152  0.2348  0.3643
 7465TIP3    H122352   5.886   4.483   5.389 -0.1967 -0.3580  2.0215
 7465TIP3    H222353   5.790   4.405   5.302 -0.0515  1.5467  0.0836
 7466TIP3   OH222354   5.232   6.515   5.844  0.4946  0.2801 -0.0978
 7466TIP3    H122355   5.235   6.477   5.757  0.2522 -0.2102  0.1010
 7466TIP3    H222356   5.254   6.442   5.903  0.2459  0.4965  0.2705
 7467TIP3   OH222357   0.839   6.451   1.353 -0.3059  0.1068 -0.4001
 7467TIP3    H122358   0.801   6.539   1.352  1.2862  0.9339  2.0859
 7467TIP3    H222359   0.789   6.404   1.420  0.3246 -0.1217 -0.0838
 7468TIP3   OH222360   3.261   6.003   6.367 -0.4074  0.1474 -0.0337
 7468TIP3    H122361   3.355   6.018   6.374 -0.4785  0.7027 -0.2460
 7468TIP3    H222362   3.250   5.909   6.384  0.1453  0.1465  0.3374
 7469TIP3   OH222363   1.814   3.186   0.060 -0.2959 -0.2600 -0.3772
 7469TIP3    H122364   1.815   3.094   0.088  0.4623  0.0426  0.6754
 7469TIP3    H222365   1.756   3.229   0.124  1.5086  0.4605  0.8528
 7470TIP3   OH222366   1.470   5.761   2.536 -0.1988 -0.1788 -0.8076
 7470TIP3    H122367   1.507   5.757   2.448 -0.3880 -1.2417 -0.8534
 7470TIP3    H222368   1.484   5.674   2.572 -0.0154  0.2815  0.2666
 7471TIP3   OH222369   5.723   4.925   1.847  0.2709 -0.1345  0.8135
 7471TIP3    H122370   5.766   4.940   1.763  0.0373 -0.7032  0.5950
 7471TIP3    H222371   5.686   4.837   1.841  0.4336 -0.2643  1.5890
 7472TIP3   OH222372   7.923   6.033   1.993 -0.1921  0.1328 -0.4183
 7472TIP3    H122373   7.993   6.097   1.998  1.7139 -1.6923 -1.9577
 7472TIP3    H222374   7.949   5.975   1.922 -1.6827 -2.5120  1.0606
 7473TIP3   OH222375   6.891   5.711   4.085 -0.3351 -0.1279  0.5145
 7473TIP3    H122376   6.898   5.805   4.069 -1.4285  0.1577  1.5403
 7473TIP3    H222377   6.802   5.689   4.055 -0.0180 -0.8860  0.0989
 7474TIP3   OH222378   2.582   1.166   6.426 -0.2022  0.9589 -0.0773
 7474TIP3    H122379   2.512   1.229   6.414 -1.3030 -0.3950 -1.0636
 7474TIP3    H222380   2.564   1.126   6.511 -2.1709 -1.1362 -1.3687
 7475TIP3   OH222381   7.412   2.453   2.550  0.0122  0.2717 -0.3014
 7475TIP3    H122382   7.411   2.462   2.646  0.3570  1.6090 -0.3960
 7475TIP3    H222383   7.333   2.499   2.522  0.6970  1.2380 -0.7238
 7476TIP3   OH222384   8.105   5.689   0.298 -0.8355 -0.5453  0.5614
 7476TIP3    H122385   8.074   5.776   0.319  0.0076  0.3145 -1.4556
 7476TIP3    H222386   8.035   5.630   0.325 -0.3198  0.4179  4.4753
 7477TIP3   OH222387   7.804   4.533   2.616  0.0651 -0.3044  0.0961
 7477TIP3    H122388   7.726   4.505   2.569 -2.1782  0.5641  3.0197
 7477TIP3    H222389   7.793   4.627   2.628  1.3563 -0.2301  0.9134
 7478TIP3   OH222390   2.601   3.057   2.325 -0.2293 -0.2948 -0.4795
 7478TIP3    H122391   2.558   3.095   2.248  0.6185 -0.3214 -0.9791
 7478TIP3    H222392   2.693   3.054   2.302 -0.1085 -1.4551  0.0589
 7479TIP3   OH222393   6.240   4.120   1.749  0.6628 -0.1706  0.1409
 7479TIP3    H122394   6.237   4.064   1.671 -1.9582  2.2632 -1.7339
 7479TIP3    H222395   6.304   4.188   1.726 -0.2134  0.6275 -0.0079
 7480TIP3   OH222396   4.740   5.328   1.373  0.5369 -0.6597 -0.2842
 7480TIP3    H122397   4.733   5.423   1.386 -1.1363 -0.7953 -0.0366
 7480TIP3    H222398   4.739   5.291   1.462 -0.5777 -0.9927 -0.4210
 7481TIP3   OH222399   4.718   6.428   2.815  0.5520  0.2841  0.2459
 7481TIP3    H122400   4.733   6.382   2.732  1.0976 -0.6769  0.8636
 7481TIP3    H222401   4.760   6.373   2.881 -1.4170  0.0940  1.4121
 7482TIP3   OH222402   1.931   7.435   3.132 -0.0567  0.4691  0.3832
 7482TIP3    H122403   1.973   7.471   3.209 -0.8635  1.5394  0.3368
 7482TIP3    H222404   1.903   7.347   3.158  2.1430 -0.2838  0.4178
 7483TIP3   OH222405   3.519   4.882   4.196 -0.7144  1.0126  0.0642
 7483TIP3    H122406   3.479   4.850   4.278  0.0155 -0.9012 -0.2752
 7483TIP3    H222407   3.580   4.950   4.225  0.2621 -0.2969  1.2757
 7484TIP3   OH222408   7.615   7.304   0.712 -0.4690 -0.0259 -0.1464
 7484TIP3    H122409   7.559   7.226   0.711 -0.8003  0.1376  1.6347
 7484TIP3    H222410   7.688   7.281   0.655 -1.0642 -1.2534 -0.4642
 7485TIP3   OH222411   3.374   1.989   2.864 -0.1149 -0.7219  0.1331
 7485TIP3    H122412   3.346   2.070   2.821 -1.8445 -1.2948  0.1140
 7485TIP3    H222413   3.443   2.016   2.924 -1.3721  0.9463  0.8900
 7486TIP3   OH222414   4.942   5.316   4.979 -0.3407  0.0161  0.3588
 7486TIP3    H122415   4.912   5.237   4.936  3.3779 -0.6577 -1.4066
 7486TIP3    H222416   4.881   5.384   4.951 -2.5464 -1.8151  0.4516
 7487TIP3   OH222417   4.085   2.599   6.680  0.1987 -0.0243  0.0301
 7487TIP3    H122418   4.017   2.623   6.616 -0.7449  1.8541  1.6298
 7487TIP3    H222419   4.083   2.503   6.682  0.1065 -0.1435 -2.5442
 7488TIP3   OH222420   5.955   2.380   5.905  0.3809 -0.2675 -0.3121
 7488TIP3    H122421   6.030   2.337   5.865  1.3865 -0.9638  2.1334
 7488TIP3    H222422   5.985   2.405   5.992 -2.1310 -0.3422  0.6716
 7489TIP3   OH222423   2.338   2.459   2.464 -0.4773  0.4795 -0.2742
 7489TIP3    H122424   2.381   2.522   2.522  1.7684 -0.7264 -0.5098
 7489TIP3    H222425   2.409   2.404   2.432 -2.0031 -0.5291 -2.1457
 7490TIP3   OH222426   0.631   1.284   3.755  0.5492  0.6007  0.6192
 7490TIP3    H122427   0.650   1.190   3.764  0.3686  0.1086 -2.7405
 7490TIP3    H222428   0.673   1.325   3.830  2.5368 -1.9473  1.0165
 7491TIP3   OH222429   0.440   5.883   1.156 -0.2637  0.1970  1.0782
 7491TIP3    H122430   0.375   5.822   1.119  0.4762 -0.1153  0.2527
 7491TIP3    H222431   0.425   5.879   1.250 -1.3415  0.0138  0.9195
 7492TIP3   OH222432   4.047   1.322   1.682  0.1051 -0.2076 -0.2463
 7492TIP3    H122433   4.086   1.404   1.650 -0.3552 -0.3161 -1.1299
 7492TIP3    H222434   3.993   1.349   1.756  0.3287  0.2223 -0.2328
 7493TIP3   OH222435   0.883   4.317   0.853 -0.0038  0.6965  0.3852
 7493TIP3    H122436   0.965   4.315   0.903 -0.4184  1.9528  1.1551
 7493TIP3    H222437   0.886   4.237   0.801  1.1330  0.0736  1.3286
 7494TIP3   OH222438   3.894   1.131   4.239  0.1385  0.4967  0.1429
 7494TIP3    H122439   3.980   1.122   4.197 -0.2874 -0.4094 -0.5580
 7494TIP3    H222440   3.866   1.220   4.218 -0.6769 -0.3442 -2.7033
 7495TIP3   OH222441   5.016   1.694   3.840  0.6711 -0.1293 -0.0604
 7495TIP3    H122442   5.076   1.657   3.904 -0.6131 -0.2781  1.1066
 7495TIP3    H222443   4.941   1.723   3.892 -0.3007 -0.0242 -1.4776
 7496TIP3   OH222444   7.797   2.454   0.099 -0.0422  0.0082  0.1305
 7496TIP3    H122445   7.769   2.519   0.164  0.0150 -0.4603  0.6332
 7496TIP3    H222446   7.747   2.475   0.021 -0.1307  0.5704  0.3362
 7497TIP3   OH222447   2.760   1.760   6.707  0.7736  0.6510  0.3240
 7497TIP3    H122448   2.669   1.786   6.725  0.4514 -1.5966  2.5751
 7497TIP3    H222449   2.751   1.680   6.655  1.5605  1.4759 -1.1278
 7498TIP3   OH222450   1.857   6.253   4.830 -0.6493  0.1950 -0.5855
 7498TIP3    H122451   1.929   6.275   4.771 -1.4961  0.1032 -1.7062
 7498TIP3    H222452   1.835   6.335   4.874  0.0397  0.2515 -0.3367
 7499TIP3   OH222453   5.593   0.642   5.934  0.2721  0.2557 -0.2772
 7499TIP3    H122454   5.632   0.684   6.011 -0.4029  1.2633 -0.4624
 7499TIP3    H222455   5.668   0.610   5.884  0.7451  0.1147  0.5075
 7500TIP3   OH222456   6.919   5.411   2.710  0.0508 -0.7367 -0.0328
 7500TIP3    H122457   6.930   5.345   2.641 -0.7646  0.5950 -1.5181
 7500TIP3    H222458   6.876   5.364   2.781  0.4731 -2.0536 -0.6173
 7501TIP3   OH222459   7.197   7.605   5.484 -0.2918 -0.1505  0.1738
 7501TIP3    H122460   7.119   7.626   5.535 -0.9201  0.4780 -0.9781
 7501TIP3    H222461   7.166   7.602   5.393  1.0275  0.1750 -0.3224
 7502TIP3   OH222462   1.400   5.916   4.013  0.1930 -0.0189  0.0296
 7502TIP3    H122463   1.385   6.007   3.987  0.7141 -0.2693 -1.2211
 7502TIP3    H222464   1.373   5.865   3.936 -0.7672 -0.9692  0.9685
 7503TIP3   OH222465   7.050   4.879   6.001 -0.0946  0.2671  0.2441
 7503TIP3    H122466   7.117   4.916   6.059 -1.8990 -0.1571  2.7817
 7503TIP3    H222467   7.085   4.794   5.975  0.9423  0.6469  0.3339
 7504TIP3   OH222468   4.070   2.504   0.881  0.0410 -0.5494 -0.6094
 7504TIP3    H122469   4.015   2.470   0.951 -0.6101  0.2936 -0.6889
 7504TIP3    H222470   4.096   2.427   0.831 -0.2041 -1.0696  0.0433
 7505TIP3   OH222471   8.017   6.747   1.783  0.0201  0.0816  0.0044
 7505TIP3    H122472   8.046   6.727   1.872  1.5293 -0.9979 -0.6805
 7505TIP3    H222473   8.013   6.661   1.740  2.3135  0.7612 -1.7834
 7506TIP3   OH222474   2.044   5.011   0.595 -0.1187 -0.1556  0.6351
 7506TIP3    H122475   1.958   5.030   0.559  0.2885  0.2595 -0.1365
 7506TIP3    H222476   2.105   5.028   0.523  0.9067  2.5006  2.0195
 7507TIP3   OH222477   4.303   2.114   4.441 -0.3060  0.4079 -0.3267
 7507TIP3    H122478   4.310   2.164   4.522 -0.3512  0.6022 -0.4424
 7507TIP3    H222479   4.248   2.038   4.464  0.2346  0.1101 -0.0113
 7508TIP3   OH222480   0.157   7.708   4.476  0.1877  0.3751 -0.1226
 7508TIP3    H122481   0.242   7.736   4.509 -0.4189  1.7607  0.3582
 7508TIP3    H222482   0.096   7.729   4.546 -0.8804  1.7434 -1.3948
 7509TIP3   OH222483   2.322   4.755   1.199  0.4539 -0.5937 -0.6696
 7509TIP3    H122484   2.237   4.797   1.186  1.1776  1.6310  1.2219
 7509TIP3    H222485   2.355   4.739   1.110 -0.9113  0.6414 -1.4318
 7510TIP3   OH222486   2.539   7.246   2.380  0.1420  0.3744  0.4452
 7510TIP3    H122487   2.545   7.236   2.285 -1.0953  1.9833  0.1438
 7510TIP3    H222488   2.619   7.292   2.405  0.7565 -0.6028  0.2786
 7511TIP3   OH222489   7.685   0.262   0.602  0.2082  0.4574  0.2567
 7511TIP3    H122490   7.729   0.258   0.688  1.1680  2.0547 -0.1081
 7511TIP3    H222491   7.688   0.172   0.570  1.0849  0.0773  1.3025
 7512TIP3   OH222492   1.982   5.755   4.094 -0.0681 -0.2110  0.0592
 7512TIP3    H122493   1.934   5.775   4.174 -0.0643 -0.9685  0.2602
 7512TIP3    H222494   2.075   5.762   4.118  0.0251  3.0547 -0.7744
 7513TIP3   OH222495   6.277   6.770   6.588  0.2353  0.5462 -0.0429
 7513TIP3    H122496   6.211   6.839   6.602  0.5740  0.7708  0.4395
 7513TIP3    H222497   6.253   6.732   6.503 -0.6397  0.4896  0.2203
 7514TIP3   OH222498   0.126   5.397   3.235  0.1429  0.1779  0.5546
 7514TIP3    H122499   0.130   5.472   3.177 -0.5174 -0.0266  0.2357
 7514TIP3    H222500   0.218   5.374   3.251  0.3267  0.0293 -0.6719
 7515TIP3   OH222501   1.970   0.555   5.123 -0.0067  0.1173 -0.3449
 7515TIP3    H122502   1.997   0.608   5.197 -0.7679 -0.0913  0.1022
 7515TIP3    H222503   1.876   0.572   5.115  0.1527  0.5197 -1.5840
 7516TIP3   OH222504   6.855   1.997   2.283 -0.7080  0.1268  0.1158
 7516TIP3    H122505   6.813   2.065   2.230 -1.2185 -0.5904 -0.4151
 7516TIP3    H222506   6.791   1.977   2.352 -1.2674 -0.9687 -0.6946
 7517TIP3   OH222507   1.225   7.634   1.357  0.3446 -0.4069  0.1975
 7517TIP3    H122508   1.130   7.641   1.354  0.2912  0.2225  2.3336
 7517TIP3    H222509   1.242   7.541   1.373 -0.1272 -0.0023  3.7329
 7518TIP3   OH222510   0.604   3.889   1.131 -0.4210  0.2250  0.5937
 7518TIP3    H122511   0.673   3.897   1.197 -0.5331  0.8956  0.6312
 7518TIP3    H222512   0.523   3.905   1.180 -0.4358  1.7524  0.1074
 7519TIP3   OH222513   0.846   6.483   5.526 -0.3052 -0.4071  0.0027
 7519TIP3    H122514   0.835   6.577   5.540 -2.5221 -0.9881  3.1557
 7519TIP3    H222515   0.879   6.449   5.609 -1.7264 -2.7086 -0.2711
 7520TIP3   OH222516   0.953   1.636   1.555 -0.4706  0.0933  0.3118
 7520TIP3    H122517   1.026   1.629   1.494 -0.6153  0.4330  0.0955
 7520TIP3    H222518   0.885   1.683   1.506 -0.8768 -0.3152  0.4688
 7521TIP3   OH222519   5.480   3.741   1.460  0.1128 -0.9340  0.2395
 7521TIP3    H122520   5.512   3.653   1.475 -0.2910 -0.8579  1.7503
 7521TIP3    H222521   5.547   3.798   1.498  0.6742 -0.5353 -1.2735
 7522TIP3   OH222522   1.755   3.595   4.968  0.3731  0.1648  0.0574
 7522TIP3    H122523   1.847   3.594   4.996  0.3204  1.2203  0.3159
 7522TIP3    H222524   1.756   3.555   4.881  0.9876 -0.3648  0.2991
 7523TIP3   OH222525   4.540   7.561   3.607 -0.0070 -0.3186  0.3614
 7523TIP3    H122526   4.631   7.529   3.612  1.3232  2.7702 -1.2839
 7523TIP3    H222527   4.487   7.481   3.608  2.7224 -2.2893  0.9424
 7524TIP3   OH222528   0.407   5.284   5.743 -0.2044  0.5212  0.3825
 7524TIP3    H122529   0.313   5.287   5.724  0.0413  1.4828 -0.8305
 7524TIP3    H222530   0.447   5.341   5.677  1.4357 -1.3032 -0.3116
 7525TIP3   OH222531   2.014   0.936   1.558 -0.1840 -0.5839  0.1128
 7525TIP3    H122532   2.104   0.965   1.541 -0.0929 -0.3064  1.0290
 7525TIP3    H222533   2.004   0.943   1.653 -1.2861 -0.2654 -0.0125
 7526TIP3   OH222534   6.018   3.235   0.879  0.5906  0.3499  0.3345
 7526TIP3    H122535   6.021   3.243   0.974  1.7937  1.2710  0.2457
 7526TIP3    H222536   6.040   3.143   0.861  1.2961  0.3972  0.9194
 7527TIP3   OH222537   0.553   1.122   5.563  0.4506  0.9206 -0.6115
 7527TIP3    H122538   0.580   1.214   5.561  0.2599  0.9658 -1.2449
 7527TIP3    H222539   0.571   1.094   5.653  0.5908  1.5513 -0.4372
 7528TIP3   OH222540   3.308   2.874   6.524 -0.0343 -0.3049 -0.1170
 7528TIP3    H122541   3.286   2.958   6.563 -0.1487 -0.7931  0.9128
 7528TIP3    H222542   3.227   2.823   6.530  0.7070 -1.3710  1.6958
 7529TIP3   OH222543   4.160   3.472   4.802  0.7996 -0.2594  0.0859
 7529TIP3    H122544   4.100   3.547   4.798 -0.2748 -1.1649 -1.9608
 7529TIP3    H222545   4.176   3.449   4.711  2.7184 -1.3099  0.6232
 7530TIP3   OH222546   7.889   4.571   5.317  0.4497 -0.4152  0.2461
 7530TIP3    H122547   7.909   4.492   5.367  1.4407 -0.2936  0.0577
 7530TIP3    H222548   7.896   4.642   5.382 -0.8036 -0.5090  0.4985
 7531TIP3   OH222549   0.896   1.390   1.663 -0.1679  0.1250 -0.2348
 7531TIP3    H122550   0.964   1.337   1.620 -0.6341 -0.3268 -0.4369
 7531TIP3    H222551   0.904   1.477   1.623 -0.4350 -0.2238 -1.0888
 7532TIP3   OH222552   1.248   7.116   6.494 -0.3481 -0.0566 -0.4794
 7532TIP3    H122553   1.340   7.089   6.497  0.0840  0.6991 -3.7709
 7532TIP3    H222554   1.204   7.045   6.447 -0.8216  1.0119 -1.6882
 7533TIP3   OH222555   7.210   0.532   6.627 -0.4548 -0.6034  0.1027
 7533TIP3    H122556   7.190   0.547   6.719 -1.5299  0.9359 -0.3383
 7533TIP3    H222557   7.135   0.482   6.594 -1.5597  1.4217 -0.5756
 7534TIP3   OH222558   3.649   6.526   4.764 -0.1563  0.4188  0.0310
 7534TIP3    H122559   3.612   6.514   4.677 -1.4341 -2.2958  0.8624
 7534TIP3    H222560   3.685   6.440   4.787 -0.1262  0.9770  2.2875
 7535TIP3   OH222561   6.780   3.581   3.666  0.0655 -0.2382 -0.2025
 7535TIP3    H122562   6.731   3.586   3.748  1.4014 -0.0992  0.6151
 7535TIP3    H222563   6.783   3.671   3.634  1.8471  0.1983  1.0352
 7536TIP3   OH222564   5.391   4.543   3.262  0.1661  0.3137 -0.0527
 7536TIP3    H122565   5.351   4.623   3.297  0.6752 -0.1864  1.7758
 7536TIP3    H222566   5.467   4.574   3.212  0.7183  0.9805  1.1494
 7537TIP3   OH222567   6.530   0.845   1.344 -0.6154 -0.0568 -1.0501
 7537TIP3    H122568   6.468   0.793   1.394 -0.6130 -0.7298 -1.7290
 7537TIP3    H222569   6.564   0.785   1.277  0.4594  0.4097 -0.9510
 7538TIP3   OH222570   5.209   0.651   4.542  0.3281  0.2362 -0.2203
 7538TIP3    H122571   5.137   0.697   4.500 -0.1202 -1.2432 -1.1423
 7538TIP3    H222572   5.186   0.650   4.635  1.1642  3.2506  0.1333
 7539TIP3   OH222573   1.571   5.388   0.928  0.4910  0.5820 -0.0559
 7539TIP3    H122574   1.522   5.407   0.848  2.1581 -2.5585 -2.0377
 7539TIP3    H222575   1.654   5.436   0.916  1.0313 -0.4631 -0.6201
 7540TIP3   OH222576   4.105   5.943   4.575 -0.2678 -0.2362  0.0002
 7540TIP3    H122577   4.097   5.848   4.582  1.4972 -0.3156  1.4460
 7540TIP3    H222578   4.198   5.959   4.560 -0.6634  1.2519 -1.1978
 7541TIP3   OH222579   0.134   5.745   1.404  0.4838  0.3177  0.5409
 7541TIP3    H122580   0.225   5.768   1.421  1.1457 -1.9801  0.4189
 7541TIP3    H222581   0.112   5.791   1.323  0.4723  3.3554  2.0996
 7542TIP3   OH222582   5.745   2.351   5.728 -0.2414  0.2626 -0.1191
 7542TIP3    H122583   5.665   2.376   5.774 -0.8553  0.1004 -1.0870
 7542TIP3    H222584   5.812   2.350   5.797 -0.8403  1.4318  0.5172
 7543TIP3   OH222585   7.769   4.324   1.931  0.2381  0.2365 -0.1298
 7543TIP3    H122586   7.740   4.352   2.018  0.2585  0.6353 -0.2502
 7543TIP3    H222587   7.722   4.242   1.915  0.5329 -0.0503  0.4225
 7544TIP3   OH222588   7.491   7.643   3.609 -0.3867  0.6843  0.0675
 7544TIP3    H122589   7.550   7.687   3.548 -0.4014  1.4692  0.6112
 7544TIP3    H222590   7.404   7.659   3.574 -0.2830 -0.7999 -0.9489
 7545TIP3   OH222591   1.367   0.376   4.464 -0.2582  0.7595 -0.0541
 7545TIP3    H122592   1.395   0.363   4.554 -0.4921 -0.0638 -0.0898
 7545TIP3    H222593   1.296   0.440   4.469 -0.8933  0.0339  0.4561
 7546TIP3   OH222594   4.498   3.835   3.079  0.0921  0.1231  0.3080
 7546TIP3    H122595   4.542   3.754   3.053  0.1135  0.6051 -1.2002
 7546TIP3    H222596   4.546   3.863   3.158  1.4073 -0.2533 -0.3314
 7547TIP3   OH222597   5.991   2.182   3.580  0.7621  0.1658 -0.0528
 7547TIP3    H122598   6.050   2.165   3.653  0.3527  1.4425  0.5937
 7547TIP3    H222599   6.042   2.157   3.502  1.8725  0.4864  0.5465
 7548TIP3   OH222600   7.861   1.844   0.323  0.2109  0.2708  0.3900
 7548TIP3    H122601   7.928   1.848   0.392  2.1234  1.0611 -1.4119
 7548TIP3    H222602   7.909   1.815   0.245 -1.8516 -0.4555 -0.6694
 7549TIP3   OH222603   4.270   1.105   1.134 -0.0445  0.2507  0.1679
 7549TIP3    H122604   4.211   1.033   1.157 -1.4916  1.1403 -0.5609
 7549TIP3    H222605   4.282   1.098   1.040  0.2281  0.6559  0.1684
 7550TIP3   OH222606   6.975   7.834   5.035 -0.4265  0.1350  0.3911
 7550TIP3    H122607   6.895   7.808   4.990  0.7497  0.2605 -1.8968
 7550TIP3    H222608   7.010   7.753   5.071 -1.7946  0.1519  1.8921
 7551TIP3   OH222609   4.228   4.527   0.734 -0.4463 -0.4779 -0.0158
 7551TIP3    H122610   4.285   4.454   0.711 -1.2188 -0.6089 -1.6771
 7551TIP3    H222611   4.288   4.599   0.753  0.3116 -0.8019 -1.0450
 7552TIP3   OH222612   5.794   6.178   4.255  0.4749  0.0737 -0.2468
 7552TIP3    H122613   5.857   6.231   4.206  1.2412 -0.3707  0.2436
 7552TIP3    H222614   5.809   6.089   4.224  0.3459 -0.0865  0.1468
 7553TIP3   OH222615   7.987   5.767   2.430  0.0188  0.1333  0.3653
 7553TIP3    H122616   8.054   5.701   2.449  1.0829  1.4249  1.3401
 7553TIP3    H222617   7.911   5.717   2.403  0.7331 -1.5027  1.2265
 7554TIP3   OH222618   3.004   2.340   0.062  0.0206 -0.0811 -0.1557
 7554TIP3    H122619   2.946   2.285   0.008 -0.9942 -1.4948  2.2266
 7554TIP3    H222620   2.998   2.427   0.022 -2.5143 -0.5373 -0.9709
 7555TIP3   OH222621   4.360   3.897   4.323 -0.4018  0.3214  0.0542
 7555TIP3    H122622   4.323   3.813   4.295 -1.0682  0.9662 -1.0319
 7555TIP3    H222623   4.377   3.885   4.417 -0.6239 -0.9714 -0.0546
 7556TIP3   OH222624   5.383   6.313   0.151 -0.2340  0.0167 -0.0735
 7556TIP3    H122625   5.463   6.326   0.100 -2.1319  2.2990 -2.8254
 7556TIP3    H222626   5.413   6.300   0.241  3.2528 -1.7569 -1.3084
 7557TIP3   OH222627   8.062   0.459   4.325 -0.6018  0.7294 -0.4986
 7557TIP3    H122628   8.136   0.495   4.373 -1.1801 -0.6357  1.5207
 7557TIP3    H222629   8.094   0.377   4.289 -1.5099 -0.7115  1.7901
 7558TIP3   OH222630   7.380   5.621   4.947  0.3187 -0.0800 -0.5935
 7558TIP3    H122631   7.398   5.713   4.966 -1.1965 -0.1834  1.7398
 7558TIP3    H222632   7.305   5.624   4.887  0.7856  0.1818 -1.1808
 7559TIP3   OH222633   4.615   0.402   1.809 -0.1792  0.4198  0.4654
 7559TIP3    H122634   4.640   0.345   1.882  0.7152  0.1629 -0.0353
 7559TIP3    H222635   4.668   0.480   1.820 -1.2065  1.0716  0.9932
 7560TIP3   OH222636   7.866   2.693   2.132  0.1764  0.6674 -0.1519
 7560TIP3    H122637   7.807   2.712   2.205  1.1271 -0.8315  1.0769
 7560TIP3    H222638   7.941   2.649   2.173  1.4941  1.2265 -1.8373
 7561TIP3   OH222639   0.722   4.197   1.379  0.5877 -0.1914 -0.0390
 7561TIP3    H122640   0.642   4.190   1.430  0.1943  0.8851 -0.4769
 7561TIP3    H222641   0.746   4.107   1.358  0.2508 -0.5913  1.2399
 7562TIP3   OH222642   7.408   1.485   5.365 -0.3168 -0.4563 -0.4194
 7562TIP3    H122643   7.452   1.434   5.298 -0.8065 -2.8144  0.9439
 7562TIP3    H222644   7.444   1.453   5.448 -0.3416  1.7625  0.5232
 7563TIP3   OH222645   7.656   6.628   1.065 -0.2058 -0.0212  0.3757
 7563TIP3    H122646   7.693   6.540   1.061  1.3111  0.6305 -1.6139
 7563TIP3    H222647   7.604   6.629   1.146  0.8974 -2.2570  1.1861
 7564TIP3   OH222648   1.337   0.729   0.401  0.3743 -0.4667  0.0756
 7564TIP3    H122649   1.283   0.736   0.480  0.7508  0.3436  0.2750
 7564TIP3    H222650   1.423   0.704   0.434  0.5420 -0.0910 -0.0662
 7565TIP3   OH222651   4.231   7.180   3.149 -0.4720 -0.2896 -0.1360
 7565TIP3    H122652   4.311   7.139   3.182 -0.6558  0.6455  1.5765
 7565TIP3    H222653   4.195   7.116   3.087  1.4682 -0.8128 -0.7832
 7566TIP3   OH222654   0.646   7.351   3.192 -0.0968 -0.1221 -0.0036
 7566TIP3    H122655   0.706   7.338   3.265 -0.9987 -0.7982  0.6352
 7566TIP3    H222656   0.583   7.416   3.223 -0.1370  0.0333 -0.3984
 7567TIP3   OH222657   0.003   5.622   5.345  0.0140 -0.4451  0.4088
 7567TIP3    H122658  -0.053   5.650   5.272  0.0396 -1.2666  0.0554
 7567TIP3    H222659   0.092   5.625   5.309  0.0153 -0.9649  0.3603
 7568TIP3   OH222660   4.017   1.779   2.964  0.3533 -1.1987 -0.3337
 7568TIP3    H122661   4.059   1.854   2.921 -1.9860  0.1563 -0.4365
 7568TIP3    H222662   4.037   1.790   3.057 -0.0791 -0.3264 -0.3279
 7569TIP3   OH222663   2.464   2.579   1.905 -0.1027  0.2085  0.8084
 7569TIP3    H122664   2.530   2.525   1.861  1.0724  0.4680  2.1801
 7569TIP3    H222665   2.492   2.669   1.888  0.4138  0.3076  2.1230
 7570TIP3   OH222666   2.895   6.548   1.094 -0.4179 -0.2835 -0.3990
 7570TIP3    H122667   2.846   6.545   1.176 -1.4511 -2.2749 -1.0310
 7570TIP3    H222668   2.945   6.467   1.094 -2.2405 -1.5211 -2.7583
 7571TIP3   OH222669   6.259   3.109   4.093 -0.9746  0.0708 -0.0831
 7571TIP3    H122670   6.199   3.050   4.046 -1.8370  0.4194  0.5565
 7571TIP3    H222671   6.211   3.136   4.171  0.6573 -0.9313  1.3225
 7572TIP3   OH222672   5.817   1.681   1.291  0.0674  0.2643 -0.2813
 7572TIP3    H122673   5.911   1.678   1.273  0.0394  0.1649 -0.4127
 7572TIP3    H222674   5.803   1.769   1.327  0.4429 -0.2154  1.0772
 7573TIP3   OH222675   0.074   0.031   4.737 -0.4020  0.2264 -0.4993
 7573TIP3    H122676   0.112  -0.028   4.671 -0.1657  0.1008 -0.2546
 7573TIP3    H222677  -0.016   0.045   4.708 -0.1519  0.5800 -1.1280
 7574TIP3   OH222678   8.120   2.683   1.913 -0.3251  0.1994 -0.6388
 7574TIP3    H122679   8.213   2.702   1.923 -0.4751  1.8507 -1.9554
 7574TIP3    H222680   8.086   2.676   2.003  1.0259 -0.2807 -0.1520
 7575TIP3   OH222681   5.176   1.043   5.203  0.2692 -0.1256 -0.1272
 7575TIP3    H122682   5.153   0.970   5.260 -2.4968  0.2123 -0.6884
 7575TIP3    H222683   5.143   1.121   5.248  1.1293  0.5385 -0.6066
 7576TIP3   OH222684   1.159   0.457   6.693 -0.6667 -0.0268  0.7066
 7576TIP3    H122685   1.175   0.363   6.697 -0.4742  0.0275  1.5947
 7576TIP3    H222686   1.189   0.483   6.606  1.4617 -0.4125  1.2455
 7577TIP3   OH222687   7.008   2.112   2.493  0.1890 -0.1099 -0.0033
 7577TIP3    H122688   7.083   2.068   2.532 -0.4791 -1.2848  0.0243
 7577TIP3    H222689   7.004   2.078   2.404 -1.0444 -1.0795  0.3872
 7578TIP3   OH222690   2.991   6.874   0.281  0.6262 -0.6991 -0.4959
 7578TIP3    H122691   2.982   6.864   0.376 -0.4186 -0.5973 -0.5773
 7578TIP3    H222692   2.969   6.788   0.246 -0.6887 -0.2756 -0.7388
 7579TIP3   OH222693   7.599   4.023   3.130 -0.2007  0.2217 -0.5576
 7579TIP3    H122694   7.693   4.044   3.127  0.1166 -0.6101  1.5941
 7579TIP3    H222695   7.565   4.079   3.200 -0.6967 -1.5041  0.6326
 7580TIP3   OH222696   4.769   1.323   3.392  0.1223 -0.0223 -0.4225
 7580TIP3    H122697   4.850   1.342   3.440  0.2783 -1.4135 -0.0995
 7580TIP3    H222698   4.738   1.240   3.428 -1.4666  0.4949 -0.5436
 7581TIP3   OH222699   2.031   4.145   2.891 -0.2783 -0.2330 -0.2244
 7581TIP3    H122700   2.092   4.215   2.912 -0.8623  0.1595  0.1964
 7581TIP3    H222701   1.949   4.190   2.871 -0.0786 -0.6488 -2.1915
 7582TIP3   OH222702   6.388   6.104   2.011 -0.2929  0.1440 -0.4152
 7582TIP3    H122703   6.340   6.029   2.048  0.0829  0.0491 -0.1142
 7582TIP3    H222704   6.414   6.156   2.087  2.9259 -1.4922 -0.2173
 7583TIP3   OH222705   0.007   5.821   4.943  0.6257  0.7199 -0.0009
 7583TIP3    H122706   0.074   5.846   4.879  1.2947  1.7268  1.0609
 7583TIP3    H222707   0.053   5.819   5.027  0.1307 -2.1600  0.2991
 7584TIP3   OH222708   0.319   3.263   3.988 -0.2471 -0.1706  0.1508
 7584TIP3    H122709   0.359   3.299   4.067  1.3397 -0.7946 -0.3343
 7584TIP3    H222710   0.316   3.169   4.003  0.2956 -0.3192 -0.6085
 7585TIP3   OH222711   6.610   3.092   1.870  0.5028 -0.4084  0.2166
 7585TIP3    H122712   6.610   3.139   1.953  0.7382  0.3437 -0.1987
 7585TIP3    H222713   6.697   3.106   1.834  0.4957 -0.9616 -0.0352
 7586TIP3   OH222714   7.534   0.601   4.368  0.0101 -0.1560 -0.2613
 7586TIP3    H122715   7.542   0.531   4.432  0.6699 -0.3112 -0.5012
 7586TIP3    H222716   7.612   0.655   4.382 -0.4080  0.4408 -0.1847
 7587TIP3   OH222717   2.911   5.548   0.843  0.2875 -0.1356  0.1189
 7587TIP3    H122718   2.963   5.534   0.922  1.5459 -3.1516 -1.0909
 7587TIP3    H222719   2.821   5.530   0.871  0.0597  2.7748  1.6755
 7588TIP3   OH222720   4.167   5.419   0.602 -0.2975  0.5221 -0.9382
 7588TIP3    H122721   4.165   5.412   0.506  2.0892 -1.2396 -0.9685
 7588TIP3    H222722   4.260   5.413   0.624 -0.8932 -1.5738  1.5945
 7589TIP3   OH222723   3.717   1.932   2.291  0.0149  0.1788 -0.5232
 7589TIP3    H122724   3.748   1.948   2.202 -0.1458  3.4663 -0.1363
 7589TIP3    H222725   3.661   2.008   2.310 -0.9519 -1.0527  1.9562
 7590TIP3   OH222726   1.987   0.817   2.271 -0.2799 -0.0303 -0.1875
 7590TIP3    H122727   2.054   0.758   2.235  0.4100  0.9149 -0.4787
 7590TIP3    H222728   2.012   0.828   2.363  0.9913  1.6682 -0.6914
 7591TIP3   OH222729   3.372   3.065   5.714 -0.7458  0.5619  0.6131
 7591TIP3    H122730   3.314   2.998   5.678  0.0515  0.7594 -1.1270
 7591TIP3    H222731   3.427   3.092   5.640 -0.9854  3.0950  1.2861
 7592TIP3   OH222732   1.931   0.417   3.463 -0.0795  0.3477  0.1096
 7592TIP3    H122733   1.896   0.411   3.374 -0.5343 -1.0184  0.3404
 7592TIP3    H222734   1.860   0.384   3.518  0.0658  1.5117  1.0205
 7593TIP3   OH222735   2.276   6.115   3.065  0.0861  0.2266 -0.3026
 7593TIP3    H122736   2.243   6.073   3.144  0.3574  0.7310  0.0870
 7593TIP3    H222737   2.362   6.077   3.051  0.2970  0.5826  0.0029
 7594TIP3   OH222738   1.153   2.033   3.779  0.2501  0.3001 -0.1720
 7594TIP3    H122739   1.069   2.010   3.819 -0.4445  0.8819 -1.2266
 7594TIP3    H222740   1.130   2.098   3.712  1.5012  0.2255 -0.7002
 7595TIP3   OH222741   7.508   2.452   2.853 -0.3369 -0.3820 -0.1600
 7595TIP3    H122742   7.516   2.448   2.949  1.8453 -0.7269 -0.3112
 7595TIP3    H222743   7.487   2.363   2.827 -0.7562 -0.3247 -0.0291
 7596TIP3   OH222744   1.484   1.704   3.990  0.0602 -0.2717  0.4030
 7596TIP3    H122745   1.489   1.618   4.033 -0.9401  0.4735  2.0941
 7596TIP3    H222746   1.410   1.697   3.930  1.4914 -1.3327 -1.3663
 7597TIP3   OH222747   4.450   4.444   5.484 -0.1660 -0.2286 -0.0466
 7597TIP3    H122748   4.475   4.365   5.532  1.2854  1.3973  2.1018
 7597TIP3    H222749   4.384   4.415   5.422  2.1196 -3.6070 -1.2049
 7598TIP3   OH222750   0.653   1.553   5.103  0.1939 -0.3316 -0.0234
 7598TIP3    H122751   0.713   1.559   5.177  1.2409  0.5614 -0.8972
 7598TIP3    H222752   0.575   1.601   5.130  0.5330 -0.0809  0.5315
 7599TIP3   OH222753   3.229   1.309   0.788  0.4162 -0.3495 -0.2061
 7599TIP3    H122754   3.260   1.224   0.756 -1.6534 -1.0031 -0.6031
 7599TIP3    H222755   3.288   1.330   0.861  0.9488 -2.1328 -0.0783
 7600TIP3   OH222756   3.705   5.044   5.452 -0.6624  0.2885  0.0954
 7600TIP3    H122757   3.699   5.037   5.547 -1.0898  1.5411  0.1833
 7600TIP3    H222758   3.761   4.971   5.426 -1.4510 -0.7342  1.1868
 7601TIP3   OH222759   2.084   3.875   2.974  0.4211  0.4515  0.2071
 7601TIP3    H122760   2.008   3.848   2.923  1.2615 -1.0536 -0.2900
 7601TIP3    H222761   2.091   3.969   2.958 -0.6653  0.4102 -0.6282
 7602TIP3   OH222762   3.861   4.616   6.235 -0.2673 -0.1513  0.1449
 7602TIP3    H122763   3.849   4.620   6.330  0.8380 -0.5292  0.3057
 7602TIP3    H222764   3.823   4.532   6.209 -0.2852 -0.1891  0.2950
 7603TIP3   OH222765   6.510   3.242   4.133  0.1060  0.4757  0.1885
 7603TIP3    H122766   6.512   3.292   4.051  1.1365  0.3478  0.1264
 7603TIP3    H222767   6.417   3.220   4.145 -0.0784  0.6178 -0.8676
 7604TIP3   OH222768   1.845   7.778   3.852  0.1676 -0.0664 -0.4323
 7604TIP3    H122769   1.836   7.749   3.943  0.6036 -0.2673 -0.4484
 7604TIP3    H222770   1.856   7.873   3.858  0.4761 -0.1089 -0.2490
 7605TIP3   OH222771   6.189   7.112   4.587 -0.3277  0.2017  0.2227
 7605TIP3    H122772   6.129   7.136   4.517  0.6665 -0.0911 -0.7552
 7605TIP3    H222773   6.272   7.152   4.562  0.1660 -0.3181  0.9853
 7606TIP3   OH222774   6.883   3.681   6.569 -0.0599 -0.3036 -0.1128
 7606TIP3    H122775   6.821   3.743   6.530 -0.2983 -0.4767 -0.0090
 7606TIP3    H222776   6.884   3.607   6.508 -0.1057 -0.3868 -0.0115
 7607TIP3   OH222777   5.852   5.868   2.587  0.2275  0.6831  0.3975
 7607TIP3    H122778   5.839   5.946   2.640  1.0393  0.8611  0.3377
 7607TIP3    H222779   5.781   5.809   2.614  1.0816  0.4309  2.2969
 7608TIP3   OH222780   6.481   2.532   0.550 -0.3759 -0.3903  0.7036
 7608TIP3    H122781   6.531   2.462   0.509 -0.6823  0.0396 -0.4448
 7608TIP3    H222782   6.472   2.599   0.482  0.4993  1.0899  1.9529
 7609TIP3   OH222783   4.612   5.928   0.416  0.1440  0.0947  0.2924
 7609TIP3    H122784   4.658   5.858   0.462  1.1490  0.0587 -0.7260
 7609TIP3    H222785   4.625   6.005   0.472  0.1805 -0.2272  0.7392
 7610TIP3   OH222786   5.959   0.907   6.426  0.2937  0.1468 -0.4671
 7610TIP3    H122787   6.004   0.930   6.507  2.6698  1.9372 -2.1435
 7610TIP3    H222788   5.989   0.818   6.406 -0.4135 -0.3570  0.6215
 7611TIP3   OH222789   0.795   2.918   6.634 -0.0406 -0.1450 -0.2378
 7611TIP3    H122790   0.714   2.914   6.583 -0.5454  1.8262  0.3169
 7611TIP3    H222791   0.849   2.848   6.599 -1.8025 -1.2063 -0.9478
 7612TIP3   OH222792   4.572   3.056   0.943  0.3632 -0.5831 -0.0237
 7612TIP3    H122793   4.580   3.150   0.960  0.9749 -0.9884  2.3709
 7612TIP3    H222794   4.481   3.035   0.965  0.7308 -0.8293  1.3954
 7613TIP3   OH222795   0.511   1.125   1.286  0.0558 -0.0671 -0.1973
 7613TIP3    H122796   0.573   1.056   1.310 -1.2118 -1.0997  0.2543
 7613TIP3    H222797   0.556   1.175   1.218  1.7138 -0.2300  0.7124
 7614TIP3   OH222798   1.268   0.300   2.311 -0.0385  0.6292 -0.6364
 7614TIP3    H122799   1.243   0.375   2.257 -1.4734  0.3786 -0.3752
 7614TIP3    H222800   1.243   0.325   2.400  2.3149  1.0377 -0.0465
 7615TIP3   OH222801   0.431   3.636   5.313 -0.5125 -0.1622 -0.5326
 7615TIP3    H122802   0.395   3.711   5.360 -0.4276 -0.0445 -0.6548
 7615TIP3    H222803   0.502   3.673   5.260 -1.2081 -0.1419 -1.4657
 7616TIP3   OH222804   5.464   0.447   2.142  0.1521 -0.1494 -0.0987
 7616TIP3    H122805   5.549   0.491   2.136  0.6043 -0.9730  0.0521
 7616TIP3    H222806   5.482   0.369   2.194 -0.9517  0.2619  0.9509
 7617TIP3   OH222807   3.976   6.509   2.945  0.1947 -0.0455 -0.4436
 7617TIP3    H122808   3.955   6.424   2.984  1.0004 -0.4149 -0.7794
 7617TIP3    H222809   4.063   6.529   2.977  0.4529  0.1339 -1.2229
 7618TIP3   OH222810   2.816   0.085   1.814 -0.0681  0.9184 -0.3994
 7618TIP3    H122811   2.727   0.097   1.849 -0.4018 -2.9964  0.5785
 7618TIP3    H222812   2.872   0.131   1.876 -1.1321 -0.7952  2.0068
 7619TIP3   OH222813   0.151   0.361   4.778 -0.2587 -0.0574  0.6503
 7619TIP3    H122814   0.122   0.290   4.835  2.5267 -1.1691  0.8209
 7619TIP3    H222815   0.218   0.322   4.722  0.6520  2.2046  0.0416
 7620TIP3   OH222816   8.152   6.001   2.553  0.6838  0.3552 -0.0300
 7620TIP3    H122817   8.103   5.984   2.473  1.4741  1.4096 -0.7793
 7620TIP3    H222818   8.129   6.091   2.577 -0.0255 -0.1599  1.2964
 7621TIP3   OH222819   6.541   4.809   6.494  0.3491 -0.4880 -0.0261
 7621TIP3    H122820   6.550   4.739   6.429 -0.8279  0.3770 -1.1600
 7621TIP3    H222821   6.522   4.887   6.443 -3.0240 -0.2075  1.3875
 7622TIP3   OH222822   2.456   3.423   1.952  0.4933  0.0526 -0.1546
 7622TIP3    H122823   2.410   3.351   1.908  1.5293  1.1874 -3.3114
 7622TIP3    H222824   2.389   3.490   1.966  0.2729 -0.0950 -0.5123
 7623TIP3   OH222825   2.766   5.638   4.954  0.0860 -0.5754 -0.0584
 7623TIP3    H122826   2.831   5.613   5.019 -0.2995  0.1791  0.6390
 7623TIP3    H222827   2.774   5.573   4.884  0.7428 -1.1905  0.5868
 7624TIP3   OH222828   7.843   4.743   1.497  0.2715  0.4396  0.0985
 7624TIP3    H122829   7.830   4.833   1.467 -0.5176 -0.2273 -1.6938
 7624TIP3    H222830   7.775   4.692   1.452 -1.0849 -0.6956  3.1120
 7625TIP3   OH222831   7.703   7.423   2.363 -0.4838  0.3074  0.5702
 7625TIP3    H122832   7.793   7.392   2.364  0.1046  1.8831  0.6241
 7625TIP3    H222833   7.653   7.355   2.319  0.8110 -0.4074  0.1749
 7626TIP3   OH222834   3.013   5.361   4.487 -0.2111 -0.0739 -0.4070
 7626TIP3    H122835   3.066   5.284   4.467 -0.5051 -0.9129  1.8180
 7626TIP3    H222836   2.998   5.402   4.401  0.9668 -1.7913 -1.5091
 7627TIP3   OH222837   8.119   3.360   1.381 -0.1624 -0.2347  0.2739
 7627TIP3    H122838   8.149   3.332   1.294 -1.5565 -2.5236  0.4379
 7627TIP3    H222839   8.195   3.346   1.437  0.9664  1.8870 -0.6213
 7628TIP3   OH222840   5.666   3.169   2.173 -0.2458  0.8985  0.9058
 7628TIP3    H122841   5.624   3.091   2.137  0.8763  0.6396  0.0961
 7628TIP3    H222842   5.661   3.158   2.268  0.8804 -0.7276  0.8153
 7629TIP3   OH222843   2.117   1.318   6.174 -0.5509 -0.2952  0.3455
 7629TIP3    H122844   2.209   1.340   6.159 -0.4102 -0.1851  1.3393
 7629TIP3    H222845   2.072   1.347   6.095  0.6113 -2.6092 -1.2973
 7630TIP3   OH222846   8.068   4.242   0.057 -0.2477  0.9082  0.2288
 7630TIP3    H122847   8.103   4.319   0.101  1.9870  0.2505 -0.2770
 7630TIP3    H222848   8.102   4.248  -0.032 -2.2038  0.6499 -0.5808
 7631TIP3   OH222849   6.934   1.465   3.683 -0.3390 -0.6530  0.4639
 7631TIP3    H122850   6.900   1.461   3.772 -2.0986 -0.6749 -0.1648
 7631TIP3    H222851   6.868   1.420   3.630  0.2088  0.1585 -0.9732
 7632TIP3   OH222852   2.001   6.768   6.721 -0.4244  0.1981 -0.1193
 7632TIP3    H122853   2.006   6.717   6.641 -1.5037 -1.2194  0.6747
 7632TIP3    H222854   1.937   6.837   6.701 -2.0910 -1.2376  0.0474
 7633TIP3   OH222855   0.109   5.057   1.559 -0.1747  0.6216 -0.6231
 7633TIP3    H122856   0.095   5.090   1.648  2.7914 -0.0676  0.2196
 7633TIP3    H222857   0.075   4.968   1.561 -0.6763  0.8159 -0.3715
 7634TIP3   OH222858   6.188   1.247   2.453 -0.8199  0.3462 -0.0631
 7634TIP3    H122859   6.111   1.249   2.511 -0.1392  0.8695  0.8532
 7634TIP3    H222860   6.260   1.278   2.508  0.2285 -0.9489 -0.6394
 7635TIP3   OH222861   0.553   0.259   2.941  0.3526  0.2315 -1.0426
 7635TIP3    H122862   0.472   0.214   2.919  0.7074 -0.7910 -0.3364
 7635TIP3    H222863   0.526   0.331   2.998 -0.1611  0.6045 -1.7405
 7636TIP3   OH222864   0.497   0.039   3.297  0.2161  0.0944 -0.5793
 7636TIP3    H122865   0.461   0.001   3.217  1.3131 -2.7510  0.1650
 7636TIP3    H222866   0.420   0.061   3.350 -0.5101  1.6835 -2.1882
 7637TIP3   OH222867   4.810   4.078   4.317  0.4084  0.3756  0.2866
 7637TIP3    H122868   4.827   4.171   4.307 -1.1261  0.8096  1.3907
 7637TIP3    H222869   4.721   4.073   4.353 -0.1656 -1.5576 -1.2015
 7638TIP3   OH222870   2.384   5.616   6.080  0.3075 -0.1451 -0.3637
 7638TIP3    H122871   2.403   5.555   6.151 -0.9440 -1.0831 -0.8148
 7638TIP3    H222872   2.297   5.650   6.100 -0.4547 -1.1096 -1.9028
 7639TIP3   OH222873   6.695   6.209   3.579 -0.3681  0.4158  0.1151
 7639TIP3    H122874   6.643   6.270   3.528 -0.8280 -1.2587 -1.5005
 7639TIP3    H222875   6.781   6.208   3.536 -0.1881  0.3146  0.4700
 7640TIP3   OH222876   0.562   4.969   4.524 -0.0180 -0.1586  0.1426
 7640TIP3    H122877   0.514   4.938   4.447  0.0395 -1.8417  0.7393
 7640TIP3    H222878   0.613   4.893   4.552  2.0410  1.2171  0.2801
 7641TIP3   OH222879   6.747   5.741   0.925 -0.8736 -0.0618  0.1186
 7641TIP3    H122880   6.838   5.714   0.929 -1.0271 -0.7230 -0.5367
 7641TIP3    H222881   6.737   5.779   0.837 -1.1071  0.4638  0.3681
 7642TIP3   OH222882   3.425   7.825   0.677  0.3036 -0.4813 -0.4154
 7642TIP3    H122883   3.345   7.774   0.665 -0.8988  1.1155  0.4396
 7642TIP3    H222884   3.432   7.838   0.772  1.3781 -0.2640 -0.5086
 7643TIP3   OH222885   7.867   7.757   3.937 -0.4870 -0.8639 -0.1131
 7643TIP3    H122886   7.870   7.839   3.985  1.2879 -1.7691  1.4533
 7643TIP3    H222887   7.783   7.718   3.961 -0.4128 -0.4606  0.8226
 7644TIP3   OH222888   2.113   3.087   2.259  0.7058 -0.2208  0.4405
 7644TIP3    H122889   2.144   2.999   2.283 -3.3242 -2.0121 -0.0020
 7644TIP3    H222890   2.096   3.080   2.165 -2.3344 -0.0260  0.8900
 7645TIP3   OH222891   6.767   0.995  -0.005 -0.1938  0.1083 -0.1617
 7645TIP3    H122892   6.683   0.953  -0.024 -0.6126  0.2252  1.2685
 7645TIP3    H222893   6.746   1.063   0.060  1.2200 -1.0180  1.5847
 7646TIP3   OH222894   4.859   0.369   0.042  0.0055  0.3998  0.0781
 7646TIP3    H122895   4.952   0.387   0.028  0.3462 -1.3237 -0.0199
 7646TIP3    H222896   4.825   0.451   0.079  1.6350  0.9285  0.5234
 7647TIP3   OH222897   0.047   6.663   2.102  0.2626 -0.1758  0.0351
 7647TIP3    H122898   0.047   6.722   2.027  0.3100 -1.9648 -1.4375
 7647TIP3    H222899   0.124   6.688   2.153  1.3166 -0.1248 -1.5325
 7648TIP3   OH222900   6.401   3.754   4.926 -0.2184 -0.2679  0.1836
 7648TIP3    H122901   6.466   3.770   4.857  1.0510 -0.2945  1.3401
 7648TIP3    H222902   6.378   3.662   4.917 -0.9345 -0.0093 -0.9066
 7649TIP3   OH222903   2.212   1.721   4.193  0.1535  0.3287 -0.2216
 7649TIP3    H122904   2.237   1.675   4.273 -0.2021  0.4084 -0.0621
 7649TIP3    H222905   2.228   1.814   4.213  0.8229  0.2877 -0.5246
 7650TIP3   OH222906   5.096   0.658   1.047  0.3055  0.1339  0.2012
 7650TIP3    H122907   5.090   0.563   1.059  1.8979  0.2837  3.2541
 7650TIP3    H222908   5.190   0.675   1.042  0.0319  1.5545 -0.4960
 7651TIP3   OH222909   0.297   5.978   3.141  0.1527  0.2368 -0.1795
 7651TIP3    H122910   0.393   5.968   3.141 -0.0621 -3.1591  1.9191
 7651TIP3    H222911   0.271   5.955   3.052  1.1869 -0.3887 -0.3414
 7652TIP3   OH222912   5.481   0.517   6.187  0.3905  0.3462 -0.0044
 7652TIP3    H122913   5.479   0.426   6.160  0.1652  0.3766 -0.0902
 7652TIP3    H222914   5.497   0.566   6.105  1.8157  0.3075  0.2132
 7653TIP3   OH222915   1.845   6.864   4.089  0.1793 -0.0113  0.3179
 7653TIP3    H122916   1.821   6.953   4.116  1.5055  0.3523  0.3797
 7653TIP3    H222917   1.793   6.848   4.010 -0.1684  0.7842  0.3748
 7654TIP3   OH222918   6.032   4.013   4.225 -0.1715 -0.0553  0.1958
 7654TIP3    H122919   6.114   4.020   4.176 -0.6391 -0.7728 -0.7320
 7654TIP3    H222920   5.976   4.081   4.188 -0.5279 -0.6033 -0.3152
 7655TIP3   OH222921   1.840   6.128   4.206  0.0681  0.2537  0.0103
 7655TIP3    H122922   1.787   6.053   4.181 -0.2109  0.8739 -1.3105
 7655TIP3    H222923   1.866   6.168   4.124  2.1193  0.3100  0.6270
 7656TIP3   OH222924   5.244   2.454   4.201 -0.0974  0.3973  0.0382
 7656TIP3    H122925   5.324   2.405   4.183 -0.9035 -0.7107 -0.6547
 7656TIP3    H222926   5.176   2.387   4.210 -1.0599  1.3449  0.0001
 7657TIP3   OH222927   1.188   0.948   3.622 -0.0831  0.1496  0.1983
 7657TIP3    H122928   1.222   0.905   3.544 -0.4828 -0.6279  0.4487
 7657TIP3    H222929   1.237   1.030   3.627 -1.0415  0.8975 -1.6572
 7658TIP3   OH222930   7.410   7.062   0.166 -0.3921  0.0502  0.1447
 7658TIP3    H122931   7.447   7.033   0.250  2.1592 -0.9011 -1.1930
 7658TIP3    H222932   7.477   7.117   0.127 -1.5568  0.5667 -1.2533
 7659TIP3   OH222933   3.174   2.936   2.102 -0.1932  0.2831  0.6736
 7659TIP3    H122934   3.246   2.873   2.099 -0.4476  0.0131  0.1326
 7659TIP3    H222935   3.215   3.018   2.129  0.3877  0.2180  0.0152
 7660TIP3   OH222936   3.442   1.198   2.516 -0.1732  0.8666 -0.4570
 7660TIP3    H122937   3.498   1.275   2.529  0.0805  0.6477 -0.2526
 7660TIP3    H222938   3.409   1.208   2.426  0.0831  1.0675 -0.5318
 7661TIP3   OH222939   1.260   2.998   5.972  0.2202  0.2072  0.1089
 7661TIP3    H122940   1.344   3.034   5.944  0.6267  0.3668  1.4483
 7661TIP3    H222941   1.282   2.916   6.015 -0.2427  0.4783  0.8941
 7662TIP3   OH222942   6.886   3.469   4.360  0.3910 -0.6745  0.2143
 7662TIP3    H122943   6.914   3.396   4.305  0.6244 -0.2077 -0.2925
 7662TIP3    H222944   6.791   3.460   4.367  0.5032 -1.5237  0.8756
 7663TIP3   OH222945   5.896   3.427   0.699 -0.0233 -0.1243  0.3296
 7663TIP3    H122946   5.837   3.361   0.662  1.4434 -0.9450 -0.6407
 7663TIP3    H222947   5.933   3.384   0.776  0.3344 -0.1368  0.1514
 7664TIP3   OH222948   2.000   0.723   0.689 -0.5831  0.6604  0.0539
 7664TIP3    H122949   1.939   0.776   0.637 -0.2848  0.3129 -0.6678
 7664TIP3    H222950   1.994   0.635   0.651 -1.0038  0.1816  1.1787
 7665TIP3   OH222951   4.425   6.841   1.194  0.4290 -0.1621 -0.4539
 7665TIP3    H122952   4.353   6.839   1.131  0.2886 -0.0017 -0.3007
 7665TIP3    H222953   4.449   6.934   1.199  1.9149 -0.4262 -1.9327
 7666TIP3   OH222954   8.099   4.032   0.797  0.0532 -0.6060 -0.0677
 7666TIP3    H122955   8.113   3.976   0.721  0.4912  0.1822 -0.5765
 7666TIP3    H222956   8.073   3.971   0.867  0.2043 -1.4002 -0.6876
 7667TIP3   OH222957   3.313   7.189   4.696 -0.0201 -0.5733 -0.1347
 7667TIP3    H122958   3.228   7.150   4.677 -0.8354 -0.1495  2.2825
 7667TIP3    H222959   3.349   7.136   4.768  1.1087  0.0936 -0.1827
 7668TIP3   OH222960   5.334   2.478   2.600 -0.0236 -0.1233 -0.3261
 7668TIP3    H122961   5.365   2.460   2.689 -1.3657 -0.2887  0.1239
 7668TIP3    H222962   5.342   2.393   2.556  0.0133 -0.2015 -0.1728
 7669TIP3   OH222963   5.896   1.705   0.859  0.3242 -0.3008 -0.3364
 7669TIP3    H122964   5.922   1.798   0.858 -1.6972  0.3580  1.3149
 7669TIP3    H222965   5.844   1.694   0.781  1.2936 -0.3080 -1.0034
 7670TIP3   OH222966   1.212   4.609   3.081  0.0844 -0.4536 -0.0879
 7670TIP3    H122967   1.182   4.518   3.085 -0.7677 -0.1664  0.3505
 7670TIP3    H222968   1.144   4.654   3.032 -0.7974  0.4122  1.8185
 7671TIP3   OH222969   5.184   0.193   0.649  0.6685 -0.0613  0.5898
 7671TIP3    H122970   5.103   0.167   0.694 -0.8958  0.1393 -1.9214
 7671TIP3    H222971   5.199   0.124   0.585  2.1204  0.2567  0.5587
 7672TIP3   OH222972   2.603   4.530   6.092  0.0431  0.2768  0.1360
 7672TIP3    H122973   2.666   4.529   6.019  2.0315  0.3055  1.7731
 7672TIP3    H222974   2.597   4.439   6.120  1.0619  0.5706  1.3649
 7673TIP3   OH222975   2.695   2.494   0.700 -0.3321 -0.3306 -0.0176
 7673TIP3    H122976   2.742   2.421   0.661  1.7943  0.9006  0.0848
 7673TIP3    H222977   2.686   2.558   0.628 -0.6156  0.0198  0.3211
 7674TIP3   OH222978   2.665   6.256   2.937  0.0561  0.1706  0.0275
 7674TIP3    H122979   2.642   6.320   3.005 -2.0714  1.7040 -1.9674
 7674TIP3    H222980   2.758   6.271   2.920  0.4244  0.3110  1.9919
 7675TIP3   OH222981   3.648   2.918   0.891  0.0860 -0.6148 -0.5084
 7675TIP3    H122982   3.690   2.948   0.811  1.2778 -0.1047  0.2766
 7675TIP3    H222983   3.711   2.858   0.931 -0.0840 -0.1582  0.4921
 7676TIP3   OH222984   5.906   0.799   1.178 -0.1584 -0.2186 -0.3069
 7676TIP3    H122985   5.883   0.707   1.166 -0.4867 -0.0721 -0.8214
 7676TIP3    H222986   5.822   0.843   1.191  0.0396 -0.0761  0.5681
 7677TIP3   OH222987   3.542   6.874   2.257 -0.2452  0.2875 -0.2241
 7677TIP3    H122988   3.482   6.884   2.183  0.1804  2.6385 -0.3069
 7677TIP3    H222989   3.485   6.875   2.334 -0.6780 -2.0540 -0.4212
 7678TIP3   OH222990   2.760   1.243   0.547  0.3205  0.0389  0.0852
 7678TIP3    H122991   2.719   1.259   0.632  0.5622 -0.0630  0.2222
 7678TIP3    H222992   2.719   1.161   0.517  0.8261 -0.3611  0.4762
 7679TIP3   OH222993   6.709   3.908   2.408  0.0321  0.2289 -0.3952
 7679TIP3    H122994   6.748   3.864   2.484  1.4035 -0.6636 -1.5538
 7679TIP3    H222995   6.776   3.970   2.380 -0.3895  0.4197 -0.9905
 7680TIP3   OH222996   7.491   2.006   6.497 -0.3795 -0.3424 -0.3894
 7680TIP3    H122997   7.478   1.951   6.420  1.2501  0.1149 -1.0240
 7680TIP3    H222998   7.544   1.953   6.556 -0.1214 -0.0289 -0.3388
 7681TIP3   OH222999   6.764   0.831   2.912 -0.3397  0.4496  0.3641
 7681TIP3    H123000   6.683   0.826   2.964 -0.5321 -0.3448  0.0006
 7681TIP3    H223001   6.735   0.824   2.821  0.1194  0.3386  0.2226
 7682TIP3   OH223002   5.339   6.898   0.382  0.4318  0.4874  0.2706
 7682TIP3    H123003   5.376   6.936   0.302 -1.3783 -1.5696 -1.6861
 7682TIP3    H223004   5.384   6.814   0.391 -0.5015  0.0079  0.4954
 7683TIP3   OH223005   6.210   7.512   2.210 -0.4937 -0.1703 -0.1660
 7683TIP3    H123006   6.256   7.499   2.127  0.6317 -1.1225  0.5716
 7683TIP3    H223007   6.183   7.603   2.208  4.0526  1.4435  0.5649
 7684TIP3   OH223008   1.171   4.281   3.518  0.7366  0.4421 -0.2169
 7684TIP3    H123009   1.197   4.297   3.428  3.8300 -0.1019  0.4454
 7684TIP3    H223010   1.218   4.347   3.569 -1.1636  0.9202  1.0216
 7685TIP3   OH223011   7.517   6.410   2.282  0.2191  0.1594  0.0630
 7685TIP3    H123012   7.477   6.355   2.349  1.0668 -0.5486  0.0129
 7685TIP3    H223013   7.604   6.430   2.316  0.7891 -0.5005 -0.9693
 7686TIP3   OH223014   7.827   1.468   5.312 -0.1428 -0.4374 -0.4920
 7686TIP3    H123015   7.863   1.393   5.359 -1.5112 -0.4697  0.5727
 7686TIP3    H223016   7.749   1.434   5.267 -1.4747  0.5160  0.9485
 7687TIP3   OH223017   3.359   7.446   3.331 -0.5669 -0.4222 -0.5467
 7687TIP3    H123018   3.422   7.403   3.273 -0.9257  1.1469 -2.1919
 7687TIP3    H223019   3.307   7.374   3.367 -0.1512 -1.4880 -1.9739
 7688TIP3   OH223020   8.246   1.443   5.405 -0.5263 -0.0496  0.1597
 7688TIP3    H123021   8.333   1.449   5.364 -1.0822  0.9069 -0.9683
 7688TIP3    H223022   8.258   1.481   5.492  0.0508  0.7266 -0.2441
 7689TIP3   OH223023   7.814   6.865   4.744 -0.0345  0.0008 -0.0163
 7689TIP3    H123024   7.724   6.850   4.714 -0.0416 -1.4582  0.6321
 7689TIP3    H223025   7.862   6.885   4.664 -0.5836 -1.1107 -0.6653
 7690TIP3   OH223026   7.016   5.055   0.460  0.4532  0.7170  0.0820
 7690TIP3    H123027   7.067   5.135   0.453  0.2140  0.9529  0.9571
 7690TIP3    H223028   7.073   4.994   0.507 -0.1669  1.0836  1.3442
 7691TIP3   OH223029   5.810   0.164   5.889 -0.0708 -0.1245 -0.1595
 7691TIP3    H123030   5.808   0.238   5.828  1.8646  1.6881  1.7829
 7691TIP3    H223031   5.858   0.096   5.842 -0.6405  0.3418 -1.4720
 7692TIP3   OH223032   3.122   5.539   0.636  0.5362  0.2198 -0.0768
 7692TIP3    H123033   3.056   5.502   0.695  1.1606  1.0813  1.2189
 7692TIP3    H223034   3.073   5.600   0.581 -0.0074 -0.3310 -0.2066
 7693TIP3   OH223035   2.469   5.875   5.956  0.2690 -0.3649  0.0419
 7693TIP3    H123036   2.392   5.928   5.976  1.3107  1.0238  0.5237
 7693TIP3    H223037   2.460   5.798   6.013 -0.6713 -0.1421  0.2188
 7694TIP3   OH223038   5.200   2.692   6.590 -0.1935  0.0723  0.2340
 7694TIP3    H123039   5.163   2.776   6.566  0.9956  0.2670 -1.0576
 7694TIP3    H223040   5.295   2.707   6.592  0.3673 -1.8999 -3.2610
 7695TIP3   OH223041   3.301   0.822   4.553 -0.4197 -0.0835  0.5437
 7695TIP3    H123042   3.365   0.794   4.488 -0.0450 -2.4316  1.7817
 7695TIP3    H223043   3.216   0.803   4.513 -0.1814 -2.3161  0.9659
 7696TIP3   OH223044   4.269   7.205   1.200  0.5676 -0.2418  0.1354
 7696TIP3    H123045   4.325   7.171   1.130  1.4984 -0.9685  1.1964
 7696TIP3    H223046   4.327   7.260   1.252  0.1096 -0.3971  0.8228
 7697TIP3   OH223047   4.374   6.835   3.266 -0.4960 -0.5615 -1.3707
 7697TIP3    H123048   4.371   6.931   3.270  0.3562 -0.5617  1.9367
 7697TIP3    H223049   4.465   6.815   3.244  0.1593 -0.5366  1.0778
 7698TIP3   OH223050   4.065   6.800   4.809  0.6822  0.4576  0.0615
 7698TIP3    H123051   4.103   6.815   4.896 -0.4697 -0.2201  0.7018
 7698TIP3    H223052   4.026   6.713   4.815 -0.9791  1.1342 -0.5587
 7699TIP3   OH223053   0.144   2.168   0.261 -0.1068  0.2170  0.1361
 7699TIP3    H123054   0.191   2.119   0.194  0.6257  0.9822  0.0807
 7699TIP3    H223055   0.124   2.103   0.329  0.6053 -0.2146 -0.0625
 7700TIP3   OH223056   1.763   1.021   2.590  0.2276  0.1519 -0.3852
 7700TIP3    H123057   1.737   1.108   2.618 -0.6785 -0.0164 -0.6820
 7700TIP3    H223058   1.847   1.034   2.545  0.1069  0.8563 -0.4015
 7701TIP3   OH223059   0.979   7.581   6.490  0.3895  0.0801  0.0530
 7701TIP3    H123060   0.952   7.600   6.580 -1.5636 -1.5908 -0.1298
 7701TIP3    H223061   1.046   7.513   6.499 -0.6181 -0.9174  0.2401
 7702TIP3   OH223062   1.658   7.377   2.984  0.4522  0.7216  0.1985
 7702TIP3    H123063   1.750   7.354   3.000  0.3069  0.7918  1.1875
 7702TIP3    H223064   1.654   7.391   2.889  0.9966 -1.3231 -0.1809
 7703TIP3   OH223065   0.994   6.156   3.410  0.5877 -0.0952 -0.5135
 7703TIP3    H123066   1.021   6.199   3.329  0.8307  2.1187  0.6628
 7703TIP3    H223067   1.038   6.205   3.480  0.4639 -1.9821  0.9812
 7704TIP3   OH223068   3.847   0.734   3.714  0.2958 -0.2056 -0.3059
 7704TIP3    H123069   3.814   0.644   3.709 -0.9213  0.2864 -2.1747
 7704TIP3    H223070   3.934   0.725   3.754 -1.1509 -1.7921  2.8421
 7705TIP3   OH223071   6.588   6.967   5.855 -0.5453 -0.2510 -0.1611
 7705TIP3    H123072   6.543   7.046   5.886  0.7917 -0.1386  1.6527
 7705TIP3    H223073   6.551   6.896   5.907 -0.9468 -0.6626 -0.9963
 7706TIP3   OH223074   5.238   1.327   4.880  0.1812  0.1403  0.3986
 7706TIP3    H123075   5.232   1.336   4.785 -0.7588 -1.0245  0.3255
 7706TIP3    H223076   5.288   1.404   4.908  1.1269  0.1229 -1.1002
 7707TIP3   OH223077   0.375   6.906   4.360  0.1251 -0.1439  0.0014
 7707TIP3    H123078   0.316   6.928   4.432 -2.3513 -2.3554 -1.1542
 7707TIP3    H223079   0.333   6.945   4.283  1.9948  1.0205 -0.4772
 7708TIP3   OH223080   5.709   3.339   3.211  0.2038  0.4994 -0.8346
 7708TIP3    H123081   5.653   3.404   3.253  2.5947  0.8286  2.1779
 7708TIP3    H223082   5.719   3.370   3.121 -2.5577  1.5805 -0.8482
 7709TIP3   OH223083   2.893   2.573   2.843  0.5631  0.0475 -0.6429
 7709TIP3    H123084   2.910   2.667   2.838 -1.6775  0.4599 -1.8814
 7709TIP3    H223085   2.911   2.550   2.934  1.5754  1.5823 -0.4288
 7710TIP3   OH223086   7.395   2.666   0.561 -0.1603  0.1726  0.7256
 7710TIP3    H123087   7.401   2.716   0.480  0.2344  0.7954  1.1287
 7710TIP3    H223088   7.461   2.597   0.551 -0.4861 -0.0776  0.2966
 7711TIP3   OH223089   7.914   5.337   6.536  0.2518  0.1231 -0.1880
 7711TIP3    H123090   7.992   5.300   6.495  0.6101  2.2370 -1.6007
 7711TIP3    H223091   7.946   5.416   6.580 -0.8463  0.1650  0.5597
 7712TIP3   OH223092   6.415   1.651   3.880  0.5237  0.1692  0.0757
 7712TIP3    H123093   6.440   1.692   3.797 -0.1774  1.5862  0.5290
 7712TIP3    H223094   6.429   1.558   3.866 -0.3708  0.2869 -1.9301
 7713TIP3   OH223095   6.011   7.799   1.270 -0.7144  0.3128  0.4776
 7713TIP3    H123096   6.054   7.726   1.225 -0.6372  0.9420 -0.4940
 7713TIP3    H223097   6.003   7.867   1.203 -2.2907  0.5899  0.9050
 7714TIP3   OH223098   7.593   7.737   3.862  0.2270  0.0221 -0.1716
 7714TIP3    H123099   7.517   7.767   3.911  1.4977  2.5820  0.3956
 7714TIP3    H223100   7.557   7.687   3.789 -1.8668 -0.3936  1.0863
 7715TIP3   OH223101   2.206   7.317   5.784 -0.0366  0.1666 -0.7775
 7715TIP3    H123102   2.148   7.364   5.845 -0.8958  0.0493 -1.4815
 7715TIP3    H223103   2.152   7.244   5.753  0.3297  0.3322 -1.8108
 7716TIP3   OH223104   5.008   0.628   6.604 -0.5327 -0.0518  0.1688
 7716TIP3    H123105   5.044   0.709   6.568  0.9564 -1.6632 -2.2024
 7716TIP3    H223106   5.085   0.575   6.626 -1.4736 -1.2096  0.8309
 7717TIP3   OH223107   2.476   1.236   3.923  0.4288 -0.2307 -0.1407
 7717TIP3    H123108   2.546   1.216   3.861 -0.4054  1.2986 -1.6535
 7717TIP3    H223109   2.404   1.268   3.869 -0.7250  0.1495  1.5393
 7718TIP3   OH223110   2.398   0.573   1.057  0.5194  0.5042  0.7126
 7718TIP3    H123111   2.473   0.597   1.001 -1.1298  1.1307 -1.3612
 7718TIP3    H223112   2.322   0.579   0.999 -1.0440 -1.2371  2.4424
 7719TIP3   OH223113   4.127   3.622   6.662  0.2718  0.2284 -0.3768
 7719TIP3    H123114   4.087   3.535   6.656 -0.1651  0.2757  1.2957
 7719TIP3    H223115   4.207   3.608   6.714 -0.0736  0.8818  0.3482
 7720TIP3   OH223116   5.836   7.713   1.847 -0.1190 -0.0615  0.8809
 7720TIP3    H123117   5.843   7.647   1.778  1.1402  0.7173  0.2263
 7720TIP3    H223118   5.743   7.714   1.869 -0.3407 -1.2470  0.1120
 7721TIP3   OH223119   3.973   7.243   0.584 -0.0691  0.1721  0.0490
 7721TIP3    H123120   3.880   7.255   0.561 -0.1216  0.1559  0.2510
 7721TIP3    H223121   3.988   7.306   0.654 -0.7566 -1.9211  2.2294
 7722TIP3   OH223122   4.707   2.890   1.123 -0.1606 -0.1150 -0.1014
 7722TIP3    H123123   4.675   2.933   1.044  0.6742  1.9209  0.6189
 7722TIP3    H223124   4.802   2.888   1.113  0.0376  1.0340  1.2280
 7723TIP3   OH223125   6.276   3.777   5.791 -0.5825  0.3375  0.1349
 7723TIP3    H123126   6.271   3.780   5.695 -1.3186 -2.4619  0.0002
 7723TIP3    H223127   6.212   3.842   5.820 -1.1568  0.4484 -1.2847
 7724TIP3   OH223128   3.073   0.434   1.370 -0.1125  0.6458 -0.0464
 7724TIP3    H123129   3.040   0.444   1.459  1.2296  0.0119  0.5491
 7724TIP3    H223130   3.051   0.344   1.346  1.5624  0.0400  0.5545
 7725TIP3   OH223131   4.155   4.695   4.178 -0.2772 -0.3036 -0.5303
 7725TIP3    H123132   4.230   4.670   4.123  0.0758  0.7988 -0.5676
 7725TIP3    H223133   4.181   4.778   4.218 -0.1784 -1.4757  2.0036
 7726TIP3   OH223134   2.668   6.526   5.102  0.0143  0.2608  0.3753
 7726TIP3    H123135   2.581   6.545   5.068 -0.2723 -1.7206 -0.1282
 7726TIP3    H223136   2.727   6.548   5.030 -0.0925  1.0909  0.5250
 7727TIP3   OH223137   1.144   3.739   1.208  0.6712  0.0277 -0.3456
 7727TIP3    H123138   1.119   3.693   1.288  0.0773  0.2690 -0.3872
 7727TIP3    H223139   1.216   3.797   1.235  0.3540  0.2409  0.0509
 7728TIP3   OH223140   3.682   0.176   0.438  0.7242 -0.2390  0.0251
 7728TIP3    H123141   3.642   0.166   0.352  0.0391  0.0082  0.3037
 7728TIP3    H223142   3.752   0.240   0.425 -0.0569  0.6057 -0.1525
 7729TIP3   OH223143   0.779   3.341   5.937  0.2122 -0.0416  0.3780
 7729TIP3    H123144   0.764   3.435   5.945  0.2636 -0.0512  0.5947
 7729TIP3    H223145   0.865   3.333   5.895  0.1861  0.0075  0.3153
 7730TIP3   OH223146   3.198   3.625   3.158 -0.2216  0.5612  0.4624
 7730TIP3    H123147   3.132   3.684   3.195 -0.0472  0.6079  0.6975
 7730TIP3    H223148   3.199   3.646   3.065 -0.6577  0.4463  0.4280
 7731TIP3   OH223149   2.129   7.680   4.480  0.2361  0.5346 -0.3646
 7731TIP3    H123150   2.045   7.644   4.454  0.5550 -0.0455 -0.6122
 7731TIP3    H223151   2.111   7.772   4.499 -0.6664  0.1641  0.6476
 7732TIP3   OH223152   3.882   2.035   3.895  0.1169 -0.2670 -0.0051
 7732TIP3    H123153   3.833   2.073   3.822  0.0081  0.1974  0.3003
 7732TIP3    H223154   3.967   2.011   3.858  0.2339  0.3936 -0.1868
 7733TIP3   OH223155   7.876   3.795   2.541 -0.2765  0.1336 -0.4605
 7733TIP3    H123156   7.915   3.869   2.495  1.5847 -0.2096  0.4512
 7733TIP3    H223157   7.917   3.798   2.628 -1.0273 -1.2957 -0.0370
 7734TIP3   OH223158   2.025   6.464   0.363 -0.3994  0.2075 -0.1605
 7734TIP3    H123159   1.986   6.503   0.441  1.5115  0.4561  0.7150
 7734TIP3    H223160   2.034   6.371   0.384  1.3604  0.4979  0.4904
 7735TIP3   OH223161   7.429   1.329   1.987  0.2840 -0.3110  0.0174
 7735TIP3    H123162   7.384   1.295   2.065 -0.9107  0.7353 -0.1985
 7735TIP3    H223163   7.439   1.422   2.004 -0.1909 -0.0332 -1.1800
 7736TIP3   OH223164   1.921   4.438   6.436 -0.2339 -0.3620  0.5566
 7736TIP3    H123165   1.856   4.508   6.446  0.9129  0.8279 -0.0082
 7736TIP3    H223166   2.001   4.474   6.474  0.5836 -1.0583 -0.4387
 7737TIP3   OH223167   2.460   4.046   1.672 -0.4755  0.0856 -0.0676
 7737TIP3    H123168   2.540   4.089   1.640 -1.3206  1.4773 -0.4060
 7737TIP3    H223169   2.399   4.118   1.688 -1.7402 -0.9590 -0.0156
 7738TIP3   OH223170   1.818   3.407   5.884 -0.2019 -0.4107 -0.0273
 7738TIP3    H123171   1.901   3.453   5.867  0.4660 -1.4731  0.2542
 7738TIP3    H223172   1.752   3.462   5.841  0.1133  2.4031  2.7256
 7739TIP3   OH223173   4.986   1.351   0.554 -0.1455  0.2623  0.2629
 7739TIP3    H123174   4.986   1.425   0.615 -1.6056  0.6578 -0.1798
 7739TIP3    H223175   4.909   1.299   0.579  0.9834 -1.2776  0.7289
 7740TIP3   OH223176   6.709   3.817   1.621 -0.2808  0.0505 -0.1550
 7740TIP3    H123177   6.769   3.780   1.685 -0.2508 -1.1512 -0.8484
 7740TIP3    H223178   6.747   3.902   1.599 -0.1226  0.3519  1.1593
 7741TIP3   OH223179   6.085   7.143   1.594  0.4496  0.3286  0.2488
 7741TIP3    H123180   6.008   7.181   1.552 -0.0375 -0.4241  0.4541
 7741TIP3    H223181   6.063   7.141   1.687  0.6160 -0.1294  0.2770
 7742TIP3   OH223182   1.198   6.870   4.451  0.3512  0.1873  0.1329
 7742TIP3    H123183   1.258   6.883   4.524  0.3941 -0.1400  0.1557
 7742TIP3    H223184   1.243   6.808   4.393  0.4594  0.6921 -0.3294
 7743TIP3   OH223185   1.565   1.589   4.976 -0.2295 -0.0499 -0.4497
 7743TIP3    H123186   1.585   1.619   5.065 -1.1636  0.7374 -0.4891
 7743TIP3    H223187   1.569   1.669   4.923 -0.5398 -0.3703 -0.9599
 7744TIP3   OH223188   5.572   7.032   1.742  0.2826 -0.0555  0.4360
 7744TIP3    H123189   5.569   7.123   1.770 -2.7664  0.9399 -2.5498
 7744TIP3    H223190   5.526   6.984   1.811  0.2975  0.9423  1.1561
 7745TIP3   OH223191   2.204   0.486   0.511  0.7357  0.5742  0.3189
 7745TIP3    H123192   2.124   0.505   0.560  0.1057  1.1277 -0.8760
 7745TIP3    H223193   2.173   0.445   0.430  1.7179  0.0608  0.1865
 7746TIP3   OH223194   4.678   7.698   4.104  0.0490 -0.0455  0.1939
 7746TIP3    H123195   4.688   7.781   4.151  0.0545 -1.0050  1.9518
 7746TIP3    H223196   4.640   7.723   4.019 -2.7131  1.5026  1.7591
 7747TIP3   OH223197   6.462   3.302   2.092  0.1648  0.3960  0.3517
 7747TIP3    H123198   6.384   3.297   2.037  1.0107 -3.0118 -0.8044
 7747TIP3    H223199   6.508   3.380   2.063 -0.6326  0.0049 -2.1362
 7748TIP3   OH223200   8.184   1.623   6.299  0.0850  0.2562  0.2130
 7748TIP3    H123201   8.195   1.621   6.204  0.0316 -0.1263  0.2115
 7748TIP3    H223202   8.224   1.705   6.326  1.8433 -0.4959  0.0612
 7749TIP3   OH223203   7.427   4.048   2.932 -0.5599  0.2621  0.0349
 7749TIP3    H123204   7.492   4.051   2.861 -1.6068 -0.3158 -0.9738
 7749TIP3    H223205   7.478   4.023   3.009  0.6331  1.0443 -0.4531
 7750TIP3   OH223206   7.348   0.115   4.698  0.3664 -0.0482 -0.8151
 7750TIP3    H123207   7.358   0.119   4.603  0.6746  0.1453 -0.7738
 7750TIP3    H223208   7.307   0.030   4.714  2.0159 -0.9086 -0.9746
 7751TIP3   OH223209   0.651   0.125   5.393 -0.2253  0.0743 -0.0457
 7751TIP3    H123210   0.661   0.185   5.319  1.5167  0.5647  0.5357
 7751TIP3    H223211   0.616   0.179   5.463  1.9421  0.6216  0.6701
 7752TIP3   OH223212   7.275   0.789   3.198 -0.6855  0.4119 -0.4528
 7752TIP3    H123213   7.289   0.872   3.244 -0.5531  0.6428 -0.8986
 7752TIP3    H223214   7.216   0.811   3.126 -0.2052  0.2400 -0.9085
 7753TIP3   OH223215   1.358   0.312   2.593 -0.0012  0.3488 -0.1309
 7753TIP3    H123216   1.400   0.377   2.537  0.4282 -0.2731 -0.5417
 7753TIP3    H223217   1.427   0.247   2.609 -0.3850  0.0645  0.3864
 7754TIP3   OH223218   3.767   7.189   1.491  0.3769 -0.1832 -0.3224
 7754TIP3    H123219   3.710   7.201   1.415  0.6010 -0.4063 -0.5283
 7754TIP3    H223220   3.783   7.095   1.494  1.4896 -0.0258 -0.8269
 7755TIP3   OH223221   0.020   3.398   4.164  0.4175 -0.2484 -0.6487
 7755TIP3    H123222   0.008   3.435   4.251 -0.8481 -0.3202 -0.7708
 7755TIP3    H223223   0.067   3.466   4.116  0.1923  0.2303 -0.2005
 7756TIP3   OH223224   7.629   6.393   2.723  0.5819  0.3996  0.0248
 7756TIP3    H123225   7.593   6.334   2.789 -1.1139 -0.0784 -1.2711
 7756TIP3    H223226   7.673   6.336   2.661  2.0650  0.8412  0.6141
 7757TIP3   OH223227   1.483   2.285   5.636  0.4902  0.0349  0.3584
 7757TIP3    H123228   1.525   2.371   5.632  0.8658 -0.1843 -1.1730
 7757TIP3    H223229   1.461   2.265   5.545 -0.5358 -1.0396  0.8092
 7758TIP3   OH223230   1.207   4.242   1.542 -0.4322 -0.3162  0.2430
 7758TIP3    H123231   1.260   4.220   1.618 -0.6500 -1.0518  0.1913
 7758TIP3    H223232   1.123   4.268   1.578 -1.2886 -2.8092  0.2071
 7759TIP3   OH223233   6.193   3.407   1.167  0.2564 -0.2082 -0.0423
 7759TIP3    H123234   6.118   3.349   1.179  0.4425 -0.5254 -0.3537
 7759TIP3    H223235   6.159   3.483   1.120  0.2450 -0.6457 -0.7670
 7760TIP3   OH223236   6.887   6.201   6.119  0.2058 -0.5405 -0.0676
 7760TIP3    H123237   6.972   6.169   6.086  0.5916 -0.1453  0.5220
 7760TIP3    H223238   6.905   6.290   6.148 -0.6457 -0.1219 -0.8119
 7761TIP3   OH223239   0.515   1.668   2.697  0.0665  0.5884 -0.6728
 7761TIP3    H123240   0.568   1.743   2.673  0.3866  0.7310  0.4190
 7761TIP3    H223241   0.447   1.663   2.629  1.4874  0.3557 -2.1290
 7762TIP3   OH223242   0.064   7.740   6.039 -0.4492  0.1819 -0.2732
 7762TIP3    H123243  -0.028   7.765   6.028 -0.7362 -0.5563  0.3456
 7762TIP3    H223244   0.106   7.769   5.959 -1.0902  1.1209 -0.2902
 7763TIP3   OH223245   1.762   4.240   0.266 -0.0203  0.3626 -0.2754
 7763TIP3    H123246   1.818   4.162   0.273 -1.0852 -0.3196  1.4222
 7763TIP3    H223247   1.697   4.217   0.201 -1.0462 -0.6991  1.0625
 7764TIP3   OH223248   0.402   0.610   0.328 -0.0354 -0.5720 -0.1597
 7764TIP3    H123249   0.403   0.683   0.267 -0.2140  0.1406  0.6605
 7764TIP3    H223250   0.338   0.636   0.395 -1.3627 -2.2197 -0.7252
 7765TIP3   OH223251   7.167   2.172   4.528 -0.5946 -0.1948  0.2702
 7765TIP3    H123252   7.239   2.110   4.542 -0.2869  0.4380  1.6234
 7765TIP3    H223253   7.111   2.129   4.463  1.3959 -0.3695 -1.4541
 7766TIP3   OH223254   5.451   2.822   6.079 -0.1110  0.4368 -0.3073
 7766TIP3    H123255   5.488   2.892   6.025 -1.2424  1.9207  0.7479
 7766TIP3    H223256   5.358   2.843   6.084 -0.1474  0.0150  1.6833
 7767TIP3   OH223257   5.566   6.088   4.013  0.0326 -0.1380  0.0570
 7767TIP3    H123258   5.561   6.067   4.106 -0.6478  0.1233  0.0881
 7767TIP3    H223259   5.659   6.103   3.996  0.2715 -1.0539  0.4968
 7768TIP3   OH223260   3.905   1.233   0.613  0.0635 -0.5029  0.6994
 7768TIP3    H123261   3.994   1.247   0.646 -0.3977  0.3420  1.6491
 7768TIP3    H223262   3.875   1.320   0.586 -0.4398 -0.8005  0.2695
 7769TIP3   OH223263   5.283   6.484   0.937  0.7429  0.1839  0.4854
 7769TIP3    H123264   5.222   6.493   0.863  2.2185  0.2343 -0.7790
 7769TIP3    H223265   5.241   6.530   1.009 -0.2107  1.1605 -0.6567
 7770TIP3   OH223266   0.934   0.489   4.184  0.1308 -0.3444 -0.5924
 7770TIP3    H123267   0.960   0.575   4.216 -0.3422  2.0490 -5.6852
 7770TIP3    H223268   0.859   0.465   4.239  0.3028  2.4238  1.0351
 7771TIP3   OH223269   3.879   0.901   6.532 -0.0402  0.3050 -0.2238
 7771TIP3    H123270   3.925   0.950   6.464  0.3707  1.4620  0.8403
 7771TIP3    H223271   3.942   0.896   6.605 -0.7242 -0.2699  0.3433
 7772TIP3   OH223272   0.170   4.590   3.727 -0.2535 -0.6052  0.3446
 7772TIP3    H123273   0.131   4.676   3.742  1.4902  0.3972 -0.6263
 7772TIP3    H223274   0.204   4.565   3.813 -0.5932 -0.2559  0.5902
 7773TIP3   OH223275   7.920   3.012   5.507 -0.0821  0.4973  0.6302
 7773TIP3    H123276   7.844   2.996   5.563  0.5909 -0.9267  1.1611
 7773TIP3    H223277   7.908   2.953   5.433 -0.9745  2.3743 -0.8078
 7774TIP3   OH223278   2.328   0.551   2.451 -0.0982  0.6827  0.0340
 7774TIP3    H123279   2.235   0.543   2.475 -0.1363 -1.5325 -0.6481
 7774TIP3    H223280   2.364   0.609   2.517 -1.5586 -0.0323  1.5521
 7775TIP3   OH223281   3.265   3.830   2.162 -0.0500  0.6562 -0.1820
 7775TIP3    H123282   3.331   3.785   2.216 -0.3115  1.2783  0.6877
 7775TIP3    H223283   3.295   3.921   2.159 -0.1087  0.6552 -1.0026
 7776TIP3   OH223284   6.936   3.826   1.855  0.4937 -0.4486  0.4756
 7776TIP3    H123285   6.996   3.752   1.853  0.9786 -0.0666 -1.1467
 7776TIP3    H223286   6.887   3.816   1.936  2.5759 -0.9029  1.7512
 7777TIP3   OH223287   4.189   5.964   2.259  0.4578  0.5513 -0.3198
 7777TIP3    H123288   4.196   6.011   2.176 -0.2577  2.4273  0.6286
 7777TIP3    H223289   4.279   5.962   2.293  0.6409  0.3780 -0.8071
 7778TIP3   OH223290   2.410   3.325   2.238  0.0212 -0.1935  0.0180
 7778TIP3    H123291   2.325   3.366   2.252  0.0888 -0.0589  0.0341
 7778TIP3    H223292   2.474   3.390   2.267  0.1377 -0.2086 -0.2042
 7779TIP3   OH223293   2.686   6.690   2.778  0.0663 -0.0193 -0.7042
 7779TIP3    H123294   2.737   6.730   2.707  0.1312  1.6474  0.2365
 7779TIP3    H223295   2.622   6.636   2.733  0.7954  0.1466 -2.0052
 7780TIP3   OH223296   1.896   2.514   5.742  0.2318  0.2455  0.8225
 7780TIP3    H123297   1.904   2.600   5.700  4.2008 -1.1061 -1.7876
 7780TIP3    H223298   1.849   2.460   5.678  1.8786 -0.5908  0.2543
 7781TIP3   OH223299   5.637   7.603   2.371 -0.0648  0.3006  0.1568
 7781TIP3    H123300   5.555   7.554   2.383 -0.4764  1.2715  1.4621
 7781TIP3    H223301   5.683   7.556   2.301 -1.1154 -1.0618  0.3504
 7782TIP3   OH223302   3.893   3.120   5.555 -0.0182 -0.0620 -0.0299
 7782TIP3    H123303   3.939   3.129   5.638  0.4237  0.7699 -0.3566
 7782TIP3    H223304   3.803   3.100   5.580  0.1995 -0.2369  0.6399
 7783TIP3   OH223305   5.402   3.928   0.071 -0.4259  0.1403 -0.0668
 7783TIP3    H123306   5.433   3.848   0.114  1.3254  1.9519  2.2685
 7783TIP3    H223307   5.480   3.966   0.031 -1.5118  0.0281 -2.4840
 7784TIP3   OH223308   7.606   0.152   3.491  0.1484  0.1316 -0.1481
 7784TIP3    H123309   7.587   0.181   3.581 -0.4278  0.7383 -0.4518
 7784TIP3    H223310   7.633   0.061   3.500 -0.7922 -0.0926  0.5555
 7785TIP3   OH223311   6.518   6.515   1.076  0.0145  0.3408  0.0332
 7785TIP3    H123312   6.564   6.501   1.159  2.2246  0.4701 -1.1049
 7785TIP3    H223313   6.544   6.442   1.021  0.4937  1.4849 -1.3296
 7786TIP3   OH223314   6.192   6.275   1.210  0.7340 -0.1854 -0.8462
 7786TIP3    H123315   6.281   6.251   1.234 -0.0155 -1.4237  0.9286
 7786TIP3    H223316   6.152   6.193   1.179 -0.0008  0.1821 -0.9027
 7787TIP3   OH223317   1.611   2.835   2.308  0.5150 -0.4824  0.1399
 7787TIP3    H123318   1.534   2.837   2.251 -0.0923  0.1979  0.9578
 7787TIP3    H223319   1.600   2.911   2.365  0.8331 -1.4470  1.5234
 7788TIP3   OH223320   3.367   2.831   6.227  0.1319  0.1515 -0.1031
 7788TIP3    H123321   3.350   2.924   6.214 -1.5017  0.1014  1.2386
 7788TIP3    H223322   3.463   2.824   6.235  0.1991  1.9577  1.2565
 7789TIP3   OH223323   1.568   0.722   3.403 -0.0537 -0.1620  0.0551
 7789TIP3    H123324   1.600   0.647   3.454  1.0794 -0.2905 -0.7995
 7789TIP3    H223325   1.587   0.798   3.458  1.0888 -0.3044 -0.1110
 7790TIP3   OH223326   0.731   5.480   4.796 -0.0515  0.7631  0.1829
 7790TIP3    H123327   0.783   5.560   4.798  1.2052 -0.0130 -0.5470
 7790TIP3    H223328   0.791   5.413   4.766 -0.5961 -0.8519  2.4304
 7791TIP3   OH223329   5.766   4.376   5.659 -0.0200  0.0840  0.1509
 7791TIP3    H123330   5.783   4.417   5.575  0.1786  1.5209  0.8495
 7791TIP3    H223331   5.725   4.446   5.711 -0.7840 -0.9753  1.0191
 7792TIP3   OH223332   5.461   6.037   4.255  0.2176 -0.0480  0.3941
 7792TIP3    H123333   5.410   5.957   4.267 -0.4454  0.2495 -0.3454
 7792TIP3    H223334   5.398   6.102   4.223  1.0375  0.3437 -0.5095
 7793TIP3   OH223335   4.401   3.951   0.110 -0.1226  0.2932 -0.1264
 7793TIP3    H123336   4.466   3.990   0.051  1.2602 -0.1037  1.0704
 7793TIP3    H223337   4.448   3.939   0.192 -1.1165 -1.9326  0.1867
 7794TIP3   OH223338   0.391   0.343   1.317  0.1534 -0.0641  0.7458
 7794TIP3    H123339   0.323   0.354   1.251 -1.1471 -3.7875  1.2276
 7794TIP3    H223340   0.451   0.278   1.280 -0.3306 -1.8652  2.9059
 7795TIP3   OH223341   0.327   4.224   5.967 -0.8958  0.1244 -0.0529
 7795TIP3    H123342   0.263   4.156   5.947 -1.3886  0.7301 -0.6000
 7795TIP3    H223343   0.343   4.216   6.061 -3.0658  1.0266  0.4460
 7796TIP3   OH223344   7.110   4.349   5.747  0.0447  0.2408  0.4095
 7796TIP3    H123345   7.044   4.418   5.751 -0.8357 -0.5036 -0.9149
 7796TIP3    H223346   7.155   4.364   5.664  1.2907  0.4870  1.1078
 7797TIP3   OH223347   2.005   6.329   1.541 -0.0037  0.2024  0.4167
 7797TIP3    H123348   1.957   6.257   1.500 -0.2344  0.5726  0.0238
 7797TIP3    H223349   2.097   6.301   1.540 -0.1260 -0.2017  0.5180
 7798TIP3   OH223350   0.724   0.133   1.521 -0.1117 -0.1826 -0.0665
 7798TIP3    H123351   0.633   0.110   1.542  0.5499 -0.9901  2.2534
 7798TIP3    H223352   0.742   0.090   1.438 -1.1228 -2.1343  0.6622
 7799TIP3   OH223353   7.588   6.854   1.986  0.6604  0.0599 -0.2615
 7799TIP3    H123354   7.558   6.773   2.026 -0.1494 -0.2877 -1.5142
 7799TIP3    H223355   7.683   6.851   1.993  0.5389  0.1747  1.8834
 7800TIP3   OH223356   5.074   0.425   4.418 -0.1996 -0.1561  0.4612
 7800TIP3    H123357   4.999   0.482   4.437  0.0000 -0.3940  2.1784
 7800TIP3    H223358   5.150   0.482   4.428  0.0225 -0.7362  2.5636
 7801TIP3   OH223359   1.016   0.965   0.332 -0.3709  0.3150  0.3064
 7801TIP3    H123360   0.989   0.956   0.424 -0.2065 -0.5968  0.2747
 7801TIP3    H223361   0.934   0.981   0.285 -1.1497 -3.5741  0.0556
 7802TIP3   OH223362   6.256   3.957   4.063 -0.2091  0.0277  0.0294
 7802TIP3    H123363   6.215   3.948   3.977 -0.4876  2.4945 -0.1453
 7802TIP3    H223364   6.350   3.944   4.045 -0.2897  0.2774 -0.6163
 7803TIP3   OH223365   1.108   1.826   1.355 -0.0821  0.4470 -0.8117
 7803TIP3    H123366   1.079   1.910   1.321 -0.6233  0.9335  0.7350
 7803TIP3    H223367   1.151   1.847   1.438  1.1463 -0.6714 -1.1224
 7804TIP3   OH223368   2.290   1.485   6.528 -0.3159  0.1287  0.1863
 7804TIP3    H123369   2.297   1.455   6.619  3.1053  0.7413  0.2506
 7804TIP3    H223370   2.252   1.573   6.535 -1.6212 -0.4538  0.8213
 7805TIP3   OH223371   3.635   2.539   4.125 -0.2316  0.4031  0.3666
 7805TIP3    H123372   3.572   2.468   4.135 -0.4369  0.4449 -0.4983
 7805TIP3    H223373   3.652   2.542   4.031  0.5466  0.8416  0.5154
 7806TIP3   OH223374   7.693   7.515   4.081 -0.1081  0.2403 -0.3938
 7806TIP3    H123375   7.650   7.552   4.158 -0.1379 -1.6587  0.5740
 7806TIP3    H223376   7.632   7.448   4.050 -0.0788  0.9698 -2.0750
 7807TIP3   OH223377   3.467   3.445   5.490  0.0089 -0.7666 -0.1388
 7807TIP3    H123378   3.400   3.507   5.461 -0.5352 -1.0693  0.4359
 7807TIP3    H223379   3.546   3.497   5.500  0.2462 -0.6551 -2.1727
 7808TIP3   OH223380  -0.023   7.498   2.217 -0.4389  0.3819  0.5650
 7808TIP3    H123381  -0.012   7.403   2.219 -0.1866  0.2952 -1.8655
 7808TIP3    H223382   0.065   7.532   2.207 -0.7158  0.7118 -0.9377
 7809TIP3   OH223383   4.631   2.061   1.659 -0.0994  0.7947 -0.1642
 7809TIP3    H123384   4.629   1.968   1.634 -0.7548  0.4144  1.2104
 7809TIP3    H223385   4.724   2.084   1.656 -0.0048  0.3217 -1.2809
 7810TIP3   OH223386   0.501   4.647   3.811  0.2743 -0.1984  0.0148
 7810TIP3    H123387   0.463   4.735   3.807  0.1760 -0.2555 -0.4988
 7810TIP3    H223388   0.549   4.639   3.728 -0.6594 -1.0384 -0.4595
 7811TIP3   OH223389   0.113   6.070   1.447 -0.1304 -0.2536  0.5450
 7811TIP3    H123390   0.147   6.144   1.397  0.5422 -1.0896 -0.2673
 7811TIP3    H223391   0.024   6.096   1.471  0.5595  1.3812  1.4630
 7812TIP3   OH223392   6.420   0.948   5.276 -0.4071  0.3812 -0.1614
 7812TIP3    H123393   6.355   0.969   5.209 -1.5160 -0.0105  0.7608
 7812TIP3    H223394   6.504   0.967   5.234 -1.1273  1.5509 -1.1544
 7813TIP3   OH223395   3.928   4.659   4.371 -0.3032 -0.6963 -0.2393
 7813TIP3    H123396   3.855   4.644   4.310 -0.3353  0.9146 -0.6203
 7813TIP3    H223397   4.001   4.684   4.315 -0.5031  1.4300  0.3714
 7814TIP3   OH223398   1.131   1.240   1.616 -0.2057  0.5134 -0.2865
 7814TIP3    H123399   1.174   1.264   1.698 -1.3033  1.2124  0.1103
 7814TIP3    H223400   1.191   1.178   1.574  1.0869  1.3411  0.3034
 7815TIP3   OH223401   2.318   3.986   0.948 -0.1949 -0.2321  0.3391
 7815TIP3    H123402   2.315   4.014   0.857  0.2609  0.0510  0.4077
 7815TIP3    H223403   2.227   3.968   0.971 -0.4157  0.5616  0.1037
 7816TIP3   OH223404   2.645   3.265   5.529  0.5713 -0.0774  0.4018
 7816TIP3    H123405   2.739   3.284   5.535  0.1200  1.6821  3.4792
 7816TIP3    H223406   2.603   3.336   5.575 -2.4821 -0.0681 -2.0751
 7817TIP3   OH223407   7.673   5.969   0.322 -0.2209 -0.2364 -1.1982
 7817TIP3    H123408   7.629   6.042   0.365 -0.5075 -1.4042  0.6185
 7817TIP3    H223409   7.714   6.007   0.244 -2.5730  1.3316 -1.7753
 7818TIP3   OH223410   0.078   0.423   0.509  0.1813 -0.1636  0.3189
 7818TIP3    H123411   0.063   0.331   0.529  1.4530 -0.1691  1.4001
 7818TIP3    H223412   0.040   0.471   0.583  1.4435  0.0310  0.8800
 7819TIP3   OH223413   2.270   6.797   2.149  0.0406 -0.2377  0.0439
 7819TIP3    H123414   2.177   6.801   2.170 -0.0908 -0.2690 -0.5114
 7819TIP3    H223415   2.273   6.802   2.053  0.5630 -0.9143  0.0163
 7820TIP3   OH223416   6.488   1.808   2.475  0.1900  0.3347 -0.4692
 7820TIP3    H123417   6.509   1.730   2.424  0.8380  0.3930 -0.2962
 7820TIP3    H223418   6.440   1.864   2.414 -1.7607 -0.8667 -0.1431
 7821TIP3   OH223419   3.089   6.842   0.917  0.1180  0.5281 -0.4838
 7821TIP3    H123420   3.033   6.781   0.868 -0.4869  1.0438 -0.4515
 7821TIP3    H223421   3.124   6.790   0.990 -0.9506  0.3906 -0.0503
 7822TIP3   OH223422   3.805   4.332   2.047 -0.4380  0.1199  0.4328
 7822TIP3    H123423   3.868   4.262   2.060  0.1676  0.9621  2.4619
 7822TIP3    H223424   3.858   4.411   2.037 -1.1254  0.4361 -0.9926
 7823TIP3   OH223425   5.759   5.268   0.871 -0.0122  0.4663 -0.3511
 7823TIP3    H123426   5.669   5.264   0.840 -0.1897 -0.5293  0.2451
 7823TIP3    H223427   5.752   5.271   0.966  0.5802  0.8454 -0.3089
 7824TIP3   OH223428   0.653   5.782   4.344  0.5594  0.1795  0.1026
 7824TIP3    H123429   0.635   5.872   4.315 -1.6594 -0.6425 -1.2954
 7824TIP3    H223430   0.655   5.731   4.264 -0.3579 -1.3385  1.0042
 7825TIP3   OH223431   7.037   2.560   2.690 -0.2662 -0.1139  0.4556
 7825TIP3    H123432   7.008   2.483   2.738 -2.0915  0.2649  0.0259
 7825TIP3    H223433   7.099   2.526   2.625 -2.1769 -1.4833 -0.7402
 7826TIP3   OH223434   5.129   1.108   1.675  0.1449  0.9542 -0.4245
 7826TIP3    H123435   5.156   1.031   1.625  0.7047  0.4162  0.6712
 7826TIP3    H223436   5.046   1.134   1.637 -0.8514 -1.1451  0.1837
 7827TIP3   OH223437   4.425   4.885   0.067 -0.1123 -0.7122 -0.2765
 7827TIP3    H123438   4.489   4.892   0.138 -0.1204 -0.2463 -0.3086
 7827TIP3    H223439   4.384   4.972   0.064 -0.5448 -0.9203 -0.4438
 7828TIP3   OH223440   4.252   7.255   6.697  0.7084  0.5519  0.1265
 7828TIP3    H123441   4.276   7.190   6.632  1.3608  2.0932 -1.2262
 7828TIP3    H223442   4.156   7.252   6.699  0.6082  1.2345 -1.7597
 7829TIP3   OH223443   1.511   1.058   3.166 -0.0500 -0.4986  0.0595
 7829TIP3    H123444   1.484   1.095   3.250  0.6968  0.6427 -0.1714
 7829TIP3    H223445   1.602   1.030   3.181  0.2014  0.0292 -0.4572
 7830TIP3   OH223446   2.759   7.722   0.477 -0.2259 -0.3345  0.8621
 7830TIP3    H123447   2.680   7.706   0.426  0.3656 -0.6261  0.0165
 7830TIP3    H223448   2.789   7.635   0.503  1.4956 -0.5003 -1.4371
 7831TIP3   OH223449   6.911   1.122   5.045  0.0952 -0.3278 -0.1811
 7831TIP3    H123450   6.896   1.040   4.997  4.1439 -0.8986 -0.8695
 7831TIP3    H223451   6.903   1.097   5.137  1.7658 -1.7492 -0.3566
 7832TIP3   OH223452   3.517   5.709   3.172 -0.0590  0.0421 -0.5152
 7832TIP3    H123453   3.473   5.635   3.130 -0.8760  0.9293 -1.2759
 7832TIP3    H223454   3.564   5.671   3.246 -1.3121 -1.0920 -0.2704
 7833TIP3   OH223455   1.239   5.701   0.784 -0.1525  0.0894  0.2229
 7833TIP3    H123456   1.243   5.787   0.743  1.8540 -0.5831 -1.1170
 7833TIP3    H223457   1.207   5.718   0.873 -0.5379  2.0949 -0.2577
 7834TIP3   OH223458   4.119   6.486   6.434  0.4474 -0.2965  0.1672
 7834TIP3    H123459   4.066   6.429   6.491 -0.4751  0.6110  0.2393
 7834TIP3    H223460   4.055   6.540   6.388  1.1604 -1.1116 -1.8916
 7835TIP3   OH223461   7.757   3.117   2.680  0.3994  0.0334 -0.1498
 7835TIP3    H123462   7.823   3.166   2.729  0.4743 -1.2878  1.1390
 7835TIP3    H223463   7.784   3.025   2.688 -0.7737 -0.4022 -0.8712
 7836TIP3   OH223464   4.768   2.169   3.065  0.1322  0.1321  0.3880
 7836TIP3    H123465   4.693   2.110   3.078  0.1090  0.3689  1.4380
 7836TIP3    H223466   4.809   2.138   2.984  0.3679 -1.6134  1.1189
 7837TIP3   OH223467   3.259   2.499   0.659 -0.0679  0.1787  0.6377
 7837TIP3    H123468   3.276   2.471   0.569  1.7943 -1.5731  1.4626
 7837TIP3    H223469   3.189   2.442   0.689 -0.4823  0.5633  0.4218
 7838TIP3   OH223470   3.509   4.632   5.942  0.1858  0.2498  0.0277
 7838TIP3    H123471   3.472   4.719   5.957  1.0811  0.6524 -0.0129
 7838TIP3    H223472   3.435   4.579   5.913 -0.1857  1.2778 -1.0030
 7839TIP3   OH223473   5.705   7.611   4.248 -0.4732 -0.2953  0.2945
 7839TIP3    H123474   5.620   7.582   4.214 -0.4863 -0.4221  0.4347
 7839TIP3    H223475   5.745   7.659   4.175  0.1883 -1.9362 -0.4585
 7840TIP3   OH223476   3.313   3.638   1.150 -0.6049  0.0994  0.1092
 7840TIP3    H123477   3.295   3.700   1.079 -1.5267  1.5169  1.5328
 7840TIP3    H223478   3.233   3.585   1.155 -0.5541  0.0240  0.1125
 7841TIP3   OH223479   1.969   4.238   5.408 -0.0615 -0.6458 -0.0616
 7841TIP3    H123480   1.892   4.294   5.398 -0.1037 -0.3988  1.4239
 7841TIP3    H223481   2.042   4.292   5.375 -0.4145 -0.6244 -0.8334
 7842TIP3   OH223482   1.855   0.306   2.635 -0.5689 -0.1781  0.5201
 7842TIP3    H123483   1.801   0.355   2.697  1.7203  1.7241  1.1448
 7842TIP3    H223484   1.930   0.276   2.686  0.0789 -0.8502 -0.7710
 7843TIP3   OH223485   4.555   3.166   5.126  0.7352 -0.0153 -0.4743
 7843TIP3    H123486   4.553   3.261   5.130  0.5006 -0.0394  0.0132
 7843TIP3    H223487   4.474   3.141   5.082 -0.1591 -0.0643  1.1065
 7844TIP3   OH223488   6.117   2.630   6.735  0.0250  0.0435  0.3860
 7844TIP3    H123489   6.081   2.591   6.814 -1.6984 -2.0376 -1.2811
 7844TIP3    H223490   6.040   2.647   6.680  1.0857  2.2583 -0.5385
 7845TIP3   OH223491   7.664   4.483   1.473  0.3015 -0.0544  0.0274
 7845TIP3    H123492   7.686   4.506   1.382  1.9387  0.3141  0.4872
 7845TIP3    H223493   7.650   4.388   1.470  0.2483 -0.0328 -0.6344
 7846TIP3   OH223494   7.882   3.088   4.677 -0.2242  0.6978 -0.5010
 7846TIP3    H123495   7.933   3.139   4.613 -0.8307  3.0582  0.7816
 7846TIP3    H223496   7.829   3.029   4.624 -0.4819  2.3590 -2.1840
 7847TIP3   OH223497   1.630   2.052   2.979 -0.0506 -0.1254  0.1868
 7847TIP3    H123498   1.619   2.138   3.021  2.0494 -0.6127  1.9357
 7847TIP3    H223499   1.691   2.068   2.907  3.5277 -0.5693  2.8114
 7848TIP3   OH223500   8.167   7.338   5.900 -0.3432 -0.8178 -0.6177
 7848TIP3    H123501   8.104   7.409   5.883  0.1114  0.1150  1.2743
 7848TIP3    H223502   8.252   7.378   5.885 -0.1375 -1.6138 -1.6301
 7849TIP3   OH223503   4.322   2.907   6.421 -0.7062 -0.3863  0.2172
 7849TIP3    H123504   4.344   2.913   6.514  0.0726 -1.3306  0.1154
 7849TIP3    H223505   4.226   2.909   6.420 -0.7596 -1.1144  1.1256
 7850TIP3   OH223506   6.134   5.397   1.893 -0.4565  0.0452 -0.6291
 7850TIP3    H123507   6.170   5.429   1.809  0.6342 -1.7690 -0.9036
 7850TIP3    H223508   6.069   5.333   1.868 -0.1560 -0.4757 -0.0882
 7851TIP3   OH223509   4.565   7.210   5.154 -0.3801  0.2483 -0.5920
 7851TIP3    H123510   4.652   7.209   5.114 -0.6942 -2.8485 -1.4699
 7851TIP3    H223511   4.580   7.194   5.247  0.0371  1.4538 -0.4370
 7852TIP3   OH223512   1.651   4.493   2.099  0.3792  0.2338  0.4288
 7852TIP3    H123513   1.695   4.498   2.184 -1.1774  0.0251  1.2768
 7852TIP3    H223514   1.617   4.581   2.084 -1.1796 -0.2267  1.0706
 7853TIP3   OH223515   7.066   6.177   2.353  0.0623  0.2291 -0.3540
 7853TIP3    H123516   7.007   6.251   2.360 -1.5123 -0.7998 -1.8944
 7853TIP3    H223517   7.125   6.199   2.281 -0.3920  0.0205 -0.7975
 7854TIP3   OH223518   3.633   1.060   4.460  0.5100 -0.7850 -0.7645
 7854TIP3    H123519   3.672   0.979   4.427 -0.1551 -1.4726  0.0938
 7854TIP3    H223520   3.673   1.129   4.407 -1.8351 -1.9027 -4.3657
 7855TIP3   OH223521   8.127   4.330   3.845  0.0224  0.4243 -0.2765
 7855TIP3    H123522   8.068   4.352   3.774  0.8523  1.1454 -0.7738
 7855TIP3    H223523   8.208   4.303   3.801  0.3722  0.3758  0.3854
 7856TIP3   OH223524   4.568   3.581   0.700 -0.5134 -0.3824  0.0516
 7856TIP3    H123525   4.663   3.567   0.694 -0.4049  0.8468 -2.4865
 7856TIP3    H223526   4.530   3.503   0.658 -0.6829 -0.8787  1.0750
 7857TIP3   OH223527   2.319   6.791   4.162 -0.3365  0.0798 -0.0465
 7857TIP3    H123528   2.257   6.862   4.147  0.1131  0.5813  0.4296
 7857TIP3    H223529   2.325   6.784   4.258  0.6106  0.2870 -0.0788
 7858TIP3   OH223530   7.416   5.932   3.123  0.4185 -0.0354 -0.2979
 7858TIP3    H123531   7.434   5.840   3.143  0.4064 -0.0240 -0.2344
 7858TIP3    H223532   7.426   5.939   3.028 -1.3395 -0.4893 -0.5371
 7859TIP3   OH223533   5.553   0.795   2.576 -0.2298  0.3258 -0.2322
 7859TIP3    H123534   5.573   0.870   2.520  0.6129 -0.2453 -0.7273
 7859TIP3    H223535   5.495   0.740   2.522 -3.4182  1.9973  1.2114
 7860TIP3   OH223536   2.027   1.983   6.401 -0.0969 -0.0943  0.1642
 7860TIP3    H123537   2.074   2.025   6.329 -1.2887 -1.7087 -1.6552
 7860TIP3    H223538   2.074   1.902   6.417 -0.4037 -0.2053  0.5285
 7861TIP3   OH223539   2.463   0.568   3.272 -0.0802  0.2966  0.1815
 7861TIP3    H123540   2.505   0.521   3.344  0.4930  0.2108 -0.2009
 7861TIP3    H223541   2.396   0.509   3.239 -1.5431  0.9876  1.7337
 7862TIP3   OH223542   1.906   7.357   5.913 -0.5083  0.2254  0.4398
 7862TIP3    H123543   1.862   7.410   5.847 -1.4989 -0.2540  0.6878
 7862TIP3    H223544   1.862   7.272   5.908  0.6547 -0.4052  0.4418
 7863TIP3   OH223545   3.662   0.090   2.412 -0.3325  0.6018  0.0078
 7863TIP3    H123546   3.642   0.152   2.483 -0.7136  1.9244 -1.2176
 7863TIP3    H223547   3.661   0.143   2.333  1.9326 -0.4976 -0.8239
 7864TIP3   OH223548   2.213   7.583   1.777  0.1188  0.4228 -0.0141
 7864TIP3    H123549   2.231   7.502   1.823 -0.8100  0.2435  0.0607
 7864TIP3    H223550   2.133   7.566   1.728  0.3428  1.0450 -0.6214
 7865TIP3   OH223551   8.201   3.292   2.523  0.4190 -0.4562 -0.0335
 7865TIP3    H123552   8.132   3.358   2.522  0.5461 -0.3210 -0.0445
 7865TIP3    H223553   8.282   3.342   2.506  0.7721 -0.2965  1.8765
 7866TIP3   OH223554   2.209   4.340   1.174 -0.1727 -0.3472  0.3239
 7866TIP3    H123555   2.283   4.304   1.125  0.7103  0.8577  0.7074
 7866TIP3    H223556   2.167   4.399   1.112  0.7321  0.9046  0.8540
 7867TIP3   OH223557   7.668   6.808   0.585  0.7904  0.3629 -0.5907
 7867TIP3    H123558   7.603   6.817   0.656  1.1226  0.1676 -0.2592
 7867TIP3    H223559   7.641   6.730   0.537  2.6433 -1.7189  1.5358
 7868TIP3   OH223560   6.476   5.661   6.631  0.1290  0.6758 -0.4429
 7868TIP3    H123561   6.418   5.734   6.648  0.2887  0.5171  0.8357
 7868TIP3    H223562   6.473   5.608   6.710  1.2052  0.1101 -0.7580
 7869TIP3   OH223563   0.813   4.831   3.272 -0.0444  0.2704  0.5282
 7869TIP3    H123564   0.811   4.773   3.348  0.3363 -0.5153 -0.0396
 7869TIP3    H223565   0.721   4.847   3.250 -0.1592  0.7371  1.3153
 7870TIP3   OH223566   5.210   2.180   1.289 -0.1498 -0.1112  0.3640
 7870TIP3    H123567   5.243   2.095   1.259  0.2102  0.3433 -0.5526
 7870TIP3    H223568   5.134   2.158   1.343 -0.2906 -0.9948 -0.1719
 7871TIP3   OH223569   7.482   6.420   0.206  0.2902 -0.8485 -0.6079
 7871TIP3    H123570   7.460   6.339   0.252  1.9664 -0.6511  0.6356
 7871TIP3    H223571   7.469   6.399   0.113  0.4367 -2.4539 -0.2883
 7872TIP3   OH223572   4.124   7.176   2.027  0.6463  0.4537  0.1368
 7872TIP3    H123573   4.110   7.082   2.021  0.3158  0.5021  0.1087
 7872TIP3    H223574   4.084   7.211   1.947  1.1401  0.5790 -0.0587
 7873TIP3   OH223575   6.269   6.443   3.508 -0.2850  0.0858  0.3694
 7873TIP3    H123576   6.337   6.422   3.573  1.2833 -0.5506 -1.3920
 7873TIP3    H223577   6.315   6.492   3.440 -1.7539  0.2205 -0.5734
 7874TIP3   OH223578   0.263   1.763   5.747 -0.1556 -0.0083 -0.3550
 7874TIP3    H123579   0.179   1.795   5.715 -0.2899 -1.3937 -1.4759
 7874TIP3    H223580   0.251   1.756   5.842 -1.0809  0.4534 -0.4282
 7875TIP3   OH223581   7.107   6.195   6.594  0.0335  1.5263 -0.1677
 7875TIP3    H123582   7.060   6.124   6.549  1.0673  1.5516 -1.3390
 7875TIP3    H223583   7.120   6.262   6.527  2.3982  1.1890 -0.1342
 7876TIP3   OH223584   5.079   5.051   3.430  0.6155  0.2348  0.6725
 7876TIP3    H123585   5.073   5.143   3.454 -0.7472 -0.3728  2.9366
 7876TIP3    H223586   5.130   5.010   3.499 -2.2393 -1.3447  2.0390
 7877TIP3   OH223587   1.839   0.138   0.808  0.3022 -0.1936 -0.1943
 7877TIP3    H123588   1.781   0.099   0.874 -0.4146 -0.0212 -0.7023
 7877TIP3    H223589   1.835   0.232   0.825 -0.1531 -0.1192 -0.6828
 7878TIP3   OH223590   8.209   1.422   3.786 -1.1599  0.0446  0.1253
 7878TIP3    H123591   8.128   1.374   3.765 -1.9278  0.1319  2.5663
 7878TIP3    H223592   8.188   1.514   3.769 -1.7106  0.0987  1.0274
 7879TIP3   OH223593   2.641   4.643   3.345 -0.0138 -0.0016 -0.1652
 7879TIP3    H123594   2.666   4.736   3.340 -0.2656  0.1233  0.6873
 7879TIP3    H223595   2.705   4.598   3.290 -0.7173  0.8203 -1.7360
 7880TIP3   OH223596   3.927   3.787   6.530  0.5755 -0.0765  0.2280
 7880TIP3    H123597   3.961   3.708   6.573  1.5553 -0.5074 -1.2468
 7880TIP3    H223598   3.920   3.851   6.601 -0.1640 -1.4365  1.4527
 7881TIP3   OH223599   4.146   5.988   2.566  0.0423  0.4632 -0.1472
 7881TIP3    H123600   4.070   6.002   2.510 -0.3657 -0.6337  0.1115
 7881TIP3    H223601   4.144   5.895   2.586  0.8884  0.6104  0.6816
 7882TIP3   OH223602   0.452   6.137   1.302 -0.3872  0.1231  0.4745
 7882TIP3    H123603   0.482   6.135   1.211  0.0917 -2.8268  0.5959
 7882TIP3    H223604   0.358   6.120   1.297 -0.4393  0.3941  0.5175
 7883TIP3   OH223605   5.902   1.232   4.775  0.1167 -0.1647  0.1669
 7883TIP3    H123606   5.927   1.282   4.852  0.0038  0.4478 -0.1905
 7883TIP3    H223607   5.920   1.290   4.701  0.6792 -0.9208 -0.3073
 7884TIP3   OH223608   5.919   2.691   3.285 -0.1505 -0.0695  0.2193
 7884TIP3    H123609   5.999   2.674   3.335 -0.8388 -1.8249  0.8145
 7884TIP3    H223610   5.860   2.619   3.308 -1.0396 -0.1591 -2.0140
 7885TIP3   OH223611   6.974   1.328   2.397  0.2464  0.3451  0.3166
 7885TIP3    H123612   7.040   1.397   2.404  0.3183  0.4395 -1.0716
 7885TIP3    H223613   7.006   1.259   2.455  1.4044  0.5191 -0.0797
 7886TIP3   OH223614   5.540   5.149   6.659 -0.1810  0.7963  0.3151
 7886TIP3    H123615   5.550   5.227   6.604 -1.9701 -0.6828 -2.3648
 7886TIP3    H223616   5.621   5.100   6.645  1.5405  2.5916  3.0365
 7887TIP3   OH223617   0.191   2.852   2.975 -0.1072  0.0109 -0.5380
 7887TIP3    H123618   0.284   2.872   2.979 -0.2164  0.2855  1.4810
 7887TIP3    H223619   0.151   2.928   2.932  0.3495  0.9231  0.6021
 7888TIP3   OH223620   2.717   2.339   6.645 -0.5992  0.0301  0.5760
 7888TIP3    H123621   2.717   2.249   6.680 -2.4865 -0.6170 -0.9209
 7888TIP3    H223622   2.639   2.379   6.682 -1.1614  0.1991 -0.7313
 7889TIP3   OH223623   8.268   0.008   5.465  0.0940 -0.1665 -0.5216
 7889TIP3    H123624   8.318   0.041   5.539 -0.4323 -0.4209 -0.0455
 7889TIP3    H223625   8.177   0.011   5.495 -0.1544  0.0239 -1.2705
 7890TIP3   OH223626   7.781   7.655   3.430  0.1769 -0.3832  0.1814
 7890TIP3    H123627   7.757   7.706   3.507  0.9099  1.7993 -0.9338
 7890TIP3    H223628   7.876   7.644   3.437  0.4214  0.7696 -0.8735
 7891TIP3   OH223629   4.708   2.179   3.583 -0.1039 -0.5735  0.5835
 7891TIP3    H123630   4.781   2.239   3.564 -1.9163  1.2575 -1.1002
 7891TIP3    H223631   4.727   2.102   3.530  0.4324  0.0325 -0.1375
 7892TIP3   OH223632   7.204   4.307   6.776  0.4565 -0.2009 -0.4889
 7892TIP3    H123633   7.129   4.251   6.752  0.8984 -1.6172  1.2169
 7892TIP3    H223634   7.274   4.279   6.717  0.2124 -0.3094 -0.7300
 7893TIP3   OH223635   6.437   0.448   3.303  0.3099  0.0194 -0.1598
 7893TIP3    H123636   6.516   0.501   3.299 -0.7922  2.1296  2.4613
 7893TIP3    H223637   6.461   0.372   3.356  0.7283  0.3973  0.2005
 7894TIP3   OH223638   2.925   7.411   4.530 -0.0556  0.4077 -0.2400
 7894TIP3    H123639   2.950   7.456   4.449 -0.6075 -0.9376 -1.2081
 7894TIP3    H223640   2.924   7.480   4.596  0.8716  1.4655 -1.2752
 7895TIP3   OH223641   1.559   1.938   3.257  0.5954  0.1812  0.1996
 7895TIP3    H123642   1.548   1.941   3.162 -2.4913  1.8478  0.5081
 7895TIP3    H223643   1.567   1.844   3.276 -2.7330 -0.5819 -1.4176
 7896TIP3   OH223644   2.629   2.692   5.946  0.0086 -0.3101  0.1737
 7896TIP3    H123645   2.663   2.679   5.858 -1.8213  0.7151 -0.7520
 7896TIP3    H223646   2.541   2.654   5.944 -0.6925  1.1534  1.0483
 7897TIP3   OH223647   5.545   3.325   0.595  0.4428  0.4710  0.3809
 7897TIP3    H123648   5.516   3.331   0.504 -0.9160 -2.4922  0.5131
 7897TIP3    H223649   5.631   3.284   0.590  1.3682  2.3009  0.3963
 7898TIP3   OH223650   4.065   7.009   4.393 -0.5502 -0.1009 -0.4288
 7898TIP3    H123651   4.087   7.102   4.384 -0.8054 -0.1179 -1.2912
 7898TIP3    H223652   4.057   6.978   4.303 -1.1988 -0.7878 -0.1382
 7899TIP3   OH223653   1.160   0.405   6.025 -0.4308  0.4333 -0.3344
 7899TIP3    H123654   1.089   0.349   5.992  0.5510 -1.2503  0.2640
 7899TIP3    H223655   1.240   0.353   6.010  0.5095  1.6171  0.4219
 7900TIP3   OH223656   4.023   3.366   6.638 -0.3495  0.4576 -0.5587
 7900TIP3    H123657   4.080   3.288   6.643 -1.8289 -0.6681 -0.5909
 7900TIP3    H223658   3.948   3.337   6.587 -1.6545  1.4574  0.7385
 7901TIP3   OH223659   7.493   2.709   0.204 -0.5845 -0.4111 -0.2986
 7901TIP3    H123660   7.409   2.738   0.240  0.5388  0.5681  1.7109
 7901TIP3    H223661   7.504   2.761   0.125 -1.2391  0.5084  0.1817
 7902TIP3   OH223662   4.775   2.130   2.278 -0.1832  0.2273 -0.2641
 7902TIP3    H123663   4.795   2.036   2.273  0.0870  0.3344 -1.2793
 7902TIP3    H223664   4.734   2.151   2.195  0.9105  1.2781 -0.5621
 7903TIP3   OH223665   4.014   2.759   2.685 -0.1476  0.2373  0.1567
 7903TIP3    H123666   3.976   2.675   2.658 -2.5938  1.4352 -0.4003
 7903TIP3    H223667   4.052   2.794   2.604 -1.9727  1.0373 -0.4107
 7904TIP3   OH223668   0.540   7.034   1.387 -0.3050  0.3320  0.2964
 7904TIP3    H123669   0.591   7.071   1.460  1.0008 -1.1556  0.1872
 7904TIP3    H223670   0.573   7.080   1.310  0.0179  0.2276  0.3695
 7905TIP3   OH223671   7.504   3.798   5.788  0.1906  0.1580 -0.2202
 7905TIP3    H123672   7.587   3.794   5.740  0.8314 -0.7066  0.9359
 7905TIP3    H223673   7.437   3.790   5.719  1.0841 -1.0950 -0.9847
 7906TIP3   OH223674   0.498   2.299   2.451  0.6913 -0.2146 -0.3322
 7906TIP3    H123675   0.463   2.325   2.536  0.3646 -1.0680 -0.1953
 7906TIP3    H223676   0.580   2.347   2.443  0.9421 -0.4586  0.6662
 7907TIP3   OH223677   2.498   5.383   3.920  0.2509 -0.7811 -0.1426
 7907TIP3    H123678   2.403   5.390   3.934 -0.0002  0.7347 -2.1144
 7907TIP3    H223679   2.536   5.399   4.006 -1.2400  1.7630  0.1468
 7908TIP3   OH223680   4.664   0.328   4.845 -0.9289 -0.4329 -0.5360
 7908TIP3    H123681   4.609   0.405   4.861 -0.6606 -0.0780 -1.2746
 7908TIP3    H223682   4.642   0.268   4.916  0.5130  1.2167  1.4566
 7909TIP3   OH223683   4.193   4.803   6.347  0.2406  0.7003  0.0406
 7909TIP3    H123684   4.207   4.760   6.431  1.4174  0.1401 -0.4264
 7909TIP3    H223685   4.264   4.866   6.339 -0.6180  1.7101  0.0386
 7910TIP3   OH223686   0.251   0.308   6.453  0.0572  0.3926 -0.2026
 7910TIP3    H123687   0.219   0.387   6.497  1.1344  0.9992 -0.4768
 7910TIP3    H223688   0.302   0.340   6.379 -0.2334 -0.5878 -0.8476
 7911TIP3   OH223689   2.142   5.098   4.511  0.3766 -0.2910 -0.5693
 7911TIP3    H123690   2.175   5.183   4.482  0.1056  0.0546  0.1242
 7911TIP3    H223691   2.216   5.058   4.557 -0.0779  0.4087  0.8285
 7912TIP3   OH223692   1.584   4.522   1.245 -0.6656  0.1256  0.3389
 7912TIP3    H123693   1.534   4.459   1.194  1.8556 -1.6584 -0.0785
 7912TIP3    H223694   1.601   4.478   1.328  0.6698  0.4534  0.2572
 7913TIP3   OH223695   6.383   6.469   6.291 -0.0710 -0.3829 -0.1118
 7913TIP3    H123696   6.399   6.464   6.196  0.8650 -0.9390  0.0584
 7913TIP3    H223697   6.348   6.383   6.313 -2.2821  0.4107 -0.2620
 7914TIP3   OH223698   4.930   1.457   1.979  0.4808  0.1604  0.6492
 7914TIP3    H123699   4.995   1.415   2.035  1.1439 -2.4611 -1.8698
 7914TIP3    H223700   4.847   1.419   2.006  0.3905  0.9895  1.6140
 7915TIP3   OH223701   6.111   2.663   2.061  0.3023  0.0602 -0.5290
 7915TIP3    H123702   6.195   2.698   2.032  0.2915 -0.2686 -0.9776
 7915TIP3    H223703   6.087   2.599   1.993 -0.6507  0.6720 -0.8004
 7916TIP3   OH223704   1.069   5.295   2.504  0.0021  0.4575  1.1199
 7916TIP3    H123705   1.068   5.236   2.428  0.7896  0.0107  1.4557
 7916TIP3    H223706   1.009   5.365   2.479  1.3310  1.0779 -0.5348
 7917TIP3   OH223707   7.419   7.058   2.294 -0.6617 -0.2467 -0.2321
 7917TIP3    H123708   7.477   6.992   2.331 -0.8212  0.5504  1.5892
 7917TIP3    H223709   7.475   7.135   2.280 -1.1220  0.3785  1.1117
 7918TIP3   OH223710   4.241   0.459   1.552 -0.0805 -0.6237 -0.2051
 7918TIP3    H123711   4.310   0.506   1.506 -0.9871  0.5908 -0.3700
 7918TIP3    H223712   4.283   0.428   1.633  1.0546 -1.2703 -1.0143
 7919TIP3   OH223713   6.208   6.865   5.450 -0.1789  0.1531  0.4007
 7919TIP3    H123714   6.245   6.932   5.508  0.6358 -0.8867  1.1119
 7919TIP3    H223715   6.208   6.785   5.502  0.3213 -0.7566 -0.9536
 7920TIP3   OH223716   5.700   7.201   3.638 -0.5230 -0.1006 -0.0394
 7920TIP3    H123717   5.619   7.201   3.587 -0.1194  1.2036 -0.7327
 7920TIP3    H223718   5.677   7.249   3.718 -0.5562 -0.1063 -0.0456
 7921TIP3   OH223719   4.537   3.734   1.250 -0.0494  0.4150  0.4482
 7921TIP3    H123720   4.503   3.779   1.327  0.1581  1.1316  0.1326
 7921TIP3    H223721   4.538   3.801   1.182  0.3850 -0.0369  0.0022
 7922TIP3   OH223722   0.470   5.375   4.776 -0.1246  0.1164 -0.4331
 7922TIP3    H123723   0.545   5.434   4.767  2.3202 -2.3284  1.9146
 7922TIP3    H223724   0.506   5.289   4.756 -2.3164 -1.1908  0.9089
 7923TIP3   OH223725   4.213   7.113   0.520  0.0501 -0.1470  0.0090
 7923TIP3    H123726   4.267   7.119   0.599  1.6399 -0.3331 -1.0126
 7923TIP3    H223727   4.137   7.169   0.538  1.7052  2.0546  0.6396
 7924TIP3   OH223728   3.745   0.328   4.151 -0.3950 -0.1069 -0.2249
 7924TIP3    H123729   3.680   0.264   4.122  0.0396 -0.3225 -0.7153
 7924TIP3    H223730   3.819   0.317   4.092  0.9992 -1.3775  1.6714
 7925TIP3   OH223731   4.431   0.321   2.438 -0.1787  0.2612  0.3459
 7925TIP3    H123732   4.501   0.342   2.376 -0.5380  1.1596  0.2401
 7925TIP3    H223733   4.351   0.326   2.386 -0.3905 -0.0879  0.6314
 7926TIP3   OH223734   1.807   3.411   4.722  0.0041 -0.8506 -0.0419
 7926TIP3    H123735   1.809   3.453   4.636  1.2053  0.1367  0.4372
 7926TIP3    H223736   1.795   3.318   4.703 -2.2990 -0.3877 -1.1488
 7927TIP3   OH223737   3.759   2.198   5.897  0.6093  0.1117 -0.2626
 7927TIP3    H123738   3.844   2.213   5.938  1.0466 -0.9368 -0.7378
 7927TIP3    H223739   3.705   2.159   5.966  0.3864  1.1063  0.1410
 7928TIP3   OH223740   5.878   7.531   1.654  0.1421 -0.4131 -0.2802
 7928TIP3    H123741   5.825   7.554   1.578  1.9805 -1.0227 -1.8277
 7928TIP3    H223742   5.863   7.437   1.666 -0.9620 -0.1186  0.8178
 7929TIP3   OH223743   0.117   0.770   1.567 -0.1526 -0.2689 -0.6275
 7929TIP3    H123744   0.101   0.686   1.609 -0.0812  0.2044  0.3742
 7929TIP3    H223745   0.116   0.834   1.638  0.3515  0.5147 -1.2972
 7930TIP3   OH223746   0.807   0.241   3.044  0.2502  0.3713  0.2771
 7930TIP3    H123747   0.717   0.236   3.010 -0.7265  3.0268  2.1381
 7930TIP3    H223748   0.801   0.208   3.134  2.0228 -2.9639 -0.6557
 7931TIP3   OH223749   0.853   0.870   5.173 -0.5033 -0.1736 -0.3988
 7931TIP3    H123750   0.791   0.907   5.235  1.3945  1.6992  0.5162
 7931TIP3    H223751   0.864   0.937   5.106  0.3972 -0.5144 -0.6117
 7932TIP3   OH223752   7.749   4.906   6.690 -0.2522  0.1199 -0.6641
 7932TIP3    H123753   7.810   4.906   6.764  0.3688  0.0272 -1.1662
 7932TIP3    H223754   7.742   4.815   6.664  0.8695  0.3130 -1.7788
 7933TIP3   OH223755   0.809   0.594   2.796  0.1397  0.8293  0.5173
 7933TIP3    H123756   0.816   0.625   2.886 -2.0962 -0.3991  1.2168
 7933TIP3    H223757   0.899   0.586   2.765  1.0123  0.3771  2.9818
 7934TIP3   OH223758   6.669   2.758   4.545  0.3148  0.3001  0.0435
 7934TIP3    H123759   6.627   2.844   4.547 -0.4209 -0.0307 -0.6004
 7934TIP3    H223760   6.603   2.698   4.580  1.3175  0.1651  1.8435
 7935TIP3   OH223761   2.347   3.644   4.449 -0.7236 -0.2629 -0.8221
 7935TIP3    H123762   2.378   3.698   4.375  0.3563  0.1005 -0.1247
 7935TIP3    H223763   2.317   3.708   4.514 -3.7031 -0.5884 -1.7088
 7936TIP3   OH223764   4.869   3.626   0.667 -0.2005 -0.4179 -0.0851
 7936TIP3    H123765   4.909   3.682   0.734  0.0115  0.4588 -0.9200
 7936TIP3    H223766   4.901   3.661   0.584 -1.4675 -0.6640 -0.7113
 7937TIP3   OH223767   6.136   5.798   1.318  0.0968  0.1834 -0.1905
 7937TIP3    H123768   6.125   5.869   1.255  1.6704  0.7410  0.1010
 7937TIP3    H223769   6.204   5.742   1.279  0.7544  0.2859  0.7640
 7938TIP3   OH223770   4.035   0.766   4.093 -0.3889  0.3156 -0.3168
 7938TIP3    H123771   4.070   0.855   4.095  0.1423  0.1291 -1.0282
 7938TIP3    H223772   4.102   0.715   4.047 -0.3986 -0.5815  0.6184
 7939TIP3   OH223773   8.020   3.452   5.613 -0.3970 -0.2425  0.3921
 7939TIP3    H123774   7.994   3.375   5.562  1.0149  0.3711 -1.3406
 7939TIP3    H223775   8.113   3.440   5.629 -0.2355  0.9331  0.4086
 7940TIP3   OH223776   5.554   1.664   5.935  0.0751 -0.0729  0.2180
 7940TIP3    H123777   5.595   1.749   5.949  0.9507 -0.6246  1.1375
 7940TIP3    H223778   5.483   1.681   5.873  0.1304  1.3503  0.5156
 7941TIP3   OH223779   0.132   7.757   5.123  0.1306  0.0233  0.0991
 7941TIP3    H123780   0.226   7.772   5.132  0.3391  0.6462 -2.3352
 7941TIP3    H223781   0.125   7.663   5.103  0.0611 -0.3398  1.6880
 7942TIP3   OH223782   0.082   3.650   5.364 -0.2091 -0.1958  0.4170
 7942TIP3    H123783   0.140   3.583   5.328 -0.1066 -0.7070  1.4852
 7942TIP3    H223784  -0.003   3.607   5.372 -0.1833 -0.1608  0.9438
 7943TIP3   OH223785   7.126   4.532   2.085 -0.3512  0.2780 -0.3067
 7943TIP3    H123786   7.077   4.590   2.026 -0.1079  1.0241  0.2023
 7943TIP3    H223787   7.194   4.589   2.123 -1.7218  0.3828  2.2153
 7944TIP3   OH223788   3.981   4.531   2.698  0.5317  0.3111  0.5831
 7944TIP3    H123789   3.955   4.623   2.697 -0.0360  0.1549  0.3339
 7944TIP3    H223790   3.899   4.483   2.706  0.7095 -0.2081 -0.4326
 7945TIP3   OH223791   2.011   4.296   0.407 -0.4556 -0.2072  0.2088
 7945TIP3    H123792   1.938   4.294   0.345 -0.0171 -0.7880 -0.2973
 7945TIP3    H223793   2.075   4.354   0.366  0.3125 -1.4800 -0.4390
 7946TIP3   OH223794   1.030   3.933   4.750  0.0517  0.0362 -0.3896
 7946TIP3    H123795   1.117   3.973   4.759 -0.3651  0.4805  3.8408
 7946TIP3    H223796   1.047   3.847   4.712  2.2799  0.3305 -0.2137
 7947TIP3   OH223797   2.620   0.714   0.390  0.0219  0.7010 -0.4084
 7947TIP3    H123798   2.637   0.634   0.439 -1.4674  0.3652 -0.3709
 7947TIP3    H223799   2.632   0.690   0.299  1.1854  0.8894 -0.3167
 7948TIP3   OH223800   6.709   2.304   1.345 -0.2929  0.3111  0.1177
 7948TIP3    H123801   6.782   2.255   1.307 -1.0033 -0.9193  0.2954
 7948TIP3    H223802   6.737   2.323   1.435  0.9075  2.2227 -0.5960
 7949TIP3   OH223803   4.910   5.879   0.918  0.2292 -0.0258 -0.7161
 7949TIP3    H123804   4.986   5.881   0.860  0.6513 -1.3890 -0.2509
 7949TIP3    H223805   4.925   5.951   0.979 -0.0934  1.2709 -2.0929
 7950TIP3   OH223806   4.424   2.863   6.157 -0.1452 -0.2351  0.3269
 7950TIP3    H123807   4.402   2.956   6.148 -1.8330 -0.4603  1.5851
 7950TIP3    H223808   4.369   2.832   6.229  0.3486 -2.2263 -0.0872
 7951TIP3   OH223809   2.840   5.745   1.808  0.0457  0.1865  0.3965
 7951TIP3    H123810   2.861   5.660   1.769  0.8321  0.5739 -0.0391
 7951TIP3    H223811   2.874   5.740   1.897 -0.7696 -0.2945  0.6978
 7952TIP3   OH223812   7.741   5.878   2.698  0.4784  0.3261 -0.2396
 7952TIP3    H123813   7.683   5.810   2.665  0.5567 -1.1072  2.3336
 7952TIP3    H223814   7.767   5.848   2.785  2.5043  2.4848  0.0118
 7953TIP3   OH223815   5.218   5.598   2.230 -0.3632  0.2595 -0.0469
 7953TIP3    H123816   5.211   5.502   2.234 -2.6010  0.3785 -0.0481
 7953TIP3    H223817   5.313   5.615   2.233  0.0482 -1.8560  1.9011
 7954TIP3   OH223818   6.035   3.347   4.979 -0.2276  0.1027 -0.3596
 7954TIP3    H123819   5.993   3.323   4.896 -1.3261  0.1526  0.1654
 7954TIP3    H223820   5.966   3.337   5.045  0.1480  1.6440  0.3163
 7955TIP3   OH223821   7.743   6.175   4.028 -0.3870  0.1163 -0.2050
 7955TIP3    H123822   7.728   6.233   3.954 -0.0152  1.1152  0.4728
 7955TIP3    H223823   7.838   6.170   4.036 -0.3905 -1.3965 -0.8559
 7956TIP3   OH223824   4.808   4.816   2.100 -0.1456 -0.2652 -0.0564
 7956TIP3    H123825   4.758   4.856   2.171  0.4886 -0.6555  0.6364
 7956TIP3    H223826   4.771   4.729   2.090 -0.6223 -0.0027 -0.6174
 7957TIP3   OH223827   8.254   2.226   1.149 -0.1044 -0.7401 -0.0097
 7957TIP3    H123828   8.183   2.201   1.207 -0.8348  1.0660 -0.0452
 7957TIP3    H223829   8.333   2.220   1.202 -0.5695 -0.6382  0.7025
 7958TIP3   OH223830   5.091   4.163   6.307 -0.2846 -0.0973  0.0379
 7958TIP3    H123831   5.096   4.215   6.227  0.3188 -1.6390 -0.9906
 7958TIP3    H223832   5.181   4.159   6.339 -0.8146  2.3744  2.1322
 7959TIP3   OH223833   1.141   6.775   1.837 -0.1561 -0.0593  0.1112
 7959TIP3    H123834   1.136   6.728   1.920  1.0233  0.0026  0.2326
 7959TIP3    H223835   1.209   6.841   1.850  1.3831 -1.2393 -1.4721
 7960TIP3   OH223836   5.681   6.161   0.312  0.0373  0.0744  0.4416
 7960TIP3    H123837   5.617   6.228   0.337  0.6892  1.2217 -0.8383
 7960TIP3    H223838   5.757   6.179   0.367  1.1256  2.0089 -1.5521
 7961TIP3   OH223839   6.085   2.156   0.220 -0.6005  0.2625 -0.1944
 7961TIP3    H123840   6.091   2.116   0.133  2.3959  2.5609 -1.2182
 7961TIP3    H223841   6.170   2.139   0.260  0.0973  3.7019  0.0874
 7962TIP3   OH223842   7.362   6.469   4.441 -0.2824  0.0593  0.3532
 7962TIP3    H123843   7.434   6.532   4.435 -1.3061  1.6281  2.9246
 7962TIP3    H223844   7.283   6.521   4.427 -1.1161 -0.7635  1.8087
 7963TIP3   OH223845   1.320   7.280   1.902 -0.3464  0.0718 -0.9713
 7963TIP3    H123846   1.369   7.346   1.951 -0.6902  0.4540 -1.1338
 7963TIP3    H223847   1.324   7.309   1.811 -2.0520  0.9041 -0.8352
 7964TIP3   OH223848   7.760   7.646   1.105 -0.1760 -0.1262  0.4444
 7964TIP3    H123849   7.698   7.633   1.177 -1.5038  0.9517 -0.4358
 7964TIP3    H223850   7.712   7.616   1.027  0.7015  0.0386 -0.1742
 7965TIP3   OH223851   7.419   1.119   2.715 -0.2706 -0.0042 -0.0281
 7965TIP3    H123852   7.449   1.191   2.770 -2.6446  1.5003 -0.5318
 7965TIP3    H223853   7.445   1.144   2.626  0.2202 -0.5539 -0.0491
 7966TIP3   OH223854   6.099   6.684   2.581  0.0262  0.4202 -0.6455
 7966TIP3    H123855   6.109   6.617   2.648  0.9601  2.2273  1.1538
 7966TIP3    H223856   6.189   6.703   2.552 -0.2778  0.4178 -1.6138
 7967TIP3   OH223857   7.913   3.547   1.488  0.3191 -0.0024  0.4352
 7967TIP3    H123858   7.954   3.480   1.433  0.3056  1.1733 -1.0919
 7967TIP3    H223859   7.977   3.618   1.491 -1.2282  1.6082 -1.4642
 7968TIP3   OH223860   5.852   2.139   4.904  0.3131 -0.2772 -0.4324
 7968TIP3    H123861   5.914   2.136   4.977 -0.9451  0.6038  0.7067
 7968TIP3    H223862   5.840   2.047   4.881  0.3577 -0.6191  0.8037
 7969TIP3   OH223863   6.424   5.340   6.550  0.4608  0.2788  0.6977
 7969TIP3    H123864   6.450   5.343   6.458 -0.3766  0.1927  0.4481
 7969TIP3    H223865   6.433   5.430   6.580  0.0126  0.4586  0.3126
 7970TIP3   OH223866   6.086   6.172   4.823 -0.3102 -0.2155  0.0730
 7970TIP3    H123867   6.061   6.088   4.861  1.6706  0.3174  2.8386
 7970TIP3    H223868   6.153   6.151   4.758 -2.6310 -0.9991 -2.2607
 7971TIP3   OH223869   2.610   6.722   5.541  0.0915 -0.5456  0.0249
 7971TIP3    H123870   2.672   6.744   5.611 -0.2971  0.8237 -0.0238
 7971TIP3    H223871   2.650   6.647   5.496  0.7734 -0.8895  1.1628
 7972TIP3   OH223872   8.219   2.924   4.827  0.3241  0.1011 -0.4092
 7972TIP3    H123873   8.303   2.943   4.869  0.7131 -1.4205 -0.4356
 7972TIP3    H223874   8.162   2.898   4.900 -0.3394  1.7098 -0.3110
 7973TIP3   OH223875   1.675   6.351   1.559  0.2235 -0.5659  0.2483
 7973TIP3    H123876   1.650   6.378   1.648 -0.9178 -0.3605 -0.1104
 7973TIP3    H223877   1.658   6.429   1.506  1.2037 -0.5870 -0.1055
 7974TIP3   OH223878   4.302   7.546   5.940  0.6198  0.2382 -0.5002
 7974TIP3    H123879   4.338   7.480   5.999 -1.1192 -0.7359 -0.4829
 7974TIP3    H223880   4.377   7.602   5.919  1.8455 -0.9402  0.5373
 7975TIP3   OH223881   2.954   1.880   4.453  0.0559  0.4884  0.0256
 7975TIP3    H123882   2.947   1.894   4.359  0.3393 -0.9349 -0.2195
 7975TIP3    H223883   2.868   1.905   4.487 -0.4676 -0.1766 -0.7716
 7976TIP3   OH223884   3.073   4.891   1.188  0.1423 -0.0515 -0.5540
 7976TIP3    H123885   3.009   4.959   1.210  1.4179  0.7285  0.8896
 7976TIP3    H223886   3.135   4.891   1.261  1.0688 -1.6909 -1.2827
 7977TIP3   OH223887   6.331   2.182   4.418 -0.1746  0.1046 -0.0303
 7977TIP3    H123888   6.410   2.191   4.365  1.2857 -1.1613  1.7975
 7977TIP3    H223889   6.313   2.271   4.450  1.0680  0.2749  0.2387
 7978TIP3   OH223890   3.508   4.832   1.429  0.5680 -0.3925  0.2262
 7978TIP3    H123891   3.467   4.792   1.505  0.0896 -0.5448 -0.1083
 7978TIP3    H223892   3.601   4.813   1.440  0.6287  0.4600  1.2846
 7979TIP3   OH223893   1.886   7.100   0.955  0.3199  0.0327  0.0966
 7979TIP3    H123894   1.973   7.059   0.953  0.1656 -0.4740  1.8631
 7979TIP3    H223895   1.872   7.130   0.866  2.9355  1.4380  0.0599
 7980TIP3   OH223896   1.381   2.762   3.474  0.1674  0.1587  0.4399
 7980TIP3    H123897   1.459   2.788   3.425 -0.0544  1.1565  0.6103
 7980TIP3    H223898   1.414   2.700   3.539  0.6496 -0.2376 -0.1705
 7981TIP3   OH223899   5.762   1.023   3.672 -0.0302 -0.2555 -0.0092
 7981TIP3    H123900   5.724   0.942   3.640 -1.7170  0.0051  1.2351
 7981TIP3    H223901   5.744   1.087   3.603  0.4567 -0.6972 -0.5575
 7982TIP3   OH223902   6.400   7.100   3.492 -0.2986  0.3024  0.6396
 7982TIP3    H123903   6.383   7.168   3.557 -1.7755  1.1073 -0.4960
 7982TIP3    H223904   6.415   7.149   3.411 -0.3164 -0.7016  0.0202
 7983TIP3   OH223905   7.483   0.355   0.451  0.1025  0.1908  0.2767
 7983TIP3    H123906   7.406   0.314   0.491  0.4546  0.1948  0.9726
 7983TIP3    H223907   7.553   0.343   0.515  0.4320  1.0851  0.1052
 7984TIP3   OH223908   7.400   0.039   6.510  0.3279  0.1242  0.3106
 7984TIP3    H123909   7.394  -0.056   6.515  2.0554 -0.0057  0.4161
 7984TIP3    H223910   7.480   0.056   6.459 -0.0999  1.5133  0.0586
 7985TIP3   OH223911   5.411   6.004  -0.028 -0.2481 -0.5235  0.4021
 7985TIP3    H123912   5.320   6.010   0.001  0.3083  1.4648  2.0086
 7985TIP3    H223913   5.459   5.976   0.050  0.6452 -0.4764 -0.1208
 7986TIP3   OH223914   5.440   2.546   3.359 -0.0489 -0.4348 -0.7013
 7986TIP3    H123915   5.362   2.500   3.390  0.0889 -0.6564 -0.6891
 7986TIP3    H223916   5.494   2.478   3.319  0.3222 -0.3445 -0.3555
 7987TIP3   OH223917   1.707   0.301   0.491  0.0941  0.0485 -0.2386
 7987TIP3    H123918   1.693   0.220   0.442 -0.3277  0.4922 -0.8688
 7987TIP3    H223919   1.705   0.274   0.583  3.7467 -1.2675 -0.4049
 7988TIP3   OH223920   3.455   4.435   1.767  0.1821 -0.2574  0.1075
 7988TIP3    H123921   3.420   4.399   1.848  0.5034 -0.5341  0.1210
 7988TIP3    H223922   3.415   4.382   1.698  1.1025 -1.0259  0.1504
 7989TIP3   OH223923   3.975   4.473   0.814 -0.3221  0.2112 -0.1215
 7989TIP3    H123924   4.063   4.501   0.791  0.0985  0.3020  1.5367
 7989TIP3    H223925   3.987   4.404   0.879 -1.4539 -0.8888 -1.0195
 7990TIP3   OH223926   3.930   6.489   1.270 -0.1429  0.7247  0.1309
 7990TIP3    H123927   4.025   6.483   1.261 -0.2683  0.9885 -1.9611
 7990TIP3    H223928   3.899   6.399   1.259 -0.1734  0.7392  0.0989
 7991TIP3   OH223929   2.022   3.536   1.163 -0.9319  1.0372  0.1555
 7991TIP3    H123930   2.089   3.566   1.225  1.0589 -0.1923 -1.2838
 7991TIP3    H223931   2.064   3.542   1.077 -2.9750  0.9681 -0.9032
 7992TIP3   OH223932   8.114   7.205   0.416 -0.0866 -0.3176  0.2018
 7992TIP3    H123933   8.176   7.139   0.447  0.0733  0.0878  0.7670
 7992TIP3    H223934   8.146   7.230   0.330 -0.7406 -1.7344 -0.4862
 7993TIP3   OH223935   7.359   3.279   2.253  0.0598 -0.3438 -0.0823
 7993TIP3    H123936   7.408   3.335   2.193  0.1996  0.3226  0.6348
 7993TIP3    H223937   7.375   3.317   2.339  0.5989 -1.8120  0.4945
 7994TIP3   OH223938   6.836   2.258   5.073  0.4411  0.4126  0.3765
 7994TIP3    H123939   6.798   2.183   5.118 -1.1620  0.9364 -0.0348
 7994TIP3    H223940   6.764   2.296   5.024  1.6148  1.2290 -0.7961
 7995TIP3   OH223941   1.212   7.468   3.669 -0.3012 -0.1337 -0.3886
 7995TIP3    H123942   1.264   7.502   3.741 -1.0828  0.4841 -0.1031
 7995TIP3    H223943   1.140   7.531   3.660  0.1855  0.2251 -2.1923
 7996TIP3   OH223944   6.224   0.067   6.091 -0.3634 -0.0629 -0.1513
 7996TIP3    H123945   6.229  -0.028   6.088 -2.6646 -0.3289  1.9349
 7996TIP3    H223946   6.267   0.091   6.173  0.8491  0.8282 -1.0011
 7997TIP3   OH223947   6.811   5.016   4.552 -0.4907  0.4655  0.4433
 7997TIP3    H123948   6.824   4.924   4.576 -1.3720  0.6285  1.6209
 7997TIP3    H223949   6.759   5.013   4.472  2.0912 -0.0850 -1.3461
 7998TIP3   OH223950   0.028   5.636   6.617  0.0019  0.0324  0.0658
 7998TIP3    H123951  -0.001   5.656   6.528  1.2417  0.5546 -0.2444
 7998TIP3    H223952  -0.005   5.709   6.670 -2.9303 -1.5065  0.5668
 7999TIP3   OH223953   4.310   5.163   4.374 -0.3850 -0.9759 -0.3255
 7999TIP3    H123954   4.221   5.153   4.408 -0.2558 -1.8634 -0.2417
 7999TIP3    H223955   4.342   5.074   4.361  0.9424 -0.6978  0.8114
 8000TIP3   OH223956   5.142   3.153   4.281 -0.4001 -0.5653  0.2953
 8000TIP3    H123957   5.207   3.133   4.215 -0.6499 -1.0255  0.1884
 8000TIP3    H223958   5.140   3.077   4.339 -0.9130 -0.6032  0.2382
 8001TIP3   OH223959   4.679   0.502   5.444 -0.0822 -0.4251 -0.1627
 8001TIP3    H123960   4.616   0.431   5.459  0.0510 -0.8911 -1.6254
 8001TIP3    H223961   4.761   0.457   5.424  0.0688  0.1350 -0.8542
 8002TIP3   OH223962   4.951   7.723   3.418 -0.3504 -0.2336 -0.0401
 8002TIP3    H123963   5.007   7.760   3.349  3.0409 -1.5229  1.8277
 8002TIP3    H223964   4.917   7.642   3.379  2.2780 -1.4452 -0.0360
 8003TIP3   OH223965   1.437   6.840   4.617 -0.3234  0.6566 -0.6687
 8003TIP3    H123966   1.433   6.896   4.694  3.9595  0.6640 -0.2560
 8003TIP3    H223967   1.474   6.896   4.549  2.8464 -1.1694 -0.5942
 8004TIP3   OH223968   8.198   2.222   4.127  0.2109  0.3898 -0.9139
 8004TIP3    H123969   8.121   2.279   4.137  0.0959 -0.0054  0.9158
 8004TIP3    H223970   8.269   2.271   4.167  1.2424  1.2261 -3.5723
 8005TIP3   OH223971   2.953   6.133   6.697 -0.3943  0.5242  0.4216
 8005TIP3    H123972   3.000   6.111   6.616 -0.2181 -0.5737  0.8135
 8005TIP3    H223973   2.933   6.049   6.737 -0.0397  1.0676  1.7824
 8006TIP3   OH223974   0.359   4.013   3.351 -0.1967  0.1445 -0.3794
 8006TIP3    H123975   0.351   3.957   3.273 -0.6427  0.0920 -0.2992
 8006TIP3    H223976   0.270   4.022   3.383 -0.0277  0.2514  0.0695
 8007TIP3   OH223977   3.363   7.079   6.186 -0.7484  0.2336 -0.2819
 8007TIP3    H123978   3.288   7.117   6.233 -1.3881 -0.0299 -1.0668
 8007TIP3    H223979   3.323   7.021   6.121  0.1527 -0.0698 -0.5725
 8008TIP3   OH223980   3.181   0.869   1.106 -0.4411  0.0215 -0.1472
 8008TIP3    H123981   3.178   0.918   1.024  1.1289 -2.2393 -1.6555
 8008TIP3    H223982   3.100   0.818   1.107 -0.9420  0.7982  0.2564
 8009TIP3   OH223983   6.779   3.543   5.448  0.1252 -0.1579 -0.0502
 8009TIP3    H123984   6.825   3.563   5.366  1.4768 -1.6669  0.2820
 8009TIP3    H223985   6.732   3.623   5.470  0.0591  0.4106 -2.0835
 8010TIP3   OH223986   3.367   7.491   1.413 -0.0164  0.0061  0.2901
 8010TIP3    H123987   3.409   7.535   1.338  0.7752  1.6461  1.6234
 8010TIP3    H223988   3.273   7.501   1.396  0.1460  1.6581  0.2022
 8011TIP3   OH223989   1.994   3.716   2.021  0.3860 -0.0652  0.2056
 8011TIP3    H123990   2.003   3.809   2.038  0.1518  0.2657 -1.3388
 8011TIP3    H223991   2.078   3.689   1.985  0.3828 -0.3956  0.4439
 8012TIP3   OH223992   8.145   4.714   3.017  0.5207  0.1815 -0.2193
 8012TIP3    H123993   8.084   4.769   2.967 -1.3991 -2.3004 -0.8063
 8012TIP3    H223994   8.094   4.637   3.040  2.1740 -0.0823  3.2060
 8013TIP3   OH223995   4.530   6.079   6.064 -0.2485  0.5500 -0.2787
 8013TIP3    H123996   4.549   6.157   6.011 -0.7246  0.9283  0.0954
 8013TIP3    H223997   4.515   6.010   6.000  4.0727 -0.2735 -0.6415
 8014TIP3   OH223998   4.706   0.191   1.406 -0.2175  0.1309 -0.4214
 8014TIP3    H123999   4.748   0.276   1.394 -0.4937  0.5986  1.5755
 8014TIP3    H224000   4.740   0.138   1.334  2.5130  0.9678  0.1015
 8015TIP3   OH224001   4.728   1.045   6.498  0.1166 -0.4250 -0.2266
 8015TIP3    H124002   4.801   1.052   6.560  0.3157 -1.6903 -0.2895
 8015TIP3    H224003   4.706   0.952   6.497 -3.7393  0.2097  2.3290
 8016TIP3   OH224004   6.435   3.674   0.297 -0.0146 -0.4540  0.0046
 8016TIP3    H124005   6.510   3.618   0.277 -0.6068 -1.0261 -0.6492
 8016TIP3    H224006   6.450   3.701   0.388  1.0952 -0.3669 -0.1876
 8017TIP3   OH224007   8.158   6.395   6.248  0.3090 -0.2885  0.1547
 8017TIP3    H124008   8.172   6.484   6.215  1.1013 -1.1663 -2.0018
 8017TIP3    H224009   8.182   6.400   6.341  1.7780  1.4113 -0.2671
 8018TIP3   OH224010   4.467   2.736   0.798  0.1018  0.6551  0.3249
 8018TIP3    H124011   4.398   2.702   0.856  0.2504 -0.1082  0.0614
 8018TIP3    H224012   4.451   2.830   0.795 -1.8407  0.3462 -0.8838
 8019TIP3   OH224013   8.046   6.274   2.479  0.0772 -0.1205  0.1406
 8019TIP3    H124014   8.095   6.302   2.402 -1.5169  3.0357  0.0938
 8019TIP3    H224015   7.991   6.203   2.448  1.3358 -0.6848 -0.9142
 8020TIP3   OH224016   4.086   6.977   3.966  0.1831 -0.7169 -0.3619
 8020TIP3    H124017   4.059   7.040   3.900  2.1494 -0.1792 -0.7361
 8020TIP3    H224018   4.129   7.030   4.034  2.0271 -1.6045 -0.7640
 8021TIP3   OH224019   7.025   6.449   5.119 -0.1978  0.4114  0.1891
 8021TIP3    H124020   6.954   6.507   5.150  0.1565  1.2650 -0.5425
 8021TIP3    H224021   7.102   6.506   5.117  0.3052 -0.2683  0.0644
 8022TIP3   OH224022   1.561   0.585   4.334  0.6328 -0.4547 -0.1978
 8022TIP3    H124023   1.642   0.553   4.293  0.4493 -1.3770  0.1425
 8022TIP3    H224024   1.533   0.514   4.391 -0.2346  0.0023 -0.0360
 8023TIP3   OH224025   3.591   3.594   3.717 -0.3349 -0.1205  0.0170
 8023TIP3    H124026   3.659   3.557   3.661 -1.1470 -0.5882 -0.6813
 8023TIP3    H224027   3.509   3.573   3.673 -0.9247  0.7252  0.6718
 8024TIP3   OH224028   2.433   0.151   4.799 -0.3526 -0.0527  0.6197
 8024TIP3    H124029   2.468   0.208   4.729  1.0800 -1.0472  0.4677
 8024TIP3    H224030   2.449   0.200   4.879  1.5522 -0.4804  0.5583
 8025TIP3   OH224031   7.813   1.949   2.723 -0.1337  0.4060  0.7797
 8025TIP3    H124032   7.906   1.947   2.749 -0.2181 -0.0644  1.0473
 8025TIP3    H224033   7.788   1.857   2.717  0.1585  0.4260 -2.0217
 8026TIP3   OH224034   3.133   2.051   3.020 -0.3446 -0.2084 -0.8196
 8026TIP3    H124035   3.068   1.988   2.988  1.0143 -1.1775 -1.7742
 8026TIP3    H224036   3.098   2.136   2.995 -1.9383 -0.5738 -0.0106
 8027TIP3   OH224037   7.560   2.488   5.240  0.0046  0.8479 -0.3582
 8027TIP3    H124038   7.623   2.492   5.168  0.1107 -1.1978 -0.4376
 8027TIP3    H224039   7.609   2.447   5.312 -1.5444 -2.2681 -0.9075
 8028TIP3   OH224040   6.092   5.751   3.599  0.7544  0.7322 -0.0385
 8028TIP3    H124041   6.163   5.689   3.585  0.9556  1.0754 -0.5595
 8028TIP3    H224042   6.115   5.827   3.545  0.0206  0.8612 -0.1782
 8029TIP3   OH224043   4.369   0.432   6.694 -0.5853 -0.1363 -0.1128
 8029TIP3    H124044   4.310   0.414   6.621  0.2799 -2.0725 -0.3824
 8029TIP3    H224045   4.422   0.506   6.664 -1.8792  0.7132 -0.4148
 8030TIP3   OH224046   1.948   5.347   5.625  0.1086 -0.0867 -0.2793
 8030TIP3    H124047   1.962   5.408   5.698 -1.8260  0.8259 -0.5974
 8030TIP3    H224048   2.005   5.380   5.555 -0.8902  1.3797 -0.4346
 8031TIP3   OH224049   6.816   4.046   1.544 -0.0509 -0.0193 -0.6764
 8031TIP3    H124050   6.863   4.084   1.618 -0.0317 -0.3583 -0.5120
 8031TIP3    H224051   6.867   4.073   1.467 -0.8330  1.4845 -0.6945
 8032TIP3   OH224052   7.108   1.439   5.969 -0.2126  0.0221 -0.3406
 8032TIP3    H124053   7.189   1.401   6.003 -0.5145 -1.1531 -0.8601
 8032TIP3    H224054   7.124   1.533   5.966  2.5339 -0.3513 -3.8248
 8033TIP3   OH224055   0.821   2.753   5.513  0.2762 -0.1965  0.0790
 8033TIP3    H124056   0.741   2.747   5.461 -0.3133 -0.5051  1.0034
 8033TIP3    H224057   0.792   2.777   5.601  1.2084 -0.1854  0.4016
 8034TIP3   OH224058   3.037   6.899   5.101 -0.2167  0.0111 -0.3338
 8034TIP3    H124059   3.017   6.935   5.015 -0.8484 -1.3433 -0.7845
 8034TIP3    H224060   2.951   6.884   5.142  0.0377 -0.5334  0.0192
 8035TIP3   OH224061   3.555   5.098   3.776 -0.0290 -0.8097 -0.3874
 8035TIP3    H124062   3.633   5.068   3.823  0.1269  0.8689  0.4867
 8035TIP3    H224063   3.498   5.133   3.844 -0.2699  0.6845 -1.3071
 8036TIP3   OH224064   6.631   6.246   5.957  0.4299  0.2740  0.3210
 8036TIP3    H124065   6.703   6.235   6.019  0.4908  2.2801  0.6703
 8036TIP3    H224066   6.562   6.289   6.007  0.1850  1.2239 -0.7599
 8037TIP3   OH224067   6.434   5.742   5.448 -0.4018  0.3782  0.0503
 8037TIP3    H124068   6.419   5.783   5.363  0.4322  1.4234  0.3878
 8037TIP3    H224069   6.393   5.802   5.511  2.7953  2.0385  0.7694
 8038TIP3   OH224070   6.620   5.728   4.480 -0.1468 -0.0191 -0.1006
 8038TIP3    H124071   6.633   5.647   4.430 -0.3390 -0.7208  0.9382
 8038TIP3    H224072   6.603   5.698   4.569 -0.5414  1.1675  0.2433
 8039TIP3   OH224073   4.214   6.709   4.294 -0.4585  0.1991  0.1526
 8039TIP3    H124074   4.275   6.782   4.282 -1.1512  0.6979 -0.4519
 8039TIP3    H224075   4.232   6.677   4.382  0.9220  0.0936 -0.1498
 8040TIP3   OH224076   4.967   6.650   4.454 -0.2159  0.3278  0.4184
 8040TIP3    H124077   4.981   6.725   4.396 -0.1956 -0.1536 -0.2080
 8040TIP3    H224078   5.021   6.580   4.416 -2.1408 -0.7500 -0.4363
 8041TIP3   OH224079   6.169   2.067   3.383 -0.5430 -0.2967  0.4781
 8041TIP3    H124080   6.126   2.028   3.308  1.9397  1.5486 -2.1309
 8041TIP3    H224081   6.253   2.021   3.389  0.8064  1.8883 -0.2726
 8042TIP3   OH224082   3.076   6.303   4.305  0.2277  0.3812  0.0734
 8042TIP3    H124083   3.079   6.248   4.226  1.9925  0.7258 -0.1289
 8042TIP3    H224084   3.040   6.386   4.274  0.4391  0.3535 -0.2543
 8043TIP3   OH224085   6.033   1.746   2.175  0.4798  0.0327  0.4172
 8043TIP3    H124086   5.997   1.774   2.259 -0.2307  1.8405 -0.4346
 8043TIP3    H224087   5.957   1.712   2.127  0.3188  1.4909 -0.4367
 8044TIP3   OH224088   6.985   6.669   2.422  0.4806  0.2966  0.4296
 8044TIP3    H124089   7.072   6.683   2.383  0.5225 -0.0798  0.3894
 8044TIP3    H224090   6.983   6.576   2.444 -0.2233  0.1220 -0.3352
 8045TIP3   OH224091   4.772   5.051   4.339 -0.3655  0.2051  0.1775
 8045TIP3    H124092   4.738   5.140   4.339 -2.8687 -0.6480  0.1203
 8045TIP3    H224093   4.768   5.023   4.247 -0.7567 -0.3362  0.3515
 8046TIP3   OH224094   2.988   3.872   4.885  0.7163 -0.0262  0.2659
 8046TIP3    H124095   2.965   3.933   4.954  1.7949 -0.7223  1.2806
 8046TIP3    H224096   3.059   3.915   4.838 -0.6575  0.8798 -1.0835
 8047TIP3   OH224097   2.955   1.585   4.996  0.1902 -0.3211 -0.5604
 8047TIP3    H124098   2.947   1.681   4.992  1.8369 -0.0730  0.6472
 8047TIP3    H224099   2.893   1.553   4.931  0.2895  1.6071 -1.6995
 8048TIP3   OH224100   6.837   4.852   6.161 -1.0435  0.0890  0.0980
 8048TIP3    H124101   6.778   4.784   6.129  1.4777 -1.4456 -1.5709
 8048TIP3    H224102   6.899   4.866   6.090 -0.0401  2.4667  1.3286
 8049TIP3   OH224103   7.904   0.633   6.283  0.0317 -0.5055 -0.3422
 8049TIP3    H124104   7.971   0.564   6.284  0.2391 -0.3069 -0.3517
 8049TIP3    H224105   7.825   0.589   6.252 -0.1054 -0.9885  0.6196
 8050TIP3   OH224106   6.171   7.648   1.084  0.6338  0.0180 -0.6771
 8050TIP3    H124107   6.154   7.554   1.090 -0.2840  0.2778  1.5503
 8050TIP3    H224108   6.254   7.661   1.131 -0.3589  0.5598  1.0060
 8051TIP3   OH224109   1.436   1.145   0.110  0.1283  0.2324 -0.0989
 8051TIP3    H124110   1.399   1.128   0.196 -1.7451 -0.1730 -0.9198
 8051TIP3    H224111   1.531   1.145   0.123 -0.1048 -0.4071  1.8314
 8052TIP3   OH224112   5.791   4.399   6.753 -0.3069 -0.2097 -0.2729
 8052TIP3    H124113   5.830   4.359   6.676  0.0712  0.4674 -0.4381
 8052TIP3    H224114   5.706   4.431   6.723 -0.1444  0.0860 -0.4158
 8053TIP3   OH224115   2.785   0.189   0.672 -0.2414 -0.3711 -0.6903
 8053TIP3    H124116   2.874   0.184   0.706 -0.8379  1.7325  1.5092
 8053TIP3    H224117   2.729   0.180   0.750 -1.8555  0.5070 -1.6800
 8054TIP3   OH224118   2.538   1.656   1.897  0.4579  0.2058 -0.2503
 8054TIP3    H124119   2.458   1.686   1.853  0.5334  0.6728 -0.0756
 8054TIP3    H224120   2.507   1.606   1.972  0.3171 -1.3084 -1.2805
 8055TIP3   OH224121   6.499   4.125   6.526  0.3116 -0.1883 -0.0520
 8055TIP3    H124122   6.450   4.099   6.604 -0.1617 -1.0446 -0.6224
 8055TIP3    H224123   6.500   4.221   6.530 -2.3390 -0.0556 -0.5356
 8056TIP3   OH224124   4.837   3.159   1.294 -0.5313  0.1614  0.6213
 8056TIP3    H124125   4.912   3.190   1.344  1.4298  1.2201 -2.6867
 8056TIP3    H224126   4.875   3.123   1.213 -3.5563  2.5883 -2.1542
 8057TIP3   OH224127   2.984   2.760   0.452  0.3362  0.0216 -0.7038
 8057TIP3    H124128   2.957   2.852   0.444  0.2801  0.0386 -0.3393
 8057TIP3    H224129   3.074   2.758   0.422  0.2488  0.1483 -0.9742
 8058TIP3   OH224130   4.152   7.414   6.344 -0.3283 -0.1938  0.4896
 8058TIP3    H124131   4.222   7.356   6.373  0.2588  0.4608  0.4273
 8058TIP3    H224132   4.083   7.404   6.409  0.8533  1.0436  2.0021
 8059TIP3   OH224133   0.893   7.384   2.514 -0.4768  0.4500 -0.3482
 8059TIP3    H124134   0.909   7.297   2.550  0.5409  1.1615  1.0251
 8059TIP3    H224135   0.834   7.369   2.440  0.6102 -1.5103 -0.8776
 8060TIP3   OH224136   6.223   6.713   3.704  0.0359  0.0358  0.8888
 8060TIP3    H124137   6.173   6.794   3.696 -0.0701  0.2646  3.2695
 8060TIP3    H224138   6.158   6.648   3.733  0.4489 -0.5123  0.6086
 8061TIP3   OH224139   0.907   2.318   6.289 -0.2404 -0.4030  0.3794
 8061TIP3    H124140   0.985   2.283   6.245 -1.2337 -0.4019 -1.4815
 8061TIP3    H224141   0.835   2.263   6.258 -1.2317  0.7046  0.6453
 8062TIP3   OH224142   1.001   0.792   3.995  0.5865  0.3953  0.1257
 8062TIP3    H124143   1.042   0.727   4.051  0.3851  0.2748  0.1315
 8062TIP3    H224144   0.996   0.750   3.909 -0.1281  0.1641  0.2763
 8063TIP3   OH224145   4.341   0.370   1.794 -0.3069  0.3234  0.3887
 8063TIP3    H124146   4.437   0.375   1.789 -0.2575 -1.0463 -0.9785
 8063TIP3    H224147   4.323   0.287   1.837 -0.8883  0.3958  0.2967
 8064TIP3   OH224148   3.276   2.386   6.518  0.1282 -0.8109  0.8977
 8064TIP3    H124149   3.291   2.308   6.464  3.2553 -0.0920  0.5703
 8064TIP3    H224150   3.287   2.459   6.459  1.5762 -0.0563  2.0251
 8065TIP3   OH224151   4.269   0.594   3.036 -0.1910 -0.0853  0.3031
 8065TIP3    H124152   4.304   0.611   3.123  0.0740 -1.9094  0.5936
 8065TIP3    H224153   4.184   0.553   3.051  0.7570 -2.3778 -0.1840
 8066TIP3   OH224154   8.085   4.506   2.543 -0.5753  0.0827  0.5163
 8066TIP3    H124155   8.002   4.523   2.498 -0.6925 -0.5563  0.4896
 8066TIP3    H224156   8.060   4.469   2.627 -0.3066 -1.0615  0.1091
 8067TIP3   OH224157   2.074   6.792   3.532 -0.3067  0.4813 -0.2815
 8067TIP3    H124158   1.997   6.775   3.477 -2.0321  1.1433  1.7789
 8067TIP3    H224159   2.066   6.884   3.556  1.1453  0.5505 -0.0004
 8068TIP3   OH224160   6.639   0.409   0.419 -0.0857  0.0438  0.2609
 8068TIP3    H124161   6.695   0.357   0.361  0.3180  2.0295 -1.2346
 8068TIP3    H224162   6.570   0.442   0.362 -0.8618  0.3895  1.3752
 8069TIP3   OH224163   1.497   4.555   0.075 -0.3194  0.5373 -0.1794
 8069TIP3    H124164   1.550   4.622   0.120 -1.3639  0.4231  1.3154
 8069TIP3    H224165   1.476   4.492   0.144 -0.9972 -0.2900 -1.1247
 8070TIP3   OH224166   6.668   6.633   4.688  0.1832 -0.4431 -0.0007
 8070TIP3    H124167   6.740   6.628   4.751  1.3548 -0.0824 -1.2728
 8070TIP3    H224168   6.590   6.615   4.741  1.3036 -2.1889  1.1824
 8071TIP3   OH224169   6.224   2.307   6.737  0.3275 -0.2458  0.7416
 8071TIP3    H124170   6.134   2.322   6.765  0.3789  0.1863  0.6716
 8071TIP3    H224171   6.277   2.329   6.813  0.4248  0.2755  0.5221
 8072TIP3   OH224172   0.307   7.308   0.609  0.1047  0.0463  0.0790
 8072TIP3    H124173   0.271   7.319   0.697 -0.6456  0.6012 -0.2764
 8072TIP3    H224174   0.267   7.379   0.558  0.8781  0.0113 -0.6031
 8073TIP3   OH224175   3.731   0.703   3.404  0.2190  0.3128  0.3547
 8073TIP3    H124176   3.639   0.729   3.406  0.6469  1.8500  0.7758
 8073TIP3    H224177   3.763   0.737   3.320  0.3651 -0.3863  0.1217
 8074TIP3   OH224178   6.825   4.741   2.502 -0.5877  0.0203  1.0744
 8074TIP3    H124179   6.736   4.724   2.535 -0.4450 -0.1363  1.3814
 8074TIP3    H224180   6.872   4.659   2.517 -0.0272  0.5055  2.1122
 8075TIP3   OH224181   8.083   3.680   1.124  0.1733  0.0115  0.0937
 8075TIP3    H124182   8.082   3.711   1.215 -0.4305 -2.0936  0.8475
 8075TIP3    H224183   8.069   3.586   1.130 -1.2759 -0.0038 -2.2786
 8076TIP3   OH224184   1.245   3.695   2.894 -0.0739  0.2654  0.1097
 8076TIP3    H124185   1.325   3.717   2.941  0.9627 -1.3697 -0.7620
 8076TIP3    H224186   1.266   3.614   2.847 -1.9906  0.2165 -0.7979
 8077TIP3   OH224187   2.894   6.435   4.093 -0.2887 -0.6271  0.1258
 8077TIP3    H124188   2.811   6.467   4.058 -1.3660 -2.1218  1.1877
 8077TIP3    H224189   2.895   6.342   4.072  1.5970 -0.4626 -0.7164
 8078TIP3   OH224190   5.712   0.614   3.457 -0.1755 -0.3933 -0.5581
 8078TIP3    H124191   5.645   0.570   3.406  1.1859 -0.9238 -1.9818
 8078TIP3    H224192   5.792   0.601   3.407  0.8896  0.7308  0.7743
 8079TIP3   OH224193   2.971   5.549   5.757 -0.0404  0.4118  0.6534
 8079TIP3    H124194   3.049   5.601   5.775  0.5959 -0.8875  1.8454
 8079TIP3    H224195   2.997   5.459   5.777 -1.6770 -0.1218  0.5346
 8080TIP3   OH224196   2.223   6.448   4.969 -0.4719 -0.2880 -0.1621
 8080TIP3    H124197   2.197   6.441   4.877 -3.6956 -0.8616  0.6678
 8080TIP3    H224198   2.197   6.364   5.008 -0.6693  0.5373  1.5876
 8081TIP3   OH224199   1.658   2.558   3.928  0.2174  0.1795 -0.5916
 8081TIP3    H124200   1.599   2.512   3.987 -0.5155 -0.2437 -1.6195
 8081TIP3    H224201   1.689   2.634   3.978  2.0937 -1.7871  1.4600
 8082TIP3   OH224202   6.649   5.050   4.338 -0.2841 -0.3505 -0.1958
 8082TIP3    H124203   6.708   5.091   4.275 -1.0326  0.7507 -0.2089
 8082TIP3    H224204   6.595   4.991   4.286  0.9048 -1.4978 -0.1560
 8083TIP3   OH224205   1.059   5.253   0.566  0.1120 -0.2202  0.1835
 8083TIP3    H124206   1.085   5.345   0.576 -1.1748  0.2068 -0.1777
 8083TIP3    H224207   0.974   5.257   0.523 -0.4940 -1.5464  1.1935
 8084TIP3   OH224208   1.629   6.859   4.884 -0.3553  0.4917  0.1543
 8084TIP3    H124209   1.567   6.928   4.859 -1.3044 -0.9803 -1.8774
 8084TIP3    H224210   1.631   6.863   4.979 -2.8301  1.2690  0.2719
 8085TIP3   OH224211   5.649   7.617   3.120  0.2224  0.1793  0.2493
 8085TIP3    H124212   5.684   7.618   3.209 -1.0811  0.1412  0.7827
 8085TIP3    H224213   5.554   7.619   3.132 -0.0260 -1.5240 -1.0992
 8086TIP3   OH224214   4.590   6.186   4.525  0.0358 -0.6864 -0.4739
 8086TIP3    H124215   4.635   6.185   4.610  0.3172  2.2613 -0.4992
 8086TIP3    H224216   4.661   6.178   4.461 -0.1257 -2.2765 -0.5099
 8087TIP3   OH224217   5.048   2.328   4.882  0.3553  0.2307 -0.2384
 8087TIP3    H124218   4.994   2.255   4.912  2.0878 -0.9020  0.2702
 8087TIP3    H224219   5.087   2.297   4.800  1.4236  0.4206  0.1862
 8088TIP3   OH224220   1.494   3.740   3.077 -0.6198 -0.4367 -0.4832
 8088TIP3    H124221   1.539   3.812   3.032 -1.1809  0.8178  0.8528
 8088TIP3    H224222   1.564   3.681   3.104  0.1409  0.8795  0.5296
 8089TIP3   OH224223   0.006   4.010   1.961 -0.4873  0.3862  0.1351
 8089TIP3    H124224  -0.069   4.066   1.981  0.1408  1.5017 -0.5148
 8089TIP3    H224225   0.081   4.059   1.995  0.0284 -0.3242  0.0267
 8090TIP3   OH224226   0.258   0.132   0.959 -0.3029 -0.0810  0.3485
 8090TIP3    H124227   0.207   0.054   0.934  0.2550 -0.0281 -1.0088
 8090TIP3    H224228   0.290   0.168   0.877  2.8058 -0.6865  1.1499
 8091TIP3   OH224229   7.262   1.536   5.039  0.5790 -0.4581  0.1448
 8091TIP3    H124230   7.177   1.574   5.018  1.0854  0.7961  0.3203
 8091TIP3    H224231   7.313   1.543   4.958  0.8371 -0.2890  0.3181
 8092TIP3   OH224232   8.135   2.794   3.049 -0.5523 -0.1785 -0.2010
 8092TIP3    H124233   8.106   2.877   3.012 -0.0787 -0.2878 -0.8276
 8092TIP3    H224234   8.204   2.818   3.111 -0.2136 -0.1291 -0.5984
 8093TIP3   OH224235   1.199   0.075   1.404 -0.2457 -0.2353 -0.1320
 8093TIP3    H124236   1.282   0.051   1.443 -0.6907 -1.5740  0.0181
 8093TIP3    H224237   1.189   0.015   1.330 -0.9787  0.0568 -0.2785
 8094TIP3   OH224238   4.490   3.160   4.753 -0.6628  0.0760  0.4702
 8094TIP3    H124239   4.450   3.154   4.839 -0.2339  0.3388  0.6890
 8094TIP3    H224240   4.450   3.089   4.703 -0.2527 -0.6410  1.1539
 8095TIP3   OH224241   4.382   5.350   2.158 -0.5769  0.2193 -0.1444
 8095TIP3    H124242   4.465   5.391   2.136  0.3739 -0.9592  1.1035
 8095TIP3    H224243   4.316   5.409   2.122  0.7200  2.4674  0.9683
 8096TIP3   OH224244   3.567   3.659   1.995 -0.5452 -0.2255  0.4123
 8096TIP3    H124245   3.475   3.651   1.970  0.0310  1.9543 -2.9924
 8096TIP3    H224246   3.571   3.740   2.046 -0.6316 -0.9702  1.6461
 8097TIP3   OH224247   7.910   0.018   2.116  0.3784  0.3430 -0.6167
 8097TIP3    H124248   7.833   0.057   2.156  0.8698  0.0407  0.6761
 8097TIP3    H224249   7.933   0.078   2.045 -0.6691  0.7558 -0.6239
 8098TIP3   OH224250   1.133   5.395   6.658  0.0744  0.1789 -0.1858
 8098TIP3    H124251   1.105   5.431   6.742  1.9031 -0.3770  0.7057
 8098TIP3    H224252   1.211   5.345   6.678  0.3078 -0.3392 -2.1706
 8099TIP3   OH224253   1.572   7.155   4.544  0.7669 -0.2535  0.3140
 8099TIP3    H124254   1.555   7.145   4.451  0.9337 -2.3927  0.4714
 8099TIP3    H224255   1.654   7.205   4.548  1.1237 -0.7393 -0.7003
 8100TIP3   OH224256   3.040   7.498   0.232 -0.1028  0.7842 -0.2195
 8100TIP3    H124257   2.978   7.570   0.223 -0.8140  0.0977 -0.9364
 8100TIP3    H224258   2.993   7.421   0.201  1.2376  0.3155 -1.2328
 8101TIP3   OH224259   8.226   2.311   5.905  0.2232  0.3282 -0.0425
 8101TIP3    H124260   8.297   2.247   5.907  1.3398  1.5099 -0.8468
 8101TIP3    H224261   8.146   2.258   5.913  1.1832 -0.9161  2.5343
 8102TIP3   OH224262   0.308   2.098   4.583  0.2457  0.2108  0.1296
 8102TIP3    H124263   0.225   2.066   4.548  0.5954 -1.9733  1.1659
 8102TIP3    H224264   0.374   2.072   4.518  0.7511 -2.8958  1.6987
 8103TIP3   OH224265   4.457   1.331   2.437 -0.0271 -0.3824  0.3141
 8103TIP3    H124266   4.394   1.326   2.365  1.9503 -0.5746 -1.4927
 8103TIP3    H224267   4.482   1.241   2.454 -1.8847 -0.5782  2.6957
 8104TIP3   OH224268   1.846   4.984   2.891  0.0021  0.0919  0.6237
 8104TIP3    H124269   1.764   5.025   2.919 -1.0119 -0.4822 -1.3124
 8104TIP3    H224270   1.906   5.057   2.875 -0.7080  0.6346  0.4005
 8105TIP3   OH224271   4.841   6.835   2.495  0.6499 -1.0391  0.2331
 8105TIP3    H124272   4.829   6.773   2.568 -1.8483 -0.6444  0.2360
 8105TIP3    H224273   4.888   6.909   2.534  0.6902 -1.4807  1.0550
 8106TIP3   OH224274   4.773   6.667   0.662  0.8210 -0.7994 -0.4077
 8106TIP3    H124275   4.802   6.670   0.571  0.1687 -0.9754 -0.6202
 8106TIP3    H224276   4.781   6.575   0.687 -0.4502 -1.0146 -0.7603
 8107TIP3   OH224277   6.672   0.813   0.828  0.3008 -0.6820  0.0196
 8107TIP3    H124278   6.586   0.805   0.869 -0.4068  0.5347 -1.1531
 8107TIP3    H224279   6.708   0.895   0.864  1.1720 -1.3822  0.8127
 8108TIP3   OH224280   0.949   5.048   2.629 -0.0671  0.6313  0.1207
 8108TIP3    H124281   1.039   5.082   2.629 -0.6057  2.3090  2.2633
 8108TIP3    H224282   0.897   5.117   2.670 -2.3966 -0.2507 -1.1224
 8109TIP3   OH224283   4.015   2.519   1.169  0.3644 -0.5666 -0.5691
 8109TIP3    H124284   3.975   2.474   1.243 -0.9669  0.6399 -0.5118
 8109TIP3    H224285   4.098   2.552   1.202 -0.8970  1.3222  0.9291
 8110TIP3   OH224286   1.106   7.119   1.725  0.2357 -0.8646 -0.3282
 8110TIP3    H124287   1.182   7.096   1.671 -0.1085 -1.8975 -0.4087
 8110TIP3    H224288   1.127   7.083   1.812  0.3929 -0.0108 -0.0075
 8111TIP3   OH224289   1.692   1.944   6.705 -0.3179 -0.3868  0.1423
 8111TIP3    H124290   1.627   1.875   6.713 -0.6338 -0.2669 -1.1970
 8111TIP3    H224291   1.716   1.965   6.795 -0.5998 -1.8664  0.5854
 8112TIP3   OH224292   7.325  -0.024   1.827 -0.2871  0.4881 -0.4504
 8112TIP3    H124293   7.233  -0.016   1.853 -0.8094 -0.8916 -1.7064
 8112TIP3    H224294   7.347   0.061   1.790 -0.6487  1.2468  0.9982
 8113TIP3   OH224295   8.109   0.052   6.462  0.1576 -0.1414 -0.3429
 8113TIP3    H124296   8.189   0.066   6.412 -0.7191  1.4670 -1.4064
 8113TIP3    H224297   8.092   0.136   6.505 -0.9992 -0.4238 -0.1975
 8114TIP3   OH224298   5.078   5.347   6.535  0.0846  0.1771  0.0659
 8114TIP3    H124299   5.128   5.266   6.535 -1.4372 -0.8210  1.5053
 8114TIP3    H224300   5.060   5.364   6.442  1.3788 -0.4884 -0.3221
 8115TIP3   OH224301   5.632   3.358   1.731 -0.3412  0.0906  0.2352
 8115TIP3    H124302   5.653   3.348   1.824  2.3504 -1.6706 -0.4676
 8115TIP3    H224303   5.661   3.446   1.709 -0.0801  0.1670  0.8546
 8116TIP3   OH224304   5.629   4.106   6.634 -0.1996  0.2552 -0.3757
 8116TIP3    H124305   5.638   4.016   6.604 -1.3712  0.0351 -0.1029
 8116TIP3    H224306   5.682   4.157   6.572  0.6989 -0.6316 -0.3638
 8117TIP3   OH224307   6.002   2.407   0.090 -0.4778 -0.0910 -0.1838
 8117TIP3    H124308   6.050   2.361   0.160 -0.8830 -0.7854 -0.3548
 8117TIP3    H224309   6.063   2.408   0.016 -0.3770 -0.1347 -0.1022
 8118TIP3   OH224310   2.706   0.621   3.434 -0.0005  0.2353  0.8100
 8118TIP3    H124311   2.754   0.657   3.359 -2.1093  0.2495 -0.6119
 8118TIP3    H224312   2.713   0.526   3.423 -1.6613  0.2030 -0.4199
 8119TIP3   OH224313   2.321   4.787   1.979 -0.5417  0.0050 -0.0984
 8119TIP3    H124314   2.264   4.852   1.937 -0.9285 -1.7029 -2.4140
 8119TIP3    H224315   2.343   4.826   2.063 -1.0383  2.9686 -1.2070
 8120TIP3   OH224316   4.703   2.523   2.697  0.0849 -0.3004  0.1173
 8120TIP3    H124317   4.704   2.467   2.620 -1.2306 -0.6567  0.3324
 8120TIP3    H224318   4.636   2.589   2.679 -1.6937 -1.5704  1.7232
 8121TIP3   OH224319   0.926   6.575   6.386 -0.2949  0.7023 -0.3426
 8121TIP3    H124320   0.882   6.654   6.417  0.4517  1.3611 -0.9360
 8121TIP3    H224321   0.987   6.605   6.319 -0.4934 -0.4623 -1.0886
 8122TIP3   OH224322   4.708   2.223   1.251 -0.3687  0.0215 -0.3327
 8122TIP3    H124323   4.650   2.149   1.232 -0.0669 -0.4919  0.6972
 8122TIP3    H224324   4.649   2.295   1.275 -0.6011 -0.8532  1.9838
 8123TIP3   OH224325   6.267   0.329   5.490 -0.5277  0.4117 -0.0710
 8123TIP3    H124326   6.230   0.396   5.548 -0.7404  0.3163 -0.0959
 8123TIP3    H224327   6.356   0.360   5.471 -1.1140  1.4530 -1.2792
 8124TIP3   OH224328   2.502   6.691   4.693 -0.1077  0.5455 -0.1881
 8124TIP3    H124329   2.545   6.608   4.674  0.3932  0.7282  0.1534
 8124TIP3    H224330   2.476   6.685   4.785 -1.8266 -0.0128 -0.6607
 8125TIP3   OH224331   3.268   0.470   4.654 -0.2093  0.7042  0.2649
 8125TIP3    H124332   3.175   0.454   4.669 -0.7014  0.4746 -2.4891
 8125TIP3    H224333   3.270   0.523   4.575  2.0250  0.8733  0.3923
 8126TIP3   OH224334   1.326   1.413   2.970  0.4112  0.1147  0.4506
 8126TIP3    H124335   1.402   1.358   2.953 -0.8726 -1.5534 -0.1700
 8126TIP3    H224336   1.350   1.498   2.933  0.7662 -1.2281 -2.8068
 8127TIP3   OH224337   4.781   7.462   6.042 -0.0346  0.2475  0.3262
 8127TIP3    H124338   4.847   7.438   6.107  0.5090  1.5302  0.2799
 8127TIP3    H224339   4.813   7.544   6.005 -1.4720  0.7056  0.0322
 8128TIP3   OH224340   3.708   6.061   5.426 -0.1537  0.4512  0.1210
 8128TIP3    H124341   3.635   6.000   5.437 -1.0829  1.8047  1.9315
 8128TIP3    H224342   3.786   6.009   5.447 -0.5300 -0.9812 -1.7155
 8129TIP3   OH224343   0.593   2.819   2.720  0.3331 -0.1264 -0.3085
 8129TIP3    H124344   0.682   2.852   2.703  0.2924 -0.8691 -2.0946
 8129TIP3    H224345   0.584   2.743   2.664 -0.9406 -0.9559  0.9580
 8130TIP3   OH224346   7.738   4.058   3.499  0.0111 -0.1658 -0.3708
 8130TIP3    H124347   7.804   4.012   3.447 -0.7571 -0.1644 -1.3692
 8130TIP3    H224348   7.781   4.075   3.583  0.6578 -1.7828 -0.3405
 8131TIP3   OH224349   6.230   5.162   3.837  0.1026 -0.1907  0.3497
 8131TIP3    H124350   6.137   5.178   3.854  0.2484 -0.3520  1.3428
 8131TIP3    H224351   6.275   5.234   3.882  0.4603 -0.1101 -0.1355
 8132TIP3   OH224352   6.583   2.914   5.660 -0.5693 -0.4588 -0.1061
 8132TIP3    H124353   6.643   2.946   5.592  0.0205 -0.5019  0.3861
 8132TIP3    H224354   6.595   2.819   5.659  1.7991 -0.2886  2.1573
 8133TIP3   OH224355   8.175   2.310   0.552 -0.4042 -0.2466  0.1843
 8133TIP3    H124356   8.120   2.372   0.503  0.1459 -0.2296 -0.4211
 8133TIP3    H224357   8.227   2.365   0.611 -2.0824 -0.3550  1.8768
 8134TIP3   OH224358   1.346   2.114   2.899  0.2435  0.1429 -0.0802
 8134TIP3    H124359   1.352   2.201   2.859 -1.1263  0.1881 -0.2379
 8134TIP3    H224360   1.407   2.060   2.848  1.1398  1.0013  0.0455
 8135TIP3   OH224361   3.626   3.940   2.031 -0.1654  0.1646  0.2481
 8135TIP3    H124362   3.581   4.015   2.071  0.4120  0.2267  0.7993
 8135TIP3    H224363   3.590   3.935   1.943  0.0050  1.2864  0.0978
 8136TIP3   OH224364   1.831   2.706   0.718  0.1685  0.3014  0.1669
 8136TIP3    H124365   1.834   2.795   0.683  0.6975  0.8398  1.5150
 8136TIP3    H224366   1.921   2.674   0.713  0.2762  0.4214  1.0618
 8137TIP3   OH224367   0.869   7.383   5.481  0.1756  0.2153 -0.0446
 8137TIP3    H124368   0.841   7.432   5.559  0.3448  0.5283 -0.1832
 8137TIP3    H224369   0.790   7.378   5.427  1.0772  4.1118 -2.0854
 8138TIP3   OH224370   2.673   4.563   0.919 -0.8334 -0.3207  0.1738
 8138TIP3    H124371   2.695   4.615   0.841 -0.7057 -0.4678  0.1123
 8138TIP3    H224372   2.593   4.604   0.953 -1.0822 -0.4659 -0.2290
 8139TIP3   OH224373   3.151   4.463   6.627  0.5060 -0.2993 -0.1618
 8139TIP3    H124374   3.209   4.477   6.702 -0.9830  0.4816  0.9052
 8139TIP3    H224375   3.133   4.552   6.594 -1.6685 -0.3064  0.8294
 8140TIP3   OH224376   5.789   6.747   6.178  0.3291 -0.1435 -0.3215
 8140TIP3    H124377   5.849   6.703   6.118 -0.6071 -1.2165 -0.5044
 8140TIP3    H224378   5.703   6.740   6.136  0.1260  1.8784 -0.3478
 8141TIP3   OH224379   5.612   4.671   4.401  0.8141  0.4361 -0.4602
 8141TIP3    H124380   5.657   4.752   4.377 -1.0144  1.1689 -1.5742
 8141TIP3    H224381   5.547   4.658   4.333 -0.2425 -0.9333  0.7351
 8142TIP3   OH224382   7.075   4.553   3.246  0.3117  0.1452  0.3236
 8142TIP3    H124383   6.997   4.556   3.190  1.8148 -0.3700 -1.9588
 8142TIP3    H224384   7.147   4.542   3.184  2.4047  2.4872  2.1712
 8143TIP3   OH224385   3.555   0.029   6.623 -0.1611 -0.1442  0.2931
 8143TIP3    H124386   3.524   0.080   6.698  0.5378 -0.4537  0.8082
 8143TIP3    H224387   3.616  -0.034   6.661  2.0615  1.2204 -0.7713
 8144TIP3   OH224388   5.019   5.568   2.962 -0.1848  0.6672 -0.6089
 8144TIP3    H124389   5.062   5.485   2.942  1.9609  1.5624 -0.0034
 8144TIP3    H224390   4.983   5.555   3.050  1.7228  0.9021  0.2562
 8145TIP3   OH224391   4.813   3.400   5.295 -0.0342 -0.1384 -0.7460
 8145TIP3    H124392   4.833   3.309   5.273 -0.2371 -0.0670 -1.2384
 8145TIP3    H224393   4.768   3.395   5.379  0.3400 -0.4591 -0.5653
 8146TIP3   OH224394   6.515   3.401   2.756 -0.0539 -0.0083 -0.6433
 8146TIP3    H124395   6.426   3.430   2.734 -0.3170 -0.0905  0.3048
 8146TIP3    H224396   6.517   3.308   2.730 -0.4570 -0.1833 -0.0567
 8147TIP3   OH224397   0.550   1.841   3.938 -0.2031  0.0654 -0.4097
 8147TIP3    H124398   0.623   1.799   3.983 -0.4873  1.9030  1.9328
 8147TIP3    H224399   0.481   1.846   4.003 -1.3643  1.0689 -1.6590
 8148TIP3   OH224400   7.253   5.536   0.843 -0.0770  0.5435 -0.0646
 8148TIP3    H124401   7.313   5.568   0.776  0.9595  2.8714  1.8516
 8148TIP3    H224402   7.307   5.526   0.921 -1.2697 -1.9824  0.5407
 8149TIP3   OH224403   7.477   7.689   0.746 -0.7997 -0.7431 -0.3300
 8149TIP3    H124404   7.471   7.633   0.669  0.1636 -0.2681 -0.7564
 8149TIP3    H224405   7.411   7.757   0.732 -0.2094 -0.3161 -1.0112
 8150TIP3   OH224406   2.727   1.716   1.264  0.3981 -0.0468  0.2119
 8150TIP3    H124407   2.725   1.689   1.356  1.9091  0.0365  0.2978
 8150TIP3    H224408   2.740   1.634   1.216  1.2167  0.0850  0.1986
 8151TIP3   OH224409   4.773   5.241   6.487  0.1139 -0.2869  0.1603
 8151TIP3    H124410   4.859   5.209   6.514 -0.0599  0.5228  1.7924
 8151TIP3    H224411   4.735   5.170   6.436  2.3076 -0.1196 -1.8564
 8152TIP3   OH224412   3.926   0.550   3.013 -0.4523 -0.1704 -0.5562
 8152TIP3    H124413   3.889   0.467   2.983  0.6744 -0.7810 -0.2928
 8152TIP3    H224414   3.957   0.532   3.101  2.4122 -0.3293 -1.5090
 8153TIP3   OH224415   5.299   4.374   3.500 -0.0120 -0.5581  0.3841
 8153TIP3    H124416   5.332   4.440   3.440  1.1938 -0.4227  1.1565
 8153TIP3    H224417   5.233   4.326   3.450  0.4226  0.0342 -0.7827
 8154TIP3   OH224418   3.260   5.762   0.400  0.3119 -0.1537  0.2022
 8154TIP3    H124419   3.288   5.799   0.316 -0.7685  0.5478  0.1315
 8154TIP3    H224420   3.252   5.838   0.458 -1.4125 -0.2931  0.2034
 8155TIP3   OH224421   2.118   4.622   6.568 -0.1163 -0.1350 -0.2579
 8155TIP3    H124422   2.060   4.639   6.642  0.1743  1.2027 -0.2989
 8155TIP3    H224423   2.198   4.588   6.608 -0.4034 -0.6104 -0.0780
 8156TIP3   OH224424   6.254   7.590   4.203  0.1557 -0.5473 -0.9917
 8156TIP3    H124425   6.165   7.591   4.168  0.8550 -0.3486 -2.8967
 8156TIP3    H224426   6.295   7.669   4.169  0.6911  0.0881  0.9901
 8157TIP3   OH224427   5.285   5.958   2.086 -0.4497 -0.8206  0.0081
 8157TIP3    H124428   5.289   5.965   1.990 -2.8493 -1.2555 -0.1860
 8157TIP3    H224429   5.334   5.879   2.107  0.9485 -0.1911 -0.7307
 8158TIP3   OH224430   0.613   5.235   1.961  0.1307 -0.0145  0.4956
 8158TIP3    H124431   0.649   5.148   1.947 -0.3522  0.0100 -1.0053
 8158TIP3    H224432   0.686   5.294   1.940  0.1668 -0.0340  0.5655
 8159TIP3   OH224433   6.605   6.537   1.329 -0.0173 -0.1277 -0.0913
 8159TIP3    H124434   6.588   6.610   1.388  0.5667  0.7537 -0.9819
 8159TIP3    H224435   6.629   6.464   1.386 -2.0560 -0.0892  0.9116
 8160TIP3   OH224436   6.117   2.866   3.550  0.1655  0.1797 -0.4590
 8160TIP3    H124437   6.075   2.909   3.625 -0.6006 -1.8442  0.3473
 8160TIP3    H224438   6.203   2.908   3.543 -0.0346  0.9122  1.0900
 8161TIP3   OH224439   1.587   1.460   1.722  0.4404  0.2908  0.0003
 8161TIP3    H124440   1.672   1.415   1.720  0.9584  1.0712  1.7398
 8161TIP3    H224441   1.529   1.399   1.768  0.8382  0.8610  1.3203
 8162TIP3   OH224442   0.012   6.414   1.962 -0.9361  0.2042 -0.3960
 8162TIP3    H124443   0.076   6.425   1.892 -1.0495 -1.6021 -0.8347
 8162TIP3    H224444  -0.001   6.502   1.997  1.3321  0.7055 -0.6905
 8163TIP3   OH224445   7.546   6.520   3.442 -0.0925  0.2197  0.2107
 8163TIP3    H124446   7.572   6.474   3.522 -2.1204 -0.3002  0.6511
 8163TIP3    H224447   7.452   6.537   3.454 -0.1171  1.4876 -1.4146
 8164TIP3   OH224448   2.821   0.677   5.677  0.3722 -0.5578  0.0098
 8164TIP3    H124449   2.745   0.732   5.658  1.3109  0.6822 -0.3152
 8164TIP3    H224450   2.845   0.638   5.592  0.7258 -0.1022 -0.1038
 8165TIP3   OH224451   0.276   4.494   0.905  0.7945  0.1820  0.2761
 8165TIP3    H124452   0.301   4.573   0.953 -0.3070 -0.3800  1.8760
 8165TIP3    H224453   0.190   4.515   0.869  1.1516  0.2131 -0.5883
 8166TIP3   OH224454   3.997   5.716   3.742  0.3875  0.6525 -0.0636
 8166TIP3    H124455   4.092   5.712   3.751  0.1656  0.2089  2.9366
 8166TIP3    H224456   3.971   5.794   3.791 -1.0157 -1.3240  2.5810
 8167TIP3   OH224457   5.078   3.792   5.919 -0.2810 -0.6413  0.5404
 8167TIP3    H124458   5.142   3.858   5.945 -0.1504 -0.1854 -0.8706
 8167TIP3    H224459   4.998   3.841   5.903  0.0167 -0.6559 -1.2654
 8168TIP3   OH224460   6.950   3.209   4.287 -0.1032 -0.2391  0.4356
 8168TIP3    H124461   6.887   3.175   4.224 -0.9094  2.8327 -0.6000
 8168TIP3    H224462   6.918   3.179   4.372 -0.3718 -2.4316 -0.3746
 8169TIP3   OH224463   0.614   7.047   4.028 -0.1650  0.3416  0.0563
 8169TIP3    H124464   0.562   6.988   3.973  2.0612 -3.2136  1.4004
 8169TIP3    H224465   0.684   7.077   3.970  0.5293 -1.0736  0.1077
 8170TIP3   OH224466   5.794   2.043   2.018 -0.4373  0.4044 -0.3295
 8170TIP3    H124467   5.702   2.069   2.016 -0.0645  1.8505  0.3357
 8170TIP3    H224468   5.811   2.022   2.110 -0.2726 -0.5436 -0.5674
 8171TIP3   OH224469   8.086   0.971   2.898  0.1141  0.0936 -0.0197
 8171TIP3    H124470   8.100   1.005   2.986  0.8147  2.0947 -0.8573
 8171TIP3    H224471   8.013   1.022   2.864 -0.2978 -0.8161 -0.5414
 8172TIP3   OH224472   2.800   2.569   6.459  0.5308  0.0267  0.6017
 8172TIP3    H124473   2.748   2.510   6.513 -0.2286  0.2479  0.1340
 8172TIP3    H224474   2.743   2.644   6.445  0.5262 -0.2225 -0.8722
 8173TIP3   OH224475   3.867   1.686   2.338  0.2523 -0.4107 -0.2944
 8173TIP3    H124476   3.940   1.684   2.276 -0.2885  0.1234 -0.9524
 8173TIP3    H224477   3.828   1.772   2.326  0.0962 -0.3267  0.7420
 8174TIP3   OH224478   2.138   1.367   4.890 -0.1194 -0.0811 -0.4089
 8174TIP3    H124479   2.195   1.400   4.820 -1.1035  0.4181 -1.0024
 8174TIP3    H224480   2.174   1.280   4.911  1.7122  0.7785  0.2533
 8175TIP3   OH224481   4.371   3.868   0.501  0.0321  0.7569 -0.0587
 8175TIP3    H124482   4.280   3.842   0.513  0.5985 -1.7050 -0.4584
 8175TIP3    H224483   4.398   3.902   0.586 -0.5950 -0.8265  0.8160
 8176TIP3   OH224484   4.415   3.571   6.385  0.3788 -0.4645  0.1815
 8176TIP3    H124485   4.387   3.655   6.422  0.7086 -0.8525  1.3844
 8176TIP3    H224486   4.390   3.506   6.451  0.2850 -1.3005 -0.6488
 8177TIP3   OH224487   5.875   2.652   5.832  0.2483 -0.2679  0.4233
 8177TIP3    H124488   5.873   2.562   5.865 -1.9746 -1.2040 -1.9823
 8177TIP3    H224489   5.945   2.652   5.767  0.3237 -0.1936  0.5028
 8178TIP3   OH224490   5.329   4.870   4.842  0.4550 -0.6799 -0.0397
 8178TIP3    H124491   5.385   4.797   4.866  2.2267  1.1691  1.8825
 8178TIP3    H224492   5.375   4.912   4.769  1.4671  0.5914  1.2653
 8179TIP3   OH224493   7.653   4.497   6.005 -0.0796  0.4342  0.2418
 8179TIP3    H124494   7.605   4.580   6.002  0.4911  0.7830  0.6454
 8179TIP3    H224495   7.716   4.503   5.933 -0.2855  0.1885  0.0358
 8180TIP3   OH224496   5.943   2.850   4.950  0.3847  0.2109 -0.0996
 8180TIP3    H124497   5.950   2.757   4.927 -0.4108  0.4051 -1.2131
 8180TIP3    H224498   5.853   2.860   4.982  0.2653  0.7141 -0.5787
 8181TIP3   OH224499   7.740   0.075   3.756 -0.5618  0.1000  0.2428
 8181TIP3    H124500   7.766  -0.017   3.759 -0.6039  0.1011  2.1091
 8181TIP3    H224501   7.718   0.097   3.847 -1.8494  1.5880 -0.3596
 8182TIP3   OH224502   1.395   5.326   1.862  0.1892 -0.3767  0.4932
 8182TIP3    H124503   1.315   5.347   1.813 -0.6480  2.3003  2.7453
 8182TIP3    H224504   1.461   5.386   1.828  0.4594 -0.6006  0.6126
 8183TIP3   OH224505   5.762   6.860   0.199  0.3757  0.2117  0.1414
 8183TIP3    H124506   5.813   6.808   0.137 -1.5146 -0.6218 -0.8036
 8183TIP3    H224507   5.710   6.920   0.145  0.5204  1.2200  1.0740
 8184TIP3   OH224508   7.928   2.784   6.590  0.2884 -0.0565  0.2666
 8184TIP3    H124509   7.943   2.690   6.600  0.2117 -0.3345 -1.8216
 8184TIP3    H224510   7.843   2.799   6.632 -0.4386 -1.2229 -0.7385
 8185TIP3   OH224511   5.144   7.743   1.382 -0.0370  0.2011 -1.1362
 8185TIP3    H124512   5.110   7.831   1.366 -0.4538  0.5293  1.1312
 8185TIP3    H224513   5.069   7.686   1.365 -0.1749  0.4181 -1.2730
 8186TIP3   OH224514   3.010   4.753   0.721  0.3434 -0.1348 -0.0296
 8186TIP3    H124515   2.962   4.817   0.667  1.2285  1.1444  0.6485
 8186TIP3    H224516   2.958   4.747   0.802  0.9138  0.7172  0.4187
 8187TIP3   OH224517   5.488   5.152   2.903  0.0913  0.7346 -0.6670
 8187TIP3    H124518   5.486   5.213   2.978  0.7691 -0.1265  0.0747
 8187TIP3    H224519   5.398   5.120   2.897 -0.4107  2.1739 -1.4007
 8188TIP3   OH224520   7.703   0.663   5.085 -0.2902 -0.1171  0.1277
 8188TIP3    H124521   7.639   0.732   5.103 -0.0632  0.4724 -1.2069
 8188TIP3    H224522   7.694   0.645   4.992  1.5636  0.0728 -0.1362
 8189TIP3   OH224523   6.198   1.714   0.707 -0.1438  0.1889 -0.1894
 8189TIP3    H124524   6.271   1.699   0.647 -0.1496 -1.2696  0.1251
 8189TIP3    H224525   6.134   1.762   0.655  0.5654  0.4752 -0.8151
 8190TIP3   OH224526   5.944   3.548   1.146  0.5342  0.2754 -0.2125
 8190TIP3    H124527   5.946   3.458   1.179 -0.3872 -0.3508 -1.7629
 8190TIP3    H224528   5.930   3.601   1.224  1.5723 -0.8723  0.8043
 8191TIP3   OH224529   5.492   5.838   3.790  0.4166 -0.2800 -0.2763
 8191TIP3    H124530   5.560   5.906   3.792  1.8480 -1.6701  0.7669
 8191TIP3    H224531   5.491   5.808   3.699  0.6584  0.2701 -0.4643
 8192TIP3   OH224532   5.555   6.892   1.509  0.1558  0.1511 -0.9519
 8192TIP3    H124533   5.511   6.955   1.451 -2.0378  0.3527  0.8066
 8192TIP3    H224534   5.588   6.945   1.581 -1.7286 -0.6588  0.5613
 8193TIP3   OH224535   3.019   5.201   4.966 -0.1327  0.0404  0.0091
 8193TIP3    H124536   2.982   5.222   5.051  0.2607  0.6356  0.0381
 8193TIP3    H224537   3.111   5.182   4.984 -0.4786 -1.9077  0.0144
 8194TIP3   OH224538   2.016   6.360   1.086 -0.1799 -0.5207  0.5518
 8194TIP3    H124539   2.082   6.329   1.148 -0.9155 -1.9839  0.6606
 8194TIP3    H224540   2.016   6.294   1.016  0.3294  0.8567 -0.8119
 8195TIP3   OH224541   2.874   7.266   4.139  0.2598  0.4034 -0.1186
 8195TIP3    H124542   2.930   7.303   4.070  0.1370 -0.3471 -0.6326
 8195TIP3    H224543   2.834   7.342   4.180  2.2695  1.0402  0.8186
 8196TIP3   OH224544   5.805   5.467   5.496  0.5852  0.2350 -0.7003
 8196TIP3    H124545   5.852   5.389   5.468  2.3599 -0.1941  2.9114
 8196TIP3    H224546   5.861   5.540   5.467  2.0778 -0.1714  0.9495
 8197TIP3   OH224547   0.434   6.210   4.467  0.0172 -0.0600  0.2288
 8197TIP3    H124548   0.428   6.282   4.530 -1.1354 -0.4758  0.6221
 8197TIP3    H224549   0.448   6.132   4.522  0.2030 -0.2729 -0.1191
 8198TIP3   OH224550   6.214   1.675   3.559 -0.4973  0.0915  0.0344
 8198TIP3    H124551   6.230   1.722   3.641  2.4692  0.8092 -0.8295
 8198TIP3    H224552   6.246   1.734   3.491 -0.9814 -1.3198 -1.4822
 8199TIP3   OH224553   6.910   6.088   0.436 -0.2063 -0.2044 -0.2349
 8199TIP3    H124554   7.006   6.081   0.432 -0.2507 -0.2721 -1.9074
 8199TIP3    H224555   6.880   6.037   0.360 -1.5288  0.5736 -0.2483
 8200TIP3   OH224556   6.784   6.494   3.386  0.5349  0.0403  0.2583
 8200TIP3    H124557   6.876   6.481   3.365  0.6281  0.5065  0.3597
 8200TIP3    H224558   6.783   6.573   3.440  0.0625  0.1080  0.1543
 8201TIP3   OH224559   6.805   2.754   5.418 -0.0195  0.5811  0.2230
 8201TIP3    H124560   6.895   2.761   5.388  0.2135 -0.1475  0.7197
 8201TIP3    H224561   6.763   2.835   5.388  0.4394  0.3279 -1.2125
 8202TIP3   OH224562   3.500   5.118   1.529  0.6087  0.7733 -0.6655
 8202TIP3    H124563   3.477   5.034   1.488  1.4736  0.1069  0.1391
 8202TIP3    H224564   3.462   5.184   1.472 -0.1650 -0.1707 -1.2857
 8203TIP3   OH224565   0.723   1.340   2.282  0.1247  0.8187  0.3920
 8203TIP3    H124566   0.813   1.357   2.255  0.1014 -0.0536 -0.2668
 8203TIP3    H224567   0.698   1.260   2.236 -0.9798  1.0270  0.5919
 8204TIP3   OH224568   1.317   6.533   6.350  0.1116 -0.4000  0.0441
 8204TIP3    H124569   1.334   6.580   6.432  0.8028 -0.1400 -0.2417
 8204TIP3    H224570   1.243   6.579   6.311  0.3960  0.0764  0.0616
 8205TIP3   OH224571   3.403   4.161   5.156 -0.1276  0.2978 -0.0449
 8205TIP3    H124572   3.416   4.112   5.237  0.5543  1.0505  0.3171
 8205TIP3    H224573   3.491   4.175   5.122 -0.4469 -2.4634 -2.4735
 8206TIP3   OH224574   2.765   1.695   2.106  0.2962 -0.4884  0.1752
 8206TIP3    H124575   2.700   1.765   2.111 -0.2597 -1.1092  3.0255
 8206TIP3    H224576   2.723   1.626   2.056  0.2631  0.5393 -1.2930
 8207TIP3   OH224577   4.078   0.454   0.935 -0.3730  0.0120  0.7746
 8207TIP3    H124578   4.057   0.430   0.845  1.8969  0.3029  0.0906
 8207TIP3    H224579   4.066   0.374   0.985 -1.3778 -0.2303  0.1658
 8208TIP3   OH224580   1.934   4.099   5.684 -0.7195 -0.2028 -0.7742
 8208TIP3    H124581   1.950   4.108   5.590 -0.2375 -0.3441 -0.7117
 8208TIP3    H224582   1.857   4.043   5.690 -0.0398 -1.2175 -1.0824
 8209TIP3   OH224583   3.216   6.751   4.348  0.7435  0.5312  0.7727
 8209TIP3    H124584   3.261   6.800   4.279  2.1266 -1.3100  0.3033
 8209TIP3    H224585   3.158   6.691   4.301  0.3701  0.4851  1.2846
 8210TIP3   OH224586   5.484   1.178   2.190 -0.4667  0.2859  0.0855
 8210TIP3    H124587   5.545   1.247   2.164 -0.8919  0.8378  0.5306
 8210TIP3    H224588   5.430   1.162   2.112 -0.6379  0.7490  0.1079
 8211TIP3   OH224589   7.123   6.551   1.786  0.4500  0.5431 -0.4349
 8211TIP3    H124590   7.078   6.631   1.759  1.0427  0.7024 -0.9850
 8211TIP3    H224591   7.207   6.554   1.740  0.4468 -0.4405 -0.5390
 8212TIP3   OH224592   7.111   5.472   6.749  0.3197 -0.6425 -0.1688
 8212TIP3    H124593   7.124   5.487   6.842  0.5946 -0.9889 -0.1459
 8212TIP3    H224594   7.133   5.555   6.708  0.6403 -0.6189  0.0426
 8213TIP3   OH224595   3.159   5.771   4.176  0.3469 -0.3336 -0.2400
 8213TIP3    H124596   3.081   5.822   4.154 -0.0566 -0.6618  0.3910
 8213TIP3    H224597   3.215   5.778   4.099  0.5988  1.5997  0.0710
 8214TIP3   OH224598   6.960   7.146   1.332  0.5699  0.2000 -0.1297
 8214TIP3    H124599   6.937   7.060   1.296 -1.5914  0.9989 -0.8513
 8214TIP3    H224600   6.944   7.138   1.426 -0.1817 -0.0473 -0.2700
 8215TIP3   OH224601   1.237   3.182   1.726 -0.0785 -0.0531  0.2681
 8215TIP3    H124602   1.217   3.236   1.651 -0.5578 -0.7165 -0.0899
 8215TIP3    H224603   1.332   3.193   1.739 -0.1781  0.9063  0.2510
 8216TIP3   OH224604   1.971   4.153   0.632  0.0103  0.2147 -0.0641
 8216TIP3    H124605   1.917   4.081   0.598 -1.8810  1.2893  0.5438
 8216TIP3    H224606   1.988   4.208   0.555 -0.2354  0.1445 -0.1717
 8217TIP3   OH224607   6.060   7.748   2.166  0.0547 -0.0096  0.1001
 8217TIP3    H124608   5.997   7.736   2.237 -0.7212  0.1334 -0.5373
 8217TIP3    H224609   6.068   7.843   2.156  0.7250 -0.0270  0.4801
 8218TIP3   OH224610   2.988   5.673   0.444  0.4729 -0.0623 -0.4085
 8218TIP3    H124611   3.069   5.695   0.399  1.0947  2.8043  1.7776
 8218TIP3    H224612   2.919   5.707   0.388  1.1153  1.5685 -0.2851
 8219TIP3   OH224613   1.387   7.792   2.620  0.4091 -0.2860  0.2312
 8219TIP3    H124614   1.437   7.778   2.700  0.2726 -0.4929  0.2819
 8219TIP3    H224615   1.362   7.884   2.622  1.5581  0.0542 -0.2389
 8220TIP3   OH224616   1.647   2.305   0.673 -0.1527  0.0890 -0.1026
 8220TIP3    H124617   1.591   2.247   0.723 -0.7336  1.3976  0.8262
 8220TIP3    H224618   1.711   2.337   0.736 -0.1085  0.7678 -0.4785
 8221TIP3   OH224619   6.712   4.427   6.713 -0.1405  0.2738 -0.2264
 8221TIP3    H124620   6.807   4.440   6.717  0.1586 -1.6037 -0.5330
 8221TIP3    H224621   6.686   4.416   6.805 -0.1963  1.5153 -0.0788
 8222TIP3   OH224622   2.999   0.545   6.133  0.0038 -0.6129  0.2743
 8222TIP3    H124623   2.920   0.585   6.096  0.0831 -0.2092  0.5410
 8222TIP3    H224624   2.989   0.452   6.115 -0.0297 -0.4455 -0.6360
 8223TIP3   OH224625   5.018   5.214   4.579 -0.6492 -0.5334  0.3761
 8223TIP3    H124626   5.042   5.123   4.595 -1.5063 -0.7746  0.3383
 8223TIP3    H224627   4.982   5.214   4.490  1.2238  0.2254 -0.4324
 8224TIP3   OH224628   8.267   6.347   2.666 -0.0149 -0.0644  0.5612
 8224TIP3    H124629   8.225   6.348   2.580  0.6840  0.4731  0.2130
 8224TIP3    H224630   8.282   6.440   2.686  0.0185 -0.1968  1.1675
 8225TIP3   OH224631   0.221   6.918   5.194 -0.2152  0.2459  0.6922
 8225TIP3    H124632   0.301   6.969   5.211  1.0164 -0.7824 -1.5781
 8225TIP3    H224633   0.158   6.982   5.161  1.0847  0.5213 -1.4512
 8226TIP3   OH224634   4.346   2.355   2.210  0.2067  0.3845 -0.1284
 8226TIP3    H124635   4.348   2.259   2.205 -0.6894  0.3959 -0.9444
 8226TIP3    H224636   4.331   2.383   2.120 -1.4473  1.2156  0.3732
 8227TIP3   OH224637   0.255   5.778   0.588  0.0285 -0.2347 -0.0159
 8227TIP3    H124638   0.274   5.869   0.567 -0.7740 -0.1552 -0.4468
 8227TIP3    H224639   0.201   5.748   0.514 -2.6723 -0.0484  1.7414
 8228TIP3   OH224640   5.049   0.170   4.419 -0.3377  0.5062 -0.0895
 8228TIP3    H124641   5.105   0.178   4.496 -1.8093  0.1735  1.0500
 8228TIP3    H224642   5.055   0.255   4.375 -1.0104  1.3983  1.4785
 8229TIP3   OH224643   7.883   4.944   1.794  0.5076  0.0461  0.6395
 8229TIP3    H124644   7.795   4.927   1.760 -0.2018  0.6567  2.0850
 8229TIP3    H224645   7.922   5.004   1.731  0.5754 -1.6081 -0.9700
 8230TIP3   OH224646   1.258   5.662   0.352 -0.0544 -0.1483 -0.5059
 8230TIP3    H124647   1.186   5.707   0.398  0.4368  1.2227 -1.0432
 8230TIP3    H224648   1.213   5.598   0.296 -0.9000  0.8989 -1.0704
 8231TIP3   OH224649   6.420   5.573   3.202  0.1512 -0.0923  0.2350
 8231TIP3    H124650   6.423   5.610   3.113 -1.0694  0.0798  0.2601
 8231TIP3    H224651   6.494   5.512   3.204  1.5921  1.5417 -0.1581
 8232TIP3   OH224652   1.775   1.463   2.709  0.0875 -0.4577 -0.2544
 8232TIP3    H124653   1.851   1.515   2.683  0.3739 -1.2479 -1.0039
 8232TIP3    H224654   1.700   1.511   2.674  0.2153  0.3498  0.5306
 8233TIP3   OH224655   5.378   4.107   0.497  0.7020 -0.4899 -0.5042
 8233TIP3    H124656   5.391   4.128   0.590  0.5703 -0.9546 -0.3799
 8233TIP3    H224657   5.283   4.096   0.488  0.7444 -0.7470 -0.6315
 8234TIP3   OH224658   2.936   5.077   1.405  0.5476 -0.3938 -0.1153
 8234TIP3    H124659   3.003   5.140   1.377 -0.2991 -0.3190 -2.1392
 8234TIP3    H224660   2.853   5.119   1.385 -0.1261 -0.9129  1.4099
 8235TIP3   OH224661   2.078   7.041   5.035 -0.1595 -0.3140  0.5609
 8235TIP3    H124662   2.018   7.111   5.059 -0.1783 -0.6282  1.4771
 8235TIP3    H224663   2.139   7.081   4.973 -0.1193  0.5238  1.1318
 8236TIP3   OH224664   8.049   6.913   2.941  0.0801 -0.3683  0.1074
 8236TIP3    H124665   8.067   6.867   3.023 -0.0953 -0.9661 -0.1857
 8236TIP3    H224666   8.135   6.935   2.906  0.1897  2.3756  1.8052
 8237TIP3   OH224667   5.257   6.086   2.346  0.4508  0.1106  0.0297
 8237TIP3    H124668   5.298   6.073   2.260  0.5824  0.4215  0.0439
 8237TIP3    H224669   5.206   6.007   2.360 -2.3462  1.3726 -1.9041
 8238TIP3   OH224670   2.600   0.855   5.614  0.1647 -0.4239 -0.3980
 8238TIP3    H124671   2.510   0.880   5.635  0.0903 -1.5854  0.7331
 8238TIP3    H224672   2.596   0.822   5.525 -0.4505 -0.0976 -0.4951
 8239TIP3   OH224673   6.507   2.007   4.633 -0.1625  0.2959 -0.1753
 8239TIP3    H124674   6.586   2.058   4.649 -1.4453  1.8468  1.7863
 8239TIP3    H224675   6.448   2.068   4.588 -0.2468 -0.8885 -1.7679
 8240TIP3   OH224676   0.150   5.259   6.442 -0.1713 -0.1868  0.2596
 8240TIP3    H124677   0.138   5.293   6.531  0.5120 -0.2212  0.3712
 8240TIP3    H224678   0.072   5.287   6.395  0.1224  1.1096  0.4921
 8241TIP3   OH224679   6.388   2.604   0.794 -0.1398 -0.1327 -0.1253
 8241TIP3    H124680   6.337   2.675   0.755  0.7773 -0.1694 -1.4811
 8241TIP3    H224681   6.414   2.549   0.720 -0.8661 -1.9461  0.8899
 8242TIP3   OH224682   6.727   1.414   3.473  0.0190 -0.2271  0.1225
 8242TIP3    H124683   6.789   1.427   3.402  0.8288 -2.6257  0.3063
 8242TIP3    H224684   6.646   1.386   3.430  0.6475 -2.1509  0.0743
 8243TIP3   OH224685   8.213   5.882   0.907 -0.2142 -0.0199  0.1613
 8243TIP3    H124686   8.289   5.927   0.943  0.8441 -1.7157  0.1892
 8243TIP3    H224687   8.169   5.845   0.983  0.9249 -1.9493 -0.0467
 8244TIP3   OH224688   0.600   3.720   2.981 -0.0726 -0.6233  0.4177
 8244TIP3    H124689   0.529   3.735   2.919  0.3315  0.2108  0.1375
 8244TIP3    H224690   0.584   3.633   3.016 -2.1854  0.1589  1.5945
 8245TIP3   OH224691   5.864   2.401   3.727  0.0672 -0.2590  0.8770
 8245TIP3    H124692   5.926   2.329   3.714 -0.2163 -0.6269  1.5423
 8245TIP3    H224693   5.787   2.376   3.676  0.3170  0.0184  0.3574
 8246TIP3   OH224694   7.257   0.199   3.425  0.3518 -0.4407  0.1442
 8246TIP3    H124695   7.338   0.213   3.376 -0.0427  3.1989  0.3154
 8246TIP3    H224696   7.285   0.176   3.514  1.1970  0.5197  0.1293
 8247TIP3   OH224697   3.458   6.329   1.680 -0.5855 -0.1751 -0.3014
 8247TIP3    H124698   3.551   6.324   1.704 -0.5655 -3.2380 -0.6739
 8247TIP3    H224699   3.413   6.280   1.748 -1.8851  0.7454 -0.4714
 8248TIP3   OH224700   7.875   3.729   1.792 -0.1431  0.5601  0.0075
 8248TIP3    H124701   7.906   3.649   1.835  0.6716 -0.2724 -1.9967
 8248TIP3    H224702   7.903   3.800   1.850  0.2754 -0.5240  1.1804
 8249TIP3   OH224703   6.342   0.541   0.628 -0.0443  0.1028 -0.2032
 8249TIP3    H124704   6.426   0.494   0.631  0.1976  0.5717  0.2955
 8249TIP3    H224705   6.363   0.631   0.651 -0.8856 -0.0416  1.2438
 8250TIP3   OH224706   6.857   2.425   4.598 -0.1427 -0.4950  0.3411
 8250TIP3    H124707   6.877   2.499   4.656  0.8329 -1.4166  1.2375
 8250TIP3    H224708   6.873   2.458   4.510  1.4489  0.0308  0.7966
 8251TIP3   OH224709   5.389   1.422   0.704  0.3874 -0.9803  0.2188
 8251TIP3    H124710   5.325   1.444   0.771  0.6090 -0.9116  0.4091
 8251TIP3    H224711   5.338   1.378   0.636 -0.2845  1.0375 -0.6855
 8252TIP3   OH224712   3.589   6.494   5.107 -0.1280  0.7742  0.1565
 8252TIP3    H124713   3.576   6.497   5.012  0.6840 -0.0682  0.0055
 8252TIP3    H224714   3.564   6.405   5.132  1.5982  0.3447  0.4171
 8253TIP3   OH224715   1.161   0.100   4.982  0.2986  0.0359  0.3157
 8253TIP3    H124716   1.082   0.126   4.935  0.4249  0.7685  0.5081
 8253TIP3    H224717   1.175   0.169   5.046  1.6689  0.4462 -0.3908
 8254TIP3   OH224718   5.593   1.596   1.453  0.0253  0.5307  0.2125
 8254TIP3    H124719   5.603   1.681   1.496  0.2256  0.0540  1.1258
 8254TIP3    H224720   5.645   1.603   1.373  1.6621  0.6023  1.2489
 8255TIP3   OH224721   1.038   2.661   4.962  0.0430  1.0024 -0.0814
 8255TIP3    H124722   0.969   2.693   5.020  0.1494  1.5326 -0.2426
 8255TIP3    H224723   1.032   2.717   4.885 -0.1348  0.2659 -0.6141
 8256TIP3   OH224724   2.406   4.233   0.995 -0.6262 -0.1499 -0.5961
 8256TIP3    H124725   2.356   4.152   0.984 -0.5510  0.0308 -2.6062
 8256TIP3    H224726   2.487   4.218   0.945  0.1315  0.5765  0.3764
 8257TIP3   OH224727   6.756   0.515   1.450  0.2109 -0.3101 -0.0124
 8257TIP3    H124728   6.764   0.423   1.476  2.9907  0.1648  1.1819
 8257TIP3    H224729   6.835   0.533   1.400 -0.7214  1.2541 -1.0213
 8258TIP3   OH224730   2.332   1.698   1.701 -0.0119  0.4037  0.6823
 8258TIP3    H124731   2.244   1.698   1.738  0.4425 -0.4780  1.8297
 8258TIP3    H224732   2.320   1.672   1.610 -0.9760  0.7004  0.7176
 8259TIP3   OH224733   4.951   2.625   2.872  0.1681 -0.8069 -0.1465
 8259TIP3    H124734   4.919   2.610   2.783  0.5011 -1.4028 -0.1702
 8259TIP3    H224735   4.877   2.667   2.917 -0.2848 -1.2337 -0.4821
 8260TIP3   OH224736   2.660   1.489   1.691  0.3340  0.1360 -0.2666
 8260TIP3    H124737   2.645   1.563   1.750  0.8220 -0.0634  0.1141
 8260TIP3    H224738   2.755   1.486   1.680  0.2894 -0.1965 -0.5935
 8261TIP3   OH224739   3.403   5.130   3.999 -0.8394 -0.6386 -0.0301
 8261TIP3    H124740   3.329   5.081   3.961 -1.6298 -0.1791  0.8664
 8261TIP3    H224741   3.373   5.153   4.087  1.1850 -2.2206  1.1509
 8262TIP3   OH224742   2.143   3.007   5.190 -0.3213  0.2565  0.1246
 8262TIP3    H124743   2.186   2.945   5.249 -0.0082 -1.6882 -2.0383
 8262TIP3    H224744   2.103   3.071   5.249  0.8303 -0.9857  2.3996
 8263TIP3   OH224745   5.974   0.674   5.451  0.1779  0.0687  0.2823
 8263TIP3    H124746   5.885   0.661   5.481 -0.3805 -0.5739 -1.5308
 8263TIP3    H224747   5.992   0.767   5.468 -0.5962  0.0554  1.2189
 8264TIP3   OH224748   6.241   3.126   2.638  0.0193 -0.6538  0.7383
 8264TIP3    H124749   6.323   3.113   2.592  0.2682 -4.2842  1.8845
 8264TIP3    H224750   6.176   3.081   2.584 -0.8733  0.4561  0.8521
 8265TIP3   OH224751   5.916   3.284   6.057  0.4388 -0.7254  0.1054
 8265TIP3    H124752   5.953   3.226   6.124  1.5412 -2.6872 -2.0736
 8265TIP3    H224753   5.880   3.225   5.991 -2.4810  1.1389 -0.1426
 8266TIP3   OH224754   0.646   2.523   2.441  0.7548 -0.0496  0.4167
 8266TIP3    H124755   0.570   2.547   2.494  1.7065 -0.4229  2.0207
 8266TIP3    H224756   0.652   2.593   2.375 -0.7121  0.2059  0.5107
 8267TIP3   OH224757   4.006   5.118   2.610 -0.3965 -0.1303  0.2962
 8267TIP3    H124758   3.960   5.132   2.692 -0.3991 -0.6447  0.3822
 8267TIP3    H224759   3.984   5.195   2.557 -2.1323 -0.8107 -0.0332
 8268TIP3   OH224760   5.681   3.654   4.808  0.0988  0.4957 -0.6051
 8268TIP3    H124761   5.728   3.667   4.890 -0.1757  3.9865 -0.8395
 8268TIP3    H224762   5.588   3.657   4.833  0.0122  0.5343 -0.9217
 8269TIP3   OH224763   4.053   3.188   5.785 -0.3122  0.0231  0.4125
 8269TIP3    H124764   4.147   3.198   5.798  0.1230 -2.2719 -0.3628
 8269TIP3    H224765   4.023   3.140   5.863 -0.7020  0.1598  0.3495
 8270TIP3   OH224766   0.923   0.935   1.497  0.6592 -0.4581  0.3037
 8270TIP3    H124767   0.970   0.866   1.449  1.0859  1.4988 -2.3275
 8270TIP3    H224768   0.993   0.990   1.532  0.4000  0.6872 -0.8908
 8271TIP3   OH224769   1.333   2.325   3.709 -0.1480  0.0262 -0.3844
 8271TIP3    H124770   1.260   2.284   3.663 -0.1451 -0.6959  0.2289
 8271TIP3    H224771   1.408   2.268   3.690  0.4441  1.1860 -1.6514
 8272TIP3   OH224772   3.114   5.805   6.642 -0.0473 -0.0474  0.1588
 8272TIP3    H124773   3.105   5.723   6.690 -0.0182  0.4121  0.9723
 8272TIP3    H224774   3.196   5.796   6.594  0.2073 -0.2994  0.6330
 8273TIP3   OH224775   4.688   0.109   6.140 -0.5857 -0.2552  0.5380
 8273TIP3    H124776   4.719   0.044   6.203 -1.6009 -0.3793  0.9280
 8273TIP3    H224777   4.692   0.066   6.055 -0.1410 -0.4144  0.6350
 8274TIP3   OH224778   1.957   5.471   3.201 -0.1373  0.0190  0.0207
 8274TIP3    H124779   1.993   5.442   3.285 -2.0869 -2.6107  0.0916
 8274TIP3    H224780   2.027   5.454   3.138  0.5366 -0.1735  0.8030
 8275TIP3   OH224781   5.097   0.827   0.786 -0.0323 -0.0950 -0.0564
 8275TIP3    H124782   5.119   0.792   0.873 -1.2118 -0.0818  0.2561
 8275TIP3    H224783   5.166   0.793   0.729  0.7286 -0.1471  0.8712
 8276TIP3   OH224784   2.500   1.530   2.731  0.2382  0.2634 -0.2965
 8276TIP3    H124785   2.595   1.529   2.744  0.5032 -0.6531 -1.9971
 8276TIP3    H224786   2.487   1.579   2.650 -0.4476 -1.9175 -1.6113
 8277TIP3   OH224787   2.036   3.053   6.711  0.2822  0.1282  0.7440
 8277TIP3    H124788   2.023   3.032   6.618  1.5340  2.4016 -0.0310
 8277TIP3    H224789   1.948   3.045   6.750 -0.2372 -1.0006 -0.5798
 8278TIP3   OH224790   2.836   4.458   1.840  0.0200  0.0457 -0.1914
 8278TIP3    H124791   2.929   4.436   1.827 -0.1426 -0.3071 -0.7643
 8278TIP3    H224792   2.822   4.534   1.783  0.3281  1.0682  1.0322
 8279TIP3   OH224793   3.240   5.508   5.362 -0.5942  0.1136  0.2861
 8279TIP3    H124794   3.277   5.517   5.274 -1.7809  0.7818 -0.1675
 8279TIP3    H224795   3.258   5.592   5.404 -3.3531  1.2955 -0.6724
 8280TIP3   OH224796   1.228   7.592   5.430  0.4794 -0.0209  0.0379
 8280TIP3    H124797   1.250   7.620   5.519  0.5367 -1.1007  0.3800
 8280TIP3    H224798   1.164   7.522   5.442  0.8191 -0.4828 -0.7498
 8281TIP3   OH224799   1.009   6.996   3.954  0.5857  0.3040 -0.5600
 8281TIP3    H124800   0.968   6.930   3.897 -0.6299  1.7277 -1.4054
 8281TIP3    H224801   1.098   7.003   3.922  0.6404 -0.6816 -0.6702
 8282TIP3   OH224802   7.787   6.362   3.504  0.5992  0.4580 -0.5180
 8282TIP3    H124803   7.868   6.314   3.519 -0.2857 -0.8402  0.2750
 8282TIP3    H224804   7.752   6.325   3.422  0.7223  0.9047 -0.7751
 8283TIP3   OH224805   4.937   7.419   6.240 -0.2169  0.3251 -0.1367
 8283TIP3    H124806   4.906   7.329   6.252 -0.5298  0.2518 -1.3314
 8283TIP3    H224807   5.030   7.415   6.262 -0.0763 -0.4560 -0.8047
 8284TIP3   OH224808   5.227   5.382   4.568 -0.0166 -0.1975 -0.3699
 8284TIP3    H124809   5.173   5.304   4.583 -1.6255  0.8292 -0.6512
 8284TIP3    H224810   5.276   5.362   4.489  1.5169 -1.9087  0.9105
 8285TIP3   OH224811   6.626   0.596   1.883 -0.3212  0.5121  0.5875
 8285TIP3    H124812   6.687   0.569   1.814 -2.6071  0.0163 -1.3851
 8285TIP3    H224813   6.649   0.687   1.900  0.3381  0.6541 -0.8650
 8286TIP3   OH224814   0.686   3.253   3.113 -0.1410 -0.0641 -0.2349
 8286TIP3    H124815   0.745   3.208   3.173  0.2542 -0.2202 -0.7318
 8286TIP3    H224816   0.744   3.309   3.061 -0.3586 -0.5769 -1.0511
 8287TIP3   OH224817   0.506   7.553   3.329 -0.3227  0.1970  0.9096
 8287TIP3    H124818   0.433   7.530   3.387 -0.1141 -0.5009  0.9066
 8287TIP3    H224819   0.471   7.620   3.272 -0.5668  0.8245  1.7747
 8288TIP3   OH224820   2.358   3.754   1.187  0.9966 -0.0251 -0.1664
 8288TIP3    H124821   2.293   3.813   1.148  0.7431 -0.3420 -0.2211
 8288TIP3    H224822   2.350   3.770   1.281  1.0630  0.1663 -0.1912
 8289TIP3   OH224823   3.052   4.906   2.950 -0.0848  0.0781  0.6839
 8289TIP3    H124824   3.056   4.963   3.027  1.9420 -1.6470  1.9804
 8289TIP3    H224825   3.049   4.967   2.875  2.1238  1.9688  1.9764
 8290TIP3   OH224826   2.710   6.516   5.387 -0.3061 -0.3468  0.4418
 8290TIP3    H124827   2.656   6.449   5.429  0.4153 -0.5204  1.1119
 8290TIP3    H224828   2.679   6.518   5.296  0.1765 -2.1338  0.2062
 8291TIP3   OH224829   3.077   2.290   2.120  0.6517 -0.3911  0.4544
 8291TIP3    H124830   3.133   2.321   2.049  0.9803  1.3632  1.4338
 8291TIP3    H224831   2.992   2.274   2.078  0.2732  2.4171 -0.0737
 8292TIP3   OH224832   7.599   1.430   1.003 -0.0558 -0.3115 -0.7125
 8292TIP3    H124833   7.626   1.500   0.944  0.0723 -0.8797 -1.3345
 8292TIP3    H224834   7.516   1.399   0.967  0.0182 -0.6556 -0.5912
 8293TIP3   OH224835   5.695   2.892   4.331 -0.2941 -0.0812 -0.0786
 8293TIP3    H124836   5.705   2.940   4.249 -0.9360 -0.5319 -0.4292
 8293TIP3    H224837   5.681   2.960   4.397 -1.0612  0.2249 -0.5441
 8294TIP3   OH224838   0.786   7.264   0.766 -0.0568  0.2304 -0.0186
 8294TIP3    H124839   0.813   7.348   0.729  1.6520  0.2650  1.1809
 8294TIP3    H224840   0.706   7.284   0.816  0.4352  1.1917  0.4099
 8295TIP3   OH224841   0.088   1.047   2.075  0.0432 -0.0036  0.1139
 8295TIP3    H124842   0.098   1.016   2.165  2.1630  1.0579  0.3242
 8295TIP3    H224843   0.162   1.108   2.062  0.1848 -0.5857 -2.5278
 8296TIP3   OH224844   2.643   0.337   5.475  0.4429  0.6154  0.1915
 8296TIP3    H124845   2.705   0.311   5.543  0.8618  0.6370 -0.1767
 8296TIP3    H224846   2.685   0.410   5.430  0.4740  0.1684 -0.5275
 8297TIP3   OH224847   2.716   4.357   4.257  0.3760 -0.6699  0.2082
 8297TIP3    H124848   2.761   4.363   4.173  1.6222  0.7149  0.9299
 8297TIP3    H224849   2.640   4.301   4.240 -0.1535  0.6320 -2.1640
 8298TIP3   OH224850   1.647   1.290   5.296 -0.2391  0.3050 -0.6098
 8298TIP3    H124851   1.555   1.316   5.298 -0.3101  0.0466 -0.4334
 8298TIP3    H224852   1.692   1.355   5.349 -0.6038 -0.6426  0.9268
 8299TIP3   OH224853   6.990   2.784   3.692 -0.2127 -0.1802  0.3103
 8299TIP3    H124854   7.046   2.825   3.758  1.2188 -1.2476 -0.1988
 8299TIP3    H224855   7.050   2.761   3.621 -1.3458 -1.1790 -0.3528
 8300TIP3   OH224856   7.222   2.442   4.589  0.3626  0.1306  0.5688
 8300TIP3    H124857   7.212   2.350   4.562  0.4262 -0.6941  3.0798
 8300TIP3    H224858   7.305   2.444   4.637 -1.2829  0.5502  3.7023
 8301TIP3   OH224859   0.639   6.582   3.394  0.0743  0.5975  0.4042
 8301TIP3    H124860   0.678   6.601   3.308  1.3804 -0.5770  0.7026
 8301TIP3    H224861   0.607   6.667   3.424  0.2010  1.1571 -0.9415
 8302TIP3   OH224862  -0.012   7.441   1.784 -0.2544  0.1340  0.6608
 8302TIP3    H124863  -0.000   7.376   1.853  0.6475  0.2347  0.6164
 8302TIP3    H224864   0.077   7.456   1.750 -0.3016  2.0371  1.2816
 8303TIP3   OH224865   6.861   6.588   0.434  0.0424  0.1412 -0.5573
 8303TIP3    H124866   6.813   6.584   0.517  1.0789 -1.5740  0.0121
 8303TIP3    H224867   6.922   6.662   0.445  1.0912 -0.8614  0.7824
 8304TIP3   OH224868   5.765   3.958   0.098 -0.2857 -0.0664  0.1886
 8304TIP3    H124869   5.748   4.040   0.051  1.1475  0.5344  0.6444
 8304TIP3    H224870   5.791   3.896   0.030 -0.3134  0.1742 -0.0433
 8305TIP3   OH224871   7.669   1.297   2.834 -0.3358 -0.3412 -0.2111
 8305TIP3    H124872   7.649   1.273   2.743 -2.3697  0.2807  0.0372
 8305TIP3    H224873   7.602   1.361   2.858  0.8721  0.4117  1.3691
 8306TIP3   OH224874   7.424   0.272   4.003 -0.1430  0.1706 -0.8050
 8306TIP3    H124875   7.400   0.365   4.002 -0.0399  0.2131  0.0195
 8306TIP3    H224876   7.468   0.258   3.919  1.0145  1.1871 -0.3906
 8307TIP3   OH224877   4.908   3.843   2.414 -0.1312 -0.4170 -0.0785
 8307TIP3    H124878   4.975   3.782   2.446 -0.0047  0.7771  2.1350
 8307TIP3    H224879   4.957   3.918   2.380 -0.3049  0.3278  1.2641
 8308TIP3   OH224880   3.136   7.152   0.414 -0.3070  0.4443 -0.4163
 8308TIP3    H124881   3.186   7.205   0.351 -3.1806  0.7924 -2.5939
 8308TIP3    H224882   3.170   7.063   0.402  0.6805  0.8553 -0.8446
 8309TIP3   OH224883   5.175   0.703   5.984 -0.1111  0.3582  0.0544
 8309TIP3    H124884   5.213   0.712   5.896  0.4385  0.8081  0.3359
 8309TIP3    H224885   5.238   0.744   6.042 -0.5321  0.1690  0.6558
 8310TIP3   OH224886   0.955   4.834   6.693  0.0890  0.1187  0.0628
 8310TIP3    H124887   0.918   4.789   6.617 -0.0714  0.6956 -0.2068
 8310TIP3    H224888   0.938   4.927   6.676  0.6156  0.2969  0.5022
 8311TIP3   OH224889   7.685   1.770   3.530  0.0706 -0.2540 -0.1550
 8311TIP3    H124890   7.686   1.742   3.439 -1.9507 -0.1402 -0.2667
 8311TIP3    H224891   7.600   1.813   3.541  0.0708 -0.6646  1.8936
 8312TIP3   OH224892   0.298   5.109   4.598 -0.1819  0.4969 -0.8008
 8312TIP3    H124893   0.385   5.071   4.596 -0.2204  0.4031 -0.7143
 8312TIP3    H224894   0.305   5.190   4.546 -0.5498 -0.5671 -2.6108
 8313TIP3   OH224895   4.015   6.268   4.040 -0.2254 -0.1535  0.2854
 8313TIP3    H124896   4.108   6.289   4.029 -0.7182  1.5097 -1.1379
 8313TIP3    H224897   4.013   6.174   4.057  1.7793 -0.0117  1.6545
 8314TIP3   OH224898   5.168   6.230   2.597  0.0054  0.1676 -0.0218
 8314TIP3    H124899   5.187   6.179   2.518 -3.1859 -0.1959 -0.6760
 8314TIP3    H224900   5.137   6.314   2.564 -0.8936  0.1915  0.8400
 8315TIP3   OH224901   1.823   7.747   1.499  0.0010  0.2600 -0.2927
 8315TIP3    H124902   1.866   7.809   1.557  2.6682  0.8423 -2.6695
 8315TIP3    H224903   1.740   7.788   1.475  0.5422  1.6898  0.2411
 8316TIP3   OH224904   3.097   6.278   1.655  0.2281  0.1959  0.4419
 8316TIP3    H124905   3.137   6.192   1.640  1.6822  0.7058  1.2641
 8316TIP3    H224906   3.124   6.331   1.580  1.9269  0.8075  1.4455
 8317TIP3   OH224907   7.401   7.250   1.553  0.5118  0.3333 -0.2208
 8317TIP3    H124908   7.372   7.159   1.549  0.8018  0.1455  1.3550
 8317TIP3    H224909   7.415   7.274   1.461  1.5987 -1.5932 -0.6219
 8318TIP3   OH224910   4.307   2.346   1.393 -0.9026  0.5812  0.2842
 8318TIP3    H124911   4.322   2.333   1.487 -2.1515  2.0844  0.7255
 8318TIP3    H224912   4.361   2.421   1.370  0.6159 -0.7053 -0.6080
 8319TIP3   OH224913   2.259   0.126   6.086 -0.1427 -0.3790 -0.6288
 8319TIP3    H124914   2.338   0.163   6.126  0.4109 -1.5942 -0.5292
 8319TIP3    H224915   2.190   0.142   6.151  0.1838  0.0332 -0.3775
 8320TIP3   OH224916   7.992   7.798   4.274 -0.0405  0.6766 -0.4176
 8320TIP3    H124917   7.954   7.762   4.354  0.5087  1.1980  0.0873
 8320TIP3    H224918   7.916   7.824   4.221 -0.4309 -0.5496 -0.4978
 8321TIP3   OH224919   4.872   3.051   4.496  0.3942  0.2410  0.3953
 8321TIP3    H124920   4.933   3.020   4.429  0.2960  0.2497  0.3021
 8321TIP3    H224921   4.869   2.980   4.560 -1.3098 -0.7927 -0.7637
 8322TIP3   OH224922   7.112   4.605   4.527  0.3617  0.4869  0.3395
 8322TIP3    H124923   7.158   4.540   4.473 -1.6671 -1.2863  0.6093
 8322TIP3    H224924   7.046   4.554   4.574 -1.2495  2.7463  0.6635
 8323TIP3   OH224925   2.333   4.990   2.912 -0.3082  0.1091 -0.3067
 8323TIP3    H124926   2.309   5.081   2.900 -1.2486  0.0140  0.7106
 8323TIP3    H224927   2.309   4.970   3.003  2.4618 -0.3693  0.3995
 8324TIP3   OH224928   5.738   2.646   2.594 -0.7418 -0.1794 -0.3655
 8324TIP3    H124929   5.722   2.602   2.677 -2.0893 -2.2733 -1.6569
 8324TIP3    H224930   5.793   2.721   2.617  0.1419 -1.5046  2.1958
 8325TIP3   OH224931   0.457   4.137   1.491 -0.3923 -0.6467 -0.1052
 8325TIP3    H124932   0.420   4.062   1.446 -0.3141 -1.1078  0.6015
 8325TIP3    H224933   0.460   4.113   1.583 -0.6934  0.3542  0.1866
 8326TIP3   OH224934   0.795   1.672   6.233  0.1453 -0.0903 -0.1111
 8326TIP3    H124935   0.767   1.735   6.166 -0.0635  1.1566  1.0929
 8326TIP3    H224936   0.866   1.623   6.192  0.1407  0.7583 -1.1803
 8327TIP3   OH224937   3.561   6.013   5.891 -0.1596  0.8665  0.3782
 8327TIP3    H124938   3.581   5.933   5.844 -2.1053  0.1919  0.5957
 8327TIP3    H224939   3.597   6.083   5.837 -1.2833  0.0366 -1.5139
 8328TIP3   OH224940   0.088   6.893   3.658  0.2579  0.4557 -0.5902
 8328TIP3    H124941   0.154   6.880   3.591  0.3117  0.9978 -0.6495
 8328TIP3    H224942   0.019   6.944   3.614 -0.3778 -0.4288 -0.6395
 8329TIP3   OH224943   4.156   0.835   1.150  0.0789  0.2852 -0.0375
 8329TIP3    H124944   4.069   0.844   1.112  0.5588  3.7858 -0.6833
 8329TIP3    H224945   4.207   0.790   1.083 -0.3770  1.5546 -1.2707
 8330TIP3   OH224946   7.519   4.025   2.605  0.6902 -0.3626 -0.6413
 8330TIP3    H124947   7.470   4.005   2.525 -0.3676 -0.7360  0.0752
 8330TIP3    H224948   7.601   4.064   2.574  0.9958 -1.9389 -1.9589
 8331TIP3   OH224949   2.540   2.893   4.216 -0.4780 -0.2565  0.0383
 8331TIP3    H124950   2.571   2.928   4.299 -0.0519 -0.1147 -0.1759
 8331TIP3    H224951   2.597   2.818   4.199 -0.6800 -0.3936 -0.0364
 8332TIP3   OH224952   7.283   1.768   0.910 -0.4631 -0.1696  0.3746
 8332TIP3    H124953   7.276   1.765   1.005 -0.5292  1.0614  0.4208
 8332TIP3    H224954   7.230   1.694   0.880 -0.6750 -0.3943  1.2777
 8333TIP3   OH224955   5.431   3.713   0.415 -0.3865  0.0548 -0.0903
 8333TIP3    H124956   5.492   3.723   0.342 -1.2158  0.8726 -0.6966
 8333TIP3    H224957   5.396   3.624   0.405  1.4671 -0.8582  0.9079
 8334TIP3   OH224958   3.353   1.909   5.458 -0.0882 -0.2010  0.4189
 8334TIP3    H124959   3.342   1.845   5.388  0.0278  0.5258 -0.2742
 8334TIP3    H224960   3.439   1.947   5.443 -0.3375  0.4376  0.5389
 8335TIP3   OH224961   8.160   2.203   3.599  0.4459  0.1725  0.0016
 8335TIP3    H124962   8.151   2.185   3.505  0.5130  1.8612 -0.3546
 8335TIP3    H224963   8.254   2.193   3.616  0.3653 -0.6445  0.0201
 8336TIP3   OH224964   0.643   7.199   1.178 -0.0169 -0.1006  0.3151
 8336TIP3    H124965   0.729   7.159   1.164  0.4313  1.3025 -1.2377
 8336TIP3    H224966   0.661   7.290   1.199 -1.1152  0.0148  0.8691
 8337TIP3   OH224967   0.299   7.471   3.077 -0.0565 -0.2563 -0.1808
 8337TIP3    H124968   0.208   7.500   3.085  0.3909  0.6978  2.6297
 8337TIP3    H224969   0.312   7.410   3.150  1.9044  0.7499  0.3961
 8338TIP3   OH224970   4.777   4.100   1.206  0.1352  0.0975  0.4731
 8338TIP3    H124971   4.692   4.104   1.249 -0.3985  0.8607 -0.6262
 8338TIP3    H224972   4.833   4.053   1.269 -1.5980 -2.3486  0.3136
 8339TIP3   OH224973   5.769   3.517   6.146 -0.5147 -0.6387 -0.4192
 8339TIP3    H124974   5.679   3.485   6.145 -0.5672 -0.4967 -1.3706
 8339TIP3    H224975   5.823   3.438   6.133 -0.3760 -1.0050  1.9866
 8340TIP3   OH224976   5.483   0.996   0.298  0.7750 -0.1967  0.1595
 8340TIP3    H124977   5.462   0.903   0.292  0.1847  0.0134 -1.1859
 8340TIP3    H224978   5.419   1.031   0.360 -0.7918 -0.1868 -1.4192
 8341TIP3   OH224979   7.460   6.949   5.812  0.1945  0.4485 -0.5417
 8341TIP3    H124980   7.377   6.903   5.818  0.2059  0.5890  1.9621
 8341TIP3    H224981   7.475   6.962   5.719 -1.8297 -0.9245 -1.1034
 8342TIP3   OH224982   7.778   0.719   4.494 -0.2617  0.5480 -0.6025
 8342TIP3    H124983   7.823   0.781   4.436 -1.8412  1.9332 -0.4073
 8342TIP3    H224984   7.806   0.745   4.582  0.3472 -0.1024 -0.5884
 8343TIP3   OH224985   7.450   7.362   1.310  0.8755 -0.0816 -0.1636
 8343TIP3    H124986   7.517   7.430   1.308  0.2667  0.6215  1.3471
 8343TIP3    H224987   7.469   7.306   1.235  3.0853  0.1607  0.1523
 8344TIP3   OH224988   6.686   1.998   2.542  0.3645 -0.0488  0.1030
 8344TIP3    H124989   6.629   1.922   2.531  0.3294 -0.1006  0.5950
 8344TIP3    H224990   6.740   1.977   2.618  0.8003  0.1508 -0.1488
 8345TIP3   OH224991   5.500   4.534   2.797  0.0258 -0.6078  0.1061
 8345TIP3    H124992   5.460   4.477   2.863 -0.5521  0.9851  1.1763
 8345TIP3    H224993   5.594   4.518   2.805 -0.1177 -1.3377  0.4330
 8346TIP3   OH224994   6.613   6.466   6.479 -0.0919 -0.3419 -0.0915
 8346TIP3    H124995   6.580   6.376   6.493 -0.4135 -0.7940 -3.1560
 8346TIP3    H224996   6.537   6.514   6.448  0.2360  0.8904  0.9340
 8347TIP3   OH224997   5.992   0.551   4.663 -0.0617  0.0244  0.1566
 8347TIP3    H124998   5.899   0.570   4.672  0.2228  1.6964 -0.0879
 8347TIP3    H224999   6.005   0.543   4.568  0.1764  0.6596  0.1281
 8348TIP3   OH225000   6.187   6.901   4.256 -0.3215 -0.6986 -0.5722
 8348TIP3    H125001   6.260   6.844   4.232  1.1043  0.0789  1.5838
 8348TIP3    H225002   6.229   6.978   4.295 -2.2530  0.9662 -1.6173
 8349TIP3   OH225003   7.097   7.365   1.253 -0.2508  0.1341 -0.2916
 8349TIP3    H125004   7.044   7.285   1.250 -0.1230  0.0575 -0.5132
 8349TIP3    H225005   7.122   7.374   1.345  2.2165 -1.7064 -0.6804
 8350TIP3   OH225006   0.762   0.408   1.378 -0.2653  0.0763  0.1942
 8350TIP3    H125007   0.771   0.318   1.410 -0.7599  0.1067  0.4347
 8350TIP3    H225008   0.705   0.450   1.443 -0.0577  0.5535  0.0664
 8351TIP3   OH225009   5.063   0.489   1.271  0.3108 -0.5143  0.0466
 8351TIP3    H125010   4.968   0.496   1.269  0.2514 -0.9478  0.7469
 8351TIP3    H225011   5.084   0.418   1.210  0.0621 -1.3492  0.9027
 8352TIP3   OH225012   0.803   3.141   1.052 -0.0331 -0.2301 -0.6424
 8352TIP3    H125013   0.755   3.132   0.970 -0.7869 -1.2475 -0.1123
 8352TIP3    H225014   0.749   3.199   1.105 -0.9725 -1.7374  0.1260
 8353TIP3   OH225015   0.604   7.472   0.385 -0.0311  0.1145  0.2877
 8353TIP3    H125016   0.681   7.422   0.358 -0.5972 -0.8366  0.4030
 8353TIP3    H225017   0.639   7.558   0.409  0.3952  1.6572 -4.7159
 8354TIP3   OH225018   4.811   7.489   2.923 -0.9162  0.0097  0.3742
 8354TIP3    H125019   4.898   7.480   2.961 -0.6192  4.3353  1.2224
 8354TIP3    H225020   4.826   7.523   2.835 -1.7595 -0.7958 -0.0974
 8355TIP3   OH225021   4.188   2.096   6.203 -0.3790 -0.2978 -0.2602
 8355TIP3    H125022   4.119   2.031   6.214  0.4018 -1.1864 -0.3743
 8355TIP3    H225023   4.252   2.075   6.272  0.2714 -0.1826 -0.8114
 8356TIP3   OH225024   6.989   4.720   1.469 -0.3275 -0.0153 -0.5829
 8356TIP3    H125025   6.988   4.814   1.489  1.9872 -0.3366  1.5118
 8356TIP3    H225026   6.898   4.692   1.481 -1.0766  1.9364 -1.3353
 8357TIP3   OH225027   4.288   6.345   3.963 -0.3958 -0.3138  0.1247
 8357TIP3    H125028   4.323   6.432   3.944 -0.1536  0.2613  2.8051
 8357TIP3    H225029   4.356   6.285   3.934  1.0066  0.6059  1.3394
 8358TIP3   OH225030   3.998   2.986   0.289 -0.0717 -0.0251 -0.3359
 8358TIP3    H125031   4.018   2.924   0.219 -0.1588 -1.1199  0.5859
 8358TIP3    H225032   3.969   2.931   0.362  1.4003  0.9760  1.0563
 8359TIP3   OH225033   0.409   7.154   0.152  0.2941 -0.1590  0.1369
 8359TIP3    H125034   0.362   7.141   0.234  0.0832 -0.1841  0.0119
 8359TIP3    H225035   0.427   7.248   0.151 -1.5316  0.2220 -0.7672
 8360TIP3   OH225036   3.241   6.959   1.563 -0.1733  0.4029  0.0024
 8360TIP3    H125037   3.217   6.921   1.647 -1.0273  0.5728 -0.1544
 8360TIP3    H225038   3.336   6.951   1.559 -0.2047 -0.3640  0.6159
 8361TIP3   OH225039   5.245   0.996   5.776 -0.3578  0.2920  0.3951
 8361TIP3    H125040   5.154   0.979   5.800 -0.3117 -0.7502 -0.1192
 8361TIP3    H225041   5.291   0.915   5.799  0.4322  0.7806  0.5848
 8362TIP3   OH225042   5.052   2.605   1.338 -0.9897 -0.2402 -0.0872
 8362TIP3    H125043   5.115   2.557   1.392 -1.4153 -1.2830 -0.5053
 8362TIP3    H225044   5.106   2.667   1.289 -0.1858 -1.5134 -0.8701
 8363TIP3   OH225045   4.817   0.737   1.039  0.3527  0.1230 -0.4218
 8363TIP3    H125046   4.909   0.740   1.067  0.7415 -0.7531 -1.4850
 8363TIP3    H225047   4.819   0.681   0.960 -1.1980 -0.4826 -0.0569
 8364TIP3   OH225048   4.222   2.343   0.340 -0.4607 -0.0071 -0.0573
 8364TIP3    H125049   4.241   2.341   0.246 -1.0778  0.4012 -0.1968
 8364TIP3    H225050   4.244   2.255   0.371 -3.1722 -1.1923 -1.1822
 8365TIP3   OH225051   6.550   1.968   0.642  0.6192  0.0696  0.0187
 8365TIP3    H125052   6.528   1.950   0.733  0.0878  1.5110  0.2017
 8365TIP3    H225053   6.645   1.977   0.642  0.6263  0.0286  0.4222
 8366TIP3   OH225054   6.817   0.884   5.538 -0.1293  0.1543 -0.0668
 8366TIP3    H125055   6.854   0.958   5.586 -1.0816 -0.3746  1.5632
 8366TIP3    H225056   6.763   0.838   5.602  0.1982 -1.8000 -1.0984
 8367TIP3   OH225057   6.451   4.944   0.340  0.0000 -0.3711  0.3056
 8367TIP3    H125058   6.413   4.935   0.427 -2.3972 -0.3634 -0.6764
 8367TIP3    H225059   6.395   5.007   0.295  0.2666 -1.5108 -1.7414
 8368TIP3   OH225060   0.348   1.890   3.537  0.9674  0.4561 -0.2113
 8368TIP3    H125061   0.361   1.797   3.553 -1.8194  0.1161  0.7316
 8368TIP3    H225062   0.362   1.932   3.622 -0.2084  0.5261 -0.0327
 8369TIP3   OH225063   5.938   5.781   1.510  0.2310 -0.3462  0.0765
 8369TIP3    H125064   5.990   5.771   1.431  1.1561  0.8074  0.4997
 8369TIP3    H225065   5.867   5.841   1.485  0.7610  0.3524  0.2004
 8370TIP3   OH225066   7.590   1.714   5.736 -0.5949 -0.1872  0.2898
 8370TIP3    H125067   7.628   1.684   5.653 -0.0967 -3.3182  1.5089
 8370TIP3    H225068   7.647   1.785   5.765 -0.7655  0.9648 -1.9684
 8371TIP3   OH225069   6.865   0.805   1.698 -0.1693  0.2136 -0.5292
 8371TIP3    H125070   6.775   0.779   1.676  0.3392  0.3378 -2.9555
 8371TIP3    H225071   6.883   0.880   1.642  1.6375 -0.1620 -0.5022
 8372TIP3   OH225072   4.024   5.362   3.520 -0.2342 -0.1342 -0.3235
 8372TIP3    H125073   4.060   5.376   3.608  0.0366 -1.2230 -0.2471
 8372TIP3    H225074   4.036   5.268   3.504 -1.4625 -0.1883 -1.0083
 8373TIP3   OH225075   0.411   6.080   6.029 -0.7052  0.4750  0.0308
 8373TIP3    H125076   0.484   6.029   5.995 -0.2880  1.5354 -0.7591
 8373TIP3    H225077   0.333   6.028   6.008 -0.1605 -1.1832  1.8512
 8374TIP3   OH225078   2.647   4.428   3.585 -0.4335 -0.3095  0.0295
 8374TIP3    H125079   2.659   4.485   3.508 -1.7661 -1.3239 -0.9728
 8374TIP3    H225080   2.691   4.347   3.561 -0.9500 -0.6691  0.2819
 8375TIP3   OH225081   7.054   5.440   2.207 -0.7000 -0.2782  0.4400
 8375TIP3    H125082   7.139   5.410   2.239  0.4611 -0.9534 -2.8596
 8375TIP3    H225083   6.998   5.362   2.212  0.3034 -1.1985 -1.6788
 8376TIP3   OH225084   4.559   5.216   2.930 -0.2835  0.1939 -0.4441
 8376TIP3    H125085   4.553   5.232   3.025 -0.5064 -1.6000 -0.1253
 8376TIP3    H225086   4.522   5.295   2.891  2.6192  2.3819  0.8450
 8377TIP3   OH225087   2.922   0.514   2.199  0.4792 -0.4844  0.4934
 8377TIP3    H125088   2.877   0.463   2.266  1.1944 -0.6588  0.8431
 8377TIP3    H225089   2.928   0.602   2.235  1.0830 -0.6341  0.7735
 8378TIP3   OH225090   3.900   1.086   5.859 -0.6051  0.0258  0.2749
 8378TIP3    H125091   3.863   1.159   5.908 -0.5675  0.0496  0.2682
 8378TIP3    H225092   3.940   1.030   5.926  0.2838  0.5382  0.1908
 8379TIP3   OH225093   7.480   6.894   3.442 -0.0070  0.0295  0.4667
 8379TIP3    H125094   7.473   6.860   3.353 -0.1760  3.0281 -0.7818
 8379TIP3    H225095   7.391   6.925   3.462  0.4199  1.0192  0.9048
 8380TIP3   OH225096   4.843   4.760   1.322  0.5657 -0.4377  0.4169
 8380TIP3    H125097   4.788   4.742   1.398 -0.4436  0.8635  0.0354
 8380TIP3    H225098   4.781   4.787   1.253  1.6431  0.7211 -0.1326
 8381TIP3   OH225099   6.848   3.998   3.320  0.2234 -0.8093 -0.5734
 8381TIP3    H125100   6.895   3.927   3.276  0.1545 -0.0558 -1.9130
 8381TIP3    H225101   6.917   4.059   3.346  0.2948 -1.3829  0.6876
 8382TIP3   OH225102   4.443   3.614   5.983  0.5628  0.1405 -0.0710
 8382TIP3    H125103   4.417   3.543   6.042  0.3409  0.7637  0.5972
 8382TIP3    H225104   4.539   3.607   5.977  0.5225 -0.3461 -0.1919
 8383TIP3   OH225105   1.450   3.952   0.896  0.4686  0.1279  0.6239
 8383TIP3    H125106   1.538   3.915   0.908  1.9432  1.9788 -2.7026
 8383TIP3    H225107   1.393   3.876   0.883  2.0685 -1.1067  0.5090
 8384TIP3   OH225108   0.857   3.083   2.565 -0.1056  0.4110  0.0865
 8384TIP3    H125109   0.899   3.091   2.479  0.2661  1.1309  0.3245
 8384TIP3    H225110   0.796   3.158   2.568 -0.6866 -0.0553  0.1439
 8385TIP3   OH225111   7.138   5.773   3.540  0.3797  0.1827 -0.7146
 8385TIP3    H125112   7.150   5.710   3.611  1.5457  1.2267  0.0465
 8385TIP3    H225113   7.133   5.719   3.461 -1.2041 -1.0138  0.1456
 8386TIP3   OH225114   4.731   4.981   5.404 -0.1598  0.2887 -0.7954
 8386TIP3    H125115   4.676   5.029   5.467  0.1554  0.4062 -0.6081
 8386TIP3    H225116   4.786   4.925   5.459  1.2682  1.5711 -0.8486
 8387TIP3   OH225117   3.473   7.633   5.582  0.3079  0.0213 -0.3305
 8387TIP3    H125118   3.561   7.601   5.559  0.9347  0.6119  1.1499
 8387TIP3    H225119   3.475   7.726   5.558 -1.5362 -0.8046 -4.7079
 8388TIP3   OH225120   3.557   1.708   4.913 -0.1964 -0.6164  0.4562
 8388TIP3    H125121   3.635   1.677   4.867  0.1540 -0.9650  1.2674
 8388TIP3    H225122   3.585   1.718   5.004 -1.2328 -1.2870  0.8727
 8389TIP3   OH225123   3.371   5.769   0.104  0.4090  0.8368  0.3063
 8389TIP3    H125124   3.306   5.761   0.034  0.8416  2.2849 -0.2908
 8389TIP3    H225125   3.385   5.679   0.133 -0.8759  0.3527 -0.4497
 8390TIP3   OH225126   7.466   3.490   2.060 -0.5515 -0.2653  0.3248
 8390TIP3    H125127   7.467   3.586   2.061  2.2804 -0.1819  1.8676
 8390TIP3    H225128   7.474   3.466   1.968  0.8537  1.0581  0.0718
 8391TIP3   OH225129   5.095   0.925   1.472  0.3690 -0.7121 -0.0291
 8391TIP3    H125130   5.026   0.983   1.438  0.3987 -0.7783 -0.2057
 8391TIP3    H225131   5.146   0.901   1.394  1.4523  0.4610  0.2727
 8392TIP3   OH225132   4.196   4.243   3.506  0.2510  0.3472 -0.4874
 8392TIP3    H125133   4.110   4.222   3.471  0.5772 -0.3967 -0.8609
 8392TIP3    H225134   4.181   4.262   3.599  0.0306 -2.4399  0.1307
 8393TIP3   OH225135   5.491   7.628   0.635  0.1777  0.0747  0.5777
 8393TIP3    H125136   5.502   7.603   0.543  1.8052  0.4719  0.6455
 8393TIP3    H225137   5.475   7.545   0.680 -1.6699 -0.0350 -0.1562
 8394TIP3   OH225138   5.383   1.134   1.256 -0.4896  0.0774  0.2017
 8394TIP3    H125139   5.450   1.190   1.294  0.4650 -0.2223 -0.9805
 8394TIP3    H225140   5.300   1.170   1.289  0.2515 -0.5952  3.0949
 8395TIP3   OH225141   2.256   6.281   5.874 -0.1238  0.0529  0.4386
 8395TIP3    H125142   2.294   6.237   5.950 -0.3459 -2.0438 -0.5971
 8395TIP3    H225143   2.309   6.253   5.800 -0.1390  1.7590 -0.2772
 8396TIP3   OH225144   2.446   0.943   2.584  0.2712 -0.2113 -0.0750
 8396TIP3    H125145   2.435   0.850   2.605  1.3225  0.2155  2.9190
 8396TIP3    H225146   2.383   0.987   2.640  1.1311  0.9659 -0.0018
 8397TIP3   OH225147   2.768   1.536   2.355  0.3367 -0.6408  0.1870
 8397TIP3    H125148   2.799   1.621   2.325 -1.5095 -0.2958 -0.8988
 8397TIP3    H225149   2.678   1.553   2.385  0.0620 -2.1438  0.2683
 8398TIP3   OH225150   3.831   1.863   5.406  0.4423  0.1580  0.0328
 8398TIP3    H125151   3.891   1.919   5.357 -0.3208  0.8088 -0.1850
 8398TIP3    H225152   3.774   1.923   5.453  0.6646 -0.4615  1.1182
 8399TIP3   OH225153   0.241   2.355   4.552  0.0753 -0.8517 -0.1259
 8399TIP3    H125154   0.168   2.392   4.602 -1.4643  0.1010 -2.8545
 8399TIP3    H225155   0.277   2.288   4.609 -1.9369 -0.2756  1.9860
 8400TIP3   OH225156   7.836   4.586   0.187 -0.2312  0.1644 -0.4162
 8400TIP3    H125157   7.822   4.676   0.159 -0.4773  0.0260 -0.7403
 8400TIP3    H225158   7.905   4.554   0.129  1.7783  0.9605  1.4088
 8401TIP3   OH225159   3.440   5.337   1.376 -0.4082 -0.7151  0.0117
 8401TIP3    H125160   3.500   5.360   1.306 -1.5490 -0.2063 -0.8376
 8401TIP3    H225161   3.453   5.405   1.443 -0.5150 -0.2146 -0.4720
 8402TIP3   OH225162   4.597   7.463   0.467  0.2189  0.0043 -0.0919
 8402TIP3    H125163   4.586   7.532   0.403  0.4431  0.6750  0.5770
 8402TIP3    H225164   4.574   7.503   0.551 -0.1457 -0.8744  0.2426
 8403TIP3   OH225165   4.958   5.652   5.398 -0.5380  0.4562 -0.4418
 8403TIP3    H125166   4.950   5.573   5.344 -0.5586  0.4369 -0.4101
 8403TIP3    H225167   5.039   5.638   5.448 -1.3504 -0.2543  0.7298
 8404TIP3   OH225168   6.276   0.909   4.323 -0.6868 -0.1624 -0.5287
 8404TIP3    H125169   6.181   0.903   4.319 -0.6358 -1.3969 -0.1775
 8404TIP3    H225170   6.306   0.865   4.243 -0.3974  0.0950 -0.5646
 8405TIP3   OH225171   3.103   6.250   3.708 -0.2800 -0.3772 -0.3515
 8405TIP3    H125172   3.008   6.251   3.715 -0.4041  2.0544 -1.1793
 8405TIP3    H225173   3.122   6.314   3.639  1.8876 -2.1452 -1.5345
 8406TIP3   OH225174   0.218   2.594   2.280 -0.5171  0.1133  0.1973
 8406TIP3    H125175   0.170   2.614   2.361 -1.4272  2.4588 -0.8471
 8406TIP3    H225176   0.170   2.521   2.242 -2.5489  1.5137 -0.1325
 8407TIP3   OH225177   3.991   7.500   4.389 -0.3347  0.4853  0.5621
 8407TIP3    H125178   3.922   7.441   4.420 -0.6787  0.6945  0.2148
 8407TIP3    H225179   3.977   7.505   4.295  1.0782 -0.6212  0.2744
 8408TIP3   OH225180   4.500   1.683   4.465 -0.1680 -0.2598 -0.2422
 8408TIP3    H125181   4.566   1.657   4.400 -0.6399  1.6886 -1.5613
 8408TIP3    H225182   4.550   1.732   4.531  0.2918 -2.1458  0.8934
 8409TIP3   OH225183   2.353   7.053   3.963  0.1143 -0.4164 -0.6613
 8409TIP3    H125184   2.361   7.109   4.040 -2.0254  0.1675 -0.8016
 8409TIP3    H225185   2.276   6.999   3.980 -0.2482 -0.4677 -2.2624
 8410TIP3   OH225186   0.189   5.889   4.756  0.1401 -0.5770  0.6742
 8410TIP3    H125187   0.205   5.961   4.696 -1.8424 -0.1278  0.6015
 8410TIP3    H225188   0.225   5.812   4.712 -1.7595 -0.3674 -1.4226
 8411TIP3   OH225189   7.638   3.544   4.727 -0.2860  0.2600  0.2328
 8411TIP3    H125190   7.683   3.505   4.652 -0.2840  1.2838 -0.3200
 8411TIP3    H225191   7.546   3.543   4.702 -0.2240  1.1681 -0.0657
 8412TIP3   OH225192   4.035   6.370   5.580 -0.0361 -0.0932  0.2430
 8412TIP3    H125193   3.963   6.346   5.637  0.3680 -1.4934  0.1949
 8412TIP3    H225194   4.108   6.389   5.639  0.2071 -0.9529  0.2371
 8413TIP3   OH225195   5.646   6.949   2.482  0.6519  0.4906 -0.0578
 8413TIP3    H125196   5.571   6.935   2.423  0.9603  1.6411 -0.7661
 8413TIP3    H225197   5.696   6.868   2.477  1.3383  0.9804 -2.4066
 8414TIP3   OH225198   2.737   5.890   1.470 -0.1667 -0.4081 -0.7981
 8414TIP3    H125199   2.690   5.863   1.549  0.5925 -0.5867 -0.3938
 8414TIP3    H225200   2.779   5.811   1.438 -1.1119 -0.5080 -1.8567
 8415TIP3   OH225201   6.362   3.231   0.818 -0.0006  0.2830  0.1335
 8415TIP3    H125202   6.397   3.307   0.864  0.2285  0.9210 -1.0663
 8415TIP3    H225203   6.277   3.214   0.860 -0.7899  2.1848 -0.6169
 8416TIP3   OH225204   0.900   2.649   4.200  0.4360 -0.2761  0.0458
 8416TIP3    H125205   0.839   2.714   4.234  1.7176  1.0358 -0.0646
 8416TIP3    H225206   0.849   2.600   4.135 -0.2394  1.4034 -0.7398
 8417TIP3   OH225207   4.999   3.245   2.710  0.0781 -0.2636  0.0915
 8417TIP3    H125208   5.050   3.191   2.650 -0.2084 -0.5434  0.0949
 8417TIP3    H225209   5.040   3.232   2.796  1.2115  1.0534 -0.2332
 8418TIP3   OH225210   5.592   6.750   6.734  0.0307 -0.0421  0.8169
 8418TIP3    H125211   5.583   6.737   6.640  1.5566  0.3948  0.5820
 8418TIP3    H225212   5.558   6.839   6.749  0.0458 -0.0074  0.6420
 8419TIP3   OH225213   6.293   4.377   1.926  0.2700 -0.1349  0.8833
 8419TIP3    H125214   6.217   4.334   1.966  1.1827 -0.5078  2.3284
 8419TIP3    H225215   6.296   4.463   1.967  0.6870 -0.1747  0.9431
 8420TIP3   OH225216   2.349   7.445   6.097  0.3447  0.0444  0.2771
 8420TIP3    H125217   2.436   7.417   6.067  0.7579 -0.4383  1.8610
 8420TIP3    H225218   2.312   7.366   6.137  0.1949  0.8840  1.8527
 8421TIP3   OH225219   5.936   3.627   3.493  0.6053  0.5176 -0.3216
 8421TIP3    H125220   5.985   3.613   3.412  1.7173  3.0735 -0.1714
 8421TIP3    H225221   5.900   3.716   3.484  0.3417  0.6696  1.7629
 8422TIP3   OH225222   6.480   0.562   5.945 -0.0932  0.8116 -0.4452
 8422TIP3    H125223   6.409   0.620   5.915 -0.1364  1.5098  0.9299
 8422TIP3    H225224   6.528   0.615   6.009 -1.2004 -1.2030  2.2356
 8423TIP3   OH225225   1.194   6.313   5.741 -0.7266 -0.6857  0.1349
 8423TIP3    H125226   1.201   6.283   5.650 -1.3017 -0.3085 -0.0386
 8423TIP3    H225227   1.259   6.383   5.748 -3.2698  2.0106 -1.1392
 8424TIP3   OH225228   2.528  -0.006   1.662 -0.1439 -0.3314  0.4237
 8424TIP3    H125229   2.451   0.013   1.715  0.7597  0.9431  1.3641
 8424TIP3    H225230   2.563   0.081   1.640  0.8737 -0.8772 -0.1772
 8425TIP3   OH225231   2.500   4.261   3.998  0.1048  0.2814 -0.5749
 8425TIP3    H125232   2.542   4.223   3.920 -1.7383  0.4402 -1.6860
 8425TIP3    H225233   2.492   4.354   3.978  0.6698  0.5335  0.3198
 8426TIP3   OH225234   5.158   7.774   4.758  0.4644 -0.2124 -0.2730
 8426TIP3    H125235   5.165   7.695   4.705  3.7823 -1.2003  1.3331
 8426TIP3    H225236   5.202   7.842   4.707 -1.2896  0.3595 -1.1057
 8427TIP3   OH225237   3.760   3.815   6.053 -0.5840 -0.8051  0.1547
 8427TIP3    H125238   3.751   3.786   6.144  0.9760 -0.6780  0.3644
 8427TIP3    H225239   3.674   3.797   6.014 -1.1163 -1.3339  1.5109
 8428TIP3   OH225240   5.586   2.394   4.491  0.1072 -0.0402  0.0265
 8428TIP3    H125241   5.673   2.413   4.456 -0.0870 -1.1553 -1.1679
 8428TIP3    H225242   5.543   2.480   4.497  0.5631  0.3242 -1.4326
 8429TIP3   OH225243   5.709   7.319   2.817  0.0233 -0.3798  0.3778
 8429TIP3    H125244   5.664   7.237   2.797 -0.5337  0.5646 -3.0834
 8429TIP3    H225245   5.797   7.308   2.781 -0.1679  0.6018 -0.4499
 8430TIP3   OH225246   5.843   7.201   4.848  0.1308  0.1709  0.5014
 8430TIP3    H125247   5.867   7.291   4.824 -0.2503  0.4806  1.2214
 8430TIP3    H225248   5.910   7.175   4.911  0.0687  0.0676  0.5239
 8431TIP3   OH225249   0.111   3.129   1.418 -0.4650 -0.5334  0.3224
 8431TIP3    H125250   0.062   3.071   1.358 -1.4487 -0.5164  1.0850
 8431TIP3    H225251   0.102   3.216   1.379  1.1318 -0.8711 -0.9020
 8432TIP3   OH225252   7.707   6.017   5.813 -0.2454  0.3528  1.3443
 8432TIP3    H125253   7.712   5.983   5.724 -1.5576  0.3156  1.2704
 8432TIP3    H225254   7.778   6.081   5.818 -0.6491  0.9550  0.0024
 8433TIP3   OH225255   5.893   1.590   5.665  0.4288 -0.3716 -0.0701
 8433TIP3    H125256   5.829   1.654   5.634  0.4917  1.2795  2.8720
 8433TIP3    H225257   5.842   1.528   5.717  0.9277 -0.2484  0.5788
 8434TIP3   OH225258   1.227   5.141   2.769  0.1907  0.1812  1.1684
 8434TIP3    H125259   1.156   5.144   2.832 -1.6209  2.4603 -0.7575
 8434TIP3    H225260   1.288   5.209   2.798 -0.2958  0.7584  0.8544
 8435TIP3   OH225261   5.732   5.628   2.382 -0.7697  0.7933  0.2870
 8435TIP3    H125262   5.815   5.591   2.414 -0.0621  2.6083  0.6866
 8435TIP3    H225263   5.690   5.663   2.460 -0.2725  2.9061 -0.3265
 8436TIP3   OH225264   2.298   2.587   3.812 -0.1366 -0.0244  0.1600
 8436TIP3    H125265   2.256   2.516   3.763  1.1666 -0.1954 -0.7386
 8436TIP3    H225266   2.267   2.667   3.769 -1.4100 -0.0223  1.0188
 8437TIP3   OH225267   7.845   2.390   0.759 -0.0967  0.1430 -0.2269
 8437TIP3    H125268   7.900   2.316   0.735 -0.7707 -0.0516 -1.1976
 8437TIP3    H225269   7.788   2.405   0.683 -0.6532  1.0194  0.3342
 8438TIP3   OH225270   5.648   1.690   1.014 -0.5031  0.5710 -0.8176
 8438TIP3    H125271   5.607   1.772   1.043  0.6652  0.5404  1.1145
 8438TIP3    H225272   5.741   1.710   1.006 -0.1410 -0.6027  0.0142
 8439TIP3   OH225273   3.102   5.203   1.968  0.2984 -0.2552 -0.0310
 8439TIP3    H125274   3.025   5.162   2.008  0.3383 -1.5818 -1.2072
 8439TIP3    H225275   3.167   5.206   2.038  0.1577 -1.9104  0.2228
 8440TIP3   OH225276   6.159   2.633   6.075  0.3818 -0.8156  0.6296
 8440TIP3    H125277   6.168   2.562   6.139  1.0569 -2.0675 -0.7750
 8440TIP3    H225278   6.198   2.597   5.995  1.3486  1.3979  0.0412
 8441TIP3   OH225279   0.824   0.490   0.794 -0.0712  0.3330 -0.0440
 8441TIP3    H125280   0.753   0.548   0.766 -0.2355 -0.6820 -1.8902
 8441TIP3    H225281   0.803   0.469   0.885 -0.4031  2.5357  0.4377
 8442TIP3   OH225282   3.562   5.444   5.546 -0.1853 -0.1137  0.4713
 8442TIP3    H125283   3.496   5.375   5.535  1.7422 -1.7193 -2.3413
 8442TIP3    H225284   3.622   5.409   5.612 -0.8328  0.3078  1.3067
 8443TIP3   OH225285   4.562   6.488   6.246 -0.0487  0.0499  0.4976
 8443TIP3    H125286   4.593   6.485   6.155  1.5367 -0.2346  1.0230
 8443TIP3    H225287   4.482   6.435   6.245  1.8837 -3.0713 -0.0346
 8444TIP3   OH225288   5.466   4.819   3.482  0.2795  0.7428  0.0749
 8444TIP3    H125289   5.383   4.773   3.471  0.8952 -0.3270 -0.2966
 8444TIP3    H225290   5.515   4.766   3.545  0.7292  1.2845  0.1915
 8445TIP3   OH225291   6.064   7.741   5.984 -0.6267 -0.6946 -0.4065
 8445TIP3    H125292   5.985   7.779   6.023  0.9657  0.3599  2.0473
 8445TIP3    H225293   6.034   7.660   5.943 -3.0468 -0.1011  0.0276
 8446TIP3   OH225294   0.682   2.888   0.770 -0.1894  0.2151 -0.2625
 8446TIP3    H125295   0.614   2.943   0.730 -2.1839 -1.0527  1.2211
 8446TIP3    H225296   0.764   2.937   0.755 -1.5256  2.3015 -1.2204
 8447TIP3   OH225297   0.087   1.776   5.470 -0.7478 -0.1929  0.2462
 8447TIP3    H125298   0.037   1.731   5.538 -1.2663 -0.5582 -0.3741
 8447TIP3    H225299   0.044   1.861   5.461 -0.4614 -0.0015  0.6118
 8448TIP3   OH225300   3.291   5.254   4.207 -0.2535  0.6072 -0.1562
 8448TIP3    H125301   3.247   5.207   4.278  0.1841 -1.2449 -1.0618
 8448TIP3    H225302   3.246   5.339   4.204 -1.3417  0.1270  1.2814
 8449TIP3   OH225303   6.573   5.990   0.833  0.0126  0.0659  0.0400
 8449TIP3    H125304   6.525   5.956   0.909 -0.8993 -0.5665 -0.7863
 8449TIP3    H225305   6.654   6.024   0.869 -0.6182  0.2327  1.3629
 8450TIP3   OH225306   4.053   3.782   1.184  0.3692  0.2022  0.3299
 8450TIP3    H125307   4.029   3.872   1.160 -1.6603 -0.2472  0.4428
 8450TIP3    H225308   4.116   3.755   1.117 -0.0602  1.2374 -0.5263
 8451TIP3   OH225309   3.641   6.001   4.464  0.4929  0.3219 -0.1777
 8451TIP3    H125310   3.701   6.075   4.460  1.9228 -0.7772  0.2951
 8451TIP3    H225311   3.626   5.977   4.373  0.6960  0.6510 -0.3000
 8452TIP3   OH225312   7.285   5.971   6.413  0.5282 -0.4598 -0.3725
 8452TIP3    H125313   7.190   5.978   6.427  0.4978  0.3809 -0.9342
 8452TIP3    H225314   7.295   5.913   6.338  0.4291 -0.1043 -0.6631
 8453TIP3   OH225315   6.718   0.150   3.528 -0.5020  0.1943 -0.3943
 8453TIP3    H125316   6.793   0.100   3.495 -1.3321 -1.2268 -0.2017
 8453TIP3    H225317   6.648   0.133   3.466 -0.8550  1.0171 -0.2407
 8454TIP3   OH225318   1.943   3.721   0.402 -0.0124  0.1105 -0.2971
 8454TIP3    H125319   1.889   3.699   0.326 -1.5726 -1.1108  1.0735
 8454TIP3    H225320   1.958   3.637   0.445 -0.6201  0.9452  1.6460
 8455TIP3   OH225321   6.487   4.612   4.055 -0.3222 -0.1426  0.1411
 8455TIP3    H125322   6.487   4.584   3.963 -2.7853  0.4282 -0.1026
 8455TIP3    H225323   6.410   4.569   4.093 -0.6536  1.4130  1.3420
 8456TIP3   OH225324   4.702   1.604   2.821 -0.7219 -0.1306  0.4559
 8456TIP3    H125325   4.711   1.511   2.799  0.8432  0.3499 -1.2765
 8456TIP3    H225326   4.691   1.606   2.916 -0.6451 -2.0751  0.5465
 8457TIP3   OH225327   3.883   2.243   4.089 -0.4629  0.4335 -0.2970
 8457TIP3    H125328   3.898   2.182   4.161  0.6071  0.3704 -0.5604
 8457TIP3    H225329   3.890   2.188   4.010 -2.6528  0.2851 -0.4582
 8458TIP3   OH225330   2.934   1.418   1.739 -0.1294 -0.0892 -0.1093
 8458TIP3    H125331   3.021   1.458   1.736  0.8030 -1.9142  0.8178
 8458TIP3    H225332   2.930   1.364   1.659  0.4940 -1.6490  0.8593
 8459TIP3   OH225333   6.027   3.570   1.773 -0.1898  0.4901 -0.5596
 8459TIP3    H125334   6.009   3.479   1.751 -1.4515 -0.1039  2.3618
 8459TIP3    H225335   5.940   3.609   1.783  0.2416  1.1403  1.1280
 8460TIP3   OH225336   7.720   2.890   0.508 -0.0493 -0.7059  0.0423
 8460TIP3    H125337   7.790   2.950   0.535 -1.6292  1.1663  0.2539
 8460TIP3    H225338   7.762   2.804   0.502  2.2184  0.3232  0.2222
 8461TIP3   OH225339   6.807   2.251   2.594 -0.0392  0.0765 -0.4208
 8461TIP3    H125340   6.888   2.206   2.572  0.6357  1.1367 -0.1638
 8461TIP3    H225341   6.782   2.298   2.515  0.5198  1.1008 -0.0077
 8462TIP3   OH225342   0.398   3.144   1.863 -0.3050 -0.3976  0.5293
 8462TIP3    H125343   0.352   3.227   1.871  0.1506  0.2900 -2.5132
 8462TIP3    H225344   0.486   3.167   1.833 -0.2329 -1.9429 -0.6019
 8463TIP3   OH225345   1.253   1.202   2.725  0.7079  0.1522  0.4082
 8463TIP3    H125346   1.227   1.162   2.642 -1.0550  1.0876  0.4607
 8463TIP3    H225347   1.265   1.128   2.785 -0.4465 -0.4134 -0.0292
 8464TIP3   OH225348   5.993   0.266   4.328 -0.6720 -0.0260  0.3870
 8464TIP3    H125349   5.950   0.351   4.337 -2.8611 -1.0610  0.4410
 8464TIP3    H225350   5.984   0.244   4.235 -0.7148 -0.4656  0.4914
 8465TIP3   OH225351   6.082   6.953   0.060 -0.3890  0.0445 -0.4757
 8465TIP3    H125352   6.011   7.013   0.083  0.2501 -0.0992  2.1350
 8465TIP3    H225353   6.037   6.876   0.024 -1.4389  0.5787 -0.3697
 8466TIP3   OH225354   2.365   6.590   6.427  0.2491  0.2407  0.5109
 8466TIP3    H125355   2.391   6.605   6.336  2.0749 -0.8705  0.7809
 8466TIP3    H225356   2.375   6.675   6.469 -1.6451  1.0148 -0.5170
 8467TIP3   OH225357   1.968   7.494   1.585 -0.6092 -0.1958 -0.6263
 8467TIP3    H125358   2.023   7.483   1.508 -1.4710  0.9021 -1.4320
 8467TIP3    H225359   1.926   7.579   1.573 -1.4575 -0.4051  0.6199
 8468TIP3   OH225360   7.309   7.799   2.672 -0.1754 -0.1996 -0.3863
 8468TIP3    H125361   7.347   7.774   2.587  1.6494  0.9560  0.0440
 8468TIP3    H225362   7.378   7.781   2.735 -0.4365  1.6487  0.4920
 8469TIP3   OH225363   0.024   6.383   5.168 -0.3862  0.1683 -0.2786
 8469TIP3    H125364   0.080   6.308   5.187 -0.0584  0.2419 -0.9564
 8469TIP3    H225365   0.004   6.376   5.075 -1.2028  0.3458 -0.1235
 8470TIP3   OH225366   0.210   0.619   5.564  0.8935 -0.0858 -0.1889
 8470TIP3    H125367   0.238   0.646   5.652  1.8197  1.2535 -0.8596
 8470TIP3    H225368   0.137   0.678   5.543  0.8048 -0.2717 -0.4145
 8471TIP3   OH225369   2.445   5.896   6.740  0.8042 -0.3771 -0.4985
 8471TIP3    H125370   2.509   5.826   6.722 -0.7967 -1.9391 -0.3994
 8471TIP3    H225371   2.366   5.868   6.695 -0.1080  1.0330  0.1615
 8472TIP3   OH225372   3.274   5.867   3.338 -0.3932  0.5011  0.4906
 8472TIP3    H125373   3.290   5.847   3.246 -1.1838  0.2626  0.3931
 8472TIP3    H225374   3.359   5.892   3.373  0.6016 -2.5338  0.4930
 8473TIP3   OH225375   7.897   6.054   3.285 -0.4460 -0.0631  0.0743
 8473TIP3    H125376   7.842   6.023   3.213 -3.1012  0.7950  1.5969
 8473TIP3    H225377   7.891   6.150   3.280 -3.1597  0.0884  3.0196
 8474TIP3   OH225378   7.172   1.362   1.160 -0.3691  0.3384  0.4593
 8474TIP3    H125379   7.203   1.414   1.234  1.7118 -0.9766  0.5952
 8474TIP3    H225380   7.128   1.287   1.200  2.5488 -1.4881  0.6105
 8475TIP3   OH225381   1.058   3.587   5.231 -0.1309  0.3531  0.6721
 8475TIP3    H125382   0.997   3.660   5.236 -1.3083 -0.4707 -0.8710
 8475TIP3    H225383   1.065   3.567   5.138  1.5165 -0.4006  0.9224
 8476TIP3   OH225384   7.424   4.924   5.613  0.1560  0.0025  0.3518
 8476TIP3    H125385   7.387   4.877   5.688 -1.2146  2.9799  1.7121
 8476TIP3    H225386   7.516   4.936   5.635 -0.0863  0.2508  1.2704
 8477TIP3   OH225387   0.880   1.026   4.067 -0.0199 -0.4383 -0.5546
 8477TIP3    H125388   0.927   0.945   4.046  1.4128  0.1771  0.1168
 8477TIP3    H225389   0.821   1.002   4.138  1.1035 -0.7024  0.3149
 8478TIP3   OH225390   4.191   2.719   2.874  0.0251  0.8229 -0.8388
 8478TIP3    H125391   4.111   2.734   2.824 -0.1365  0.6836 -0.6220
 8478TIP3    H225392   4.226   2.807   2.890  0.7060  0.8304 -2.2070
 8479TIP3   OH225393   3.275   0.340   0.045  0.5419 -0.4163 -0.0678
 8479TIP3    H125394   3.253   0.263  -0.007  0.4681 -0.6586  0.3149
 8479TIP3    H225395   3.324   0.397  -0.015 -0.2925 -0.2998 -0.6482
 8480TIP3   OH225396   4.724   7.345   2.591  0.4703 -0.2382 -0.6304
 8480TIP3    H125397   4.810   7.303   2.590  0.6021  0.0245 -0.4941
 8480TIP3    H225398   4.683   7.312   2.671  1.7309  2.1581  1.1335
 8481TIP3   OH225399   7.830   4.161   3.730 -0.3706 -0.0443  0.3157
 8481TIP3    H125400   7.878   4.228   3.682 -0.6047 -2.2792 -3.5106
 8481TIP3    H225401   7.889   4.135   3.801  0.8946  2.1882  0.1612
 8482TIP3   OH225402   2.473   6.259   4.840 -0.5526 -1.0637 -0.0340
 8482TIP3    H125403   2.456   6.197   4.769  1.6770 -1.5087 -0.2643
 8482TIP3    H225404   2.398   6.250   4.898 -2.0144 -1.3384 -1.8681
 8483TIP3   OH225405   0.497   3.199   3.792 -0.2699 -0.3138  0.0678
 8483TIP3    H125406   0.453   3.256   3.855  0.5175 -1.1926  1.4496
 8483TIP3    H225407   0.503   3.114   3.835  0.7884 -0.7964 -0.9620
 8484TIP3   OH225408   5.066   6.767   3.557  0.0212 -0.3432 -0.6567
 8484TIP3    H125409   4.986   6.726   3.590  0.4662 -1.1782 -0.5970
 8484TIP3    H225410   5.118   6.695   3.522  1.1043  0.0648  0.0439
 8485TIP3   OH225411   3.232   5.827   3.071  0.1072  0.2622  0.9437
 8485TIP3    H125412   3.319   5.835   3.032  0.3156  0.4243  1.4313
 8485TIP3    H225413   3.174   5.805   2.998  0.2794  1.7305  0.3289
 8486TIP3   OH225414   1.678   5.075   5.539  0.1153 -0.0470 -0.4910
 8486TIP3    H125415   1.662   5.164   5.570  0.8382 -0.0887  0.0294
 8486TIP3    H225416   1.593   5.033   5.541  0.0262  0.1476  0.8277
 8487TIP3   OH225417   4.352   3.296   2.205  0.0382  0.0931  0.1892
 8487TIP3    H125418   4.335   3.225   2.266 -0.1118  0.8250  1.0193
 8487TIP3    H225419   4.438   3.329   2.228  0.0429  0.2831 -0.0849
 8488TIP3   OH225420   7.748   6.731   3.945  0.1175  0.1177 -0.3092
 8488TIP3    H125421   7.697   6.752   3.867  2.2609 -1.9136 -2.4144
 8488TIP3    H225422   7.838   6.756   3.922  0.9036 -1.0593  1.2964
 8489TIP3   OH225423   2.367   1.780   2.615 -0.7575  0.5015 -0.4921
 8489TIP3    H125424   2.321   1.778   2.699  0.3153 -0.1471  0.1072
 8489TIP3    H225425   2.450   1.825   2.635  0.6425 -1.8804 -0.5553
 8490TIP3   OH225426   1.785   5.108   0.494 -0.2472 -0.5885 -0.3892
 8490TIP3    H125427   1.707   5.085   0.545  0.0430  0.1193  0.4053
 8490TIP3    H225428   1.772   5.065   0.410 -1.0040 -1.3371  0.0899
 8491TIP3   OH225429   4.117   7.749   5.758  0.1485 -0.0865  0.4136
 8491TIP3    H125430   4.211   7.731   5.767  0.1583 -0.5923 -0.4931
 8491TIP3    H225431   4.106   7.840   5.785  1.4096  0.9679 -2.2964
 8492TIP3   OH225432   2.942   6.658   6.416 -0.5030  0.3565  0.0783
 8492TIP3    H125433   2.867   6.664   6.475 -0.0357  2.1551  0.5617
 8492TIP3    H225434   2.990   6.581   6.445 -0.5695  0.8931  1.7290
 8493TIP3   OH225435   7.710   1.227   0.816  0.7742  0.5386  0.5093
 8493TIP3    H125436   7.751   1.246   0.901  2.9702  1.9313 -0.7537
 8493TIP3    H225437   7.620   1.205   0.838  1.5556 -0.3731  3.2968
 8494TIP3   OH225438   0.687   5.659   3.813 -0.0895 -0.7360 -0.0822
 8494TIP3    H125439   0.619   5.622   3.757  1.9924  0.2523 -3.5940
 8494TIP3    H225440   0.753   5.589   3.819  0.2665 -0.3844  0.1223
 8495TIP3   OH225441   1.561   0.291   5.074 -0.1944  0.0858  0.2691
 8495TIP3    H125442   1.536   0.202   5.048  1.3552 -1.3218  3.1768
 8495TIP3    H225443   1.479   0.329   5.107 -0.7937 -0.3543 -0.6458
 8496TIP3   OH225444   6.076   1.522   2.634 -0.1308 -0.2253  0.0196
 8496TIP3    H125445   6.155   1.522   2.579 -0.2755 -1.4121 -0.2230
 8496TIP3    H225446   6.095   1.586   2.703  1.0222 -0.4508 -0.0674
 8497TIP3   OH225447   4.053   3.085   4.002 -0.1163  0.1803  0.3043
 8497TIP3    H125448   4.028   3.089   3.910 -1.8865 -1.8323  0.6167
 8497TIP3    H225449   4.148   3.076   4.001 -0.1361 -0.0676 -1.3363
 8498TIP3   OH225450   6.662   1.756   0.288 -0.2186 -0.1244  0.2506
 8498TIP3    H125451   6.703   1.715   0.364 -0.4008  0.1586  0.5044
 8498TIP3    H225452   6.716   1.833   0.269 -0.3258 -0.0446  0.2634
 8499TIP3   OH225453   0.105   2.106   3.726  0.0555  0.3455  0.0198
 8499TIP3    H125454   0.063   2.067   3.802  0.4798 -1.7342 -0.7268
 8499TIP3    H225455   0.192   2.132   3.756 -0.8505  2.4085  0.9665
 8500TIP3   OH225456   6.521   2.466   4.422  0.5249 -0.3333  0.7255
 8500TIP3    H125457   6.590   2.515   4.378  0.8619 -0.5399  1.0114
 8500TIP3    H225458   6.544   2.374   4.407 -0.1316 -0.4094  0.1449
 8501TIP3   OH225459   7.929   4.279   2.352 -0.9454 -0.0789 -0.8471
 8501TIP3    H125460   7.859   4.317   2.299 -1.7260  0.3500  0.4251
 8501TIP3    H225461   8.010   4.304   2.307 -1.5521  0.6834 -1.5589
 8502TIP3   OH225462   1.627   3.841   2.857  0.2499 -0.0362  0.8597
 8502TIP3    H125463   1.593   3.835   2.768  0.2024 -0.4660  0.9041
 8502TIP3    H225464   1.717   3.808   2.850 -0.1661 -1.2873  1.1984
 8503TIP3   OH225465   4.080   3.133   1.309 -0.2021 -0.1946  0.0729
 8503TIP3    H125466   4.025   3.171   1.240 -1.5811 -1.9513  0.1408
 8503TIP3    H225467   4.138   3.204   1.335 -1.8955  1.4990 -0.5761
 8504TIP3   OH225468   0.742   0.606   1.944  0.0630 -0.1033 -0.6903
 8504TIP3    H125469   0.697   0.676   1.991 -0.6510 -1.0270  0.0297
 8504TIP3    H225470   0.692   0.527   1.964  2.9937 -1.5480  1.6848
 8505TIP3   OH225471   3.178   2.344   5.830  0.5900 -0.2253 -0.4135
 8505TIP3    H125472   3.135   2.429   5.827 -0.6399 -0.8009  0.3585
 8505TIP3    H225473   3.191   2.320   5.738 -3.1287 -1.1748 -0.8569
 8506TIP3   OH225474   5.819   5.644   0.536  0.3126 -0.1813  0.1651
 8506TIP3    H125475   5.811   5.659   0.441  1.1318 -0.1429  0.0979
 8506TIP3    H225476   5.869   5.719   0.568 -0.7789  0.3027  0.7936
 8507TIP3   OH225477   0.584   5.889   5.291  0.2249  0.4177 -0.4584
 8507TIP3    H125478   0.556   5.799   5.306 -2.4151  0.5374 -3.5486
 8507TIP3    H225479   0.609   5.892   5.198 -1.4752  3.1292 -0.9687
 8508TIP3   OH225480   2.915   4.353   5.526 -0.0998 -0.4333 -0.6140
 8508TIP3    H125481   2.910   4.272   5.577 -0.5600 -0.4261 -0.6423
 8508TIP3    H225482   2.971   4.331   5.452 -0.3617 -0.7798 -0.7128
 8509TIP3   OH225483   7.963   6.658   4.194  0.4614  0.6356  0.0537
 8509TIP3    H125484   7.924   6.725   4.138 -0.9563  1.4711  1.8981
 8509TIP3    H225485   7.896   6.589   4.199  0.3448  0.7964  1.0386
 8510TIP3   OH225486   1.355   2.235   3.174 -0.4886  0.8951 -0.2876
 8510TIP3    H125487   1.270   2.236   3.217 -0.9274  0.2987 -1.1094
 8510TIP3    H225488   1.340   2.187   3.093  0.6791  0.6112 -0.3524
 8511TIP3   OH225489   6.415   5.003   4.072  0.2988  0.3580  0.6373
 8511TIP3    H125490   6.351   4.968   4.133 -0.8527  0.3215 -0.5415
 8511TIP3    H225491   6.481   4.934   4.064 -0.0007  0.0103  1.1582
 8512TIP3   OH225492   8.253   5.817   1.190 -0.0060  0.3097 -0.3911
 8512TIP3    H125493   8.216   5.906   1.184  0.0848  0.4092  0.3663
 8512TIP3    H225494   8.182   5.765   1.229 -0.4394 -0.1989 -1.8051
 8513TIP3   OH225495   0.589   6.294   6.638  1.0265  0.1305 -0.0093
 8513TIP3    H125496   0.543   6.323   6.560  0.6398  0.1477  0.2226
 8513TIP3    H225497   0.681   6.312   6.620  0.9285  0.2152 -0.4231
 8514TIP3   OH225498   3.007   4.815   6.742  0.0856 -0.3971  0.6056
 8514TIP3    H125499   3.041   4.757   6.673  1.1850  1.0387 -0.1166
 8514TIP3    H225500   2.930   4.856   6.702 -0.5308 -1.1270  1.0189
 8515TIP3   OH225501   7.194   0.516   0.578 -0.0379  0.3290  0.4011
 8515TIP3    H125502   7.211   0.422   0.588 -0.6488  0.3267  1.6778
 8515TIP3    H225503   7.136   0.522   0.502 -0.0357 -0.3266  0.3438
 8516TIP3   OH225504   3.599   4.897   1.841 -0.5931 -0.2179 -0.4757
 8516TIP3    H125505   3.630   4.973   1.791 -0.0589 -1.1855 -1.6466
 8516TIP3    H225506   3.508   4.917   1.860  0.0567  1.6460  1.0498
 8517TIP3   OH225507   2.639   1.045   1.642  0.0950  0.7054 -0.0743
 8517TIP3    H125508   2.550   1.012   1.653 -0.1411  1.5429  0.5991
 8517TIP3    H225509   2.657   1.092   1.723  1.2908  0.2445 -0.0492
 8518TIP3   OH225510   5.937   6.641   4.133  0.5652  0.2930 -0.0937
 8518TIP3    H125511   5.946   6.700   4.208 -2.2507  0.9343 -0.1572
 8518TIP3    H225512   5.926   6.699   4.058  0.7521 -0.3477 -0.6272
 8519TIP3   OH225513   1.620   6.835   5.713 -0.6914  0.0105  0.1311
 8519TIP3    H125514   1.709   6.870   5.711 -0.7805  0.2059 -0.6671
 8519TIP3    H225515   1.566   6.910   5.740 -0.4865 -0.4274  1.8857
 8520TIP3   OH225516   0.517   2.092   0.272  0.1674  0.6134  0.6665
 8520TIP3    H125517   0.474   2.102   0.357 -0.2484  0.7410  0.4420
 8520TIP3    H225518   0.598   2.142   0.280  0.1332  0.6206  0.9873
 8521TIP3   OH225519   3.346   3.944   1.338  0.0723 -0.3411 -0.0902
 8521TIP3    H125520   3.320   3.917   1.426 -1.1430 -1.9307 -0.8861
 8521TIP3    H225521   3.267   3.983   1.300  0.3245 -0.4913 -0.7843
 8522TIP3   OH225522   1.622   2.930   6.057 -0.1856  0.1515  0.2870
 8522TIP3    H125523   1.622   2.853   6.000  0.3708  0.4556 -0.1264
 8522TIP3    H225524   1.568   2.903   6.132 -0.7399 -0.3269 -0.2675
 8523TIP3   OH225525   3.579   4.797   0.969 -0.2931  0.2615 -0.1835
 8523TIP3    H125526   3.637   4.730   1.005  0.5076  1.1197  0.1639
 8523TIP3    H225527   3.492   4.756   0.968  0.1926 -0.7960 -0.0563
 8524TIP3   OH225528   5.634   0.144   0.521  0.3270 -0.1433 -0.5215
 8524TIP3    H125529   5.707   0.116   0.465  0.3422 -1.0376 -0.0736
 8524TIP3    H225530   5.586   0.063   0.540 -0.6472  0.3985 -0.6104
 8525TIP3   OH225531   5.001   7.508   3.270 -0.4060  0.1938 -0.1921
 8525TIP3    H125532   5.075   7.473   3.319 -0.4062  0.1397 -0.2302
 8525TIP3    H225533   5.029   7.503   3.178 -0.2569  0.6440 -0.1723
 8526TIP3   OH225534   7.247   3.833   5.635 -0.0768 -0.0959 -0.4662
 8526TIP3    H125535   7.187   3.897   5.675  1.1446  0.9771 -0.2763
 8526TIP3    H225536   7.273   3.874   5.552  0.1490 -0.6919 -0.6900
 8527TIP3   OH225537   4.922   0.394   0.790 -0.0073 -0.4895 -0.1563
 8527TIP3    H125538   4.854   0.371   0.727 -1.1316 -0.1983  0.9015
 8527TIP3    H225539   4.919   0.323   0.855 -0.9506  0.6905  1.1518
 8528TIP3   OH225540   3.212   7.067   1.007  0.5452 -0.0347 -0.0632
 8528TIP3    H125541   3.145   7.134   0.998  0.6712  0.1215  0.1290
 8528TIP3    H225542   3.174   6.989   0.968 -0.6957 -0.6079  2.1130
 8529TIP3   OH225543   7.400   0.430   4.968  0.1854 -0.5878 -0.2895
 8529TIP3    H125544   7.435   0.421   5.057 -2.5297  0.5634  1.0264
 8529TIP3    H225545   7.329   0.367   4.964 -1.8343  1.5610 -0.4055
 8530TIP3   OH225546   0.883   1.981   6.686  0.3837  0.2326 -0.3332
 8530TIP3    H125547   0.849   1.929   6.613 -0.0331  0.8532 -0.5892
 8530TIP3    H225548   0.906   2.065   6.647 -0.5081  0.8222  0.3776
 8531TIP3   OH225549   0.472   2.605   3.843 -0.5997  0.4060  0.0270
 8531TIP3    H125550   0.542   2.573   3.900  0.0145 -0.7211 -1.2923
 8531TIP3    H225551   0.392   2.599   3.896 -0.0868 -0.8108  0.6965
 8532TIP3   OH225552   6.774   7.290   6.104  0.0968  0.3871  0.0174
 8532TIP3    H125553   6.836   7.335   6.047  0.3617  2.2341  1.6410
 8532TIP3    H225554   6.817   7.208   6.127  1.6461  1.3036  0.5200
 8533TIP3   OH225555   5.299   5.620   6.597 -0.1797 -0.0251  0.6102
 8533TIP3    H125556   5.317   5.570   6.677 -1.1371  0.3019  1.0412
 8533TIP3    H225557   5.263   5.703   6.629 -3.1938 -0.9258 -0.1923
 8534TIP3   OH225558   2.671   0.428   0.543 -0.1379 -0.3990  0.2357
 8534TIP3    H125559   2.710   0.347   0.577  0.9568  0.0071 -0.0097
 8534TIP3    H225560   2.665   0.414   0.448  0.4152 -0.0437  0.1473
 8535TIP3   OH225561   6.543   1.552   5.899 -0.7974  0.1950 -0.1045
 8535TIP3    H125562   6.633   1.576   5.921 -0.4010 -3.0960  2.6326
 8535TIP3    H225563   6.489   1.600   5.961 -0.8331  0.9438 -0.7001
 8536TIP3   OH225564   6.574   0.571   2.803  0.3871 -0.1025  0.1566
 8536TIP3    H125565   6.569   0.487   2.849 -0.4907  0.1299  0.5080
 8536TIP3    H225566   6.616   0.550   2.719  0.6381 -0.7962  0.4469
 8537TIP3   OH225567   4.202   7.400   0.150 -0.5879 -0.7190  0.3663
 8537TIP3    H125568   4.260   7.327   0.128  0.8555  0.6395 -0.5612
 8537TIP3    H225569   4.160   7.374   0.232  2.2190 -1.3275  1.7450
 8538TIP3   OH225570   6.864   3.637   3.096  0.7559  0.2468 -0.0585
 8538TIP3    H125571   6.948   3.602   3.068  0.8785 -0.0314  0.6384
 8538TIP3    H225572   6.805   3.562   3.096  0.8617  0.1469  0.8087
 8539TIP3   OH225573   0.727   7.262   2.850  0.1777 -0.4360  0.1144
 8539TIP3    H125574   0.656   7.326   2.845  0.8385  0.2505 -0.8543
 8539TIP3    H225575   0.722   7.214   2.767  0.1432 -1.1620  0.5248
 8540TIP3   OH225576   1.520   1.666   6.738 -0.1554  0.1188 -0.6783
 8540TIP3    H125577   1.448   1.636   6.793  0.4754 -0.2826 -0.0678
 8540TIP3    H225578   1.480   1.731   6.680 -1.0318 -0.1871 -0.4268
 8541TIP3   OH225579   7.265   2.027   2.650  0.1171 -0.1655  0.0069
 8541TIP3    H125580   7.294   1.967   2.718 -0.5582 -0.0787  0.3895
 8541TIP3    H225581   7.343   2.075   2.624  0.9777 -2.1692 -1.3265
 8542TIP3   OH225582   2.208   3.463   4.940  0.2172  0.2936  0.5144
 8542TIP3    H125583   2.253   3.469   4.855 -1.3882  1.3880 -0.3248
 8542TIP3    H225584   2.199   3.369   4.955  1.5966  0.0613  0.0927
 8543TIP3   OH225585   7.755   2.063   6.236 -0.5857  0.4430 -0.2670
 8543TIP3    H125586   7.688   2.093   6.175 -1.3100  2.1690  1.2821
 8543TIP3    H225587   7.719   2.081   6.323  1.0096 -0.5829  0.6728
 8544TIP3   OH225588   4.140   1.936   2.034 -0.0460  0.4975  0.1855
 8544TIP3    H125589   4.130   1.981   2.119 -1.7181  2.3838 -0.9245
 8544TIP3    H225590   4.092   1.854   2.045  0.8419  0.0985  1.4250
 8545TIP3   OH225591   2.379   0.523   1.369 -0.2885 -0.6320 -0.2650
 8545TIP3    H125592   2.292   0.527   1.330 -0.0218 -1.3266 -0.9610
 8545TIP3    H225593   2.394   0.430   1.385 -0.7709 -0.3188  2.4398
 8546TIP3   OH225594   0.336   4.452   3.930 -0.4982  0.0915  0.3562
 8546TIP3    H125595   0.279   4.518   3.968  0.3195  1.4930 -0.7311
 8546TIP3    H225596   0.405   4.503   3.886 -0.3126 -1.4569 -1.2450
 8547TIP3   OH225597   8.262   5.428   6.223  0.1034  0.1555  0.1674
 8547TIP3    H125598   8.301   5.465   6.144  1.1663 -0.9870  0.1280
 8547TIP3    H225599   8.252   5.503   6.282  1.8651  0.5913 -0.0346
 8548TIP3   OH225600   3.800   3.493   3.549  0.4389  0.1576  0.2198
 8548TIP3    H125601   3.887   3.455   3.537  0.2224 -0.3654  0.2582
 8548TIP3    H225602   3.795   3.562   3.483  1.7202  1.7393  1.6868
 8549TIP3   OH225603   7.154   3.038   2.415 -0.3656  0.0246 -0.0918
 8549TIP3    H125604   7.086   2.984   2.375 -0.4720  0.0732  0.0225
 8549TIP3    H225605   7.112   3.124   2.427 -0.1160  0.2136 -0.5187
 8550TIP3   OH225606   1.898   2.520   4.525 -0.1884  0.1051  0.3500
 8550TIP3    H125607   1.977   2.515   4.579 -0.3141  0.9070  0.6233
 8550TIP3    H225608   1.904   2.445   4.466  1.7039  1.0971 -0.8456
 8551TIP3   OH225609   5.256   2.879   1.736  0.5404  0.0212 -0.0607
 8551TIP3    H125610   5.164   2.858   1.725 -0.5905  2.9501  2.2429
 8551TIP3    H225611   5.290   2.891   1.647 -1.3368 -0.8938 -0.9426
 8552TIP3   OH225612   2.914   3.163   3.161 -0.2289 -0.2546  0.2931
 8552TIP3    H125613   2.827   3.145   3.125 -0.5044  2.6754 -0.7757
 8552TIP3    H225614   2.971   3.167   3.085  0.3941  0.0419  0.7683
 8553TIP3   OH225615   1.363   7.253   0.944  0.1474 -0.1998  0.3817
 8553TIP3    H125616   1.292   7.273   0.882  1.6582 -0.8691 -1.6583
 8553TIP3    H225617   1.342   7.306   1.021 -2.6479 -0.5036 -0.0560
 8554TIP3   OH225618   7.541   7.642   6.625  0.3079  0.0598 -0.1708
 8554TIP3    H125619   7.538   7.731   6.589  0.7517 -0.0166 -0.3942
 8554TIP3    H225620   7.508   7.652   6.714 -1.8106  0.0930 -0.8775
 8555TIP3   OH225621   6.425   6.591   4.821  0.4829 -0.0582  0.0358
 8555TIP3    H125622   6.404   6.571   4.913 -0.2517 -2.7657 -0.6110
 8555TIP3    H225623   6.342   6.621   4.784  0.1650 -1.2102 -0.2343
 8556TIP3   OH225624   2.196   3.506   2.266 -0.8995  0.2816  0.4532
 8556TIP3    H125625   2.165   3.480   2.180 -1.0751 -1.6272  1.0526
 8556TIP3    H225626   2.198   3.602   2.263 -2.0056  0.2902 -1.2711
 8557TIP3   OH225627   4.110   2.960   5.430  0.0088 -0.2476  0.4865
 8557TIP3    H125628   4.155   3.005   5.359  1.7677 -1.4536  0.7860
 8557TIP3    H225629   4.025   3.004   5.437  0.8866  1.6866 -0.5141
 8558TIP3   OH225630   7.190   3.530   2.259 -0.5219 -0.1573 -0.4087
 8558TIP3    H125631   7.267   3.505   2.207 -0.6466  0.0023 -0.6725
 8558TIP3    H225632   7.194   3.625   2.262  0.0903 -0.1985  0.8027
 8559TIP3   OH225633   7.170   0.521   5.999  0.5020 -0.0070  0.5027
 8559TIP3    H125634   7.175   0.462   6.074 -0.2944 -0.6136  0.0975
 8559TIP3    H225635   7.165   0.608   6.037  1.2991 -0.2178  1.1229
 8560TIP3   OH225636   0.206   5.424   5.107 -0.0720 -0.2491  0.3225
 8560TIP3    H125637   0.139   5.444   5.041  2.3350 -1.1212 -2.5947
 8560TIP3    H225638   0.156   5.409   5.187 -3.3206 -0.3221 -1.5243
 8561TIP3   OH225639   0.217   5.492   0.121  0.3013 -0.1092  0.4367
 8561TIP3    H125640   0.138   5.534   0.087  0.0134 -1.1758 -0.2657
 8561TIP3    H225641   0.273   5.483   0.044  1.2326  0.8601  0.9724
 8562TIP3   OH225642   8.114   7.258   1.195 -0.5561 -0.0494  0.0178
 8562TIP3    H125643   8.151   7.346   1.187 -0.5246  0.1713  2.1312
 8562TIP3    H225644   8.027   7.265   1.157 -0.0757  0.5246 -1.0467
 8563TIP3   OH225645   8.284   5.876   0.092  0.6248  0.3514  0.0612
 8563TIP3    H125646   8.327   5.960   0.081  0.4622  0.3442 -0.7304
 8563TIP3    H225647   8.192   5.897   0.108  0.8840  0.3632  1.6309
 8564TIP3   OH225648   8.021   5.593   6.580 -0.2069  0.2191 -0.0519
 8564TIP3    H125649   8.077   5.646   6.637  0.9035 -1.9436  0.9912
 8564TIP3    H225650   8.074   5.576   6.502 -0.3376  0.1547 -0.1287
 8565TIP3   OH225651   0.546   1.005   4.414  0.3711  0.6730 -0.1779
 8565TIP3    H125652   0.517   0.978   4.327  0.9469  0.4896 -0.3205
 8565TIP3    H225653   0.588   0.927   4.450  0.3357  0.8172  0.1745
 8566TIP3   OH225654   1.951   5.376   2.245 -0.3683 -0.2605  0.0609
 8566TIP3    H125655   2.029   5.320   2.246  0.2869  0.6330  1.0202
 8566TIP3    H225656   1.893   5.335   2.180  0.4556 -1.5309  0.0868
 8567TIP3   OH225657   0.207   2.656   6.632  0.5873 -0.4028 -0.0239
 8567TIP3    H125658   0.237   2.572   6.597 -0.9802 -0.4362 -1.4303
 8567TIP3    H225659   0.126   2.635   6.678  0.5932  0.2295  0.2908
 8568TIP3   OH225660   8.184   0.443   3.165  0.0966  0.2026  0.0203
 8568TIP3    H125661   8.104   0.427   3.215  0.5542  0.7437  0.9441
 8568TIP3    H225662   8.157   0.433   3.074 -1.4150  1.9094  0.2209
 8569TIP3   OH225663   0.399   4.299   0.414  0.0793 -0.2408  0.4183
 8569TIP3    H125664   0.433   4.231   0.472 -1.8238 -1.0021  0.7112
 8569TIP3    H225665   0.338   4.349   0.468  0.3784  0.8246 -0.1916
 8570TIP3   OH225666   2.187   5.344   4.857 -0.0745  0.1707 -0.7373
 8570TIP3    H125667   2.227   5.355   4.770  0.0345 -1.8936 -1.0004
 8570TIP3    H225668   2.195   5.430   4.898  2.5387  0.4717 -1.6697
 8571TIP3   OH225669   7.796   1.201   5.545  0.3215 -0.0270 -0.0171
 8571TIP3    H125670   7.859   1.192   5.473 -0.3803 -2.0286 -0.4602
 8571TIP3    H225671   7.840   1.255   5.610  1.4370  0.8499 -1.4421
 8572TIP3   OH225672   5.497   1.250   4.596  0.0104 -0.4933 -0.2239
 8572TIP3    H125673   5.592   1.253   4.608  0.0461 -1.7022 -0.0852
 8572TIP3    H225674   5.467   1.183   4.658 -0.8948 -0.3647 -0.5012
 8573TIP3   OH225675   3.244   5.839   0.834 -0.5080 -0.3161  0.4379
 8573TIP3    H125676   3.167   5.815   0.783  1.1859 -0.5348 -2.2827
 8573TIP3    H225677   3.261   5.764   0.890 -0.2095 -1.9537 -1.6894
 8574TIP3   OH225678   5.283   0.812   3.582 -0.3864  0.0811  0.1688
 8574TIP3    H125679   5.312   0.808   3.491  1.1432  3.0612  0.4030
 8574TIP3    H225680   5.214   0.746   3.588 -0.4131 -0.3422 -3.0782
 8575TIP3   OH225681   5.685   0.420   1.406 -0.3272  0.2082 -0.1732
 8575TIP3    H125682   5.652   0.352   1.464 -1.8381  0.0730 -1.1530
 8575TIP3    H225683   5.750   0.376   1.352 -1.2540 -0.4624 -0.7642
 8576TIP3   OH225684   3.350   4.825   4.415  0.3968  0.6876 -0.2199
 8576TIP3    H125685   3.348   4.860   4.504  0.2258 -0.7644  0.3787
 8576TIP3    H225686   3.276   4.867   4.371 -0.8638 -0.1526  0.9865
 8577TIP3   OH225687   2.244   6.049   0.631 -0.3583  0.8543  0.0771
 8577TIP3    H125688   2.260   5.955   0.637 -0.0349  0.7995 -1.2898
 8577TIP3    H225689   2.331   6.088   0.631 -0.4535  1.0756 -0.3572
 8578TIP3   OH225690   0.142   0.388   2.998  0.0111 -0.4358  0.2684
 8578TIP3    H125691   0.176   0.383   2.909 -0.1834  0.3543  0.1493
 8578TIP3    H225692   0.047   0.392   2.988  0.0318  0.9721  0.4397
 8579TIP3   OH225693   6.108   4.547   4.350 -0.4123  0.4689 -0.0523
 8579TIP3    H125694   6.119   4.508   4.436 -1.8114 -1.8330 -0.8216
 8579TIP3    H225695   6.016   4.572   4.346 -1.5137 -3.2231 -2.1843
 8580TIP3   OH225696   0.204   3.615   2.901  0.3674  0.4669  0.2719
 8580TIP3    H125697   0.152   3.560   2.960  0.8156 -0.5817 -0.2928
 8580TIP3    H225698   0.160   3.607   2.816 -1.4453  3.4956  0.7565
 8581TIP3   OH225699   3.190   4.187   2.791  0.4286 -0.1381  0.2697
 8581TIP3    H125700   3.103   4.166   2.825  0.3910 -1.3275 -0.4897
 8581TIP3    H225701   3.187   4.280   2.772 -0.2547  0.0980  1.4472
 8582TIP3   OH225702   2.122   1.329   5.347  0.4847  0.6965 -0.0019
 8582TIP3    H125703   2.204   1.376   5.335  0.1890  1.0702 -0.5729
 8582TIP3    H225704   2.109   1.281   5.265  0.5301  0.0138  0.3842
 8583TIP3   OH225705   2.543   1.046   6.168  0.2259 -0.0634 -0.1975
 8583TIP3    H125706   2.543   1.088   6.254  0.1589  0.4243 -0.4355
 8583TIP3    H225707   2.627   1.069   6.129  0.1646 -0.0987 -0.3536
 8584TIP3   OH225708   4.677   3.314   0.969  0.1027  0.1621 -0.0740
 8584TIP3    H125709   4.736   3.321   0.894 -2.6974  0.3421 -2.4504
 8584TIP3    H225710   4.692   3.393   1.020  1.0281  0.8073 -1.3050
 8585TIP3   OH225711   5.011   6.084   2.044  0.1751  0.2063  0.0537
 8585TIP3    H125712   5.069   6.154   2.017 -0.2452 -0.0703 -1.6659
 8585TIP3    H225713   5.069   6.008   2.057  0.3443  0.2455 -0.4659
 8586TIP3   OH225714   1.028   5.225   5.303  0.0270 -0.0109 -0.4981
 8586TIP3    H125715   1.049   5.292   5.368 -1.0006 -0.8840  0.7840
 8586TIP3    H225716   0.947   5.255   5.261 -0.2328 -0.2748 -0.1835
 8587TIP3   OH225717   8.063   3.951   5.134 -0.2289  0.2407  0.1234
 8587TIP3    H125718   7.993   3.900   5.094 -0.3208  0.6926 -0.3022
 8587TIP3    H225719   8.062   4.034   5.087 -0.4723  0.8706  1.2110
 8588TIP3   OH225720   5.810   1.730   4.348 -0.5412  0.1948  0.0679
 8588TIP3    H125721   5.757   1.677   4.407 -1.2223 -0.8979 -1.4304
 8588TIP3    H225722   5.852   1.665   4.291  3.1787  0.8980  1.6909
 8589TIP3   OH225723   5.889   5.913   3.386 -0.3900  0.6184 -0.1284
 8589TIP3    H125724   5.978   5.932   3.358  0.1969 -1.7346 -0.0876
 8589TIP3    H225725   5.843   5.892   3.304 -0.5582  0.5302 -0.0115
 8590TIP3   OH225726   6.085   5.245   4.639 -0.0375  0.2177  0.1689
 8590TIP3    H125727   6.117   5.276   4.723  0.1519 -2.3401  1.1263
 8590TIP3    H225728   6.128   5.161   4.626 -3.4164 -1.6003 -0.3006
 8591TIP3   OH225729   5.162   1.601   4.038  0.1077 -0.1047  0.1273
 8591TIP3    H125730   5.127   1.579   4.125  1.5683  1.1851  1.1071
 8591TIP3    H225731   5.240   1.547   4.030  2.0101  2.2869  1.2521
 8592TIP3   OH225732   1.807   0.702   0.328 -0.1740  0.4070 -0.7638
 8592TIP3    H125733   1.864   0.625   0.325 -0.8374 -0.1117 -0.2359
 8592TIP3    H225734   1.863   0.771   0.366  0.0765 -0.1169 -0.1655
 8593TIP3   OH225735   3.501   0.567   3.193  0.2367  0.2063  0.8036
 8593TIP3    H125736   3.447   0.522   3.257 -1.7162  0.0413 -0.8663
 8593TIP3    H225737   3.525   0.498   3.130 -0.3247  0.9096 -0.2006
 8594TIP3   OH225738   5.663   1.869   1.454 -0.2006  0.0667  1.0475
 8594TIP3    H125739   5.585   1.923   1.469 -0.2097  0.5907 -0.6876
 8594TIP3    H225740   5.736   1.929   1.465 -0.1737  0.2454 -0.0130
 8595TIP3   OH225741   5.143   4.748   1.973 -0.5212 -0.2307 -0.3224
 8595TIP3    H125742   5.152   4.820   2.037  2.3290 -1.4023  0.7803
 8595TIP3    H225743   5.197   4.677   2.010 -0.9910 -1.9416 -2.7312
 8596TIP3   OH225744   0.342   0.941   5.518  0.1035  0.1490 -0.1145
 8596TIP3    H125745   0.415   1.004   5.517  0.6494 -0.4661 -0.4428
 8596TIP3    H225746   0.330   0.918   5.426 -0.1549 -0.1462 -0.0084
 8597TIP3   OH225747   4.715   6.535   0.270 -0.5392 -0.5095  0.4543
 8597TIP3    H125748   4.708   6.445   0.237 -1.3493 -1.3177  2.6101
 8597TIP3    H225749   4.629   6.573   0.254  0.0836  0.2581 -1.3103
 8598TIP3   OH225750   3.859   0.009   2.593 -0.1357  0.4469 -0.0765
 8598TIP3    H125751   3.821  -0.025   2.511  0.1925  0.9007 -0.4217
 8598TIP3    H225752   3.951   0.023   2.573 -0.4489  2.5785 -0.3115
 8599TIP3   OH225753   6.765   6.372   1.992 -0.6794 -0.1108  0.7518
 8599TIP3    H125754   6.798   6.461   1.979 -0.3671 -0.4786 -1.2436
 8599TIP3    H225755   6.725   6.348   1.909  0.4743 -2.3327  0.7449
 8600TIP3   OH225756   5.094   6.835   4.026 -0.4262  0.8362  0.6590
 8600TIP3    H125757   5.022   6.862   3.968 -0.6043  0.2924  0.6149
 8600TIP3    H225758   5.159   6.904   4.017 -0.9181  1.3099  0.6538
 8601TIP3   OH225759   8.154   0.973   5.308 -0.4231  0.4020  0.0334
 8601TIP3    H125760   8.203   1.052   5.285 -1.1436  0.2905 -2.0816
 8601TIP3    H225761   8.181   0.908   5.243 -2.7296  0.1031 -0.6945
 8602TIP3   OH225762   3.556   3.124   3.977  0.8258  0.8466  0.2049
 8602TIP3    H125763   3.545   3.216   4.004  1.8414  0.6922  1.2317
 8602TIP3    H225764   3.572   3.077   4.059 -0.9296 -0.4849 -0.1533
 8603TIP3   OH225765   2.788   5.851   5.208  0.0196 -0.3349 -0.2401
 8603TIP3    H125766   2.829   5.769   5.236  0.7319  0.7282  2.0502
 8603TIP3    H225767   2.791   5.907   5.285 -0.7577  1.7493 -1.6408
 8604TIP3   OH225768   7.110   5.104   5.383 -0.1458  0.4534  0.1618
 8604TIP3    H125769   7.103   5.011   5.362 -2.2639  0.6478 -0.2475
 8604TIP3    H225770   7.135   5.146   5.301 -0.3628  0.3662  0.0511
 8605TIP3   OH225771   8.254   0.048   1.298 -0.0314 -0.2660  0.0518
 8605TIP3    H125772   8.227   0.122   1.352  1.7608  1.3669 -1.1902
 8605TIP3    H225773   8.345   0.032   1.322 -0.4262 -2.2158  0.4080
 8606TIP3   OH225774   4.664   7.195   4.433 -0.0637  0.1853 -0.0495
 8606TIP3    H125775   4.582   7.170   4.390 -1.1517  0.9292  1.5319
 8606TIP3    H225776   4.716   7.114   4.434 -0.1453  0.0294 -2.3193
 8607TIP3   OH225777   2.719   7.702   1.884  0.5122  0.0442 -0.1762
 8607TIP3    H125778   2.692   7.637   1.949  0.6820 -1.1441 -1.2460
 8607TIP3    H225779   2.645   7.708   1.824  0.1978  1.4265  0.3176
 8608TIP3   OH225780   6.904   3.632   2.598 -0.2143 -0.2684  0.0135
 8608TIP3    H125781   6.818   3.670   2.613 -0.2550 -1.0684  2.1906
 8608TIP3    H225782   6.904   3.552   2.650  1.2072 -1.2766 -1.4351
 8609TIP3   OH225783   2.499   5.527   4.405 -0.2896 -0.7252 -0.3350
 8609TIP3    H125784   2.537   5.512   4.491 -0.0967  0.2705 -0.2275
 8609TIP3    H225785   2.490   5.623   4.399 -1.0019 -0.8264 -1.1177
 8610TIP3   OH225786   1.387   7.777   3.894  0.4582 -0.2208 -0.0556
 8610TIP3    H125787   1.316   7.800   3.953 -0.2466 -2.7556  0.1849
 8610TIP3    H225788   1.459   7.836   3.919 -0.8029  0.8400  1.2247
 8611TIP3   OH225789   6.929   4.224   6.574  0.4517  0.2302 -0.5344
 8611TIP3    H125790   6.854   4.274   6.543  0.9221  1.8034  0.6925
 8611TIP3    H225791   7.004   4.259   6.525  0.6746  0.1789 -0.2353
 8612TIP3   OH225792   6.815   5.575   3.443  0.6595 -0.0021 -0.5037
 8612TIP3    H125793   6.732   5.620   3.427 -1.2046 -2.6906  0.8502
 8612TIP3    H225794   6.808   5.543   3.533  2.6621 -1.3011 -0.7535
 8613TIP3   OH225795   3.599   6.267   2.788  0.7768 -0.4692  0.0060
 8613TIP3    H125796   3.684   6.306   2.770 -0.4220  2.0097 -0.6806
 8613TIP3    H225797   3.567   6.238   2.703  0.9885 -1.5695  0.2894
 8614TIP3   OH225798   5.951   1.971   2.801  0.0112  0.4178  0.0790
 8614TIP3    H125799   5.884   2.037   2.820  1.4731  1.7264  0.8177
 8614TIP3    H225800   5.920   1.893   2.848 -0.4464  1.3346  1.3799
 8615TIP3   OH225801   4.573   3.239   1.282 -0.0593 -0.1409  0.1752
 8615TIP3    H125802   4.661   3.226   1.316 -0.5825 -2.7620  0.7250
 8615TIP3    H225803   4.585   3.260   1.190  1.1459 -0.8351  0.1608
 8616TIP3   OH225804   6.002   1.151   4.136  0.2617  0.4350  0.5168
 8616TIP3    H125805   5.970   1.167   4.047 -1.5128  0.0086  1.0551
 8616TIP3    H225806   6.048   1.067   4.130 -0.7718 -0.1170  0.2151
 8617TIP3   OH225807   1.519   3.372   4.906 -0.5229 -0.3640 -0.1935
 8617TIP3    H125808   1.558   3.296   4.862  0.2569  0.0981 -0.3075
 8617TIP3    H225809   1.544   3.362   4.998 -1.8448 -1.1318  0.1180
 8618TIP3   OH225810   0.779   2.868   5.766 -0.6044  0.2903  0.0972
 8618TIP3    H125811   0.732   2.952   5.763  1.0230  1.2287 -0.7983
 8618TIP3    H225812   0.872   2.893   5.772 -0.1584 -1.4818  1.3436
 8619TIP3   OH225813   4.680   0.120   0.858  0.5287 -0.5049  0.0388
 8619TIP3    H125814   4.643   0.208   0.850  0.4198 -0.4879  0.6833
 8619TIP3    H225815   4.621   0.075   0.918  1.6582 -0.4082  1.2636
 8620TIP3   OH225816   4.453   1.050   2.448 -0.7356 -0.0375 -0.2691
 8620TIP3    H125817   4.517   0.995   2.404 -0.6814  0.0462 -0.2942
 8620TIP3    H225818   4.382   0.990   2.472 -0.8333 -0.0590 -0.6013
 8621TIP3   OH225819   1.464   0.627   1.496  0.4181  0.4652  0.1365
 8621TIP3    H125820   1.394   0.577   1.452 -0.1033  2.4713 -1.4687
 8621TIP3    H225821   1.514   0.560   1.544 -0.9207 -1.4149 -0.9210
 8622TIP3   OH225822   2.225   2.537   4.355 -0.1274  0.5345 -0.3790
 8622TIP3    H125823   2.187   2.619   4.324 -0.1918  0.2317 -1.1351
 8622TIP3    H225824   2.191   2.526   4.444  1.4311  2.3019  0.5124
 8623TIP3   OH225825   6.731   6.294   4.066 -0.0130 -0.3933 -0.4170
 8623TIP3    H125826   6.759   6.370   4.014  0.3921 -1.0870 -1.2440
 8623TIP3    H225827   6.692   6.235   4.002  1.5652 -1.7903 -0.1748
 8624TIP3   OH225828   7.583   4.818   6.028  0.0599  0.1128 -0.1384
 8624TIP3    H125829   7.598   4.820   5.934  1.0660  1.3430  0.0234
 8624TIP3    H225830   7.510   4.878   6.042  1.8495  2.3463  0.1358
 8625TIP3   OH225831   0.785   6.751   5.604 -0.2315  0.2300 -0.1237
 8625TIP3    H125832   0.729   6.681   5.638  0.9328 -0.7799 -0.2209
 8625TIP3    H225833   0.811   6.801   5.682 -0.6806  0.2708  0.0036
 8626TIP3   OH225834   6.052   4.394   3.865  0.4904 -0.0452  0.2145
 8626TIP3    H125835   6.064   4.335   3.791  0.2488  0.7366 -0.4603
 8626TIP3    H225836   6.101   4.353   3.937 -0.0948 -1.3182 -0.0901
 8627TIP3   OH225837   6.342   5.040   1.916 -0.3429 -0.3645  0.0292
 8627TIP3    H125838   6.367   5.131   1.933 -0.1900 -0.7392  2.1377
 8627TIP3    H225839   6.255   5.032   1.954 -1.2450 -0.6044 -2.0001
 8628TIP3   OH225840   2.087   0.978   4.318  0.3832  0.1466  0.1560
 8628TIP3    H125841   2.139   1.020   4.387 -0.7211 -0.9108  1.6989
 8628TIP3    H225842   2.028   1.047   4.288  1.1297  0.7230 -0.0295
 8629TIP3   OH225843   1.775   2.434   2.023  0.2287  0.2488 -1.1074
 8629TIP3    H125844   1.801   2.359   1.970 -0.5484 -0.2546 -0.7856
 8629TIP3    H225845   1.745   2.397   2.106  1.3879  1.0288 -0.3177
 8630TIP3   OH225846   2.506   1.306   3.340  0.5624  0.0388 -0.6298
 8630TIP3    H125847   2.578   1.312   3.403  1.2162  0.7892 -1.4108
 8630TIP3    H225848   2.433   1.270   3.389  0.5402  2.1361  0.9923
 8631TIP3   OH225849   6.014   3.930   6.134 -0.7096  0.0798  0.5099
 8631TIP3    H125850   5.929   3.892   6.157 -1.2654  1.0032  0.0526
 8631TIP3    H225851   6.039   3.981   6.211 -0.9303  0.4018  0.3723
 8632TIP3   OH225852   7.795   6.107   4.960 -0.6167  0.3612  0.2565
 8632TIP3    H125853   7.832   6.096   4.872 -0.6300  0.2548  0.2643
 8632TIP3    H225854   7.815   6.197   4.983 -1.5036  0.7059 -0.2757
 8633TIP3   OH225855   4.388   1.525   4.699  0.3318 -0.3758 -0.3168
 8633TIP3    H125856   4.359   1.434   4.695 -1.0863  0.1033 -2.2489
 8633TIP3    H225857   4.442   1.536   4.621 -0.3227  0.6905 -0.6302
 8634TIP3   OH225858   6.745   2.501   6.209  0.2950 -0.6919 -0.6977
 8634TIP3    H125859   6.701   2.493   6.293  1.2169  0.4472 -0.0705
 8634TIP3    H225860   6.677   2.483   6.144 -1.1581  1.1072  0.2203
 8635TIP3   OH225861   7.646   0.589   1.644 -0.4821  0.0668  0.8656
 8635TIP3    H125862   7.722   0.610   1.699  0.5681 -4.4657  1.5547
 8635TIP3    H225863   7.684   0.561   1.561 -1.8957  3.1460 -1.0239
 8636TIP3   OH225864   2.774   0.412   6.367  0.0552  0.5404  0.3081
 8636TIP3    H125865   2.762   0.437   6.459  1.8275 -0.6974  0.9453
 8636TIP3    H225866   2.778   0.495   6.319 -2.4444  1.1983  1.0538
 8637TIP3   OH225867   3.271   6.471   5.196 -0.0889 -0.0930 -0.1348
 8637TIP3    H125868   3.319   6.442   5.274  0.0111  0.1749 -0.0946
 8637TIP3    H225869   3.272   6.395   5.138  2.1570  0.5082 -0.9963
 8638TIP3   OH225870   5.839   6.705   2.473  0.0850 -0.5615  0.9284
 8638TIP3    H125871   5.799   6.620   2.489  0.8990 -1.0716  0.2900
 8638TIP3    H225872   5.914   6.708   2.533  0.5061 -0.6202  0.4150
 8639TIP3   OH225873   5.004   7.109   4.762  0.8929 -0.3005  0.3166
 8639TIP3    H125874   5.032   7.125   4.672  1.2216  0.2364  0.5172
 8639TIP3    H225875   5.038   7.022   4.782 -0.2767 -0.9809 -0.5149
 8640TIP3   OH225876   5.758   4.156   4.712  0.3162  0.1722  0.0631
 8640TIP3    H125877   5.793   4.118   4.632  3.3288  0.1080  1.2865
 8640TIP3    H225878   5.823   4.135   4.779 -2.4328 -0.4673  2.7524
 8641TIP3   OH225879   1.404   4.603   5.011  0.1739  0.0220  0.7905
 8641TIP3    H125880   1.404   4.562   4.925  2.0828  0.5370  0.4947
 8641TIP3    H225881   1.386   4.696   4.994  1.1241  0.2328  0.8450
 8642TIP3   OH225882   4.333   6.862   3.823  0.0419 -0.1399  0.0120
 8642TIP3    H125883   4.285   6.895   3.748  1.3228 -1.4198 -1.4240
 8642TIP3    H225884   4.271   6.807   3.870 -0.4525 -0.2011 -0.7097
 8643TIP3   OH225885   3.752   2.530   0.785  0.1654  0.5338 -0.1563
 8643TIP3    H125886   3.784   2.440   0.795  1.9069  1.0818 -0.6150
 8643TIP3    H225887   3.683   2.523   0.719  1.1262 -0.2985 -1.1041
 8644TIP3   OH225888   2.245   1.841   6.677 -0.0589  0.2616 -0.2822
 8644TIP3    H125889   2.213   1.832   6.588 -0.1475 -0.3170 -0.1933
 8644TIP3    H225890   2.203   1.770   6.726 -0.0296  0.5873  0.2248
 8645TIP3   OH225891   1.437   0.835   5.024 -0.2774  0.0752 -0.5008
 8645TIP3    H125892   1.516   0.867   5.067  0.0435  0.3551 -1.2698
 8645TIP3    H225893   1.384   0.798   5.094 -0.0434  1.0719  0.2257
 8646TIP3   OH225894   6.101   2.694   1.622 -0.5521  0.0010 -0.4744
 8646TIP3    H125895   6.166   2.672   1.689 -0.7837  1.9910  0.4737
 8646TIP3    H225896   6.144   2.757   1.565 -1.0916  0.0404 -0.8441
 8647TIP3   OH225897   2.107   2.775   1.491  0.2956 -0.3619 -0.6207
 8647TIP3    H125898   2.024   2.746   1.529 -0.0512  0.5213 -0.6867
 8647TIP3    H225899   2.172   2.716   1.528 -0.5499 -2.2347 -1.9150
 8648TIP3   OH225900   2.259   2.854   4.522  0.3036  0.1095 -0.3229
 8648TIP3    H125901   2.222   2.911   4.589  0.3360  0.2999 -0.4662
 8648TIP3    H225902   2.239   2.898   4.439  1.6906  0.7408 -0.3687
 8649TIP3   OH225903   1.356   6.666   0.998  0.5518  0.6755  0.1845
 8649TIP3    H125904   1.442   6.706   0.987  0.2393  1.3422  0.1139
 8649TIP3    H225905   1.340   6.670   1.093  1.0614 -0.4421  0.3273
 8650TIP3   OH225906   1.111   1.739   2.316  0.1921 -0.2196 -0.1042
 8650TIP3    H125907   1.069   1.688   2.247  1.5836 -0.1443 -1.0636
 8650TIP3    H225908   1.126   1.825   2.276 -1.6137  0.8250  1.2980
 8651TIP3   OH225909   1.656   2.765   6.451 -0.6599  0.0263 -0.5446
 8651TIP3    H125910   1.635   2.677   6.481  2.1637 -0.2839  0.8514
 8651TIP3    H225911   1.705   2.750   6.369  1.4562  0.0852  0.6455
 8652TIP3   OH225912   6.817   7.245   6.489 -0.0541 -0.0406  0.0127
 8652TIP3    H125913   6.822   7.329   6.443 -0.6683 -0.0329 -0.0559
 8652TIP3    H225914   6.723   7.226   6.493  0.1179 -1.1463 -0.7372
 8653TIP3   OH225915   6.766   0.498   3.492  0.1474  0.0070  0.3075
 8653TIP3    H125916   6.772   0.439   3.416  0.2387  0.4083 -0.0020
 8653TIP3    H225917   6.701   0.564   3.467  0.6710  0.5315  0.3020
 8654TIP3   OH225918   5.752   3.838   6.111  0.0172  0.0774  0.1612
 8654TIP3    H125919   5.693   3.888   6.167 -1.9511 -1.0444 -0.8023
 8654TIP3    H225920   5.749   3.749   6.146  0.2069 -0.2450 -0.6150
 8655TIP3   OH225921   6.302   4.742   2.570  0.3874  0.3248 -0.4901
 8655TIP3    H125922   6.243   4.745   2.646  1.5708 -2.8710  0.7411
 8655TIP3    H225923   6.251   4.699   2.502 -0.5247  2.7979 -1.4774
 8656TIP3   OH225924   0.924   4.654   1.890 -0.2571 -0.3579 -0.2043
 8656TIP3    H125925   1.011   4.643   1.928 -0.7446 -1.3048  0.6880
 8656TIP3    H225926   0.893   4.737   1.925 -0.5671 -1.0650  1.2553
 8657TIP3   OH225927   5.079   3.385   5.565  0.5339  0.7055 -0.3263
 8657TIP3    H125928   5.149   3.412   5.505  2.6227  1.2219  2.2056
 8657TIP3    H225929   5.085   3.445   5.639 -0.8385 -0.9220  1.2096
 8658TIP3   OH225930   6.639   0.720   1.582 -0.0008  0.2120  0.7367
 8658TIP3    H125931   6.645   0.795   1.522 -0.0750  0.9441  1.6245
 8658TIP3    H225932   6.676   0.647   1.533 -1.1266  0.5159 -0.6542
 8659TIP3   OH225933   1.381   4.522   5.669 -0.5329 -0.0958  0.2695
 8659TIP3    H125934   1.456   4.567   5.630 -0.4356  0.1853  0.7697
 8659TIP3    H225935   1.376   4.439   5.622 -1.0740  0.6634 -1.0776
 8660TIP3   OH225936   0.285   0.676   6.437  0.0356  0.1462 -0.0064
 8660TIP3    H125937   0.314   0.767   6.431  0.9424 -0.1948 -1.0908
 8660TIP3    H225938   0.313   0.648   6.524 -0.3615  0.9276  0.3856
 8661TIP3   OH225939   6.732   7.656   1.256 -0.5693 -0.1242  0.2958
 8661TIP3    H125940   6.640   7.642   1.234 -1.0108 -0.0638  2.0038
 8661TIP3    H225941   6.748   7.597   1.329  0.5549  0.4082  0.4929
 8662TIP3   OH225942   2.621   3.180   1.646  0.1335  0.0602  0.5711
 8662TIP3    H125943   2.570   3.164   1.567  0.3611  0.1379  0.4053
 8662TIP3    H225944   2.556   3.191   1.716 -0.0477 -2.2836  0.8584
 8663TIP3   OH225945   7.737   4.231   5.229 -0.1147 -0.5674 -0.0673
 8663TIP3    H125946   7.676   4.263   5.163  0.0713 -0.0670 -0.0008
 8663TIP3    H225947   7.770   4.149   5.193  2.0183  0.9706 -1.8738
 8664TIP3   OH225948   3.104   0.523   3.525 -0.0162 -0.0689  0.3848
 8664TIP3    H125949   3.094   0.428   3.514  0.8209 -0.1274  0.0579
 8664TIP3    H225950   3.135   0.534   3.615 -0.9021 -0.0409  0.6923
 8665TIP3   OH225951   3.088   5.523   2.375 -0.4363  0.0486 -0.3958
 8665TIP3    H125952   3.002   5.487   2.357 -0.3204  0.8838 -2.9722
 8665TIP3    H225953   3.070   5.609   2.414 -0.7846  0.1885 -0.8548
 8666TIP3   OH225954   4.446   6.726   6.022 -0.1317  0.1569  0.5059
 8666TIP3    H125955   4.491   6.642   6.012 -0.0072 -0.0388  2.3132
 8666TIP3    H225956   4.354   6.707   6.005  0.0627 -0.0539 -0.3598
 8667TIP3   OH225957   0.971   4.294   2.571 -0.0563 -0.0962  0.0925
 8667TIP3    H125958   0.945   4.335   2.488  1.0195  1.7566  0.6008
 8667TIP3    H225959   0.898   4.311   2.630 -1.0305 -1.8280 -0.5536
 8668TIP3   OH225960   1.036   1.261   3.778 -0.0370  0.2809 -0.6157
 8668TIP3    H125961   0.956   1.311   3.797 -0.2340  0.0096 -0.7261
 8668TIP3    H225962   1.006   1.187   3.726  0.3326  0.3440 -0.9214
 8669TIP3   OH225963   6.592   4.542   0.760 -0.3241  0.6796  0.9330
 8669TIP3    H125964   6.665   4.603   0.755  1.1208 -1.0612 -1.5977
 8669TIP3    H225965   6.574   4.517   0.669 -1.8441 -1.4614  1.7178
 8670TIP3   OH225966   0.979   2.869   2.923 -0.2534 -0.0212 -0.3379
 8670TIP3    H125967   1.066   2.885   2.958  0.5897 -0.9562 -1.8773
 8670TIP3    H225968   0.941   2.957   2.914  0.9112  0.4874 -0.5589
 8671TIP3   OH225969   7.153   6.055   4.703  0.0686  0.1590  0.1235
 8671TIP3    H125970   7.120   6.108   4.775 -1.6276  0.7797 -1.0458
 8671TIP3    H225971   7.127   5.965   4.726 -1.1410  0.4499 -0.0458
 8672TIP3   OH225972   7.256   0.243   0.606  0.5757  0.3859  0.3842
 8672TIP3    H125973   7.169   0.217   0.576  1.3088  0.3980 -1.9383
 8672TIP3    H225974   7.292   0.164   0.647  0.3063 -0.2991 -0.6699
 8673TIP3   OH225975   5.100   6.897   5.704 -0.2027  0.0868  0.0764
 8673TIP3    H125976   5.145   6.962   5.757 -0.3450  0.8739 -0.7392
 8673TIP3    H225977   5.132   6.913   5.615 -1.5803  0.2257 -0.4189
 8674TIP3   OH225978   6.537   4.121   1.861 -0.9056  0.3458  0.3589
 8674TIP3    H125979   6.623   4.136   1.900 -0.1470 -0.8236 -0.7852
 8674TIP3    H225980   6.522   4.196   1.804 -0.5541  0.4471  0.4003
 8675TIP3   OH225981   4.130   1.518   5.290 -0.1852 -0.2484  0.0088
 8675TIP3    H125982   4.076   1.562   5.355 -0.9703 -1.2707  0.0624
 8675TIP3    H225983   4.144   1.584   5.222 -1.0169  0.2006  0.2631
 8676TIP3   OH225984   7.111   1.579   2.431  0.4390 -0.0908 -0.5522
 8676TIP3    H125985   7.102   1.593   2.337  0.2686 -0.4740 -0.5941
 8676TIP3    H225986   7.161   1.655   2.462 -2.3864  1.8305 -0.3789
 8677TIP3   OH225987   2.154   1.186   5.585  0.3207 -0.2182  1.0539
 8677TIP3    H125988   2.194   1.242   5.652 -0.4653  1.3989  0.2427
 8677TIP3    H225989   2.138   1.245   5.511  2.1348 -2.1594 -1.0218
 8678TIP3   OH225990   6.847   5.543   3.126  0.1291  0.1290  0.1969
 8678TIP3    H125991   6.916   5.477   3.124 -0.7908 -0.9210 -3.0710
 8678TIP3    H225992   6.779   5.506   3.183  0.4123 -0.8827 -0.1069
 8679TIP3   OH225993   1.009   3.107   2.795  0.2637  0.3228 -0.2918
 8679TIP3    H125994   0.927   3.124   2.749 -0.3078 -1.1377  0.1043
 8679TIP3    H225995   1.059   3.051   2.735  0.2930 -0.0881  0.1123
 8680TIP3   OH225996   5.015   2.605   6.797 -0.1014 -0.5897  0.2810
 8680TIP3    H125997   5.097   2.604   6.747  0.2944 -0.5744  0.9179
 8680TIP3    H225998   4.948   2.630   6.733  0.7501  1.9473  0.2678
 8681TIP3   OH225999   1.626   5.144   3.799 -0.2187 -0.2899  0.5465
 8681TIP3    H126000   1.640   5.121   3.891  0.7834 -0.7521  0.2944
 8681TIP3    H226001   1.676   5.078   3.750 -1.2243 -0.4065 -0.3531
 8682TIP3   OH226002   1.094   6.555   5.168 -0.2033  0.3577 -0.4300
 8682TIP3    H126003   1.166   6.596   5.119 -0.7101  0.2502 -1.2744
 8682TIP3    H226004   1.075   6.618   5.237  0.6717  0.4112 -0.2200
 8683TIP3   OH226005   6.854   0.282   0.237 -0.2579  0.4878  0.2210
 8683TIP3    H126006   6.939   0.269   0.195  0.4740  0.1464  1.7427
 8683TIP3    H226007   6.819   0.194   0.250 -1.3138  0.6446 -1.2237
 8684TIP3   OH226008   2.575   2.317   5.509 -0.0858  0.1645 -0.1609
 8684TIP3    H126009   2.500   2.272   5.547  0.2907  1.4192  2.2801
 8684TIP3    H226010   2.560   2.410   5.529  1.4099  0.6031 -0.9251
 8685TIP3   OH226011   0.844   0.852   2.586  0.2031 -0.4339 -0.1880
 8685TIP3    H126012   0.757   0.813   2.589 -0.9944  2.0168  1.8282
 8685TIP3    H226013   0.894   0.804   2.652  0.3354 -1.6782 -1.1673
 8686TIP3   OH226014   4.617   2.275   5.263  0.2898 -0.1473 -0.3447
 8686TIP3    H126015   4.678   2.201   5.269 -1.0164 -1.1989  0.6499
 8686TIP3    H226016   4.619   2.315   5.349 -0.0045  0.1655 -0.4819
 8687TIP3   OH226017   1.746   0.161   4.657 -0.2111 -0.4846  0.3093
 8687TIP3    H126018   1.686   0.228   4.688  0.6891 -0.1049  1.3061
 8687TIP3    H226019   1.813   0.155   4.725  0.3557 -1.5766 -0.3080
 8688TIP3   OH226020   6.542   4.204   5.908  0.0972 -0.0243 -0.0746
 8688TIP3    H126021   6.628   4.226   5.870  0.2996 -1.0583 -0.2362
 8688TIP3    H226022   6.507   4.135   5.851 -0.6430  0.0668  0.2580
 8689TIP3   OH226023   5.056   2.673   4.398 -0.1490  0.3299  0.1946
 8689TIP3    H126024   5.096   2.630   4.323  0.2123 -0.7730  0.9904
 8689TIP3    H226025   5.087   2.623   4.474 -1.3295  0.7627  1.0001
 8690TIP3   OH226026   3.191   1.404   1.554  0.0804  0.1472 -0.1051
 8690TIP3    H126027   3.119   1.348   1.525  1.0767 -1.7706  0.9345
 8690TIP3    H226028   3.149   1.486   1.578 -1.3927  0.0270 -2.0261
 8691TIP3   OH226029   6.000   5.465   0.101  0.3680  0.7933 -0.0082
 8691TIP3    H126030   5.934   5.473   0.032  0.9864  1.5629 -0.5205
 8691TIP3    H226031   6.076   5.425   0.058  0.6352  0.9494  0.3085
 8692TIP3   OH226032   2.768   7.470   0.551 -0.0173  0.2176  0.2832
 8692TIP3    H126033   2.678   7.483   0.519 -0.3948  0.6248  1.4631
 8692TIP3    H226034   2.792   7.383   0.520 -0.8908  0.0232  0.1307
 8693TIP3   OH226035   4.295   2.571   0.506 -0.6585 -0.0519  0.2901
 8693TIP3    H126036   4.217   2.577   0.561 -0.7610 -1.6308  0.3787
 8693TIP3    H226037   4.270   2.509   0.437 -0.7349  2.2868 -1.9169
 8694TIP3   OH226038   4.322   0.823   4.911 -0.5414 -0.1698 -0.6041
 8694TIP3    H126039   4.237   0.868   4.912 -0.3412  0.2162 -0.7646
 8694TIP3    H226040   4.353   0.829   5.002 -1.4335 -1.7691 -0.1494
 8695TIP3   OH226041   4.990   0.314   5.628  0.4554  0.2290 -0.3923
 8695TIP3    H126042   4.910   0.326   5.679  0.5304 -0.2408 -0.1638
 8695TIP3    H226043   4.961   0.272   5.547  0.4852 -0.0301 -0.2680
 8696TIP3   OH226044   6.045   3.318   2.661  0.5314  0.0205 -0.4343
 8696TIP3    H126045   6.076   3.376   2.731 -0.1778 -0.4719  0.3129
 8696TIP3    H226046   6.119   3.260   2.644  0.9203  0.5306 -0.5245
 8697TIP3   OH226047   7.114   6.857   2.965  0.0101 -0.2051  0.9470
 8697TIP3    H126048   7.185   6.830   2.907 -0.0061  0.4185  0.6324
 8697TIP3    H226049   7.155   6.915   3.029 -0.3903  1.0351  0.1181
 8698TIP3   OH226050   3.717   2.619   4.963  0.3356  0.1175  0.4669
 8698TIP3    H126051   3.715   2.550   5.029  1.6947  0.2965  0.7299
 8698TIP3    H226052   3.684   2.697   5.007  0.2346 -0.0135  0.6212
 8699TIP3   OH226053   2.516   4.585   6.351 -0.3745  0.3258 -0.3340
 8699TIP3    H126054   2.564   4.552   6.275 -0.2566 -0.1287 -0.0686
 8699TIP3    H226055   2.433   4.537   6.349 -0.5050  0.5506 -0.3571
 8700TIP3   OH226056   0.931   7.032   1.520  0.1477 -0.0798  0.1159
 8700TIP3    H126057   0.839   7.047   1.542  0.1309  0.6808 -0.4096
 8700TIP3    H226058   0.979   7.072   1.592  0.0716  0.6074 -0.2051
 8701TIP3   OH226059   1.593   6.024   2.701  0.3883 -0.1094 -0.2854
 8701TIP3    H126060   1.550   6.076   2.768 -0.5714 -0.7809 -0.3540
 8701TIP3    H226061   1.522   5.996   2.643  1.0168 -0.6619 -0.8081
 8702TIP3   OH226062   4.230   2.373   1.658  0.2870  0.4534 -0.0727
 8702TIP3    H126063   4.141   2.347   1.685  0.0173  0.5548 -0.8511
 8702TIP3    H226064   4.280   2.292   1.661  0.3100  0.4917  0.9008
 8703TIP3   OH226065   8.277   1.468   4.187  0.3312 -0.2803 -0.2698
 8703TIP3    H126066   8.208   1.453   4.252  0.5009 -1.1916 -0.2837
 8703TIP3    H226067   8.305   1.558   4.203  1.3759 -0.9043  1.9124
 8704TIP3   OH226068   7.412   4.505   5.654 -0.1825 -0.6053 -0.4134
 8704TIP3    H126069   7.475   4.472   5.591 -0.9179 -0.7560 -1.0912
 8704TIP3    H226070   7.326   4.490   5.613 -0.6261  0.4152  0.0772
 8705TIP3   OH226071   4.766   6.067   5.692  0.5471 -0.0571  0.2472
 8705TIP3    H126072   4.845   6.013   5.695 -1.5638 -3.3908  1.2420
 8705TIP3    H226073   4.725   6.045   5.609 -0.3274  0.0852  0.6353
 8706TIP3   OH226074   4.469   7.668   5.475  0.1196  0.1414  0.0653
 8706TIP3    H126075   4.402   7.721   5.518 -0.2663 -0.8483  0.7228
 8706TIP3    H226076   4.439   7.578   5.487  2.5097 -0.4687  2.0002
 8707TIP3   OH226077   5.626   2.757   3.534  0.0402 -0.2701  0.2136
 8707TIP3    H126078   5.633   2.675   3.581  0.0879 -0.3278  0.1060
 8707TIP3    H226079   5.534   2.761   3.506  0.1122 -0.4357 -0.0510
 8708TIP3   OH226080   7.193   4.672   6.636 -0.1726  1.1020  0.2062
 8708TIP3    H126081   7.223   4.669   6.546 -2.8843  1.2469 -0.7789
 8708TIP3    H226082   7.264   4.716   6.683  2.1250 -0.6098 -1.4297
 8709TIP3   OH226083   2.854   0.008   2.767 -0.1290 -0.1541  0.0424
 8709TIP3    H126084   2.794  -0.020   2.697  0.6884 -0.4612 -0.5651
 8709TIP3    H226085   2.902   0.081   2.728 -0.2158  0.1846  0.5758
 8710TIP3   OH226086   2.682   6.258   5.022  0.1737 -0.2512 -0.3017
 8710TIP3    H126087   2.618   6.241   4.954 -2.7768 -2.4763  2.6827
 8710TIP3    H226088   2.666   6.348   5.050  0.9464  0.4369 -1.9618
 8711TIP3   OH226089   4.402   3.417   3.697 -0.4529 -0.0922 -0.1328
 8711TIP3    H126090   4.348   3.339   3.689 -0.2347 -0.2343 -0.2531
 8711TIP3    H226091   4.439   3.413   3.785  0.2789 -0.6068 -0.4508
 8712TIP3   OH226092   0.425   1.674   3.749  0.3677 -0.0965 -0.0117
 8712TIP3    H126093   0.342   1.643   3.785  0.1503  2.4841  2.0120
 8712TIP3    H226094   0.450   1.748   3.805  2.2868  1.4553 -2.6560
 8713TIP3   OH226095   1.487   6.194   5.250 -0.2856  0.4701  0.0018
 8713TIP3    H126096   1.481   6.243   5.167 -2.2987  1.1326  0.4827
 8713TIP3    H226097   1.581   6.194   5.270  0.4258 -0.6815 -2.8136
 8714TIP3   OH226098   0.409   7.751   5.191  0.2633 -0.5133 -0.3158
 8714TIP3    H126099   0.456   7.803   5.126  0.3253 -2.0698 -1.5744
 8714TIP3    H226100   0.478   7.711   5.245  0.3451 -1.4591 -1.0998
 8715TIP3   OH226101   1.798   7.416   2.314 -0.2258  0.1062  0.0331
 8715TIP3    H126102   1.752   7.398   2.396 -0.1505 -1.6900 -0.2908
 8715TIP3    H226103   1.887   7.383   2.329 -0.1480 -0.0264 -0.7002
 8716TIP3   OH226104   4.454   0.417   3.775 -0.5325 -0.2609  0.7392
 8716TIP3    H126105   4.468   0.401   3.682 -1.1535  0.5042  0.5030
 8716TIP3    H226106   4.499   0.345   3.819  2.9484  1.3118  0.0327
 8717TIP3   OH226107   7.713   3.115   4.916  0.2102  0.2167  0.4118
 8717TIP3    H126108   7.633   3.155   4.881  1.3316  2.0334 -0.1921
 8717TIP3    H226109   7.773   3.110   4.841  1.3397  0.6629  1.2594
 8718TIP3   OH226110   7.821   1.315   3.076 -0.1783  0.0863 -0.8242
 8718TIP3    H126111   7.767   1.291   3.000  2.8259 -0.4826 -2.9722
 8718TIP3    H226112   7.837   1.408   3.065 -0.7665  0.2801 -0.1235
 8719TIP3   OH226113   6.877   6.741   1.552  0.2182  0.0589  0.1436
 8719TIP3    H126114   6.905   6.781   1.634 -2.2977  3.4684 -0.4262
 8719TIP3    H226115   6.792   6.702   1.572  0.1439 -0.1617 -0.5659
 8720TIP3   OH226116   2.782   3.444   1.036  0.0953  0.2737  0.5368
 8720TIP3    H126117   2.701   3.435   0.986  0.4285 -1.5796  0.2636
 8720TIP3    H226118   2.834   3.508   0.986  0.2723 -1.2496 -1.3863
 8721TIP3   OH226119   4.110   5.529   0.191 -0.6998 -0.1488 -0.3432
 8721TIP3    H126120   4.105   5.435   0.211 -0.9093 -0.0707 -0.0352
 8721TIP3    H226121   4.036   5.568   0.237  1.1217  0.6410  2.1080
 8722TIP3   OH226122   3.465   0.296   4.727 -0.0844  0.0544 -0.2034
 8722TIP3    H126123   3.478   0.358   4.799 -0.9685 -0.2002  0.1903
 8722TIP3    H226124   3.385   0.327   4.683 -0.4537 -0.7114 -0.0924
 8723TIP3   OH226125   7.490   3.259   5.455  0.1707  0.5210  0.3642
 8723TIP3    H126126   7.417   3.199   5.469  0.5794 -0.1165 -0.1853
 8723TIP3    H226127   7.551   3.239   5.526 -0.5044  1.5836  1.2847
 8724TIP3   OH226128   3.333   3.807   2.523  0.7427 -0.0213 -0.6237
 8724TIP3    H126129   3.270   3.878   2.538  1.9245  1.3653 -1.8937
 8724TIP3    H226130   3.390   3.808   2.600  0.0749 -0.3873 -0.1072
 8725TIP3   OH226131   0.260   3.715   1.058  0.0815 -0.3116  0.3428
 8725TIP3    H126132   0.171   3.726   1.026 -0.3457 -0.7943  1.3292
 8725TIP3    H226133   0.255   3.734   1.152  1.2890  1.0514  0.1776
 8726TIP3   OH226134   2.401   2.804   5.704 -0.5266  0.2223 -0.5449
 8726TIP3    H126135   2.437   2.891   5.716 -0.5010 -0.0112  1.3179
 8726TIP3    H226136   2.308   2.818   5.688 -0.3043  0.6333 -1.5436
 8727TIP3   OH226137   6.326   4.257   3.644  0.3396 -0.3350 -0.0055
 8727TIP3    H126138   6.382   4.184   3.668 -0.2210 -1.2093 -1.2458
 8727TIP3    H226139   6.237   4.224   3.655  0.0020  1.1354  2.2447
 8728TIP3   OH226140   6.383   4.811   6.203 -0.2362  0.1205 -0.4096
 8728TIP3    H126141   6.437   4.885   6.177  0.6254 -0.2820  0.1802
 8728TIP3    H226142   6.441   4.755   6.255 -1.6414  0.4962  1.6944
 8729TIP3   OH226143   6.947   4.052   2.377  0.1634 -0.4500 -0.2527
 8729TIP3    H126144   6.996   4.037   2.296  0.8770  1.1560 -0.1772
 8729TIP3    H226145   7.014   4.071   2.442 -0.4655 -0.4176  0.3983
 8730TIP3   OH226146   6.798   1.446   2.903 -0.0237  0.1371 -0.8109
 8730TIP3    H126147   6.815   1.425   2.811 -0.9516 -0.8717 -0.7759
 8730TIP3    H226148   6.875   1.495   2.931  0.7536 -0.4485 -1.8433
 8731TIP3   OH226149   5.987   5.223   2.106  0.1225 -0.5252 -0.0742
 8731TIP3    H126150   5.924   5.173   2.157 -0.7177 -0.0530 -0.6094
 8731TIP3    H226151   6.034   5.158   2.054  0.9807 -1.0090  1.2652
 8732TIP3   OH226152   3.703   4.254   3.847  0.5141 -0.4739  0.1210
 8732TIP3    H126153   3.642   4.192   3.887 -0.8252  1.7669  1.7796
 8732TIP3    H226154   3.649   4.331   3.828  2.0258  0.1148 -2.2315
 8733TIP3   OH226155   1.473   3.830   5.826  0.4523  0.2169 -0.0056
 8733TIP3    H126156   1.517   3.748   5.846  0.9211  0.4552 -0.0449
 8733TIP3    H226157   1.407   3.807   5.761  1.2473  0.0333 -0.7636
 8734TIP3   OH226158   5.036   3.136   1.544  0.3460  0.0672  0.3854
 8734TIP3    H126159   4.965   3.127   1.607 -0.1238 -0.8952 -0.2516
 8734TIP3    H226160   5.096   3.200   1.584 -0.5313  0.3829  1.2343
 8735TIP3   OH226161   4.287   6.539   3.631 -0.0142  0.1805 -0.3680
 8735TIP3    H126162   4.205   6.534   3.678  1.1552 -0.6973  1.7150
 8735TIP3    H226163   4.275   6.611   3.569 -3.0645 -1.3117 -1.7320
 8736TIP3   OH226164   7.647   6.299   3.253  0.2261  0.4105  0.1192
 8736TIP3    H126165   7.721   6.315   3.195 -0.8038  2.0622 -0.7919
 8736TIP3    H226166   7.586   6.371   3.236 -0.9863 -0.1411  1.8397
 8737TIP3   OH226167   2.287   2.035   3.180  0.1030  0.1842  0.4170
 8737TIP3    H126168   2.360   2.002   3.233 -0.0063 -0.3186  0.2604
 8737TIP3    H226169   2.210   2.025   3.235  0.1299  0.6025  0.5364
 8738TIP3   OH226170   2.729   6.452   0.824 -0.3217 -0.3785  0.5255
 8738TIP3    H126171   2.674   6.530   0.815  0.2874  0.0131  0.1630
 8738TIP3    H226172   2.791   6.475   0.893  0.6190 -0.0873 -0.3961
 8739TIP3   OH226173   6.587   4.641   2.858 -0.0747 -0.2111  0.0559
 8739TIP3    H126174   6.523   4.572   2.876 -1.5132  1.1551  0.4044
 8739TIP3    H226175   6.661   4.620   2.915 -0.6691 -1.2179  0.4790
 8740TIP3   OH226176   1.106   2.220   3.590  0.5158 -0.7989  0.4737
 8740TIP3    H126177   1.094   2.199   3.498  0.5197  0.9960  0.0316
 8740TIP3    H226178   1.039   2.285   3.609  0.3519 -1.3213  1.8291
 8741TIP3   OH226179   2.871   5.680   3.438 -0.5313  0.4268 -0.3168
 8741TIP3    H126180   2.907   5.695   3.525  1.3633 -1.3020 -0.7312
 8741TIP3    H226181   2.776   5.690   3.449 -0.3592  0.0724  1.9825
 8742TIP3   OH226182   0.270   2.166   2.340  0.7999 -0.4724 -0.2820
 8742TIP3    H126183   0.333   2.197   2.405  0.5255 -0.7222  0.1060
 8742TIP3    H226184   0.205   2.118   2.391 -0.0811  0.3542 -0.5817
 8743TIP3   OH226185   4.686   1.917   5.574  0.3148  0.0411  0.1550
 8743TIP3    H126186   4.616   1.947   5.632 -0.5417 -1.9311  0.1902
 8743TIP3    H226187   4.766   1.944   5.618 -0.3341 -0.6447  1.8215
 8744TIP3   OH226188   6.662   0.158   6.685 -0.0280 -0.1369 -0.0762
 8744TIP3    H126189   6.671   0.178   6.779  4.5344 -2.8992  0.3935
 8744TIP3    H226190   6.585   0.102   6.679  1.8632 -3.5362  3.0459
 8745TIP3   OH226191   2.577   7.451   5.013 -0.3731  0.2574  0.2952
 8745TIP3    H126192   2.561   7.395   4.937 -1.1434  0.5114  0.2645
 8745TIP3    H226193   2.672   7.463   5.014 -0.2664 -0.4817 -0.0989
 8746TIP3   OH226194   4.637   2.879   3.462  0.0606 -0.3670 -0.3500
 8746TIP3    H126195   4.660   2.864   3.554  1.6601 -0.9527 -0.8058
 8746TIP3    H226196   4.550   2.839   3.453  0.3066 -1.2061  0.6774
 8747TIP3   OH226197   3.019   0.537   4.156 -1.2733  0.1483  0.6738
 8747TIP3    H126198   2.962   0.584   4.096  2.5210  1.7575 -2.1071
 8747TIP3    H226199   3.033   0.597   4.229 -1.3797  0.6899  0.2492
 8748TIP3   OH226200   0.900   4.295   1.565  0.6603 -0.0122 -0.0857
 8748TIP3    H126201   0.854   4.244   1.498  0.7682  0.4861 -0.5517
 8748TIP3    H226202   0.878   4.386   1.545 -0.9137  0.0699  1.7682
 8749TIP3   OH226203   3.418   3.271   2.761 -0.0529 -0.1844  0.6009
 8749TIP3    H126204   3.484   3.323   2.715 -0.9433  0.7768  0.3587
 8749TIP3    H226205   3.459   3.247   2.844  0.8574 -0.2397  0.1422
 8750TIP3   OH226206   7.081   7.003   2.351  0.0367 -0.1129 -0.4290
 8750TIP3    H126207   6.995   6.977   2.318  0.0130  0.2359 -0.6414
 8750TIP3    H226208   7.062   7.054   2.429  0.0505  0.0143 -0.5096
 8751TIP3   OH226209   5.902   1.483   6.683 -0.1426 -0.1476 -0.8369
 8751TIP3    H126210   5.926   1.392   6.670 -0.5784 -0.1755 -1.4464
 8751TIP3    H226211   5.888   1.518   6.595  0.2314  0.5660 -0.6229
 8752TIP3   OH226212   1.406   5.505   0.713  0.4746 -0.3992  0.0456
 8752TIP3    H126213   1.355   5.581   0.740 -1.1908 -0.9637 -1.3077
 8752TIP3    H226214   1.421   5.519   0.619 -1.2236 -2.3923 -0.6127
 8753TIP3   OH226215   3.430   3.032   0.432  0.2157 -0.0756  0.5877
 8753TIP3    H126216   3.375   3.039   0.354  0.4518 -1.3574  0.2816
 8753TIP3    H226217   3.491   3.105   0.426 -1.0773  1.0609  0.6563
 8754TIP3   OH226218   4.228   0.185   5.585 -0.2114 -0.7963 -0.4161
 8754TIP3    H126219   4.278   0.266   5.590  0.2070 -1.1390  1.2843
 8754TIP3    H226220   4.159   0.204   5.520 -0.6051  1.1856  0.5132
 8755TIP3   OH226221   7.700   7.087   4.006  0.3944  0.5650  0.0448
 8755TIP3    H126222   7.637   7.088   4.078  1.0706  2.3073  0.6641
 8755TIP3    H226223   7.647   7.078   3.927 -0.4820  0.2601  0.6550
 8756TIP3   OH226224   0.340   6.941   5.652 -0.0100  0.2156  0.2721
 8756TIP3    H126225   0.313   7.025   5.614 -0.8211  1.2930  3.0095
 8756TIP3    H226226   0.424   6.959   5.694  0.5692 -0.7880 -0.4113
 8757TIP3   OH226227   3.506   2.802   2.386 -0.1283  0.8952  0.3546
 8757TIP3    H126228   3.584   2.748   2.401 -0.3103 -0.2373 -2.1570
 8757TIP3    H226229   3.539   2.878   2.339 -0.4650  0.4409 -0.6650
 8758TIP3   OH226230   1.418   1.628   2.370  0.4173 -0.0720  0.0753
 8758TIP3    H126231   1.395   1.535   2.361  2.3666 -0.5567 -0.4114
 8758TIP3    H226232   1.345   1.666   2.418 -1.7694 -1.2562 -2.0806
 8759TIP3   OH226233   2.337   6.256   0.166  0.0066 -0.2538 -0.6593
 8759TIP3    H126234   2.315   6.167   0.136 -0.8568  0.0884 -1.0610
 8759TIP3    H226235   2.426   6.248   0.200  0.1409 -1.1591 -1.1890
 8760TIP3   OH226236   1.762   6.209   5.328 -0.1293  0.2664 -0.5680
 8760TIP3    H126237   1.770   6.120   5.294 -0.4252 -1.0694  2.5382
 8760TIP3    H226238   1.837   6.256   5.292  2.9704 -2.6618  1.5198
 8761TIP3   OH226239   5.833   4.097   6.471  0.1235 -0.0985 -0.1281
 8761TIP3    H126240   5.859   4.045   6.547  0.5004  0.1362 -0.0931
 8761TIP3    H226241   5.916   4.117   6.426  0.1947  1.7766  0.7033
 8762TIP3   OH226242   1.178   5.867   3.254  0.4165 -0.1004  0.1612
 8762TIP3    H126243   1.165   5.922   3.177  0.3781  0.1435  0.3435
 8762TIP3    H226244   1.244   5.803   3.226 -3.0822 -3.2685 -1.8118
 8763TIP3   OH226245   1.190   6.626   3.431  0.2825  0.1064 -0.6460
 8763TIP3    H126246   1.128   6.698   3.439 -1.4802 -1.4495  0.9003
 8763TIP3    H226247   1.137   6.548   3.449  1.6875 -1.7928 -3.8487
 8764TIP3   OH226248   2.620   2.589   5.042  0.0568  0.0685  0.2757
 8764TIP3    H126249   2.580   2.508   5.076 -0.9396  0.8700  1.0935
 8764TIP3    H226250   2.631   2.573   4.949  0.3101 -1.1839  0.5000
 8765TIP3   OH226251   0.326   6.675   5.079  0.2540  0.2860  0.0504
 8765TIP3    H126252   0.287   6.756   5.111  2.4911  0.7397  1.8111
 8765TIP3    H226253   0.300   6.609   5.143  1.8455  0.4855  0.9372
 8766TIP3   OH226254   6.006   1.683   6.383 -0.3010  0.0434 -0.0426
 8766TIP3    H126255   6.037   1.773   6.398 -0.3807  0.0219  0.2436
 8766TIP3    H226256   6.027   1.666   6.291  0.8127 -0.0751  0.2185
 8767TIP3   OH226257   5.118   6.650   5.343  0.1351 -0.0274 -0.1457
 8767TIP3    H126258   5.080   6.727   5.387  0.3365  0.0062 -0.0328
 8767TIP3    H226259   5.042   6.606   5.305  0.0287  0.2776 -0.2913
 8768TIP3   OH226260   2.922   7.517   3.446 -0.0372 -0.2468 -0.0020
 8768TIP3    H126261   2.831   7.506   3.475  0.2840 -0.4237  0.9483
 8768TIP3    H226262   2.929   7.609   3.423 -1.0998 -0.6596 -2.3633
 8769TIP3   OH226263   5.573   4.862   5.906  0.2578  0.2350 -0.2884
 8769TIP3    H126264   5.534   4.903   5.983  1.8166  0.2229  0.5513
 8769TIP3    H226265   5.627   4.931   5.867  1.3505 -0.4011  0.0228
 8770TIP3   OH226266   8.002   2.103   5.328  0.0077 -0.4101 -0.1371
 8770TIP3    H126267   7.990   2.080   5.236  1.5293  0.1863 -0.5163
 8770TIP3    H226268   8.013   2.019   5.373 -0.6189 -0.6976 -0.5167
 8771TIP3   OH226269   1.036   1.363   4.598 -0.9194 -0.2392  0.3652
 8771TIP3    H126270   1.031   1.322   4.685  0.9124 -0.7825  0.2677
 8771TIP3    H226271   1.028   1.456   4.615  4.6827  0.3208  1.9672
 8772TIP3   OH226272   6.948   0.539   5.023  0.4488  0.7360  0.7704
 8772TIP3    H126273   6.863   0.518   5.061  0.8311 -0.3609  1.0513
 8772TIP3    H226274   7.010   0.483   5.070  0.6914 -2.5389 -2.9563
 8773TIP3   OH226275   4.175   1.755   3.633 -0.2053 -0.0304 -0.2909
 8773TIP3    H126276   4.234   1.719   3.567  2.3314  0.1952  1.6914
 8773TIP3    H226277   4.168   1.688   3.700  0.6852  1.2572  1.1628
 8774TIP3   OH226278   7.047   4.729   1.908 -0.6060  0.3005 -0.5731
 8774TIP3    H126279   7.022   4.818   1.931 -0.9189 -0.1796  1.0950
 8774TIP3    H226280   6.975   4.697   1.854 -0.5806  0.9866 -1.0264
 8775TIP3   OH226281   1.361   7.589   2.874  0.5548  0.1198  0.0829
 8775TIP3    H126282   1.442   7.637   2.855  0.0556  0.8151 -0.3704
 8775TIP3    H226283   1.375   7.551   2.960  0.8752  1.3225  0.5884
 8776TIP3   OH226284   2.174   5.523   3.001 -0.2147 -0.2957  0.0395
 8776TIP3    H126285   2.258   5.504   2.959  0.4798 -0.2901  1.3736
 8776TIP3    H226286   2.113   5.537   2.928  0.9228 -0.3594 -0.9512
 8777TIP3   OH226287   6.149   5.875   2.533  0.1803  0.4872  0.7923
 8777TIP3    H126288   6.167   5.791   2.490  0.9482  1.0893 -0.0742
 8777TIP3    H226289   6.056   5.870   2.556  0.2354 -0.6364  0.8481
 8778TIP3   OH226290   1.680   1.035   5.581 -0.5283  0.3120  0.2615
 8778TIP3    H126291   1.611   0.982   5.543 -0.7190  0.5247  0.3072
 8778TIP3    H226292   1.675   1.018   5.675 -1.0364  0.9206  0.3564
 8779TIP3   OH226293   0.051   1.003   2.609  0.2911  0.1761 -0.0872
 8779TIP3    H126294   0.001   1.073   2.651  0.5015  0.7644 -0.7930
 8779TIP3    H226295   0.071   0.941   2.680 -0.5607  0.4377  0.3925
 8780TIP3   OH226296   5.552   1.780   3.862 -0.2958  0.0943  0.0977
 8780TIP3    H126297   5.548   1.875   3.853 -1.5884  0.2635  1.8350
 8780TIP3    H226298   5.502   1.761   3.942  0.3331 -2.0079  0.0703
 8781TIP3   OH226299   0.281   7.536   3.525  0.2944 -0.2677  0.3384
 8781TIP3    H126300   0.277   7.557   3.619 -0.4613  1.0286  0.0325
 8781TIP3    H226301   0.191   7.540   3.495  0.6653  0.6992 -0.7218
 8782TIP3   OH226302   2.090   6.211   5.540  0.4257  0.4663 -0.1630
 8782TIP3    H126303   2.162   6.262   5.504  1.1732  1.1656  2.1696
 8782TIP3    H226304   2.131   6.132   5.575 -0.1165  0.2989  0.1101
 8783TIP3   OH226305   1.280   4.829   3.258 -0.0379 -0.3284 -0.3778
 8783TIP3    H126306   1.285   4.750   3.205  0.0603 -0.3780 -0.2950
 8783TIP3    H226307   1.341   4.813   3.331 -0.1086 -0.2272 -0.2958
 8784TIP3   OH226308   3.232   4.696   2.393  0.0225  0.3206 -0.5650
 8784TIP3    H126309   3.209   4.773   2.444 -0.6455  0.1813 -0.6463
 8784TIP3    H226310   3.325   4.707   2.372 -0.1489  1.2623 -0.8539
 8785TIP3   OH226311   2.478   7.301   4.814 -0.0265 -0.2880  0.5427
 8785TIP3    H126312   2.545   7.251   4.767  1.6194  1.7971  0.5099
 8785TIP3    H226313   2.418   7.235   4.847  0.3703 -2.0604 -1.9731
 8786TIP3   OH226314   2.404   1.641   3.510  0.0123 -0.2603 -0.0191
 8786TIP3    H126315   2.342   1.571   3.495 -0.7632  0.4922 -0.4025
 8786TIP3    H226316   2.350   1.719   3.522  0.8496  0.2595  0.5050
 8787TIP3   OH226317   7.229   2.668   1.820 -0.0881 -0.1572 -0.1201
 8787TIP3    H126318   7.229   2.668   1.724  0.6346  1.8949 -0.1697
 8787TIP3    H226319   7.210   2.758   1.844  2.6801  0.0664  1.6189
 8788TIP3   OH226320   5.601   5.610   1.371  0.4751 -0.0876  0.4227
 8788TIP3    H126321   5.576   5.560   1.449  0.7995  0.0733  0.6345
 8788TIP3    H226322   5.628   5.696   1.405 -0.0918  0.2386  0.0629
 8789TIP3   OH226323   4.952   1.671   2.707 -1.1232  0.2572  0.3045
 8789TIP3    H126324   4.921   1.721   2.631  0.8184  2.1031  0.6260
 8789TIP3    H226325   4.873   1.653   2.758 -2.3505 -0.2471 -1.6823
 8790TIP3   OH226326   6.853   0.295   4.134 -0.1740 -0.4863 -0.4854
 8790TIP3    H126327   6.944   0.267   4.130 -0.0458 -0.2353  0.4855
 8790TIP3    H226328   6.821   0.264   4.219 -0.3384  1.3039  0.1704
 8791TIP3   OH226329   0.224   2.908   3.487 -0.4964  0.4037 -0.1381
 8791TIP3    H126330   0.157   2.934   3.424 -1.8177 -1.2894  0.4861
 8791TIP3    H226331   0.246   2.989   3.533 -1.0411  1.2633 -1.3447
 8792TIP3   OH226332   0.151   4.101   5.179  0.2542 -0.0246  0.1506
 8792TIP3    H126333   0.092   4.030   5.207  0.8928 -1.2377 -1.4045
 8792TIP3    H226334   0.093   4.166   5.140 -0.3726  0.4586  1.8223
 8793TIP3   OH226335   3.542   2.267   3.306 -0.3063  0.2556 -0.4044
 8793TIP3    H126336   3.608   2.336   3.296  1.0583 -1.1655 -1.6040
 8793TIP3    H226337   3.556   2.233   3.394  0.4855  0.0352 -0.6162
 8794TIP3   OH226338   0.193   0.997   3.098 -0.5601 -0.4876  0.0502
 8794TIP3    H126339   0.135   0.962   3.166 -1.3301  1.8455  0.6831
 8794TIP3    H226340   0.168   0.948   3.019  0.2962 -3.1928  1.3205
 8795TIP3   OH226341   6.262   7.184   4.933  0.1785  0.0291  0.8127
 8795TIP3    H126342   6.308   7.203   5.015  3.3899 -2.0204 -0.3081
 8795TIP3    H226343   6.304   7.240   4.868  2.5573 -2.9465 -0.5298
 8796TIP3   OH226344   8.130   0.217   2.677 -0.3821 -0.4823 -0.1130
 8796TIP3    H126345   8.128   0.127   2.708  1.2979 -0.1496  1.0754
 8796TIP3    H226346   8.061   0.221   2.611  0.2892 -2.9648 -1.0799
 8797TIP3   OH226347   8.252   1.964   5.244  0.3587  0.0588 -0.2419
 8797TIP3    H126348   8.197   2.006   5.179  0.4783 -0.2664 -0.5532
 8797TIP3    H226349   8.275   2.035   5.305  0.4785  0.4270 -0.7079
 8798TIP3   OH226350   1.420   2.118   6.009  0.3244  0.1707 -0.0523
 8798TIP3    H126351   1.468   2.116   6.092  0.3297  1.6952  0.0194
 8798TIP3    H226352   1.489   2.128   5.943  0.2237  0.6625 -0.0875
 8799TIP3   OH226353   7.102   4.982   2.897  0.1948  0.3837  0.4633
 8799TIP3    H126354   7.141   4.919   2.837  1.3382  0.7483  0.7875
 8799TIP3    H226355   7.121   5.067   2.859 -1.2061  0.5560  0.1087
 8800TIP3   OH226356   6.974   1.674   2.970  0.7543  0.0732 -0.1781
 8800TIP3    H126357   6.949   1.762   2.944  2.1701  0.5749  0.0438
 8800TIP3    H226358   7.020   1.638   2.894  0.7129 -0.2456 -0.0552
 8801TIP3   OH226359   1.351   7.782   6.218  0.0253  0.3669  0.0870
 8801TIP3    H126360   1.291   7.730   6.272 -0.4980  1.1349  0.2499
 8801TIP3    H226361   1.303   7.799   6.137 -1.7870  4.5864  1.7681
 8802TIP3   OH226362   5.194   4.203   4.965  0.1359  0.6687 -0.6330
 8802TIP3    H126363   5.140   4.203   4.886 -1.3670 -1.8146  0.2914
 8802TIP3    H226364   5.256   4.131   4.952 -0.5241 -0.1624  0.6691
 8803TIP3   OH226365   2.073   2.849   1.222  0.0984 -0.0174  0.3500
 8803TIP3    H126366   2.098   2.823   1.310 -1.4058 -2.3021  0.1729
 8803TIP3    H226367   2.011   2.782   1.193  0.7340  0.4815 -2.5472
 8804TIP3   OH226368   3.358   4.455   0.617  0.3048  0.1496  0.5053
 8804TIP3    H126369   3.394   4.380   0.568 -0.1116  1.1582 -1.4440
 8804TIP3    H226370   3.267   4.459   0.590  0.5185  1.8439 -0.0967
 8805TIP3   OH226371   2.969   1.531   3.905  0.1551 -0.3721  0.0268
 8805TIP3    H126372   3.025   1.560   3.977  1.4786 -1.3374 -0.5681
 8805TIP3    H226373   2.981   1.597   3.837 -3.4735  2.2874  1.6426
 8806TIP3   OH226374   5.009   3.905   4.236 -0.3893 -0.1605  0.1845
 8806TIP3    H126375   4.928   3.858   4.215 -0.8538  0.9297 -0.5655
 8806TIP3    H226376   4.983   3.969   4.302  0.1794 -0.7495  0.9962
 8807TIP3   OH226377   1.689   1.919   0.947  0.4072 -0.0192 -0.2968
 8807TIP3    H126378   1.768   1.973   0.943 -1.1462  2.7074  2.1208
 8807TIP3    H226379   1.645   1.935   0.864  0.8542  1.0522 -0.3385
 8808TIP3   OH226380   3.569   7.668   2.648 -0.0425  0.5022  0.3643
 8808TIP3    H126381   3.556   7.747   2.700  1.0255  2.7128 -2.4539
 8808TIP3    H226382   3.482   7.629   2.642 -0.4756  1.0543  2.3724
 8809TIP3   OH226383   8.133   5.759   5.165 -0.0697  0.0610 -0.3063
 8809TIP3    H126384   8.153   5.810   5.086 -0.1279  1.6643  0.6540
 8809TIP3    H226385   8.037   5.751   5.165 -0.2052  1.3483  0.3070
 8810TIP3   OH226386   8.004   4.369   5.896 -0.5241  0.1846  0.1298
 8810TIP3    H126387   8.093   4.399   5.879  0.0831 -1.3064  0.5002
 8810TIP3    H226388   7.948   4.426   5.843  0.6651  0.9106 -0.3779
 8811TIP3   OH226389   4.764   0.452   3.682 -0.2266  0.3395  0.1509
 8811TIP3    H126390   4.739   0.505   3.607  0.3682 -0.1499 -0.4021
 8811TIP3    H226391   4.853   0.481   3.704  0.2359 -0.6502 -0.3678
 8812TIP3   OH226392   3.503   7.005   1.517 -0.2143 -0.3251  0.4942
 8812TIP3    H126393   3.594   6.994   1.545 -0.5961 -0.9800  1.5270
 8812TIP3    H226394   3.484   7.098   1.534 -0.1486 -0.5010  1.5776
 8813TIP3   OH226395   2.643   4.894   2.048 -0.7678 -0.1147  0.4913
 8813TIP3    H126396   2.679   4.919   2.133  0.7932 -0.9679  0.1159
 8813TIP3    H226397   2.684   4.810   2.028 -0.6280  0.3430 -1.3656
 8814TIP3   OH226398   0.399   4.755   2.593  0.2486  0.1505 -0.4271
 8814TIP3    H126399   0.338   4.772   2.665  1.0167 -2.4697  0.9260
 8814TIP3    H226400   0.481   4.795   2.621  0.1606  0.4357 -0.5654
 8815TIP3   OH226401   2.156   2.890   3.959  0.1543  0.1928  0.3347
 8815TIP3    H126402   2.218   2.947   4.004 -0.1678  0.3713  0.5600
 8815TIP3    H226403   2.142   2.931   3.874  0.9329 -0.2629 -0.0164
 8816TIP3   OH226404   3.584   0.710   6.704 -0.3391 -0.1552  0.1797
 8816TIP3    H126405   3.536   0.733   6.624 -0.9671 -0.0155  0.5833
 8816TIP3    H226406   3.657   0.656   6.674  0.5342  1.4423 -0.6815
 8817TIP3   OH226407   6.234   6.449   6.598  0.1880  0.2215 -0.0915
 8817TIP3    H126408   6.176   6.453   6.674  0.9810  0.9289  0.5012
 8817TIP3    H226409   6.314   6.492   6.627 -0.0511  2.0194 -1.8314
 8818TIP3   OH226410   5.932   7.513   0.339  0.4945 -0.6853  0.0110
 8818TIP3    H126411   6.019   7.531   0.303 -0.2046  0.9261 -0.9663
 8818TIP3    H226412   5.937   7.542   0.430  0.3551  1.6503 -0.6581
 8819TIP3   OH226413   2.603   1.184   2.776  1.0485 -0.1481  0.1701
 8819TIP3    H126414   2.637   1.266   2.812  1.9754 -0.1741 -0.5993
 8819TIP3    H226415   2.579   1.132   2.853 -0.3403  1.1436  0.6587
 8820TIP3   OH226416   2.325   4.863   2.253 -0.6580 -0.5920  0.0492
 8820TIP3    H126417   2.343   4.903   2.338 -0.2710  0.0970 -0.3407
 8820TIP3    H226418   2.232   4.842   2.254 -0.5635 -0.9701  0.7992
 8821TIP3   OH226419   4.061   6.468   1.587 -0.0711  0.7677 -0.6200
 8821TIP3    H126420   4.014   6.542   1.548  2.6591  2.1701 -1.4856
 8821TIP3    H226421   4.142   6.506   1.620  0.7919 -1.6377  0.2406
 8822TIP3   OH226422   7.409   5.367   3.735 -0.2813  0.2964  0.2537
 8822TIP3    H126423   7.492   5.345   3.777  0.7112  1.5254 -0.9581
 8822TIP3    H226424   7.355   5.288   3.744  0.7656 -0.3070  1.6204
 8823TIP3   OH226425   0.853   5.979   5.307 -0.1688  0.1825 -0.0584
 8823TIP3    H126426   0.760   5.963   5.291 -0.2426 -0.1541  0.6978
 8823TIP3    H226427   0.858   6.073   5.326 -0.8152 -0.2753  2.8728
 8824TIP3   OH226428   1.752   7.809   6.489  0.5553  0.4185  0.2864
 8824TIP3    H126429   1.790   7.733   6.534 -1.2140  0.3975  1.8446
 8824TIP3    H226430   1.691   7.771   6.426  0.7627  0.5188  0.0250
 8825TIP3   OH226431   3.230   0.273   2.383  0.3688 -0.0768 -0.0393
 8825TIP3    H126432   3.229   0.320   2.300  0.3390  0.2437  0.1404
 8825TIP3    H226433   3.208   0.183   2.360  2.2295 -0.4085 -0.6258
 8826TIP3   OH226434   6.028   2.739   4.705  1.1385  0.1108 -0.0539
 8826TIP3    H126435   5.948   2.792   4.697  0.2894 -1.0245  0.7415
 8826TIP3    H226436   6.002   2.661   4.754  2.6974 -0.3846  0.0626
 8827TIP3   OH226437   7.136   2.403   1.314  0.1130 -0.5584 -0.3673
 8827TIP3    H126438   7.051   2.425   1.274 -0.4494  2.7954  2.2152
 8827TIP3    H226439   7.199   2.456   1.267  0.4195 -1.1332 -0.6194
 8828TIP3   OH226440   3.470   2.595   5.224 -0.5419  0.3057 -0.0057
 8828TIP3    H126441   3.462   2.639   5.309  0.3889  1.1045 -0.3122
 8828TIP3    H226442   3.528   2.652   5.173  0.3757 -1.0896 -0.5568
 8829TIP3   OH226443   7.930   3.958   6.765 -0.0772  0.3731 -0.6644
 8829TIP3    H126444   7.999   3.943   6.701 -1.3201  0.7561 -2.1420
 8829TIP3    H226445   7.895   3.871   6.784  1.1269  0.1125  0.5066
 8830TIP3   OH226446   7.668   5.852   5.573 -0.7034  0.0724  0.3351
 8830TIP3    H126447   7.679   5.799   5.495 -0.2124  1.8540 -0.8604
 8830TIP3    H226448   7.610   5.923   5.547  0.7107  1.5889  1.0930
 8831TIP3   OH226449   5.845   1.719   2.885  0.7442  0.1063  0.1651
 8831TIP3    H126450   5.913   1.654   2.899  1.5234  0.7490 -0.5630
 8831TIP3    H226451   5.802   1.693   2.804  0.4060 -0.0552  0.3951
 8832TIP3   OH226452   5.243   3.353   0.890 -0.1060 -0.0177 -0.1751
 8832TIP3    H126453   5.308   3.393   0.948  0.9737 -0.4873 -1.0245
 8832TIP3    H226454   5.203   3.284   0.944 -0.6608  0.9615  0.6921
 8833TIP3   OH226455   0.117   0.134   5.670  0.1255 -0.0693 -0.6159
 8833TIP3    H126456   0.205   0.112   5.701  0.5153 -1.8921 -2.7125
 8833TIP3    H226457   0.110   0.228   5.682  2.2217  0.0562 -0.0009
 8834TIP3   OH226458   3.330   3.582   0.808 -0.0358 -0.1954  0.2687
 8834TIP3    H126459   3.287   3.653   0.855  1.7994  0.5651  0.8813
 8834TIP3    H226460   3.409   3.621   0.771  1.1985 -1.9624  0.8843
 8835TIP3   OH226461   6.144   5.291   0.654 -0.1741 -0.2178 -0.6024
 8835TIP3    H126462   6.108   5.283   0.566 -1.9675 -0.4383  0.1024
 8835TIP3    H226463   6.068   5.309   0.709  0.9211  0.0023  0.8910
 8836TIP3   OH226464   2.950   0.233   2.640  0.4683 -0.2326  0.6278
 8836TIP3    H126465   2.979   0.300   2.701 -2.2967 -0.8624  2.8788
 8836TIP3    H226466   2.864   0.263   2.610  0.7581 -1.0685 -1.1492
 8837TIP3   OH226467   4.847   1.212   5.578  0.1857 -0.4658  0.0405
 8837TIP3    H126468   4.777   1.271   5.549  0.1249 -1.3457 -1.7013
 8837TIP3    H226469   4.865   1.240   5.668 -2.0335  0.1215  0.3739
 8838TIP3   OH226470   5.967   1.450   4.584  0.5284 -0.0953 -0.5460
 8838TIP3    H126471   5.891   1.496   4.549  0.5231  0.4886  0.2214
 8838TIP3    H226472   5.987   1.383   4.518 -0.3838  0.0238 -0.9523
 8839TIP3   OH226473   5.067   6.124   6.129  0.8339  0.2228 -0.1179
 8839TIP3    H126474   5.076   6.125   6.034  1.0559  1.1336 -0.0969
 8839TIP3    H226475   4.976   6.150   6.145  0.3934 -1.2089 -0.0986
 8840TIP3   OH226476   7.232   6.433   5.731  0.1687  0.2818 -0.1123
 8840TIP3    H126477   7.263   6.403   5.645  1.6613 -0.0455  0.5032
 8840TIP3    H226478   7.178   6.510   5.712 -0.1916 -0.2689 -1.3949
 8841TIP3   OH226479   6.210   6.178   5.735  0.1642  1.1393  0.0972
 8841TIP3    H126480   6.302   6.177   5.761  0.2185 -2.6604  0.3033
 8841TIP3    H226481   6.213   6.185   5.639  0.6337  1.3124  0.1184
 8842TIP3   OH226482   4.196   6.775   3.463  0.3800 -0.1989 -0.2984
 8842TIP3    H126483   4.206   6.850   3.522 -0.4208  0.0308 -0.4323
 8842TIP3    H226484   4.249   6.798   3.386  1.5170 -0.5495  0.3551
 8843TIP3   OH226485   4.142   7.032   5.132  0.0110 -0.0536 -0.3184
 8843TIP3    H126486   4.192   7.032   5.214  0.5422  0.0052 -0.6387
 8843TIP3    H226487   4.155   6.945   5.096 -2.3501 -0.9922  0.9202
 8844TIP3   OH226488   2.049   3.701   0.899  0.0408  0.3142 -0.3164
 8844TIP3    H126489   1.988   3.628   0.888  0.0807  0.2616 -0.1792
 8844TIP3    H226490   2.019   3.766   0.835 -1.8402  1.4238  1.5678
 8845TIP3   OH226491   0.898   6.646   2.215 -0.1571 -0.1417 -0.2391
 8845TIP3    H126492   0.982   6.660   2.171  0.2019 -1.1862  0.0945
 8845TIP3    H226493   0.842   6.605   2.150 -0.4158  0.5544 -0.4612
 8846TIP3   OH226494   6.329   6.445   1.441  0.0840 -0.0638 -0.6392
 8846TIP3    H126495   6.279   6.497   1.378  1.6911  1.6173 -0.6088
 8846TIP3    H226496   6.385   6.390   1.386  1.2041  1.1211 -0.7323
 8847TIP3   OH226497   0.791   4.440   4.515 -0.4040  0.4410 -0.5001
 8847TIP3    H126498   0.869   4.400   4.475 -1.5174 -1.6265 -0.7391
 8847TIP3    H226499   0.823   4.476   4.598  1.1881  1.4839 -1.4911
 8848TIP3   OH226500   5.272   2.111   3.534 -0.1318 -0.2380 -0.5324
 8848TIP3    H126501   5.270   2.097   3.628  1.3629  3.6881  0.2713
 8848TIP3    H226502   5.181   2.097   3.506 -0.6935 -1.0487  1.5322
 8849TIP3   OH226503   6.849   5.218   4.197  0.0937 -0.2996 -0.1355
 8849TIP3    H126504   6.929   5.169   4.214  0.6221  0.0123 -1.6109
 8849TIP3    H226505   6.866   5.306   4.230  0.4326 -0.1819 -0.6241
 8850TIP3   OH226506   1.703   3.852   1.527 -0.1794  0.0023  0.0904
 8850TIP3    H126507   1.761   3.867   1.602 -0.7905 -0.1653  0.6043
 8850TIP3    H226508   1.704   3.757   1.515 -1.5231 -0.1620  1.0720
 8851TIP3   OH226509   7.162   4.517   2.475 -0.1303 -0.4055  0.3215
 8851TIP3    H126510   7.143   4.601   2.433 -0.9989 -1.1196 -0.7826
 8851TIP3    H226511   7.248   4.492   2.441 -0.3661 -0.4835 -0.2273
 8852TIP3   OH226512   7.796   3.569   2.994 -0.8086  0.0576 -0.2095
 8852TIP3    H126513   7.753   3.567   2.909 -1.7168  2.1332  0.1241
 8852TIP3    H226514   7.726   3.592   3.056  0.1195  0.1217  0.8504
 8853TIP3   OH226515   1.484   0.070   6.206 -0.2486  0.2001 -0.6735
 8853TIP3    H126516   1.438   0.128   6.146 -0.9621 -0.9281 -1.2464
 8853TIP3    H226517   1.456  -0.018   6.181 -1.6571 -0.2753  2.1694
 8854TIP3   OH226518   8.201   4.798   3.902 -0.1843 -0.1576  0.0981
 8854TIP3    H126519   8.134   4.731   3.910  0.2737 -0.4846  1.4813
 8854TIP3    H226520   8.159   4.878   3.934 -0.8187  0.3246 -1.8070
 8855TIP3   OH226521   4.046   5.476   2.174  0.4989 -0.5508  0.3473
 8855TIP3    H126522   4.085   5.532   2.241 -1.6325 -0.1962  1.3699
 8855TIP3    H226523   4.071   5.516   2.091  0.9164  0.6046  1.0064
 8856TIP3   OH226524   7.567   2.964   1.350 -0.0045 -0.4426  0.2825
 8856TIP3    H126525   7.598   2.943   1.262  0.0976  0.0880  0.1868
 8856TIP3    H226526   7.527   3.050   1.341 -0.2203 -0.4946  0.7067
 8857TIP3   OH226527   5.452   5.738   4.222  0.3713  0.1623 -0.2556
 8857TIP3    H126528   5.473   5.748   4.315  0.5693  2.6188 -0.4853
 8857TIP3    H226529   5.367   5.694   4.220  0.0963  0.5963  1.1124
 8858TIP3   OH226530   0.586   0.832   1.990 -0.1634  0.3376 -0.5109
 8858TIP3    H126531   0.582   0.842   1.895  0.3820 -1.1672 -0.7224
 8858TIP3    H226532   0.500   0.799   2.015 -1.0361  2.7304 -0.1707
 8859TIP3   OH226533   1.710   1.676   3.744 -0.4716  0.1835 -0.5329
 8859TIP3    H126534   1.774   1.652   3.811  0.3938  1.4256 -0.8905
 8859TIP3    H226535   1.633   1.623   3.765  0.5390 -1.0865  0.1139
 8860TIP3   OH226536   7.902   0.277   0.027 -0.5452  0.2417 -0.0058
 8860TIP3    H126537   7.928   0.321  -0.054 -2.3098  1.2467 -0.0670
 8860TIP3    H226538   7.944   0.328   0.096  1.2603 -0.8275 -0.2466
 8861TIP3   OH226539   2.783   0.640   4.817  0.1432 -0.2653  0.0041
 8861TIP3    H126540   2.860   0.683   4.781 -1.7759  2.1756 -1.4679
 8861TIP3    H226541   2.794   0.646   4.912  2.2379 -0.9749 -0.1539
 8862TIP3   OH226542   4.807   7.750   3.089  0.0195 -0.3216  0.1226
 8862TIP3    H126543   4.728   7.756   3.142 -0.2620 -1.6202 -0.1008
 8862TIP3    H226544   4.791   7.674   3.032 -0.0046  1.4209 -2.3391
 8863TIP3   OH226545   0.075   1.598   0.779  0.4900  0.3034  0.3411
 8863TIP3    H126546   0.146   1.592   0.843  1.7188 -1.7460 -1.1146
 8863TIP3    H226547   0.097   1.674   0.725  1.1511  0.1364  0.3760
 8864TIP3   OH226548   3.911   4.938   6.740 -0.1382 -0.1481  0.0017
 8864TIP3    H126549   3.927   4.845   6.756  0.0322 -0.4058 -1.5012
 8864TIP3    H226550   3.961   4.984   6.808  1.9812 -1.1053 -0.8293
 8865TIP3   OH226551   0.316   2.560   1.924 -0.1082 -0.0366 -0.0344
 8865TIP3    H126552   0.384   2.520   1.870 -1.0055 -1.5295 -0.1177
 8865TIP3    H226553   0.361   2.630   1.972  1.3958 -0.7822 -0.3065
 8866TIP3   OH226554   3.339   4.856   0.060 -0.4933  0.2328  0.0560
 8866TIP3    H126555   3.380   4.798  -0.005 -0.8176  1.3118 -1.1458
 8866TIP3    H226556   3.302   4.796   0.125  1.1118 -0.8332  0.0450
 8867TIP3   OH226557   4.633   7.444   5.702  0.0350  0.0983 -0.1616
 8867TIP3    H126558   4.706   7.383   5.697  0.4558  0.5892 -0.0210
 8867TIP3    H226559   4.670   7.523   5.740 -0.6782  0.1803  0.3867
 8868TIP3   OH226560   1.651   4.965   4.040 -0.6801 -0.5268 -0.3722
 8868TIP3    H126561   1.702   4.905   3.987 -0.4504 -1.5537  0.9528
 8868TIP3    H226562   1.605   4.909   4.103  0.7995  0.7450  1.9871
 8869TIP3   OH226563   8.094   4.938   4.778  0.0757 -0.4954 -0.4946
 8869TIP3    H126564   8.161   4.969   4.717 -0.3499  3.3525  0.7286
 8869TIP3    H226565   8.143   4.890   4.845  1.8022  2.0822  0.2951
 8870TIP3   OH226566   6.124   6.642   4.383 -0.2265 -0.7345  0.0868
 8870TIP3    H126567   6.146   6.598   4.301  0.7385 -0.9122  0.4316
 8870TIP3    H226568   6.101   6.731   4.356  1.5028 -0.3571 -0.2674
 8871TIP3   OH226569   6.519   6.922   4.824 -0.7693  0.3011 -0.0706
 8871TIP3    H126570   6.545   7.012   4.841 -0.8541  0.4073 -0.4990
 8871TIP3    H226571   6.590   6.869   4.861  0.3800  0.5994 -1.7533
 8872TIP3   OH226572   2.061   0.546   0.080  0.4739 -0.2788 -0.1830
 8872TIP3    H126573   2.054   0.642   0.083 -1.1216 -0.3513 -0.7698
 8872TIP3    H226574   2.029   0.522  -0.007  3.3834 -1.2120 -1.1151
 8873TIP3   OH226575   3.653   7.048   1.968  0.5027 -0.2408  0.1865
 8873TIP3    H126576   3.653   7.099   2.049 -0.8165 -0.0187  0.0650
 8873TIP3    H226577   3.583   6.984   1.980 -2.3662  2.1402 -2.1319
 8874TIP3   OH226578   2.245   0.173   4.439  0.3621 -0.0700  0.6532
 8874TIP3    H126579   2.257   0.084   4.473 -0.1764  0.2888  1.8697
 8874TIP3    H226580   2.282   0.229   4.507 -0.9400  0.6921  0.7830
 8875TIP3   OH226581   1.332   2.313   0.746 -0.0461 -0.1402 -0.0930
 8875TIP3    H126582   1.327   2.322   0.651  0.3519 -0.6442 -0.1683
 8875TIP3    H226583   1.269   2.376   0.780 -0.2306  0.0025 -0.6932
 8876TIP3   OH226584   4.180   0.603   1.889 -0.5110 -0.1136  0.5943
 8876TIP3    H126585   4.195   0.659   1.813  2.4651  1.8586  2.4211
 8876TIP3    H226586   4.210   0.517   1.861  1.2221  0.7251 -0.3236
 8877TIP3   OH226587   3.459   4.708   1.656  0.8479 -0.3086  0.0146
 8877TIP3    H126588   3.548   4.714   1.692  0.1185  1.7213  1.6413
 8877TIP3    H226589   3.442   4.614   1.652  2.1691 -0.6983  2.0169
 8878TIP3   OH226590   4.685   3.961   3.721 -0.5688  0.3693 -0.6705
 8878TIP3    H126591   4.753   4.005   3.773 -0.7832  0.3936 -0.4094
 8878TIP3    H226592   4.691   3.869   3.747 -0.2392  0.2698 -1.0860
 8879TIP3   OH226593   2.593   1.649   5.794 -0.3325 -0.9818  0.4359
 8879TIP3    H126594   2.681   1.661   5.759 -0.2774 -0.8793  0.6072
 8879TIP3    H226595   2.607   1.610   5.881 -0.4044  0.1135  0.9560
 8880TIP3   OH226596   8.217   3.557   1.876  0.4358 -0.0027  0.6186
 8880TIP3    H126597   8.233   3.479   1.824  0.6959 -0.3100  1.1533
 8880TIP3    H226598   8.205   3.627   1.812  1.8657 -0.1567  0.1528
 8881TIP3   OH226599   7.483   4.711   1.467 -0.3305 -0.3065 -0.2841
 8881TIP3    H126600   7.427   4.703   1.544  1.6322 -0.2698  1.2439
 8881TIP3    H226601   7.505   4.620   1.444  0.0386 -0.2783 -0.0482
 8882TIP3   OH226602   7.933   1.239   3.440 -0.4595  0.2590  0.7243
 8882TIP3    H126603   7.917   1.178   3.511 -0.3023 -0.1784  0.3890
 8882TIP3    H226604   8.027   1.232   3.422 -0.7082 -0.5709 -0.3616
 8883TIP3   OH226605   2.301   2.960   4.876 -0.5005 -0.6950  0.1852
 8883TIP3    H126606   2.384   2.981   4.835 -0.2260  1.8854  1.8303
 8883TIP3    H226607   2.235   3.004   4.822 -0.4600 -0.0272  0.6721
 8884TIP3   OH226608   3.002   5.511   3.801 -0.0835  0.8146 -0.3105
 8884TIP3    H126609   2.971   5.428   3.763 -0.2575  0.8536 -0.2562
 8884TIP3    H226610   3.094   5.496   3.819 -0.6326 -0.2152  1.9794
 8885TIP3   OH226611   3.703   3.138   1.976 -0.2764 -0.1071 -0.1190
 8885TIP3    H126612   3.675   3.123   1.886 -0.7817  2.0661 -0.3789
 8885TIP3    H226613   3.769   3.070   1.992 -0.9082 -1.1687 -1.7591
 8886TIP3   OH226614   1.522   5.991   3.276  0.2798  0.0578 -0.2866
 8886TIP3    H126615   1.485   6.003   3.189 -1.3915  0.2597  0.4098
 8886TIP3    H226616   1.615   5.977   3.261  0.6742  3.5001 -1.8962
 8887TIP3   OH226617   2.020   5.891   3.672 -0.0318  0.1284  0.8305
 8887TIP3    H126618   1.963   5.841   3.614 -0.0742  1.7244 -0.5668
 8887TIP3    H226619   2.108   5.865   3.647 -0.0159  1.4379 -0.6117
 8888TIP3   OH226620   7.643   0.075   4.724 -0.7072 -0.0418  0.5516
 8888TIP3    H126621   7.648  -0.002   4.667  0.6973 -0.4356  1.1621
 8888TIP3    H226622   7.549   0.085   4.742 -1.0661 -0.6419 -0.8157
 8889TIP3   OH226623   4.107   1.898   4.232  0.0730 -0.5623 -0.1677
 8889TIP3    H126624   4.148   1.828   4.283 -0.4315 -1.6106 -1.1447
 8889TIP3    H226625   4.123   1.873   4.141  0.7412  1.1383 -0.5515
 8890TIP3   OH226626   4.455   0.528   5.174  0.0384 -0.1302  0.2167
 8890TIP3    H126627   4.495   0.566   5.252  1.2615  0.4881 -0.6877
 8890TIP3    H226628   4.428   0.440   5.202  1.5979 -0.3926  1.0000
 8891TIP3   OH226629   7.546   2.407   0.578 -0.4763 -0.5025  0.7018
 8891TIP3    H126630   7.618   2.436   0.523 -1.0967 -0.7063 -0.2400
 8891TIP3    H226631   7.516   2.325   0.538 -1.7046 -0.0418  0.6339
 8892TIP3   OH226632   7.548   6.840   4.722  0.3673  0.3827  0.2072
 8892TIP3    H126633   7.489   6.869   4.653 -0.8509  0.0014  1.0608
 8892TIP3    H226634   7.565   6.918   4.774 -0.0695  0.3294  0.4395
 8893TIP3   OH226635   7.027   6.664   4.731 -0.2479 -0.3153 -0.0581
 8893TIP3    H126636   6.964   6.624   4.791 -0.5452  0.5171  0.1971
 8893TIP3    H226637   6.976   6.681   4.651 -0.3789  0.4610  0.1881
 8894TIP3   OH226638   6.739   1.959   1.270  0.1376 -0.2418  0.7921
 8894TIP3    H126639   6.714   1.967   1.362 -1.8740  0.7004  0.2097
 8894TIP3    H226640   6.794   2.036   1.254 -0.6622  0.3688  0.8872
 8895TIP3   OH226641   5.540   1.524   3.462 -0.1690 -0.1259  0.7356
 8895TIP3    H126642   5.616   1.510   3.519  0.0689  0.8228  0.6777
 8895TIP3    H226643   5.565   1.486   3.378  0.2069  0.0808  0.7519
 8896TIP3   OH226644   7.636   6.892   6.519 -0.2289  0.1110  0.0778
 8896TIP3    H126645   7.563   6.953   6.523  0.6398  1.2170 -0.3352
 8896TIP3    H226646   7.712   6.943   6.548  0.4964 -0.8241 -0.1013
 8897TIP3   OH226647   6.987   3.597   0.465  0.4188  0.2175  0.1745
 8897TIP3    H126648   6.918   3.660   0.442  0.2256 -0.8026 -2.2478
 8897TIP3    H226649   6.940   3.517   0.487  0.6945 -1.1745 -3.5891
 8898TIP3   OH226650   5.585   0.222   6.082 -0.5686 -1.0333 -0.5115
 8898TIP3    H126651   5.588   0.170   6.163  0.5114 -0.5434 -0.2233
 8898TIP3    H226652   5.672   0.214   6.045 -0.8750 -0.7331 -1.3112
 8899TIP3   OH226653   2.492   2.017   5.792  0.0139  0.0878 -0.2504
 8899TIP3    H126654   2.475   2.107   5.763 -1.0424  0.1190  0.4318
 8899TIP3    H226655   2.455   1.963   5.723 -0.3910  0.1740 -0.1027
 8900TIP3   OH226656   0.042   1.183   5.275  0.1237 -0.7171 -0.1648
 8900TIP3    H126657   0.133   1.173   5.246 -0.2107  1.5355 -2.3347
 8900TIP3    H226658   0.038   1.272   5.311 -1.2474 -0.7010 -0.2981
 8901TIP3   OH226659   1.522   2.867   5.519 -0.8283 -0.4608 -0.2507
 8901TIP3    H126660   1.432   2.890   5.494 -1.4919  0.3804  2.5413
 8901TIP3    H226661   1.576   2.937   5.481 -1.5528 -0.0721 -0.5898
 8902TIP3   OH226662   2.252   2.513   3.256  1.1062 -0.2754 -0.3528
 8902TIP3    H126663   2.243   2.464   3.337 -0.5778 -0.6335 -0.7235
 8902TIP3    H226664   2.283   2.600   3.284 -1.1463  0.1929  0.8971
 8903TIP3   OH226665   1.118   2.409   1.789  0.4659 -0.2933  0.4750
 8903TIP3    H126666   1.143   2.498   1.766 -1.3620 -0.3037 -2.0513
 8903TIP3    H226667   1.182   2.354   1.743 -1.1023 -0.2579 -1.9108
 8904TIP3   OH226668   1.171   4.315   1.938 -0.3819 -0.1022 -0.0595
 8904TIP3    H126669   1.108   4.387   1.934  0.7057  0.8996  0.5009
 8904TIP3    H226670   1.255   4.357   1.954  0.7040 -1.2815 -2.2037
 8905TIP3   OH226671   4.789   3.068   0.513 -0.0350 -0.4024  0.3478
 8905TIP3    H126672   4.723   3.071   0.583 -0.0770  0.9360  0.2876
 8905TIP3    H226673   4.786   2.978   0.481  0.5976 -1.3165  2.6310
 8906TIP3   OH226674   7.208   3.230   5.966  0.5453  0.0285 -0.3554
 8906TIP3    H126675   7.278   3.164   5.964  1.2079  0.7350 -0.8883
 8906TIP3    H226676   7.253   3.313   5.952 -0.0925  0.7797  1.7120
 8907TIP3   OH226677   6.246   6.943   1.943 -0.1631 -0.1229 -0.4803
 8907TIP3    H126678   6.233   6.848   1.942 -0.2794 -0.2266  2.4849
 8907TIP3    H226679   6.158   6.980   1.936 -0.2037 -0.2623 -0.6963
 8908TIP3   OH226680   0.953   2.004   4.878  0.5349 -0.1530 -0.4835
 8908TIP3    H126681   0.996   2.047   4.804 -0.8222  0.8565 -0.7109
 8908TIP3    H226682   1.022   1.997   4.944  1.2183  0.8962 -1.0456
 8909TIP3   OH226683   3.559   1.574   2.843 -0.0618  0.0933  0.2127
 8909TIP3    H126684   3.570   1.609   2.754 -1.0449  0.2567  0.1439
 8909TIP3    H226685   3.645   1.537   2.865 -0.4949 -2.5699 -1.9472
 8910TIP3   OH226686   6.216   5.993   3.521  0.2410 -0.0907  0.2119
 8910TIP3    H126687   6.307   5.975   3.496 -0.3159 -0.1490 -1.9859
 8910TIP3    H226688   6.188   6.063   3.462 -1.2904 -0.3984  0.5281
 8911TIP3   OH226689   4.598   0.528   1.420 -0.1402 -0.4114 -0.0725
 8911TIP3    H126690   4.520   0.556   1.370 -0.0965  1.0540  0.6360
 8911TIP3    H226691   4.582   0.559   1.509  0.2037 -2.2059  0.6646
 8912TIP3   OH226692   0.330   6.850   2.041 -0.2328  0.3322 -0.4563
 8912TIP3    H126693   0.272   6.923   2.019  0.3040  0.0169 -3.3353
 8912TIP3    H226694   0.384   6.838   1.962  1.0515 -1.8924  0.6698
 8913TIP3   OH226695   2.134   5.112   5.107  0.0848 -0.1641 -0.1499
 8913TIP3    H126696   2.142   5.153   5.193  0.4725  0.7274 -0.5924
 8913TIP3    H226697   2.062   5.158   5.065  1.0891  0.7024 -0.9820
 8914TIP3   OH226698   5.760   3.596   2.535 -0.5946  0.2922  0.4135
 8914TIP3    H126699   5.824   3.567   2.470 -1.3108 -0.3755 -0.0165
 8914TIP3    H226700   5.696   3.647   2.485  0.0839  1.7570  0.9943
 8915TIP3   OH226701   1.257   0.903   4.575  0.4583  0.6405 -0.0072
 8915TIP3    H126702   1.264   0.987   4.528 -0.5769  0.4986 -0.4273
 8915TIP3    H226703   1.283   0.924   4.665  0.8915  1.2593 -0.2671
 8916TIP3   OH226704   6.191   3.499   5.522 -0.2732 -0.7526 -0.2577
 8916TIP3    H126705   6.175   3.513   5.616  3.7038 -3.1435  1.0036
 8916TIP3    H226706   6.167   3.407   5.508  0.0696 -0.6821 -1.3463
 8917TIP3   OH226707   8.024   2.351   4.568  0.3714 -0.3336  0.5126
 8917TIP3    H126708   8.019   2.262   4.531  2.5056 -0.5047  0.5018
 8917TIP3    H226709   8.007   2.339   4.661  0.3429 -0.7138  0.4608
 8918TIP3   OH226710   7.362   6.860   0.380  0.5491 -0.2006  0.4506
 8918TIP3    H126711   7.367   6.795   0.451  1.5799 -0.2251  0.3606
 8918TIP3    H226712   7.413   6.822   0.309  0.4546  0.3366  0.0941
 8919TIP3   OH226713   0.520   5.808   0.916  0.3310 -0.2197 -0.5472
 8919TIP3    H126714   0.491   5.837   1.002  1.1612 -0.5849 -0.1327
 8919TIP3    H226715   0.476   5.725   0.901 -0.1487  0.0531 -0.6691
 8920TIP3   OH226716   7.518   5.971   1.157  0.4287 -0.1048  0.2649
 8920TIP3    H126717   7.442   5.953   1.101 -0.1488  0.5226  0.8397
 8920TIP3    H226718   7.588   5.917   1.119 -0.1739 -0.3420 -0.5468
 8921TIP3   OH226719   3.547   4.775   2.183 -0.1517 -0.8859  0.4222
 8921TIP3    H126720   3.487   4.835   2.140  3.0175  2.4208  0.1454
 8921TIP3    H226721   3.593   4.731   2.111  0.7161 -0.1461  0.5101
 8922TIP3   OH226722   3.069   0.653   2.535 -0.1775  0.2107 -0.0383
 8922TIP3    H126723   3.036   0.739   2.507 -1.7817 -0.1843  0.5108
 8922TIP3    H226724   3.141   0.634   2.475 -1.5598  0.7091 -1.9632
 8923TIP3   OH226725   6.855   2.153   6.708  0.6108 -0.0888  0.0159
 8923TIP3    H126726   6.871   2.233   6.758 -1.3338  1.1343 -1.2044
 8923TIP3    H226727   6.881   2.082   6.768 -0.4047  1.3479  2.2907
 8924TIP3   OH226728   2.564   5.851   5.683 -0.5511  0.0306  0.0887
 8924TIP3    H126729   2.601   5.763   5.670 -0.8137  0.1807 -2.0207
 8924TIP3    H226730   2.514   5.844   5.765 -2.0983 -2.3733 -0.9385
 8925TIP3   OH226731   4.100   2.509   4.654  0.1957  0.1545  0.1714
 8925TIP3    H126732   4.182   2.482   4.696 -0.0488 -0.9980 -0.0387
 8925TIP3    H226733   4.086   2.442   4.586  0.7190  2.0785 -1.9614
 8926TIP3   OH226734   7.469   6.936   1.306  0.5359  0.4691  0.3023
 8926TIP3    H126735   7.419   6.963   1.384  0.7244  1.0649  0.2244
 8926TIP3    H226736   7.547   6.990   1.309  1.0329 -0.2361  0.2480
 8927TIP3   OH226737   3.819   6.112   1.725 -0.4109  0.1889 -0.4313
 8927TIP3    H126738   3.902   6.075   1.756 -0.3513  1.0092  0.4506
 8927TIP3    H226739   3.842   6.157   1.644  0.0316  0.4794 -0.1492
 8928TIP3   OH226740   3.874   2.219   6.305  0.3777 -0.0812 -0.8949
 8928TIP3    H126741   3.878   2.141   6.249  0.3559 -0.7998  0.0702
 8928TIP3    H226742   3.782   2.244   6.305 -0.0946 -1.5592  0.7213
 8929TIP3   OH226743   2.587   6.291   2.401  0.2657 -0.1333 -0.1639
 8929TIP3    H126744   2.530   6.223   2.365  0.4468 -0.0855 -0.5559
 8929TIP3    H226745   2.624   6.333   2.323 -0.3951  0.8875  0.0600
 8930TIP3   OH226746   2.422   4.359   6.576 -0.5821 -0.5149 -0.6809
 8930TIP3    H126747   2.500   4.312   6.547 -0.4599  0.8296 -2.7839
 8930TIP3    H226748   2.382   4.391   6.495 -2.7847 -0.3205  0.4099
 8931TIP3   OH226749   7.896   7.163   5.815 -0.1277 -0.1205  0.5350
 8931TIP3    H126750   7.865   7.157   5.906  1.9347  0.0144  1.3092
 8931TIP3    H226751   7.974   7.219   5.820 -0.0491 -0.0180 -1.3431
 8932TIP3   OH226752   1.990   3.464   0.693 -0.1779  0.1410 -0.4682
 8932TIP3    H126753   2.013   3.374   0.714 -0.0827  0.4956  1.0787
 8932TIP3    H226754   2.074   3.510   0.689 -0.1791  0.0609 -1.8666
 8933TIP3   OH226755   3.336   5.296   5.459  0.2187  0.3874 -0.2674
 8933TIP3    H126756   3.287   5.374   5.433 -1.5336  0.1568  2.0394
 8933TIP3    H226757   3.275   5.224   5.444  1.4112 -0.4523 -1.2938
 8934TIP3   OH226758   2.694   2.027   4.562  0.1351 -0.0613  0.3100
 8934TIP3    H126759   2.605   1.998   4.578  0.1955 -0.6859 -0.4419
 8934TIP3    H226760   2.689   2.076   4.480  0.3426  0.6221  0.6937
 8935TIP3   OH226761   0.109   2.653   1.192  0.4240 -0.1225 -0.0131
 8935TIP3    H126762   0.160   2.710   1.248  1.3341 -0.7959 -0.1365
 8935TIP3    H226763   0.173   2.591   1.156 -0.2917 -0.2823 -1.0499
 8936TIP3   OH226764   7.464   2.892   3.422  0.0959  0.5555 -0.2758
 8936TIP3    H126765   7.419   2.839   3.357  0.1472  0.7143 -0.4439
 8936TIP3    H226766   7.396   2.918   3.484  0.4921 -1.7263  1.2023
 8937TIP3   OH226767   3.141   3.908   6.475  0.4799 -0.1715 -0.3600
 8937TIP3    H126768   3.137   3.937   6.566 -0.4770 -1.7253  0.1249
 8937TIP3    H226769   3.083   3.968   6.428 -1.6071 -1.2682  0.6573
 8938TIP3   OH226770   6.796   6.475   3.864 -0.2585  0.6875 -0.9401
 8938TIP3    H126771   6.858   6.438   3.801  1.3756  0.2344  0.8532
 8938TIP3    H226772   6.824   6.566   3.875  1.2308  0.0463  1.1094
 8939TIP3   OH226773   7.357   4.331   4.660 -0.1860 -0.2315  0.0410
 8939TIP3    H126774   7.380   4.424   4.653 -1.1470 -0.0643 -1.1691
 8939TIP3    H226775   7.440   4.285   4.652  0.0519  0.4431 -1.8685
 8940TIP3   OH226776   4.949   4.229   6.651 -0.2196 -0.2336  0.0424
 8940TIP3    H126777   4.912   4.146   6.619 -1.0192  0.8142 -1.9502
 8940TIP3    H226778   4.875   4.290   6.651  0.6616  0.8674 -0.0575
 8941TIP3   OH226779   0.436   5.112   2.935  1.0155  0.3317 -0.5271
 8941TIP3    H126780   0.392   5.035   2.898 -0.7391 -0.0998  2.1618
 8941TIP3    H226781   0.386   5.187   2.901 -0.0096  0.0010  0.1987
 8942TIP3   OH226782   6.275   1.510   4.625  0.2906 -0.1688 -0.1556
 8942TIP3    H126783   6.274   1.569   4.701  3.1947 -0.0815 -0.0858
 8942TIP3    H226784   6.322   1.558   4.558 -0.4867 -1.0366 -1.3523
 8943TIP3   OH226785   3.133   6.321   3.144  0.3253 -0.5837  0.1357
 8943TIP3    H126786   3.196   6.260   3.104 -0.6012 -1.0245 -0.7121
 8943TIP3    H226787   3.171   6.407   3.131 -0.4731 -0.5727 -2.8934
 8944TIP3   OH226788   6.333   5.925   5.636 -0.0449 -0.1357 -0.3404
 8944TIP3    H126789   6.364   5.992   5.696 -0.1247  0.4152 -0.9070
 8944TIP3    H226790   6.249   5.958   5.603  0.1364 -0.2908 -0.9773
 8945TIP3   OH226791   4.414   5.629   4.303 -0.5397  0.3425 -0.1110
 8945TIP3    H126792   4.372   5.554   4.260 -1.6417  0.8673  0.0147
 8945TIP3    H226793   4.344   5.669   4.355  0.1334  1.2297  0.1336
 8946TIP3   OH226794   1.520   1.257   6.526  0.0379  0.1714 -0.1833
 8946TIP3    H126795   1.435   1.297   6.543 -0.3606 -0.4655 -0.6431
 8946TIP3    H226796   1.502   1.163   6.524  0.5059  0.0894 -1.6284
 8947TIP3   OH226797   4.548   5.239   6.668  0.2094  0.2619  0.0890
 8947TIP3    H126798   4.501   5.307   6.716  1.5402  0.8019  0.6713
 8947TIP3    H226799   4.626   5.282   6.635 -0.0984 -0.4078 -1.5987
 8948TIP3   OH226800   3.610   4.570   2.368 -0.0390  0.4930 -0.4312
 8948TIP3    H126801   3.588   4.565   2.461 -0.6280  0.1348 -0.5861
 8948TIP3    H226802   3.595   4.662   2.345 -0.0186  0.5541 -0.2032
 8949TIP3   OH226803   5.574   3.248   5.442  0.7359 -0.0853 -0.1491
 8949TIP3    H126804   5.500   3.262   5.502  2.1737  0.5313  1.5785
 8949TIP3    H226805   5.566   3.317   5.377 -0.6290 -0.5075 -0.4625
 8950TIP3   OH226806   4.532   5.031   4.717 -0.9773  0.1356  0.2185
 8950TIP3    H126807   4.498   4.976   4.788  0.6525  0.5249  1.3528
 8950TIP3    H226808   4.618   5.059   4.747 -0.1901  0.2820 -1.9456
 8951TIP3   OH226809   6.621   3.657   0.992 -0.2395  0.7636 -0.1431
 8951TIP3    H126810   6.625   3.564   0.972  1.5137 -0.3631  4.3219
 8951TIP3    H226811   6.528   3.675   1.004 -0.4904 -1.0104  0.9240
 8952TIP3   OH226812   5.402   5.040   1.960 -0.3777  0.2108  0.4795
 8952TIP3    H126813   5.307   5.036   1.967 -0.5577  1.7606 -0.6051
 8952TIP3    H226814   5.422   5.133   1.953  0.9695 -0.1898 -2.1546
 8953TIP3   OH226815   1.237   1.340   2.176 -0.2357  0.0474  0.1424
 8953TIP3    H126816   1.282   1.273   2.125 -0.5686  0.8979 -1.3488
 8953TIP3    H226817   1.275   1.334   2.263  0.0815 -1.7336 -0.0827
 8954TIP3   OH226818   0.391   2.137   5.065  0.0703  0.2353  0.6325
 8954TIP3    H126819   0.348   2.154   4.981  1.8986  1.6743 -0.0750
 8954TIP3    H226820   0.327   2.085   5.114 -1.5111  0.3260 -1.1980
 8955TIP3   OH226821   5.485   3.877   5.278 -0.8929  1.3935  0.1092
 8955TIP3    H126822   5.480   3.888   5.373 -0.9690  1.3924  0.1056
 8955TIP3    H226823   5.509   3.964   5.245 -0.0225  1.1884  0.1942
 8956TIP3   OH226824   4.210   6.874  -0.005 -0.2458  0.2309  0.2496
 8956TIP3    H126825   4.117   6.891   0.007 -0.2894 -0.5533  1.0876
 8956TIP3    H226826   4.219   6.780   0.010  1.1526  0.7457  3.2876
 8957TIP3   OH226827   4.925   3.138   3.604  0.3081 -0.4128  0.1266
 8957TIP3    H126828   4.937   3.113   3.695  0.2448  0.7825  0.4891
 8957TIP3    H226829   4.986   3.083   3.555 -1.7150 -3.1778  0.5051
 8958TIP3   OH226830   1.462   6.973   6.636  0.0347 -0.3853  0.2209
 8958TIP3    H126831   1.530   7.038   6.654 -0.6076  0.2748  0.2960
 8958TIP3    H226832   1.400   6.983   6.708  0.2911 -1.5879  0.6364
 8959TIP3   OH226833   0.372   5.600   5.960 -0.3750 -0.6033  0.1917
 8959TIP3    H126834   0.384   5.587   6.054 -1.6375  0.9838  0.6214
 8959TIP3    H226835   0.455   5.573   5.921 -0.0246 -1.7878  1.7012
 8960TIP3   OH226836   2.850   5.250   4.742 -0.6983  0.2672 -0.4259
 8960TIP3    H126837   2.892   5.226   4.824 -0.2320  0.3102 -0.6521
 8960TIP3    H226838   2.922   5.270   4.682 -0.9918 -0.9897 -1.2309
 8961TIP3   OH226839   5.491   3.112   0.039 -0.5291 -0.2885 -0.1068
 8961TIP3    H126840   5.544   3.192   0.049  0.1003 -0.6731 -0.3436
 8961TIP3    H226841   5.424   3.120   0.107 -0.2224  0.2447  0.1437
 8962TIP3   OH226842   5.263   3.730   5.416  0.4185 -0.2501  0.2684
 8962TIP3    H126843   5.271   3.768   5.328  0.4068 -1.2417 -0.1687
 8962TIP3    H226844   5.169   3.733   5.435  0.3541 -0.5549  0.0062
 8963TIP3   OH226845   3.058   1.278   2.506 -0.0074  0.4800 -0.3941
 8963TIP3    H126846   3.077   1.205   2.565 -2.1216  0.8412  0.8155
 8963TIP3    H226847   3.111   1.350   2.539  0.8976 -0.0631 -0.6368
 8964TIP3   OH226848   3.531   0.044   4.838 -0.0912  0.1804  0.8379
 8964TIP3    H126849   3.475   0.041   4.915 -0.4835  0.7844  0.5907
 8964TIP3    H226850   3.510   0.128   4.797 -1.3375 -0.9362 -0.9802
 8965TIP3   OH226851   3.439   4.575   5.159 -0.1128 -0.2689 -0.2746
 8965TIP3    H126852   3.395   4.578   5.074 -0.0247 -1.7449 -0.3977
 8965TIP3    H226853   3.373   4.607   5.221 -0.8890 -1.1303 -0.6393
 8966TIP3   OH226854   7.949   3.971   2.362  0.3583  0.7795 -0.1269
 8966TIP3    H126855   7.993   4.053   2.339 -1.0344  1.2826 -1.1755
 8966TIP3    H226856   7.923   3.934   2.278  0.4376 -0.4427  0.3710
 8967TIP3   OH226857   3.314   6.045   6.632 -0.4057  0.2029 -0.1497
 8967TIP3    H126858   3.300   6.130   6.673  0.9750 -0.1585  1.1821
 8967TIP3    H226859   3.265   6.049   6.550 -1.3812  1.8108  0.4641
 8968TIP3   OH226860   5.518   6.193   1.772 -0.3998  0.0058 -0.2730
 8968TIP3    H126861   5.588   6.253   1.796 -2.1626  1.7419  0.8724
 8968TIP3    H226862   5.547   6.108   1.804  2.3320  0.0620 -2.2555
 8969TIP3   OH226863   6.771   1.287   6.310  0.8418 -0.2599  0.3697
 8969TIP3    H126864   6.824   1.265   6.233  0.0010 -0.0266 -0.2837
 8969TIP3    H226865   6.706   1.217   6.314 -0.2296  0.6873 -0.1899
 8970TIP3   OH226866   7.221   3.772   3.341  0.1918  0.1595 -0.3967
 8970TIP3    H126867   7.216   3.708   3.411 -0.6663  1.4561  0.7952
 8970TIP3    H226868   7.304   3.817   3.355  0.1040  0.2949 -0.2969
 8971TIP3   OH226869   3.587   1.421   0.727 -0.1443 -0.1189 -0.5135
 8971TIP3    H126870   3.576   1.370   0.808 -1.3884  0.6792 -0.1562
 8971TIP3    H226871   3.564   1.360   0.658  0.3748 -0.6395 -0.2428
 8972TIP3   OH226872   3.064   1.442   5.566 -0.1743 -0.1382  0.4872
 8972TIP3    H126873   3.066   1.526   5.520  0.9946 -0.7515 -0.6454
 8972TIP3    H226874   3.152   1.433   5.604 -0.5778 -0.4503  1.3790
 8973TIP3   OH226875   7.504   5.674   5.344  0.5015 -0.4527 -0.3400
 8973TIP3    H126876   7.414   5.698   5.324  0.5070  0.4306  0.5978
 8973TIP3    H226877   7.506   5.579   5.339 -0.5207 -0.4833 -0.2232
 8974TIP3   OH226878   5.825   7.469   2.092 -0.2920 -0.0380  0.3637
 8974TIP3    H126879   5.743   7.490   2.047  0.8709 -2.8215 -3.5849
 8974TIP3    H226880   5.891   7.521   2.046  0.4592  0.8708  2.3604
 8975TIP3   OH226881   5.281   2.926   0.971 -0.1970  0.0526  1.0937
 8975TIP3    H126882   5.317   2.865   0.906 -1.5404  0.3398  0.0380
 8975TIP3    H226883   5.344   2.998   0.973  1.3548 -1.2456  2.2717
 8976TIP3   OH226884   1.107   7.305   5.377  0.4404 -0.1720 -0.3715
 8976TIP3    H126885   1.025   7.321   5.425  0.3464 -0.9800 -0.2546
 8976TIP3    H226886   1.086   7.328   5.287  0.6460  1.4531 -0.0417
 8977TIP3   OH226887   6.748   7.508   4.894 -0.2138  0.1505 -0.1664
 8977TIP3    H126888   6.732   7.559   4.814  0.2925  0.0083 -0.3595
 8977TIP3    H226889   6.820   7.450   4.872  0.8220  1.0141  0.7856
 8978TIP3   OH226890   6.203   2.031   4.632  0.2704 -0.7040  0.3837
 8978TIP3    H126891   6.148   1.971   4.581  0.1127 -1.3879  1.3359
 8978TIP3    H226892   6.253   2.079   4.566 -0.1314 -1.3626 -0.4247
 8979TIP3   OH226893   7.183   0.983   2.514  0.3571  0.3916  0.6846
 8979TIP3    H126894   7.230   0.949   2.439  0.8925  0.5419  0.9471
 8979TIP3    H226895   7.251   0.998   2.580 -0.1936 -0.4922  1.4800
 8980TIP3   OH226896   3.385   6.377   3.341  0.6377 -0.0119 -0.0257
 8980TIP3    H126897   3.416   6.320   3.411  0.7392 -1.5832 -1.3039
 8980TIP3    H226898   3.370   6.319   3.267  1.0644  1.6774 -1.5076
 8981TIP3   OH226899   1.533   2.191   3.384 -0.0485  0.3041 -0.2933
 8981TIP3    H126900   1.578   2.108   3.369  0.9348  0.5796  1.0303
 8981TIP3    H226901   1.456   2.186   3.327  0.5964 -1.0149 -1.1079
 8982TIP3   OH226902   4.121   1.421   3.411 -0.1059 -0.8899  0.2751
 8982TIP3    H126903   4.082   1.452   3.493  0.1392 -0.3758  0.1995
 8982TIP3    H226904   4.068   1.345   3.386 -0.3303 -0.9046  0.7830
 8983TIP3   OH226905   6.547   5.568   1.503 -0.0550  0.7013 -0.0357
 8983TIP3    H126906   6.460   5.596   1.475  0.0305  0.1147 -0.9282
 8983TIP3    H226907   6.534   5.530   1.589 -0.8798 -0.3611 -0.5992
 8984TIP3   OH226908   2.465   7.129   6.714  0.0841  0.3412 -0.0219
 8984TIP3    H126909   2.385   7.096   6.757 -0.8664  1.2963 -0.9833
 8984TIP3    H226910   2.535   7.072   6.746 -1.0013 -0.6014  0.7587
 8985TIP3   OH226911   4.662   4.173   4.038 -0.3113 -0.4042 -0.4816
 8985TIP3    H126912   4.713   4.160   4.118  0.6071 -1.1186 -1.1701
 8985TIP3    H226913   4.579   4.128   4.054 -1.4857  2.1058  1.2833
 8986TIP3   OH226914   1.456   4.435   1.733  0.0366 -0.2090 -0.2192
 8986TIP3    H126915   1.472   4.385   1.813 -1.3995 -0.4060 -0.0248
 8986TIP3    H226916   1.538   4.481   1.717  0.5569 -0.6478  1.0203
 8987TIP3   OH226917   2.992   4.890   2.265  0.2394  0.0474 -0.3589
 8987TIP3    H126918   3.017   4.829   2.195  2.7495  0.9724 -0.3499
 8987TIP3    H226919   3.007   4.841   2.346 -2.0498 -0.7974 -0.3760
 8988TIP3   OH226920   6.472   3.940   0.810  0.3565  0.1490  0.0342
 8988TIP3    H126921   6.386   3.898   0.815 -0.6936  2.2694  0.8935
 8988TIP3    H226922   6.513   3.922   0.895  0.3032  0.0701  0.0430
 8989TIP3   OH226923   2.303   3.621   3.740 -0.4590  0.2950 -0.2187
 8989TIP3    H126924   2.351   3.694   3.700 -2.0344  1.5908  0.1636
 8989TIP3    H226925   2.352   3.543   3.712  1.3602  1.4671 -0.5293
 8990TIP3   OH226926   1.506   2.146   3.657 -0.8245  0.0348 -0.8278
 8990TIP3    H126927   1.528   2.150   3.564  0.6598 -0.5179 -0.5267
 8990TIP3    H226928   1.562   2.077   3.692 -1.5760  0.0363  0.4284
 8991TIP3   OH226929   7.552   0.794   3.296  0.2895  0.1453 -0.7951
 8991TIP3    H126930   7.459   0.775   3.282  0.2769 -0.9953  0.5288
 8991TIP3    H226931   7.552   0.876   3.345 -0.0973 -0.2785 -0.0501
 8992TIP3   OH226932   5.562   0.713   4.268 -0.1123  0.0513  0.6046
 8992TIP3    H126933   5.570   0.670   4.183 -1.1841  1.2901 -0.1596
 8992TIP3    H226934   5.505   0.788   4.252 -0.4468  0.2491  2.4495
 8993TIP3   OH226935   6.515   5.082   6.414  0.6289 -0.3592  0.2566
 8993TIP3    H126936   6.485   5.170   6.394  1.0914 -0.4005 -0.6602
 8993TIP3    H226937   6.595   5.094   6.465  2.8318 -0.1474 -2.9534
 8994TIP3   OH226938   3.926   4.976   4.804  0.0897  0.1323 -0.0196
 8994TIP3    H126939   3.949   5.066   4.782  0.4915 -0.3561 -1.6965
 8994TIP3    H226940   3.833   4.968   4.780 -0.3450  0.4651  1.4313
 8995TIP3   OH226941   6.827   6.680   5.488  0.2736  0.2664  0.2150
 8995TIP3    H126942   6.771   6.622   5.541  0.0749 -0.1333 -0.4215
 8995TIP3    H226943   6.779   6.763   5.484  0.5632  0.4877  1.1403
 8996TIP3   OH226944   4.748   3.249   0.137 -0.1307 -0.0855  0.3080
 8996TIP3    H126945   4.710   3.164   0.155 -1.1200  0.8165  3.1449
 8996TIP3    H226946   4.673   3.309   0.134  0.4664  0.6696 -2.3935
 8997TIP3   OH226947   1.728   5.319   2.767 -0.2470 -0.1904  0.2418
 8997TIP3    H126948   1.733   5.317   2.863 -0.3650 -1.3017  0.2367
 8997TIP3    H226949   1.637   5.295   2.748 -1.3849  3.7192 -0.0840
 8998TIP3   OH226950   1.637   1.575   6.219  0.0156 -0.2767  0.1643
 8998TIP3    H126951   1.631   1.496   6.273 -0.9244  0.5897  1.3887
 8998TIP3    H226952   1.728   1.577   6.190 -0.1115 -2.1795 -0.4978
 8999TIP3   OH226953   0.045   6.499   1.483 -0.9279 -0.2589  0.6516
 8999TIP3    H126954   0.088   6.546   1.411 -0.8654  0.8536  1.3964
 8999TIP3    H226955  -0.003   6.428   1.440 -0.5851  0.1617 -0.4518
 9000TIP3   OH226956   3.127   2.656   5.810 -0.7703  0.3830  0.0586
 9000TIP3    H126957   3.139   2.707   5.730 -2.1567  1.6849  0.6272
 9000TIP3    H226958   3.198   2.684   5.868  1.0133 -1.4884 -1.0860
 9001TIP3   OH226959   4.444   4.541   1.282 -0.2245  0.0249  0.3864
 9001TIP3    H126960   4.449   4.509   1.192  0.0511 -0.9082  0.7278
 9001TIP3    H226961   4.520   4.503   1.326  0.0581  1.0599  0.8428
 9002TIP3   OH226962   2.327   5.717   1.419 -0.1410 -0.0923 -0.0412
 9002TIP3    H126963   2.310   5.740   1.328 -1.3679  0.9073  0.4232
 9002TIP3    H226964   2.418   5.687   1.419 -0.4425 -1.1903 -1.7886
 9003TIP3   OH226965   2.446   3.477   3.541 -0.2132  0.2705  0.2671
 9003TIP3    H126966   2.441   3.389   3.505 -0.7868  0.2526  0.3834
 9003TIP3    H226967   2.412   3.533   3.472 -4.0917 -0.0209  1.7012
 9004TIP3   OH226968   7.315   2.605   5.219 -0.3121  0.8137  0.1790
 9004TIP3    H126969   7.402   2.566   5.232 -0.2845  0.8970  0.2438
 9004TIP3    H226970   7.311   2.624   5.126  0.0913  1.6506  0.3263
 9005TIP3   OH226971   7.325   5.451   2.074  0.0813 -0.2673 -0.3741
 9005TIP3    H126972   7.388   5.454   2.002  0.2848 -2.4680 -0.3535
 9005TIP3    H226973   7.378   5.458   2.153  0.0427  0.2685 -0.3917
 9006TIP3   OH226974   4.756   4.232   4.918 -0.1613  0.2417 -0.4522
 9006TIP3    H126975   4.770   4.205   5.009 -0.9511  0.2944 -0.3072
 9006TIP3    H226976   4.834   4.202   4.872  0.4372  0.5771  0.3209
 9007TIP3   OH226977   1.090   1.813   3.539 -0.4997  0.6063  0.3727
 9007TIP3    H126978   1.085   1.816   3.443  0.4607 -1.1267  0.2426
 9007TIP3    H226979   1.163   1.871   3.560 -0.3921  0.6058  0.0158
 9008TIP3   OH226980   3.603   7.628   2.362  1.1933 -0.0813 -0.2997
 9008TIP3    H126981   3.563   7.541   2.366  2.5224 -0.6741  1.4112
 9008TIP3    H226982   3.595   7.662   2.451 -0.6520  2.2472 -1.2597
 9009TIP3   OH226983   5.594   5.146   2.457  0.1431  0.1022  0.0652
 9009TIP3    H126984   5.519   5.109   2.410 -0.7078 -3.2988  3.5257
 9009TIP3    H226985   5.555   5.210   2.516  0.2904  0.0443  0.2252
 9010TIP3   OH226986   8.199   3.661   6.778 -0.5390 -0.0181  0.4937
 9010TIP3    H126987   8.269   3.711   6.736  0.8992 -0.6405  2.0521
 9010TIP3    H226988   8.174   3.595   6.713  0.1732  0.3342 -0.1512
 9011TIP3   OH226989   0.814   6.412   3.187  0.1696 -0.1168 -0.4493
 9011TIP3    H126990   0.764   6.333   3.207  0.5596 -0.0611  0.8585
 9011TIP3    H226991   0.799   6.427   3.093 -1.5253 -0.6014 -0.2997
 9012TIP3   OH226992   2.429   6.683   5.310 -0.0347  0.1984  0.8669
 9012TIP3    H126993   2.434   6.589   5.295  0.4359  0.3357  0.0775
 9012TIP3    H226994   2.500   6.701   5.372  1.2522  0.3009 -0.5531
 9013TIP3   OH226995   3.664   3.446   2.653  0.4907  0.1304  0.0642
 9013TIP3    H126996   3.634   3.537   2.654 -0.9233 -0.3080  1.6937
 9013TIP3    H226997   3.703   3.435   2.566 -0.7455  1.8285 -0.7616
 9014TIP3   OH226998   4.668   7.298   1.782  0.4960 -0.4696 -0.3687
 9014TIP3    H126999   4.759   7.298   1.753  0.2863  2.9466 -1.4575
 9014TIP3    H227000   4.620   7.255   1.711  1.1038 -1.4345 -0.2196
 9015TIP3   OH227001   2.752   1.953   6.498  0.4225 -0.3570 -0.0124
 9015TIP3    H127002   2.697   2.027   6.521  1.6815  0.9895 -1.0736
 9015TIP3    H227003   2.760   1.902   6.579 -2.5672 -0.8142  0.0924
 9016TIP3   OH227004   3.614   4.642   3.495  0.1517 -1.0245 -0.4609
 9016TIP3    H127005   3.539   4.638   3.555 -0.4229 -1.0294 -1.1596
 9016TIP3    H227006   3.655   4.556   3.501  0.6024 -0.7486  0.5486
 9017TIP3   OH227007   4.414   7.414   3.000  0.4353  0.0795 -0.0299
 9017TIP3    H127008   4.496   7.390   2.957  1.1790  1.3915  0.5637
 9017TIP3    H227009   4.435   7.410   3.094 -0.8678 -1.7969  0.2348
 9018TIP3   OH227010   2.482   6.586   5.911 -0.4408 -0.1049  0.7865
 9018TIP3    H127011   2.436   6.609   5.831 -0.5600 -0.6182  0.7038
 9018TIP3    H227012   2.546   6.656   5.924 -0.6166  0.1238  0.3974
 9019TIP3   OH227013   0.652   4.306   5.250  0.1138  0.2483  0.2130
 9019TIP3    H127014   0.587   4.261   5.196 -0.2370  0.1296  0.7228
 9019TIP3    H227015   0.682   4.379   5.195  0.6728 -0.5789 -0.6093
 9020TIP3   OH227016   1.099   0.897   1.268 -0.9369 -0.0602  0.3032
 9020TIP3    H127017   1.095   0.805   1.296 -2.0204 -0.3570 -0.7925
 9020TIP3    H227018   1.058   0.898   1.182  0.9509  1.1075 -0.6448
 9021TIP3   OH227019   5.811   4.855   5.450  0.4226  0.3312  0.0729
 9021TIP3    H127020   5.893   4.882   5.411  0.8708 -0.5082  0.4047
 9021TIP3    H227021   5.790   4.925   5.513  1.8433 -0.3098  1.3252
 9022TIP3   OH227022   4.192   7.094   0.855 -0.3921  0.2447  0.0278
 9022TIP3    H127023   4.188   7.003   0.884 -0.4705 -0.6282 -2.5306
 9022TIP3    H227024   4.282   7.122   0.873 -0.3836 -0.2991  0.8725
 9023TIP3   OH227025   5.155   6.672   0.063  0.3340  0.3372 -0.2820
 9023TIP3    H127026   5.188   6.655   0.151  0.6856 -0.1682 -0.5095
 9023TIP3    H227027   5.128   6.764   0.066  0.0390  0.2391  0.4424
 9024TIP3   OH227028   7.419   7.802   1.213  0.4073  0.3651 -0.4572
 9024TIP3    H127029   7.329   7.834   1.204  0.3336  0.1386 -0.5528
 9024TIP3    H227030   7.429   7.740   1.140  0.2294 -0.5385  0.2577
 9025TIP3   OH227031   3.017   2.282   2.945 -0.0015 -0.0803  0.2628
 9025TIP3    H127032   2.935   2.295   2.898  1.0898 -1.3383 -2.1448
 9025TIP3    H227033   3.084   2.317   2.887  1.2991 -0.4325  1.5012
 9026TIP3   OH227034   6.949   3.963   5.417 -0.3799  0.1210 -0.1970
 9026TIP3    H127035   6.975   3.898   5.352  0.2225  0.0734  0.0844
 9026TIP3    H227036   6.918   3.911   5.491  0.2085  0.1359  0.0727
 9027TIP3   OH227037   5.698   1.590   2.680 -0.2099  0.0285  0.0115
 9027TIP3    H127038   5.606   1.590   2.708 -0.3686 -0.8964 -0.4628
 9027TIP3    H227039   5.694   1.612   2.586  0.3198  3.2582  0.6237
 9028TIP3   OH227040   1.295   7.054   1.529 -0.3160  0.3398  0.3080
 9028TIP3    H127041   1.384   7.066   1.560 -0.6574  1.0383  1.0482
 9028TIP3    H227042   1.284   7.119   1.459 -0.1627  0.0751  0.0370
 9029TIP3   OH227043   5.416   6.912   2.343 -0.2234 -0.0169  0.4783
 9029TIP3    H127044   5.419   6.817   2.333 -1.1939  0.1204 -1.7671
 9029TIP3    H227045   5.350   6.928   2.411 -2.7281 -0.9293 -1.5967
 9030TIP3   OH227046   7.215   6.573   2.046  0.3093 -0.3724  0.1550
 9030TIP3    H127047   7.159   6.545   1.974  0.9041 -1.4376  0.0758
 9030TIP3    H227048   7.184   6.661   2.068 -0.8600 -0.6231 -0.3962
 9031TIP3   OH227049   5.001   6.632   2.956 -0.7179 -1.0254 -0.3485
 9031TIP3    H127050   4.994   6.584   3.039 -1.8313  1.0837  0.8735
 9031TIP3    H227051   4.919   6.611   2.910 -1.3149 -0.1529  0.2912
 9032TIP3   OH227052   7.787   6.241   0.506  0.4247  0.2396  0.7733
 9032TIP3    H127053   7.772   6.238   0.411 -0.0115  1.1315  0.8083
 9032TIP3    H227054   7.708   6.281   0.542  0.4495 -0.3824  1.5554
 9033TIP3   OH227055   5.445   7.370   0.725 -0.0171 -0.6344  0.3796
 9033TIP3    H127056   5.371   7.318   0.695 -0.1370 -0.1892 -0.1143
 9033TIP3    H227057   5.420   7.398   0.813 -0.6606 -0.0812  0.0301
 9034TIP3   OH227058   1.112   5.206   1.844 -0.3984  0.3855 -0.0011
 9034TIP3    H127059   1.115   5.112   1.828 -0.8365 -0.0255  1.9748
 9034TIP3    H227060   1.161   5.245   1.772 -1.8194 -1.1755 -1.9205
 9035TIP3   OH227061   7.485   4.688   5.426  0.6843 -0.7968  0.1841
 9035TIP3    H127062   7.575   4.661   5.444  0.0786 -1.9198  1.7938
 9035TIP3    H227063   7.458   4.734   5.506 -0.7888 -2.2397  0.5774
 9036TIP3   OH227064   5.964   7.349   4.610  0.7011 -0.2307 -0.7957
 9036TIP3    H127065   5.930   7.439   4.606 -0.5763 -0.6350  0.2300
 9036TIP3    H227066   6.025   7.350   4.683 -1.1044 -0.7038  0.8112
 9037TIP3   OH227067   5.180   3.208   3.892  0.1005  0.3965 -0.2462
 9037TIP3    H127068   5.239   3.236   3.962  2.1104  0.8249 -2.0041
 9037TIP3    H227069   5.238   3.174   3.824 -1.7887 -0.3237 -1.5806
 9038TIP3   OH227070   5.167   0.512   0.816 -0.1695  0.7757  0.0879
 9038TIP3    H127071   5.077   0.485   0.799  0.0982 -0.1323  0.0680
 9038TIP3    H227072   5.220   0.450   0.766  0.4935  0.6633  0.9220
 9039TIP3   OH227073   8.132   7.129   1.728  0.0427 -0.0580 -0.3160
 9039TIP3    H127074   8.136   7.210   1.779  0.6221 -0.2286 -0.0801
 9039TIP3    H227075   8.057   7.141   1.670 -0.1561  0.4563  0.0413
 9040TIP3   OH227076   1.434   1.386   1.353 -0.3388  1.1100 -0.3761
 9040TIP3    H127077   1.430   1.381   1.258  0.1935  2.4656 -0.4906
 9040TIP3    H227078   1.477   1.305   1.379  0.2064  1.0681 -1.3569
 9041TIP3   OH227079   2.727   1.174   2.542 -0.3197 -0.3336 -0.1586
 9041TIP3    H127080   2.788   1.243   2.567 -0.1943 -0.9097  1.2221
 9041TIP3    H227081   2.679   1.155   2.623  0.7960 -3.0056 -0.0405
 9042TIP3   OH227082   1.952   2.896   6.464  0.2382 -0.0021 -0.0864
 9042TIP3    H127083   1.858   2.885   6.483  0.1600 -0.1179 -0.5299
 9042TIP3    H227084   1.995   2.827   6.514  0.0306 -0.3380 -0.3714
 9043TIP3   OH227085   1.475   0.556   2.488  0.4187 -0.2270 -0.4968
 9043TIP3    H127086   1.556   0.583   2.531  1.3423 -1.0521 -1.6293
 9043TIP3    H227087   1.480   0.596   2.401 -0.1116 -0.7459 -0.7695
 9044TIP3   OH227088   4.981   0.178   6.629 -0.2334  0.1320  0.1994
 9044TIP3    H127089   4.937   0.254   6.667  0.2293 -0.3726  1.8233
 9044TIP3    H227090   4.914   0.137   6.574 -0.5495  1.5648 -0.5281
 9045TIP3   OH227091   7.977   5.558   1.963  0.0266  0.3124  0.5848
 9045TIP3    H127092   7.956   5.637   2.013 -1.0416  1.4862 -1.5885
 9045TIP3    H227093   8.039   5.511   2.018  0.8142  2.7273  1.9121
 9046TIP3   OH227094   2.273   0.273   2.416 -0.0301 -0.3083 -0.4392
 9046TIP3    H127095   2.337   0.233   2.357  2.0545  1.1879  0.6639
 9046TIP3    H227096   2.308   0.360   2.435 -2.0306  0.3019  0.8411
 9047TIP3   OH227097   5.900   6.143   0.458 -0.1384 -0.8929  1.0787
 9047TIP3    H127098   5.984   6.113   0.423  0.8164 -1.0083  3.2774
 9047TIP3    H227099   5.923   6.212   0.520 -1.7765 -0.1884  0.9527
 9048TIP3   OH227100   2.088   7.777   3.440  0.2686  0.1985 -0.5328
 9048TIP3    H127101   1.996   7.753   3.430  0.0951  0.2949  0.6601
 9048TIP3    H227102   2.087   7.853   3.498  1.1681 -0.7237  0.7421
 9049TIP3   OH227103   5.139   2.492   3.037 -0.5908  0.4854  0.2745
 9049TIP3    H127104   5.084   2.517   2.963 -0.3535  1.2875  0.3646
 9049TIP3    H227105   5.131   2.565   3.098  0.8151  0.7495  0.1546
 9050TIP3   OH227106   5.843   3.410   2.359 -0.2728 -0.5339  0.0069
 9050TIP3    H127107   5.893   3.338   2.322 -0.3888 -1.3779  1.4263
 9050TIP3    H227108   5.765   3.369   2.397 -0.7315  0.4335  0.1536
 9051TIP3   OH227109   6.191   2.553   5.010  0.5538 -0.3131  0.5297
 9051TIP3    H127110   6.113   2.561   4.956  0.3978 -1.5601  0.5263
 9051TIP3    H227111   6.220   2.643   5.024 -0.5276  0.1366  0.0259
 9052TIP3   OH227112   5.336   2.972   1.476 -0.2502 -0.6612 -0.1915
 9052TIP3    H127113   5.395   3.040   1.509 -1.1380  0.6908 -1.2227
 9052TIP3    H227114   5.393   2.906   1.438  0.6165  0.3934 -0.7703
 9053TIP3   OH227115   5.299   7.208   4.183  1.1280 -0.6171  0.3108
 9053TIP3    H127116   5.358   7.146   4.226  0.9496 -0.1158  1.2977
 9053TIP3    H227117   5.357   7.272   4.142  1.4742 -2.9152 -3.2277
 9054TIP3   OH227118   4.224   2.210   0.091 -0.1115 -0.2461 -0.7096
 9054TIP3    H127119   4.180   2.130   0.063 -0.1364 -0.2198 -0.7468
 9054TIP3    H227120   4.275   2.237   0.014  1.1684 -1.0901 -0.1892
 9055TIP3   OH227121   1.047   2.796   4.718 -0.1931  0.2281  0.6265
 9055TIP3    H127122   0.973   2.849   4.688  0.3465  1.3655  1.2463
 9055TIP3    H227123   1.035   2.712   4.674 -0.5412  1.1638 -1.1843
 9056TIP3   OH227124   3.673   5.833   6.627  0.7205  0.2966 -0.3909
 9056TIP3    H127125   3.678   5.927   6.641  0.9817  0.0557  1.3201
 9056TIP3    H227126   3.703   5.794   6.709 -2.9898 -1.2893  0.4027
 9057TIP3   OH227127   7.050   1.833   4.708  0.2285  0.2077  0.0284
 9057TIP3    H127128   7.093   1.795   4.630 -0.1767 -1.3221  0.5101
 9057TIP3    H227129   6.992   1.900   4.673  0.3876 -0.1493 -0.9602
 9058TIP3   OH227130   4.700   2.602   0.813 -0.0915  0.1769 -0.0217
 9058TIP3    H127131   4.654   2.686   0.819  0.9261  0.8060 -0.8783
 9058TIP3    H227132   4.791   2.623   0.831  0.3125 -0.6104 -1.0908
 9059TIP3   OH227133   2.895   3.621   6.266 -0.0340 -0.8985 -0.2864
 9059TIP3    H127134   2.833   3.576   6.324 -0.8309  1.6528  1.0158
 9059TIP3    H227135   2.964   3.652   6.324 -0.4585  1.0662 -0.7634
 9060TIP3   OH227136   4.093   3.116   1.864  0.0707  0.1249 -0.4508
 9060TIP3    H127137   4.068   3.052   1.797  2.1705 -1.5171  0.2126
 9060TIP3    H227138   4.019   3.176   1.869 -2.0509 -2.2814 -1.0940
 9061TIP3   OH227139   0.924   6.633   1.719 -0.0659 -0.4680  0.4308
 9061TIP3    H127140   0.901   6.545   1.747 -1.2101 -0.1812  0.4496
 9061TIP3    H227141   1.005   6.654   1.766 -0.9710 -0.6625  2.1502
 9062TIP3   OH227142   5.782   3.052   1.787 -0.1476 -0.2723 -0.0060
 9062TIP3    H127143   5.726   3.029   1.713 -1.3044  0.8711  0.4696
 9062TIP3    H227144   5.871   3.039   1.756 -0.6530 -1.3192 -1.0745
 9063TIP3   OH227145   4.977   1.192   4.175  0.1134  0.1846 -0.6430
 9063TIP3    H127146   5.047   1.149   4.224  0.7500  0.7217 -1.0684
 9063TIP3    H227147   5.012   1.202   4.086 -0.2655  1.0124 -0.7102
 9064TIP3   OH227148   4.723   6.848   2.940 -0.4017 -0.1356  0.4993
 9064TIP3    H127149   4.716   6.870   2.847 -3.5359  0.2985  0.7181
 9064TIP3    H227150   4.685   6.760   2.946  0.4606 -0.4655  1.2936
 9065TIP3   OH227151   7.556   5.615   3.884 -0.8048 -0.2183 -0.1384
 9065TIP3    H127152   7.635   5.665   3.864 -0.7805 -0.5193 -0.8428
 9065TIP3    H227153   7.484   5.672   3.856 -0.9057  0.4638  1.3879
 9066TIP3   OH227154   6.378   7.630   0.794  0.5754  0.2263  0.5675
 9066TIP3    H127155   6.465   7.596   0.775 -0.0526 -0.1574 -2.0164
 9066TIP3    H227156   6.348   7.579   0.869  2.8131  0.8949  2.0071
 9067TIP3   OH227157   3.255   0.297   5.788 -0.0183  0.1749 -0.0351
 9067TIP3    H127158   3.342   0.336   5.793 -0.5738  1.4530  0.1575
 9067TIP3    H227159   3.218   0.310   5.875 -0.4335 -0.2978 -0.1348
 9068TIP3   OH227160   8.047   0.380   6.258 -0.1795  0.5881 -0.7216
 9068TIP3    H127161   8.115   0.400   6.194  1.0581 -1.4343 -0.1381
 9068TIP3    H227162   8.087   0.400   6.343  0.0184 -1.2620 -0.3270
 9069TIP3   OH227163   3.872   1.176   0.895 -0.6011  0.0436  0.1063
 9069TIP3    H127164   3.860   1.220   0.810  0.1269  0.4642  0.2160
 9069TIP3    H227165   3.801   1.211   0.949 -0.9460 -0.0694 -0.2663
 9070TIP3   OH227166   1.405   3.851   6.624 -0.0967  0.3640  0.5774
 9070TIP3    H127167   1.451   3.794   6.686  1.5081 -1.4978 -2.1099
 9070TIP3    H227168   1.314   3.853   6.656  0.6242 -0.5620  2.8753
 9071TIP3   OH227169   1.473   5.283   4.720 -0.6381 -0.1158  0.1986
 9071TIP3    H127170   1.527   5.231   4.780 -0.3396  2.1187  1.9853
 9071TIP3    H227171   1.523   5.286   4.639  0.0259 -1.3359  0.5327
 9072TIP3   OH227172   3.472   5.570   4.080 -0.3153  0.4035  0.0226
 9072TIP3    H127173   3.475   5.646   4.022  0.3995 -1.0205 -1.9164
 9072TIP3    H227174   3.510   5.499   4.028  0.5940 -0.9096  2.3413
 9073TIP3   OH227175   4.008   5.506   6.646  0.6746 -0.1799 -0.7390
 9073TIP3    H127176   4.010   5.423   6.694  1.0357  0.6938  0.8250
 9073TIP3    H227177   3.918   5.515   6.617 -1.2082  1.7518  4.5211
 9074TIP3   OH227178   5.589   6.584   4.381  0.1073  0.2306  0.3296
 9074TIP3    H127179   5.650   6.623   4.444  2.5855  1.7609 -2.7298
 9074TIP3    H227180   5.613   6.491   4.379  1.6718  0.6146 -0.0563
 9075TIP3   OH227181   4.585   3.116   0.668  0.6935  0.4041 -0.3207
 9075TIP3    H127182   4.600   3.069   0.750 -0.5872 -0.1549 -0.3832
 9075TIP3    H227183   4.521   3.184   0.691 -0.0459 -0.0710 -0.9502
 9076TIP3   OH227184   5.619   4.873   3.246 -0.1111 -0.0766 -0.4706
 9076TIP3    H127185   5.703   4.839   3.278  0.3472  1.3911 -0.0283
 9076TIP3    H227186   5.558   4.856   3.319 -0.3461 -1.5462 -0.9637
 9077TIP3   OH227187   6.544   3.930   4.019 -0.2623 -0.6026  0.3455
 9077TIP3    H127188   6.599   3.858   3.988 -0.3882 -0.9785  0.9833
 9077TIP3    H227189   6.569   3.941   4.111 -2.9121 -2.3820  1.3797
 9078TIP3   OH227190   0.087   5.723   3.526  0.1418  0.0274  0.1988
 9078TIP3    H127191   0.031   5.795   3.554  0.4527  0.1959  0.4021
 9078TIP3    H227192   0.027   5.651   3.507 -0.0475 -0.4992  2.5045
 9079TIP3   OH227193   7.798   2.584   1.460 -0.5143 -0.2746 -0.1960
 9079TIP3    H127194   7.863   2.640   1.418 -0.0745 -0.1549  0.6190
 9079TIP3    H227195   7.849   2.519   1.508 -1.0094 -1.5655 -1.3216
 9080TIP3   OH227196   0.579   4.158   0.219  0.2587 -0.5902  0.0632
 9080TIP3    H127197   0.517   4.218   0.177 -0.2497 -0.9766  0.2579
 9080TIP3    H227198   0.527   4.081   0.241  0.8913 -1.0747 -0.1048
 9081TIP3   OH227199   6.989   4.821   4.369  0.0038 -0.0059  0.3984
 9081TIP3    H127200   7.034   4.773   4.439 -1.2395 -0.1244  1.1552
 9081TIP3    H227201   7.016   4.912   4.381  2.0072 -0.4013 -0.7519
 9082TIP3   OH227202   5.888   5.596   5.942 -0.1756  0.4493 -0.4937
 9082TIP3    H127203   5.893   5.560   5.853  0.3788  1.3627 -0.8512
 9082TIP3    H227204   5.929   5.530   5.997  2.6897  1.3297 -1.3985
 9083TIP3   OH227205   3.251   7.364   4.453  0.4296  0.4867 -0.8456
 9083TIP3    H127206   3.253   7.290   4.513  2.1510  0.5761 -0.7437
 9083TIP3    H227207   3.166   7.406   4.470 -0.5666 -1.4006 -0.8811
 9084TIP3   OH227208   2.055   7.748   2.262 -0.0841  0.4084  0.4655
 9084TIP3    H127209   2.111   7.757   2.185  2.2027 -1.8101  1.7088
 9084TIP3    H227210   1.981   7.695   2.232  0.2510  0.4326 -0.4295
 9085TIP3   OH227211   6.532   6.035   5.346  0.0735 -0.0871 -0.2970
 9085TIP3    H127212   6.596   6.027   5.275  2.8356  0.0301  2.0189
 9085TIP3    H227213   6.572   5.989   5.420 -2.6518 -0.1705  1.2498
 9086TIP3   OH227214   4.116   3.724   6.271  0.0443 -0.3111 -0.4012
 9086TIP3    H127215   4.072   3.748   6.353  1.6129 -0.6936  0.5756
 9086TIP3    H227216   4.209   3.722   6.293  0.6219  0.7429 -2.4828
 9087TIP3   OH227217   7.605   4.701   3.478 -0.0750  0.0560 -0.1576
 9087TIP3    H127218   7.527   4.751   3.502  0.5313  1.3158 -0.7238
 9087TIP3    H227219   7.671   4.767   3.458  1.7998 -0.9274  2.2344
 9088TIP3   OH227220   3.227   4.547   4.311  0.6321 -0.2904 -0.2013
 9088TIP3    H127221   3.148   4.534   4.365  0.1501 -0.0593 -0.8423
 9088TIP3    H227222   3.265   4.628   4.344  0.3114 -0.1244 -0.2390
 9089TIP3   OH227223   6.981   2.694   4.395  0.1360  0.3434  0.4390
 9089TIP3    H127224   7.075   2.703   4.379  0.0771  0.6742  0.2629
 9089TIP3    H227225   6.946   2.658   4.313  0.2796 -0.9749  0.9244
 9090TIP3   OH227226   4.737   4.143   2.755  0.4000  0.3600 -0.1291
 9090TIP3    H127227   4.765   4.217   2.810  1.5325 -0.5969  0.6223
 9090TIP3    H227228   4.664   4.104   2.802 -0.4820  1.2095 -0.7337
 9091TIP3   OH227229   3.517   3.186   3.038  0.0013 -0.3671  0.3632
 9091TIP3    H127230   3.535   3.157   3.127  0.7200  1.5705  0.9132
 9091TIP3    H227231   3.527   3.108   2.984  0.5600 -1.3676  1.8514
 9092TIP3   OH227232   3.891   0.073   5.584 -0.0723  0.3075 -0.0885
 9092TIP3    H127233   3.947   0.088   5.661  0.3927  0.9092 -0.5333
 9092TIP3    H227234   3.854  -0.013   5.598  1.2540 -0.2693  0.0500
 9093TIP3   OH227235   0.684   3.527   1.849 -0.1231  0.3005 -0.3288
 9093TIP3    H127236   0.635   3.459   1.894 -0.2254  0.2911 -0.4516
 9093TIP3    H227237   0.624   3.601   1.843  0.1637  0.5821  0.2587
 9094TIP3   OH227238   0.615   0.710   2.630  0.5145 -0.5667  0.0515
 9094TIP3    H127239   0.520   0.700   2.639  0.6820 -0.4665  3.1670
 9094TIP3    H227240   0.651   0.662   2.706  2.6503  3.0995  1.6032
 9095TIP3   OH227241   0.437   6.656   3.731 -0.1252  0.0554 -0.8965
 9095TIP3    H127242   0.488   6.576   3.724  0.9758  0.6270  0.2397
 9095TIP3    H227243   0.476   6.715   3.666 -0.8629 -0.2676 -1.6537
 9096TIP3   OH227244   1.340   3.901   1.344  0.4418 -0.0933 -0.4156
 9096TIP3    H127245   1.364   3.877   1.434  0.7313  1.5298 -0.0171
 9096TIP3    H227246   1.424   3.913   1.300  0.3023 -1.5364 -1.1149
 9097TIP3   OH227247   4.758   1.148   4.433 -0.5004 -0.3018 -0.3147
 9097TIP3    H127248   4.684   1.189   4.477 -0.7190 -0.8007 -0.2063
 9097TIP3    H227249   4.806   1.105   4.504  0.1538  0.4069 -0.3174
 9098TIP3   OH227250   2.414   1.200   1.383  0.3610 -0.1047  0.1867
 9098TIP3    H127251   2.373   1.133   1.438 -1.0657  0.2673 -0.3741
 9098TIP3    H227252   2.356   1.207   1.307  1.7916  0.0603 -0.9213
 9099TIP3   OH227253   7.364   6.114   1.861 -0.4882 -0.1644  0.4518
 9099TIP3    H127254   7.333   6.096   1.772 -3.1495  1.8155  0.8634
 9099TIP3    H227255   7.291   6.089   1.918  0.6393 -0.1378  1.9870
 9100TIP3   OH227256   5.910   6.390   4.150  0.0098 -0.0890 -0.0882
 9100TIP3    H127257   5.995   6.364   4.186  0.6983 -0.2173 -1.7548
 9100TIP3    H227258   5.919   6.483   4.130  0.8337 -0.7201 -3.0397
 9101TIP3   OH227259   2.700   3.550   2.673  0.0592 -0.2151 -0.5353
 9101TIP3    H127260   2.711   3.496   2.596  0.4574 -0.8442 -0.0451
 9101TIP3    H227261   2.660   3.492   2.738 -1.6514  0.6963 -0.7205
 9102TIP3   OH227262   3.004   0.080   4.158  0.2493  0.1867 -0.3264
 9102TIP3    H127263   2.947   0.111   4.088 -0.3753  0.0435  0.1062
 9102TIP3    H227264   2.980   0.135   4.233  0.2382 -0.2957  0.0260
 9103TIP3   OH227265   7.905   7.237   1.618 -0.2782  0.6349  0.1223
 9103TIP3    H127266   7.893   7.229   1.523  1.1946 -0.3478 -0.0136
 9103TIP3    H227267   7.896   7.331   1.635  1.1433  1.0677 -1.2794
 9104TIP3   OH227268   1.848   1.923   5.707 -0.0665 -0.4702 -0.4912
 9104TIP3    H127269   1.914   1.968   5.760  1.0458 -0.2478 -2.0019
 9104TIP3    H227270   1.848   1.833   5.741  0.6722 -0.3523 -0.1412
 9105TIP3   OH227271   3.723   5.123   5.059  0.8752  0.1874  0.4577
 9105TIP3    H127272   3.673   5.176   5.120 -1.4279  0.0987 -1.2062
 9105TIP3    H227273   3.762   5.186   4.998  2.3526  0.2174  1.3987
 9106TIP3   OH227274   7.504   5.553   4.595 -0.0754  0.0587 -0.6391
 9106TIP3    H127275   7.585   5.598   4.620 -1.8418  3.1449  0.0711
 9106TIP3    H227276   7.492   5.486   4.663  0.6202  1.2430  0.7056
 9107TIP3   OH227277   4.769   2.483   5.098 -0.2100  0.5468 -0.2709
 9107TIP3    H127278   4.810   2.421   5.158 -0.2406  0.8101  0.0254
 9107TIP3    H227279   4.705   2.431   5.049 -2.3016  0.8706  1.9440
 9108TIP3   OH227280   0.117   2.604   0.407  0.1751 -0.7112  0.2287
 9108TIP3    H127281   0.101   2.558   0.325  0.8829 -0.1038 -0.2575
 9108TIP3    H227282   0.137   2.535   0.470  2.2627 -1.0577 -0.7241
 9109TIP3   OH227283   4.966   3.551   2.979 -0.0368  0.6615 -0.5156
 9109TIP3    H127284   5.008   3.536   2.894 -0.5866  0.2708 -0.7283
 9109TIP3    H227285   5.025   3.510   3.042 -0.6637 -0.9665 -0.9292
 9110TIP3   OH227286   5.270   6.763   2.620 -0.0096 -0.0116 -0.1168
 9110TIP3    H127287   5.339   6.720   2.670  0.2162  2.4040  1.7710
 9110TIP3    H227288   5.188   6.727   2.656  0.1316 -2.0962 -1.6536
 9111TIP3   OH227289   4.350   6.991   5.350 -0.0615 -0.0953 -0.2018
 9111TIP3    H127290   4.424   6.933   5.329  1.0200  1.6568 -1.4479
 9111TIP3    H227291   4.379   7.039   5.427  0.2990  0.8941 -0.9409
 9112TIP3   OH227292   5.716   5.943   1.760 -0.6698  0.3543  0.9368
 9112TIP3    H127293   5.789   5.990   1.801  1.7547 -2.0762 -0.2182
 9112TIP3    H227294   5.745   5.852   1.757 -2.1621 -0.2011 -2.8382
 9113TIP3   OH227295   7.045   3.109   2.795  0.3955 -0.0100 -0.5569
 9113TIP3    H127296   7.021   3.089   2.886  1.0642  1.9253  0.1117
 9113TIP3    H227297   7.108   3.042   2.771  1.4829  0.3639  1.0356
 9114TIP3   OH227298   4.508   6.865   5.049 -0.2366  0.4321  0.0725
 9114TIP3    H127299   4.515   6.772   5.026 -2.3087 -0.0888  1.2882
 9114TIP3    H227300   4.557   6.873   5.130 -1.5087 -0.0496  0.9303
 9115TIP3   OH227301   5.762   2.465   6.310  0.0697  0.1434 -0.0395
 9115TIP3    H127302   5.694   2.458   6.377 -0.0494  3.3791  0.3253
 9115TIP3    H227303   5.738   2.543   6.260  3.5795  1.6074  0.2465
 9116TIP3   OH227304   1.164   0.432   5.695  0.5174 -0.2112 -0.7270
 9116TIP3    H127305   1.161   0.337   5.705  0.5440 -0.2136 -0.7389
 9116TIP3    H227306   1.228   0.461   5.760 -0.6345 -0.0372  0.3425
 9117TIP3   OH227307   5.348   3.009   0.569 -0.3342  0.3276  0.5653
 9117TIP3    H127308   5.323   3.099   0.545 -3.2607 -0.2433  1.0230
 9117TIP3    H227309   5.289   2.954   0.517  0.0874 -1.2588  1.7230
 9118TIP3   OH227310   5.221   5.381   1.185  0.2466 -0.2694  0.2873
 9118TIP3    H127311   5.251   5.472   1.175  0.3934 -0.1991  1.2668
 9118TIP3    H227312   5.127   5.389   1.204  0.1615 -0.3532 -0.0840
 9119TIP3   OH227313   5.517   7.096   4.299 -0.1751  0.3790  0.4042
 9119TIP3    H127314   5.587   7.077   4.361 -0.5884 -1.3426  0.4195
 9119TIP3    H227315   5.489   7.009   4.268 -1.1218  1.1116 -0.9073
 9120TIP3   OH227316   2.926   4.607   4.780  0.0168  0.1645  0.3492
 9120TIP3    H127317   2.883   4.655   4.850 -3.3709 -2.2665  0.2025
 9120TIP3    H227318   2.960   4.528   4.822  1.0449  0.2892 -0.2158
 9121TIP3   OH227319   1.562   6.084   6.385  0.3313 -0.3532  0.5524
 9121TIP3    H127320   1.489   6.142   6.363 -0.8096 -1.6877  0.6616
 9121TIP3    H227321   1.537   6.043   6.467  1.0001 -1.1674  0.3671
 9122TIP3   OH227322   8.130   1.787   1.426  0.1743  0.2809  0.0484
 9122TIP3    H127323   8.213   1.766   1.470  0.4638  2.3914  0.6081
 9122TIP3    H227324   8.120   1.718   1.361  2.2073 -0.2423  0.2143
 9123TIP3   OH227325   1.473   4.148   4.353  0.3255  0.6692  0.7833
 9123TIP3    H127326   1.569   4.156   4.355  0.2621  2.0157 -0.1202
 9123TIP3    H227327   1.452   4.155   4.260 -0.6715  0.6727  1.0077
 9124TIP3   OH227328   0.137   1.967   1.191  0.4276 -0.0738  0.2145
 9124TIP3    H127329   0.118   2.061   1.190  1.1273  0.1818 -3.5866
 9124TIP3    H227330   0.232   1.961   1.185  0.3782 -1.0104  0.1736
 9125TIP3   OH227331   7.024   3.137   3.995  0.4675  0.1321 -0.1666
 9125TIP3    H127332   7.051   3.202   4.059  1.1895  1.0233 -1.3369
 9125TIP3    H227333   7.018   3.185   3.912  1.6279 -1.4007 -1.2011
 9126TIP3   OH227334   7.158   2.881   2.032 -0.0576 -0.4355 -0.1197
 9126TIP3    H127335   7.251   2.888   2.011 -0.0955 -0.7286 -0.3947
 9126TIP3    H227336   7.136   2.964   2.073  0.3435 -0.3938  0.0110
 9127TIP3   OH227337   4.235   2.928   1.309  0.1374 -0.1725  0.2221
 9127TIP3    H127338   4.171   2.998   1.314  0.4974  0.1378  0.4746
 9127TIP3    H227339   4.317   2.967   1.340  0.8164 -0.1219 -1.5286
 9128TIP3   OH227340   7.551   5.530   0.844  0.6085  0.3317  0.0823
 9128TIP3    H127341   7.565   5.538   0.750  0.8559  0.3737  0.1192
 9128TIP3    H227342   7.612   5.461   0.871  0.9238  0.6844  0.2904
 9129TIP3   OH227343   1.434   7.138   0.123  0.5159 -0.2378  0.1739
 9129TIP3    H127344   1.501   7.113   0.059  0.6422 -1.2626  0.6871
 9129TIP3    H227345   1.398   7.221   0.089  1.9632  0.2774 -0.1555
 9130TIP3   OH227346   7.975   3.592   3.536 -0.4026 -0.0902 -0.6605
 9130TIP3    H127347   8.016   3.576   3.621  0.5939  0.5371 -1.0120
 9130TIP3    H227348   7.916   3.518   3.524 -1.1963  0.2203  0.9476
 9131TIP3   OH227349   6.941   5.818   6.799  0.5490 -0.4406 -0.1736
 9131TIP3    H127350   6.971   5.777   6.717 -1.1324 -1.5798 -0.2738
 9131TIP3    H227351   6.852   5.848   6.779  0.2622 -0.3797  1.1365
 9132TIP3   OH227352   1.434   7.055   5.293 -0.5180 -0.0304  0.3543
 9132TIP3    H127353   1.482   6.986   5.247 -1.4268 -0.0455 -0.6072
 9132TIP3    H227354   1.346   7.051   5.257 -0.7025  1.3489  0.6012
 9133TIP3   OH227355   8.223   3.692   0.153 -0.1379 -0.0411 -0.1094
 9133TIP3    H127356   8.173   3.625   0.105  0.6501 -0.6653 -0.0875
 9133TIP3    H227357   8.177   3.702   0.236 -1.2200  0.6698 -0.7568
 9134TIP3   OH227358   4.044   0.090   4.693  0.1948  0.1482 -0.0375
 9134TIP3    H127359   4.055   0.183   4.711  4.9048  0.2130 -1.9063
 9134TIP3    H227360   4.000   0.087   4.608  2.0837  0.8524 -1.0902
 9135TIP3   OH227361   1.177   3.676   1.537 -0.1306 -0.4021 -0.4048
 9135TIP3    H127362   1.132   3.760   1.543  1.0057  0.1734  0.4250
 9135TIP3    H227363   1.265   3.693   1.571  0.2078 -1.8694 -0.4688
 9136TIP3   OH227364   1.704   4.174   4.110 -0.8015  0.5763  0.6995
 9136TIP3    H127365   1.750   4.137   4.185  0.1424  0.6158  0.1572
 9136TIP3    H227366   1.718   4.269   4.117  0.7546  0.4710 -0.4242
 9137TIP3   OH227367   6.346   1.740   6.382  0.3456  0.3597 -0.3592
 9137TIP3    H127368   6.278   1.806   6.365 -0.7394 -0.7349 -0.4314
 9137TIP3    H227369   6.412   1.786   6.434 -0.5030  1.4324 -0.1886
 9138TIP3   OH227370   0.375   5.729   4.390  0.1874  0.4008 -0.0810
 9138TIP3    H127371   0.467   5.740   4.413  0.0978  0.7040  0.1429
 9138TIP3    H227372   0.359   5.794   4.322  0.3610 -0.2560 -0.7684
 9139TIP3   OH227373   4.628   4.443   3.077 -0.3897  0.1885  0.3068
 9139TIP3    H127374   4.570   4.396   3.016  1.3778 -2.0376  0.1929
 9139TIP3    H227375   4.691   4.488   3.020  0.1690 -0.4079  0.4381
 9140TIP3   OH227376   3.123   4.606   5.053 -0.2238  0.2599  0.1523
 9140TIP3    H127377   3.082   4.530   5.012 -0.8983  1.0093 -0.5926
 9140TIP3    H227378   3.132   4.670   4.982  2.2211  0.1568  0.2638
 9141TIP3   OH227379   7.417   2.814   6.296 -0.1502  0.2887 -0.3186
 9141TIP3    H127380   7.484   2.880   6.279  0.6872 -0.0382  1.4590
 9141TIP3    H227381   7.464   2.730   6.293 -0.5533  0.0239  0.4994
 9142TIP3   OH227382   3.530   3.394   4.111 -0.0299 -0.2393  0.0328
 9142TIP3    H127383   3.603   3.425   4.164  0.3917 -0.8417 -0.1894
 9142TIP3    H227384   3.458   3.381   4.174 -0.8034  2.8254 -0.0745
 9143TIP3   OH227385   3.851   3.402   0.255  0.2611 -0.0146 -0.1278
 9143TIP3    H127386   3.860   3.430   0.164  2.4720 -0.6973 -0.1955
 9143TIP3    H227387   3.800   3.320   0.250 -1.2368  0.9020 -0.5087
 9144TIP3   OH227388   1.118   4.517   3.379  0.1932 -0.5099 -0.2588
 9144TIP3    H127389   1.205   4.536   3.414 -0.4069 -1.5173  2.0196
 9144TIP3    H227390   1.135   4.472   3.297  1.7244  1.6172 -1.2038
 9145TIP3   OH227391   7.059   7.445   3.493  0.4386 -0.5166 -0.3618
 9145TIP3    H127392   7.000   7.406   3.556 -0.4912 -0.2025 -1.0167
 9145TIP3    H227393   7.141   7.456   3.541  0.6325 -2.8497 -0.0229
 9146TIP3   OH227394   1.613   3.260   5.139  0.2288 -0.6506  0.7094
 9146TIP3    H127395   1.708   3.269   5.138  0.2001 -0.2909 -0.4629
 9146TIP3    H227396   1.587   3.294   5.225  1.1404 -0.6232  0.9908
 9147TIP3   OH227397   6.197   4.242   4.104  0.0597 -0.2790 -0.2119
 9147TIP3    H127398   6.245   4.159   4.108 -0.0737 -0.3023  1.5117
 9147TIP3    H227399   6.260   4.308   4.130 -0.4239 -0.1313  0.6239
 9148TIP3   OH227400   2.069   6.854   0.676  0.8151  0.0436  0.0906
 9148TIP3    H127401   2.089   6.905   0.754  2.4041 -0.2705 -0.0659
 9148TIP3    H227402   2.066   6.919   0.605 -1.4256  0.4382  0.4735
 9149TIP3   OH227403   1.800   3.083   0.668  0.3402  0.2014 -0.0601
 9149TIP3    H127404   1.713   3.070   0.630  0.5983 -0.2376 -0.5236
 9149TIP3    H227405   1.784   3.125   0.752 -0.2821  0.7447 -0.4365
 9150TIP3   OH227406   4.840   0.216   3.487  0.8372 -1.1504 -0.2719
 9150TIP3    H127407   4.770   0.243   3.427  0.3580 -2.1753 -0.1856
 9150TIP3    H227408   4.864   0.297   3.532  0.3361 -0.6081 -0.9475
 9151TIP3   OH227409   0.567   1.470   0.645 -0.0120 -0.0302  0.2052
 9151TIP3    H127410   0.584   1.431   0.730  0.6811  0.1956  0.1817
 9151TIP3    H227411   0.533   1.398   0.591 -1.0228 -0.0331  0.8321
 9152TIP3   OH227412   1.625   1.072   2.243 -0.3809 -0.5183 -0.1907
 9152TIP3    H127413   1.585   0.985   2.251 -0.8606 -0.2743  0.1384
 9152TIP3    H227414   1.719   1.055   2.244 -0.4646 -1.1391 -1.3864
 9153TIP3   OH227415   0.906   1.017   4.633 -0.2148  0.4748  0.1646
 9153TIP3    H127416   0.901   1.061   4.548  0.6101 -0.3690 -0.3349
 9153TIP3    H227417   0.816   1.018   4.666 -0.9577 -0.9553 -1.6408
 9154TIP3   OH227418   1.865   6.824   1.152 -0.2099 -0.0372  0.3223
 9154TIP3    H127419   1.940   6.767   1.138  0.8280  1.0354  1.2851
 9154TIP3    H227420   1.795   6.765   1.181  0.5860 -0.9135  0.5071
 9155TIP3   OH227421   2.389   0.465   3.912  0.1410 -0.2496  0.0892
 9155TIP3    H127422   2.374   0.522   3.987  1.8270  0.1980  0.1281
 9155TIP3    H227423   2.335   0.502   3.842 -0.5887 -0.0200  0.7683
 9156TIP3   OH227424   6.345   7.411   0.996 -0.4405 -0.4929 -0.4536
 9156TIP3    H127425   6.357   7.359   1.075 -1.9768 -0.6946 -0.3213
 9156TIP3    H227426   6.267   7.375   0.955 -1.5138  1.6244 -0.4096
 9157TIP3   OH227427   7.943   4.544   3.088 -0.4083  0.3040  0.0285
 9157TIP3    H127428   7.903   4.627   3.113 -0.7111  0.1918 -0.0792
 9157TIP3    H227429   7.871   4.480   3.094 -0.5570  0.3112 -1.3630
 9158TIP3   OH227430   1.086   3.940   0.714  0.3075  0.2910 -0.4536
 9158TIP3    H127431   1.086   3.897   0.629  1.4167  0.3249 -0.4828
 9158TIP3    H227432   1.002   3.986   0.718  0.3664  0.5232 -1.6501
 9159TIP3   OH227433   7.675   0.644   3.088 -1.0920  0.3489  0.3135
 9159TIP3    H127434   7.680   0.692   3.171 -0.4567  0.7031  0.0766
 9159TIP3    H227435   7.755   0.593   3.086 -0.2579  1.6256 -0.8503
 9160TIP3   OH227436   6.082   3.475   2.893  0.0373  0.5628  0.5449
 9160TIP3    H127437   6.105   3.431   2.975  0.7140  1.2366  0.7283
 9160TIP3    H227438   6.034   3.553   2.919 -2.8318 -0.9460  0.1553
 9161TIP3   OH227439   3.598   0.927   5.846 -0.4272  0.3649 -0.0325
 9161TIP3    H127440   3.632   0.934   5.757 -0.1798 -0.8205 -0.0439
 9161TIP3    H227441   3.664   0.877   5.894 -0.7623  0.6106  0.7051
 9162TIP3   OH227442   0.959   2.489   1.516  0.2108  0.0985  0.0302
 9162TIP3    H127443   0.944   2.547   1.441 -0.3583 -0.4471 -0.2861
 9162TIP3    H227444   0.987   2.548   1.587 -0.5925  0.7871 -0.2090
 9163TIP3   OH227445   0.694   2.298   1.512 -0.5414  0.1112  0.3448
 9163TIP3    H127446   0.781   2.335   1.526 -0.3187 -0.6721  1.0915
 9163TIP3    H227447   0.674   2.252   1.593 -1.8891  0.7289  0.3929
 9164TIP3   OH227448   7.233   1.622   5.645  0.3148  0.0513  0.3290
 9164TIP3    H127449   7.218   1.698   5.701 -0.1242  0.7361 -0.6897
 9164TIP3    H227450   7.314   1.583   5.678 -0.2440  0.0827  1.8025
 9165TIP3   OH227451   3.325   1.709   3.393  0.3402  0.5755  0.1799
 9165TIP3    H127452   3.348   1.673   3.307 -0.6196  1.4434 -0.4674
 9165TIP3    H227453   3.269   1.784   3.373 -0.9632  0.0325  1.6187
 9166TIP3   OH227454   5.710   2.036   5.259  0.5268  0.4941 -0.0706
 9166TIP3    H127455   5.753   1.969   5.205  0.3670  0.4597 -0.1529
 9166TIP3    H227456   5.779   2.066   5.318  0.6197  0.3117 -0.0862
 9167TIP3   OH227457   0.048   1.533   1.894  0.1006  0.2004  0.4612
 9167TIP3    H127458  -0.026   1.476   1.873  0.8434 -0.4368 -0.4957
 9167TIP3    H227459   0.114   1.475   1.932  0.6568  0.4982 -0.0283
 9168TIP3   OH227460   4.104   4.740   6.089 -0.1038 -0.8191  0.1045
 9168TIP3    H127461   4.161   4.752   6.165 -0.0237 -1.3520  0.1340
 9168TIP3    H227462   4.025   4.699   6.124 -0.7467  0.4176  0.1519
 9169TIP3   OH227463   3.186   0.110   1.861 -0.6425 -0.5660  0.1342
 9169TIP3    H127464   3.105   0.135   1.906 -1.5266  0.5311 -1.9482
 9169TIP3    H227465   3.156   0.063   1.783  0.7235 -0.1520 -0.6670
 9170TIP3   OH227466   6.762   0.617   4.710 -0.6883  0.0417 -0.1701
 9170TIP3    H127467   6.716   0.538   4.681 -0.0651 -0.2748 -0.3332
 9170TIP3    H227468   6.699   0.662   4.766 -1.4522  0.0070 -0.9760
 9171TIP3   OH227469   0.269   2.647   3.475  0.0066 -0.1320 -0.0070
 9171TIP3    H127470   0.257   2.742   3.483 -0.3041 -0.1866  0.1953
 9171TIP3    H227471   0.342   2.626   3.533  0.4075  0.0524 -0.4331
 9172TIP3   OH227472   7.582   5.603   6.423 -0.5316 -0.2425  0.3171
 9172TIP3    H127473   7.520   5.591   6.495 -1.3603 -1.6525 -0.6043
 9172TIP3    H227474   7.620   5.517   6.409 -2.0673 -0.5758 -2.4116
 9173TIP3   OH227475   8.237   7.423   4.719  0.6264  0.2870  0.7047
 9173TIP3    H127476   8.326   7.437   4.688  0.4766 -3.4015 -2.1045
 9173TIP3    H227477   8.182   7.469   4.656  0.5258 -0.1022  0.4995
 9174TIP3   OH227478   0.687   0.299   5.190  0.2832  0.0769 -0.6168
 9174TIP3    H127479   0.719   0.387   5.210  0.0188  0.0355  0.0331
 9174TIP3    H227480   0.610   0.313   5.135  1.6415  0.1633 -2.5935
 9175TIP3   OH227481   7.977   4.019   1.792  0.1141 -0.4294  0.3399
 9175TIP3    H127482   7.943   4.103   1.763 -0.6229 -0.7860  0.1535
 9175TIP3    H227483   7.927   3.999   1.871  0.0670 -0.8387  0.2085
 9176TIP3   OH227484   3.653   7.532   3.665 -0.1082 -0.4038  0.9646
 9176TIP3    H127485   3.559   7.540   3.681  0.0016  0.2470  1.2955
 9176TIP3    H227486   3.693   7.602   3.717  0.4348  0.3585 -0.4358
 9177TIP3   OH227487   4.901   7.024   0.573 -0.2085  0.4157 -0.2129
 9177TIP3    H127488   4.843   7.099   0.569  0.9807  1.3411 -1.0151
 9177TIP3    H227489   4.895   6.984   0.486  1.6320  1.5881 -0.9558
 9178TIP3   OH227490   6.104   1.888   3.143 -0.2955  0.1628 -0.2236
 9178TIP3    H127491   6.143   1.947   3.078 -0.2430 -1.3135 -1.6197
 9178TIP3    H227492   6.012   1.882   3.118 -0.4971  0.3375  0.4562
 9179TIP3   OH227493   0.412   7.799   3.549  0.0880 -0.1300  0.0113
 9179TIP3    H127494   0.475   7.814   3.620  1.3210  1.7432 -1.3571
 9179TIP3    H227495   0.410   7.704   3.538  2.1775 -0.2980  0.6098
 9180TIP3   OH227496   7.075   5.245   6.501  0.0004 -0.4586  0.2377
 9180TIP3    H127497   7.166   5.276   6.495 -0.3609  0.4216 -1.9601
 9180TIP3    H227498   7.061   5.197   6.419 -1.1686 -1.6254  1.0941
 9181TIP3   OH227499   7.983   3.686   0.319 -0.3953 -0.1607 -0.1152
 9181TIP3    H127500   8.033   3.616   0.363  1.5213  0.5957 -1.0115
 9181TIP3    H227501   7.897   3.646   0.303  0.7584 -2.4892 -0.9767
 9182TIP3   OH227502   2.866   6.277   2.521  0.3693  0.3418 -0.0554
 9182TIP3    H127503   2.798   6.280   2.454 -0.3473 -2.1738  0.4656
 9182TIP3    H227504   2.818   6.270   2.604  1.2340 -0.4016  0.4027
 9183TIP3   OH227505   5.202   4.097   3.048 -0.4876  0.4582  0.4458
 9183TIP3    H127506   5.129   4.115   2.989 -0.3932 -1.8172 -0.5009
 9183TIP3    H227507   5.263   4.170   3.035 -1.8385  1.5296  0.0064
 9184TIP3   OH227508   4.819   5.817   4.805  0.0851 -0.4740  0.4755
 9184TIP3    H127509   4.805   5.761   4.729 -0.2444 -1.4732  1.2414
 9184TIP3    H227510   4.897   5.781   4.848 -1.7446 -2.2777  2.5648
 9185TIP3   OH227511   5.357   7.654   1.195  0.4665  0.1370 -0.0976
 9185TIP3    H127512   5.415   7.729   1.207  0.1802  0.0968  1.7861
 9185TIP3    H227513   5.282   7.672   1.252 -0.7032 -0.5079 -1.3617
 9186TIP3   OH227514   2.616   6.128   4.185 -0.0031 -0.0383 -0.0289
 9186TIP3    H127515   2.691   6.179   4.155  0.0816 -0.8891 -1.3286
 9186TIP3    H227516   2.554   6.131   4.113 -1.7069  1.4672  1.3888
 9187TIP3   OH227517   3.255   4.138   2.409  0.0080  0.0957  0.0013
 9187TIP3    H127518   3.314   4.120   2.336 -0.9936  0.0736 -0.8272
 9187TIP3    H227519   3.281   4.226   2.440  2.0079 -0.8452  1.2161
 9188TIP3   OH227520   1.454   0.271   5.698  0.1672 -0.0140  0.5928
 9188TIP3    H127521   1.481   0.188   5.738 -1.1365 -0.7226  0.0544
 9188TIP3    H227522   1.394   0.245   5.628  0.6925  1.3337 -0.3877
 9189TIP3   OH227523   7.229   4.008   3.649  0.4533 -0.1017  0.2860
 9189TIP3    H127524   7.241   4.054   3.732 -1.9415 -1.0933  1.2733
 9189TIP3    H227525   7.313   3.964   3.634  1.2493  0.8631  1.6831
 9190TIP3   OH227526   1.181   6.740   4.107  0.3350 -0.2435  0.2589
 9190TIP3    H127527   1.102   6.794   4.098  0.9418  0.7435  0.7238
 9190TIP3    H227528   1.167   6.668   4.046 -0.2421  0.7336 -0.8093
 9191TIP3   OH227529   5.485   4.439   2.438  0.1415  0.3867  0.1292
 9191TIP3    H127530   5.493   4.367   2.375  0.4211 -0.2208  0.8561
 9191TIP3    H227531   5.544   4.506   2.404  0.6957 -0.1436  0.0255
 9192TIP3   OH227532   4.671   3.253   2.104  0.3941  0.6681  0.6373
 9192TIP3    H127533   4.763   3.229   2.114  0.4906  0.1984 -0.9785
 9192TIP3    H227534   4.624   3.171   2.118  0.2462  0.8467  1.1814
 9193TIP3   OH227535   7.639   3.695   3.627 -0.4417 -0.4234 -0.0606
 9193TIP3    H127536   7.638   3.634   3.701 -0.2147  1.1890  1.3495
 9193TIP3    H227537   7.654   3.641   3.550  2.0337 -1.8964  1.3546
 9194TIP3   OH227538   1.112   6.291   3.188  0.0148 -0.4854  0.8375
 9194TIP3    H127539   1.193   6.310   3.236 -0.5338 -0.6819  1.8878
 9194TIP3    H227540   1.111   6.354   3.116  0.2797  0.6662  1.8021
 9195TIP3   OH227541   2.495   7.652   0.738 -0.0934  0.1940  0.4380
 9195TIP3    H127542   2.416   7.682   0.693  0.1749 -0.4153 -0.4714
 9195TIP3    H227543   2.488   7.688   0.826 -0.2367  2.0878 -0.3122
 9196TIP3   OH227544   4.012   4.122   4.718  0.0258 -0.1225 -0.2786
 9196TIP3    H127545   4.070   4.094   4.647 -0.1647  1.3208 -1.0474
 9196TIP3    H227546   4.061   4.190   4.764 -0.9566  1.0080 -0.8441
 9197TIP3   OH227547   6.357   6.423   1.707  0.2337 -0.3923  0.3594
 9197TIP3    H127548   6.346   6.428   1.612  2.5374 -0.5533  0.0327
 9197TIP3    H227549   6.301   6.350   1.734 -2.0934  0.9839 -0.5242
 9198TIP3   OH227550   7.818   3.529   4.083  0.3161  0.4902  0.4648
 9198TIP3    H127551   7.807   3.623   4.097  1.2375  0.3656  2.3455
 9198TIP3    H227552   7.893   3.506   4.138  0.1396 -1.3414 -0.0129
 9199TIP3   OH227553   3.779   0.688   5.570 -0.4637  0.1413 -0.0227
 9199TIP3    H127554   3.863   0.664   5.609 -0.4092 -1.1182 -0.8907
 9199TIP3    H227555   3.760   0.775   5.607  1.2905  0.5280  0.0484
 9200TIP3   OH227556   5.573   7.616   5.018  1.1020 -0.0831 -0.0915
 9200TIP3    H127557   5.601   7.525   5.008  1.1565 -0.2022  1.0632
 9200TIP3    H227558   5.490   7.620   4.970  0.4868 -1.0648  0.8324
 9201TIP3   OH227559   3.057   4.674   2.089 -1.0747 -0.1409 -0.5069
 9201TIP3    H127560   2.972   4.654   2.051 -0.3601 -0.1611 -2.1784
 9201TIP3    H227561   3.114   4.691   2.014  0.3822 -0.0379  0.5691
 9202TIP3   OH227562   1.408   0.230   0.865 -0.0253 -0.5478 -0.0916
 9202TIP3    H127563   1.393   0.305   0.923  0.4472  0.2570 -0.9916
 9202TIP3    H227564   1.360   0.250   0.785  0.1772 -1.1614 -0.3791
 9203TIP3   OH227565   2.273   6.205   1.545 -0.1455  0.2172  0.3108
 9203TIP3    H127566   2.359   6.235   1.517 -0.2125  0.8612  0.7835
 9203TIP3    H227567   2.279   6.109   1.543  0.8185  0.2500  1.0377
 9204TIP3   OH227568   4.811   2.241   4.105  0.0772  0.3720 -0.4604
 9204TIP3    H127569   4.723   2.216   4.133  0.2390  0.3645  0.0659
 9204TIP3    H227570   4.799   2.280   4.019 -0.2316 -1.1167 -1.1147
 9205TIP3   OH227571   1.675   6.621   0.596  0.3034 -0.0307 -0.6302
 9205TIP3    H127572   1.580   6.623   0.585  0.3058 -1.0202 -0.8957
 9205TIP3    H227573   1.708   6.582   0.515  0.8721 -0.4186 -0.2215
 9206TIP3   OH227574   2.178   6.433   0.811 -0.3954  0.0275  0.7593
 9206TIP3    H127575   2.171   6.526   0.792  0.6886  0.2757  1.4534
 9206TIP3    H227576   2.265   6.408   0.779 -0.3806 -0.5766  1.2338
 9207TIP3   OH227577   5.508   4.916   5.221  0.3085 -0.1973 -0.6317
 9207TIP3    H127578   5.546   4.835   5.187 -1.7179 -0.4135 -2.5736
 9207TIP3    H227579   5.435   4.887   5.277  0.3953  0.2831 -0.2558
 9208TIP3   OH227580   5.967   1.211   2.035 -0.0342  0.0298 -0.3592
 9208TIP3    H127581   5.876   1.180   2.036  0.7306 -2.4492 -0.1913
 9208TIP3    H227582   5.994   1.201   1.944 -0.3464  2.3049 -0.7557
 9209TIP3   OH227583   3.515   6.331  -0.024 -0.5741 -0.7720 -0.0462
 9209TIP3    H127584   3.505   6.323   0.071 -0.8915  2.6954  0.3460
 9209TIP3    H227585   3.500   6.423  -0.042  3.1054 -0.4907 -3.0252
 9210TIP3   OH227586   2.605   5.819   1.704  0.2300  0.0518  0.4256
 9210TIP3    H127587   2.676   5.804   1.767 -0.0735 -0.5104  0.6348
 9210TIP3    H227588   2.527   5.830   1.758 -0.0160 -0.3460  0.1517
 9211TIP3   OH227589   5.380   4.006   3.246 -0.2233  0.4410 -0.0103
 9211TIP3    H127590   5.342   4.015   3.159 -0.0473  1.6093  0.0189
 9211TIP3    H227591   5.319   4.051   3.304 -0.9486 -1.3329  0.6694
 9212TIP3   OH227592   6.313   1.892   5.047  0.2906 -0.2033  0.1101
 9212TIP3    H127593   6.383   1.844   5.002 -1.4474 -1.5156 -1.3129
 9212TIP3    H227594   6.259   1.929   4.977 -1.0538 -0.1194  1.1476
 9213TIP3   OH227595   7.326   7.046   2.546 -0.0797 -0.8633 -0.2081
 9213TIP3    H127596   7.378   7.093   2.481  0.2272  0.8370  1.1895
 9213TIP3    H227597   7.242   7.031   2.503  0.4492 -0.6799 -1.3400
 9214TIP3   OH227598   7.292   4.441   5.937  0.7753 -0.5100 -0.1527
 9214TIP3    H127599   7.372   4.395   5.962  1.7638  1.0924 -0.1776
 9214TIP3    H227600   7.247   4.382   5.878  2.3414 -1.1436 -0.7561
 9215TIP3   OH227601   7.391   3.525   3.135 -0.5515 -0.7444  0.2647
 9215TIP3    H127602   7.379   3.620   3.140 -3.2253 -1.0186  0.5210
 9215TIP3    H227603   7.417   3.509   3.044 -1.4094  0.1229 -0.1500
 9216TIP3   OH227604   2.504   2.813   2.421 -0.3618 -0.2322 -0.6134
 9216TIP3    H127605   2.536   2.890   2.375  2.3058 -1.1858 -0.5155
 9216TIP3    H227606   2.557   2.740   2.388 -1.5855 -1.7549  0.5608
 9217TIP3   OH227607   1.196   1.710   2.564 -0.5100 -0.5964 -0.0488
 9217TIP3    H127608   1.173   1.722   2.472 -1.7370 -3.3375 -0.2156
 9217TIP3    H227609   1.148   1.778   2.610 -0.4174  0.3949 -1.3737
 9218TIP3   OH227610   0.280   5.651   5.283 -0.4155 -0.5566 -0.3927
 9218TIP3    H127611   0.326   5.583   5.233 -0.5473 -1.1537  0.2851
 9218TIP3    H227612   0.327   5.655   5.367 -0.7658 -0.2141 -0.2108
 9219TIP3   OH227613   6.533   2.966   2.897  0.4513 -0.6845 -0.1692
 9219TIP3    H127614   6.600   2.982   2.831  0.6629 -1.9692 -0.2829
 9219TIP3    H227615   6.529   3.048   2.947  1.6541 -0.3698 -0.5572
 9220TIP3   OH227616   3.715   0.426   2.450  0.0475 -0.5030 -0.1664
 9220TIP3    H127617   3.679   0.511   2.425  0.3917 -0.8074 -1.8352
 9220TIP3    H227618   3.660   0.397   2.522  0.3614  1.4270  0.9331
 9221TIP3   OH227619   7.196   2.209   6.656 -0.1285  0.3017 -0.2505
 9221TIP3    H127620   7.241   2.280   6.702  5.0011 -3.2317  1.0716
 9221TIP3    H227621   7.151   2.161   6.725 -1.8520  1.0257 -0.8247
 9222TIP3   OH227622   2.511   5.494   6.314  0.6098 -0.1803 -0.0555
 9222TIP3    H127623   2.542   5.416   6.360  2.7073  0.3149 -0.5273
 9222TIP3    H227624   2.591   5.539   6.287 -0.5559  0.7760 -2.1064
 9223TIP3   OH227625   2.647   4.738   2.580 -0.0232 -0.0654 -0.1501
 9223TIP3    H127626   2.587   4.682   2.629  2.1751 -2.5349 -0.0577
 9223TIP3    H227627   2.635   4.826   2.618 -3.0181 -0.5491  0.2563
 9224TIP3   OH227628   5.026   0.590   2.799 -0.0292  0.7016 -0.1915
 9224TIP3    H127629   5.031   0.499   2.768 -0.2406  0.7517 -0.3733
 9224TIP3    H227630   4.954   0.628   2.749 -0.0045  0.9423 -0.0416
 9225TIP3   OH227631   7.633   3.498   3.443 -0.0896  0.3380  0.2823
 9225TIP3    H127632   7.561   3.469   3.499  0.7338 -1.2226  0.5900
 9225TIP3    H227633   7.680   3.417   3.421  1.1375  1.2379 -0.5103
 9226TIP3   OH227634   0.854   5.592   5.933  0.2417  0.2788  0.0885
 9226TIP3    H127635   0.853   5.670   5.987  1.0773  0.7966 -0.6152
 9226TIP3    H227636   0.924   5.538   5.969 -1.2524 -0.8543  1.4818
 9227TIP3   OH227637   4.768   4.952   3.405  0.0304  0.2787 -0.2947
 9227TIP3    H127638   4.754   5.031   3.457  0.9615 -0.3475  0.9630
 9227TIP3    H227639   4.709   4.887   3.445  0.2004 -0.0018 -0.4998
 9228TIP3   OH227640   2.943   6.333   5.822  0.2545 -0.2230  0.0760
 9228TIP3    H127641   2.878   6.389   5.864  0.9144  0.0594  0.7509
 9228TIP3    H227642   3.010   6.320   5.889  1.2536  0.0959 -0.8370
 9229TIP3   OH227643   6.273   0.599   4.188 -0.3785 -0.3143  0.3555
 9229TIP3    H127644   6.269   0.621   4.095  0.9788  2.1461  0.8047
 9229TIP3    H227645   6.358   0.556   4.199  0.0123  0.5205  0.6505
 9230TIP3   OH227646   4.294   7.677   1.079 -0.2819 -0.5091 -0.2671
 9230TIP3    H127647   4.375   7.696   1.126 -1.2264 -0.0733  1.2593
 9230TIP3    H227648   4.315   7.601   1.025  0.7073 -1.4153  1.3180
 9231TIP3   OH227649   6.718   4.475   1.030  0.0213  0.4166 -0.4098
 9231TIP3    H127650   6.653   4.420   1.075  0.9821  0.2637  0.8210
 9231TIP3    H227651   6.696   4.465   0.937 -0.0684 -1.7689 -0.2110
 9232TIP3   OH227652   5.442   3.017   5.158  0.4318 -0.1115  1.0208
 9232TIP3    H127653   5.354   3.051   5.171 -0.0520 -0.4251 -1.1067
 9232TIP3    H227654   5.489   3.088   5.115  1.6290  0.4939  3.1640
 9233TIP3   OH227655   0.290   7.062   1.234  0.2924 -0.7103  0.7329
 9233TIP3    H127656   0.362   7.048   1.297 -0.1673 -1.8999  1.0167
 9233TIP3    H227657   0.292   7.157   1.217  2.0403 -0.7336  0.5843
 9234TIP3   OH227658   3.476   7.759   6.426 -0.0031  0.6930  0.0455
 9234TIP3    H127659   3.557   7.728   6.467  0.4850  2.9984  1.0244
 9234TIP3    H227660   3.504   7.832   6.371 -1.0580 -0.4808 -2.1641
 9235TIP3   OH227661   4.972   1.311   4.943  0.1286 -0.0114 -0.4809
 9235TIP3    H127662   5.061   1.314   4.910  0.3446  1.1560  0.1306
 9235TIP3    H227663   4.952   1.402   4.967 -1.8050  0.0602 -2.0925
 9236TIP3   OH227664   5.741   4.025   2.962  0.3704  0.1185 -0.1882
 9236TIP3    H127665   5.825   4.014   3.007  0.6902  1.6966 -0.3168
 9236TIP3    H227666   5.678   3.980   3.017  1.5070 -2.7866 -1.0479
 9237TIP3   OH227667   8.268   2.452   0.790 -0.0200 -0.1180 -0.1420
 9237TIP3    H127668   8.195   2.475   0.848 -0.8960  0.1490 -1.3045
 9237TIP3    H227669   8.325   2.397   0.843 -0.8041  0.0924  0.9534
 9238TIP3   OH227670   5.052   5.286   0.008 -1.0979 -0.2263  0.0212
 9238TIP3    H127671   5.068   5.323   0.095 -4.9553  0.1046  0.7584
 9238TIP3    H227672   5.001   5.207   0.024 -1.3101 -0.5386 -1.9546
 9239TIP3   OH227673   1.994   0.959   5.635 -0.6528  0.2909  0.1986
 9239TIP3    H127674   2.079   1.003   5.644 -0.1806 -0.6330  0.3647
 9239TIP3    H227675   1.975   0.965   5.541  0.1545 -0.4622 -0.0388
 9240TIP3   OH227676   0.929   1.216   2.825  0.0780 -0.0798 -0.2482
 9240TIP3    H127677   0.978   1.286   2.866  0.6497 -0.6608  0.0715
 9240TIP3    H227678   0.955   1.137   2.872  0.6230 -0.7394 -1.6092
 9241TIP3   OH227679   3.907   3.518   6.262  0.4905  0.0455  0.0979
 9241TIP3    H127680   3.993   3.555   6.241 -0.0227  0.0262 -2.3459
 9241TIP3    H227681   3.850   3.594   6.273  0.1993  0.0705 -1.3756
 9242TIP3   OH227682   5.702   2.893   1.542  0.3185 -0.1446  0.5442
 9242TIP3    H127683   5.779   2.900   1.485  0.0386 -2.2890 -0.1988
 9242TIP3    H227684   5.734   2.844   1.618  0.0682  0.4322  1.0262
 9243TIP3   OH227685   4.151   1.927   4.562 -0.1150  0.0852 -0.3720
 9243TIP3    H127686   4.151   1.834   4.585 -0.0966 -0.5617 -2.6755
 9243TIP3    H227687   4.058   1.950   4.561 -0.2883 -0.5426 -1.8859
 9244TIP3   OH227688   1.479   3.124   4.756 -0.1073  0.1709 -0.0879
 9244TIP3    H127689   1.451   3.158   4.671  0.3627  1.0466  0.1032
 9244TIP3    H227690   1.413   3.057   4.777 -0.5190  0.3037 -0.8918
 9245TIP3   OH227691   1.257   1.622   4.327 -0.4449 -0.0656 -0.2075
 9245TIP3    H127692   1.253   1.705   4.280  0.0255 -0.2006 -0.4904
 9245TIP3    H227693   1.173   1.580   4.308 -0.4712  0.1148 -0.4923
 9246TIP3   OH227694   8.042   4.827   3.654  0.6602 -0.3474  0.2249
 9246TIP3    H127695   7.994   4.766   3.709  0.2295 -0.5421 -0.3538
 9246TIP3    H227696   8.119   4.778   3.625  0.1466 -0.7477 -0.5092
 9247TIP3   OH227697   4.415   2.270   2.905  0.2866  0.1909 -0.2892
 9247TIP3    H127698   4.344   2.231   2.956 -0.2233  1.2387 -0.1654
 9247TIP3    H227699   4.371   2.312   2.831  0.3861  3.3393  1.2716
 9248TIP3   OH227700   3.474   0.729   0.269  0.0933 -0.3671 -0.0135
 9248TIP3    H127701   3.442   0.819   0.277 -0.3973 -0.5364 -0.0005
 9248TIP3    H227702   3.536   0.732   0.196 -0.3102 -0.1148 -0.3522
 9249TIP3   OH227703   5.062   6.820   1.454  0.6398 -0.0453 -0.3096
 9249TIP3    H127704   5.124   6.784   1.518  0.3097  0.4202  0.2796
 9249TIP3    H227705   5.114   6.882   1.402  0.6399  0.4704  0.2924
 9250TIP3   OH227706   3.556   1.501   6.515  0.1638  0.1656  0.0314
 9250TIP3    H127707   3.528   1.500   6.424  0.1602 -0.6426  0.0309
 9250TIP3    H227708   3.530   1.415   6.549 -1.6465  1.1632  1.3580
 9251TIP3   OH227709   5.536   5.267   4.042 -0.4052  0.1247  0.4717
 9251TIP3    H127710   5.608   5.288   3.983 -1.7586  1.5408 -0.7761
 9251TIP3    H227711   5.537   5.336   4.108  1.9965 -2.2153  3.1581
 9252TIP3   OH227712   5.038   6.347   2.890  0.0724 -0.1256  0.6596
 9252TIP3    H127713   4.968   6.282   2.899  2.2021 -2.7501 -0.5292
 9252TIP3    H227714   5.075   6.355   2.977 -1.6106  1.3127  1.3098
 9253TIP3   OH227715   0.685   7.334   1.642 -0.2724 -0.0296 -0.3466
 9253TIP3    H127716   0.758   7.331   1.704 -0.6718 -1.5576  0.0877
 9253TIP3    H227717   0.647   7.246   1.645 -2.4730  0.8609 -0.1638
 9254TIP3   OH227718   2.809   3.028   6.785 -0.2966  0.4317 -0.2326
 9254TIP3    H127719   2.829   3.085   6.712  0.2498 -1.1278 -1.3618
 9254TIP3    H227720   2.786   2.944   6.745 -3.1210  0.3465  1.2282
 9255TIP3   OH227721   7.991   2.137   0.670 -0.7803  0.6109  0.2467
 9255TIP3    H127722   8.044   2.198   0.618 -0.6905  1.9689  1.8486
 9255TIP3    H227723   7.914   2.121   0.615 -1.0354  2.5801 -0.0699
 9256TIP3   OH227724   3.403   2.054   1.611 -0.1862  0.1036 -0.1931
 9256TIP3    H127725   3.411   1.973   1.661  0.4993 -0.7056 -1.5663
 9256TIP3    H227726   3.491   2.069   1.576 -0.5434  0.9089 -0.7649
 9257TIP3   OH227727   1.636   3.469   3.343  0.2156 -0.1576  0.3652
 9257TIP3    H127728   1.674   3.549   3.381  1.8608 -0.8984  0.3518
 9257TIP3    H227729   1.666   3.399   3.401  0.9467 -1.0567 -1.0547
 9258TIP3   OH227730   3.323   6.114   1.830 -0.1844  0.4422  0.1531
 9258TIP3    H127731   3.401   6.070   1.864  0.5356  1.8748  0.4310
 9258TIP3    H227732   3.283   6.155   1.907 -0.4046  0.9275 -0.2130
 9259TIP3   OH227733   7.649   4.797   2.426 -0.2997  0.3249 -0.0214
 9259TIP3    H127734   7.659   4.703   2.411  0.7388  0.3787  0.2145
 9259TIP3    H227735   7.572   4.822   2.375 -0.3272 -0.5784 -0.4403
 9260TIP3   OH227736   7.075   3.731   3.993  0.4164  0.1760 -0.2208
 9260TIP3    H127737   7.074   3.758   3.901 -0.8394 -0.3291 -0.3869
 9260TIP3    H227738   7.005   3.665   3.998  1.8951 -1.3934  0.6258
 9261TIP3   OH227739   0.687   1.446   3.381 -0.6344 -0.2798 -0.3756
 9261TIP3    H127740   0.773   1.441   3.423  0.2311  1.6852 -1.7250
 9261TIP3    H227741   0.627   1.465   3.453  0.6094  1.6705  0.2594
 9262TIP3   OH227742   1.744   1.542   4.334  0.1415  0.2691 -0.2010
 9262TIP3    H127743   1.814   1.602   4.308  0.4732  0.2922  0.7338
 9262TIP3    H227744   1.670   1.600   4.354  0.1573  0.3040 -0.2428
 9263TIP3   OH227745   5.684   3.232   1.361  0.2537 -0.2725  0.1617
 9263TIP3    H127746   5.639   3.232   1.277 -0.7374 -2.7977  0.6222
 9263TIP3    H227747   5.775   3.209   1.340  1.4308  4.1701 -0.6879
 9264TIP3   OH227748   0.734   0.809   2.220  0.1218 -0.2199 -0.2638
 9264TIP3    H127749   0.706   0.719   2.237  3.6791 -2.0779 -2.7655
 9264TIP3    H227750   0.693   0.832   2.137 -0.4304  0.3513  0.1550
 9265TIP3   OH227751   5.610   1.335   0.534 -0.3466 -0.4707 -0.2944
 9265TIP3    H127752   5.585   1.391   0.608 -1.6961  1.3119 -1.9652
 9265TIP3    H227753   5.547   1.263   0.537 -1.6814  0.6170 -0.7541
 9266TIP3   OH227754   3.372   1.744   5.205 -0.3065 -0.4983 -0.4187
 9266TIP3    H127755   3.467   1.739   5.197 -0.3341 -1.1663 -0.4066
 9266TIP3    H227756   3.341   1.765   5.117 -0.1499 -0.2523 -0.4159
 9267TIP3   OH227757   4.758   2.057   3.861  0.7622  0.5840  0.8832
 9267TIP3    H127758   4.755   2.149   3.887  0.9439  1.0245 -0.5968
 9267TIP3    H227759   4.756   2.059   3.766  1.2662 -0.9305  0.8220
 9268TIP3   OH227760   0.463   0.290   4.451 -0.1493 -0.5868 -0.0730
 9268TIP3    H127761   0.434   0.268   4.540 -0.3454 -0.5859 -0.1363
 9268TIP3    H227762   0.430   0.378   4.437  0.1316 -0.4753 -0.0404
 9269TIP3   OH227763   6.640   5.359   1.339 -0.5090  0.2004 -0.4333
 9269TIP3    H127764   6.616   5.436   1.391  0.7256  1.2937 -1.4032
 9269TIP3    H227765   6.706   5.391   1.278 -0.7322 -1.4083 -1.5924
 9270TIP3   OH227766   5.837   1.142   3.106 -0.1848  0.1546  0.1873
 9270TIP3    H127767   5.908   1.175   3.161 -0.1452 -1.6231  1.2865
 9270TIP3    H227768   5.775   1.214   3.099  0.8849  1.1461  0.6957
 9271TIP3   OH227769   7.897   2.800   3.204  0.1173 -0.4595  0.0725
 9271TIP3    H127770   7.971   2.784   3.144  0.3666  0.2874  0.1720
 9271TIP3    H227771   7.820   2.781   3.152  0.3289  0.3098 -0.5381
 9272TIP3   OH227772   4.458   7.105   0.900  0.4322 -0.2814 -0.3039
 9272TIP3    H127773   4.463   7.074   0.810  0.4831 -1.2166 -0.0021
 9272TIP3    H227774   4.547   7.091   0.934  0.6082  0.7459 -0.3100
 9273TIP3   OH227775   7.176   3.470   4.436  0.3671  0.8566  0.5298
 9273TIP3    H127776   7.217   3.482   4.351 -0.1448  2.5963  0.5006
 9273TIP3    H227777   7.082   3.479   4.419  0.2133  0.5270  1.1767
 9274TIP3   OH227778   4.505   0.534   4.902  0.7987  0.6191 -0.4293
 9274TIP3    H127779   4.507   0.627   4.880  1.0634  0.7741  0.2341
 9274TIP3    H227780   4.475   0.531   4.992  1.0730  0.0812 -0.3489
 9275TIP3   OH227781   0.718   6.193   5.973  0.9678 -0.3726  0.1185
 9275TIP3    H127782   0.720   6.136   6.050 -0.0419  0.5986  0.8931
 9275TIP3    H227783   0.744   6.136   5.901  0.1568 -1.7735  0.8874
 9276TIP3   OH227784   7.359   1.535   4.533 -0.5502 -0.0057 -0.4571
 9276TIP3    H127785   7.440   1.519   4.485 -0.6051  0.2174 -0.6235
 9276TIP3    H227786   7.296   1.473   4.496 -0.6270  0.2531 -0.7597
 9277TIP3   OH227787   0.953   2.464   0.764  0.4645 -0.1266  0.1959
 9277TIP3    H127788   0.877   2.501   0.810  0.6083  0.9115 -0.3564
 9277TIP3    H227789   1.025   2.476   0.825  0.2628 -0.7198  0.5516
 9278TIP3   OH227790   2.434   6.873   6.514  0.0458  0.3487  0.2429
 9278TIP3    H127791   2.459   6.958   6.552  0.6167 -0.0449  0.7736
 9278TIP3    H227792   2.452   6.882   6.421 -1.4895  1.3804 -0.0090
 9279TIP3   OH227793   3.794   6.319   0.463 -0.6429  0.1400  0.1377
 9279TIP3    H127794   3.716   6.371   0.442 -0.2202  0.0513 -1.8046
 9279TIP3    H227795   3.832   6.296   0.378  0.7961 -0.9159  1.0131
 9280TIP3   OH227796   5.306   5.036   6.551 -0.1644 -0.3154  0.0141
 9280TIP3    H127797   5.327   5.044   6.458  1.9328 -0.1374  0.4575
 9280TIP3    H227798   5.389   5.054   6.596 -0.3401 -3.3334  1.8217
 9281TIP3   OH227799   5.822   2.625   1.983  0.2080  0.1728 -0.1546
 9281TIP3    H127800   5.854   2.682   2.052  0.4833  0.1126 -0.2288
 9281TIP3    H227801   5.774   2.556   2.029  2.0466 -0.9794  0.1594
 9282TIP3   OH227802   0.148   4.020   2.503  0.5129  0.1277 -0.3697
 9282TIP3    H127803   0.073   4.079   2.510 -1.0839 -1.8268 -0.1638
 9282TIP3    H227804   0.142   3.983   2.415  0.2547 -1.2419  0.1985
 9283TIP3   OH227805   6.826   2.159   6.439  1.2261  0.3393  0.2159
 9283TIP3    H127806   6.856   2.142   6.528  1.3305 -1.1281 -0.0632
 9283TIP3    H227807   6.893   2.119   6.384  0.0055 -0.8638 -0.4617
 9284TIP3   OH227808   6.163   0.197   6.549  0.1983 -0.2528 -0.3079
 9284TIP3    H127809   6.139   0.105   6.557 -0.7119  0.0677  1.0586
 9284TIP3    H227810   6.233   0.209   6.613  0.3031  0.0156 -0.4701
 9285TIP3   OH227811   0.438   5.452   2.001  0.3694  0.1281  0.1924
 9285TIP3    H127812   0.405   5.452   2.091 -0.8356 -3.0577 -0.1043
 9285TIP3    H227813   0.495   5.376   1.996 -0.0940 -0.1600 -1.8835
 9286TIP3   OH227814   3.992   3.911   3.017  0.0168  0.0795  0.6325
 9286TIP3    H127815   4.069   3.944   3.062  1.3212 -1.1779 -0.6010
 9286TIP3    H227816   4.015   3.822   2.990 -1.2900  0.2051 -1.0907
 9287TIP3   OH227817   7.076   4.005   1.167  0.1527  0.0276 -0.1071
 9287TIP3    H127818   7.119   4.074   1.219 -1.8822  0.8567  0.5825
 9287TIP3    H227819   7.000   3.979   1.220 -0.0993 -1.5150 -1.1664
 9288TIP3   OH227820   3.256   5.571   6.240 -0.0647  0.1872 -0.3258
 9288TIP3    H127821   3.296   5.611   6.163  0.2701 -0.8542 -0.7149
 9288TIP3    H227822   3.186   5.517   6.205  0.0623 -0.2632  0.0963
 9289TIP3   OH227823   2.200   3.516   0.288  0.1025  0.2309  0.0757
 9289TIP3    H127824   2.221   3.570   0.213  1.8442 -0.8739 -0.2973
 9289TIP3    H227825   2.115   3.477   0.267 -0.0150  0.9074 -0.7371
 9290TIP3   OH227826   6.434   4.167   1.115 -0.1882 -0.1045 -0.2734
 9290TIP3    H127827   6.409   4.198   1.028  0.6292 -0.3390 -0.6029
 9290TIP3    H227828   6.482   4.086   1.098 -3.4724 -2.4265  0.6316
 9291TIP3   OH227829   1.397   4.134   1.711  0.0395 -0.1781  0.2797
 9291TIP3    H127830   1.361   4.059   1.759 -1.4682 -0.4672 -1.2220
 9291TIP3    H227831   1.405   4.203   1.777  0.1385 -1.2266  1.3960
 9292TIP3   OH227832   7.396   2.191   3.523  0.5380 -0.1906 -0.5301
 9292TIP3    H127833   7.338   2.262   3.548  0.1024 -1.2858  1.9421
 9292TIP3    H227834   7.457   2.183   3.597  2.0257 -0.9307 -1.7677
 9293TIP3   OH227835   1.777   5.079   3.186  0.1378  0.2437 -0.4223
 9293TIP3    H127836   1.743   5.158   3.144  0.1878 -1.0639 -3.0946
 9293TIP3    H227837   1.872   5.084   3.176  0.1602 -0.0513 -0.3766
 9294TIP3   OH227838   2.410   1.933   1.422  0.0778  0.3027 -0.7211
 9294TIP3    H127839   2.435   1.991   1.350  2.7478  0.8741  0.5379
 9294TIP3    H227840   2.490   1.925   1.474 -1.1568 -1.8759  0.9679
 9295TIP3   OH227841   1.227   6.734   2.727 -0.1215 -0.7284  0.2317
 9295TIP3    H127842   1.250   6.827   2.730 -0.2631 -0.6858  0.0266
 9295TIP3    H227843   1.309   6.689   2.746 -0.2949 -0.5435  1.5203
 9296TIP3   OH227844   0.425   7.758   2.207 -0.1970 -0.0254 -0.5274
 9296TIP3    H127845   0.492   7.815   2.169  0.5856 -0.2923  0.3898
 9296TIP3    H227846   0.367   7.817   2.255 -0.0213  0.1092 -0.4797
 9297TIP3   OH227847   4.771   4.881   6.590 -0.2469  0.6546  0.2186
 9297TIP3    H127848   4.705   4.869   6.522  0.9269  1.3308 -1.0868
 9297TIP3    H227849   4.840   4.932   6.548  0.0988  1.9282  2.1866
 9298TIP3   OH227850   1.106   4.814   5.234  0.1455  0.2483 -0.4964
 9298TIP3    H127851   1.158   4.848   5.161  0.9989  0.3407  0.1315
 9298TIP3    H227852   1.163   4.749   5.275 -0.1950  0.4287  0.2750
 9299TIP3   OH227853   2.490   2.400   1.290  0.1397 -0.0135 -0.1349
 9299TIP3    H127854   2.415   2.398   1.349  1.2747 -1.5852  1.3654
 9299TIP3    H227855   2.452   2.389   1.203 -1.3489 -1.3169  0.6223
 9300TIP3   OH227856   0.383   6.845   0.746  0.1768 -0.2831 -0.2021
 9300TIP3    H127857   0.465   6.796   0.753  1.5179  1.8303 -0.2960
 9300TIP3    H227858   0.387   6.909   0.816 -1.7117 -0.5010  0.1696
 9301TIP3   OH227859   4.337   6.964   5.933 -0.3554 -0.2401  0.2988
 9301TIP3    H127860   4.416   7.013   5.911 -0.2896 -0.6630 -0.4426
 9301TIP3    H227861   4.368   6.874   5.945 -0.7514 -0.4506 -0.2138
 9302TIP3   OH227862   6.845   5.026   1.944  0.0997 -0.1367  0.1364
 9302TIP3    H127863   6.750   5.034   1.942 -0.0104 -1.3669  0.0266
 9302TIP3    H227864   6.875   5.083   1.872 -0.5010  0.6435  0.4848
 9303TIP3   OH227865   8.228   1.191   3.419 -0.4955  0.4695  0.1367
 9303TIP3    H127866   8.188   1.126   3.361 -0.4748 -0.0902  0.7395
 9303TIP3    H227867   8.322   1.173   3.413 -0.5740 -0.4438  1.3194
 9304TIP3   OH227868   3.028   4.681   6.183 -0.0591 -0.5369 -0.0224
 9304TIP3    H127869   3.072   4.722   6.109  1.0880 -1.2174  0.2591
 9304TIP3    H227870   3.093   4.620   6.219 -0.9397 -0.9411  0.9329
 9305TIP3   OH227871   5.715   2.642   4.410  0.3532  0.0613 -0.7030
 9305TIP3    H127872   5.800   2.608   4.381  1.5121  0.9291  1.4810
 9305TIP3    H227873   5.714   2.732   4.379 -0.2086 -0.2338 -1.5579
 9306TIP3   OH227874   2.821   0.702   6.402  0.0217 -0.2892 -0.7204
 9306TIP3    H127875   2.769   0.756   6.461 -0.3296 -0.8797 -0.4845
 9306TIP3    H227876   2.776   0.707   6.318  0.0768 -0.0890 -0.7378
 9307TIP3   OH227877   2.213   5.828   4.262 -0.0410  0.0562  0.2287
 9307TIP3    H127878   2.192   5.742   4.297  0.2786  0.1277  0.5949
 9307TIP3    H227879   2.291   5.814   4.208 -0.4535 -0.0286 -0.3611
 9308TIP3   OH227880   3.305   1.768   0.145  0.2121  0.2518 -0.4364
 9308TIP3    H127881   3.385   1.756   0.195  0.0413 -0.6227 -0.3566
 9308TIP3    H227882   3.246   1.815   0.204 -0.1133 -1.0867  0.3302
 9309TIP3   OH227883   7.478   1.118   6.560  0.2061  0.3012  0.0374
 9309TIP3    H127884   7.547   1.057   6.587  0.9487  0.5364 -1.2467
 9309TIP3    H227885   7.429   1.071   6.493  1.5582  1.5103 -1.8794
 9310TIP3   OH227886   2.186   2.156   6.227 -0.5780 -0.1660  0.4862
 9310TIP3    H127887   2.241   2.199   6.294  1.6919 -0.8195 -0.8357
 9310TIP3    H227888   2.164   2.226   6.165  1.1285 -0.3717 -0.4128
 9311TIP3   OH227889   0.982   1.688   1.120  0.2972  0.5573  0.0976
 9311TIP3    H127890   0.966   1.752   1.050 -0.7360 -0.5604 -0.7117
 9311TIP3    H227891   0.993   1.742   1.199  0.2682  1.7708 -0.6920
 9312TIP3   OH227892   2.332   5.571   0.341  0.8213 -0.1570  0.2627
 9312TIP3    H127893   2.243   5.604   0.358  0.7462  0.1039 -0.5873
 9312TIP3    H227894   2.319   5.480   0.315  0.9437 -0.5853  1.5872
 9313TIP3   OH227895   0.977   5.730   3.386 -0.3169  0.0628 -0.0502
 9313TIP3    H127896   1.034   5.785   3.332  2.1035 -0.9497  1.3442
 9313TIP3    H227897   0.973   5.776   3.470 -0.0901 -0.7647  0.4169
 9314TIP3   OH227898   3.578   5.936   1.395  0.1188 -0.4519 -0.2535
 9314TIP3    H127899   3.597   5.902   1.483 -1.5604 -0.9397 -0.0504
 9314TIP3    H227900   3.651   5.905   1.341  1.3527  0.1327  1.0165
 9315TIP3   OH227901   1.798   6.924   6.662  0.3734  0.0747 -0.2568
 9315TIP3    H127902   1.777   6.863   6.591  0.9909 -0.4183 -0.0227
 9315TIP3    H227903   1.734   6.995   6.652  0.4456  0.0092 -1.2974
 9316TIP3   OH227904   1.898   0.025   2.383 -0.3477 -0.1557  0.6247
 9316TIP3    H127905   1.958   0.063   2.319 -0.2648 -0.0351  0.7701
 9316TIP3    H227906   1.905  -0.070   2.370  0.9721 -0.2180  1.5984
 9317TIP3   OH227907   2.651   5.167   6.199  0.6063 -0.2281  0.2789
 9317TIP3    H127908   2.728   5.223   6.193 -0.5219  1.4457  0.8172
 9317TIP3    H227909   2.640   5.151   6.293  0.8787 -1.3545  0.1431
 9318TIP3   OH227910   4.864   2.488   5.783  0.7102 -0.8595  0.8234
 9318TIP3    H127911   4.884   2.579   5.763  1.1452 -1.1199  0.0194
 9318TIP3    H227912   4.917   2.438   5.721 -0.7365 -1.6127  0.1395
 9319TIP3   OH227913   0.376   6.581   0.308  0.3847  0.1052 -0.0409
 9319TIP3    H127914   0.290   6.544   0.291 -0.0362  1.6459 -1.5212
 9319TIP3    H227915   0.401   6.547   0.394 -1.6465 -0.4413  0.3648
 9320TIP3   OH227916   6.199   0.395   5.886 -0.3560  0.2443  0.0249
 9320TIP3    H127917   6.190   0.470   5.944  0.1905  0.4208 -0.1158
 9320TIP3    H227918   6.191   0.432   5.798 -1.2185 -0.0262 -0.0188
 9321TIP3   OH227919   4.830   3.831   2.892 -0.5745  0.1287  0.3010
 9321TIP3    H127920   4.812   3.759   2.953 -1.9632  1.2445  1.2695
 9321TIP3    H227921   4.836   3.908   2.948  1.6429  0.7220 -0.6273
 9322TIP3   OH227922   7.731   5.369   5.514  0.1655 -0.2394  0.3980
 9322TIP3    H127923   7.655   5.311   5.511  1.5686 -2.1048 -1.9545
 9322TIP3    H227924   7.756   5.371   5.606 -0.3257 -2.9189  0.6580
 9323TIP3   OH227925   4.192   3.414   2.777 -0.7035 -0.1811 -0.4371
 9323TIP3    H127926   4.232   3.362   2.708  0.3801 -1.0702  0.8050
 9323TIP3    H227927   4.138   3.478   2.731  0.0540 -0.6838 -2.0936
 9324TIP3   OH227928   2.011   3.911   1.625 -0.4536  0.0680 -0.0088
 9324TIP3    H127929   1.967   3.851   1.684 -1.3898  0.8933  0.1676
 9324TIP3    H227930   2.050   3.855   1.558 -0.4770 -0.7849  0.6748
 9325TIP3   OH227931   4.447   4.643   4.745 -0.1833  0.0249  0.5261
 9325TIP3    H127932   4.504   4.575   4.781  1.1801  0.3567 -0.9259
 9325TIP3    H227933   4.434   4.704   4.818 -0.6256 -1.2403  1.5583
 9326TIP3   OH227934   6.829   0.702   6.478  0.2502 -0.3123  0.1454
 9326TIP3    H127935   6.850   0.796   6.481 -0.7648 -0.0432 -0.5357
 9326TIP3    H227936   6.808   0.679   6.569 -1.5218  0.6412  0.0288
 9327TIP3   OH227937   1.539   5.797   4.413 -0.0589 -0.4364  0.4769
 9327TIP3    H127938   1.443   5.802   4.417 -0.1359 -1.3962  0.1598
 9327TIP3    H227939   1.559   5.706   4.435  0.7639 -0.3360  0.1844
 9328TIP3   OH227940   7.872   4.371   6.130  0.6411  0.4572  0.6640
 9328TIP3    H127941   7.786   4.414   6.126  0.4503  0.0842  0.6621
 9328TIP3    H227942   7.906   4.377   6.041 -0.5795 -1.7786 -0.0109
 9329TIP3   OH227943   7.695   6.885   4.402 -0.3002 -0.0995 -0.0895
 9329TIP3    H127944   7.675   6.960   4.460  1.3846 -0.8047  1.5081
 9329TIP3    H227945   7.790   6.881   4.400 -0.3335 -0.8931 -1.9648
 9330TIP3   OH227946   1.928   0.766   3.327 -0.1803  0.3210  0.4050
 9330TIP3    H127947   1.965   0.812   3.252  0.0872 -0.3031  0.1483
 9330TIP3    H227948   1.984   0.690   3.339 -1.1913 -0.4752  0.2145
 9331TIP3   OH227949   4.486   6.485   2.586  0.2810  0.0673  0.2231
 9331TIP3    H127950   4.489   6.541   2.664  0.2406  1.0380 -0.4427
 9331TIP3    H227951   4.422   6.527   2.530  1.5556  0.3900 -1.0620
 9332TIP3   OH227952   1.796   3.047   4.943 -0.3457 -0.1824  0.1838
 9332TIP3    H127953   1.736   3.027   5.015 -0.3765 -1.8627 -0.2561
 9332TIP3    H227954   1.843   2.965   4.928  1.0204  0.6818 -0.4637
 9333TIP3   OH227955   1.413   2.948   0.400 -0.1966 -0.2788 -0.2511
 9333TIP3    H127956   1.423   2.976   0.309 -0.8275 -0.3300 -0.3444
 9333TIP3    H227957   1.318   2.940   0.411 -0.0634 -2.0984 -0.1624
 9334TIP3   OH227958   8.080   4.681   0.447 -0.1242 -0.0730  0.4753
 9334TIP3    H127959   8.141   4.615   0.413 -0.5604  0.5260 -1.6102
 9334TIP3    H227960   8.116   4.764   0.416 -1.3408  0.3892  0.2477
 9335TIP3   OH227961   6.380   6.697   2.547 -0.3174  0.4433 -0.1299
 9335TIP3    H127962   6.445   6.660   2.606  0.9206  1.4699 -0.7926
 9335TIP3    H227963   6.415   6.784   2.524  0.0005 -0.4219 -3.4399
 9336TIP3   OH227964   6.796   1.036   0.921 -0.8200  0.6013  0.3631
 9336TIP3    H127965   6.881   1.060   0.959 -0.3082 -0.0379 -0.3480
 9336TIP3    H227966   6.760   1.119   0.889  0.2083  0.6771 -0.6502
 9337TIP3   OH227967   3.022   5.201   2.441 -0.1579 -0.5571 -0.8261
 9337TIP3    H127968   3.097   5.258   2.425 -0.0104 -0.0050  1.5507
 9337TIP3    H227969   3.061   5.117   2.466 -0.2265  0.0207  1.4451
 9338TIP3   OH227970   8.298   2.639   2.508  0.6070 -0.3793 -0.1357
 9338TIP3    H127971   8.208   2.609   2.501 -0.5201  2.4843  0.4425
 9338TIP3    H227972   8.345   2.565   2.547 -1.4575 -1.9556 -0.4437
 9339TIP3   OH227973   8.001   2.639   2.516  0.1770 -0.6428  0.2259
 9339TIP3    H127974   7.995   2.615   2.608  0.0264  1.5384  0.8528
 9339TIP3    H227975   7.948   2.573   2.470 -1.3460 -0.6853  1.9293
 9340TIP3   OH227976   5.384   1.652   6.171 -0.6561 -0.2268 -0.3158
 9340TIP3    H127977   5.437   1.643   6.092 -0.0789 -1.6128  0.1959
 9340TIP3    H227978   5.396   1.744   6.197 -0.0715 -0.0116 -1.2870
 9341TIP3   OH227979   5.511   5.532   1.122 -0.2173  0.0862  0.5930
 9341TIP3    H127980   5.515   5.556   1.214 -3.2962  1.5489  0.4638
 9341TIP3    H227981   5.517   5.615   1.075 -0.9201 -0.3969 -0.4061
 9342TIP3   OH227982   2.105   2.468   3.624 -0.4423 -0.0418 -0.3078
 9342TIP3    H127983   2.133   2.378   3.644  1.6118  0.6027 -0.0278
 9342TIP3    H227984   2.068   2.462   3.536 -1.3351 -1.3369  0.1274
 9343TIP3   OH227985   6.203   2.787   4.122  1.1149 -0.3582  0.2807
 9343TIP3    H127986   6.150   2.846   4.069  2.0936 -0.4140 -0.8177
 9343TIP3    H227987   6.192   2.817   4.212 -0.7215 -0.3591  0.0832
 9344TIP3   OH227988   5.476   6.495   4.698  0.7728  0.1427  0.0736
 9344TIP3    H127989   5.455   6.410   4.737  0.0126  0.3334  0.1022
 9344TIP3    H227990   5.558   6.521   4.739 -0.4267  0.7331  2.2608
 9345TIP3   OH227991   1.420   7.222   3.277  0.2559 -0.2213 -0.0708
 9345TIP3    H127992   1.361   7.171   3.222  0.9043 -0.6896 -0.3493
 9345TIP3    H227993   1.495   7.240   3.220  0.7546 -0.3611  0.5341
 9346TIP3   OH227994   6.937   3.871   0.631 -0.2851 -0.6383 -0.1567
 9346TIP3    H127995   7.013   3.886   0.575  1.8882 -0.9345  2.5056
 9346TIP3    H227996   6.902   3.959   0.649  2.3097  0.0613  2.1749
 9347TIP3   OH227997   1.088   1.931   2.671 -0.2683 -0.5169 -0.1805
 9347TIP3    H127998   1.009   1.938   2.617  0.2399  0.1970 -0.8725
 9347TIP3    H227999   1.106   2.021   2.698  1.6255 -0.2533 -2.0346
 9348TIP3   OH228000   7.696   2.547   0.373 -0.3070 -0.0494  0.5387
 9348TIP3    H128001   7.776   2.600   0.370 -0.7334  0.6143  0.7664
 9348TIP3    H228002   7.633   2.596   0.321 -1.2174  0.5530  2.1206
 9349TIP3   OH228003   1.756   6.295   2.032 -0.0124  0.5404  0.0732
 9349TIP3    H128004   1.792   6.274   1.946 -0.5826  1.3443 -0.3779
 9349TIP3    H228005   1.812   6.248   2.093  0.2136 -0.2965 -0.7510
 9350TIP3   OH228006   2.023   0.208   2.847  0.0415 -0.7294 -0.0162
 9350TIP3    H128007   2.001   0.125   2.891  0.1043 -0.3198  0.8103
 9350TIP3    H228008   1.965   0.272   2.888 -1.6817 -0.7349 -2.2650
 9351TIP3   OH228009   3.910   5.864   5.415  0.8524 -0.1825  0.0557
 9351TIP3    H128010   3.850   5.808   5.464  0.4639 -1.4511 -1.7491
 9351TIP3    H228011   3.976   5.803   5.381  0.9845  0.5983 -1.1289
 9352TIP3   OH228012   4.320   1.086   0.487 -0.2456 -0.3486  0.3801
 9352TIP3    H128013   4.331   1.123   0.400  0.4657  0.6371  0.8560
 9352TIP3    H228014   4.393   1.025   0.497  0.1031  0.0843  0.5382
 9353TIP3   OH228015   3.424   2.145   6.727  0.1916  0.3657 -1.1339
 9353TIP3    H128016   3.343   2.175   6.686  1.2357  0.5469 -3.2149
 9353TIP3    H228017   3.472   2.225   6.748 -0.0247  0.2565 -0.2199
 9354TIP3   OH228018   5.795   2.704   5.221 -0.8436  0.1005 -0.1466
 9354TIP3    H128019   5.746   2.678   5.299 -0.4324  0.3516  0.2035
 9354TIP3    H228020   5.844   2.626   5.196  0.9809  0.6690  1.3488
 9355TIP3   OH228021   5.689   7.272   6.709 -0.2654 -0.1548  0.4028
 9355TIP3    H128022   5.699   7.179   6.732 -0.9143  0.3627  3.2268
 9355TIP3    H228023   5.736   7.319   6.778 -1.3459  1.6340  0.0004
 9356TIP3   OH228024   1.609   1.905   6.252 -0.4287  0.0862 -0.1632
 9356TIP3    H128025   1.591   1.909   6.158  0.2609 -0.0178 -0.3085
 9356TIP3    H228026   1.607   1.811   6.272  1.1435 -0.0308 -0.4408
 9357TIP3   OH228027   0.981   4.657   4.366 -0.2691  0.8126  0.1744
 9357TIP3    H128028   1.030   4.575   4.361 -0.4847  0.7209 -0.6607
 9357TIP3    H228029   1.016   4.702   4.443 -0.5344 -0.3121  0.9756
 9358TIP3   OH228030   7.391   4.874   2.331 -0.6414 -0.2989 -0.1347
 9358TIP3    H128031   7.394   4.864   2.236 -1.3499 -1.4391 -0.0497
 9358TIP3    H228032   7.344   4.956   2.345  0.8911  0.7363 -0.7751
 9359TIP3   OH228033   7.556   5.278   5.149  0.7864 -0.6120  0.2776
 9359TIP3    H128034   7.526   5.194   5.184  1.7639 -1.3537 -0.6088
 9359TIP3    H228035   7.497   5.296   5.077  1.2396 -1.1114 -0.2354
 9360TIP3   OH228036   1.573   1.602   0.815 -0.0158 -0.2008 -0.1831
 9360TIP3    H128037   1.560   1.666   0.885  1.0059  0.1219 -0.2578
 9360TIP3    H228038   1.669   1.597   0.806 -0.1146 -0.9969 -0.8591
 9361TIP3   OH228039   2.056   3.326   2.410 -0.4270 -0.3007 -0.0565
 9361TIP3    H128040   2.100   3.399   2.368 -0.3705  0.0843  0.6582
 9361TIP3    H228041   2.105   3.249   2.382  0.6733  0.1103  0.6741
 9362TIP3   OH228042   2.368   6.432   3.847  0.7590 -0.6418 -0.1151
 9362TIP3    H128043   2.281   6.448   3.811  1.7613  2.1156 -1.5812
 9362TIP3    H228044   2.352   6.414   3.940 -1.3971 -0.9391 -0.4776
 9363TIP3   OH228045   7.843   1.707   1.903  0.4262  0.0544  0.1763
 9363TIP3    H128046   7.906   1.778   1.891  0.1923  0.0295 -1.3484
 9363TIP3    H228047   7.781   1.716   1.830 -0.1013 -1.2052  0.4312
 9364TIP3   OH228048   3.396   5.465   6.454 -0.3899 -0.5174  0.2220
 9364TIP3    H128049   3.368   5.379   6.485 -1.3147 -0.7192 -1.0779
 9364TIP3    H228050   3.361   5.471   6.365  1.4964  0.3254 -0.5242
 9365TIP3   OH228051   5.743   6.357   6.050 -0.1328 -0.4755 -0.0700
 9365TIP3    H128052   5.824   6.345   6.099  0.1939  0.5827 -0.3187
 9365TIP3    H228053   5.771   6.401   5.969 -0.9164 -0.3296 -0.2661
 9366TIP3   OH228054   4.589   5.354   2.432  0.7078  0.6846  0.7318
 9366TIP3    H128055   4.622   5.292   2.497  0.6618  0.1389  0.2449
 9366TIP3    H228056   4.527   5.303   2.380  0.5286  1.1930  0.4413
 9367TIP3   OH228057   7.513   2.704   0.828 -0.4897 -0.2903  0.4209
 9367TIP3    H128058   7.488   2.721   0.737  0.8421  0.5875  0.1927
 9367TIP3    H228059   7.527   2.609   0.831 -2.0099 -0.5545  0.1225
 9368TIP3   OH228060   7.743   3.631   2.378  0.6038  0.0353 -0.3359
 9368TIP3    H128061   7.790   3.654   2.298  0.1617 -0.1047 -0.6442
 9368TIP3    H228062   7.780   3.688   2.445  1.0161  0.1178 -0.6282
 9369TIP3   OH228063   7.821   2.920   4.012  0.0029 -0.4073  0.4543
 9369TIP3    H128064   7.729   2.912   3.987 -0.4005  0.0439  1.7145
 9369TIP3    H228065   7.864   2.844   3.973 -0.9941 -0.8857  0.2710
 9370TIP3   OH228066   1.887   4.210   0.894 -0.0191 -0.1031  0.2384
 9370TIP3    H128067   1.940   4.197   0.816 -1.9952 -0.5319 -1.1023
 9370TIP3    H228068   1.870   4.122   0.927 -1.3183 -0.1116 -0.3811
 9371TIP3   OH228069   5.868   3.701   1.401 -1.0403  0.6180 -0.5529
 9371TIP3    H128070   5.834   3.787   1.378  1.7805  1.6771 -1.1972
 9371TIP3    H228071   5.932   3.719   1.470 -1.8251 -1.2536  0.7408
 9372TIP3   OH228072   1.104   5.787   1.308 -0.1192 -0.7149 -0.3262
 9372TIP3    H128073   1.055   5.768   1.228  0.6379 -1.4990 -0.6256
 9372TIP3    H228074   1.191   5.812   1.277 -0.2204  0.3634  0.2070
 9373TIP3   OH228075   5.991   2.422   2.439  0.1317  0.2608 -0.2133
 9373TIP3    H128076   5.966   2.357   2.504  2.5725 -1.1873 -0.5951
 9373TIP3    H228077   6.037   2.490   2.489 -0.9265  0.8730 -0.0398
 9374TIP3   OH228078   1.109   5.090   5.549 -0.1974 -0.0094 -0.0859
 9374TIP3    H128079   1.070   5.125   5.469 -0.1919  2.2070  0.7872
 9374TIP3    H228080   1.135   5.001   5.527  0.7263  0.8488 -2.8426
 9375TIP3   OH228081   7.007   5.626   5.650 -0.6122  0.6236  0.0240
 9375TIP3    H128082   6.916   5.650   5.634 -0.9153  0.1538  0.9553
 9375TIP3    H228083   7.032   5.573   5.575 -1.9666 -1.5343  1.0228
 9376TIP3   OH228084   2.832   3.437   0.406 -0.3016 -0.3664  0.4795
 9376TIP3    H128085   2.753   3.488   0.389 -0.5098 -0.4164  1.2342
 9376TIP3    H228086   2.801   3.346   0.410  0.2500 -0.7212 -2.0377
 9377TIP3   OH228087   0.743   5.890   3.965  0.1295 -0.6239 -0.4508
 9377TIP3    H128088   0.707   5.958   3.908  1.1262 -1.1950 -1.8175
 9377TIP3    H228089   0.724   5.808   3.919  4.2188 -0.9340 -2.0398
 9378TIP3   OH228090   3.091   5.748   2.839  0.1209 -0.1231 -0.2203
 9378TIP3    H128091   3.176   5.749   2.794  0.3120 -1.5183  0.0435
 9378TIP3    H228092   3.031   5.712   2.774 -0.1043  0.1281 -0.1500
 9379TIP3   OH228093   2.482   1.306   0.234  0.3107  0.1349 -0.2713
 9379TIP3    H128094   2.527   1.390   0.225 -1.3973  1.1328 -0.0151
 9379TIP3    H228095   2.468   1.296   0.328 -1.8885  0.9506 -0.4570
 9380TIP3   OH228096   7.254   7.707   6.494  0.4645 -0.0189 -0.1277
 9380TIP3    H128097   7.169   7.717   6.537 -0.1706  0.8251 -1.4875
 9380TIP3    H228098   7.309   7.774   6.535  1.4139 -2.3046  2.7096
 9381TIP3   OH228099   3.340   2.465   5.504 -0.3487  0.0428  0.4838
 9381TIP3    H128100   3.385   2.517   5.570  1.0955 -1.6080  0.8567
 9381TIP3    H228101   3.356   2.512   5.422  1.4134 -0.0906  0.7166
 9382TIP3   OH228102   8.233   4.604   6.741 -0.1255  0.0715 -0.4475
 9382TIP3    H128103   8.190   4.612   6.656  0.2167 -1.2038 -0.7559
 9382TIP3    H228104   8.242   4.694   6.771 -1.0784  0.4944 -1.3380
 9383TIP3   OH228105   4.142   1.965   2.318 -0.1464  0.0226  0.4411
 9383TIP3    H128106   4.153   1.888   2.374 -0.5660 -1.2835 -1.1809
 9383TIP3    H228107   4.068   2.012   2.356 -0.9129 -1.2505  0.5824
 9384TIP3   OH228108   5.566   0.629   0.539 -0.1957 -0.1025  0.1497
 9384TIP3    H128109   5.573   0.558   0.475 -0.6958  2.1863 -2.6681
 9384TIP3    H228110   5.647   0.678   0.529 -2.0301  2.7922 -2.1541
 9385TIP3   OH228111   3.773   1.413   2.698  0.4943 -0.3055 -0.6301
 9385TIP3    H128112   3.761   1.342   2.761  1.5772 -0.3701 -0.4803
 9385TIP3    H228113   3.795   1.489   2.752 -1.3027  0.3466 -0.7291
 9386TIP3   OH228114   4.758   5.095   1.271  0.0060  0.5211 -0.1156
 9386TIP3    H128115   4.756   5.190   1.283  0.7476  0.7488 -1.5832
 9386TIP3    H228116   4.682   5.076   1.216 -0.7931  0.0836  1.0845
 9387TIP3   OH228117   5.697   1.033   5.176 -0.4818 -0.4255 -0.3435
 9387TIP3    H128118   5.644   1.062   5.250  0.2725  0.4430 -0.1100
 9387TIP3    H228119   5.672   1.091   5.104  1.4154  1.2835  0.2684
 9388TIP3   OH228120   4.379   7.502   6.674  0.3449 -0.1223 -0.0435
 9388TIP3    H128121   4.323   7.425   6.667 -0.3038  0.2440  0.8892
 9388TIP3    H228122   4.358   7.554   6.597  0.2285 -0.5154 -0.2805
 9389TIP3   OH228123   1.541   3.831   2.307 -0.1010 -0.1058  0.3496
 9389TIP3    H128124   1.603   3.881   2.254 -1.2714  1.0143 -0.0087
 9389TIP3    H228125   1.456   3.850   2.269 -0.5721 -2.9833 -0.2723
 9390TIP3   OH228126   1.924   7.114   4.411 -0.4762  0.4101 -0.4668
 9390TIP3    H128127   1.992   7.181   4.412  0.8266 -0.8335  1.6497
 9390TIP3    H228128   1.954   7.047   4.473 -1.3000 -2.5705 -2.9764
 9391TIP3   OH228129   2.412   0.602   5.192  0.7872 -0.1813 -0.1801
 9391TIP3    H128130   2.409   0.520   5.240  0.8290 -0.5305 -0.7655
 9391TIP3    H228131   2.447   0.579   5.106  1.0810  0.4969 -0.2546
 9392TIP3   OH228132   3.426   1.408   5.364 -0.0611  0.7328  0.2647
 9392TIP3    H128133   3.388   1.411   5.452 -2.8615  3.0510 -0.8611
 9392TIP3    H228134   3.430   1.315   5.343 -0.8937  0.1959  2.2480
 9393TIP3   OH228135   5.693   1.992   2.275  0.1921  0.6116 -0.3452
 9393TIP3    H128136   5.604   2.025   2.270 -0.9362 -2.1698 -0.8218
 9393TIP3    H228137   5.725   2.020   2.360 -1.5585  0.7801  0.2925
 9394TIP3   OH228138   2.251   7.779   1.425 -0.1039 -0.1859  0.0257
 9394TIP3    H128139   2.212   7.802   1.509  2.0049 -0.0972  1.0581
 9394TIP3    H228140   2.210   7.696   1.400 -2.1071  0.7144  0.1633
 9395TIP3   OH228141   7.589   4.865   1.256  0.0831 -0.1949  0.4044
 9395TIP3    H128142   7.526   4.825   1.195 -0.8935  3.7510 -1.5603
 9395TIP3    H228143   7.568   4.827   1.341 -1.5797 -2.6683 -0.9794
 9396TIP3   OH228144   7.457   2.582   1.978 -0.3599 -0.1964 -0.2319
 9396TIP3    H128145   7.523   2.614   1.917  1.1343  0.1975  1.4920
 9396TIP3    H228146   7.388   2.648   1.975  0.1692  0.3522 -0.7465
 9397TIP3   OH228147   0.988   4.581   2.277 -0.1135  0.2487 -0.0831
 9397TIP3    H128148   1.029   4.625   2.203  2.3824 -0.6666  0.6529
 9397TIP3    H228149   0.917   4.639   2.303 -0.7161  0.8537 -2.8153
 9398TIP3   OH228150   4.858   3.062   4.896 -0.8038  0.0721  0.2108
 9398TIP3    H128151   4.780   3.035   4.944 -1.4277 -0.1158 -0.8778
 9398TIP3    H228152   4.835   3.051   4.804  0.6571 -0.4186 -0.1288
 9399TIP3   OH228153   3.127   2.947   5.345 -0.4246 -0.5360 -0.1633
 9399TIP3    H128154   3.160   2.868   5.301 -0.0074 -0.4823  0.0518
 9399TIP3    H228155   3.102   3.005   5.273  1.6211  0.1406 -0.4025
 9400TIP3   OH228156   5.447   7.255   1.127  0.9756 -0.2094 -0.6398
 9400TIP3    H128157   5.507   7.292   1.062 -0.6008  1.5275 -1.1744
 9400TIP3    H228158   5.362   7.252   1.084 -0.1472  1.0621  1.3158
 9401TIP3   OH228159   6.357   0.256   3.550  0.3205 -0.3704  0.0900
 9401TIP3    H128160   6.321   0.168   3.557  1.4170 -0.7318  1.8685
 9401TIP3    H228161   6.371   0.283   3.641 -0.0479  1.6772 -0.4113
 9402TIP3   OH228162   0.178   5.228   1.351 -0.0442 -0.7182 -0.3931
 9402TIP3    H128163   0.136   5.167   1.411 -0.7284  0.5173  0.4230
 9402TIP3    H228164   0.271   5.225   1.375  0.3643 -3.1222 -1.9073
 9403TIP3   OH228165   6.481   2.863   2.452  0.1477  0.0691  0.1849
 9403TIP3    H128166   6.474   2.803   2.526 -0.5216  2.1147  1.9153
 9403TIP3    H228167   6.422   2.829   2.386  0.1751 -1.4102  0.8964
 9404TIP3   OH228168   7.785   0.947   0.738 -0.6969 -0.8342 -0.4759
 9404TIP3    H128169   7.788   1.042   0.746  0.6427 -0.9493  0.8626
 9404TIP3    H228170   7.731   0.931   0.661 -3.6752  0.9451  1.0514
 9405TIP3   OH228171   2.868   6.130   0.829 -0.0436 -0.1941  0.3330
 9405TIP3    H128172   2.954   6.098   0.855  0.0009 -1.3030 -1.1026
 9405TIP3    H228173   2.807   6.088   0.891  0.1615 -1.9469 -0.6025
 9406TIP3   OH228174   3.572   6.686   2.800 -0.1558 -0.0052  0.4751
 9406TIP3    H128175   3.543   6.653   2.885 -0.9285 -0.1129  0.1706
 9406TIP3    H228176   3.545   6.619   2.737  0.1782  0.1977  0.1121
 9407TIP3   OH228177   4.007   5.686   5.092  0.1666 -0.8544  0.4106
 9407TIP3    H128178   4.044   5.621   5.031  1.9755  0.4317  0.0503
 9407TIP3    H228179   4.022   5.647   5.179  2.4719 -0.4289  0.2823
 9408TIP3   OH228180   2.929   1.104   5.754  0.3829 -0.6705  0.1125
 9408TIP3    H128181   2.973   1.101   5.669 -0.4225 -1.8519 -0.2954
 9408TIP3    H228182   2.845   1.148   5.736 -0.1488 -1.6670  0.1076
 9409TIP3   OH228183   1.535   2.601   4.797  0.2689  0.2404  0.9730
 9409TIP3    H128184   1.501   2.565   4.879  0.6760 -2.0858  0.1914
 9409TIP3    H228185   1.490   2.553   4.728  0.5809  1.5217 -0.1852
 9410TIP3   OH228186   5.052   5.648   4.850  0.5093 -0.3012 -0.2366
 9410TIP3    H128187   5.102   5.654   4.931  2.7199  1.1523 -1.5779
 9410TIP3    H228188   5.087   5.570   4.807  0.6295 -0.0810 -0.5457
 9411TIP3   OH228189   4.458   1.471   1.118  0.4047 -0.1011  0.3688
 9411TIP3    H128190   4.425   1.481   1.028  1.9379  0.7102 -0.1476
 9411TIP3    H228191   4.469   1.377   1.129 -0.3810 -0.2547 -0.0673
 9412TIP3   OH228192   5.688   1.609   4.581 -0.0237 -0.2419  0.4177
 9412TIP3    H128193   5.605   1.563   4.598 -0.7556  0.9676  0.2191
 9412TIP3    H228194   5.675   1.696   4.617  0.8017  0.2892 -0.5242
 9413TIP3   OH228195   1.763   5.663   2.792 -0.0976  0.2361  0.7096
 9413TIP3    H128196   1.764   5.725   2.865  0.3813 -0.2993  1.1720
 9413TIP3    H228197   1.749   5.718   2.715  1.3771  1.0768  0.9847
 9414TIP3   OH228198   6.768   3.654   0.722  0.0171 -0.4583  0.1621
 9414TIP3    H128199   6.724   3.667   0.807  0.9509 -1.0294  0.7518
 9414TIP3    H228200   6.831   3.726   0.717  0.5940 -0.9462  0.3764
 9415TIP3   OH228201   3.159   5.981   1.657  0.3648  0.1567  0.3743
 9415TIP3    H128202   3.178   5.887   1.648  1.5170  0.2564  1.4668
 9415TIP3    H228203   3.218   6.011   1.726  0.4098  1.8120 -0.3295
 9416TIP3   OH228204   5.176   3.015   6.566  0.5831 -0.2416 -0.1241
 9416TIP3    H128205   5.116   2.972   6.504  0.5158  0.8277 -0.8318
 9416TIP3    H228206   5.238   3.062   6.510  0.6048  0.6400  0.6185
 9417TIP3   OH228207   6.782   2.074   4.818  0.0544 -0.7293 -0.4894
 9417TIP3    H128208   6.865   2.121   4.825 -0.0093 -0.6195 -0.4834
 9417TIP3    H228209   6.720   2.138   4.783  0.2126 -1.0856 -1.4600
 9418TIP3   OH228210   0.225   4.966   5.965  0.5899 -0.6769  0.5631
 9418TIP3    H128211   0.244   5.014   6.045  1.1970 -1.7834  1.1058
 9418TIP3    H228212   0.152   4.909   5.988 -0.5004  0.3444 -0.2349
 9419TIP3   OH228213   3.398   3.905   0.620 -0.2589 -0.2744 -0.4684
 9419TIP3    H128214   3.384   3.920   0.714 -1.2360  0.2681 -0.6826
 9419TIP3    H228215   3.489   3.878   0.613 -0.0571  0.0874  0.5983
 9420TIP3   OH228216   3.925   2.545   2.535 -0.6237  0.0291  0.2191
 9420TIP3    H128217   3.865   2.603   2.488  0.0182  0.7707  0.2927
 9420TIP3    H228218   3.939   2.471   2.476 -0.4191  0.5875 -0.4460
 9421TIP3   OH228219   4.053   5.756   0.602  0.3796  0.1888  0.9822
 9421TIP3    H128220   3.978   5.700   0.621 -0.5278  0.8680 -0.4323
 9421TIP3    H228221   4.129   5.701   0.620 -0.4768 -1.2819  0.2816
 9422TIP3   OH228222   3.696   5.521   0.470 -0.4233  0.2953 -0.4517
 9422TIP3    H128223   3.629   5.580   0.504 -0.3541  0.3745 -0.4525
 9422TIP3    H228224   3.764   5.521   0.537 -1.1513 -1.0695  0.3348
 9423TIP3   OH228225   6.266   7.497   5.794 -0.0043  0.2504 -0.1203
 9423TIP3    H128226   6.246   7.566   5.857 -0.4971 -2.0312  2.3738
 9423TIP3    H228227   6.355   7.517   5.765 -1.1500  3.5701 -1.9063
 9424TIP3   OH228228   0.135   3.082   0.733 -0.6144 -0.0802 -0.1845
 9424TIP3    H128229   0.143   3.163   0.682 -2.4148  1.4638  1.8189
 9424TIP3    H228230   0.186   3.097   0.812  0.5694 -1.7055 -0.5674
 9425TIP3   OH228231   7.916   7.781   0.814  0.3056 -0.4081 -0.3242
 9425TIP3    H128232   7.880   7.716   0.875  0.8989 -0.9641 -0.5586
 9425TIP3    H228233   7.899   7.744   0.727  0.2827 -0.0533 -0.4712
 9426TIP3   OH228234   3.998   1.994   3.504 -0.3168 -0.3196  0.0006
 9426TIP3    H128235   4.093   1.998   3.488 -0.4456 -1.4334 -1.2839
 9426TIP3    H228236   3.980   2.068   3.561  0.9093  1.6314 -1.9499
 9427TIP3   OH228237   3.909   6.072   2.934  0.3551 -0.7668  0.2259
 9427TIP3    H128238   3.994   6.081   2.891 -0.3722  2.3099 -0.8083
 9427TIP3    H228239   3.853   6.030   2.869  0.5375 -0.8999  0.1532
 9428TIP3   OH228240   0.873   4.773   1.031  0.1105 -0.3650  0.7963
 9428TIP3    H128241   0.842   4.752   1.119  1.5327 -3.8567  0.6318
 9428TIP3    H228242   0.969   4.776   1.040  0.3211 -1.5240 -0.7293
 9429TIP3   OH228243   4.155   1.767   3.997 -0.2851  1.0305 -0.4934
 9429TIP3    H128244   4.064   1.736   3.997 -0.0582  0.2706  1.2734
 9429TIP3    H228245   4.162   1.818   3.916 -1.7544 -0.4197 -1.6256
 9430TIP3   OH228246   2.618   7.240   1.000  0.1095 -0.4281 -0.3955
 9430TIP3    H128247   2.672   7.263   0.924 -1.3887 -0.8427 -1.6423
 9430TIP3    H228248   2.601   7.324   1.044  0.7205 -0.1435 -0.6875
 9431TIP3   OH228249   4.566   1.873   4.667 -0.4651  0.2037 -0.6063
 9431TIP3    H128250   4.487   1.901   4.621  0.4495  3.1957 -0.5642
 9431TIP3    H228251   4.538   1.861   4.758 -0.7971  1.9312 -0.4500
 9432TIP3   OH228252   3.323   6.140   0.501  0.0455 -0.0528  0.1877
 9432TIP3    H128253   3.352   6.159   0.590 -1.0762  0.8915  0.3816
 9432TIP3    H228254   3.242   6.089   0.512 -0.1592  0.1584 -0.2851
 9433TIP3   OH228255   2.525   3.294   3.779  0.4190  0.3243 -0.1534
 9433TIP3    H128256   2.515   3.382   3.743  2.0661  1.0779  1.1004
 9433TIP3    H228257   2.565   3.243   3.708 -2.8421 -0.2065 -1.8120
 9434TIP3   OH228258   3.629   4.418   5.791  0.3574  0.2804  0.4969
 9434TIP3    H128259   3.598   4.439   5.703  0.7701  1.5204  0.6211
 9434TIP3    H228260   3.607   4.495   5.844  0.9733 -0.0401  1.2524
 9435TIP3   OH228261   8.205   7.041   1.009  0.0375 -0.2155 -0.6222
 9435TIP3    H128262   8.190   7.052   0.916 -1.3854 -2.1531 -0.6740
 9435TIP3    H228263   8.162   7.117   1.049 -0.0007  0.2225 -1.4662
 9436TIP3   OH228264   7.607   6.112   2.689  0.2190 -0.3267 -0.1334
 9436TIP3    H128265   7.556   6.059   2.750  1.2402 -0.0097  1.0476
 9436TIP3    H228266   7.692   6.067   2.684  0.5862  0.3716 -0.3062
 9437TIP3   OH228267   0.236   1.335   4.555  0.0938  0.7398  0.4076
 9437TIP3    H128268   0.301   1.406   4.546 -0.0210  0.6997 -0.8544
 9437TIP3    H228269   0.152   1.377   4.539 -0.1950  0.7245  1.7401
 9438TIP3   OH228270   0.928   3.213   1.635 -0.2262  0.1880  0.1861
 9438TIP3    H128271   0.957   3.291   1.587  2.0258 -0.7410 -0.1086
 9438TIP3    H228272   0.889   3.157   1.568  0.9662 -0.1978 -0.2220
 9439TIP3   OH228273   7.409   2.311   0.236 -0.3035  0.1907  0.1815
 9439TIP3    H128274   7.400   2.384   0.174  0.7436  0.4658  0.3346
 9439TIP3    H228275   7.478   2.256   0.199 -1.9234 -1.4192 -0.5696
 9440TIP3   OH228276   1.588   7.770   2.808 -0.4701 -0.5127  0.0070
 9440TIP3    H128277   1.660   7.744   2.866  1.3038  1.0045 -1.4089
 9440TIP3    H228278   1.605   7.862   2.789 -2.2629 -0.3852 -1.1757
 9441TIP3   OH228279   2.321   0.841   5.393  0.0404  0.4506 -0.0868
 9441TIP3    H128280   2.396   0.827   5.336 -0.2352  1.0952 -0.6190
 9441TIP3    H228281   2.352   0.817   5.480  0.0162 -2.0264 -0.6977
 9442TIP3   OH228282   0.322   7.483   6.202  0.1934  0.2085 -0.4399
 9442TIP3    H128283   0.270   7.417   6.157  1.1987 -1.3542  0.5921
 9442TIP3    H228284   0.315   7.561   6.146 -0.4805 -0.9434 -2.0535
 9443TIP3   OH228285   6.676   7.087   0.796 -0.2076 -0.6424 -0.1666
 9443TIP3    H128286   6.643   7.031   0.866  0.4403  0.5856  1.1850
 9443TIP3    H228287   6.600   7.139   0.770 -0.2841 -0.5748  0.1789
 9444TIP3   OH228288   3.963   4.574   2.121  0.8294  0.9747  0.1904
 9444TIP3    H128289   3.903   4.644   2.097 -0.9407 -0.5453 -0.0142
 9444TIP3    H228290   3.953   4.565   2.216 -0.2882 -0.1401 -0.0137
 9445TIP3   OH228291   3.680   7.436   1.708 -0.2772 -0.4106  0.3376
 9445TIP3    H128292   3.632   7.455   1.788  2.6536 -0.6624  2.2890
 9445TIP3    H228293   3.729   7.356   1.727  3.5158  1.5579 -0.1124
 9446TIP3   OH228294   6.686   6.977   2.676 -0.0304  0.1713 -0.8148
 9446TIP3    H128295   6.691   7.056   2.622  0.7981 -0.1158 -1.1661
 9446TIP3    H228296   6.685   6.905   2.613 -0.0387 -0.1325 -0.4714
 9447TIP3   OH228297   1.692   4.675   3.598  0.3430 -0.1111 -0.4445
 9447TIP3    H128298   1.721   4.658   3.508 -0.9952 -0.1314 -0.8951
 9447TIP3    H228299   1.717   4.597   3.647  2.4086  0.4849 -0.4261
 9448TIP3   OH228300   0.022   5.480   2.068 -0.7576  0.0793  0.1966
 9448TIP3    H128301  -0.000   5.389   2.087  0.9967 -0.4790 -0.2326
 9448TIP3    H228302   0.006   5.489   1.974 -1.6902  0.4660  0.3825
 9449TIP3   OH228303   0.869   3.739   2.941  0.0143  0.0472  0.0046
 9449TIP3    H128304   0.777   3.714   2.946 -0.2892  0.9247 -0.9909
 9449TIP3    H228305   0.916   3.664   2.977 -1.1649  0.2594  2.2064
 9450TIP3   OH228306   4.223   3.567   2.519  0.8041 -0.4162 -0.3182
 9450TIP3    H128307   4.250   3.476   2.531  1.7025 -0.5085 -2.5411
 9450TIP3    H228308   4.130   3.567   2.540  1.2248 -1.3616  1.7661
 9451TIP3   OH228309   5.777   6.531   6.713 -0.3049 -0.0521 -0.3468
 9451TIP3    H128310   5.714   6.601   6.732  0.1124 -0.4114  3.1134
 9451TIP3    H228311   5.841   6.538   6.784  0.2352 -3.3873 -0.3643
 9452TIP3   OH228312   2.356   3.514   5.759 -0.2950 -0.0395  0.3487
 9452TIP3    H128313   2.306   3.477   5.832 -0.2092  0.3337  0.6014
 9452TIP3    H228314   2.306   3.591   5.733 -0.3468 -0.1958 -0.0170
 9453TIP3   OH228315   0.904   5.671   4.847 -1.1809  0.5735 -0.3269
 9453TIP3    H128316   0.967   5.631   4.907 -1.1798 -0.7095 -1.1315
 9453TIP3    H228317   0.924   5.764   4.849  0.0157  0.3187  0.2585
 9454TIP3   OH228318   7.924   2.098   4.517 -0.0370 -0.6903  0.3139
 9454TIP3    H128319   7.865   2.074   4.446  0.9728 -1.2458 -0.3625
 9454TIP3    H228320   7.867   2.107   4.594 -0.9858 -1.2480 -0.3107
 9455TIP3   OH228321   2.603   3.508   3.212 -0.1482 -0.5376 -0.0803
 9455TIP3    H128322   2.635   3.565   3.282  0.1750 -1.4945  0.5798
 9455TIP3    H228323   2.657   3.529   3.136 -0.1655  0.1646  0.1010
 9456TIP3   OH228324   3.671   2.413   5.150  0.0810 -0.5559  0.2426
 9456TIP3    H128325   3.692   2.330   5.192  0.9066  0.6425  2.3154
 9456TIP3    H228326   3.576   2.422   5.161  0.0114 -1.1236  0.1498
 9457TIP3   OH228327   0.251   2.829   4.869 -0.3939 -0.1156  0.0536
 9457TIP3    H128328   0.223   2.905   4.919 -1.9349 -1.9127  2.1453
 9457TIP3    H228329   0.203   2.835   4.787 -0.1853  1.3346  0.0179
 9458TIP3   OH228330   3.975   6.020   6.094 -0.4636  0.0138 -0.3316
 9458TIP3    H128331   4.019   5.960   6.155  0.8254  0.8714 -0.3688
 9458TIP3    H228332   3.956   6.097   6.147 -1.0320  0.0524 -0.5816
 9459TIP3   OH228333   2.465   2.980   5.128  0.0810 -0.1061 -0.1512
 9459TIP3    H128334   2.415   2.936   5.060 -0.5387 -1.9106  1.3884
 9459TIP3    H228335   2.472   3.071   5.098 -1.2352 -0.5561 -1.9818
 9460TIP3   OH228336   3.176   1.923   3.845  0.1065 -0.4756 -0.6812
 9460TIP3    H128337   3.198   2.010   3.813  1.3477 -0.1046  1.0521
 9460TIP3    H228338   3.249   1.899   3.902  0.0626 -2.8965 -1.5103
 9461TIP3   OH228339   1.286   3.418   6.701  0.1196 -0.0363  0.0478
 9461TIP3    H128340   1.304   3.340   6.650  1.3299  1.0901 -1.3111
 9461TIP3    H228341   1.363   3.430   6.756  0.3241  0.6844 -0.3883
 9462TIP3   OH228342   3.332   0.682   3.394  0.5061  0.4418 -0.3963
 9462TIP3    H128343   3.329   0.722   3.481 -1.2417  2.3206 -1.2473
 9462TIP3    H228344   3.256   0.625   3.392  0.8112  0.0397 -0.5452
 9463TIP3   OH228345   7.551   7.745   5.863  0.1843 -0.4328 -0.2262
 9463TIP3    H128346   7.464   7.781   5.850 -0.0262 -0.6126  0.5715
 9463TIP3    H228347   7.535   7.657   5.898  0.6830 -0.3933  0.1144
 9464TIP3   OH228348   7.859   2.161   0.197  0.4136  0.5660 -0.0899
 9464TIP3    H128349   7.877   2.089   0.137 -1.5854  0.0669 -0.1623
 9464TIP3    H228350   7.823   2.230   0.141  0.5611  0.9105  0.2352
 9465TIP3   OH228351   3.525   1.435   4.710  0.5959  0.1638  0.0897
 9465TIP3    H128352   3.569   1.469   4.632 -0.4270 -1.0325 -1.0720
 9465TIP3    H228353   3.477   1.358   4.679  0.2549 -0.4305  1.9434
 9466TIP3   OH228354   6.013   6.641   6.063 -0.6201 -0.4124  0.4443
 9466TIP3    H128355   6.002   6.548   6.080 -0.7982 -0.2383  1.3255
 9466TIP3    H228356   6.085   6.646   6.000 -1.5297 -1.2178 -0.6792
 9467TIP3   OH228357   0.596   1.713   5.476  0.1329 -0.3177  0.4946
 9467TIP3    H128358   0.667   1.682   5.533 -0.1935 -0.7448  0.6684
 9467TIP3    H228359   0.605   1.808   5.477  0.9260 -0.3745  0.2319
 9468TIP3   OH228360   0.003   5.067   1.815  0.0239 -0.6009  0.2229
 9468TIP3    H128361   0.029   5.155   1.841  0.6046 -0.5097 -0.6413
 9468TIP3    H228362   0.006   5.016   1.896  2.9053 -0.5938  0.1936
 9469TIP3   OH228363   6.121   6.327   4.529  0.2358 -0.0654  0.3605
 9469TIP3    H128364   6.135   6.233   4.519  2.2457  0.1720  0.5635
 9469TIP3    H228365   6.147   6.364   4.445 -0.2083  0.3468  0.4018
 9470TIP3   OH228366   2.507   2.668   2.910  0.1547 -0.5160 -0.4095
 9470TIP3    H128367   2.436   2.615   2.947 -0.0158 -0.3530 -0.5017
 9470TIP3    H228368   2.502   2.751   2.957  1.5022 -1.1518  0.9630
 9471TIP3   OH228369   0.854   3.889   4.502  0.3317  0.7653  0.7530
 9471TIP3    H128370   0.888   3.849   4.422 -0.3183  0.2194  0.7392
 9471TIP3    H228371   0.882   3.831   4.572 -1.4776 -0.3141  0.6353
 9472TIP3   OH228372   5.957   2.327   4.759 -0.2319  0.0528 -0.0675
 9472TIP3    H128373   5.938   2.300   4.669 -1.2872  0.3299  0.0484
 9472TIP3    H228374   5.919   2.258   4.813  0.2463 -0.0266  0.1641
 9473TIP3   OH228375   0.183   2.513   5.652 -0.4844  0.3532 -0.5155
 9473TIP3    H128376   0.230   2.508   5.568  3.0060  4.0386  0.8945
 9473TIP3    H228377   0.250   2.499   5.718 -2.5902  0.2145  1.7417
 9474TIP3   OH228378   3.161   4.399   3.498  0.2166  0.4488 -0.2695
 9474TIP3    H128379   3.248   4.434   3.519  0.5082  0.8346 -2.0085
 9474TIP3    H228380   3.177   4.311   3.464 -0.2498 -0.1587  0.9948
 9475TIP3   OH228381   1.171   5.466   0.181  0.3992 -0.1979 -0.1609
 9475TIP3    H128382   1.078   5.466   0.203  0.8020  0.9458  1.8198
 9475TIP3    H228383   1.196   5.374   0.183 -0.6911 -0.5263 -0.7904
 9476TIP3   OH228384   0.587   2.314   0.709 -0.0408 -0.1993 -0.5649
 9476TIP3    H128385   0.521   2.305   0.641 -0.4387  0.4566 -0.2841
 9476TIP3    H228386   0.665   2.345   0.663 -0.4384  0.6704 -0.6739
 9477TIP3   OH228387   4.064   7.566   6.123 -0.4399 -0.3866 -0.3610
 9477TIP3    H128388   4.134   7.564   6.058 -0.1227 -1.2763  0.0020
 9477TIP3    H228389   4.096   7.513   6.195 -0.9868  0.2024  0.3346
 9478TIP3   OH228390   5.173   0.321   0.412 -0.2020 -0.6419 -0.2266
 9478TIP3    H128391   5.168   0.239   0.362  0.1235  0.0459 -1.4293
 9478TIP3    H228392   5.147   0.296   0.500 -1.2295 -1.8204 -0.8249
 9479TIP3   OH228393   8.290   1.559   5.649  0.4415  0.3359  0.2402
 9479TIP3    H128394   8.324   1.501   5.716  1.1769  0.3958 -0.0761
 9479TIP3    H228395   8.249   1.631   5.698 -1.3954 -0.9285  0.6513
 9480TIP3   OH228396   3.833   5.005   1.110  0.4328  0.3963  0.2917
 9480TIP3    H128397   3.890   4.971   1.179 -1.3973  0.0486  1.6728
 9480TIP3    H228398   3.880   5.082   1.076  0.8391  1.2844  2.7111
 9481TIP3   OH228399   2.570   2.407   4.433 -0.0669  0.1951 -0.0378
 9481TIP3    H128400   2.581   2.315   4.413 -1.3561  0.0545 -0.2005
 9481TIP3    H228401   2.649   2.431   4.481 -0.2967 -1.3261  1.1783
 9482TIP3   OH228402   5.908   3.295   1.810 -0.5007 -0.4104 -0.0824
 9482TIP3    H128403   5.853   3.226   1.848 -2.2210  0.5816 -0.6747
 9482TIP3    H228404   5.866   3.316   1.726  1.0569  0.0824 -0.7794
 9483TIP3   OH228405   2.663   0.321   2.121 -0.3696  0.5282 -0.3247
 9483TIP3    H128406   2.644   0.383   2.191 -1.5590 -1.4120  1.1943
 9483TIP3    H228407   2.742   0.274   2.150 -1.6798 -1.2790  0.5384
 9484TIP3   OH228408   3.103   6.881   2.270 -0.1236  0.4500  0.7512
 9484TIP3    H128409   3.157   6.870   2.192 -1.7665  2.3110 -0.7319
 9484TIP3    H228410   3.014   6.862   2.240 -1.0388  2.9885  1.6510
 9485TIP3   OH228411   6.745   3.753   6.157 -0.2710  0.5603  0.7850
 9485TIP3    H128412   6.716   3.679   6.211  1.3032 -0.3466  0.4693
 9485TIP3    H228413   6.669   3.810   6.151 -0.7302  0.3182  3.3147
 9486TIP3   OH228414   1.467   2.586   3.721 -0.7403  0.2274 -0.1442
 9486TIP3    H128415   1.451   2.492   3.722 -0.8832  0.2340 -0.9776
 9486TIP3    H228416   1.558   2.595   3.748 -0.7107 -0.1546 -0.1098
 9487TIP3   OH228417   0.235   3.849   4.130  0.3885 -0.2138  0.1398
 9487TIP3    H128418   0.330   3.859   4.126  0.2644  2.0140  1.0968
 9487TIP3    H228419   0.201   3.916   4.070 -0.5716 -0.1825  0.6992
 9488TIP3   OH228420   3.929   0.424   6.438 -0.1660 -0.3542  0.2115
 9488TIP3    H128421   3.946   0.332   6.456 -0.4199 -0.3712  0.3830
 9488TIP3    H228422   3.941   0.434   6.344  1.0775 -0.2937  0.3598
 9489TIP3   OH228423   6.657   7.693   4.358 -0.6335 -0.1619 -0.4828
 9489TIP3    H128424   6.666   7.769   4.415 -0.7544 -0.4975 -0.0032
 9489TIP3    H228425   6.569   7.701   4.321 -0.7348 -0.1817 -0.2537
 9490TIP3   OH228426   4.392   5.645   1.606  0.4389 -0.1412 -0.1961
 9490TIP3    H128427   4.409   5.587   1.681  1.5636  1.4339  0.8607
 9490TIP3    H228428   4.480   5.671   1.577 -0.0209 -0.0111 -1.4954
 9491TIP3   OH228429   4.131   3.765   4.086  0.4151 -0.0347 -0.7891
 9491TIP3    H128430   4.104   3.812   4.006  1.3681  0.9355 -0.5674
 9491TIP3    H228431   4.172   3.685   4.054 -3.8455 -2.3743 -1.1318
 9492TIP3   OH228432   2.677   4.016   1.072 -0.3313  0.0915 -0.0353
 9492TIP3    H128433   2.617   3.943   1.093  0.3986 -0.5776 -0.2289
 9492TIP3    H228434   2.658   4.036   0.981 -0.1718 -0.2046 -0.1341
 9493TIP3   OH228435   5.416   4.403   5.676 -0.0473 -0.2190  0.6630
 9493TIP3    H128436   5.466   4.451   5.610 -0.1076  0.4770  1.1154
 9493TIP3    H228437   5.444   4.312   5.665  0.2267 -0.0571 -0.0626
 9494TIP3   OH228438   0.883   5.386   6.327  0.5242 -0.0749  0.3908
 9494TIP3    H128439   0.852   5.462   6.376 -0.5163  0.2251 -0.6787
 9494TIP3    H228440   0.804   5.334   6.311  0.6731  0.1801 -1.5165
 9495TIP3   OH228441   5.043   4.993   4.326 -0.3522 -0.0636 -0.0697
 9495TIP3    H128442   4.949   4.975   4.336 -0.2933  0.5384  2.0838
 9495TIP3    H228443   5.048   5.088   4.317  0.0870 -0.0542  0.2882
 9496TIP3   OH228444   5.430   5.412   3.670 -0.0356  0.4515 -0.0810
 9496TIP3    H128445   5.488   5.432   3.597  1.7147  0.5682  1.2692
 9496TIP3    H228446   5.445   5.482   3.733 -2.2256  0.8800  0.0316
 9497TIP3   OH228447   6.911   1.527   0.332  0.1374  0.0474  0.5124
 9497TIP3    H128448   6.928   1.433   0.331  1.0029  0.1241  3.0366
 9497TIP3    H228449   6.915   1.552   0.239  2.4587 -1.9538 -0.0440
 9498TIP3   OH228450   7.422   0.880   4.636 -0.4790 -0.1290 -0.0384
 9498TIP3    H128451   7.437   0.942   4.707  0.0486  1.6431 -1.6305
 9498TIP3    H228452   7.437   0.794   4.676  1.1466  0.8679  1.6516
 9499TIP3   OH228453   4.062   2.094   6.473  0.1236  0.2612  0.1084
 9499TIP3    H128454   3.992   2.113   6.410  1.0321 -1.1082 -1.4093
 9499TIP3    H228455   4.086   2.179   6.509 -0.5986  1.0787 -1.2462
 9500TIP3   OH228456   6.320   0.392   3.014 -0.2038 -0.1253  0.7540
 9500TIP3    H128457   6.350   0.469   2.966  0.3070 -1.0750 -0.5002
 9500TIP3    H228458   6.335   0.415   3.106  2.3997  0.3100  0.3232
 9501TIP3   OH228459   6.637   2.643   5.636 -0.3373 -0.0534 -0.6014
 9501TIP3    H128460   6.697   2.642   5.710 -0.4275 -2.2039 -0.4990
 9501TIP3    H228461   6.693   2.656   5.559 -0.2459  2.1752 -0.2251
 9502TIP3   OH228462   5.119   4.467   2.313  0.8422  0.8618 -0.0762
 9502TIP3    H128463   5.079   4.393   2.359  2.9915 -0.2188  0.1820
 9502TIP3    H228464   5.069   4.474   2.231 -0.5648  0.3435  0.6995
 9503TIP3   OH228465   6.914   5.484   4.234 -0.1417 -0.0052 -0.1134
 9503TIP3    H128466   7.005   5.467   4.258  0.0005  0.2316 -0.4651
 9503TIP3    H228467   6.920   5.534   4.152 -0.5927 -0.2150 -0.2786
 9504TIP3   OH228468   7.032   3.714   4.668  0.0141 -0.1087  0.2911
 9504TIP3    H128469   6.984   3.774   4.726  2.7689  1.6291  0.9707
 9504TIP3    H228470   6.982   3.714   4.587 -1.1953  1.5123  0.9766
 9505TIP3   OH228471   2.084   2.116   2.961  0.1835  0.2635 -0.3317
 9505TIP3    H128472   2.067   2.209   2.970  0.2506  0.5834 -2.7062
 9505TIP3    H228473   2.173   2.103   2.994  0.8129  1.3945 -1.4973
 9506TIP3   OH228474   0.786   6.383   5.784 -0.1732  0.5511  0.4593
 9506TIP3    H128475   0.709   6.354   5.734  0.1003  1.5890 -0.6162
 9506TIP3    H228476   0.790   6.324   5.859  0.4003 -2.2473 -1.6232
 9507TIP3   OH228477   5.988   6.947   0.943  0.5955  0.4193 -0.2294
 9507TIP3    H128478   6.015   6.869   0.992 -0.6342 -0.8226 -1.4484
 9507TIP3    H228479   6.024   6.934   0.855 -0.7312  0.5396 -0.8230
 9508TIP3   OH228480   1.118   3.417   3.734  0.5731  0.3198  0.4024
 9508TIP3    H128481   1.138   3.404   3.826 -0.8002 -1.7366  0.4830
 9508TIP3    H228482   1.120   3.329   3.696 -1.2861  0.7886 -0.9661
 9509TIP3   OH228483   7.970   1.591   1.269  0.0897 -0.1467  0.0382
 9509TIP3    H128484   7.904   1.531   1.303 -0.2474 -1.1266 -2.1871
 9509TIP3    H228485   8.045   1.535   1.247 -0.2810  0.1372 -2.2285
 9510TIP3   OH228486   7.472   6.193   0.386 -0.2593  0.4357  0.1260
 9510TIP3    H128487   7.408   6.254   0.424 -0.1524  0.6273  0.0025
 9510TIP3    H228488   7.435   6.169   0.301  0.8847  2.3299 -0.9804
 9511TIP3   OH228489   6.377   1.335   1.509 -0.2035 -0.1950  0.5915
 9511TIP3    H128490   6.316   1.366   1.442  0.3752 -0.1784  0.0604
 9511TIP3    H228491   6.394   1.244   1.486  2.7298  0.7038 -1.4497
 9512TIP3   OH228492   3.389   4.969   3.166  0.0821  0.0444 -0.4714
 9512TIP3    H128493   3.425   4.924   3.243  1.8445  1.2978 -0.5133
 9512TIP3    H228494   3.298   4.988   3.191 -0.1632 -1.8392  0.2571
 9513TIP3   OH228495   0.836   4.033   0.226 -0.4007  0.4334 -0.0528
 9513TIP3    H128496   0.777   4.107   0.216 -1.1778 -0.1646  0.0073
 9513TIP3    H228497   0.795   3.978   0.293 -0.2234 -0.4142 -0.6172
 9514TIP3   OH228498   6.630   0.578   2.527 -0.0859 -0.6110  0.1644
 9514TIP3    H128499   6.603   0.495   2.489 -1.6897 -0.2283  0.3995
 9514TIP3    H228500   6.553   0.635   2.520  1.0806  1.0000 -0.3533
 9515TIP3   OH228501   3.250   4.028   5.486 -0.4831 -0.4680 -0.4744
 9515TIP3    H128502   3.232   4.109   5.534  0.0645  0.2215 -1.4256
 9515TIP3    H228503   3.174   3.972   5.506  0.3198 -0.7427  2.2771
 9516TIP3   OH228504   4.908   7.144   6.301  0.1228 -1.0691 -1.2803
 9516TIP3    H128505   4.827   7.096   6.318 -0.7547  0.4926 -0.8556
 9516TIP3    H228506   4.957   7.140   6.384 -2.1666  2.7884  0.5394
 9517TIP3   OH228507   6.579   2.117   6.578  0.0842  0.1839  0.2037
 9517TIP3    H128508   6.657   2.169   6.599  0.5073 -0.6847  0.8880
 9517TIP3    H228509   6.528   2.173   6.520  2.9872 -0.5774 -3.4964
 9518TIP3   OH228510   5.193   5.388   4.930  0.2322  0.4028  0.1056
 9518TIP3    H128511   5.100   5.363   4.922 -0.3996  2.0740  1.6669
 9518TIP3    H228512   5.240   5.304   4.930 -1.0080 -0.4435 -2.8624
 9519TIP3   OH228513   0.378   6.523   1.487  0.0133 -0.4866 -0.0724
 9519TIP3    H128514   0.394   6.523   1.582 -1.9741 -0.3118  0.3060
 9519TIP3    H228515   0.395   6.614   1.461  0.5199 -0.5219  0.1198
 9520TIP3   OH228516   0.904   1.604   3.195  0.2112 -0.2202 -0.1106
 9520TIP3    H128517   0.844   1.534   3.221  1.5108 -0.7975  1.5168
 9520TIP3    H228518   0.991   1.563   3.198  0.7032  0.4308 -2.9792
 9521TIP3   OH228519   6.467   5.185   4.497 -0.0280 -0.4916  0.0172
 9521TIP3    H128520   6.529   5.132   4.446  1.3873  2.2469 -1.2874
 9521TIP3    H228521   6.511   5.198   4.581 -0.8208 -2.0827  0.7326
 9522TIP3   OH228522   4.745   3.712   4.155  0.2787  0.5371 -0.0760
 9522TIP3    H128523   4.661   3.716   4.108  0.0653  3.3974  0.3694
 9522TIP3    H228524   4.794   3.642   4.111 -1.9998 -0.6717 -0.8697
 9523TIP3   OH228525   3.881   1.169   4.730 -0.1599 -0.2279  0.0315
 9523TIP3    H128526   3.919   1.165   4.642  0.7460  1.3415  0.3026
 9523TIP3    H228527   3.953   1.202   4.785 -1.1279  0.1608  1.0953
 9524TIP3   OH228528   6.411   2.905   4.650 -0.9505 -0.1782  0.3712
 9524TIP3    H128529   6.333   2.951   4.679 -0.7174 -0.8901  2.2906
 9524TIP3    H228530   6.482   2.940   4.704 -0.3302 -1.0603  0.1664
 9525TIP3   OH228531   5.994   6.774   4.799  0.0428  0.7081  0.6687
 9525TIP3    H128532   6.049   6.718   4.745 -0.2587  1.7540 -0.7826
 9525TIP3    H228533   6.056   6.827   4.849  0.3467  0.7966  0.2020
 9526TIP3   OH228534   7.900   5.995   0.960 -0.0147 -0.5089 -0.0681
 9526TIP3    H128535   7.833   6.025   0.899  0.4529  1.6657  0.3794
 9526TIP3    H228536   7.981   6.035   0.927  0.7664 -1.6793  0.3679
 9527TIP3   OH228537   6.134   5.642   6.321  0.5241 -0.0374 -0.2685
 9527TIP3    H128538   6.119   5.622   6.229  0.1092  1.3472 -0.5240
 9527TIP3    H228539   6.133   5.557   6.365 -2.9546 -0.5105 -0.9853
 9528TIP3   OH228540   0.997   1.924   5.881 -0.3975  0.1902  0.8015
 9528TIP3    H128541   1.067   1.924   5.947 -0.4354 -0.1388  0.8420
 9528TIP3    H228542   1.041   1.900   5.800 -0.1237  1.7199  0.4530
 9529TIP3   OH228543   2.312   3.968   5.469 -0.3295  0.0041 -0.1230
 9529TIP3    H128544   2.294   4.058   5.495  1.5668 -0.3575  2.8167
 9529TIP3    H228545   2.404   3.967   5.445 -0.9247 -0.7113 -2.8243
 9530TIP3   OH228546   7.714   5.663   1.980  0.3392 -0.1930  0.0210
 9530TIP3    H128547   7.681   5.665   1.890  1.3578  1.7473 -0.3659
 9530TIP3    H228548   7.806   5.638   1.971  0.0752 -1.5059  0.7067
 9531TIP3   OH228549   3.560   6.953   6.742 -0.0350  0.2424 -0.1036
 9531TIP3    H128550   3.521   6.967   6.655  0.1494 -0.5322 -0.3185
 9531TIP3    H228551   3.485   6.931   6.798  0.0320 -0.8285 -0.4236
 9532TIP3   OH228552   6.260   0.846   2.631  0.0686  0.2358  0.7398
 9532TIP3    H128553   6.226   0.767   2.673 -1.5800  0.4908 -0.0049
 9532TIP3    H228554   6.183   0.884   2.587  1.5872  0.1576 -2.2451
 9533TIP3   OH228555   1.982   2.461   3.386  0.2249  0.2058  0.3142
 9533TIP3    H128556   1.926   2.385   3.407 -1.4719  1.4036  0.3656
 9533TIP3    H228557   1.983   2.463   3.290  0.0930  0.2316  0.3125
 9534TIP3   OH228558   4.978   5.002   0.103  0.1431 -0.6677  0.2262
 9534TIP3    H128559   4.981   4.909   0.126 -2.5289 -1.4340 -1.9123
 9534TIP3    H228560   5.014   5.006   0.015 -0.8218  0.1053 -0.1500
 9535TIP3   OH228561   2.792   5.323   0.533  0.6102 -0.5781 -0.3400
 9535TIP3    H128562   2.705   5.360   0.547  0.1212 -1.7905 -0.0176
 9535TIP3    H228563   2.788   5.285   0.445  1.1520  0.2367 -0.7261
 9536TIP3   OH228564   5.879   1.207   5.317  0.0824 -0.0522  0.0702
 9536TIP3    H128565   5.823   1.170   5.249  1.1151 -0.2791 -0.6790
 9536TIP3    H228566   5.840   1.178   5.400 -1.0027 -0.0390 -0.4216
 9537TIP3   OH228567   4.806   7.426   6.596  0.3256 -0.3239  1.2403
 9537TIP3    H128568   4.898   7.399   6.588  0.2374 -0.0856 -1.8598
 9537TIP3    H228569   4.757   7.345   6.606  0.7596 -0.5258  1.7912
 9538TIP3   OH228570   1.009   0.735   3.356  0.2417 -0.1552 -0.0478
 9538TIP3    H128571   1.005   0.640   3.343  1.5441 -0.3172  0.5077
 9538TIP3    H228572   1.093   0.749   3.400 -0.5095  1.1299  1.0338
 9539TIP3   OH228573   8.197   5.268   5.759 -0.2004 -0.8160  0.3276
 9539TIP3    H128574   8.218   5.342   5.701  0.3298 -1.7105 -0.6821
 9539TIP3    H228575   8.138   5.304   5.824  0.3890  0.6018  0.1262
 9540TIP3   OH228576   4.524   6.962   0.664  0.0774  0.0846  0.5307
 9540TIP3    H128577   4.449   6.903   0.660  0.3527 -0.3167  1.1214
 9540TIP3    H228578   4.549   6.975   0.572 -0.2632 -0.3609  0.3731
 9541TIP3   OH228579   1.369   4.494   1.060 -0.3213 -0.5662 -0.2671
 9541TIP3    H128580   1.389   4.402   1.047 -0.3346 -0.4569 -1.1502
 9541TIP3    H228581   1.405   4.538   0.982 -1.3466  0.0047 -0.4418
 9542TIP3   OH228582   3.022   4.883   4.621  0.1365  0.2661 -0.3545
 9542TIP3    H128583   3.068   4.899   4.703 -0.5054 -0.8819  0.2645
 9542TIP3    H228584   2.971   4.962   4.606  2.4496  1.6842 -1.2080
 9543TIP3   OH228585   5.973   1.185   2.623  0.0324  0.4521 -0.2173
 9543TIP3    H128586   5.903   1.178   2.558  0.0509  1.0109 -0.2973
 9543TIP3    H228587   5.929   1.175   2.707 -0.0861  0.3975 -0.2856
 9544TIP3   OH228588   6.642   1.908   2.872 -0.0817  0.0736 -0.3407
 9544TIP3    H128589   6.560   1.872   2.839 -0.0025  0.7417 -1.3361
 9544TIP3    H228590   6.616   1.968   2.941 -0.3669 -0.3000 -0.1205
 9545TIP3   OH228591   4.625   1.024   2.204 -0.3885 -0.3093 -0.0110
 9545TIP3    H128592   4.613   0.962   2.132 -0.9439  1.0803 -1.1595
 9545TIP3    H228593   4.537   1.048   2.231 -0.1966  0.6446 -0.1866
 9546TIP3   OH228594   0.460   6.524   2.174  0.4328  0.4206 -0.5299
 9546TIP3    H128595   0.421   6.444   2.207  1.4199 -0.0247 -0.3993
 9546TIP3    H228596   0.418   6.594   2.223  0.3442 -0.0933  0.1316
 9547TIP3   OH228597   8.173   6.581   4.363  0.4227  0.2204 -0.0011
 9547TIP3    H128598   8.096   6.621   4.324  1.0558  0.6470 -0.8658
 9547TIP3    H228599   8.153   6.487   4.365 -0.4147  0.3962  0.5215
 9548TIP3   OH228600   3.756   4.809   1.594 -0.6846 -0.2033 -0.0145
 9548TIP3    H128601   3.849   4.829   1.581 -1.1317  0.6826 -2.1157
 9548TIP3    H228602   3.740   4.832   1.686  1.1316 -0.2657  0.3613
 9549TIP3   OH228603   6.064   5.846   6.496 -0.2933  0.1124 -0.7218
 9549TIP3    H128604   5.971   5.828   6.511 -0.2066 -0.3091 -0.6622
 9549TIP3    H228605   6.087   5.791   6.421 -0.1438  0.3802 -0.8722
 9550TIP3   OH228606   7.331   6.053   0.143 -0.2567  0.7695 -0.5075
 9550TIP3    H128607   7.313   5.977   0.087  2.4599  0.4971 -1.1725
 9550TIP3    H228608   7.352   6.123   0.082  2.0127  0.6700  0.0587
 9551TIP3   OH228609   0.796   6.063   2.929  0.1832 -0.0774 -0.2745
 9551TIP3    H128610   0.752   6.061   2.844  1.7972 -1.4344 -1.1444
 9551TIP3    H228611   0.799   6.155   2.954 -0.5338  0.3073 -1.5804
 9552TIP3   OH228612   2.562   1.982   5.072  0.3373  0.0736  0.2186
 9552TIP3    H128613   2.526   2.024   4.995  1.7355  0.4151 -0.2834
 9552TIP3    H228614   2.563   2.051   5.139 -1.0082 -0.2611  0.6204
 9553TIP3   OH228615   3.484   7.529   5.134  0.7817  0.0094 -0.5584
 9553TIP3    H128616   3.538   7.452   5.120  0.9315  0.1102 -0.5371
 9553TIP3    H228617   3.543   7.593   5.175 -0.0476 -0.8359  2.1057
 9554TIP3   OH228618   2.688   3.935   6.403 -0.0127  0.0394 -0.4908
 9554TIP3    H128619   2.733   3.956   6.321 -0.5660 -0.6736 -0.9964
 9554TIP3    H228620   2.716   3.845   6.423 -1.9223 -0.7988 -1.3471
 9555TIP3   OH228621   3.606   0.541   1.536 -0.5380  0.0456  0.2589
 9555TIP3    H128622   3.532   0.551   1.476 -0.5092  0.8866  0.3639
 9555TIP3    H228623   3.605   0.619   1.590  1.3609  0.8474 -0.7615
 9556TIP3   OH228624   1.282   5.751   1.076 -0.3980  0.1091 -0.0005
 9556TIP3    H128625   1.289   5.831   1.129 -0.9567 -0.9747  1.7756
 9556TIP3    H228626   1.191   5.723   1.087 -0.2763 -0.6412 -0.8205
 9557TIP3   OH228627   8.029   5.542   3.163  0.1866  0.3258  0.1803
 9557TIP3    H128628   8.004   5.534   3.071  0.7128  1.6250 -0.0907
 9557TIP3    H228629   8.040   5.636   3.177  2.6606  0.0217  0.8575
 9558TIP3   OH228630   7.945   3.774   6.487  0.2095 -0.2455  0.1496
 9558TIP3    H128631   7.895   3.693   6.488 -0.7504  0.3336  0.9552
 9558TIP3    H228632   7.879   3.843   6.481  1.0036  0.4867 -0.4687
 9559TIP3   OH228633   2.756   4.630   1.638  0.4443 -0.5937  0.1003
 9559TIP3    H128634   2.747   4.625   1.543 -0.1545 -0.4473  0.1470
 9559TIP3    H228635   2.670   4.605   1.672  0.1300  0.9904  0.5557
 9560TIP3   OH228636   2.398   7.625   4.501 -0.0345  0.0573  0.1583
 9560TIP3    H128637   2.452   7.701   4.522  0.2811  0.4627 -1.9437
 9560TIP3    H228638   2.313   7.661   4.475 -0.9250 -0.5095  2.0811
 9561TIP3   OH228639   1.477   0.203   4.298  0.1269 -0.3270 -0.3133
 9561TIP3    H128640   1.472   0.126   4.354 -2.4583 -2.3421 -2.9872
 9561TIP3    H228641   1.436   0.273   4.349 -1.2478 -1.8174  0.7089
 9562TIP3   OH228642   5.694   1.518   6.450  0.1487 -0.0615  0.1274
 9562TIP3    H128643   5.704   1.507   6.355  3.0417 -0.2116  0.3345
 9562TIP3    H228644   5.629   1.452   6.475 -1.8962  1.0617 -1.8892
 9563TIP3   OH228645   2.874   1.204   5.201 -0.4291  0.1172 -0.3982
 9563TIP3    H128646   2.792   1.237   5.166  0.5454  0.4092 -2.5521
 9563TIP3    H228647   2.869   1.109   5.189 -0.6831  0.0785  0.0083
 9564TIP3   OH228648   4.262   2.289   3.716  0.1310 -0.1705  0.1991
 9564TIP3    H128649   4.345   2.326   3.685  0.1522  0.9927  1.5474
 9564TIP3    H228650   4.255   2.319   3.807 -0.8307 -1.8858  0.7237
 9565TIP3   OH228651   5.858   1.936   3.900 -0.4471  1.1242  0.2191
 9565TIP3    H128652   5.867   1.846   3.930 -1.2354  0.5179 -1.2458
 9565TIP3    H228653   5.857   1.988   3.980  1.4019 -0.0127  1.0310
 9566TIP3   OH228654   2.816   7.206   5.266  0.1369  0.7228  0.2801
 9566TIP3    H128655   2.791   7.142   5.199  1.4738 -0.4881  0.8648
 9566TIP3    H228656   2.744   7.204   5.329 -0.4264  0.7332 -0.3595
 9567TIP3   OH228657   5.993   5.866   1.971  0.5607  0.0750 -0.1634
 9567TIP3    H128658   5.928   5.834   2.034 -0.3911 -0.7098 -1.4935
 9567TIP3    H228659   5.965   5.955   1.950  1.6037  0.8181  1.4278
 9568TIP3   OH228660   4.450   6.737   2.709  0.6300 -0.2411  0.2728
 9568TIP3    H128661   4.437   6.827   2.738  0.7867  1.0609 -3.2270
 9568TIP3    H228662   4.425   6.683   2.784 -2.4481  2.6154  1.5100
 9569TIP3   OH228663   7.106   6.184   5.167 -0.1926  0.6003 -0.3144
 9569TIP3    H128664   7.028   6.158   5.216  1.2999  0.8923  2.4181
 9569TIP3    H228665   7.086   6.271   5.133 -0.6294  1.2375  1.4872
 9570TIP3   OH228666   5.799   5.282   4.562 -0.3192 -0.2503  0.1821
 9570TIP3    H128667   5.872   5.334   4.594 -0.6442  0.3708 -0.0746
 9570TIP3    H228668   5.764   5.239   4.640 -1.0561  1.1799  0.6663
 9571TIP3   OH228669   6.671   2.766   4.923 -0.4265 -0.4115 -0.1099
 9571TIP3    H128670   6.668   2.733   5.013 -1.3060 -0.6629 -0.2237
 9571TIP3    H228671   6.615   2.707   4.873 -1.1807  0.6066 -0.5203
 9572TIP3   OH228672   1.077   4.800   3.450 -0.1790 -0.0437 -0.1042
 9572TIP3    H128673   1.120   4.884   3.436 -1.7576  0.5214 -1.8066
 9572TIP3    H228674   1.117   4.741   3.386 -0.4644 -0.0720 -0.2568
 9573TIP3   OH228675   4.021   0.182   1.016  0.1695 -0.3451  0.5041
 9573TIP3    H128676   4.071   0.150   1.090  1.1676 -2.3004 -0.9441
 9573TIP3    H228677   3.956   0.114   0.999 -1.0957  0.8085  0.5341
 9574TIP3   OH228678   0.646   5.040   1.461 -0.2792 -0.1740 -0.1876
 9574TIP3    H128679   0.677   5.052   1.371 -1.6545  1.1636 -0.5334
 9574TIP3    H228680   0.599   5.121   1.481 -1.7388 -1.2545  1.0057
 9575TIP3   OH228681   2.897   0.833   5.070 -0.2637 -0.1820 -0.4177
 9575TIP3    H128682   2.898   0.859   5.162 -0.9528 -0.7444 -0.2441
 9575TIP3    H228683   2.877   0.740   5.071 -1.3387  0.0196 -1.1827
 9576TIP3   OH228684   6.031   0.238   0.546  0.1244  0.0939 -0.1090
 9576TIP3    H128685   5.968   0.306   0.525 -0.7723 -0.8927 -0.7300
 9576TIP3    H228686   5.987   0.156   0.524  1.6246 -0.6377 -0.5870
 9577TIP3   OH228687   3.127   7.598   5.876  0.5565 -0.0377  0.5251
 9577TIP3    H128688   3.051   7.656   5.887  0.9799  0.4784  0.7704
 9577TIP3    H228689   3.125   7.573   5.784  1.7994  2.4084 -0.2455
 9578TIP3   OH228690   4.937   2.336   3.555  0.0159 -0.7013 -0.0018
 9578TIP3    H128691   4.975   2.337   3.468  1.5170  0.9472  0.6144
 9578TIP3    H228692   5.012   2.333   3.615 -0.9385 -0.8367  1.2499
 9579TIP3   OH228693   4.914   1.994   2.855  0.3356  0.1599  0.2776
 9579TIP3    H128694   4.851   1.952   2.796  0.1796 -0.7592  1.0754
 9579TIP3    H228695   4.984   2.024   2.797 -0.2769  0.1565 -0.4868
 9580TIP3   OH228696   3.988   1.150   2.669 -0.1971 -0.0858 -0.1374
 9580TIP3    H128697   3.986   1.201   2.750  2.2939  2.7650 -1.6657
 9580TIP3    H228698   4.013   1.062   2.697  1.2398  0.9574  2.1926
 9581TIP3   OH228699   2.273   3.543   0.548  0.4717 -0.0798  0.1208
 9581TIP3    H128700   2.289   3.452   0.571 -2.7669 -0.5090  1.1754
 9581TIP3    H228701   2.260   3.542   0.453  0.4141 -0.7253  0.1299
 9582TIP3   OH228702   4.699   2.143   4.683  0.3835  0.2396 -0.1077
 9582TIP3    H128703   4.614   2.154   4.642  1.0376  0.6290 -1.4335
 9582TIP3    H228704   4.685   2.078   4.751 -1.0517  0.6138 -0.0223
 9583TIP3   OH228705   6.491   6.359   5.207 -0.0324 -0.3670  0.7376
 9583TIP3    H128706   6.407   6.317   5.191  0.1517 -0.8922  1.1339
 9583TIP3    H228707   6.555   6.300   5.167  0.2378 -0.5378  1.4082
 9584TIP3   OH228708   7.236   5.184   4.848 -0.7914  0.5041 -0.1595
 9584TIP3    H128709   7.271   5.116   4.791 -2.1181 -0.7040  0.4134
 9584TIP3    H228710   7.305   5.251   4.850 -0.3306  0.1991 -2.4427
 9585TIP3   OH228711   6.003   7.071   1.910 -0.1221 -0.1669  0.1823
 9585TIP3    H128712   6.017   7.165   1.894  0.5477 -0.2090  0.4951
 9585TIP3    H228713   5.926   7.049   1.857  0.6580  0.2107 -1.1696
 9586TIP3   OH228714   4.809   1.312   3.106 -0.3686  0.3505  0.4734
 9586TIP3    H128715   4.723   1.314   3.065 -0.3207  0.6204  0.3796
 9586TIP3    H228716   4.791   1.309   3.200 -0.5027 -2.6832  0.4313
 9587TIP3   OH228717   1.464   4.123   6.595  0.0613 -0.0158 -0.2599
 9587TIP3    H128718   1.515   4.139   6.674  0.6329  2.1400 -0.9983
 9587TIP3    H228719   1.442   4.030   6.599 -0.1131  0.0757  2.5105
 9588TIP3   OH228720   1.995   0.435   1.433  0.0983 -0.5107  0.2589
 9588TIP3    H128721   1.984   0.401   1.522 -3.2562  2.7545  1.4016
 9588TIP3    H228722   2.030   0.523   1.446 -3.6380  1.4144 -1.1281
 9589TIP3   OH228723   2.994   0.904   2.469 -0.3562  0.1087 -0.2797
 9589TIP3    H128724   3.084   0.936   2.479 -1.1411  2.1778  0.8572
 9589TIP3    H228725   2.974   0.918   2.376  0.3631 -0.0565 -0.4684
 9590TIP3   OH228726   2.587   0.883   2.358  0.1945 -0.3369  0.2982
 9590TIP3    H128727   2.512   0.889   2.299  0.3633  1.1731  0.1784
 9590TIP3    H228728   2.551   0.903   2.444  0.1505 -1.4028  0.5331
 9591TIP3   OH228729   3.186   2.501   4.814  0.7819  0.0730  0.1446
 9591TIP3    H128730   3.216   2.411   4.803  0.0202 -0.2217  0.4313
 9591TIP3    H228731   3.266   2.551   4.832  1.5834 -0.0923 -2.5278
 9592TIP3   OH228732   3.718   5.894   2.468 -0.1111  0.5529  0.4485
 9592TIP3    H128733   3.730   5.804   2.439  0.6088  0.6625  0.3789
 9592TIP3    H228734   3.709   5.888   2.564  0.0474  0.4187  0.4541
 9593TIP3   OH228735   3.639   5.257   0.387 -0.0081  0.1750  0.1041
 9593TIP3    H128736   3.666   5.346   0.409 -1.8875  0.9189 -0.3781
 9593TIP3    H228737   3.699   5.201   0.435  1.6669  1.6870 -0.1154
 9594TIP3   OH228738   5.756   2.485   3.370 -0.1069  0.0841 -0.4107
 9594TIP3    H128739   5.705   2.436   3.306  1.6938  0.3941 -2.1936
 9594TIP3    H228740   5.730   2.450   3.455 -2.0647 -0.8406 -1.3488
 9595TIP3   OH228741   7.991   2.717   1.317  0.0248 -0.1471 -0.4827
 9595TIP3    H128742   8.051   2.649   1.287  0.7261  0.3616 -0.2662
 9595TIP3    H228743   7.945   2.746   1.238  1.6578  0.9951 -1.0691
 9596TIP3   OH228744   2.739   4.021   4.509 -0.0414  0.3317 -0.0338
 9596TIP3    H128745   2.706   3.974   4.433 -0.1654  0.3736 -0.0058
 9596TIP3    H228746   2.757   3.952   4.574  1.6805  0.1120 -0.6832
 9597TIP3   OH228747   1.233   1.343   0.008  0.0343  0.0890  0.0113
 9597TIP3    H128748   1.286   1.293  -0.053  0.8605  0.7832  0.1368
 9597TIP3    H228749   1.294   1.372   0.075 -0.5390  0.7177  0.2805
 9598TIP3   OH228750   5.982   4.035   1.096 -0.1426  0.5121 -0.2471
 9598TIP3    H128751   6.011   3.958   1.046 -0.2182  0.0553  0.3970
 9598TIP3    H228752   5.911   4.002   1.151  1.3184  0.5049  1.7123
 9599TIP3   OH228753   1.755   3.136   4.691  0.5702  0.0024 -0.0246
 9599TIP3    H128754   1.664   3.115   4.711  0.7791 -2.2778 -1.1085
 9599TIP3    H228755   1.804   3.107   4.768  0.5294 -0.4210 -0.1540
 9600TIP3   OH228756   0.440   5.700   4.937 -0.2088 -0.5768  0.0221
 9600TIP3    H128757   0.515   5.733   4.887  0.6785 -2.3338  0.1033
 9600TIP3    H228758   0.374   5.679   4.870 -0.2384 -0.0033 -0.1354
 9601TIP3   OH228759   0.031   0.636   0.735 -0.0690  0.1568 -0.6269
 9601TIP3    H128760   0.046   0.621   0.828 -0.4086  0.1793 -0.5643
 9601TIP3    H228761  -0.013   0.722   0.732  0.5813  0.4854 -0.8637
 9602TIP3   OH228762   3.563   1.001   1.815 -0.0006  0.3004 -0.1719
 9602TIP3    H128763   3.490   1.009   1.755  0.1360 -2.9333 -0.9233
 9602TIP3    H228764   3.637   1.040   1.768 -0.6303  1.0918 -0.5366
 9603TIP3   OH228765   6.477   0.821   2.789 -0.9182  0.6256  0.2018
 9603TIP3    H128766   6.473   0.726   2.802  0.9455  0.2965 -1.2371
 9603TIP3    H228767   6.402   0.840   2.732 -0.4026 -0.2562 -0.8095
 9604TIP3   OH228768   5.925   0.546   3.966  0.6103  0.4058  0.3013
 9604TIP3    H128769   5.942   0.483   3.896 -1.9824 -0.4680  0.3386
 9604TIP3    H228770   5.875   0.615   3.924 -0.5748  0.1019  1.1502
 9605TIP3   OH228771   7.975   3.759   2.836  0.0914  0.2061  0.3572
 9605TIP3    H128772   7.919   3.744   2.912 -1.3312  0.6581 -0.5532
 9605TIP3    H228773   8.042   3.691   2.841  0.2927  0.5069  2.2334
 9606TIP3   OH228774   0.503   4.142   4.832  0.3602  0.3800 -0.6616
 9606TIP3    H128775   0.538   4.162   4.745  0.0462 -2.3395 -1.5379
 9606TIP3    H228776   0.418   4.101   4.814 -0.1964  0.7284  1.0049
 9607TIP3   OH228777   0.629   2.822   5.003  0.0236 -0.3376 -0.2246
 9607TIP3    H128778   0.652   2.793   4.915 -0.7032 -1.1777 -0.1499
 9607TIP3    H228779   0.704   2.799   5.057  0.5445  0.3347 -0.6383
 9608TIP3   OH228780   5.669   0.971   0.617  0.3878 -0.6487 -0.2976
 9608TIP3    H128781   5.724   1.043   0.649  0.4974 -0.9385  0.1645
 9608TIP3    H228782   5.616   0.945   0.692 -0.8014 -0.0080 -0.8742
 9609TIP3   OH228783   0.482   4.168   3.008  0.6033 -0.5581 -0.2878
 9609TIP3    H128784   0.456   4.250   3.051  0.8833  0.3900 -1.8199
 9609TIP3    H228785   0.403   4.139   2.963  0.8681 -0.3795 -0.8713
 9610TIP3   OH228786   3.822   6.911   1.258 -0.2078  0.1871 -0.1510
 9610TIP3    H128787   3.849   7.000   1.279  0.7531 -0.1658  0.1897
 9610TIP3    H228788   3.903   6.867   1.233 -0.9592 -0.0362 -2.4304
 9611TIP3   OH228789   4.685   4.217   3.234 -0.0722  0.5649 -0.3259
 9611TIP3    H128790   4.601   4.174   3.220 -0.1750  0.0469  1.6430
 9611TIP3    H228791   4.675   4.303   3.192 -1.0218 -0.0534 -1.4335
 9612TIP3   OH228792   2.811   4.634   5.113  0.3750  0.8379 -0.0468
 9612TIP3    H128793   2.814   4.717   5.065  1.4075  0.8913  0.0808
 9612TIP3    H228794   2.873   4.646   5.185  0.9035 -0.2129 -0.3075
 9613TIP3   OH228795   1.948   3.229   3.325 -0.6402  0.3193 -0.6611
 9613TIP3    H128796   1.981   3.197   3.409  0.6543  0.5372 -1.0526
 9613TIP3    H228797   1.855   3.245   3.340 -0.5934 -0.3499  0.5106
 9614TIP3   OH228798   0.965   3.701   2.644  0.3787  0.4364 -0.3513
 9614TIP3    H128799   0.930   3.677   2.730 -1.1672  0.8962 -0.8189
 9614TIP3    H228800   0.921   3.643   2.582  0.0961  1.3297 -1.0091
 9615TIP3   OH228801   2.963   5.824   0.748 -0.0955  0.0145 -0.1591
 9615TIP3    H128802   2.938   5.852   0.835 -1.8371  1.6735 -1.1323
 9615TIP3    H228803   2.937   5.732   0.744 -0.1443 -0.0342  0.9834
 9616TIP3   OH228804   6.897   2.865   4.044  0.9338 -0.2585 -0.3936
 9616TIP3    H128805   6.988   2.850   4.070  0.6054  0.9045  1.6377
 9616TIP3    H228806   6.889   2.960   4.038 -0.4706 -0.2705  0.8302
 9617TIP3   OH228807   2.018   1.261   1.537 -0.0645 -0.1016 -0.4255
 9617TIP3    H128808   2.014   1.209   1.457 -0.7808  0.1490 -0.5609
 9617TIP3    H228809   2.055   1.345   1.509 -1.2758  0.3569 -0.7108
 9618TIP3   OH228810   1.911   6.824   4.951  0.2087 -0.3115  0.6053
 9618TIP3    H128811   1.980   6.774   4.994  1.3215  1.1736  0.6618
 9618TIP3    H228812   1.931   6.915   4.974 -2.6239  0.0837  1.8146
 9619TIP3   OH228813   3.130   6.191   5.534  0.4707  0.3874  0.2576
 9619TIP3    H128814   3.061   6.222   5.475  0.6477 -1.5585 -1.0683
 9619TIP3    H228815   3.154   6.268   5.586 -2.3264  1.2465  0.4306
 9620TIP3   OH228816   0.375   3.329   0.746 -0.3586  0.0103  0.2294
 9620TIP3    H128817   0.427   3.355   0.670  0.7285 -3.6974 -0.5013
 9620TIP3    H228818   0.284   3.334   0.716 -0.1046  1.0792 -0.4037
 9621TIP3   OH228819   4.610   6.162   4.925  0.1935  0.1020  0.1773
 9621TIP3    H128820   4.661   6.231   4.967  0.1199  0.7941 -0.8298
 9621TIP3    H228821   4.676   6.107   4.882  0.4185 -1.5525  2.4288
 9622TIP3   OH228822   6.329   4.611   4.738 -0.5453 -0.0617 -0.5042
 9622TIP3    H128823   6.396   4.543   4.740  0.5726  1.0202 -0.2251
 9622TIP3    H228824   6.299   4.617   4.828  1.5284  1.8585  0.1456
 9623TIP3   OH228825   1.334   5.084   4.504 -0.4486  0.2067 -0.1113
 9623TIP3    H128826   1.285   5.077   4.423 -1.9119 -1.0266  0.8256
 9623TIP3    H228827   1.336   5.178   4.524  1.1710  0.7054 -2.2376
 9624TIP3   OH228828   4.986   7.310   4.015  0.4448  0.2317 -0.4398
 9624TIP3    H128829   4.915   7.269   3.966  1.2499 -0.0150 -1.4129
 9624TIP3    H228830   4.941   7.356   4.087 -0.5998 -0.9212 -0.3148
 9625TIP3   OH228831   7.094   6.431   4.232 -0.6888 -0.0049  0.2322
 9625TIP3    H128832   7.093   6.526   4.227 -0.0057  0.0173  0.4582
 9625TIP3    H228833   7.076   6.412   4.325  1.7493 -0.0121  0.7567
 9626TIP3   OH228834   3.115   5.494   4.230 -0.0870 -0.3628  0.9223
 9626TIP3    H128835   3.126   5.588   4.211 -0.0634 -0.0547  2.3529
 9626TIP3    H228836   3.022   5.485   4.251 -0.3227 -0.8795 -0.2917
 9627TIP3   OH228837   7.140   3.084   1.481 -0.1125 -0.0892 -0.4256
 9627TIP3    H128838   7.211   3.106   1.420  0.5375 -1.1798 -0.0987
 9627TIP3    H228839   7.178   3.098   1.568  0.6041 -3.0253 -0.1654
 9628TIP3   OH228840   0.318   4.783   1.404  0.5491 -0.5312  0.0667
 9628TIP3    H128841   0.392   4.723   1.399  1.4280  0.2478  2.1467
 9628TIP3    H228842   0.286   4.773   1.494 -1.1172  0.0132 -0.4435
 9629TIP3   OH228843   3.075   4.701   3.112  0.0853  0.1910  0.0704
 9629TIP3    H128844   3.122   4.709   3.195  1.1561 -2.6354 -0.1537
 9629TIP3    H228845   3.086   4.786   3.070  0.8725  1.1632  2.1122
 9630TIP3   OH228846   1.528   5.786   6.014 -0.1697 -0.3193 -0.2795
 9630TIP3    H128847   1.553   5.698   5.985  3.6616  0.4555  0.1282
 9630TIP3    H228848   1.576   5.799   6.096 -0.8437  2.0221 -0.1813
 9631TIP3   OH228849   7.761   6.960   2.568 -0.0513  0.1330  0.3169
 9631TIP3    H128850   7.750   6.910   2.486 -0.3993 -1.4918  1.3064
 9631TIP3    H228851   7.782   6.893   2.633  1.8535  1.5893  1.2625
 9632TIP3   OH228852   0.083   1.830   0.593  0.1989  0.4263 -0.5511
 9632TIP3    H128853   0.132   1.802   0.516 -0.4719 -0.5570 -0.6230
 9632TIP3    H228854   0.015   1.888   0.559  0.5821  0.8802 -0.5662
 9633TIP3   OH228855   3.059   4.363   1.508 -0.1314  0.5800 -0.2850
 9633TIP3    H128856   3.045   4.270   1.528 -0.5165  0.6795 -0.0829
 9633TIP3    H228857   3.151   4.379   1.531 -0.2880  0.4466  0.4533
 9634TIP3   OH228858   0.314   4.566   3.447  0.1720  0.4471  0.2597
 9634TIP3    H128859   0.268   4.557   3.530 -2.0504 -2.6244 -1.0762
 9634TIP3    H228860   0.383   4.499   3.450  0.6257  0.8864 -0.0795
 9635TIP3   OH228861   3.395   5.860   5.149 -0.1827  0.0973 -0.1385
 9635TIP3    H128862   3.322   5.922   5.151 -0.9435 -0.7924  1.0660
 9635TIP3    H228863   3.395   5.820   5.236 -0.4630 -2.4258 -1.1954
 9636TIP3   OH228864   0.647   5.941   5.032 -0.3777 -0.4850 -0.2051
 9636TIP3    H128865   0.671   6.033   5.022 -0.3157 -0.1422  2.4115
 9636TIP3    H228866   0.637   5.909   4.942  0.7490  1.7481 -1.2105
 9637TIP3   OH228867   0.364   1.986   1.735 -0.0394  0.0298 -0.0595
 9637TIP3    H128868   0.272   2.011   1.734 -0.3004 -0.8388  0.6226
 9637TIP3    H228869   0.368   1.912   1.795  0.9485 -0.5324 -0.7813
 9638TIP3   OH228870   6.325   6.513   0.373  0.6357  0.5495 -0.1735
 9638TIP3    H128871   6.284   6.529   0.288  2.0675 -0.8532 -1.1825
 9638TIP3    H228872   6.286   6.430   0.402 -2.0360  2.4026  2.0140
 9639TIP3   OH228873   7.237   5.017   6.179 -0.2607 -0.0881  0.2710
 9639TIP3    H128874   7.318   5.040   6.134 -1.0634 -0.0145 -1.1708
 9639TIP3    H228875   7.258   4.935   6.226  0.5001 -0.3389 -0.4877
 9640TIP3   OH228876   7.749   2.343   4.844 -0.5709 -0.5508  0.3274
 9640TIP3    H128877   7.683   2.325   4.911  1.3612 -0.1377  2.4453
 9640TIP3    H228878   7.750   2.438   4.836  0.2330 -0.5058  0.8409
 9641TIP3   OH228879   3.518   2.428   2.941  0.8224 -0.4650  0.7804
 9641TIP3    H128880   3.597   2.421   2.886 -0.4416 -0.4975 -1.1333
 9641TIP3    H228881   3.521   2.517   2.975  0.1983  0.6502 -1.8149
 9642TIP3   OH228882   5.123   3.670   4.433  0.4465 -0.2155  0.5885
 9642TIP3    H128883   5.093   3.716   4.355  1.6584 -0.6196 -0.1444
 9642TIP3    H228884   5.126   3.577   4.407 -0.6667 -0.5600  1.6174
 9643TIP3   OH228885   7.999   2.045   1.658  0.5103 -0.2309 -0.4658
 9643TIP3    H128886   7.948   2.097   1.597 -1.2710  1.0337  1.9106
 9643TIP3    H228887   7.993   1.956   1.625 -2.8045 -0.0409 -0.6670
 9644TIP3   OH228888   5.995   3.062   6.160  0.2126 -0.4724 -0.6930
 9644TIP3    H128889   6.074   3.058   6.215  1.0913 -0.3619 -1.9070
 9644TIP3    H228890   5.965   2.972   6.155 -0.6395 -0.3228  1.0022
 9645TIP3   OH228891   1.921   7.592   6.603 -0.0119  0.6779 -0.4767
 9645TIP3    H128892   2.001   7.624   6.644 -0.1699 -1.1394  1.4537
 9645TIP3    H228893   1.947   7.514   6.555 -0.7358 -0.8928  1.4902
 9646TIP3   OH228894   6.205   0.727   4.739  0.3576  0.4454  0.2577
 9646TIP3    H128895   6.180   0.815   4.768  2.1916  1.1426 -0.0814
 9646TIP3    H228896   6.123   0.681   4.727 -0.6206  1.7544  1.5699
 9647TIP3   OH228897   6.507   6.884   0.991  0.5638  0.5579  0.2820
 9647TIP3    H128898   6.453   6.842   1.058  1.6764  0.1799  0.9654
 9647TIP3    H228899   6.464   6.860   0.908  0.8280 -1.4691  0.6806
 9648TIP3   OH228900   3.359   0.649   5.076 -0.0980 -0.1094  0.2321
 9648TIP3    H128901   3.391   0.675   5.162  2.2663 -0.4984 -0.4735
 9648TIP3    H228902   3.361   0.729   5.024 -0.0555 -0.1889  0.1112
 9649TIP3   OH228903   5.880   2.306   2.720 -0.1202  0.2367 -0.0579
 9649TIP3    H128904   5.800   2.357   2.706 -1.1616 -1.3380 -0.0357
 9649TIP3    H228905   5.858   2.246   2.791  1.7872  1.1940  1.4439
 9650TIP3   OH228906   6.998   5.884   3.284 -0.2645  0.0914 -0.3137
 9650TIP3    H128907   7.034   5.891   3.196 -0.2940  0.0251 -0.3313
 9650TIP3    H228908   7.006   5.791   3.306  1.4729  0.3999  0.4905
 9651TIP3   OH228909   5.822   7.533  -0.031 -0.4239 -0.4749  0.8547
 9651TIP3    H128910   5.772   7.569   0.043 -0.9690 -2.1505  1.3594
 9651TIP3    H228911   5.910   7.520   0.005 -0.9524 -2.3364  1.6552
 9652TIP3   OH228912   6.177   7.079   6.391  0.1340 -0.0334 -0.3757
 9652TIP3    H128913   6.165   6.985   6.405 -0.0789  0.1551  0.7937
 9652TIP3    H228914   6.249   7.084   6.328  0.1364 -0.9790 -0.4668
 9653TIP3   OH228915   4.300   7.137   0.056 -0.1505 -0.3477  0.2597
 9653TIP3    H128916   4.329   7.206  -0.003  0.5815 -0.3697  0.5745
 9653TIP3    H228917   4.274   7.065  -0.002 -2.4783  0.7404 -0.1251
 9654TIP3   OH228918   2.914   5.779   4.016 -0.0218 -0.2376 -0.7702
 9654TIP3    H128919   2.839   5.828   4.050  1.0467 -0.1698  1.6877
 9654TIP3    H228920   2.901   5.689   4.046  1.9529  0.2261  1.8106
 9655TIP3   OH228921   4.947   0.731   6.263  0.1185  0.3156 -0.4337
 9655TIP3    H128922   4.983   0.661   6.209 -1.5697 -1.1713  0.2403
 9655TIP3    H228923   4.853   0.711   6.268  0.1937  0.1526  3.2574
 9656TIP3   OH228924   6.529   6.984   3.125  0.1332 -0.1755  0.0202
 9656TIP3    H128925   6.583   6.919   3.080 -1.1240 -1.2748  0.0349
 9656TIP3    H228926   6.440   6.966   3.094 -0.5779 -0.0561  1.9004
 9657TIP3   OH228927   7.303   2.215   5.613 -0.1367  0.0471  0.2207
 9657TIP3    H128928   7.362   2.247   5.545  1.8339  0.1610  1.8770
 9657TIP3    H228929   7.222   2.264   5.599  0.4419  0.5598 -1.5983
 9658TIP3   OH228930   7.325   2.596   1.206 -0.1330 -0.1220 -0.0335
 9658TIP3    H128931   7.409   2.550   1.210  1.2753  1.1692 -5.4622
 9658TIP3    H228932   7.334   2.670   1.266  2.0286 -0.8512  0.6021
 9659TIP3   OH228933   1.848   7.575   4.418 -0.2335  0.5573 -0.2157
 9659TIP3    H128934   1.811   7.629   4.488  0.4373 -0.3682  0.9032
 9659TIP3    H228935   1.833   7.485   4.447  1.5757  0.1452 -0.4061
 9660TIP3   OH228936   2.676   7.639   6.112 -0.3758  0.7109  0.0947
 9660TIP3    H128937   2.690   7.719   6.162 -1.3621  1.4928 -0.8266
 9660TIP3    H228938   2.720   7.570   6.162  1.3053  1.9745  0.4316
 9661TIP3   OH228939   0.753   6.842   3.804  0.0141  0.0601 -0.0472
 9661TIP3    H128940   0.724   6.926   3.769  2.1067  1.2733  0.9511
 9661TIP3    H228941   0.746   6.781   3.730  0.6521  1.6410 -1.4594
 9662TIP3   OH228942   5.228   6.601   4.829 -0.3809  0.1550  0.3858
 9662TIP3    H128943   5.305   6.589   4.774 -1.4520 -0.2287 -1.1098
 9662TIP3    H228944   5.263   6.613   4.917  1.3729  0.0257 -0.2459
 9663TIP3   OH228945   5.980   4.605   6.137  0.3531 -0.5499  0.3091
 9663TIP3    H128946   5.886   4.611   6.121  0.3531  0.3812  0.6171
 9663TIP3    H228947   6.020   4.638   6.057  0.4154 -0.6270  0.3084
 9664TIP3   OH228948   7.376   5.660   4.299 -0.3156  0.4091  0.0847
 9664TIP3    H128949   7.324   5.740   4.289 -1.1038 -0.2138 -1.0772
 9664TIP3    H228950   7.360   5.611   4.218 -0.6186 -1.3707  1.1755
 9665TIP3   OH228951   5.391   5.513   5.089  0.1761  0.8254 -0.2192
 9665TIP3    H128952   5.430   5.428   5.069 -0.5124 -0.1714  2.3272
 9665TIP3    H228953   5.302   5.508   5.054  0.5021  0.9704 -1.0953
 9666TIP3   OH228954   4.358   6.930   4.221 -0.2935  0.0560  0.1544
 9666TIP3    H128955   4.327   6.994   4.286 -1.3085  0.5221 -0.7470
 9666TIP3    H228956   4.406   6.983   4.157 -0.3695 -0.2243 -0.1352
 9667TIP3   OH228957   0.594   7.602   2.364  0.3132  0.6249 -0.0266
 9667TIP3    H128958   0.521   7.651   2.327  1.2918  1.7076 -0.6066
 9667TIP3    H228959   0.623   7.656   2.438  1.5518  1.0623 -0.8080
 9668TIP3   OH228960   6.922   7.753   4.140 -0.1840 -0.1302  0.3811
 9668TIP3    H128961   6.997   7.756   4.199  0.0078 -0.0727  0.1342
 9668TIP3    H228962   6.850   7.723   4.195 -0.0312  0.0318  0.6715
 9669TIP3   OH228963   1.401   1.187   5.566  0.6068  0.1755 -0.0775
 9669TIP3    H128964   1.403   1.273   5.523  0.6721 -0.6507 -1.8216
 9669TIP3    H228965   1.493   1.164   5.577  0.6777 -0.8254 -2.1785
 9670TIP3   OH228966   6.289   4.951   0.059 -0.2474  0.3804 -0.3557
 9670TIP3    H128967   6.303   5.027   0.116 -1.0165  0.4296 -0.2279
 9670TIP3    H228968   6.366   4.950   0.001 -0.6444  1.7737 -0.9408
 9671TIP3   OH228969   5.505   5.867   2.661 -0.1608 -0.3373  0.0912
 9671TIP3    H128970   5.481   5.868   2.754 -0.0375 -2.6241  0.1956
 9671TIP3    H228971   5.538   5.779   2.646  1.1003  0.4027 -1.8364
 9672TIP3   OH228972   0.988   3.479   5.500 -0.2527 -0.1366 -0.1835
 9672TIP3    H128973   1.055   3.494   5.433 -1.5675  2.4803 -1.0805
 9672TIP3    H228974   0.907   3.511   5.460 -1.8078 -1.8822  1.3774
 9673TIP3   OH228975   8.268   6.392   2.323  0.0104 -0.0863 -0.6770
 9673TIP3    H128976   8.347   6.377   2.272 -0.4211  0.7605 -1.6329
 9673TIP3    H228977   8.266   6.487   2.337 -0.0139 -0.2765  0.7188
 9674TIP3   OH228978   8.061   3.452   3.757 -0.3456 -0.5863 -0.0833
 9674TIP3    H128979   8.018   3.369   3.737 -1.7419 -0.4086  1.8728
 9674TIP3    H228980   8.143   3.427   3.799  0.1442 -0.9390 -1.2056
 9675TIP3   OH228981   1.234   1.910   6.022 -0.3802 -0.1026 -0.2364
 9675TIP3    H128982   1.300   1.974   5.996 -1.6020  1.2902 -0.0480
 9675TIP3    H228983   1.276   1.858   6.090  0.2457  1.3595  0.5308
 9676TIP3   OH228984   5.327   2.520   0.648  0.4238  0.3266 -0.2691
 9676TIP3    H128985   5.394   2.478   0.596  1.7162  1.9315  0.0225
 9676TIP3    H228986   5.246   2.508   0.598  0.8148 -1.9818 -0.4273
 9677TIP3   OH228987   4.350   3.415   6.587 -0.0949 -0.1267 -0.9627
 9677TIP3    H128988   4.436   3.406   6.628  0.2026  0.8878 -1.3416
 9677TIP3    H228989   4.306   3.331   6.605  0.8781 -0.5662 -0.5694
 9678TIP3   OH228990   2.780   4.595   2.073  0.6433  0.0396  0.1246
 9678TIP3    H128991   2.720   4.576   2.145 -0.8776  1.1660 -0.7897
 9678TIP3    H228992   2.758   4.532   2.005  0.1119  0.7868 -0.4114
 9679TIP3   OH228993   2.377   0.566   0.044  0.5124 -0.1449  0.3946
 9679TIP3    H128994   2.303   0.511   0.070  0.7692 -0.4089  0.5854
 9679TIP3    H228995   2.346   0.615  -0.031  0.7155 -1.6067 -0.6805
 9680TIP3   OH228996   2.216   1.829   2.843 -0.4268  0.1285  0.5865
 9680TIP3    H128997   2.271   1.906   2.856  1.1162 -1.0763  1.6774
 9680TIP3    H228998   2.241   1.770   2.915 -3.1366 -0.5352  1.0981
 9681TIP3   OH228999   0.144   0.700   3.132  0.0340 -0.3239 -0.5035
 9681TIP3    H129000   0.097   0.630   3.086  1.6760 -0.6131 -1.8183
 9681TIP3    H229001   0.212   0.728   3.071  1.6429  0.0048  1.3375
 9682TIP3   OH229002   4.857   1.409   5.811  0.4504 -0.4424  0.0609
 9682TIP3    H129003   4.878   1.501   5.794 -0.5644 -0.0976  0.5783
 9682TIP3    H229004   4.931   1.377   5.861 -0.0146  0.6375  1.5282
 9683TIP3   OH229005   4.502   7.510   2.667  0.1024  0.0123  0.0651
 9683TIP3    H129006   4.553   7.489   2.745 -1.1007  1.6745  1.3826
 9683TIP3    H229007   4.517   7.436   2.607  1.5064 -1.0328  1.6312
 9684TIP3   OH229008   0.512   0.875   3.750 -0.2998 -0.2808 -0.0391
 9684TIP3    H129009   0.442   0.922   3.704 -0.5282 -1.0348 -0.4809
 9684TIP3    H229010   0.573   0.943   3.777 -0.6604  0.2749 -0.6014
 9685TIP3   OH229011   3.813   5.235   6.157  0.3288 -0.3962  0.6344
 9685TIP3    H129012   3.828   5.141   6.157  0.1857 -0.4260  1.7660
 9685TIP3    H229013   3.780   5.255   6.244  0.0791  0.6628  0.3192
 9686TIP3   OH229014   6.099   6.596   1.673 -0.2688 -0.2280  0.2845
 9686TIP3    H129015   6.082   6.659   1.743 -0.0435  0.8580 -0.6245
 9686TIP3    H229016   6.193   6.578   1.680 -0.2727 -0.2302  0.3378
 9687TIP3   OH229017   7.273   2.953   0.625  0.8648  0.2817 -0.0293
 9687TIP3    H129018   7.218   2.925   0.699  0.2518  1.7731  0.1236
 9687TIP3    H229019   7.359   2.969   0.665  1.0358 -0.6712  0.0041
 9688TIP3   OH229020   0.456   2.550   4.537 -0.3169 -0.1465  0.8574
 9688TIP3    H129021   0.364   2.532   4.556 -0.4652 -1.6399 -0.9548
 9688TIP3    H229022   0.488   2.468   4.499  1.4127  0.7933  0.2234
 9689TIP3   OH229023   6.740   1.623   5.333  0.8508  0.2647 -0.1883
 9689TIP3    H129024   6.809   1.557   5.339 -0.4924 -1.1453  0.9589
 9689TIP3    H229025   6.739   1.664   5.420  0.1142  0.0741 -0.0934
 9690TIP3   OH229026   1.013   1.209   1.067 -0.4895  0.1485 -0.3108
 9690TIP3    H129027   0.965   1.262   1.130 -0.6533 -1.0716  0.6342
 9690TIP3    H229028   1.105   1.231   1.081 -0.4846 -0.4589  0.7084
 9691TIP3   OH229029   4.691   0.629   6.266  0.7006 -0.1971  0.8470
 9691TIP3    H129030   4.653   0.609   6.181  0.4359  1.3151  0.5721
 9691TIP3    H229031   4.663   0.557   6.323 -1.5363  0.2001  0.3414
 9692TIP3   OH229032   6.056   6.918   3.636 -0.2725 -0.1624 -0.3539
 9692TIP3    H129033   5.978   6.893   3.586  0.2476 -0.2454 -1.1388
 9692TIP3    H229034   6.029   6.996   3.685 -1.1611 -0.7913  0.2025
 9693TIP3   OH229035   3.132   4.850   4.901 -0.2494 -0.3951 -0.2399
 9693TIP3    H129036   3.142   4.911   4.974  1.1818 -1.5224  0.5645
 9693TIP3    H229037   3.207   4.868   4.844 -0.4653 -0.6288 -0.6051
 9694TIP3   OH229038   2.916   1.403   6.219  0.0531 -0.3863  0.5060
 9694TIP3    H129039   2.900   1.332   6.281 -0.7343  0.4731  1.3319
 9694TIP3    H229040   2.955   1.473   6.273  1.7717 -0.5306 -0.4761
 9695TIP3   OH229041   4.213   5.114   0.884  0.8967 -0.2541  1.0569
 9695TIP3    H129042   4.267   5.193   0.897  1.1582 -0.1391 -0.5094
 9695TIP3    H229043   4.264   5.061   0.823 -0.6692 -0.2285 -0.3279
 9696TIP3   OH229044   4.127   4.622   2.998 -0.3743  0.0496 -0.1733
 9696TIP3    H129045   4.036   4.591   2.991 -0.3384  0.2793 -2.2182
 9696TIP3    H229046   4.175   4.547   3.031 -0.7886 -1.1959 -2.2372
 9697TIP3   OH229047   1.608   3.486   5.437 -0.1718 -0.5835  0.2764
 9697TIP3    H129048   1.541   3.480   5.504 -2.1408  2.2847 -1.2511
 9697TIP3    H229049   1.614   3.579   5.416  0.1346 -1.3134 -3.6421
 9698TIP3   OH229050   6.763   3.169   0.320  0.5209 -0.6351 -0.1275
 9698TIP3    H129051   6.671   3.149   0.337 -0.5341  0.3179 -3.8580
 9698TIP3    H229052   6.764   3.261   0.295  2.3878 -0.7706 -0.7724
 9699TIP3   OH229053   3.093   1.485   0.360  0.3171 -0.6343 -0.4273
 9699TIP3    H129054   3.066   1.468   0.270 -2.0597  0.1932  0.0513
 9699TIP3    H229055   3.086   1.400   0.404 -1.4967 -0.5173 -0.3887
 9700TIP3   OH229056   0.691   6.359   2.942 -0.2351 -0.2434 -0.0284
 9700TIP3    H129057   0.633   6.361   2.866 -0.0391 -2.0428 -0.2536
 9700TIP3    H229058   0.637   6.327   3.014  0.0377 -0.2682  0.1683
 9701TIP3   OH229059   4.900   1.169   1.541 -0.0802  0.4881  0.8123
 9701TIP3    H129060   4.855   1.227   1.479 -0.0856 -1.5051 -1.1801
 9701TIP3    H229061   4.831   1.139   1.600 -0.1632  2.0719  1.5691
 9702TIP3   OH229062   6.618   0.409   5.758 -0.1383 -0.4794  0.1656
 9702TIP3    H129063   6.540   0.439   5.804  0.2591  0.2389  0.3866
 9702TIP3    H229064   6.664   0.355   5.823  0.7707  1.0891  0.8953
 9703TIP3   OH229065   3.609   7.271   1.272  0.1145  0.2912  0.6487
 9703TIP3    H129066   3.634   7.347   1.219  0.5826 -0.8057 -0.7473
 9703TIP3    H229067   3.517   7.255   1.249  0.1542  0.1512  0.5858
 9704TIP3   OH229068   3.873   0.677   1.750  0.0567  0.2096 -0.5207
 9704TIP3    H129069   3.858   0.594   1.704 -0.3294  0.4170 -0.7671
 9704TIP3    H229070   3.797   0.688   1.807  1.4401 -1.0465  1.7133
 9705TIP3   OH229071   3.208   7.733   5.356  0.0779  0.1894 -0.3256
 9705TIP3    H129072   3.284   7.791   5.368  1.1097 -0.8758 -1.3421
 9705TIP3    H229073   3.214   7.670   5.427 -1.9165  2.1214  1.7033
 9706TIP3   OH229074   1.051   4.804   2.898  0.4352 -0.2525 -0.1907
 9706TIP3    H129075   1.040   4.833   2.989  2.3719  1.6284 -0.4947
 9706TIP3    H229076   1.004   4.869   2.846 -1.1034 -1.5995 -0.5841
 9707TIP3   OH229077   1.497   5.760   0.280 -0.0918 -0.6270 -0.5007
 9707TIP3    H129078   1.480   5.767   0.186  0.7774  0.3076 -0.5987
 9707TIP3    H229079   1.410   5.751   0.319 -0.4173 -2.2197 -1.4586
 9708TIP3   OH229080   4.812   7.819   0.340 -0.1191 -0.7571  0.2100
 9708TIP3    H129081   4.719   7.797   0.349 -0.8988  1.4662 -1.5779
 9708TIP3    H229082   4.835   7.792   0.251  0.4864  0.1679  0.0736
 9709TIP3   OH229083   1.119   6.391   2.782 -0.2478  0.0407 -0.3697
 9709TIP3    H129084   1.153   6.416   2.869  0.7992  1.5857 -1.1754
 9709TIP3    H229085   1.037   6.438   2.774  0.1784  0.7457 -0.6325
 9710TIP3   OH229086   0.825   7.755   0.854 -0.0719 -0.2628  0.2358
 9710TIP3    H129087   0.767   7.706   0.912  2.2106 -2.7298  0.6268
 9710TIP3    H229088   0.852   7.692   0.788  0.9860  1.2124 -0.8035
 9711TIP3   OH229089   0.591   7.353   5.984  0.8938  0.4075  0.2240
 9711TIP3    H129090   0.638   7.422   5.938 -0.9483  1.2238 -0.5480
 9711TIP3    H229091   0.503   7.389   5.998 -0.2158 -1.8513 -0.4046
 9712TIP3   OH229092   2.521   4.480   0.288 -0.3232  0.1264 -0.5079
 9712TIP3    H129093   2.496   4.406   0.343 -1.3674  1.5088  0.9641
 9712TIP3    H229094   2.616   4.485   0.296 -0.4111  0.0443  0.9025
 9713TIP3   OH229095   6.107   6.094   6.598  0.1985  0.2065 -0.1425
 9713TIP3    H129096   6.085   6.005   6.570  1.1526  0.2089 -0.9579
 9713TIP3    H229097   6.071   6.101   6.686 -1.0054 -0.5510 -0.5462
 9714TIP3   OH229098   7.534   4.555   6.462 -0.3247  0.1470  0.8293
 9714TIP3    H129099   7.610   4.610   6.447 -1.5327  1.0291 -3.1847
 9714TIP3    H229100   7.460   4.604   6.425 -2.0711 -2.5758  0.3632
 9715TIP3   OH229101   3.049   7.297   5.150  0.2370 -0.1380 -0.1246
 9715TIP3    H129102   3.015   7.354   5.080  0.4795  0.2960  0.1043
 9715TIP3    H229103   2.971   7.264   5.194  0.0658 -0.6987 -0.8128
 9716TIP3   OH229104   1.655   2.175   5.884 -0.4321 -0.1035  0.5062
 9716TIP3    H129105   1.653   2.199   5.791 -1.6181  0.2163  0.6045
 9716TIP3    H229106   1.680   2.256   5.929  0.8672 -0.4359  0.4326
 9717TIP3   OH229107   4.883   5.872   6.252  0.0854 -0.3413  0.5591
 9717TIP3    H129108   4.803   5.826   6.275 -0.6192 -0.4922 -1.8830
 9717TIP3    H229109   4.871   5.961   6.286 -0.8982 -0.4955  0.6387
 9718TIP3   OH229110   7.502   0.361   1.235  0.1138 -0.2352  0.1495
 9718TIP3    H129111   7.552   0.358   1.153  0.3307  4.1538 -0.1113
 9718TIP3    H229112   7.560   0.404   1.297 -1.6738  0.7585  1.2168
 9719TIP3   OH229113   5.234   1.848   6.673 -0.1948 -0.1025 -0.1627
 9719TIP3    H129114   5.272   1.790   6.607  1.3688 -0.2222  0.7928
 9719TIP3    H229115   5.213   1.789   6.746 -1.7511  0.0513 -0.4583
 9720TIP3   OH229116   7.651   4.208   1.542  0.2413  0.3014  0.1010
 9720TIP3    H129117   7.579   4.232   1.601  1.3824 -1.0806  2.1721
 9720TIP3    H229118   7.730   4.240   1.586  1.1672 -1.1386 -0.4445
 9721TIP3   OH229119   2.924   7.091   6.316  0.7223 -0.7937 -0.8024
 9721TIP3    H129120   2.991   7.157   6.296  1.5710 -1.3434  0.1310
 9721TIP3    H229121   2.964   7.036   6.382 -0.6319 -1.2121 -0.3020
 9722TIP3   OH229122   2.925   4.229   2.163 -0.0061 -0.1466 -0.3140
 9722TIP3    H129123   2.940   4.216   2.070 -0.1236  1.0826 -0.5186
 9722TIP3    H229124   2.838   4.193   2.179  0.2015 -0.7829 -0.5659
 9723TIP3   OH229125   0.551   4.722   1.172  0.2262  0.1227 -0.3332
 9723TIP3    H129126   0.641   4.702   1.196  0.5887  1.8191 -0.1881
 9723TIP3    H229127   0.499   4.655   1.217  1.1336  1.2938  2.6466
 9724TIP3   OH229128   6.048   5.259   1.553  0.7072  0.0733 -0.1618
 9724TIP3    H129129   6.031   5.353   1.547  0.9186  0.1072 -0.2329
 9724TIP3    H229130   6.074   5.233   1.465  0.4322 -0.0967 -0.1961
 9725TIP3   OH229131   6.985   3.715   5.274 -0.3472 -0.3130  0.2037
 9725TIP3    H129132   7.030   3.648   5.222  1.5483 -0.3803  1.8109
 9725TIP3    H229133   6.898   3.722   5.235  0.4821 -1.4315 -1.9836
 9726TIP3   OH229134   2.650   4.475   1.426  0.0011 -0.0965  0.2196
 9726TIP3    H129135   2.594   4.415   1.377  0.5940 -0.5390  0.0778
 9726TIP3    H229136   2.591   4.545   1.455 -0.6267 -0.5741  0.1039
 9727TIP3   OH229137   1.643   5.149   0.012  0.3574  0.4416  0.2625
 9727TIP3    H129138   1.728   5.184  -0.014 -0.1229  1.7589  0.3961
 9727TIP3    H229139   1.642   5.158   0.108  0.5214 -0.6806  0.3882
 9728TIP3   OH229140   6.110   0.906   1.539 -1.0385 -0.2458  0.1977
 9728TIP3    H129141   6.156   0.824   1.523  1.0493  0.8992 -0.0694
 9728TIP3    H229142   6.091   0.905   1.632 -0.3852 -0.7372  0.3345
 9729TIP3   OH229143   6.050   3.797   0.987  0.1224  0.3098 -0.0869
 9729TIP3    H129144   6.120   3.806   0.922  1.1497 -0.1873  0.9113
 9729TIP3    H229145   6.089   3.745   1.058 -1.4441 -0.5269  0.2299
 9730TIP3   OH229146   1.879   6.129   0.264 -0.4075  0.0382  0.5438
 9730TIP3    H129147   1.811   6.102   0.325  0.6160 -0.3915  1.5225
 9730TIP3    H229148   1.956   6.144   0.318  0.2628  0.6008 -0.5286
 9731TIP3   OH229149   8.070   1.075   6.064 -0.0067 -0.1067  0.0380
 9731TIP3    H129150   8.079   1.065   5.969  0.3834 -0.7518  0.1380
 9731TIP3    H229151   8.094   0.990   6.099 -2.6795 -0.7251  0.5855
 9732TIP3   OH229152   6.149   4.398   5.188 -0.5238 -0.0723  0.4157
 9732TIP3    H129153   6.204   4.456   5.137  0.3349 -1.6192 -0.4852
 9732TIP3    H229154   6.077   4.453   5.218  1.2628  1.9266  1.2954
 9733TIP3   OH229155   7.909   0.069   4.270  0.0761  0.5066  0.3041
 9733TIP3    H129156   7.968   0.085   4.344 -0.7552 -2.6376  1.7969
 9733TIP3    H229157   7.827   0.110   4.296 -0.0983 -0.2531  0.9713
 9734TIP3   OH229158   4.264   4.678   6.576  0.4336 -0.3216  0.0040
 9734TIP3    H129159   4.272   4.655   6.669  1.7962  2.0494  0.5699
 9734TIP3    H229160   4.354   4.694   6.548  0.0289 -0.8316 -1.7290
 9735TIP3   OH229161   2.640   5.807   2.591  0.7595 -0.2616 -0.2288
 9735TIP3    H129162   2.596   5.753   2.526  0.7849  0.0451 -0.5052
 9735TIP3    H229163   2.586   5.886   2.597  0.9775 -0.1156 -0.1786
 9736TIP3   OH229164   8.095   7.040   3.974 -0.2251 -0.6492  0.8289
 9736TIP3    H129165   8.189   7.026   3.963 -0.5043 -1.2701 -1.2798
 9736TIP3    H229166   8.082   7.133   3.952 -0.0776 -0.4895  1.4077
 9737TIP3   OH229167   0.502   5.638   3.248  0.6347 -0.2626  0.0376
 9737TIP3    H129168   0.562   5.648   3.321 -0.8970  0.7628  1.2323
 9737TIP3    H229169   0.421   5.681   3.277 -0.4169 -0.8598 -1.8004
 9738TIP3   OH229170   4.293   2.863   0.198  0.3737 -0.1570  0.2648
 9738TIP3    H129171   4.354   2.800   0.160  0.2191  0.3660 -0.9055
 9738TIP3    H229172   4.258   2.820   0.276 -0.0718 -1.7152 -0.7445
 9739TIP3   OH229173   5.934   7.392   4.052  0.2140 -0.3202  0.3265
 9739TIP3    H129174   5.948   7.486   4.066 -1.6547  0.0755 -0.2687
 9739TIP3    H229175   5.868   7.367   4.116 -0.7053 -0.7786 -0.7585
 9740TIP3   OH229176   3.625   7.239   4.289  0.7372 -0.2626  0.3332
 9740TIP3    H129177   3.708   7.273   4.322  0.3400  1.4935 -0.3651
 9740TIP3    H229178   3.577   7.316   4.260 -0.2439 -1.4291 -1.3479
 9741TIP3   OH229179   2.877   3.301   4.009 -0.0381 -0.4342  0.1971
 9741TIP3    H129180   2.899   3.358   3.935  0.9001  0.1769  0.9348
 9741TIP3    H229181   2.919   3.217   3.988 -1.4511 -0.9018 -0.9077
 9742TIP3   OH229182   0.861   6.999   6.043 -0.3360 -0.1418 -0.0037
 9742TIP3    H129183   0.878   6.935   5.973  4.3586 -0.6143  1.2071
 9742TIP3    H229184   0.876   7.084   6.002  0.4436 -0.3043 -0.0751
 9743TIP3   OH229185   2.624   4.741   0.564 -0.0659 -0.3691  0.3588
 9743TIP3    H129186   2.529   4.734   0.577  0.0161  0.6412  1.7234
 9743TIP3    H229187   2.638   4.707   0.476 -1.6040 -1.1866  0.3831
 9744TIP3   OH229188   3.880   5.938   0.995 -0.2790  0.3257 -0.2129
 9744TIP3    H129189   3.830   5.857   1.007 -0.3815  0.6220  1.5413
 9744TIP3    H229190   3.872   5.957   0.901 -0.0999 -1.7706 -0.6992
 9745TIP3   OH229191   8.318   6.158   1.797  0.2796 -0.1384  0.4930
 9745TIP3    H129192   8.250   6.145   1.730  0.0972 -0.5207  0.7474
 9745TIP3    H229193   8.278   6.220   1.858  0.1383 -0.4017  0.6693
 9746TIP3   OH229194   7.903   3.614   4.763 -0.3543 -0.2295 -0.0098
 9746TIP3    H129195   7.808   3.607   4.759 -0.3379 -0.3057 -0.3454
 9746TIP3    H229196   7.934   3.528   4.736 -0.1689  0.4519 -2.1567
 9747TIP3   OH229197   0.842   2.172   4.382 -0.1117 -0.2402 -0.0362
 9747TIP3    H129198   0.917   2.175   4.442  2.4683  1.1145 -3.0062
 9747TIP3    H229199   0.829   2.079   4.365 -1.0132 -0.6837  2.5580
 9748TIP3   OH229200   5.786   0.111   3.548  0.2378 -0.2668 -0.0182
 9748TIP3    H129201   5.849   0.178   3.575 -0.1896  0.5795 -1.0565
 9748TIP3    H229202   5.701   0.148   3.571 -0.0849  0.1308 -1.7206
 9749TIP3   OH229203   7.317   3.362   1.472  0.2570  0.3588  0.7472
 9749TIP3    H129204   7.352   3.445   1.504  0.9111 -0.4121  2.1204
 9749TIP3    H229205   7.222   3.375   1.470  0.3532  1.1389  0.8956
 9750TIP3   OH229206   1.726   4.670   6.414  0.3035 -0.1803  0.2606
 9750TIP3    H129207   1.678   4.606   6.362  0.5189 -1.4957  1.6262
 9750TIP3    H229208   1.690   4.662   6.502  0.8197  1.0983  0.6194
 9751TIP3   OH229209   6.537   3.615   6.246  0.2030  0.4175 -0.1674
 9751TIP3    H129210   6.510   3.531   6.209 -0.3269 -0.7813  2.6448
 9751TIP3    H229211   6.456   3.666   6.249 -0.4425 -0.5923  1.8704
 9752TIP3   OH229212   0.077   0.583   2.572  0.2124  0.6969  0.1661
 9752TIP3    H129213   0.087   0.594   2.478 -0.2858  2.3914  0.2891
 9752TIP3    H229214  -0.006   0.626   2.593  0.1994  0.1401  1.3501
 9753TIP3   OH229215   0.832   2.747   3.558 -0.2484  0.0766  0.2207
 9753TIP3    H129216   0.898   2.797   3.606  1.1482  0.2114 -1.7608
 9753TIP3    H229217   0.797   2.808   3.494 -1.1072 -0.4751  0.1507
 9754TIP3   OH229218   4.851   6.063   0.637 -0.5920  0.1895  0.4160
 9754TIP3    H129219   4.768   6.032   0.672  0.0447 -1.2221  0.7308
 9754TIP3    H229220   4.882   6.126   0.702 -1.0222  0.1176  0.6958
 9755TIP3   OH229221   4.080   7.429   1.210 -0.3110 -0.6659 -0.2555
 9755TIP3    H129222   4.095   7.336   1.192 -0.2465 -1.0358  1.4760
 9755TIP3    H229223   4.050   7.466   1.127  0.8061 -1.9736 -1.2937
 9756TIP3   OH229224   6.126   0.935   6.637  0.2055 -0.1882  0.3411
 9756TIP3    H129225   6.172   1.018   6.649 -1.0993  0.6601 -0.3471
 9756TIP3    H229226   6.112   0.902   6.726 -0.3610  0.9581  0.6939
 9757TIP3   OH229227   4.655   6.009   5.213 -0.7273  0.0711  0.5429
 9757TIP3    H129228   4.673   5.957   5.134  0.4913  0.2016  0.7196
 9757TIP3    H229229   4.595   6.077   5.183  0.1622  0.4597 -0.4259
 9758TIP3   OH229230   2.332   1.998   0.775  0.4495  0.1376 -0.4488
 9758TIP3    H129231   2.293   1.985   0.861  0.3370  1.3501 -0.2981
 9758TIP3    H229232   2.280   2.068   0.735 -1.0410 -1.9726 -2.4854
 9759TIP3   OH229233   7.450   3.575   5.258 -0.6421  0.7238  0.0199
 9759TIP3    H129234   7.398   3.562   5.337 -1.6437  0.5761 -0.6513
 9759TIP3    H229235   7.440   3.668   5.237 -1.4176  0.4979 -0.6407
 9760TIP3   OH229236   2.334   4.349   3.654 -0.0300  0.5373  0.2777
 9760TIP3    H129237   2.365   4.309   3.573  0.1694  1.4083 -0.0822
 9760TIP3    H229238   2.373   4.436   3.654 -0.5675  0.7837  0.9924
 9761TIP3   OH229239   0.115   3.118   5.518 -0.6870 -0.2910 -0.1073
 9761TIP3    H129240   0.210   3.129   5.516 -0.4555 -0.8480  2.8444
 9761TIP3    H229241   0.099   3.035   5.473  0.1792 -0.0477 -0.8820
 9762TIP3   OH229242   4.100   4.722   1.769 -0.3091  0.2710 -0.2141
 9762TIP3    H129243   4.063   4.761   1.848 -0.5700  0.0271 -0.2140
 9762TIP3    H229244   4.072   4.630   1.771 -1.2077  0.5074 -1.1133
 9763TIP3   OH229245   2.833   3.504   4.834  0.4570 -0.1886 -0.3384
 9763TIP3    H129246   2.875   3.481   4.917 -2.5792 -1.5476  0.9953
 9763TIP3    H229247   2.863   3.438   4.772  0.0405 -1.3496  0.6613
 9764TIP3   OH229248   2.408   5.989   0.335 -0.6703 -0.5466 -0.0935
 9764TIP3    H129249   2.461   6.069   0.338 -1.6096  0.1276 -0.6606
 9764TIP3    H229250   2.464   5.921   0.372  1.9686 -0.7024 -3.8479
 9765TIP3   OH229251   8.231   2.123   1.948  0.0674  0.5351 -0.4808
 9765TIP3    H129252   8.170   2.197   1.951  1.4829  1.8808 -2.6131
 9765TIP3    H229253   8.274   2.124   2.034 -1.2331  0.9784  0.2022
 9766TIP3   OH229254   6.409   1.074   2.444  0.4739  0.3703  0.3162
 9766TIP3    H129255   6.316   1.087   2.424  0.5240  0.0232 -0.1680
 9766TIP3    H229256   6.423   1.120   2.527 -0.7975 -2.0149  1.9482
 9767TIP3   OH229257   5.685   3.265   3.854  0.5727 -0.2952 -0.1257
 9767TIP3    H129258   5.742   3.267   3.777 -0.0029  0.9978 -0.5349
 9767TIP3    H229259   5.745   3.281   3.928  0.5437  3.2678 -0.7186
 9768TIP3   OH229260   2.636   1.771   5.313  0.0921 -0.2273  0.0000
 9768TIP3    H129261   2.591   1.734   5.389 -1.4641  2.8152  0.7060
 9768TIP3    H229262   2.606   1.719   5.239 -1.4002 -0.8459  1.0052
 9769TIP3   OH229263   0.172   0.707   0.458  0.0813  0.3587 -0.6451
 9769TIP3    H129264   0.113   0.634   0.443  0.4355  0.0688 -0.6535
 9769TIP3    H229265   0.188   0.707   0.553  1.4527 -0.6709 -0.8508
 9770TIP3   OH229266   2.631   7.214   5.499  0.1890  0.4561  0.0222
 9770TIP3    H129267   2.593   7.127   5.505 -0.9348  0.9986  1.3480
 9770TIP3    H229268   2.574   7.262   5.440  0.1214  0.6302  0.2275
 9771TIP3   OH229269   1.893   4.770   2.751  0.0380  0.1480 -0.1205
 9771TIP3    H129270   1.866   4.844   2.805  1.1734 -0.1671  0.9289
 9771TIP3    H229271   1.945   4.810   2.681  1.8863  0.2810  1.2550
 9772TIP3   OH229272   5.089   4.324   4.086 -0.0845  0.2256  0.0149
 9772TIP3    H129273   5.167   4.320   4.141  0.8825  2.8780 -1.0384
 9772TIP3    H229274   5.116   4.373   4.009 -2.5011  0.1848 -0.9354
 9773TIP3   OH229275   5.499   0.323   3.928  0.0896  0.4062  0.8626
 9773TIP3    H129276   5.429   0.271   3.967  0.6082  0.7061  2.2557
 9773TIP3    H229277   5.566   0.328   3.996  2.1412 -1.0752 -0.9082
 9774TIP3   OH229278   1.091   3.407   6.277  0.2196 -0.3226  0.9134
 9774TIP3    H129279   1.154   3.467   6.317  0.7479  0.4039 -0.8827
 9774TIP3    H229280   1.035   3.464   6.224  0.7606 -1.3815 -0.8821
 9775TIP3   OH229281   4.132   7.318   5.112 -0.1538 -0.3131  0.3839
 9775TIP3    H129282   4.211   7.358   5.149  0.5089  0.1006 -1.3531
 9775TIP3    H229283   4.152   7.224   5.112  0.6475 -0.1667 -0.6276
 9776TIP3   OH229284   3.564   7.276   5.170 -0.0093  0.0873  0.1782
 9776TIP3    H129285   3.506   7.263   5.244  0.2032  0.3603  0.3937
 9776TIP3    H229286   3.643   7.226   5.192  0.2591  0.5988  0.3727
 9777TIP3   OH229287   4.438   4.817   2.921 -0.4674  0.7055  0.5066
 9777TIP3    H129288   4.375   4.825   2.993  0.0183  2.0242  0.8070
 9777TIP3    H229289   4.520   4.794   2.964 -0.3385  0.7586  0.2883
 9778TIP3   OH229290   3.938   4.959   5.075 -0.0602  0.3763 -0.0701
 9778TIP3    H129291   3.947   4.974   4.980  1.3406  0.4108  0.0470
 9778TIP3    H229292   3.875   5.025   5.103  0.7487  1.4608 -0.7217
 9779TIP3   OH229293   1.774   0.988   3.178 -0.0017 -0.4502  0.1741
 9779TIP3    H129294   1.843   0.964   3.116 -0.3167 -0.2842 -0.2429
 9779TIP3    H229295   1.821   1.025   3.253  0.2800  1.5720 -0.9543
 9780TIP3   OH229296   8.044   0.157   3.051 -0.7305  0.5854  0.0889
 9780TIP3    H129297   7.961   0.115   3.077 -0.0165 -0.6808  0.4312
 9780TIP3    H229298   8.111   0.103   3.093  0.2825  1.4373 -0.4072
 9781TIP3   OH229299   1.545   2.071   0.400  0.1313  0.3593  0.1147
 9781TIP3    H129300   1.454   2.047   0.382 -0.1831  0.7890  1.0876
 9781TIP3    H229301   1.557   2.053   0.493  1.0965  0.1592 -0.0329
 9782TIP3   OH229302   4.421   4.310   2.438  0.4128  0.4797  0.3999
 9782TIP3    H129303   4.423   4.215   2.450 -0.8651  0.1055 -1.8080
 9782TIP3    H229304   4.474   4.325   2.360 -1.6611  1.1970 -0.9531
 9783TIP3   OH229305   0.225   7.476   4.695 -0.2385 -0.5091 -0.7975
 9783TIP3    H129306   0.280   7.467   4.618  0.4658  0.1703 -0.3874
 9783TIP3    H229307   0.262   7.550   4.743 -0.6804 -0.8956  0.1759
 9784TIP3   OH229308   2.992   1.304   2.935 -0.1121 -0.5836 -0.1355
 9784TIP3    H129309   3.056   1.372   2.913 -1.5159  0.7941 -0.0893
 9784TIP3    H229310   3.018   1.229   2.882 -0.8264  1.2273 -3.3125
 9785TIP3   OH229311   0.210   7.599   0.815  0.3702 -0.5578 -0.3747
 9785TIP3    H129312   0.130   7.647   0.836  2.2924  2.4067  0.9864
 9785TIP3    H229313   0.248   7.578   0.901  0.5793 -2.8765 -0.9859
 9786TIP3   OH229314   2.651   5.497   3.715 -0.6047  0.3581  0.3047
 9786TIP3    H129315   2.604   5.419   3.745 -0.9031  1.0973  1.8746
 9786TIP3    H229316   2.711   5.517   3.787  0.0200  1.1301 -0.4168
 9787TIP3   OH229317   4.390   0.138   1.326  0.1968 -0.1258  0.4799
 9787TIP3    H129318   4.459   0.166   1.386  0.6763  0.8373 -0.4951
 9787TIP3    H229319   4.435   0.114   1.246 -0.6571  1.6107 -0.5741
 9788TIP3   OH229320   0.873   0.785   5.483 -0.1970  0.2871  0.6701
 9788TIP3    H129321   0.917   0.831   5.554  0.0977  0.5504  0.3195
 9788TIP3    H229322   0.781   0.782   5.509 -0.2416  1.1749  0.6408
 9789TIP3   OH229323   3.199   6.390   0.791 -0.0094 -0.5170 -0.3909
 9789TIP3    H129324   3.238   6.438   0.717 -0.1760 -0.8382 -0.6898
 9789TIP3    H229325   3.271   6.339   0.827  0.0012 -0.5932 -0.5204
 9790TIP3   OH229326   8.055   5.094   1.646 -0.1303 -0.8745 -0.6540
 9790TIP3    H129327   8.019   5.166   1.697  0.8275 -0.2136 -0.8803
 9790TIP3    H229328   8.147   5.088   1.674 -0.3122 -2.3569 -0.2547
 9791TIP3   OH229329   7.403   2.600   3.628  0.6268 -0.0951  0.2505
 9791TIP3    H129330   7.366   2.675   3.582  0.1862  1.3499  2.7488
 9791TIP3    H229331   7.339   2.530   3.615 -0.1018  0.6439 -0.2680
 9792TIP3   OH229332   4.913   4.300   2.927  0.0158 -0.8033  0.3154
 9792TIP3    H129333   4.976   4.298   2.854  1.5389 -0.8876  1.5757
 9792TIP3    H229334   4.942   4.374   2.980 -1.6524 -0.1653  0.3704
 9793TIP3   OH229335   1.646   0.109   1.004  0.5027 -0.5288  0.5062
 9793TIP3    H129336   1.600   0.187   0.972  0.5885  0.0855  1.8385
 9793TIP3    H229337   1.577   0.052   1.037  0.5860 -0.1188  1.4139
 9794TIP3   OH229338   7.138   5.583   2.685 -0.0148 -0.8849 -0.1486
 9794TIP3    H129339   7.135   5.576   2.781 -3.8492  0.8806  0.0704
 9794TIP3    H229340   7.077   5.517   2.654  0.6254 -0.9418 -1.3481
 9795TIP3   OH229341   1.832   4.319   1.761  0.6363 -0.2702 -0.2700
 9795TIP3    H129342   1.875   4.403   1.779 -0.0217 -0.2592  1.3652
 9795TIP3    H229343   1.882   4.283   1.687  3.2677 -0.0961  1.2834
 9796TIP3   OH229344   1.849   3.969   1.051  0.1052 -0.0064 -0.1300
 9796TIP3    H129345   1.796   3.893   1.024  0.0008  0.3123 -0.8507
 9796TIP3    H229346   1.816   3.991   1.138 -0.0183 -0.6442 -0.0046
 9797TIP3   OH229347   4.234   2.089   4.914  0.3014  0.5697  0.4035
 9797TIP3    H129348   4.198   2.165   4.960  0.2521 -1.0890  3.3549
 9797TIP3    H229349   4.159   2.029   4.905  0.7407  0.0870 -0.1361
 9798TIP3   OH229350   0.257   5.847   5.971 -0.1784  0.7964 -0.3916
 9798TIP3    H129351   0.196   5.818   6.039 -0.2776  0.2897 -0.6872
 9798TIP3    H229352   0.316   5.772   5.958 -1.1329  0.2590 -1.9564
 9799TIP3   OH229353   1.545   5.324   3.295 -0.0371 -0.6450  0.1412
 9799TIP3    H129354   1.608   5.294   3.229  0.9988 -0.8481  1.1840
 9799TIP3    H229355   1.508   5.244   3.330  0.9931 -0.6569  1.2737
 9800TIP3   OH229356   3.170   1.938   3.286 -0.6191  0.3070  0.2489
 9800TIP3    H129357   3.155   1.983   3.203 -2.5990 -1.3344 -0.3527
 9800TIP3    H229358   3.160   2.006   3.353  0.8548  1.6164 -0.7937
 9801TIP3   OH229359   0.256   4.558   2.855  0.2482  0.0248 -0.0157
 9801TIP3    H129360   0.277   4.527   2.943  0.0074  0.7311  0.2927
 9801TIP3    H229361   0.170   4.519   2.836 -0.5984  1.4139  0.8393
 9802TIP3   OH229362   3.383   4.319   6.106 -0.3295 -0.9935 -0.4035
 9802TIP3    H129363   3.350   4.385   6.045 -1.4166 -0.7618  0.4019
 9802TIP3    H229364   3.306   4.267   6.129 -0.2090 -0.3548  1.6463
 9803TIP3   OH229365   3.640   4.448   6.104 -0.0673  0.1419  0.1229
 9803TIP3    H129366   3.600   4.526   6.065 -0.8742 -0.7492 -0.9191
 9803TIP3    H229367   3.567   4.386   6.114  0.8837 -1.2527 -1.0852
 9804TIP3   OH229368   2.962   0.446   2.827 -0.4004  0.0810  0.1650
 9804TIP3    H129369   2.950   0.392   2.906 -0.1422  2.3820  1.8764
 9804TIP3    H229370   2.873   0.461   2.795 -0.5447 -0.4432  0.3092
 9805TIP3   OH229371   6.571   6.649   2.323 -0.0185  0.5058 -0.3113
 9805TIP3    H129372   6.538   6.603   2.245  0.2985  1.9065 -1.3101
 9805TIP3    H229373   6.492   6.665   2.375 -0.5350  1.2815 -1.2972
 9806TIP3   OH229374   6.750   6.855   3.754 -0.0323 -0.3459  0.3743
 9806TIP3    H129375   6.744   6.816   3.667 -0.0804  0.2915  0.0860
 9806TIP3    H229376   6.661   6.880   3.776 -0.1986 -1.4602  1.0722
 9807TIP3   OH229377   4.277   7.398   4.245 -0.0194 -0.4408 -0.4348
 9807TIP3    H129378   4.371   7.401   4.259 -0.1543 -0.3309  0.5387
 9807TIP3    H229379   4.240   7.381   4.332 -0.9209 -0.0170 -0.7158
 9808TIP3   OH229380   4.433   2.681   3.540 -0.2470  0.1334 -0.2265
 9808TIP3    H129381   4.389   2.635   3.611 -2.2043  0.3849 -1.2189
 9808TIP3    H229382   4.485   2.613   3.497 -2.5967 -1.1392 -1.2793
 9809TIP3   OH229383   7.262   0.392   1.696 -0.2455  0.1750 -0.0914
 9809TIP3    H129384   7.180   0.387   1.647  0.0537  1.1998 -0.7574
 9809TIP3    H229385   7.301   0.475   1.667  0.8644 -0.1390  0.4540
 9810TIP3   OH229386   5.348   1.008   1.004  0.2068 -0.1293  0.4075
 9810TIP3    H129387   5.407   1.039   1.072  0.7029 -0.1656  0.0037
 9810TIP3    H229388   5.261   1.025   1.038  0.4157  2.6525 -0.1832
 9811TIP3   OH229389   0.823   3.622   5.989  0.1129  0.2272  0.9475
 9811TIP3    H129390   0.878   3.613   6.067 -0.2501 -0.8900  1.0937
 9811TIP3    H229391   0.885   3.622   5.916  0.3221 -1.6553  1.0632
 9812TIP3   OH229392   4.692   2.946   1.405 -0.3839 -0.4847 -0.5531
 9812TIP3    H129393   4.777   2.979   1.434  0.3172 -2.6668  0.1079
 9812TIP3    H229394   4.692   2.960   1.311  0.1193  0.7487 -0.3918
 9813TIP3   OH229395   3.562   1.983   1.233  0.0091  0.4809 -0.1145
 9813TIP3    H129396   3.636   1.931   1.201  0.6311  1.3545 -0.1315
 9813TIP3    H229397   3.487   1.951   1.182  0.1587 -1.1111  0.6005
 9814TIP3   OH229398   1.677   6.458   0.830  0.1716 -0.4330  0.1473
 9814TIP3    H129399   1.764   6.417   0.827  0.0910 -0.5657 -0.5838
 9814TIP3    H229400   1.683   6.532   0.770  0.1828  0.3919  1.1393
 9815TIP3   OH229401   7.830   6.845   6.305 -0.3560 -0.2517 -0.2323
 9815TIP3    H129402   7.781   6.886   6.376  0.3471 -1.1965  0.8273
 9815TIP3    H229403   7.909   6.898   6.296 -0.7416  0.2467 -0.7627
 9816TIP3   OH229404   6.599   3.302   6.449 -0.1228 -0.7034  0.5991
 9816TIP3    H129405   6.640   3.217   6.434 -1.4670 -1.3162  0.2242
 9816TIP3    H229406   6.540   3.313   6.374 -1.4066 -0.3492  1.6214
 9817TIP3   OH229407   6.965   1.791   6.395  0.5818 -0.0129  0.0341
 9817TIP3    H129408   6.876   1.788   6.359  0.4271  0.8922  0.3075
 9817TIP3    H229409   7.012   1.722   6.348 -0.4122 -0.9067  0.3181
 9818TIP3   OH229410   2.287   4.501   1.400  0.0289  0.5739  0.1786
 9818TIP3    H129411   2.277   4.435   1.331 -1.0133 -0.4249  1.2496
 9818TIP3    H229412   2.351   4.563   1.364 -0.3451  0.0008 -1.6164
 9819TIP3   OH229413   1.923   0.329   3.898 -0.3292 -0.4968  0.4023
 9819TIP3    H129414   1.970   0.312   3.979  0.6121  2.1952  0.5074
 9819TIP3    H229415   1.866   0.403   3.918 -2.1667 -1.5393 -0.6769
 9820TIP3   OH229416   1.832   7.596   3.641  0.6472  0.1396  0.2336
 9820TIP3    H129417   1.831   7.653   3.564 -1.3950 -0.5443 -0.2891
 9820TIP3    H229418   1.811   7.654   3.714 -0.9548  0.1777 -0.2298
 9821TIP3   OH229419   6.198   2.386   4.583  0.0722 -0.3992  0.1450
 9821TIP3    H129420   6.144   2.342   4.650  0.1663 -0.0528  0.4522
 9821TIP3    H229421   6.265   2.431   4.634  0.5368 -0.6655 -0.2272
 9822TIP3   OH229422   7.002   2.917   5.037 -0.2493  0.8139  0.6431
 9822TIP3    H129423   7.027   2.827   5.058 -0.6515  0.5139 -0.1366
 9822TIP3    H229424   6.910   2.923   5.060 -1.1514  0.0062 -2.3545
 9823TIP3   OH229425   0.360   1.696   0.093  0.0615  0.3949  0.5697
 9823TIP3    H129426   0.320   1.615   0.123  0.1279  0.7722  1.7160
 9823TIP3    H229427   0.445   1.670   0.057  0.0335 -0.0554  0.8317
 9824TIP3   OH229428   5.765   1.680   0.634  0.2119  0.4943  0.0390
 9824TIP3    H129429   5.810   1.674   0.549  1.7706  1.2664  0.7553
 9824TIP3    H229430   5.674   1.660   0.615  0.5507  0.5398 -1.8053
 9825TIP3   OH229431   6.530   4.436   4.772  0.0541  1.0036  0.3740
 9825TIP3    H129432   6.561   4.363   4.717 -0.0305  1.5108 -0.3651
 9825TIP3    H229433   6.528   4.400   4.860  1.3063  0.5149  0.2229
 9826TIP3   OH229434   7.789   4.542   3.624 -0.4341 -1.0634  0.0532
 9826TIP3    H129435   7.721   4.600   3.591  0.1040 -0.4330  0.0439
 9826TIP3    H229436   7.748   4.498   3.699 -0.8233 -0.6324  0.0974
 9827TIP3   OH229437   1.960   2.682   0.372 -0.0727  0.2527 -0.6015
 9827TIP3    H129438   1.875   2.705   0.410 -0.1502 -1.2588  0.2171
 9827TIP3    H229439   2.024   2.714   0.436 -0.0154  1.2637 -1.1495
 9828TIP3   OH229440   0.189   1.216   4.905  0.1460 -0.6548 -0.3556
 9828TIP3    H129441   0.279   1.245   4.918  0.1398  0.0806 -1.7154
 9828TIP3    H229442   0.136   1.293   4.929 -0.1793 -1.2731  1.0148
 9829TIP3   OH229443   2.987   6.049   1.436  0.9271 -0.1019 -0.1844
 9829TIP3    H129444   2.908   6.019   1.481  0.5874  1.2952  0.1857
 9829TIP3    H229445   3.059   6.025   1.496  0.7304 -0.6868 -0.1717
 9830TIP3   OH229446   7.014   5.717   5.151 -0.3894  0.1520 -0.1802
 9830TIP3    H129447   7.026   5.692   5.059 -1.0644 -0.2747 -0.1616
 9830TIP3    H229448   6.982   5.638   5.194 -0.3095  0.4131  0.3763
 9831TIP3   OH229449   5.694   4.014   5.907  0.2567  0.3309  0.0740
 9831TIP3    H129450   5.717   3.931   5.948 -1.5033  0.1223  0.7197
 9831TIP3    H229451   5.690   4.076   5.979 -0.1471  0.5746 -0.1560
 9832TIP3   OH229452   2.194   6.448   6.615  0.5043  0.3232  0.7313
 9832TIP3    H129453   2.119   6.490   6.573  0.3751 -0.6951 -0.0944
 9832TIP3    H229454   2.270   6.495   6.580  0.3602 -0.0835 -0.1712
 9833TIP3   OH229455   3.467   2.109   5.835  0.7623  0.2741 -0.1671
 9833TIP3    H129456   3.430   2.023   5.813 -1.1723  1.0583 -0.1271
 9833TIP3    H229457   3.444   2.165   5.761  2.9056  0.5630 -0.6815
 9834TIP3   OH229458   0.565   5.888   5.858 -0.0923  0.2119 -0.3611
 9834TIP3    H129459   0.598   5.806   5.896 -0.0751  1.3510  2.2953
 9834TIP3    H229460   0.565   5.872   5.763 -0.2391 -2.8909  0.0574
 9835TIP3   OH229461   3.832   1.401   4.182  0.1804 -0.3680  0.2184
 9835TIP3    H129462   3.770   1.404   4.108 -0.3757 -1.9012  0.5773
 9835TIP3    H229463   3.818   1.483   4.228  2.1012  1.7118 -2.5527
 9836TIP3   OH229464   2.393   4.067   6.186  0.1277 -0.0504  0.1233
 9836TIP3    H129465   2.347   4.101   6.109  1.1435  1.1114  0.0054
 9836TIP3    H229466   2.338   3.993   6.216 -0.5221 -0.2287 -1.4179
 9837TIP3   OH229467   5.105   1.245   5.837  0.2104 -0.7005  0.0017
 9837TIP3    H129468   5.180   1.187   5.827 -0.6785 -1.8355 -0.2909
 9837TIP3    H229469   5.039   1.192   5.882 -0.6638  0.0401 -0.3563
 9838TIP3   OH229470   5.190   2.087   3.158  0.0821 -0.2813 -0.7845
 9838TIP3    H129471   5.100   2.081   3.187 -0.2256  0.3980 -1.5651
 9838TIP3    H229472   5.235   2.016   3.203 -0.4748  0.3928  0.8895
 9839TIP3   OH229473   3.776   3.834   1.448  0.3126 -0.9056  0.0626
 9839TIP3    H129474   3.686   3.801   1.452  0.1134 -0.3381  0.3091
 9839TIP3    H229475   3.824   3.766   1.399 -0.3974 -0.8780 -0.7018
 9840TIP3   OH229476   3.142   0.248   4.447  0.1870  0.2729  0.2684
 9840TIP3    H129477   3.049   0.250   4.426  0.5325 -0.0519 -1.4699
 9840TIP3    H229478   3.170   0.339   4.438  0.0045  0.4064  1.0067
 9841TIP3   OH229479   1.039   0.108   5.564 -0.4991  0.3751 -0.5035
 9841TIP3    H129480   0.981   0.034   5.550 -0.7137  0.3103  0.6445
 9841TIP3    H229481   0.982   0.185   5.559 -0.3806  0.4351 -1.0678
 9842TIP3   OH229482   7.339   5.765   4.610  0.0971 -0.2831  0.2339
 9842TIP3    H129483   7.382   5.821   4.675 -1.6031 -1.1871  2.2420
 9842TIP3    H229484   7.402   5.694   4.595  0.8090  0.3120  0.3310
 9843TIP3   OH229485   4.921   2.811   6.202  0.2739  0.5146  0.2976
 9843TIP3    H129486   4.964   2.726   6.199 -0.3569  0.0194  2.9192
 9843TIP3    H229487   4.833   2.795   6.169 -0.0684 -0.0490  1.4319
 9844TIP3   OH229488   4.135   2.503   5.889  0.6749  0.6836 -0.1594
 9844TIP3    H129489   4.140   2.415   5.927  0.2660  0.0058 -1.6002
 9844TIP3    H229490   4.145   2.562   5.964 -0.7179 -0.5777  1.0942
 9845TIP3   OH229491   2.215   2.792   0.131  0.0839  0.5594  0.3362
 9845TIP3    H129492   2.152   2.805   0.060  2.0253 -0.1231 -1.6243
 9845TIP3    H229493   2.161   2.783   0.210 -2.1477  1.6358 -0.9813
 9846TIP3   OH229494   7.329   6.948   2.073 -0.5401  0.4169  0.0776
 9846TIP3    H129495   7.415   6.927   2.037 -0.3401 -1.3307  1.4669
 9846TIP3    H229496   7.348   6.997   2.153 -0.8888  1.0005 -0.1885
 9847TIP3   OH229497   2.535   6.091   5.240  0.4585 -0.6327 -0.5207
 9847TIP3    H129498   2.464   6.052   5.291  0.1989 -1.5725 -1.5811
 9847TIP3    H229499   2.525   6.056   5.152  2.3643 -0.9402 -0.6641
 9848TIP3   OH229500   5.023   3.514   2.662 -0.3662 -0.6012  0.1440
 9848TIP3    H129501   5.107   3.511   2.709  0.4247 -2.7092 -1.2837
 9848TIP3    H229502   4.990   3.424   2.666 -1.2360 -0.4020 -1.6207
 9849TIP3   OH229503   1.452   2.141   6.385  0.2799  0.1166  0.3486
 9849TIP3    H129504   1.477   2.145   6.477 -1.1051  0.3925  0.7376
 9849TIP3    H229505   1.485   2.056   6.355 -0.0001 -0.3564  1.3363
 9850TIP3   OH229506   1.422   0.137   5.315 -0.4236  0.5078  0.1313
 9850TIP3    H129507   1.374   0.102   5.390  0.6337 -1.2600  0.0340
 9850TIP3    H229508   1.395   0.081   5.241  2.6762 -1.4793  0.3225
 9851TIP3   OH229509   3.317   5.181   1.122 -0.1937 -0.7075 -0.0479
 9851TIP3    H129510   3.321   5.086   1.107  0.6730 -0.9220  1.3433
 9851TIP3    H229511   3.393   5.200   1.177 -0.8862  0.6338  0.4999
 9852TIP3   OH229512   1.722   3.985   2.164 -0.3406 -0.0651 -0.1783
 9852TIP3    H129513   1.681   3.961   2.081  0.4456 -1.3684 -0.2062
 9852TIP3    H229514   1.813   3.955   2.156 -0.1480  0.1541  0.9985
 9853TIP3   OH229515   5.370   6.698   3.249 -0.0547  0.2681  0.3126
 9853TIP3    H129516   5.345   6.643   3.175 -0.2058  0.7732 -0.0205
 9853TIP3    H229517   5.317   6.665   3.322  0.1952 -0.3193  0.2309
 9854TIP3   OH229518   5.014   1.621   0.700 -0.2100  0.1756  0.3152
 9854TIP3    H129519   5.049   1.623   0.611  0.2745 -0.1399  0.4937
 9854TIP3    H229520   5.089   1.641   0.755 -0.6279  0.9272  0.6271
 9855TIP3   OH229521   6.436   4.061   0.331 -0.7172 -0.7350 -0.5874
 9855TIP3    H129522   6.440   4.156   0.322  0.6865 -0.6816  0.3171
 9855TIP3    H229523   6.459   4.028   0.244 -0.1685 -0.2469 -0.6335
 9856TIP3   OH229524   3.317   7.264   5.508  0.0786  0.0467  0.4642
 9856TIP3    H129525   3.280   7.307   5.431 -0.6612  2.1390  1.9185
 9856TIP3    H229526   3.411   7.279   5.501  0.0281  0.1304 -0.0791
 9857TIP3   OH229527   3.525   7.072   2.915  0.3066  0.5947  0.2764
 9857TIP3    H129528   3.556   6.991   2.874 -1.7925  0.3896 -1.0112
 9857TIP3    H229529   3.473   7.042   2.990 -0.1543  0.7611  0.0249
 9858TIP3   OH229530   0.690   0.691   5.003 -0.1663  0.1432 -0.8172
 9858TIP3    H129531   0.734   0.743   5.070  0.0198 -0.5130 -0.4251
 9858TIP3    H229532   0.599   0.722   5.005  0.0806  0.9031 -1.0397
 9859TIP3   OH229533   6.485   5.417   5.820 -0.0325 -0.1765  0.1079
 9859TIP3    H129534   6.416   5.403   5.755  1.0155 -1.6638 -0.7489
 9859TIP3    H229535   6.493   5.512   5.827 -2.5174  0.0652  0.6484
 9860TIP3   OH229536   7.641   3.034   4.281 -0.4505 -0.1702 -0.0699
 9860TIP3    H129537   7.637   3.124   4.312 -0.2977  0.2231 -1.1600
 9860TIP3    H229538   7.671   3.041   4.191 -0.6045 -1.3052 -0.2212
 9861TIP3   OH229539   5.121   3.039   3.223  0.4124  0.2286  0.1778
 9861TIP3    H129540   5.035   3.070   3.251  0.4061 -0.0218  0.4389
 9861TIP3    H229541   5.184   3.089   3.275  0.3928 -0.4846  0.8993
 9862TIP3   OH229542   2.602   3.926   5.372 -0.2091 -0.2274  0.3858
 9862TIP3    H129543   2.688   3.950   5.338 -0.6305  1.2514  0.2905
 9862TIP3    H229544   2.618   3.850   5.429  1.0598 -0.3115 -0.0725
 9863TIP3   OH229545   3.030   1.230   0.467  0.4533  0.1290  0.0003
 9863TIP3    H129546   3.022   1.170   0.393  0.1715  1.2804 -0.9364
 9863TIP3    H229547   2.942   1.235   0.503  0.9129 -1.7748  1.5567
 9864TIP3   OH229548   7.792   4.633   6.644 -0.0333 -0.0152  0.1026
 9864TIP3    H129549   7.801   4.573   6.570  1.9356  1.4345 -0.9003
 9864TIP3    H229550   7.860   4.605   6.706 -0.0878  0.2707  0.2912
 9865TIP3   OH229551   3.248   2.850   2.962 -0.2550 -0.0917 -0.1358
 9865TIP3    H129552   3.183   2.871   3.029 -0.5418 -0.8194 -0.1800
 9865TIP3    H229553   3.224   2.763   2.931  0.2026  0.0072 -0.7991
 9866TIP3   OH229554   5.369   4.215   0.206  0.2977 -0.1927  0.3091
 9866TIP3    H129555   5.393   4.140   0.261 -0.5153 -1.2060 -0.6932
 9866TIP3    H229556   5.451   4.264   0.196  0.9913 -1.2984  0.4286
 9867TIP3   OH229557   7.325   6.659   5.446 -0.2443  0.1612 -0.2273
 9867TIP3    H129558   7.248   6.630   5.495 -0.2635  1.1644  0.3468
 9867TIP3    H229559   7.289   6.695   5.365 -0.3351  0.0851 -0.2219
 9868TIP3   OH229560   2.776   4.426   0.581 -0.1589 -0.0663  0.2664
 9868TIP3    H129561   2.836   4.460   0.648 -1.0628 -1.5857  1.9497
 9868TIP3    H229562   2.692   4.418   0.627 -0.5729 -2.1133 -0.7460
 9869TIP3   OH229563   1.283   4.158   3.217  0.0420 -0.4067  0.2646
 9869TIP3    H129564   1.365   4.206   3.221 -0.2529  0.6008 -3.1725
 9869TIP3    H229565   1.280   4.121   3.129 -3.0702 -0.6182  0.3497
 9870TIP3   OH229566   7.531   7.392   3.757 -0.1456 -0.0873  0.1315
 9870TIP3    H129567   7.622   7.381   3.730  0.6570 -1.0732  2.9476
 9870TIP3    H229568   7.503   7.473   3.714  1.6854 -0.3038 -1.6177
 9871TIP3   OH229569   3.285   2.573   2.031 -0.2237 -0.1899  0.1164
 9871TIP3    H129570   3.254   2.498   1.980  0.9835 -1.3278  0.9952
 9871TIP3    H229571   3.316   2.635   1.965 -0.0252 -1.0208 -0.5913
 9872TIP3   OH229572   3.239   0.162   6.522 -0.4601  0.4627  0.6542
 9872TIP3    H129573   3.334   0.174   6.527 -0.5432  0.6890  2.7233
 9872TIP3    H229574   3.222   0.139   6.431  1.4003  1.8955 -0.1042
 9873TIP3   OH229575   7.421   6.442   6.126  0.2332 -0.1539  0.1884
 9873TIP3    H129576   7.427   6.485   6.211  0.4554 -0.3876  0.2947
 9873TIP3    H229577   7.355   6.491   6.078 -0.7572 -0.7430  0.9204
 9874TIP3   OH229578   7.705   1.947   5.390  0.0938 -0.5499 -0.2852
 9874TIP3    H129579   7.620   1.913   5.417  0.1734 -1.7252 -1.4296
 9874TIP3    H229580   7.720   1.909   5.303  2.0177 -0.7602  0.1015
 9875TIP3   OH229581   4.963   4.640   6.333 -0.0973  0.3631  0.4528
 9875TIP3    H129582   4.902   4.566   6.336 -0.3688  0.4804 -0.9828
 9875TIP3    H229583   4.928   4.696   6.263  1.7528  0.3354 -0.5639
 9876TIP3   OH229584   2.793   4.191   3.843  0.5252 -0.1085  0.4832
 9876TIP3    H129585   2.843   4.245   3.781  0.4717 -1.8703 -1.1922
 9876TIP3    H229586   2.716   4.163   3.795 -0.0116 -0.7687  1.6733
 9877TIP3   OH229587   2.048   1.589   1.785 -0.6329 -0.1850  0.2731
 9877TIP3    H129588   1.972   1.605   1.729  0.3177  1.2761 -0.6834
 9877TIP3    H229589   2.039   1.498   1.813 -1.5453 -0.7493 -1.6697
 9878TIP3   OH229590   2.927   2.833   2.894  0.4688  0.2251 -0.4380
 9878TIP3    H129591   2.960   2.848   2.983  0.8119  0.7020 -0.6407
 9878TIP3    H229592   2.894   2.918   2.866 -2.7923 -0.5971  0.4653
 9879TIP3   OH229593   1.948   3.033   3.149 -0.1350 -0.5170 -0.2372
 9879TIP3    H129594   1.944   3.102   3.215 -0.5010  0.2384 -1.0298
 9879TIP3    H229595   1.978   2.956   3.196  0.1971  0.1648  0.6806
 9880TIP3   OH229596   2.840   1.360   2.145  0.4609 -0.0339  0.2154
 9880TIP3    H129597   2.820   1.283   2.199 -0.3279 -0.4825 -0.6829
 9880TIP3    H229598   2.806   1.434   2.195  0.6882 -0.3191  0.8099
 9881TIP3   OH229599   3.941   4.447   4.547  0.1562 -0.2052  0.2058
 9881TIP3    H129600   3.865   4.392   4.533 -0.3682  0.3250  0.8899
 9881TIP3    H229601   3.915   4.534   4.518  0.6392 -0.1026  0.0592
 9882TIP3   OH229602   5.079   4.800   3.746 -0.3218 -0.1290 -0.3844
 9882TIP3    H129603   5.090   4.715   3.704 -0.0215 -0.0233 -0.5285
 9882TIP3    H229604   5.158   4.849   3.721  0.3759 -0.4008  1.1544
 9883TIP3   OH229605   1.573   5.948   1.297  0.0852 -0.0445  0.1268
 9883TIP3    H129606   1.539   6.020   1.244  0.7382  0.9072  0.9506
 9883TIP3    H229607   1.529   5.956   1.381  0.1444 -0.6292  0.2202
 9884TIP3   OH229608   6.049   6.959   0.339 -0.4099 -0.2579  0.0252
 9884TIP3    H129609   6.060   6.890   0.274  0.8199  0.0763 -0.1592
 9884TIP3    H229610   6.125   7.017   0.325  0.0736 -0.3526  1.9538
 9885TIP3   OH229611   1.728   4.954   5.079 -0.3533 -0.4653 -0.1325
 9885TIP3    H129612   1.736   4.897   5.155  0.7715  0.1014  0.1871
 9885TIP3    H229613   1.716   5.042   5.116  0.4051 -0.1562 -0.5881
 9886TIP3   OH229614   4.185   6.653   5.954  0.9026 -0.1824 -0.1698
 9886TIP3    H129615   4.159   6.579   6.009  1.7809  0.1247  0.6850
 9886TIP3    H229616   4.102   6.695   5.930  0.5368  0.6467  2.2864
 9887TIP3   OH229617   3.243   6.709   5.031 -0.1391  0.3595 -0.3834
 9887TIP3    H129618   3.168   6.756   5.066 -0.3898 -0.3191  0.0133
 9887TIP3    H229619   3.260   6.639   5.094 -0.6909 -0.9821 -1.6443
 9888TIP3   OH229620   6.089   7.732   0.845  0.1589  0.0717  0.3310
 9888TIP3    H129621   6.125   7.718   0.932  0.1121  0.5856  0.4370
 9888TIP3    H229622   6.124   7.660   0.792 -1.3938 -1.4207  1.2246
 9889TIP3   OH229623   4.623  -0.012   5.467 -0.3909  0.1344  0.4686
 9889TIP3    H129624   4.633   0.083   5.474  0.3342  0.1466 -0.5545
 9889TIP3    H229625   4.693  -0.048   5.520  0.8198  0.2006 -1.0249
 9890TIP3   OH229626   0.187   0.625   4.694  0.1999  0.6725  0.0868
 9890TIP3    H129627   0.183   0.541   4.739 -0.5420  0.6971  0.0804
 9890TIP3    H229628   0.109   0.671   4.722  1.1071  1.7836  0.8907
 9891TIP3   OH229629   4.686   4.311   0.612  0.5051  0.0677 -0.1955
 9891TIP3    H129630   4.738   4.238   0.577  3.3021  1.1806  1.3351
 9891TIP3    H229631   4.719   4.388   0.565 -2.3365  0.4978 -1.7266
 9892TIP3   OH229632   7.481   1.046   1.242  0.5223  0.3917 -0.5347
 9892TIP3    H129633   7.517   0.967   1.202  1.1008  0.5639 -0.3593
 9892TIP3    H229634   7.538   1.116   1.213  0.3637  0.6611 -0.2026
 9893TIP3   OH229635   1.757   5.827   2.577  0.3459 -0.5748 -0.3090
 9893TIP3    H129636   1.723   5.824   2.487  1.1922  0.8977 -0.7084
 9893TIP3    H229637   1.714   5.904   2.615  0.2556 -0.9969  0.4407
 9894TIP3   OH229638   0.969   3.257   5.213  0.0445 -0.3283 -0.2620
 9894TIP3    H129639   0.881   3.282   5.242 -1.1800 -3.7163 -0.6165
 9894TIP3    H229640   1.000   3.333   5.164 -2.8559  0.8432 -0.4942
 9895TIP3   OH229641   3.577   1.911   4.481  0.2850 -0.6602  0.1917
 9895TIP3    H129642   3.527   1.984   4.445  1.2920 -1.2451 -2.6703
 9895TIP3    H229643   3.522   1.877   4.552 -1.7674  0.7951 -0.5940
 9896TIP3   OH229644   7.413   6.452   3.980  0.0397  0.0056 -0.2985
 9896TIP3    H129645   7.392   6.521   4.043 -0.8637  0.2104 -0.8078
 9896TIP3    H229646   7.397   6.370   4.026 -0.5170  0.1535 -0.2228
 9897TIP3   OH229647   0.800   2.457   3.176  0.5235 -0.4467 -0.4915
 9897TIP3    H129648   0.740   2.436   3.247  0.0550 -0.7618 -0.9694
 9897TIP3    H229649   0.788   2.551   3.160 -1.7468 -0.9566 -2.2643
 9898TIP3   OH229650   6.564   5.290   0.558 -0.4261  0.0006 -0.0674
 9898TIP3    H129651   6.499   5.240   0.609  1.8831 -0.4891  2.6363
 9898TIP3    H229652   6.611   5.223   0.509  2.7016 -0.8202  3.5953
 9899TIP3   OH229653   5.599   3.975   6.308  0.5203 -0.0617 -0.2225
 9899TIP3    H129654   5.650   3.958   6.387  1.0287 -1.6686 -0.8404
 9899TIP3    H229655   5.509   3.981   6.339  0.8082  0.2460  0.5817
 9900TIP3   OH229656   0.239   3.092   3.673  0.3185  0.2003 -0.6823
 9900TIP3    H129657   0.213   3.053   3.756 -2.1563  2.6058 -0.1818
 9900TIP3    H229658   0.325   3.132   3.692 -0.5030  1.3008  1.0055
 9901TIP3   OH229659   7.858   6.216   2.875 -0.0944 -0.3304  0.2931
 9901TIP3    H129660   7.905   6.283   2.825  1.1861 -0.1391  1.6800
 9901TIP3    H229661   7.766   6.241   2.869  0.2680  0.9632 -0.0684
 9902TIP3   OH229662   2.315   5.389   1.519  0.3434  0.4860 -0.5912
 9902TIP3    H129663   2.355   5.476   1.520  0.3743  0.6340 -3.7111
 9902TIP3    H229664   2.251   5.393   1.448 -0.0020 -1.8835 -0.4880
 9903TIP3   OH229665   8.255   0.595   3.924 -0.3789  0.0713 -0.0455
 9903TIP3    H129666   8.217   0.510   3.947  0.3902 -0.4396 -0.5975
 9903TIP3    H229667   8.250   0.647   4.004 -1.0641 -0.4229  0.2342
 9904TIP3   OH229668   7.804   5.874   4.675  0.3384 -0.7234 -0.1537
 9904TIP3    H129669   7.881   5.850   4.727  0.7189 -1.5298 -1.0704
 9904TIP3    H229670   7.828   5.955   4.632 -0.1520  0.2102  1.2629
 9905TIP3   OH229671   0.775   4.699   6.514  0.4939  0.1670 -0.2833
 9905TIP3    H129672   0.749   4.608   6.498  0.0709  0.4553 -1.2905
 9905TIP3    H229673   0.703   4.735   6.566 -0.2810  0.4442 -1.5030
 9906TIP3   OH229674   2.642   3.183   0.731  0.0798  0.3087  0.5719
 9906TIP3    H129675   2.577   3.126   0.771  0.5161  0.5936  1.7062
 9906TIP3    H229676   2.621   3.271   0.763  0.0697  0.6414 -0.3104
 9907TIP3   OH229677   0.797   3.923   1.319  0.2213  0.1319  0.1314
 9907TIP3    H129678   0.798   3.856   1.388 -0.3667  0.3889  0.3994
 9907TIP3    H229679   0.881   3.967   1.327  0.6970 -0.7028 -0.1749
 9908TIP3   OH229680   1.935   0.326   1.713 -0.2067 -0.5275  0.0253
 9908TIP3    H129681   1.880   0.272   1.656 -0.4487  0.3685 -0.6221
 9908TIP3    H229682   1.883   0.338   1.792 -0.4010 -0.7612 -0.0667
 9909TIP3   OH229683   8.290   4.243   2.846  0.3137 -0.0982  0.5670
 9909TIP3    H129684   8.255   4.326   2.879  0.9547  0.9590 -1.2368
 9909TIP3    H229685   8.212   4.194   2.818 -0.0692 -0.0899  1.5911
 9910TIP3   OH229686   7.269   3.109   5.141 -0.1577 -0.3923  0.0055
 9910TIP3    H129687   7.251   3.058   5.220  3.1842 -0.9929  0.5182
 9910TIP3    H229688   7.339   3.169   5.167 -1.9906  2.5681 -1.3841
 9911TIP3   OH229689   7.186   6.228   1.147  0.1984  0.3807  0.4818
 9911TIP3    H129690   7.204   6.138   1.119  1.2926  0.5855  0.5123
 9911TIP3    H229691   7.090   6.231   1.156 -0.1850  0.0890 -2.4537
 9912TIP3   OH229692   1.649   6.544   0.347  0.4743 -0.3470 -0.3112
 9912TIP3    H129693   1.564   6.559   0.305  0.8872  2.6445 -0.3143
 9912TIP3    H229694   1.685   6.467   0.302 -1.8482 -1.1744 -0.8658
 9913TIP3   OH229695   2.419   2.986   3.726 -0.1139  0.2359 -0.0297
 9913TIP3    H129696   2.462   2.933   3.793 -0.7645 -1.1500 -0.6564
 9913TIP3    H229697   2.492   3.027   3.678  0.4285 -0.2734  0.3396
 9914TIP3   OH229698   3.746   1.049   6.227  0.1428  0.0280  0.2181
 9914TIP3    H129699   3.658   1.025   6.198  0.0951 -0.4578  0.7202
 9914TIP3    H229700   3.732   1.108   6.301  0.2209 -0.3298  0.5283
 9915TIP3   OH229701   0.888   3.449   2.754 -0.6150  0.7011  0.4123
 9915TIP3    H129702   0.871   3.439   2.848  0.3845 -2.3368  0.3974
 9915TIP3    H229703   0.982   3.431   2.746 -0.8690 -0.0257 -1.2333
 9916TIP3   OH229704   4.853   6.636   2.679  0.0038  0.0013 -0.1386
 9916TIP3    H129705   4.933   6.585   2.667  0.2533  0.1173  0.9907
 9916TIP3    H229706   4.785   6.570   2.696 -0.0936 -0.0719 -0.7573
 9917TIP3   OH229707   7.031   6.838   6.140  0.4349 -0.2537  0.0116
 9917TIP3    H129708   6.988   6.874   6.217 -1.2697  2.4733 -2.0251
 9917TIP3    H229709   7.124   6.858   6.152  0.0210  1.3958  0.7603
 9918TIP3   OH229710   0.264   7.465   5.306 -0.0444  0.0480  0.3925
 9918TIP3    H129711   0.303   7.525   5.370 -0.7552  1.8189 -0.7763
 9918TIP3    H229712   0.325   7.466   5.232 -0.7138  0.3574 -0.1613
 9919TIP3   OH229713   5.479   6.494   0.649  0.3759  0.8085 -0.0590
 9919TIP3    H129714   5.464   6.495   0.744  0.6933  1.8703 -0.0099
 9919TIP3    H229715   5.492   6.586   0.626  0.8598  0.5026 -1.0473
 9920TIP3   OH229716   6.490   2.754   4.078  0.0122  0.2295  0.6413
 9920TIP3    H129717   6.396   2.775   4.084 -0.1780 -0.7865  1.5698
 9920TIP3    H229718   6.493   2.669   4.035  0.4263 -0.2588  1.6158
 9921TIP3   OH229719   2.823   7.005   1.018  0.5880  0.2919  0.1980
 9921TIP3    H129720   2.864   6.947   0.953  1.3782  0.1907  0.7740
 9921TIP3    H229721   2.825   7.092   0.977 -1.3429 -0.1824 -1.0130
 9922TIP3   OH229722   6.285   6.246   6.431 -0.2933 -0.5308  0.6927
 9922TIP3    H129723   6.228   6.184   6.477 -1.9617  0.5157  0.0716
 9922TIP3    H229724   6.271   6.329   6.475  2.0160 -0.5347  1.5848
 9923TIP3   OH229725   2.883   6.552   3.661  0.6919 -0.0352 -0.3529
 9923TIP3    H129726   2.892   6.630   3.716  2.1961 -0.2277 -0.2829
 9923TIP3    H229727   2.969   6.510   3.665 -0.2053 -1.9591 -0.0299
 9924TIP3   OH229728   4.311   1.532   0.594  0.7781 -0.0549  0.0390
 9924TIP3    H129729   4.377   1.561   0.531  0.8743 -0.3262  0.0152
 9924TIP3    H229730   4.245   1.601   0.592  0.9645  0.1219 -0.0826
 9925TIP3   OH229731   2.275   7.632   3.277  0.2648 -0.2032 -0.6728
 9925TIP3    H129732   2.314   7.546   3.290  0.7764 -0.0367 -1.0589
 9925TIP3    H229733   2.208   7.639   3.346  0.5282 -0.7235 -0.3567
 9926TIP3   OH229734   0.077   4.699   6.318 -0.6406  0.6216  0.0089
 9926TIP3    H129735   0.146   4.665   6.262 -1.8453 -0.7615 -0.7226
 9926TIP3    H229736   0.123   4.743   6.390  0.9409  1.4804 -1.4697
 9927TIP3   OH229737   4.805   2.736   5.480 -0.0634  0.4785 -0.3258
 9927TIP3    H129738   4.838   2.766   5.396  0.6068  0.2689 -0.1460
 9927TIP3    H229739   4.724   2.785   5.493 -0.1337  0.5661 -1.0521
 9928TIP3   OH229740   3.487   6.428   6.089  1.0273 -0.3059 -0.0163
 9928TIP3    H129741   3.411   6.401   6.037 -0.2091 -0.2525  1.6766
 9928TIP3    H229742   3.508   6.515   6.057  0.3301 -0.3011 -0.4823
 9929TIP3   OH229743   7.508   0.432   4.593  0.1464  0.2658 -0.0778
 9929TIP3    H129744   7.543   0.345   4.614  0.8455  0.7732  0.9792
 9929TIP3    H229745   7.417   0.428   4.620  0.6669  0.4452  1.9192
 9930TIP3   OH229746   1.144   1.742   0.502 -0.6202 -0.3867  0.2466
 9930TIP3    H129747   1.153   1.648   0.518  0.2986 -0.7120 -1.8401
 9930TIP3    H229748   1.053   1.753   0.474 -0.1183 -1.0805 -1.7841
 9931TIP3   OH229749   5.172   7.058   5.916  0.2576  0.1374  0.3664
 9931TIP3    H129750   5.098   7.016   5.959  0.7415 -1.8888 -0.6427
 9931TIP3    H229751   5.166   7.150   5.941 -1.5434 -0.3084  1.7490
 9932TIP3   OH229752   2.408   2.710   0.404  0.3856  0.1555 -0.1775
 9932TIP3    H129753   2.326   2.729   0.451  2.2982  0.8775  3.2220
 9932TIP3    H229754   2.445   2.796   0.385  1.2840 -0.1482  0.1449
 9933TIP3   OH229755   0.787   0.894   5.988 -0.2676  0.0227  0.2495
 9933TIP3    H129756   0.807   0.817   6.040 -0.7831  0.7498  1.5703
 9933TIP3    H229757   0.820   0.968   6.040 -0.7096  0.7652 -0.4984
 9934TIP3   OH229758   7.202   2.070   6.134 -0.1924  0.0845 -0.3357
 9934TIP3    H129759   7.154   2.100   6.056 -1.0978  0.3284  0.2996
 9934TIP3    H229760   7.135   2.061   6.202  0.8412  1.8820  1.0092
 9935TIP3   OH229761   7.996   5.913   1.495 -0.4340  0.3227  0.0515
 9935TIP3    H129762   7.999   5.840   1.433 -0.9403 -0.3672  0.8235
 9935TIP3    H229763   8.012   5.873   1.580 -2.8663  0.7501  0.7806
 9936TIP3   OH229764   0.821   2.942   1.834 -0.2445 -0.2589  0.0402
 9936TIP3    H129765   0.792   2.852   1.821  2.7023 -1.4131  0.5738
 9936TIP3    H229766   0.837   2.976   1.746  1.4344 -1.3570 -0.1220
 9937TIP3   OH229767   4.988   2.866   6.456 -0.4990 -0.3749  0.1777
 9937TIP3    H129768   4.959   2.859   6.365 -2.0977  1.7010  0.4613
 9937TIP3    H229769   4.926   2.811   6.505 -0.5676 -0.2881  0.1878
 9938TIP3   OH229770   5.928   1.243   0.404  0.4194 -0.3668  0.1639
 9938TIP3    H129771   5.989   1.221   0.334  0.8371 -0.2058  0.4757
 9938TIP3    H229772   5.844   1.205   0.375  1.0273 -2.0603  0.5154
 9939TIP3   OH229773   4.161   6.284   1.260 -0.2790 -0.3100 -0.0731
 9939TIP3    H129774   4.240   6.305   1.209  0.3939 -0.0790  1.0258
 9939TIP3    H229775   4.109   6.230   1.201  0.8496 -0.7441 -0.7145
 9940TIP3   OH229776   7.992   1.385   6.058 -0.6986 -0.6362 -0.4428
 9940TIP3    H129777   7.959   1.468   6.025 -0.6212 -1.6021 -3.2235
 9940TIP3    H229778   8.087   1.393   6.053 -0.6801 -1.3614 -2.2946
 9941TIP3   OH229779   1.224   4.245   6.760  0.0145 -0.4642  0.4216
 9941TIP3    H129780   1.261   4.174   6.708 -1.4168 -1.6581  0.9465
 9941TIP3    H229781   1.257   4.230   6.849 -0.7433 -0.8496  0.6529
 9942TIP3   OH229782   3.215   2.651   3.593  0.6523 -0.2956  0.3944
 9942TIP3    H129783   3.120   2.647   3.606  0.6211 -0.4674  0.1315
 9942TIP3    H229784   3.234   2.744   3.585 -0.0707 -0.3267 -3.5458
 9943TIP3   OH229785   5.685   4.992   0.854  0.2221  0.0002 -0.0548
 9943TIP3    H129786   5.627   4.919   0.875 -0.7342  0.2747 -1.5770
 9943TIP3    H229787   5.772   4.964   0.884 -0.5308 -0.7636  1.5067
 9944TIP3   OH229788   6.803   4.712   0.779 -0.3848  0.0644  0.4919
 9944TIP3    H129789   6.780   4.768   0.705 -0.2137  0.6064  0.8474
 9944TIP3    H229790   6.800   4.770   0.855  1.4683  0.0074  0.6512
 9945TIP3   OH229791   4.483   7.132   3.829  0.0506 -0.2510 -0.3162
 9945TIP3    H129792   4.437   7.053   3.802 -1.5692  0.0149  1.4514
 9945TIP3    H229793   4.457   7.199   3.766 -1.3483 -0.3241  0.1533
 9946TIP3   OH229794   0.282   7.327   3.329  0.1661  0.3221 -0.2807
 9946TIP3    H129795   0.216   7.258   3.329  0.6360 -0.1399 -0.4821
 9946TIP3    H229796   0.299   7.345   3.422  1.3882 -1.1746 -0.1663
 9947TIP3   OH229797   4.745   2.429   3.160  0.2459  0.1066  0.0590
 9947TIP3    H129798   4.689   2.476   3.098 -0.7319 -1.2172 -0.1233
 9947TIP3    H229799   4.755   2.342   3.121  3.7047  0.7068 -0.6595
 9948TIP3   OH229800   0.468   7.680   3.996 -0.2712  0.2564 -0.1135
 9948TIP3    H129801   0.492   7.737   4.069 -0.5876 -0.8750  0.8921
 9948TIP3    H229802   0.515   7.599   4.012 -1.9832 -0.7526 -0.0043
 9949TIP3   OH229803   0.998   0.464   3.320 -0.2816  0.2908  0.4033
 9949TIP3    H129804   1.002   0.455   3.225  0.8822  2.3912  0.1759
 9949TIP3    H229805   0.904   0.458   3.341 -0.4447 -1.6101 -0.6486
 9950TIP3   OH229806   5.120   1.959   6.352  0.0581 -0.0692 -0.3217
 9950TIP3    H129807   5.092   2.002   6.272  1.1638 -0.5830 -1.0069
 9950TIP3    H229808   5.086   1.870   6.346  4.0254 -1.6918 -2.5901
 9951TIP3   OH229809   6.974   1.746   3.318  0.5254 -0.1115 -0.4248
 9951TIP3    H129810   6.968   1.702   3.234 -0.3540 -0.3855 -0.2249
 9951TIP3    H229811   6.890   1.728   3.361  1.0763 -0.2263  0.6336
 9952TIP3   OH229812   8.123   2.784   5.574 -0.0813  0.4980  0.5903
 9952TIP3    H129813   8.134   2.738   5.657 -0.0487  2.2663  1.6057
 9952TIP3    H229814   8.050   2.845   5.589  0.5852  1.5764 -0.3339
 9953TIP3   OH229815   6.824   6.193   5.295  0.5008  0.0007  0.0713
 9953TIP3    H129816   6.741   6.218   5.336  1.1799  1.9518  0.3295
 9953TIP3    H229817   6.807   6.106   5.259 -0.3758 -1.5219  3.7551
 9954TIP3   OH229818   2.642   7.107   6.196  0.0684  0.2237  0.6451
 9954TIP3    H129819   2.673   7.172   6.133  0.6998 -1.6151 -1.0836
 9954TIP3    H229820   2.706   7.109   6.267  1.4915 -0.1787 -0.5785
 9955TIP3   OH229821   4.936   1.908   6.750  0.8008 -0.1591 -0.7099
 9955TIP3    H129822   4.942   2.000   6.776 -0.2312 -0.3654  0.3339
 9955TIP3    H229823   4.990   1.902   6.672  2.6604  0.8735  0.4058
 9956TIP3   OH229824   2.394   1.326   4.525  0.0889 -0.1385 -0.5644
 9956TIP3    H129825   2.348   1.249   4.493 -1.8043  0.8688 -0.4069
 9956TIP3    H229826   2.412   1.307   4.617  1.6572 -1.2700 -1.0715
 9957TIP3   OH229827   3.839   3.218   6.459 -0.4357 -0.3266 -0.0459
 9957TIP3    H129828   3.886   3.270   6.394 -1.7025 -0.0743 -0.8055
 9957TIP3    H229829   3.765   3.182   6.411 -1.0187 -0.6967  1.1004
 9958TIP3   OH229830   4.890   4.602   5.493 -0.1772  1.1336 -0.3141
 9958TIP3    H129831   4.942   4.523   5.486  2.3314  2.3842  2.2504
 9958TIP3    H229832   4.833   4.601   5.416  1.9980 -1.5186 -2.0443
 9959TIP3   OH229833   2.005   3.651   3.204  0.0304 -0.7872 -0.1368
 9959TIP3    H129834   1.984   3.739   3.237  0.6296  0.2924 -2.4352
 9959TIP3    H229835   2.045   3.607   3.279  1.3674  1.5127  0.6238
 9960TIP3   OH229836   6.854   5.466   5.290 -0.7479 -0.2082 -0.1815
 9960TIP3    H129837   6.789   5.495   5.354  0.9280  0.2085  1.3874
 9960TIP3    H229838   6.822   5.381   5.260 -0.5671 -1.3807  2.7272
 9961TIP3   OH229839   0.718   0.705   0.611 -0.3148  0.3830  0.6528
 9961TIP3    H129840   0.697   0.653   0.534  2.1914 -1.5234  1.1439
 9961TIP3    H229841   0.659   0.673   0.679 -0.1713 -0.3876  0.4169
 9962TIP3   OH229842   5.499   6.938   4.948 -0.9125 -0.1807 -0.2365
 9962TIP3    H129843   5.588   6.903   4.959  0.0925  1.9688 -0.9658
 9962TIP3    H229844   5.467   6.950   5.038  0.2726  0.6873  0.1032
 9963TIP3   OH229845   5.487   0.971   5.990 -0.3627  0.2518 -0.1077
 9963TIP3    H129846   5.425   0.913   6.033 -1.4650  0.7942 -0.9177
 9963TIP3    H229847   5.489   1.050   6.044 -1.1816  0.6399 -0.6274
 9964TIP3   OH229848   2.909   2.133   0.331  0.0071 -0.0794  0.1988
 9964TIP3    H129849   2.854   2.055   0.324  1.9769 -1.5005 -0.6061
 9964TIP3    H229850   2.901   2.175   0.245  1.2622 -1.1367 -0.4868
 9965TIP3   OH229851   0.806   4.548   6.133  0.3726 -0.3160 -0.3516
 9965TIP3    H129852   0.823   4.463   6.175  0.2166  0.4829  1.4022
 9965TIP3    H229853   0.857   4.610   6.184  1.3539  0.5554 -2.2740
 9966TIP3   OH229854   6.612   7.101   4.568 -0.2257 -0.7351  0.1154
 9966TIP3    H129855   6.697   7.058   4.568 -0.0969 -0.9279  4.4018
 9966TIP3    H229856   6.549   7.030   4.562 -0.1063 -0.7696 -0.8879
 9967TIP3   OH229857   3.641   5.498   4.733  0.1432 -0.0926  0.4894
 9967TIP3    H129858   3.620   5.583   4.695 -3.2825 -1.1230 -0.3412
 9967TIP3    H229859   3.688   5.451   4.665  1.8839  1.0127  0.8871
 9968TIP3   OH229860   0.998   4.869   4.189 -0.0902  0.1100  0.5692
 9968TIP3    H129861   1.068   4.923   4.226  4.6524 -3.7783 -1.6564
 9968TIP3    H229862   0.973   4.810   4.260  2.0404 -1.1277  0.3697
 9969TIP3   OH229863   6.108   4.431   0.569  0.7015 -0.4044 -0.5723
 9969TIP3    H129864   6.060   4.403   0.647 -0.5646 -3.0457 -2.1444
 9969TIP3    H229865   6.057   4.505   0.535  0.3969 -0.2205  0.2496
 9970TIP3   OH229866   2.826   5.464   4.311  0.2255 -0.3146  0.1255
 9970TIP3    H129867   2.838   5.557   4.326  0.9198 -0.3777 -0.0104
 9970TIP3    H229868   2.735   5.456   4.283  0.1772  0.3285  0.0858
 9971TIP3   OH229869   6.651   1.863   4.950  0.7708 -0.3017 -0.6384
 9971TIP3    H129870   6.679   1.939   4.897 -0.5807  2.0900  1.8116
 9971TIP3    H229871   6.733   1.825   4.981  1.4920  1.1708 -0.6217
 9972TIP3   OH229872   1.549   6.355   2.209 -0.2238 -0.6375 -0.6732
 9972TIP3    H129873   1.625   6.313   2.167  1.5758  0.3659  1.4125
 9972TIP3    H229874   1.549   6.321   2.298 -1.2341  0.6473 -0.1528
 9973TIP3   OH229875   1.087   5.514   6.030  0.2647  0.5230 -0.0828
 9973TIP3    H129876   1.144   5.454   6.080  1.0171  2.3386  1.3787
 9973TIP3    H229877   1.136   5.596   6.028 -1.0934  1.3375 -1.2915
 9974TIP3   OH229878   2.704   4.327   3.043 -0.2879  0.1782 -0.3423
 9974TIP3    H129879   2.680   4.263   2.976 -1.4178 -1.6471  1.6650
 9974TIP3    H229880   2.649   4.304   3.118  0.7466  2.2728  1.1472
 9975TIP3   OH229881   7.185   7.805   1.697  0.6462 -0.3122  0.2068
 9975TIP3    H129882   7.164   7.731   1.754  0.7524 -0.9910 -0.6183
 9975TIP3    H229883   7.200   7.878   1.757  1.6821 -1.2331  1.1125
 9976TIP3   OH229884   4.731   2.872   1.925  0.5476 -0.3433 -0.2025
 9976TIP3    H129885   4.675   2.800   1.954  0.7639 -0.8062 -0.8986
 9976TIP3    H229886   4.705   2.887   1.834  2.8802 -1.9452 -1.2454
 9977TIP3   OH229887   1.602   5.872   2.314 -0.0693 -0.0985  0.1024
 9977TIP3    H129888   1.537   5.911   2.256  1.3294  3.4068  0.6485
 9977TIP3    H229889   1.667   5.834   2.255 -0.6146 -0.0528 -0.5336
 9978TIP3   OH229890   6.418   6.924   5.241  0.7292 -0.2953 -0.1799
 9978TIP3    H129891   6.444   6.851   5.185 -0.4883  0.5560 -1.9206
 9978TIP3    H229892   6.330   6.902   5.270 -0.0708  0.9020 -1.5649
 9979TIP3   OH229893   3.597   0.414   1.981  0.1958  0.2118  0.1956
 9979TIP3    H129894   3.651   0.491   1.963 -1.0586  1.4506  1.4580
 9979TIP3    H229895   3.575   0.379   1.895 -1.1070  2.6565 -0.5520
 9980TIP3   OH229896   1.483   4.672   1.476  0.3864 -0.2970  0.1603
 9980TIP3    H129897   1.525   4.590   1.452  0.6509 -0.1681  0.1700
 9980TIP3    H229898   1.527   4.699   1.556  1.3781  0.6164 -0.6541
 9981TIP3   OH229899   6.790   1.564   0.866 -0.3024 -0.0368 -0.2826
 9981TIP3    H129900   6.730   1.497   0.835  1.4552 -1.7634 -0.1245
 9981TIP3    H229901   6.838   1.523   0.938  0.2440  1.6985  0.4148
 9982TIP3   OH229902   7.318   3.273   4.630 -0.1870  0.4780 -0.2934
 9982TIP3    H129903   7.265   3.316   4.562 -0.1716 -0.2993 -0.8083
 9982TIP3    H229904   7.269   3.193   4.650 -0.4649  0.9494  1.0002
 9983TIP3   OH229905   2.415   1.372   6.343  0.1067 -0.1442 -0.0057
 9983TIP3    H129906   2.453   1.449   6.300  1.7196  0.8785  2.9621
 9983TIP3    H229907   2.365   1.407   6.416 -2.3982 -1.8058 -0.8002
 9984TIP3   OH229908   4.070   5.341   5.167 -0.0170 -0.1763 -0.3238
 9984TIP3    H129909   4.093   5.266   5.222  2.4406  1.9799  1.8537
 9984TIP3    H229910   3.979   5.361   5.190  0.4122 -0.3822  1.7592
 9985TIP3   OH229911   5.165   6.721   2.350 -0.0456  0.2240  0.4627
 9985TIP3    H129912   5.100   6.657   2.379  1.4781 -1.5785  0.1297
 9985TIP3    H229913   5.218   6.738   2.428  0.8306 -0.5780  0.0643
 9986TIP3   OH229914   5.322   5.300   1.851 -0.0733 -0.6315  0.3985
 9986TIP3    H129915   5.245   5.245   1.842 -0.0630 -0.4277 -1.2729
 9986TIP3    H229916   5.290   5.390   1.841  0.4343 -0.5816 -1.2105
 9987TIP3   OH229917   5.676   5.860   1.451 -0.2457 -0.5061 -0.0829
 9987TIP3    H129918   5.628   5.900   1.378 -0.4083  0.1454  0.3639
 9987TIP3    H229919   5.654   5.915   1.527  0.1087 -1.0268  0.4094
 9988TIP3   OH229920   1.728   6.141   2.335 -0.3963 -0.6980 -0.0018
 9988TIP3    H129921   1.675   6.061   2.341  1.0222 -1.6253  0.5738
 9988TIP3    H229922   1.762   6.154   2.423  2.6300 -1.7809 -0.8976
 9989TIP3   OH229923   5.751   7.289   1.573 -0.5524  0.1044 -0.0175
 9989TIP3    H129924   5.761   7.256   1.484  0.1486 -0.3307  0.2214
 9989TIP3    H229925   5.656   7.303   1.582 -0.6555 -0.0755 -0.7431
 9990TIP3   OH229926   0.082   2.695   1.995 -0.1645  0.3729  0.1197
 9990TIP3    H129927   0.147   2.650   1.942 -0.1203 -0.6789  1.0264
 9990TIP3    H229928   0.134   2.742   2.061 -0.2896 -1.4483  1.6127
 9991TIP3   OH229929   8.170   0.832   0.981 -0.2143 -0.2804 -0.5066
 9991TIP3    H129930   8.177   0.738   0.994  2.0638 -0.3186 -1.4484
 9991TIP3    H229931   8.196   0.845   0.890 -0.6417  1.2553 -0.4381
 9992TIP3   OH229932   6.564   1.266   5.941  0.2295 -0.4534 -0.1251
 9992TIP3    H129933   6.541   1.359   5.941  1.8761  0.0013  0.7943
 9992TIP3    H229934   6.564   1.242   5.848  2.3237  1.2126 -0.6558
 9993TIP3   OH229935   0.160   7.016   4.222 -0.6601  0.3730 -0.6479
 9993TIP3    H129936   0.119   7.021   4.136  0.5463  0.7600 -1.2264
 9993TIP3    H229937   0.148   7.103   4.260  2.1926  1.5450 -2.0935
 9994TIP3   OH229938   7.052   0.681   1.020 -0.3460 -0.3236 -0.0113
 9994TIP3    H129939   7.128   0.650   1.069 -0.1501 -1.4134 -0.9671
 9994TIP3    H229940   7.006   0.739   1.081  0.2625 -1.0959  1.2198
 9995TIP3   OH229941   3.657   5.726   1.641 -0.1099  0.5834 -0.0334
 9995TIP3    H129942   3.633   5.800   1.698  2.4873 -0.3588  2.5466
 9995TIP3    H229943   3.750   5.740   1.622  0.2119 -1.5003 -0.2541
 9996TIP3   OH229944   7.406   0.484   6.265  0.5035  0.0774  0.1722
 9996TIP3    H129945   7.342   0.418   6.239  0.6365  0.4867 -1.2867
 9996TIP3    H229946   7.454   0.444   6.338 -0.2081 -0.9492  0.0971
 9997TIP3   OH229947   5.781   5.027   6.620 -0.4881 -0.0967  0.0263
 9997TIP3    H129948   5.847   5.081   6.576 -0.2393 -0.5527 -0.1704
 9997TIP3    H229949   5.823   5.000   6.702 -0.2538 -0.7419 -0.2937
 9998TIP3   OH229950   4.394   6.356   5.452  0.3249  0.2804 -0.5874
 9998TIP3    H129951   4.303   6.348   5.424  0.4559  2.7101 -2.0806
 9998TIP3    H229952   4.434   6.272   5.428 -1.8672 -1.7337  2.1077
 9999TIP3   OH229953   3.286   5.000   6.089 -0.1221  0.0838  0.1180
 9999TIP3    H129954   3.344   5.073   6.069 -0.4981  0.3637  0.0308
 9999TIP3    H229955   3.334   4.947   6.152  0.9801 -0.6536 -1.2766
10000TIP3   OH229956   2.623   7.152   3.131  0.0940  0.0616  0.2952
10000TIP3    H129957   2.629   7.057   3.123 -2.0068 -0.1105 -0.0178
10000TIP3    H229958   2.624   7.168   3.226 -0.5039 -0.3800  0.3803
10001TIP3   OH229959   2.046   0.531   3.700 -0.6070  0.1449 -0.0758
10001TIP3    H129960   2.069   0.517   3.609  2.3720 -1.7416  0.8185
10001TIP3    H229961   2.044   0.444   3.739  1.8071  1.0149  2.3263
10002TIP3   OH229962   4.323   2.382   5.324 -0.2147 -0.7373  0.6755
10002TIP3    H129963   4.285   2.408   5.240  0.4398 -1.5406  0.1146
10002TIP3    H229964   4.353   2.464   5.362 -1.0399 -0.2873  0.4028
10003TIP3   OH229965   6.319   4.909   2.977 -0.1004  0.0775  0.3896
10003TIP3    H129966   6.236   4.948   2.950 -2.0854 -2.6892  2.1192
10003TIP3    H229967   6.338   4.844   2.909  0.0454 -0.0853  0.5852
10004TIP3   OH229968   4.048   7.835   6.126  0.5522  0.0585  0.5537
10004TIP3    H129969   4.050   7.740   6.119  0.7793  0.0168  1.0952
10004TIP3    H229970   3.969   7.861   6.079 -1.5610 -0.7189  3.3521
10005TIP3   OH229971   5.916   3.282   4.059 -0.2874 -0.5278 -0.0235
10005TIP3    H129972   5.879   3.370   4.068  0.8189 -0.0907  0.5654
10005TIP3    H229973   5.987   3.280   4.123  2.3799 -0.3985 -2.7219
10006TIP3   OH229974   0.846   1.534   0.934  0.3546 -0.1588  0.5507
10006TIP3    H129975   0.906   1.573   0.997  1.0934 -1.4054  0.6523
10006TIP3    H229976   0.773   1.595   0.929  0.7946  0.4980  1.7846
10007TIP3   OH229977   2.597   5.431   0.070  0.4195  0.1492 -0.0088
10007TIP3    H129978   2.669   5.415   0.010 -1.2884 -1.4168 -1.7725
10007TIP3    H229979   2.532   5.364   0.049 -1.3731  1.1913  1.8073
10008TIP3   OH229980   2.719   7.077   6.555  0.1826 -0.2254  0.3158
10008TIP3    H129981   2.646   7.137   6.571  0.1692 -0.7647  2.4962
10008TIP3    H229982   2.751   7.102   6.468 -0.8147  1.8837  0.4793
10009TIP3   OH229983   5.233   1.695   0.888 -0.5900  0.8358  0.3717
10009TIP3    H129984   5.224   1.630   0.957 -0.8796 -0.7275 -1.0916
10009TIP3    H229985   5.326   1.720   0.891 -0.8249  1.6758  2.0448
10010TIP3   OH229986   5.526   5.279   0.709 -0.0921  0.1033 -0.1360
10010TIP3    H129987   5.580   5.303   0.633  0.6905 -3.9330 -1.0678
10010TIP3    H229988   5.441   5.255   0.672 -0.7823  1.1569  0.7041
10011TIP3   OH229989   5.631   2.728   2.360  0.0672 -0.7585 -0.8666
10011TIP3    H129990   5.658   2.768   2.442  0.4931 -0.7964 -0.9862
10011TIP3    H229991   5.591   2.800   2.310  1.1484 -0.3877 -1.2245
10012TIP3   OH229992   3.678   2.876   3.151 -0.4222  0.4777 -0.0169
10012TIP3    H129993   3.641   2.793   3.121 -0.0086  0.3068 -0.0698
10012TIP3    H229994   3.663   2.937   3.079  1.1818 -0.1054 -0.8992
10013TIP3   OH229995   5.399   2.979   2.529 -0.4952 -0.1526 -0.2946
10013TIP3    H129996   5.479   3.013   2.569 -0.4329 -1.1969  0.5056
10013TIP3    H229997   5.422   2.964   2.438  0.4891 -1.1908  0.0956
10014TIP3   OH229998   5.385   4.490   3.742  0.1674  0.1527  0.0302
10014TIP3    H129999   5.334   4.442   3.677  1.4086 -0.2705 -0.6685
10014TIP3    H230000   5.321   4.521   3.806 -1.0985  0.6147 -1.4138
10015TIP3   OH230001   4.942   4.353   1.815  0.0435  0.3214 -0.9541
10015TIP3    H130002   5.036   4.361   1.799 -0.1224  0.6316 -1.8307
10015TIP3    H230003   4.919   4.267   1.782 -0.0950  0.5066 -1.3466
10016TIP3   OH230004   6.869   4.977   5.783 -0.3812  0.0909  0.1000
10016TIP3    H130005   6.925   4.958   5.859  0.7834  0.8396 -0.5419
10016TIP3    H230006   6.930   5.001   5.714 -1.4470 -0.2891 -1.0009
10017TIP3   OH230007   1.467   2.492   3.148  0.3151  0.2791 -0.7117
10017TIP3    H130008   1.423   2.443   3.218  2.1116 -0.9582 -0.3731
10017TIP3    H230009   1.400   2.501   3.080 -0.9310 -0.0963  0.4120
10018TIP3   OH230010   2.909   6.886   4.855  0.3849 -0.4306 -0.0417
10018TIP3    H130011   2.875   6.892   4.766  2.0669  0.2741 -0.6842
10018TIP3    H230012   2.912   6.792   4.873  1.2464 -0.6585 -1.2568
10019TIP3   OH230013   3.419   0.084   3.217 -0.0693 -0.3897  0.0461
10019TIP3    H130014   3.334   0.050   3.190  0.6531 -0.8596 -1.7665
10019TIP3    H230015   3.403   0.177   3.234 -1.3718 -0.8817  1.9518
10020TIP3   OH230016   4.367   2.199   4.711  0.0639 -0.7632 -0.0317
10020TIP3    H130017   4.332   2.285   4.732  1.0760 -0.3384 -0.0220
10020TIP3    H230018   4.310   2.138   4.758 -1.0429 -0.1501 -0.5322
10021TIP3   OH230019   4.646   3.941   4.653  0.0728  0.0009 -0.4432
10021TIP3    H130020   4.691   3.887   4.589  1.6858  0.4005  0.3159
10021TIP3    H230021   4.657   3.894   4.736  1.2716  1.3292  0.1821
10022TIP3   OH230022   3.830   6.714   4.492  0.2150  0.3352 -0.3017
10022TIP3    H130023   3.838   6.761   4.575 -0.4166 -0.0985  0.0125
10022TIP3    H230024   3.772   6.768   4.439 -1.9401 -0.8789  0.6852
10023TIP3   OH230025   7.479   3.177   4.838  0.3338 -0.1918  0.1948
10023TIP3    H130026   7.478   3.198   4.744  0.1686 -0.1789  0.1996
10023TIP3    H230027   7.436   3.252   4.879 -1.4405 -1.1210  0.1034
10024TIP3   OH230028   1.178   1.748   6.553 -0.1414 -0.1533 -0.2805
10024TIP3    H130029   1.137   1.834   6.546  0.1826 -0.1451 -2.7897
10024TIP3    H230030   1.106   1.687   6.565 -0.3006  0.4972  3.3768
10025TIP3   OH230031   2.713   2.631   0.114 -0.7649  0.6724 -0.0557
10025TIP3    H130032   2.740   2.685   0.040 -0.5837  0.1914 -0.3452
10025TIP3    H230033   2.745   2.679   0.191 -1.8517  1.6976 -0.2157
10026TIP3   OH230034   4.381   1.245   1.331 -0.4338 -0.4940 -0.5811
10026TIP3    H130035   4.468   1.210   1.311 -0.8301 -1.8864  0.0214
10026TIP3    H230036   4.324   1.202   1.267 -0.7000  0.3636 -0.9270
10027TIP3   OH230037   4.048   4.549   1.419  0.2101 -0.2765  0.0942
10027TIP3    H130038   3.994   4.470   1.417 -1.7152  0.9778 -0.2990
10027TIP3    H230039   3.997   4.615   1.372  1.9614  1.1028 -0.0219
10028TIP3   OH230040   6.584   5.874   1.586  0.5205 -0.2197 -0.6508
10028TIP3    H130041   6.639   5.891   1.509  0.4950  0.3686 -0.5391
10028TIP3    H230042   6.496   5.864   1.551  0.3938  0.7327 -0.6374
10029TIP3   OH230043   6.217   5.790   0.896 -0.1150  0.0503 -0.1184
10029TIP3    H130044   6.312   5.793   0.910 -0.3381  0.2813  1.5190
10029TIP3    H230045   6.183   5.862   0.948 -1.1606  0.3638 -1.1978
10030TIP3   OH230046   3.513   1.517   0.033  0.2987  0.0372  0.3015
10030TIP3    H130047   3.476   1.584   0.089  0.6844 -0.6906  1.4523
10030TIP3    H230048   3.606   1.512   0.058  0.5335 -0.1497 -0.5538
10031TIP3   OH230049   2.961   4.807   2.554 -0.2551 -0.4770  0.1521
10031TIP3    H130050   3.018   4.883   2.567 -1.7420  0.8413 -0.5855
10031TIP3    H230051   2.960   4.763   2.638 -0.2168  0.9708  0.9426
10032TIP3   OH230052   2.790   3.685   3.319 -0.2880  0.1495  0.2336
10032TIP3    H130053   2.818   3.759   3.265 -1.6752 -0.4802 -1.4455
10032TIP3    H230054   2.869   3.632   3.330 -0.1124 -0.1843 -2.0538
10033TIP3   OH230055   7.768   7.734   4.497  0.1334 -0.1082 -0.3037
10033TIP3    H130056   7.693   7.691   4.456 -0.6156  0.2386  0.6645
10033TIP3    H230057   7.810   7.665   4.548 -0.4626  0.0518  0.4177
10034TIP3   OH230058   3.199   5.056   1.741 -0.6174  0.5612  0.1498
10034TIP3    H130059   3.291   5.078   1.729 -0.0361 -0.4914  2.2591
10034TIP3    H230060   3.156   5.140   1.756  0.2997  0.9392  0.7624
10035TIP3   OH230061   1.357   7.362   2.498 -0.2970 -0.2884 -0.1031
10035TIP3    H130062   1.310   7.388   2.577 -0.3991 -1.7601  0.3420
10035TIP3    H230063   1.299   7.386   2.426 -0.7818 -0.1493  0.3317
10036TIP3   OH230064   1.967   5.024   3.901 -0.0592  0.2489 -0.1610
10036TIP3    H130065   1.976   5.022   3.997 -1.9892 -0.5385  0.0594
10036TIP3    H230066   2.003   4.940   3.872 -1.0124 -0.2638  0.0813
10037TIP3   OH230067   4.051   6.707   5.690  0.1424 -0.0900 -0.3624
10037TIP3    H130068   4.126   6.649   5.676  0.1376 -0.6076  1.4982
10037TIP3    H230069   3.979   6.649   5.715 -0.0428  0.6291  0.8541
10038TIP3   OH230070   6.459   3.089   0.133  0.0606 -0.1627 -0.1059
10038TIP3    H130071   6.452   3.179   0.163 -1.6715  0.0799 -1.0887
10038TIP3    H230072   6.517   3.093   0.057  0.3298  0.0463  0.1093
10039TIP3   OH230073   7.611   3.764   1.931  0.3634 -0.1021 -0.0689
10039TIP3    H130074   7.557   3.766   2.010  0.2787  2.3279 -0.1009
10039TIP3    H230075   7.699   3.787   1.962  0.4791  0.1331 -0.5637
10040TIP3   OH230076   1.000   6.587   3.938 -0.0636 -0.0393 -0.4075
10040TIP3    H130077   1.012   6.632   3.854  0.3247 -0.3307 -0.5105
10040TIP3    H230078   0.907   6.600   3.959  0.0077  0.6900 -0.5006
10041TIP3   OH230079   1.935   7.012   2.545  0.3667  0.0011 -0.2825
10041TIP3    H130080   2.004   6.953   2.576  0.5969 -0.1446 -1.0507
10041TIP3    H230081   1.916   7.068   2.621  0.9889 -0.2730  0.0882
10042TIP3   OH230082   1.494   2.348   4.099 -0.1955 -0.6306 -0.0311
10042TIP3    H130083   1.490   2.342   4.195 -3.3591 -0.1045 -0.0295
10042TIP3    H230084   1.499   2.257   4.070 -1.6486 -0.9445  0.6338
10043TIP3   OH230085   2.034   1.132   1.309 -0.1326  0.9562 -0.1154
10043TIP3    H130086   2.102   1.126   1.241 -0.5431 -1.5611 -0.3991
10043TIP3    H230087   1.955   1.158   1.261 -0.4947 -1.1139 -0.7454
10044TIP3   OH230088   0.530   5.970   3.435 -0.1390  0.4741 -0.6807
10044TIP3    H130089   0.601   6.024   3.403 -0.5165 -0.0805 -2.6013
10044TIP3    H230090   0.558   5.880   3.419 -0.8769  0.2169 -0.6062
10045TIP3   OH230091   3.957   4.646   0.378  0.2637  0.4339 -0.0691
10045TIP3    H130092   4.029   4.583   0.385  0.5749  0.6920 -0.9185
10045TIP3    H230093   3.899   4.623   0.451  2.8563  2.3979  2.8886
10046TIP3   OH230094   3.345   2.424   1.389  0.2076 -0.3549  0.2667
10046TIP3    H130095   3.270   2.389   1.341 -0.6390 -0.5350  1.6617
10046TIP3    H230096   3.346   2.517   1.368 -2.1257  0.2353  2.2783
10047TIP3   OH230097   7.346   4.083   5.748 -0.2483 -0.5249  0.5051
10047TIP3    H130098   7.368   4.043   5.832  0.0619  0.3001  0.8264
10047TIP3    H230099   7.256   4.113   5.759  0.2763  0.8955  1.0670
10048TIP3   OH230100   0.690   5.843   2.381 -0.8991 -0.6762  0.0908
10048TIP3    H130101   0.682   5.758   2.338 -0.4669 -0.5581 -0.2303
10048TIP3    H230102   0.730   5.899   2.315  1.0240 -0.8373  1.0702
10049TIP3   OH230103   2.783   5.793   0.192 -0.4816 -0.0028  0.5919
10049TIP3    H130104   2.860   5.738   0.178 -1.0732 -0.5357 -0.8580
10049TIP3    H230105   2.712   5.731   0.211 -0.9129  0.3214  0.0955
10050TIP3   OH230106   6.733   0.108   1.209 -0.7879  0.2633  0.1978
10050TIP3    H130107   6.707   0.147   1.126 -2.1892 -0.3505  0.3056
10050TIP3    H230108   6.687   0.024   1.211 -2.3652  1.0805  2.4271
10051TIP3   OH230109   5.519   1.368   4.128  0.0928 -0.0021 -0.2321
10051TIP3    H130110   5.590   1.306   4.142 -1.5230 -1.6895  0.9998
10051TIP3    H230111   5.533   1.437   4.193 -0.8306 -1.7346  1.9223
10052TIP3   OH230112   3.236   6.434   5.641 -0.5271 -0.7732 -0.2886
10052TIP3    H130113   3.239   6.485   5.722 -0.7930 -2.6938  0.9900
10052TIP3    H230114   3.148   6.449   5.607 -0.2504  0.4406 -0.5177
10053TIP3   OH230115   1.952   7.055   2.249 -0.1544 -0.4447 -0.6569
10053TIP3    H130116   1.987   7.105   2.322 -1.0281 -1.4926  0.5408
10053TIP3    H230117   1.858   7.050   2.267 -0.2903 -1.2372 -1.5222
10054TIP3   OH230118   0.716   6.716   1.355 -0.5886  0.0669 -0.0226
10054TIP3    H130119   0.662   6.733   1.277  1.1211 -1.4478 -1.6564
10054TIP3    H230120   0.794   6.771   1.342 -0.2721 -0.2291  0.5939
10055TIP3   OH230121   7.950   1.985   1.920  0.4373  0.0541  0.0908
10055TIP3    H130122   8.032   2.001   1.968  1.2901  0.9812 -1.5970
10055TIP3    H230123   7.970   2.011   1.830 -1.7774  0.4309 -0.3320
10056TIP3   OH230124   0.343   2.891   1.886  0.1221 -0.9431  0.6900
10056TIP3    H130125   0.336   2.884   1.981  0.7227  1.3773  0.9525
10056TIP3    H230126   0.353   2.984   1.869 -2.1911 -1.0131 -1.8198
10057TIP3   OH230127   4.642   1.789   0.824  0.4394  0.6688  0.2911
10057TIP3    H130128   4.554   1.807   0.790  1.1498  1.7089 -1.1110
10057TIP3    H230129   4.635   1.701   0.862 -0.5063 -0.6340 -2.5590
10058TIP3   OH230130   5.334   4.846   0.986  0.1507  0.7298 -0.3983
10058TIP3    H130131   5.332   4.940   1.005  1.1625  0.7237 -0.2128
10058TIP3    H230132   5.394   4.837   0.912  0.3439  0.1993 -0.1851
10059TIP3   OH230133   1.365   0.654   1.930 -0.0858 -0.4918 -0.5881
10059TIP3    H130134   1.376   0.726   1.992  1.2843  0.2393 -1.6436
10059TIP3    H230135   1.303   0.595   1.973 -1.9531  1.7130 -0.0858
10060TIP3   OH230136   3.889   2.548   5.294 -0.2133 -0.0721  0.2367
10060TIP3    H130137   3.820   2.494   5.257  0.3811 -1.0222  0.4885
10060TIP3    H230138   3.846   2.595   5.366 -0.6425 -0.5193  0.2760
10061TIP3   OH230139   7.058   6.600   5.613 -0.4100  0.0912 -0.1147
10061TIP3    H130140   6.996   6.669   5.589 -0.1255 -0.0977 -1.5141
10061TIP3    H230141   7.025   6.521   5.569 -1.0139 -0.8212  1.8716
10062TIP3   OH230142   3.637   2.070   1.481 -0.8558 -0.0180 -0.6674
10062TIP3    H130143   3.731   2.060   1.496 -0.8898  0.1413 -0.3310
10062TIP3    H230144   3.622   2.034   1.393 -0.5687 -0.5265 -0.5091
10063TIP3   OH230145   1.738   0.120   6.330  0.1678  0.6518 -0.1498
10063TIP3    H130146   1.653   0.083   6.307 -0.2626  2.2425 -1.2933
10063TIP3    H230147   1.730   0.213   6.312  2.3723  0.7562 -0.9552
10064TIP3   OH230148   6.960   5.436   3.906 -1.0647  0.1555 -0.0698
10064TIP3    H130149   7.031   5.448   3.843 -0.0061  2.3224  1.3923
10064TIP3    H230150   7.004   5.429   3.991 -2.5447  1.3294  0.8513
10065TIP3   OH230151   4.476   2.654   5.092 -0.2855  0.1631  0.4062
10065TIP3    H130152   4.425   2.576   5.072 -2.6269  1.6561  0.2042
10065TIP3    H230153   4.549   2.652   5.030 -1.6046 -0.6570 -1.1909
10066TIP3   OH230154   6.319   3.903   2.332  0.4497  0.1714  0.0756
10066TIP3    H130155   6.303   3.971   2.267 -0.8616  1.1325  1.3378
10066TIP3    H230156   6.384   3.941   2.391  0.4265 -0.0491  0.2443
10067TIP3   OH230157   0.745   3.534   1.532  0.6098 -0.3971  0.0522
10067TIP3    H130158   0.817   3.495   1.582  2.1486  2.2675  0.1482
10067TIP3    H230159   0.756   3.628   1.545 -1.4983  0.2121 -1.9243
10068TIP3   OH230160   5.982   5.699   4.734  0.3007 -0.6121  0.2085
10068TIP3    H130161   6.076   5.701   4.716  0.5046  0.0838  1.2447
10068TIP3    H230162   5.944   5.760   4.671  0.5611 -0.7439 -0.0802
10069TIP3   OH230163   4.220   5.814   0.306  0.0090  1.1855 -0.1015
10069TIP3    H130164   4.250   5.745   0.364 -0.5534  2.2509  1.5142
10069TIP3    H230165   4.142   5.778   0.264  0.5195  0.3405 -0.3530
10070TIP3   OH230166   4.061   5.573   4.550  0.2766  0.0054 -0.2223
10070TIP3    H130167   3.997   5.626   4.598 -0.1939  0.6407 -1.4970
10070TIP3    H230168   4.010   5.499   4.516  0.7099 -0.7132  0.6402
10071TIP3   OH230169   7.455   4.463   0.144  0.5116  0.1084  0.0576
10071TIP3    H130170   7.394   4.481   0.072  0.0329  1.1313  0.7020
10071TIP3    H230171   7.541   4.489   0.109  0.1411  1.5995  0.1896
10072TIP3   OH230172   0.545   6.660   4.495  0.1342 -0.4080  0.0487
10072TIP3    H130173   0.552   6.569   4.527 -2.0070 -0.1236  1.5169
10072TIP3    H230174   0.629   6.700   4.520  1.2683 -2.0348 -0.9466
10073TIP3   OH230175   3.775   6.842   5.258  0.2813 -0.0874 -0.3674
10073TIP3    H130176   3.725   6.764   5.282 -0.4490  0.8759  1.4643
10073TIP3    H230177   3.853   6.838   5.314  0.9327 -0.2114 -1.2763
10074TIP3   OH230178   6.969   0.990   0.313  0.0922  0.3217 -0.4132
10074TIP3    H130179   6.978   0.921   0.247  0.6637 -0.2821  0.2741
10074TIP3    H230180   7.058   1.017   0.332 -0.1397  1.4093 -0.8248
10075TIP3   OH230181   2.739   4.856   3.620  0.4136  0.2043  0.0313
10075TIP3    H130182   2.646   4.873   3.609  0.7524  2.3573 -0.0264
10075TIP3    H230183   2.770   4.832   3.533 -0.1170 -0.8197  0.1125
10076TIP3   OH230184   7.843   3.247   4.110  0.3704 -0.0913  0.1989
10076TIP3    H130185   7.929   3.230   4.071  0.3870 -2.0615  0.9474
10076TIP3    H230186   7.830   3.341   4.101  1.9171  0.0143 -1.3190
10077TIP3   OH230187   7.764   0.662   0.452  0.0420 -0.3457 -0.0746
10077TIP3    H130188   7.670   0.671   0.468 -0.7479 -3.7919 -1.9098
10077TIP3    H230189   7.791   0.749   0.423 -2.6315  0.6784  0.1625
10078TIP3   OH230190   6.676   7.309   5.330  0.5140 -0.0320 -0.2466
10078TIP3    H130191   6.593   7.284   5.372  1.2869 -1.0327  0.7235
10078TIP3    H230192   6.650   7.375   5.266 -0.9951 -0.0375  0.2988
10079TIP3   OH230193   8.162   0.846   0.723 -0.3186  0.1226 -0.7123
10079TIP3    H130194   8.132   0.925   0.679 -0.1800 -0.0840 -1.1906
10079TIP3    H230195   8.112   0.775   0.681  1.5173 -0.3436 -2.2377
10080TIP3   OH230196   5.200   1.889   0.338  0.4008 -0.3588 -0.5667
10080TIP3    H130197   5.134   1.925   0.279 -1.8339  0.7259  2.3670
10080TIP3    H230198   5.258   1.963   0.356  0.2544 -0.2971 -0.3444
10081TIP3   OH230199   3.980   2.996   6.731 -0.4288  0.4093  0.1827
10081TIP3    H130200   3.891   2.963   6.743 -0.2838  0.1172  0.4863
10081TIP3    H230201   4.035   2.929   6.771 -0.1847  1.6750  2.0842
10082TIP3   OH230202   7.225   7.326   1.931 -0.2030 -0.7187  0.0754
10082TIP3    H130203   7.183   7.303   2.014 -3.6111 -1.1549 -1.5726
10082TIP3    H230204   7.260   7.244   1.898 -0.2498 -0.8635  0.3843
10083TIP3   OH230205   3.863   2.886   4.077 -0.7676  0.0987 -0.7001
10083TIP3    H130206   3.876   2.806   4.027 -1.3579 -0.3527 -0.1495
10083TIP3    H230207   3.920   2.950   4.035 -1.5656 -0.1524 -2.2058
10084TIP3   OH230208   7.702   3.205   5.664  0.3054  0.2121 -0.1629
10084TIP3    H130209   7.740   3.287   5.696 -0.7685  1.1563 -1.2307
10084TIP3    H230210   7.749   3.137   5.713  1.6519  1.4175  0.3030
10085TIP3   OH230211   7.044   3.359   1.645 -0.1983  0.4783 -0.0542
10085TIP3    H130212   6.954   3.333   1.667 -0.3618  0.0170 -1.2062
10085TIP3    H230213   7.035   3.438   1.593  0.2341  2.0776  2.1622
10086TIP3   OH230214   4.959   4.527   3.090  0.0874  0.2860 -0.8010
10086TIP3    H130215   5.043   4.570   3.076 -0.1083  0.5355 -1.2049
10086TIP3    H230216   4.898   4.572   3.033 -0.5391  0.7635  0.2080
10087TIP3   OH230217   0.990   0.163   2.102 -0.4707  0.2084 -1.0222
10087TIP3    H130218   1.041   0.134   2.026  0.4178  1.4499 -0.9219
10087TIP3    H230219   0.983   0.084   2.156  0.9218 -0.1202 -1.2751
10088TIP3   OH230220   0.061   5.040   2.764 -0.0138 -0.3664  0.7415
10088TIP3    H130221   0.024   5.051   2.677 -1.4255 -2.1148  1.0662
10088TIP3    H230222  -0.005   5.077   2.824 -1.0941 -2.9521  1.2829
10089TIP3   OH230223   4.401   2.156   1.941  0.3860  0.0476  0.0588
10089TIP3    H130224   4.320   2.115   1.971  0.8413  0.7179  2.4616
10089TIP3    H230225   4.382   2.250   1.941  1.4454  0.3091  1.8328
10090TIP3   OH230226   7.095   5.654   6.312  0.3149  0.1202 -0.1232
10090TIP3    H130227   7.073   5.614   6.227  1.1128 -0.7681  0.0677
10090TIP3    H230228   7.189   5.672   6.306  0.1229  1.2618  0.1077
10091TIP3   OH230229   6.145   3.669   0.286  0.1065  0.1209 -0.1190
10091TIP3    H130230   6.136   3.575   0.271  0.2154 -0.2068  1.6460
10091TIP3    H230231   6.239   3.682   0.303 -0.1547  0.2511  1.3251
10092TIP3   OH230232   8.102   5.231   6.145  0.1320  0.5775  1.1518
10092TIP3    H130233   8.062   5.197   6.225  2.7871 -1.0953  1.8886
10092TIP3    H230234   8.175   5.284   6.175  1.6282 -0.6786 -0.0796
10093TIP3   OH230235   6.476   7.430   4.293 -0.8464 -0.6508 -0.2664
10093TIP3    H130236   6.548   7.411   4.233 -1.1248 -0.3488 -0.6945
10093TIP3    H230237   6.443   7.515   4.266  0.7776  0.8352  2.0139
10094TIP3   OH230238   0.762   0.413   1.103  0.0869 -0.5335 -0.3429
10094TIP3    H130239   0.670   0.434   1.082  0.0075 -1.0023 -0.4660
10094TIP3    H230240   0.760   0.386   1.194  0.0991 -0.5749 -0.3552
10095TIP3   OH230241   4.237   1.506   2.048  0.0472 -0.4647 -0.3918
10095TIP3    H130242   4.293   1.437   2.013 -0.4676 -0.2431 -1.7006
10095TIP3    H230243   4.151   1.490   2.009  0.0067  1.1174 -1.0450
10096TIP3   OH230244   3.902   4.472   5.905 -0.9231 -0.1635 -0.4664
10096TIP3    H130245   3.888   4.560   5.871  0.2496  0.2180  0.0129
10096TIP3    H230246   3.979   4.440   5.858  0.0820 -0.0308  1.0395
10097TIP3   OH230247   0.413   2.447   5.806 -0.2095  0.4343  0.3942
10097TIP3    H130248   0.394   2.521   5.865  0.7369  0.5695  0.5472
10097TIP3    H230249   0.502   2.464   5.775  0.2717 -0.9646  0.9256
10098TIP3   OH230250   4.503   0.497   4.160 -0.1988 -0.2430 -0.2058
10098TIP3    H130251   4.568   0.505   4.091  0.4982 -1.3848  0.2936
10098TIP3    H230252   4.509   0.580   4.208  1.0638 -0.4375 -0.0098
10099TIP3   OH230253   8.060   3.154   3.969  0.0956  0.4973 -0.1021
10099TIP3    H130254   8.150   3.150   4.000  0.1795  1.4920 -0.1816
10099TIP3    H230255   8.025   3.067   3.986  1.9306 -0.8798 -2.8308
10100TIP3   OH230256   2.269   3.795   4.994 -0.0470 -0.2240  0.0846
10100TIP3    H130257   2.197   3.834   4.945 -0.2171  1.7695  1.7521
10100TIP3    H230258   2.339   3.784   4.930 -1.1216 -0.1955 -1.1238
10101TIP3   OH230259   4.179   5.587   3.421  0.0504 -0.0478 -0.4058
10101TIP3    H130260   4.264   5.545   3.404  0.6036  1.3846 -1.3793
10101TIP3    H230261   4.130   5.522   3.471  2.0472 -0.5744  0.9953
10102TIP3   OH230262   5.318   2.716   2.115  0.5961 -0.3274 -0.6484
10102TIP3    H130263   5.346   2.688   2.202 -0.5204 -2.2548 -0.8397
10102TIP3    H230264   5.269   2.797   2.130 -0.5160 -1.1965  0.7050
10103TIP3   OH230265   6.134   7.475   0.145  0.4718 -0.0871 -0.0268
10103TIP3    H130266   6.133   7.434   0.059  0.9824 -0.5241  0.1729
10103TIP3    H230267   6.198   7.425   0.195 -3.4389 -3.3527  2.3007
10104TIP3   OH230268   4.532   5.944   3.568  0.7508  0.0606  0.0288
10104TIP3    H130269   4.524   6.023   3.622 -1.9117  0.1220 -0.3402
10104TIP3    H230270   4.573   5.880   3.627  0.1451  0.8348  1.3514
10105TIP3   OH230271   1.053   1.990   2.212  0.5325 -0.7256 -0.6858
10105TIP3    H130272   1.124   2.008   2.152  1.0899 -0.9267 -0.0943
10105TIP3    H230273   1.012   2.075   2.228  0.0744 -0.7411 -1.7110
10106TIP3   OH230274   4.341   4.846   3.778 -0.2145  0.0550 -0.7500
10106TIP3    H130275   4.247   4.828   3.782 -0.0777 -0.6365 -0.6803
10106TIP3    H230276   4.383   4.764   3.802  0.4325 -0.0223 -2.0433
10107TIP3   OH230277   2.857   2.831   1.626 -0.3465 -0.0697  0.4741
10107TIP3    H130278   2.853   2.918   1.665 -0.3862 -0.6806  1.8801
10107TIP3    H230279   2.945   2.825   1.590  0.0873  0.0957  1.4846
10108TIP3   OH230280   5.832   0.776   4.502  0.3078  0.0493 -0.6320
10108TIP3    H130281   5.750   0.824   4.492  0.5625  0.6410  0.0285
10108TIP3    H230282   5.806   0.689   4.530 -0.0976  0.2358 -0.4248
10109TIP3   OH230283   2.858   2.774   6.693 -0.1354  0.1307 -0.2644
10109TIP3    H130284   2.825   2.818   6.615 -0.2802  0.3052 -0.1048
10109TIP3    H230285   2.925   2.714   6.660 -0.9772 -0.6188 -0.6657
10110TIP3   OH230286   5.893   7.257   5.814 -0.7505  0.6844 -0.1163
10110TIP3    H130287   5.889   7.165   5.842 -0.5421  0.4359 -0.8726
10110TIP3    H230288   5.806   7.275   5.779 -0.1616  0.0947 -1.9808
10111TIP3   OH230289   4.918   2.210   2.021  0.1008  0.7906  0.5208
10111TIP3    H130290   4.825   2.200   2.039  0.0779 -2.6343 -0.6912
10111TIP3    H230291   4.922   2.252   1.936 -0.4382 -0.3539 -0.0911
10112TIP3   OH230292   0.128   0.027   3.510  0.3017 -0.1749  0.1291
10112TIP3    H130293   0.213   0.070   3.517 -0.8331  2.2738  0.3125
10112TIP3    H230294   0.067   0.099   3.494 -1.4811 -2.0697 -2.3435
10113TIP3   OH230295   7.984   1.547   2.068 -0.1418 -0.1655  0.4383
10113TIP3    H130296   7.930   1.478   2.106  0.3520 -0.8579 -0.1068
10113TIP3    H230297   7.922   1.604   2.023 -0.4782 -0.6639  0.2620
10114TIP3   OH230298   5.437   0.068   1.136  0.1170  0.4513 -0.0611
10114TIP3    H130299   5.385   0.103   1.208  0.0783 -0.9665  0.6330
10114TIP3    H230300   5.493   0.141   1.109 -0.1249  1.1110  1.1598
10115TIP3   OH230301   3.947   2.278   1.405 -0.0886  0.0503  0.5878
10115TIP3    H130302   3.918   2.271   1.315  1.1610  1.8573 -0.0210
10115TIP3    H230303   3.938   2.190   1.441  2.9364 -1.7083 -2.3985
10116TIP3   OH230304   3.725   6.268   4.740 -0.5580 -0.4680 -0.2137
10116TIP3    H130305   3.818   6.251   4.730 -0.6988 -0.4717 -1.6033
10116TIP3    H230306   3.683   6.183   4.725 -0.8762 -0.1618 -1.0707
10117TIP3   OH230307   1.677   2.631   4.331  0.4898 -0.1156 -0.0881
10117TIP3    H130308   1.738   2.599   4.398  1.7265 -1.2133 -1.6462
10117TIP3    H230309   1.601   2.573   4.339  1.2037 -1.1481 -0.4862
10118TIP3   OH230310   3.484   4.824   5.549  0.3837  0.5767  0.0856
10118TIP3    H130311   3.494   4.836   5.454  1.1555  1.0970  0.2296
10118TIP3    H230312   3.398   4.782   5.558  0.7659 -0.4626 -0.9117
10119TIP3   OH230313   8.255   6.333   1.104  0.5982 -0.0166  0.5048
10119TIP3    H130314   8.180   6.393   1.108 -1.3028 -2.2680  0.7501
10119TIP3    H230315   8.305   6.362   1.028  0.2631  2.3694  1.1152
10120TIP3   OH230316   7.137   4.809   2.683 -0.5482  0.0657  0.2393
10120TIP3    H130317   7.088   4.735   2.718  2.5148 -2.1347  0.2970
10120TIP3    H230318   7.101   4.823   2.596 -1.2942 -1.4420  0.2799
10121TIP3   OH230319   6.765   4.388   3.711 -0.4993 -0.0123  0.2768
10121TIP3    H130320   6.830   4.444   3.671 -0.4991 -1.0400 -1.2586
10121TIP3    H230321   6.689   4.445   3.725  0.2188  0.8471  0.7539
10122TIP3   OH230322   0.288   6.508   2.541  0.8908 -0.3043 -0.1850
10122TIP3    H130323   0.218   6.570   2.520  0.5733  0.7768  3.4587
10122TIP3    H230324   0.279   6.439   2.475 -3.0249  0.2620 -0.4665
10123TIP3   OH230325   3.588   6.658   0.851  0.3591 -0.0756  0.3241
10123TIP3    H130326   3.595   6.591   0.918 -0.1271  1.0976  1.5781
10123TIP3    H230327   3.673   6.701   0.850  1.0283 -1.3489 -1.2174
10124TIP3   OH230328   4.499   3.786   1.945 -0.0328  0.2824 -0.0061
10124TIP3    H130329   4.472   3.711   1.997 -1.3122  1.0504  0.4623
10124TIP3    H230330   4.486   3.861   2.002 -1.2574  1.1208 -1.3268
10125TIP3   OH230331   3.073   6.357   1.043 -0.2624 -0.3966 -0.1817
10125TIP3    H130332   3.113   6.341   0.957 -1.6017 -1.0623 -0.7175
10125TIP3    H230333   3.100   6.282   1.096 -0.8730 -0.9164 -0.5837
10126TIP3   OH230334   1.830   3.684   4.059 -0.0431 -0.4713  0.0612
10126TIP3    H130335   1.761   3.748   4.041  0.6256  1.2107  2.8254
10126TIP3    H230336   1.912   3.732   4.045  0.5087 -1.2943  0.3943
10127TIP3   OH230337   5.438   2.312   2.154  0.4321 -0.4247 -0.1846
10127TIP3    H130338   5.359   2.265   2.128  0.3401 -0.6458  0.4824
10127TIP3    H230339   5.475   2.345   2.071  0.2958 -1.3430 -0.6229
10128TIP3   OH230340   0.804   2.819   1.306 -0.2833  0.3600 -0.3268
10128TIP3    H130341   0.865   2.770   1.252 -0.0254 -0.1140  0.3726
10128TIP3    H230342   0.718   2.783   1.284 -0.3149  0.9675 -1.2483
10129TIP3   OH230343   8.259   6.883   6.271  0.3480 -0.3599  0.1651
10129TIP3    H130344   8.313   6.949   6.227  0.9183 -0.8860  0.0597
10129TIP3    H230345   8.301   6.872   6.357 -1.6901  1.8680  1.5874
10130TIP3   OH230346   2.847   4.570   6.365  0.6011  0.2805  0.3959
10130TIP3    H130347   2.860   4.580   6.460  0.8012 -0.9458  0.5098
10130TIP3    H230348   2.903   4.638   6.327  1.4542  0.0205  1.1280
10131TIP3   OH230349   6.628   2.081   6.000  0.0503 -0.1270 -0.0359
10131TIP3    H130350   6.574   2.087   6.078  1.7203 -2.2961  1.4008
10131TIP3    H230351   6.706   2.133   6.021 -0.7313  1.7961 -1.5309
10132TIP3   OH230352   0.404   2.214   5.447 -0.4045 -0.5562  0.0181
10132TIP3    H130353   0.322   2.177   5.478 -0.3089 -0.3982  0.4683
10132TIP3    H230354   0.469   2.144   5.460 -0.2522 -0.2909  0.7310
10133TIP3   OH230355   1.396   5.148   5.488  0.1649  0.2823 -0.0313
10133TIP3    H130356   1.406   5.220   5.426 -1.7630 -0.1502 -0.9369
10133TIP3    H230357   1.306   5.154   5.518 -0.0497 -1.6915 -0.1002
10134TIP3   OH230358   0.566   1.277   4.682 -0.2910 -0.5480  0.2481
10134TIP3    H130359   0.493   1.338   4.679 -1.1109 -1.3740  2.0969
10134TIP3    H230360   0.632   1.322   4.735 -0.4391 -0.7782  0.6337
10135TIP3   OH230361   1.996   6.712   4.259  0.3911  0.3912  0.2309
10135TIP3    H130362   1.982   6.786   4.199  0.6346 -0.0069 -0.3250
10135TIP3    H230363   1.955   6.638   4.215  0.0237  0.2216  0.8546
10136TIP3   OH230364   2.608   6.842   4.179 -0.3115  0.0672  1.0118
10136TIP3    H130365   2.617   6.937   4.169  1.6481 -0.3022 -2.3907
10136TIP3    H230366   2.515   6.825   4.160 -0.5120  1.2236  0.8776
10137TIP3   OH230367   1.290   6.651   4.940  0.3609 -0.2267  0.5265
10137TIP3    H130368   1.293   6.615   4.852  0.2440  0.4713  0.2301
10137TIP3    H230369   1.382   6.653   4.968  0.5424  0.7757 -0.0960
10138TIP3   OH230370   1.132   1.338   0.817  0.0151 -0.1107  0.0184
10138TIP3    H130371   1.063   1.276   0.838  1.1731 -1.7019 -0.6667
10138TIP3    H230372   1.139   1.395   0.894 -1.6734 -0.2548  0.2978
10139TIP3   OH230373   2.548   3.382   5.948 -0.1177  0.2896 -0.1245
10139TIP3    H130374   2.487   3.343   6.010  1.0003 -0.3983  0.5830
10139TIP3    H230375   2.514   3.359   5.862 -1.1420  0.3893  0.2421
10140TIP3   OH230376   5.349   4.205   2.590 -0.2901  0.1751  0.3109
10140TIP3    H130377   5.399   4.287   2.585 -0.0288 -0.0333 -0.6296
10140TIP3    H230378   5.408   4.144   2.634  0.7746 -0.3975 -1.8013
10141TIP3   OH230379   4.928   6.273   0.889 -0.0339 -0.3947  1.1093
10141TIP3    H130380   4.968   6.212   0.951 -2.6978 -2.3769  1.0403
10141TIP3    H230381   4.889   6.341   0.944  3.2648  1.6484  1.1730
10142TIP3   OH230382   0.489   0.489   6.687  0.4427 -0.2492  0.4277
10142TIP3    H130383   0.421   0.421   6.691  0.9751 -1.1674 -2.9673
10142TIP3    H230384   0.559   0.456   6.743 -0.1994 -1.4147  0.5933
10143TIP3   OH230385   4.975   1.348   4.433  0.5768 -0.5485 -0.3491
10143TIP3    H130386   4.890   1.375   4.468  1.2487  0.5559  0.4924
10143TIP3    H230387   4.956   1.322   4.342 -0.5722  0.1753 -0.3412
10144TIP3   OH230388   2.290   4.036   4.428  0.0768  0.3690 -0.4635
10144TIP3    H130389   2.306   4.011   4.337 -1.4632 -0.4137 -0.5612
10144TIP3    H230390   2.340   4.116   4.440 -0.1452  0.8171 -2.1931
10145TIP3   OH230391   4.716   1.068   3.462  0.2533  0.0719 -0.2018
10145TIP3    H130392   4.783   1.008   3.431 -0.0466  0.9269 -2.7448
10145TIP3    H230393   4.636   1.038   3.419 -0.3366  1.0032  0.2197
10146TIP3   OH230394   1.105   0.291   4.213 -0.2046 -0.0409 -0.5876
10146TIP3    H130395   1.094   0.218   4.152  0.6035  0.2551 -1.1048
10146TIP3    H230396   1.033   0.351   4.191 -0.8509 -0.6498 -0.1855
10147TIP3   OH230397   5.791   1.681   3.765  0.0978  0.4495  0.5619
10147TIP3    H130398   5.824   1.754   3.712  2.0123  0.4663  1.6998
10147TIP3    H230399   5.705   1.711   3.795  0.4468  1.8571  0.2444
10148TIP3   OH230400   4.888   0.877   3.424  0.1089  0.1311  0.1272
10148TIP3    H130401   4.907   0.812   3.491 -0.7255 -0.8026 -0.5051
10148TIP3    H230402   4.970   0.885   3.374  0.4288  0.0973  0.6417
10149TIP3   OH230403   7.367   1.448   6.284 -0.7136 -0.3925 -0.1394
10149TIP3    H130404   7.446   1.411   6.323  0.9610 -0.0425 -2.9260
10149TIP3    H230405   7.363   1.410   6.197 -2.6339  0.9851 -0.7257
10150TIP3   OH230406   7.095   5.487   5.415  0.2790  0.4828 -0.0939
10150TIP3    H130407   7.005   5.463   5.391  0.5085 -1.5765  0.8504
10150TIP3    H230408   7.140   5.500   5.331 -0.7871  1.1246 -0.5785
10151TIP3   OH230409   4.211   5.961   4.149 -0.1033 -0.0417  0.0874
10151TIP3    H130410   4.211   5.906   4.227  5.9400 -2.3648 -0.9954
10151TIP3    H230411   4.255   6.042   4.177 -1.3739  0.7579 -0.1552
10152TIP3   OH230412   7.078   3.275   5.041 -0.1989  0.1164  0.2724
10152TIP3    H130413   7.149   3.216   5.065  0.5428  0.8027 -0.1827
10152TIP3    H230414   7.103   3.309   4.955 -0.9891  0.5121  0.1893
10153TIP3   OH230415   7.407   7.413   6.604 -0.5435  0.2634 -0.0652
10153TIP3    H130416   7.316   7.421   6.634 -0.6837  0.0807 -0.4266
10153TIP3    H230417   7.451   7.489   6.642 -0.8655  0.3913  0.0606
10154TIP3   OH230418   2.258   7.761   4.766  0.0905 -0.1824  0.0611
10154TIP3    H130419   2.198   7.701   4.723  1.0883 -0.6771 -0.7000
10154TIP3    H230420   2.294   7.710   4.839 -1.0751  0.4215  1.0936
10155TIP3   OH230421   3.637   4.399   4.256  0.1470 -0.0401 -0.4522
10155TIP3    H130422   3.662   4.470   4.198 -0.5020  0.1092 -0.5572
10155TIP3    H230423   3.713   4.340   4.257  0.8170  0.8158 -0.0905
10156TIP3   OH230424   0.701   4.343   0.419 -0.2531  0.1577  0.3160
10156TIP3    H130425   0.643   4.292   0.476 -2.1237  1.5773 -0.2530
10156TIP3    H230426   0.761   4.386   0.480 -1.9226  1.2796  1.2410
10157TIP3   OH230427   2.040   4.804   2.294 -0.3006 -0.2604 -0.4535
10157TIP3    H130428   2.028   4.830   2.386  0.2292  0.5659 -0.6100
10157TIP3    H230429   2.043   4.708   2.297 -0.2927 -0.2445  0.3957
10158TIP3   OH230430   2.154   1.616   0.260 -0.1023  0.4410  0.3183
10158TIP3    H130431   2.059   1.626   0.254  0.1069  1.8216 -1.6561
10158TIP3    H230432   2.180   1.579   0.176  1.0151 -1.2256  1.3306
10159TIP3   OH230433   0.344   7.228   0.917  0.3646 -0.1301  0.6037
10159TIP3    H130434   0.337   7.245   1.011  3.3688 -1.8517  1.2746
10159TIP3    H230435   0.264   7.180   0.895 -0.9872  1.4016  1.9351
10160TIP3   OH230436   3.350   2.130   4.634 -0.0096 -0.2469  0.0291
10160TIP3    H130437   3.377   2.045   4.668 -1.0605  0.1786  2.0346
10160TIP3    H230438   3.255   2.129   4.638 -0.0346  1.0340  0.0780
10161TIP3   OH230439   1.452   1.733   2.112 -0.4746  0.1911 -0.0190
10161TIP3    H130440   1.544   1.761   2.115 -0.0297 -1.2260  0.3566
10161TIP3    H230441   1.439   1.683   2.192 -0.5758 -2.4572 -1.5487
10162TIP3   OH230442   5.983   0.397   1.711  0.3737  0.0230  0.1944
10162TIP3    H130443   5.913   0.460   1.698  0.1179 -0.2337  0.3163
10162TIP3    H230444   6.023   0.387   1.624  0.6915  0.6703  0.2611
10163TIP3   OH230445   3.793   1.887   0.248 -0.2987  1.0154 -0.0063
10163TIP3    H130446   3.817   1.977   0.226  0.0694  1.1518  0.9188
10163TIP3    H230447   3.875   1.845   0.272 -0.5062  0.5015 -0.1743
10164TIP3   OH230448   3.164   4.039   5.175  0.1419 -0.2727  0.3981
10164TIP3    H130449   3.246   4.087   5.175 -0.1445  0.2437 -0.4504
10164TIP3    H230450   3.114   4.076   5.102 -0.5681 -1.0409  0.4704
10165TIP3   OH230451   6.940   3.333   4.646 -0.5513  0.3332 -0.1352
10165TIP3    H130452   6.913   3.347   4.555  0.3522 -0.5606 -0.5645
10165TIP3    H230453   6.951   3.238   4.654  0.6584  0.4998  0.5115
10166TIP3   OH230454   6.521   5.968   2.517 -0.6107 -0.1218  0.0497
10166TIP3    H130455   6.594   5.908   2.531  1.5181  1.3762 -3.3200
10166TIP3    H230456   6.501   5.960   2.423 -3.2547  1.2413  0.3915
10167TIP3   OH230457   2.807   5.826   3.006 -0.3427 -0.0758 -0.5365
10167TIP3    H130458   2.830   5.752   2.950 -0.9920 -0.7943  0.1296
10167TIP3    H230459   2.870   5.823   3.077 -0.4782 -0.1028 -0.4163
10168TIP3   OH230460   2.882   6.087   5.071  0.5564  0.1474 -0.2367
10168TIP3    H130461   2.857   6.010   5.020  0.4251 -0.1227  0.2245
10168TIP3    H230462   2.805   6.144   5.067  0.5014  0.0736 -0.2438
10169TIP3   OH230463   6.906   7.196   5.138  0.5375  0.0464 -0.0502
10169TIP3    H130464   6.958   7.140   5.196  0.6493  0.9747  0.7673
10169TIP3    H230465   6.836   7.229   5.193 -0.1899 -0.1742 -0.8216
10170TIP3   OH230466   2.172   0.093   2.233  0.2187  0.8043 -0.0258
10170TIP3    H130467   2.245   0.032   2.248 -0.4019  0.2746  0.9314
10170TIP3    H230468   2.186   0.162   2.297 -0.1588  0.6544  0.2241
10171TIP3   OH230469   7.823   1.773   3.825 -0.8259 -0.1266  0.2210
10171TIP3    H130470   7.751   1.765   3.763 -0.4920  0.8534 -0.3186
10171TIP3    H230471   7.870   1.690   3.819 -1.1624 -0.2745 -0.3790
10172TIP3   OH230472   1.401   7.510   3.898 -0.2378 -0.3382 -0.4336
10172TIP3    H130473   1.351   7.511   3.979 -0.0629 -0.2629 -0.3258
10172TIP3    H230474   1.415   7.602   3.877  0.3975 -0.3603 -0.1242
10173TIP3   OH230475   5.403   5.165   3.792  0.0079  0.3812 -0.1019
10173TIP3    H130476   5.420   5.231   3.725  0.6698  1.2983  0.9517
10173TIP3    H230477   5.458   5.189   3.866 -0.4988 -0.7699  0.6957
10174TIP3   OH230478   5.495   0.054   3.203  0.1120 -0.2714  0.2361
10174TIP3    H130479   5.440   0.110   3.147  0.4807 -0.8989 -0.7777
10174TIP3    H230480   5.438  -0.018   3.229  0.4560 -1.0027 -0.9388
10175TIP3   OH230481   2.963   5.475   1.961 -0.2558 -0.3715 -0.1916
10175TIP3    H130482   2.955   5.458   1.867  0.6727  1.6241 -0.6865
10175TIP3    H230483   2.947   5.390   2.002 -2.4074 -0.9428 -2.0322
10176TIP3   OH230484   7.214   1.343   5.224 -0.1776 -0.4665  0.3941
10176TIP3    H130485   7.224   1.395   5.144 -1.4405 -1.7821 -0.6597
10176TIP3    H230486   7.273   1.385   5.287  0.0460  1.2464 -0.8882
10177TIP3   OH230487   3.220   2.780   2.406 -0.0192  0.0740  0.0751
10177TIP3    H130488   3.314   2.777   2.387 -0.1676  2.5394 -1.5550
10177TIP3    H230489   3.195   2.869   2.383 -3.0008 -0.8463 -0.5997
10178TIP3   OH230490   2.536   3.409   0.879  0.2413  0.4644 -0.1341
10178TIP3    H130491   2.499   3.324   0.905  1.7922  0.2562  1.5711
10178TIP3    H230492   2.468   3.472   0.902  1.1541  0.2127  3.9702
10179TIP3   OH230493   1.301   5.305   6.034 -0.1137  0.2786  0.5421
10179TIP3    H130494   1.275   5.218   6.062  0.1477 -0.0484 -0.2126
10179TIP3    H230495   1.286   5.306   5.939 -0.2542  1.1006  0.5630
10180TIP3   OH230496   4.957   4.067   0.289  0.3046 -0.3227 -0.2847
10180TIP3    H130497   4.962   4.136   0.355 -0.6216 -1.1248  0.6522
10180TIP3    H230498   5.048   4.052   0.263  0.6092  0.5226  0.2557
10181TIP3   OH230499   4.710   6.688   5.772 -0.8745 -0.2171 -0.0131
10181TIP3    H130500   4.711   6.596   5.747 -1.7306  0.2842 -2.0663
10181TIP3    H230501   4.802   6.713   5.774 -0.7125 -0.5724 -1.7241
10182TIP3   OH230502   0.607   3.246   6.146 -0.6120 -0.2508  0.0660
10182TIP3    H130503   0.648   3.211   6.225 -0.3984  0.6487  0.3627
10182TIP3    H230504   0.676   3.298   6.104 -1.8940  2.9373  1.5891
10183TIP3   OH230505   0.544   5.152   0.817 -0.7631 -0.0354 -0.2320
10183TIP3    H130506   0.554   5.083   0.883  1.0972 -1.1788 -1.5845
10183TIP3    H230507   0.466   5.127   0.767 -0.0014 -1.3428 -0.8365
10184TIP3   OH230508   7.806   3.639   5.979 -0.8438  0.8390 -0.8763
10184TIP3    H130509   7.789   3.727   5.946 -0.3841  1.1028 -0.4247
10184TIP3    H230510   7.805   3.649   6.074  1.0232  0.7175 -0.8154
10185TIP3   OH230511   0.432   7.760   3.163  0.1123  0.0394 -0.4086
10185TIP3    H130512   0.367   7.773   3.093 -0.6497  1.3532  0.5091
10185TIP3    H230513   0.511   7.732   3.117  0.0623  2.2683 -1.9803
10186TIP3   OH230514   6.635   3.383   0.625 -0.5719 -0.3312  0.5204
10186TIP3    H130515   6.674   3.353   0.707 -1.4844  0.2700  1.1816
10186TIP3    H230516   6.687   3.459   0.600 -0.9546  0.1266  1.1024
10187TIP3   OH230517   1.173   2.068   5.088  0.1633 -0.0646 -0.0275
10187TIP3    H130518   1.263   2.069   5.055  0.6421 -2.0942  1.0553
10187TIP3    H230519   1.176   2.122   5.167  0.4823 -0.2909  0.1164
10188TIP3   OH230520   1.885   1.615   6.058  0.5871  0.0608 -0.2986
10188TIP3    H130521   1.942   1.541   6.039  1.3635  0.7785 -0.8378
10188TIP3    H230522   1.839   1.633   5.976 -0.6683 -0.6954  0.2070
10189TIP3   OH230523   6.282   1.274   3.498  0.3978 -0.2180 -0.3626
10189TIP3    H130524   6.278   1.205   3.431  1.3167 -0.0921 -0.5621
10189TIP3    H230525   6.193   1.309   3.502 -0.1421 -1.5526 -0.1074
10190TIP3   OH230526   6.209   0.056   5.440 -0.5600  0.1925  0.6048
10190TIP3    H130527   6.207   0.139   5.487 -1.3114  0.1016  0.7434
10190TIP3    H230528   6.261   0.074   5.362 -0.7994  0.8199  0.5840
10191TIP3   OH230529   8.025   5.501   0.071 -0.3066  0.2603  0.0012
10191TIP3    H130530   7.988   5.462  -0.008  0.0117 -1.8077  0.7916
10191TIP3    H230531   8.020   5.431   0.137  1.2191  1.2574  1.2584
10192TIP3   OH230532   1.200   3.025   4.320 -0.4688  0.7787  0.0551
10192TIP3    H130533   1.216   3.118   4.336  0.1280  1.0841 -2.0279
10192TIP3    H230534   1.246   3.007   4.238 -2.7524 -0.7255 -0.9754
10193TIP3   OH230535   5.060   1.022   1.127 -0.5242  0.0622 -0.3844
10193TIP3    H130536   5.035   1.109   1.096  0.0998  0.8697  1.2555
10193TIP3    H230537   4.994   1.000   1.192 -1.0205 -0.9834 -1.2138
10194TIP3   OH230538   1.827   5.120   2.618  0.9928 -0.1674  0.8144
10194TIP3    H130539   1.771   5.045   2.640 -0.7827  0.8784  0.0639
10194TIP3    H230540   1.784   5.195   2.659  2.5871  0.4940  1.3197
10195TIP3   OH230541   5.363   4.430   5.090 -0.3787  0.2189 -0.1384
10195TIP3    H130542   5.297   4.466   5.149  0.4999  0.8808  0.4611
10195TIP3    H230543   5.315   4.366   5.037 -0.8872 -1.6354  2.3850
10196TIP3   OH230544   5.961   3.812   5.552 -0.2507  0.3146  0.9736
10196TIP3    H130545   5.938   3.725   5.586  0.0300  0.5981  1.8953
10196TIP3    H230546   5.946   3.804   5.458 -0.5788 -0.6267  1.0870
10197TIP3   OH230547   2.771   4.577   6.642 -0.1831  0.2267  0.5680
10197TIP3    H130548   2.684   4.540   6.659 -0.2532  1.4320  3.5375
10197TIP3    H230549   2.757   4.672   6.641  0.4716  0.5021 -3.7708
10198TIP3   OH230550   8.196   5.650   4.545 -0.3798  0.4050 -0.0796
10198TIP3    H130551   8.246   5.570   4.529 -0.5192  0.2062  0.4437
10198TIP3    H230552   8.245   5.719   4.499 -0.4397 -0.0348 -0.7981
10199TIP3   OH230553   5.522   5.339   6.193 -0.2650  1.0483  0.0316
10199TIP3    H130554   5.575   5.353   6.114 -0.0249  1.5530  0.2785
10199TIP3    H230555   5.440   5.384   6.174  0.6954  3.3683  1.0290
10200TIP3   OH230556   0.526   7.424   2.593  0.0296  0.1239  0.2510
10200TIP3    H130557   0.543   7.334   2.567  0.6682  0.3249 -0.0616
10200TIP3    H230558   0.558   7.476   2.519  0.9026  0.6656  0.9906
10201TIP3   OH230559   7.531   2.206   6.114  0.1466 -0.5765  0.2403
10201TIP3    H130560   7.606   2.247   6.157  1.4529 -2.7999  0.2386
10201TIP3    H230561   7.481   2.279   6.079  2.8828  0.9841 -0.7243
10202TIP3   OH230562   6.609   4.651   3.577  0.0986 -1.0792 -0.2463
10202TIP3    H130563   6.657   4.598   3.513 -0.9162 -2.0635 -0.2310
10202TIP3    H230564   6.519   4.618   3.572 -0.2569 -0.3073  0.7943
10203TIP3   OH230565   2.180   4.216   3.829  0.0130 -0.7331 -0.5752
10203TIP3    H130566   2.243   4.256   3.769  0.7959 -2.1097 -0.7125
10203TIP3    H230567   2.195   4.122   3.821 -1.3516 -1.0501  0.1862
10204TIP3   OH230568   5.984   2.101   1.132  0.3522  0.1112  0.3783
10204TIP3    H130569   6.078   2.093   1.122  0.3078  1.1029 -1.0336
10204TIP3    H230570   5.971   2.185   1.175  0.0660  0.7203 -0.8569
10205TIP3   OH230571   6.627   0.718   0.162 -0.3104 -0.3433 -0.0252
10205TIP3    H130572   6.718   0.688   0.160 -0.8410 -2.0619  0.0857
10205TIP3    H230573   6.589   0.685   0.081 -0.6096  1.1950 -0.5328
10206TIP3   OH230574   6.810   3.845   3.569 -0.2164  0.0769 -0.1437
10206TIP3    H130575   6.757   3.914   3.610 -1.0454 -0.6298  0.0112
10206TIP3    H230576   6.830   3.879   3.482 -0.3248  0.6562  0.0494
10207TIP3   OH230577   4.881   5.091   2.375  0.5316 -0.8913 -0.3887
10207TIP3    H130578   4.789   5.117   2.382  1.6706  3.6328  1.0202
10207TIP3    H230579   4.885   5.007   2.420 -3.0659 -2.0828 -1.8775
10208TIP3   OH230580   1.241   7.313   5.670 -0.6732 -0.1765 -0.0471
10208TIP3    H130581   1.245   7.407   5.648  1.6043 -0.0584  0.5384
10208TIP3    H230582   1.261   7.310   5.764  0.3669 -1.2763 -0.2788
10209TIP3   OH230583   4.112   1.412   0.440  0.3613 -0.8517 -0.1063
10209TIP3    H130584   4.190   1.435   0.489  1.3390  1.4204 -2.4812
10209TIP3    H230585   4.145   1.373   0.359 -0.8064  0.9161 -1.5394
10210TIP3   OH230586   7.327   7.067   4.997  0.3758 -0.2426  0.2620
10210TIP3    H130587   7.258   7.133   4.994 -0.1474 -0.7753  0.4658
10210TIP3    H230588   7.408   7.116   4.984  0.1178  0.6308  1.7461
10211TIP3   OH230589   5.021   5.097   0.992 -0.0190 -0.4631  0.7601
10211TIP3    H130590   5.106   5.112   1.033  0.7049 -0.2330 -0.7660
10211TIP3    H230591   5.017   5.003   0.978 -0.7710 -0.7038  2.3413
10212TIP3   OH230592   6.519   3.589   2.001 -0.4740  0.2898  0.0059
10212TIP3    H130593   6.482   3.641   1.930 -0.1200  1.5649  0.7236
10212TIP3    H230594   6.529   3.651   2.073  2.9047  0.0475 -0.0801
10213TIP3   OH230595   2.582   5.621   0.287  0.1985 -0.7585  0.3823
10213TIP3    H130596   2.487   5.626   0.296  0.1521 -0.2262 -0.2879
10213TIP3    H230597   2.596   5.553   0.221  0.3097 -1.2414  0.9022
10214TIP3   OH230598   4.590   2.444   0.273 -0.2774 -0.0631 -0.0403
10214TIP3    H130599   4.631   2.401   0.348 -0.2483 -1.1627 -0.6673
10214TIP3    H230600   4.650   2.429   0.200 -2.2565 -2.8016 -1.2848
10215TIP3   OH230601   7.416   0.266   2.232 -0.1061  0.0980 -0.2719
10215TIP3    H130602   7.329   0.252   2.195  0.8306 -0.1665 -2.5479
10215TIP3    H230603   7.424   0.361   2.240  0.0431  0.2530 -1.8756
10216TIP3   OH230604   7.085   1.747   5.384 -0.0557  0.0567  0.4812
10216TIP3    H130605   7.062   1.675   5.326  0.4078  0.4785 -0.2364
10216TIP3    H230606   7.118   1.704   5.463  0.5707 -0.5163 -0.0841
10217TIP3   OH230607   7.778   3.322   1.882  0.5322  0.5203  0.4293
10217TIP3    H130608   7.816   3.386   1.944 -0.2813  1.1052  0.3403
10217TIP3    H230609   7.845   3.312   1.815  1.2775  0.1578  1.2082
10218TIP3   OH230610   4.537   3.654   0.314 -0.1178  0.6022 -0.6567
10218TIP3    H130611   4.479   3.583   0.341  0.0578  0.5653 -0.3743
10218TIP3    H230612   4.621   3.612   0.298 -0.4965  0.4306 -2.4014
10219TIP3   OH230613   2.012   4.640   5.233  0.4530  0.3436 -0.7694
10219TIP3    H130614   1.927   4.610   5.200 -0.4048  2.3228 -0.5056
10219TIP3    H230615   2.068   4.643   5.155  0.7536 -2.3016 -0.7291
10220TIP3   OH230616   1.644   6.016   4.564  0.1605 -0.5372  0.3327
10220TIP3    H130617   1.702   6.084   4.530  0.5992 -0.2476  1.5903
10220TIP3    H230618   1.622   5.962   4.488  1.8000 -0.4504 -0.2345
10221TIP3   OH230619   4.117   6.784   2.733 -0.1347 -0.4655  0.9907
10221TIP3    H130620   4.177   6.734   2.788  0.3786 -2.4589 -1.2019
10221TIP3    H230621   4.030   6.758   2.762  0.1319 -1.9284  0.5547
10222TIP3   OH230622   6.367   2.398   4.858  0.2915 -0.5390  0.1157
10222TIP3    H130623   6.323   2.466   4.909  0.8679  0.5843 -0.8510
10222TIP3    H230624   6.425   2.355   4.921  1.5626  1.3304  0.2866
10223TIP3   OH230625   6.327   3.733   5.509 -0.0650  0.1539 -0.0672
10223TIP3    H130626   6.279   3.775   5.438  0.0261  0.4782  0.0578
10223TIP3    H230627   6.295   3.643   5.511 -0.7533  0.3965  0.0901
10224TIP3   OH230628   6.012   7.254   0.363  0.3484 -0.0820  0.2683
10224TIP3    H130629   5.995   7.347   0.349  2.6149  0.7068  2.0133
10224TIP3    H230630   6.005   7.214   0.276 -2.2902  1.3679 -0.2643
10225TIP3   OH230631   3.037   0.835   3.184  0.0072 -0.2917 -0.2580
10225TIP3    H130632   2.964   0.774   3.179  0.8455 -1.2407 -1.4468
10225TIP3    H230633   3.001   0.918   3.153 -0.9233 -0.3790  0.5580
10226TIP3   OH230634   6.634   2.294   4.676 -0.1305  0.8932  0.6086
10226TIP3    H130635   6.564   2.359   4.681 -3.0220 -1.3539 -4.0158
10226TIP3    H230636   6.708   2.340   4.637 -1.3995  1.8954 -0.6701
10227TIP3   OH230637   4.500   4.007   2.861  0.3173 -0.1552  0.3782
10227TIP3    H130638   4.475   3.948   2.932  3.0896 -2.2970 -0.2578
10227TIP3    H230639   4.503   3.952   2.783  0.0334  1.5403 -0.9022
10228TIP3   OH230640   1.066   2.183   6.088 -0.3707  0.3067 -0.1848
10228TIP3    H130641   1.049   2.118   6.020  2.0309  1.7103 -2.3553
10228TIP3    H230642   1.126   2.140   6.148  0.4705  0.1692 -1.0958
10229TIP3   OH230643   0.360   7.222   5.083  0.2063  0.0771  0.2636
10229TIP3    H130644   0.386   7.190   4.997  0.4792  0.3209  0.2562
10229TIP3    H230645   0.413   7.300   5.097 -1.2588  1.2012 -0.2122
10230TIP3   OH230646   1.401   7.056   5.623 -0.2886  0.0656  0.3505
10230TIP3    H130647   1.329   7.119   5.614 -1.2256 -1.1869 -1.5120
10230TIP3    H230648   1.438   7.050   5.535  1.5866  0.0328  1.0962
10231TIP3   OH230649   5.455   0.867   6.666  0.1457 -0.4417  0.3127
10231TIP3    H130650   5.540   0.857   6.708  0.0487  0.8774  0.8843
10231TIP3    H230651   5.475   0.876   6.573  0.6460  0.0430  0.4649
10232TIP3   OH230652   5.118   4.863   6.313 -0.5612 -0.1120  0.1837
10232TIP3    H130653   5.106   4.918   6.235  0.3013 -1.0833 -0.6528
10232TIP3    H230654   5.082   4.778   6.288 -0.1937 -0.4636  0.8302
10233TIP3   OH230655   3.065   2.427   6.334  0.4492  0.2882  0.5532
10233TIP3    H130656   3.109   2.354   6.291 -0.0499 -0.4014  1.1658
10233TIP3    H230657   3.047   2.395   6.423  1.0282  1.4898  1.1296
10234TIP3   OH230658   3.992   1.725   2.674  0.7637  0.0159 -0.3494
10234TIP3    H130659   3.901   1.753   2.671  0.9231  0.5377 -0.5748
10234TIP3    H230660   4.012   1.718   2.767  1.0527  1.8460 -0.2336
10235TIP3   OH230661   2.519   2.842   3.942 -0.2498 -0.0721 -0.2857
10235TIP3    H130662   2.548   2.898   4.014 -1.7267  1.2148 -0.6283
10235TIP3    H230663   2.456   2.782   3.981 -1.6354  1.1296 -0.5849
10236TIP3   OH230664   4.859   6.135   1.419 -0.1283 -0.5067 -0.2249
10236TIP3    H130665   4.851   6.229   1.435 -0.3413 -0.7265  1.0244
10236TIP3    H230666   4.773   6.099   1.440  0.5777 -1.2684  1.5326
10237TIP3   OH230667   4.822   5.217   5.928 -0.1697 -0.0556  0.0910
10237TIP3    H130668   4.853   5.127   5.927  0.5349  0.1820 -0.2739
10237TIP3    H230669   4.853   5.254   5.846 -0.2007  0.6014  0.3664
10238TIP3   OH230670   7.578   4.069   5.490 -0.5571 -0.0782  0.6815
10238TIP3    H130671   7.643   4.000   5.480  0.0662  0.0868  2.9295
10238TIP3    H230672   7.499   4.024   5.520 -0.5837  0.0382  0.7878
10239TIP3   OH230673   4.544   0.712   6.028 -0.3088  0.2788 -0.2564
10239TIP3    H130674   4.593   0.794   6.031  0.9459 -0.4558  0.2630
10239TIP3    H230675   4.604   0.649   5.989 -1.7712 -0.0862 -2.0233
10240TIP3   OH230676   4.847   3.301   3.109  0.4204 -0.2722 -0.4701
10240TIP3    H130677   4.893   3.244   3.047 -0.2652 -0.0676 -1.1944
10240TIP3    H230678   4.915   3.337   3.165  0.8783 -1.7585 -0.0312
10241TIP3   OH230679   2.422   4.872   3.919 -0.1144 -0.5070 -0.5077
10241TIP3    H130680   2.516   4.875   3.940  0.1052  0.5763 -1.5599
10241TIP3    H230681   2.402   4.960   3.889 -1.6514 -0.5266  0.3668
10242TIP3   OH230682   6.487   1.110   0.571  0.4570 -0.4872 -0.5805
10242TIP3    H130683   6.476   1.083   0.479 -1.1343 -0.5606 -0.3957
10242TIP3    H230684   6.402   1.144   0.596  0.5327 -1.4949  1.2186
10243TIP3   OH230685   5.582   2.518   1.393 -0.2807 -0.2222  0.1863
10243TIP3    H130686   5.594   2.520   1.488 -5.1269 -1.9091  1.1348
10243TIP3    H230687   5.618   2.433   1.366  0.4328 -0.0672  0.6413
10244TIP3   OH230688   4.261   5.091   2.966 -0.0026  0.4491  0.0571
10244TIP3    H130689   4.286   5.032   3.038 -1.4158 -0.6786 -0.3278
10244TIP3    H230690   4.313   5.060   2.891 -1.1343 -0.7027 -0.2821
10245TIP3   OH230691   4.236   2.161   4.125  0.2694 -0.1057  0.1557
10245TIP3    H130692   4.227   2.112   4.207  0.2248  0.6810  0.6264
10245TIP3    H230693   4.170   2.123   4.067  1.5264 -1.9310 -0.1704
10246TIP3   OH230694   2.837   2.011   2.117 -0.4192  0.4907  0.2488
10246TIP3    H130695   2.768   1.947   2.131  0.0318  0.0330  0.4134
10246TIP3    H230696   2.800   2.094   2.148 -0.3760 -0.0129  1.7347
10247TIP3   OH230697   3.250   5.743   5.520 -0.2861 -0.3874  0.5030
10247TIP3    H130698   3.208   5.829   5.525  1.3266  0.4584  0.2051
10247TIP3    H230699   3.342   5.760   5.539  0.0824 -2.0443  0.3525
10248TIP3   OH230700   7.417   2.296   5.393 -0.3504 -0.2959  0.1995
10248TIP3    H130701   7.385   2.230   5.331  0.5843 -0.7717  0.2028
10248TIP3    H230702   7.432   2.374   5.340 -1.4170 -0.0873  0.1838
10249TIP3   OH230703   5.565   6.266   3.412 -0.1706 -0.3207  0.1300
10249TIP3    H130704   5.523   6.325   3.474  1.5868  0.2896  0.8194
10249TIP3    H230705   5.498   6.250   3.345 -1.5075  0.4642  1.2178
10250TIP3   OH230706   6.015   4.413   2.152  0.2888 -0.4028 -0.2393
10250TIP3    H130707   6.005   4.330   2.199  1.4584 -0.3100  0.2167
10250TIP3    H230708   5.956   4.407   2.078 -0.0822 -1.4017  0.1285
10251TIP3   OH230709   6.755   3.405   3.295 -0.1630 -0.4815  0.4957
10251TIP3    H130710   6.780   3.378   3.383 -0.2851 -2.8739 -0.1290
10251TIP3    H230711   6.820   3.364   3.238 -0.6462  0.2102 -0.5858
10252TIP3   OH230712   5.532   2.789   1.381  0.0175 -0.4469 -0.5094
10252TIP3    H130713   5.544   2.696   1.399 -0.2034 -0.5587 -0.9303
10252TIP3    H230714   5.596   2.833   1.438 -1.8041 -0.6738  1.9012
10253TIP3   OH230715   3.265   6.960   2.697  0.0889  0.2055  0.6494
10253TIP3    H130716   3.193   6.937   2.638  1.2382 -0.6300 -0.4960
10253TIP3    H230717   3.248   6.911   2.777 -0.0696 -0.8639 -0.0145
10254TIP3   OH230718   6.973   0.665   0.404  0.8042 -0.0192  0.1699
10254TIP3    H130719   6.921   0.714   0.467  0.4617  0.9119 -0.8024
10254TIP3    H230720   6.922   0.667   0.323  1.1825 -1.2748 -0.1279
10255TIP3   OH230721   3.306   2.073   2.573  0.2704  0.5302 -0.2942
10255TIP3    H130722   3.233   2.132   2.594  0.9913  1.9470 -1.5900
10255TIP3    H230723   3.375   2.130   2.541  1.5787 -0.8956 -0.1215
10256TIP3   OH230724   5.081   5.659   2.640 -0.4082 -0.1320 -0.0171
10256TIP3    H130725   5.034   5.723   2.586  1.0396  0.0337 -1.1365
10256TIP3    H230726   5.150   5.710   2.682 -1.1729 -0.3760  1.5911
10257TIP3   OH230727   8.282   6.157   3.108 -0.4232 -0.0160  0.1222
10257TIP3    H130728   8.250   6.240   3.144 -1.5316 -0.2988 -0.1653
10257TIP3    H230729   8.313   6.179   3.020 -2.3686 -0.1790 -0.6561
10258TIP3   OH230730   3.923   5.830   0.039 -0.1541 -0.8212 -0.3778
10258TIP3    H130731   3.939   5.739   0.012 -1.6376 -1.5065  0.8499
10258TIP3    H230732   3.842   5.825   0.090  0.0162  1.1303  0.1503
10259TIP3   OH230733   5.134   0.316   1.083  0.1796  0.4074  0.0028
10259TIP3    H130734   5.159   0.243   1.141 -0.6419 -0.0814 -0.2442
10259TIP3    H230735   5.216   0.363   1.069  0.4832  0.3008  1.2298
10260TIP3   OH230736   6.060   7.177   3.954  0.1086  0.2331 -0.1327
10260TIP3    H130737   6.031   7.258   3.996  2.4576 -0.4448  3.2371
10260TIP3    H230738   6.053   7.195   3.860 -0.3033  4.0076  0.4516
10261TIP3   OH230739   0.493   3.367   5.372 -0.0344  0.1751  0.3190
10261TIP3    H130740   0.476   3.341   5.281  1.8099 -0.7871  0.1908
10261TIP3    H230741   0.457   3.455   5.379  0.6117  0.6568 -1.6587
10262TIP3   OH230742   6.857   3.581   1.705  0.2633  0.0648  0.0815
10262TIP3    H130743   6.951   3.597   1.702  0.4813 -1.2337 -0.7704
10262TIP3    H230744   6.841   3.543   1.792  0.7371 -0.9009 -0.2478
10263TIP3   OH230745   7.412   3.065   6.031 -0.2395  0.2284  0.0426
10263TIP3    H130746   7.469   3.138   6.054  0.3294 -0.4795  0.9835
10263TIP3    H230747   7.472   2.993   6.012 -0.7731  0.1723 -1.5763
10264TIP3   OH230748   5.870   2.203   5.395 -0.0924 -0.3069  0.4642
10264TIP3    H130749   5.853   2.269   5.462  0.8608 -0.7744  1.1908
10264TIP3    H230750   5.962   2.216   5.372 -0.8482  1.1016 -2.1683
10265TIP3   OH230751   4.893   7.645   5.479  0.3894  0.9818  0.1431
10265TIP3    H130752   4.815   7.612   5.524  0.3952 -0.9034 -1.1096
10265TIP3    H230753   4.915   7.576   5.417  1.5972  2.5753 -1.2809
10266TIP3   OH230754   0.383   2.186   5.868  0.5256 -0.0189 -0.0758
10266TIP3    H130755   0.381   2.278   5.841 -0.2346  0.2816  0.9722
10266TIP3    H230756   0.292   2.164   5.887  0.8258 -0.6979  0.6243
10267TIP3   OH230757   0.174   4.245   3.390  0.1757 -0.0980 -0.0778
10267TIP3    H130758   0.264   4.276   3.395  0.8963 -1.3084 -3.0710
10267TIP3    H230759   0.130   4.309   3.334 -0.1508 -0.7856 -0.6208
10268TIP3   OH230760   1.487   3.593   2.109  0.6456 -0.2085  0.1687
10268TIP3    H130761   1.541   3.516   2.089  1.0168  0.3798 -1.2423
10268TIP3    H230762   1.438   3.569   2.187 -0.1495 -2.3537 -0.9232
10269TIP3   OH230763   3.567   3.689   4.907  0.2506 -0.2382 -0.6808
10269TIP3    H130764   3.514   3.761   4.940 -1.8798 -1.4892 -1.2056
10269TIP3    H230765   3.607   3.723   4.827  1.6373  1.2536  0.5845
10270TIP3   OH230766   3.333   5.879   1.285 -0.3531 -0.0354  0.1829
10270TIP3    H130767   3.373   5.876   1.198 -0.2822  0.5267  0.1903
10270TIP3    H230768   3.407   5.893   1.344 -0.4701  0.1963  0.2739
10271TIP3   OH230769   2.717   2.317   0.390 -0.1300  0.3137 -0.0384
10271TIP3    H130770   2.782   2.247   0.393 -1.9171 -1.3944  2.1394
10271TIP3    H230771   2.666   2.299   0.311  1.0526  0.8230 -0.9602
10272TIP3   OH230772   0.585   0.217   2.213  0.0974 -0.6016  0.5566
10272TIP3    H130773   0.666   0.260   2.241 -0.4714  1.0707 -0.2660
10272TIP3    H230774   0.518   0.254   2.270 -0.4683 -0.0443 -0.4492
10273TIP3   OH230775   7.855   6.766   2.745  0.2116  0.4200 -0.3210
10273TIP3    H130776   7.855   6.703   2.817 -1.7122  0.7240 -0.0018
10273TIP3    H230777   7.903   6.841   2.780  1.5779 -0.4182 -0.3235
10274TIP3   OH230778   6.663   3.437   0.294 -0.3796  0.1717 -0.6036
10274TIP3    H130779   6.722   3.468   0.225 -0.9834 -0.1839 -1.2999
10274TIP3    H230780   6.679   3.496   0.367  0.4653  0.3991 -0.9588
10275TIP3   OH230781   1.714   2.828   3.831 -0.1997  0.5773  0.1692
10275TIP3    H130782   1.793   2.773   3.826 -0.7476 -0.1472 -0.8721
10275TIP3    H230783   1.682   2.817   3.920 -0.9109 -1.7133 -0.3006
10276TIP3   OH230784   4.788   1.216   2.065  0.8172 -0.1456 -0.0621
10276TIP3    H130785   4.728   1.148   2.095  1.5642 -0.3278  1.1157
10276TIP3    H230786   4.871   1.195   2.108  1.0081  1.6358  0.5325
10277TIP3   OH230787   2.603   0.441   4.149 -0.3647  0.3066 -0.6290
10277TIP3    H130788   2.669   0.507   4.168  1.2919 -1.5437  0.4697
10277TIP3    H230789   2.605   0.431   4.054 -1.0572  2.1546 -0.8816
10278TIP3   OH230790   1.539   1.563   5.709 -0.0462 -0.0094  0.1476
10278TIP3    H130791   1.576   1.637   5.661 -0.9820  0.9692  0.9038
10278TIP3    H230792   1.560   1.487   5.655  1.3991  0.7286 -0.3883
10279TIP3   OH230793   1.846   0.727   4.142 -0.4369  0.0335  0.2862
10279TIP3    H130794   1.914   0.686   4.195 -2.3071 -2.6369  0.8225
10279TIP3    H230795   1.786   0.766   4.205 -0.1031  1.2261 -0.1207
10280TIP3   OH230796   7.598   6.188   4.296 -0.5381  0.2730  0.6710
10280TIP3    H130797   7.633   6.154   4.213 -0.5596  1.3197  0.2238
10280TIP3    H230798   7.675   6.208   4.349 -0.5272 -1.4499  1.3680
10281TIP3   OH230799   6.563   0.944   3.492 -0.4783  0.0241  0.1475
10281TIP3    H130800   6.468   0.955   3.483 -0.3574  1.7651  0.6939
10281TIP3    H230801   6.574   0.910   3.581 -0.6784 -2.4187 -0.6680
10282TIP3   OH230802   7.693   2.929   6.268  0.2484  0.0196  0.3474
10282TIP3    H130803   7.682   2.972   6.184 -0.7902 -2.0489 -0.6581
10282TIP3    H230804   7.777   2.884   6.262  0.3571  0.1935  0.5648
10283TIP3   OH230805   1.658   4.023   3.287  0.0833  0.0554  0.2289
10283TIP3    H130806   1.626   4.057   3.204  0.7983  0.6888  0.2060
10283TIP3    H230807   1.593   3.957   3.312  0.6029 -1.2154 -1.5600
10284TIP3   OH230808   6.279   2.671   6.491 -0.3307 -0.6615  0.4104
10284TIP3    H130809   6.242   2.671   6.580 -0.9366  2.9726  0.3275
10284TIP3    H230810   6.216   2.720   6.439  0.9842 -0.9732 -1.5906
10285TIP3   OH230811   7.343   7.065   4.537 -0.4003  0.1143 -0.1916
10285TIP3    H130812   7.276   7.115   4.584 -0.1418 -0.4795  0.8416
10285TIP3    H230813   7.315   6.974   4.545 -1.5540  0.0897 -3.1542
10286TIP3   OH230814   5.280   2.553   5.504  0.5241  0.0142  0.1433
10286TIP3    H130815   5.326   2.530   5.423  1.0124  0.1440  0.3862
10286TIP3    H230816   5.267   2.647   5.499 -0.9623 -0.1925 -0.5764
10287TIP3   OH230817   5.006   3.712   5.448 -0.0621  0.8042 -0.3431
10287TIP3    H130818   4.926   3.761   5.429  0.3522  1.2942 -0.8502
10287TIP3    H230819   5.021   3.658   5.370 -2.0481 -2.3484  1.2264
10288TIP3   OH230820   8.057   2.907   2.438 -0.3099 -0.1339 -0.3436
10288TIP3    H130821   8.054   2.813   2.454 -0.2601 -0.0164  0.3867
10288TIP3    H230822   8.118   2.917   2.365  1.2604 -0.5101  0.8655
10289TIP3   OH230823   7.153   7.290   5.367  0.1254 -0.2412 -0.1655
10289TIP3    H130824   7.238   7.248   5.353  1.3490  1.7592  0.7415
10289TIP3    H230825   7.120   7.249   5.447 -0.2457 -1.7104 -1.0459
10290TIP3   OH230826   6.799   0.482   3.767 -0.1194  0.7848  0.2258
10290TIP3    H130827   6.738   0.416   3.799  0.9633 -0.6574 -0.5309
10290TIP3    H230828   6.778   0.491   3.674  0.5525  0.5492  0.0439
10291TIP3   OH230829   8.265   7.751   0.914  0.0885 -0.0664  0.1522
10291TIP3    H130830   8.177   7.789   0.914  0.0124 -0.2217  1.1591
10291TIP3    H230831   8.323   7.826   0.896 -0.1185  0.4142  1.3740
10292TIP3   OH230832   2.694   2.099   2.931  0.5014  0.3728 -0.1603
10292TIP3    H130833   2.685   2.193   2.913 -3.1171  0.2134  0.0894
10292TIP3    H230834   2.701   2.094   3.027 -1.3466  0.3679  0.0058
10293TIP3   OH230835   4.360   2.848   5.880 -0.1080 -0.6247  0.1842
10293TIP3    H130836   4.386   2.846   5.972  0.7315  0.3179 -0.0188
10293TIP3    H230837   4.439   2.824   5.833  0.2719  1.6187 -0.4151
10294TIP3   OH230838   7.557   5.089   6.569 -0.2146 -0.2093 -0.4510
10294TIP3    H130839   7.591   5.014   6.618 -0.4203 -1.0480 -1.5569
10294TIP3    H230840   7.595   5.166   6.613 -0.3630 -0.9213  0.9833
10295TIP3   OH230841   7.298   4.580   0.374  0.5031 -0.2629  0.1229
10295TIP3    H130842   7.335   4.664   0.401 -0.7776  0.5258 -0.4844
10295TIP3    H230843   7.360   4.547   0.309  0.6762  0.5401 -0.1344
10296TIP3   OH230844   6.924   2.832   6.221  0.1149  0.0490 -0.8099
10296TIP3    H130845   6.964   2.900   6.167 -0.4040  1.2206  0.2455
10296TIP3    H230846   6.992   2.764   6.227  0.8921  0.7613 -1.3261
10297TIP3   OH230847   5.337   0.815   6.172 -0.3981  0.0504  0.3666
10297TIP3    H130848   5.407   0.766   6.215  0.4047  1.2638  0.4773
10297TIP3    H230849   5.281   0.845   6.243 -1.8613 -2.0668  0.2011
10298TIP3   OH230850   8.154   6.341   3.294  0.2551  0.1870 -0.2185
10298TIP3    H130851   8.209   6.297   3.359 -0.3906 -0.6792 -0.2417
10298TIP3    H230852   8.141   6.429   3.330 -0.4434 -0.4118  1.0587
10299TIP3   OH230853   7.441   3.992   1.522  0.5196  0.3018  0.4057
10299TIP3    H130854   7.435   4.081   1.557  0.6847  0.2139  0.6552
10299TIP3    H230855   7.426   3.935   1.597 -1.9201  0.1021 -0.1356
10300TIP3   OH230856   7.883   1.738   4.105 -0.3569 -0.1384 -0.2426
10300TIP3    H130857   7.891   1.644   4.089  1.8652  0.1536 -1.1448
10300TIP3    H230858   7.892   1.778   4.018 -1.7090  0.9203  0.0696
10301TIP3   OH230859   3.863   7.316   6.225 -0.6609  0.0671  0.0960
10301TIP3    H130860   3.837   7.391   6.279 -0.0526  0.1487  0.2801
10301TIP3    H230861   3.788   7.301   6.167 -0.5307  1.2210 -0.3902
10302TIP3   OH230862   3.017   6.251   0.593  0.4205  0.0247  0.2199
10302TIP3    H130863   3.085   6.319   0.600  0.5836 -0.0355 -0.6371
10302TIP3    H230864   2.944   6.284   0.645  0.2763  1.1443 -0.6476
10303TIP3   OH230865   0.897   1.275   4.851  0.3836 -0.1497  0.0214
10303TIP3    H130866   0.844   1.352   4.832 -0.0210 -0.6347 -0.8483
10303TIP3    H230867   0.978   1.311   4.889  1.0021  0.8504 -2.0803
10304TIP3   OH230868   6.274   5.917   4.882  0.2571  0.6701  0.6343
10304TIP3    H130869   6.183   5.929   4.909  0.7797  0.6944  2.5155
10304TIP3    H230870   6.268   5.878   4.794 -1.5519  0.6059  0.7503
10305TIP3   OH230871   7.821   6.374   6.401 -0.0618  0.0984  0.1568
10305TIP3    H130872   7.790   6.319   6.330 -1.2996  1.3468 -0.3253
10305TIP3    H230873   7.834   6.460   6.361  1.9661  0.1561  0.8542
10306TIP3   OH230874   7.763   2.249   5.789 -0.5050 -0.0147  0.1934
10306TIP3    H130875   7.700   2.314   5.819 -0.4576  0.0607  0.1288
10306TIP3    H230876   7.720   2.206   5.715 -0.6778 -0.2942  0.4545
10307TIP3   OH230877   2.217   4.024   0.695  0.9329  0.6622 -0.1856
10307TIP3    H130878   2.123   4.037   0.683  0.5831 -1.3303  0.0600
10307TIP3    H230879   2.238   3.947   0.642  1.9276 -0.3496  1.5523
10308TIP3   OH230880   6.922   3.511   4.041  0.0195 -0.0058 -0.0414
10308TIP3    H130881   6.949   3.421   4.023  0.5977  0.2996 -0.7698
10308TIP3    H230882   6.828   3.505   4.057  0.1314 -0.7988  0.3809
10309TIP3   OH230883   6.782   0.720   3.918 -0.4342  0.3900 -0.0016
10309TIP3    H130884   6.797   0.662   3.843 -0.8007  1.7121 -1.1472
10309TIP3    H230885   6.790   0.663   3.995  2.6301 -0.5465 -0.8597
10310TIP3   OH230886   8.250   6.475   0.071  0.4107  0.1734  0.0612
10310TIP3    H130887   8.173   6.494   0.124  1.2461 -0.0007  1.4116
10310TIP3    H230888   8.255   6.547   0.008 -0.8412  0.1818 -0.0481
10311TIP3   OH230889   5.769   4.132   3.555 -0.0016 -0.0000 -0.6369
10311TIP3    H130890   5.678   4.159   3.565 -0.1215 -0.4193 -0.6071
10311TIP3    H230891   5.799   4.176   3.475 -0.2356  0.1104 -0.6634
10312TIP3   OH230892   3.195   7.340   0.630 -0.5221 -0.5061  0.0931
10312TIP3    H130893   3.284   7.331   0.665 -0.1202  1.0457 -0.4531
10312TIP3    H230894   3.189   7.272   0.564  0.5740 -0.1182 -0.4355
10313TIP3   OH230895   3.973   1.603   3.255  0.0994 -0.1556  0.1628
10313TIP3    H130896   4.039   1.672   3.249  0.2892 -0.4489 -1.7479
10313TIP3    H230897   4.023   1.525   3.279  0.3368 -0.1965 -0.4368
10314TIP3   OH230898   5.341   5.388   2.427  0.2442  0.1429 -0.2719
10314TIP3    H130899   5.368   5.383   2.518  0.5499 -0.0818 -0.3725
10314TIP3    H230900   5.283   5.313   2.414 -1.0005  1.0016  0.1222
10315TIP3   OH230901   1.854   2.699   1.147 -0.0723  0.5488 -0.0707
10315TIP3    H130902   1.808   2.629   1.193  0.0327  1.8410  2.1542
10315TIP3    H230903   1.794   2.727   1.078 -1.2174  0.0379  0.6950
10316TIP3   OH230904   0.139   6.490   3.654  0.7411  0.4671 -0.4619
10316TIP3    H130905   0.186   6.515   3.574  1.3482  0.6538 -0.0557
10316TIP3    H230906   0.160   6.559   3.717 -0.2628  0.6604 -0.3337
10317TIP3   OH230907   4.937   7.257   5.562  0.1303 -1.2131 -1.0009
10317TIP3    H130908   4.870   7.309   5.516 -0.5399 -0.0893  1.0969
10317TIP3    H230909   4.893   7.175   5.582 -0.9135 -0.2399  0.9231
10318TIP3   OH230910   5.440   7.522   0.959 -0.1382  0.4714  0.5929
10318TIP3    H130911   5.524   7.488   0.991 -0.2608  0.7305  1.2054
10318TIP3    H230912   5.391   7.544   1.039 -0.4087  1.2326  0.2281
10319TIP3   OH230913   1.880   6.696   3.835 -0.8344 -0.4558  0.1517
10319TIP3    H130914   1.842   6.784   3.835 -0.9123 -0.4658 -1.3793
10319TIP3    H230915   1.808   6.639   3.806 -0.3994 -0.8366 -0.1924
10320TIP3   OH230916   2.075   2.003   1.929 -0.0642  0.3451  0.1444
10320TIP3    H130917   2.022   1.924   1.928 -0.8585  0.8678  0.1160
10320TIP3    H230918   2.012   2.074   1.941  0.7675  0.8715  1.6126
10321TIP3   OH230919   2.096   6.067   2.849 -0.9776 -0.1142  0.5481
10321TIP3    H130920   2.141   6.113   2.920 -0.0226  0.3599 -0.3530
10321TIP3    H230921   2.065   5.986   2.889  0.2814 -0.2417  1.3057
10322TIP3   OH230922   6.153   3.968   3.519  0.3346  0.2995 -0.0185
10322TIP3    H130923   6.072   3.952   3.471  0.8292 -0.1899 -0.7049
10322TIP3    H230924   6.213   3.900   3.489  0.7158  0.0756  1.1766
10323TIP3   OH230925   3.074   3.279   1.598  0.6373 -0.0997  0.3215
10323TIP3    H130926   3.026   3.213   1.648  0.9351  0.2391  1.0662
10323TIP3    H230927   3.156   3.292   1.646  1.4073 -0.5304 -0.8361
10324TIP3   OH230928   2.430   4.128   2.304  0.4443 -0.7535  0.4848
10324TIP3    H130929   2.409   4.212   2.345  2.3961 -0.2413  0.5139
10324TIP3    H230930   2.504   4.147   2.247 -0.0158 -2.1783 -0.6482
10325TIP3   OH230931   1.513   1.150   6.130  0.6619 -0.0997 -0.6924
10325TIP3    H130932   1.474   1.194   6.054  1.3439  1.5136 -0.1543
10325TIP3    H230933   1.606   1.168   6.123  0.8013 -0.3873  0.2502
10326TIP3   OH230934   5.289   6.434   2.308 -0.6259 -0.1374  0.4725
10326TIP3    H130935   5.344   6.358   2.327  0.5663  0.4167 -0.5925
10326TIP3    H230936   5.231   6.406   2.237 -2.0644 -0.8530  1.8733
10327TIP3   OH230937   4.493   2.660   1.603 -0.2769  0.1620 -0.0575
10327TIP3    H130938   4.408   2.701   1.618 -0.4806 -0.9776  2.3924
10327TIP3    H230939   4.473   2.585   1.546 -1.2800 -1.0225  1.7342
10328TIP3   OH230940   7.244   1.175   0.215  0.3868  0.3494 -0.3110
10328TIP3    H130941   7.217   1.113   0.147 -1.8297  1.1746 -0.2716
10328TIP3    H230942   7.339   1.175   0.211  0.4041 -1.9434 -1.2884
10329TIP3   OH230943   0.431   7.597   1.303  0.2673 -0.1472 -0.2606
10329TIP3    H130944   0.518   7.600   1.343  0.4620 -0.1876 -0.6820
10329TIP3    H230945   0.372   7.618   1.375  0.6998  0.9976 -0.2274
10330TIP3   OH230946   7.564   2.393   6.743 -0.5576 -0.6884 -0.2263
10330TIP3    H130947   7.555   2.423   6.834 -0.1158  0.2430 -0.4809
10330TIP3    H230948   7.623   2.317   6.749  0.0976 -0.1562  0.1763
10331TIP3   OH230949   1.307   1.202   4.467 -0.1050 -0.2496 -0.2673
10331TIP3    H130950   1.291   1.282   4.417  0.3170  0.5682  0.8717
10331TIP3    H230951   1.289   1.226   4.558 -2.1457 -2.0562 -0.1144
10332TIP3   OH230952   2.479   6.956   5.512  0.2219  0.5476  0.4521
10332TIP3    H130953   2.502   6.863   5.514  2.4452  0.9996 -0.4127
10332TIP3    H230954   2.400   6.961   5.459 -1.0081 -0.9843  2.0204
10333TIP3   OH230955   6.553   1.436   1.193 -0.2236  0.0312 -0.2585
10333TIP3    H130956   6.525   1.513   1.143 -1.9471 -0.0244  0.5531
10333TIP3    H230957   6.471   1.397   1.225  0.7137 -1.1122  0.8536
10334TIP3   OH230958   1.213   0.753   0.012  0.2905 -0.0465 -0.5915
10334TIP3    H130959   1.184   0.696   0.083  2.6033  0.0419  0.5303
10334TIP3    H230960   1.269   0.698  -0.042  1.8409  0.8673  0.0115
10335TIP3   OH230961   4.669   2.108   2.023  0.5024  0.5000 -0.1575
10335TIP3    H130962   4.706   2.035   1.974  0.0328  0.4821 -0.4931
10335TIP3    H230963   4.587   2.129   1.977  0.7488  1.3873 -0.2068
10336TIP3   OH230964   6.673   3.177   1.539 -0.7640 -0.2136  0.1190
10336TIP3    H130965   6.763   3.158   1.512 -0.2171 -0.1441  1.7790
10336TIP3    H230966   6.648   3.254   1.489 -0.7150 -1.4836 -1.9744
10337TIP3   OH230967   7.186   0.461   4.376  0.1517 -0.2392  0.7493
10337TIP3    H130968   7.090   0.456   4.383 -0.1932 -0.8694 -2.6660
10337TIP3    H230969   7.216   0.470   4.466 -3.1032 -0.2614  1.9740
10338TIP3   OH230970   6.719   0.320   5.201 -0.3903 -0.5671 -0.1971
10338TIP3    H130971   6.752   0.287   5.117 -0.1843  0.5077 -0.5572
10338TIP3    H230972   6.690   0.241   5.248 -2.5685 -1.0413 -2.1326
10339TIP3   OH230973   6.771   1.634   3.155  0.7848 -0.0118  0.2676
10339TIP3    H130974   6.810   1.572   3.217 -1.1204 -2.5532 -0.8793
10339TIP3    H230975   6.825   1.628   3.077  1.2399  0.6431  0.5257
10340TIP3   OH230976   7.012   2.493   6.159 -0.7899 -0.2048  0.0825
10340TIP3    H130977   7.064   2.496   6.240  0.3657 -1.2968 -0.5757
10340TIP3    H230978   6.923   2.510   6.187 -0.3328 -0.0377  1.5228
10341TIP3   OH230979   5.933   0.605   3.293  0.2204  0.2031 -0.1126
10341TIP3    H130980   6.022   0.593   3.261  1.0584  0.2196  2.0180
10341TIP3    H230981   5.939   0.680   3.352 -0.5457 -1.4012  2.1531
10342TIP3   OH230982   6.488   6.495   3.820 -0.2228 -0.1400  0.2058
10342TIP3    H130983   6.575   6.482   3.857 -1.1128 -0.7498  2.2532
10342TIP3    H230984   6.499   6.566   3.757  1.7086 -0.0807  0.5440
10343TIP3   OH230985   2.442   3.489   1.381  0.3602 -0.2684  0.1094
10343TIP3    H130986   2.518   3.542   1.358  0.5264 -0.2220  0.7489
10343TIP3    H230987   2.384   3.550   1.428  0.6683 -0.7070  1.0758
10344TIP3   OH230988   4.914   7.227   0.236 -0.2867 -0.5699  0.0856
10344TIP3    H130989   4.979   7.173   0.280 -1.7012 -1.9897  0.5650
10344TIP3    H230990   4.957   7.257   0.156  2.1870  1.6977  2.1022
10345TIP3   OH230991   0.994   7.380   2.876 -0.0395  0.0930  0.1378
10345TIP3    H130992   0.908   7.356   2.911 -0.4847  0.8425 -0.4138
10345TIP3    H230993   1.051   7.386   2.952  0.2281 -3.0944  0.3148
10346TIP3   OH230994   4.295   4.620   0.430 -0.2058 -0.1607  0.1818
10346TIP3    H130995   4.365   4.640   0.493 -0.5552 -1.5136  1.0517
10346TIP3    H230996   4.259   4.537   0.461 -1.9106  0.2912 -0.5010
10347TIP3   OH230997   6.643   3.788   3.152 -0.4093 -0.4629 -0.1654
10347TIP3    H130998   6.622   3.755   3.240  0.3845 -0.1444  0.1561
10347TIP3    H230999   6.731   3.754   3.134  0.3661  1.2795  0.1045
10348TIP3   OH231000   6.556   5.841   1.098 -0.2372 -0.1719  0.0117
10348TIP3    H131001   6.615   5.797   1.038 -1.0470 -0.4315 -0.6197
10348TIP3    H231002   6.613   5.890   1.157  0.5644  1.2424 -1.8375
10349TIP3   OH231003   3.743   1.322   1.537 -0.0325 -0.0259 -0.2837
10349TIP3    H131004   3.758   1.236   1.577  1.3155  0.7028  0.8585
10349TIP3    H231005   3.818   1.334   1.478 -1.0779 -0.3168 -1.7305
10350TIP3   OH231006   6.556   1.151   3.844  0.1578 -0.2065  0.2101
10350TIP3    H131007   6.635   1.189   3.807 -0.5798  1.0335 -0.1458
10350TIP3    H231008   6.588   1.082   3.903  1.5143  0.6409  0.5051
10351TIP3   OH231009   5.911   2.154   4.548 -0.0332  0.2494 -0.4265
10351TIP3    H131010   5.836   2.140   4.491 -0.7347 -0.7466  0.6985
10351TIP3    H231011   5.950   2.068   4.558  0.1748  0.4312  0.4500
10352TIP3   OH231012   1.524   6.898   0.504  0.0143 -0.0093 -0.6787
10352TIP3    H131013   1.564   6.910   0.590  0.0335 -0.0403 -0.6832
10352TIP3    H231014   1.573   6.957   0.446 -0.2239  0.2707 -0.6009
10353TIP3   OH231015   3.863   6.557   5.818 -0.0210 -0.0096 -0.6100
10353TIP3    H131016   3.773   6.572   5.790 -0.1669  0.1176 -0.0761
10353TIP3    H231017   3.855   6.511   5.902  0.3935  0.8656 -0.0720
10354TIP3   OH231018   3.074   4.604   1.086  0.4101  0.3597 -0.3562
10354TIP3    H131019   3.069   4.662   1.010  2.2937  1.5289  0.3636
10354TIP3    H231020   3.091   4.662   1.160  0.3859 -0.9305  0.6935
10355TIP3   OH231021   0.202   2.085   4.878  0.7712 -0.5473 -0.0066
10355TIP3    H131022   0.178   2.000   4.915 -0.0207 -0.4942 -0.3774
10355TIP3    H231023   0.224   2.065   4.787  2.4681 -0.6399  0.3786
10356TIP3   OH231024   0.896   7.607   0.630 -0.5040 -0.5194  0.1235
10356TIP3    H131025   0.847   7.660   0.567  2.0046  0.5733 -1.0785
10356TIP3    H231026   0.889   7.518   0.597  2.3609  0.2301 -3.0951
10357TIP3   OH231027   3.345   3.402   3.239 -0.2659 -0.2534 -0.4160
10357TIP3    H131028   3.438   3.402   3.216 -0.3911 -2.2365 -1.1092
10357TIP3    H231029   3.313   3.488   3.210  1.4406  0.6703  0.3258
10358TIP3   OH231030   5.521   4.429   1.412 -0.0060 -0.1358  0.4588
10358TIP3    H131031   5.608   4.415   1.450  0.8371  1.3154 -0.8260
10358TIP3    H231032   5.534   4.416   1.318 -1.1270  0.2669  0.2392
10359TIP3   OH231033   7.974   5.117   3.041  0.1872 -0.2628 -0.2229
10359TIP3    H131034   8.029   5.189   3.072  0.4611  0.1558 -1.6259
10359TIP3    H231035   7.888   5.135   3.079  0.4862  0.2535  0.2355
10360TIP3   OH231036   1.021   1.864   3.259 -0.0535 -0.1224  0.0996
10360TIP3    H131037   1.073   1.866   3.178  1.1501  0.3612  0.8621
10360TIP3    H231038   0.969   1.784   3.251 -0.0923  0.0015 -1.2256
10361TIP3   OH231039   4.761   6.478   0.987 -0.2561  0.8400 -0.1628
10361TIP3    H131040   4.686   6.529   1.018 -1.2701  0.1274 -1.3294
10361TIP3    H231041   4.834   6.539   0.987 -0.4851  1.2148  2.2848
10362TIP3   OH231042   5.292   5.094   4.086 -0.0858 -0.5457  0.1895
10362TIP3    H131043   5.368   5.040   4.105  0.7343  0.5454  0.1573
10362TIP3    H231044   5.328   5.172   4.043 -1.3781 -0.6961 -1.2644
10363TIP3   OH231045   2.066   6.646   1.036 -0.1455 -0.0448 -0.3781
10363TIP3    H131046   2.011   6.680   0.965 -0.9007 -0.3449  0.0500
10363TIP3    H231047   2.095   6.560   1.005 -1.2724 -0.6054  0.0528
10364TIP3   OH231048   4.645   3.758   0.080 -0.4380 -0.5755  0.2317
10364TIP3    H131049   4.586   3.712   0.139  0.0096 -0.5192  0.7346
10364TIP3    H231050   4.682   3.829   0.133  0.7600 -1.1532  0.2180
10365TIP3   OH231051   8.170   5.315   3.127 -0.3102  0.3125 -0.3183
10365TIP3    H131052   8.254   5.323   3.172  0.2446  1.6872 -1.4848
10365TIP3    H231053   8.122   5.395   3.151 -1.5353 -0.7019  0.7544
10366TIP3   OH231054   4.469   3.278   5.715  0.4769 -0.7767 -0.0527
10366TIP3    H131055   4.397   3.236   5.761 -1.1095 -0.7591 -2.3683
10366TIP3    H231056   4.427   3.340   5.655  2.5252  0.5777 -0.2032
10367TIP3   OH231057   2.943   0.481   1.919  0.3421  0.2637  0.2214
10367TIP3    H131058   2.925   0.504   2.010  1.1037  2.0833 -0.0513
10367TIP3    H231059   2.897   0.548   1.868  0.3264 -0.4487 -0.7278
10368TIP3   OH231060   6.523   0.089   0.206  0.2580  0.1225 -0.7113
10368TIP3    H131061   6.563   0.110   0.291  0.9745 -0.4650 -0.8900
10368TIP3    H231062   6.485   0.003   0.218 -1.5687  0.9337 -0.3546
10369TIP3   OH231063   7.964   7.438   4.089  0.0250  0.5120  0.1329
10369TIP3    H131064   8.011   7.517   4.116 -1.9190  0.8168  3.0252
10369TIP3    H231065   7.873   7.466   4.081 -0.3816 -0.9988 -1.0171
10370TIP3   OH231066   1.327   5.211   6.704 -0.7427 -0.2900 -0.2241
10370TIP3    H131067   1.361   5.189   6.791 -3.0882 -2.1067  0.3264
10370TIP3    H231068   1.341   5.132   6.652  0.5716  0.7536 -1.5458
10371TIP3   OH231069   0.919   4.192   5.917  0.0886 -0.6740 -0.1652
10371TIP3    H131070   0.834   4.235   5.925  0.4084 -0.1966  0.9346
10371TIP3    H231071   0.926   4.140   5.997  0.5966 -1.1480 -0.5128
10372TIP3   OH231072   2.494   0.160   2.273  0.2999 -0.0888  0.4016
10372TIP3    H131073   2.561   0.099   2.307  0.8762  1.1838  1.6529
10372TIP3    H231074   2.545   0.230   2.232 -0.2786  0.5688  0.7961
10373TIP3   OH231075   5.013   6.265   2.306 -0.3314  0.2750  0.0316
10373TIP3    H131076   4.955   6.289   2.234  0.6317  1.9704 -0.2483
10373TIP3    H231077   5.058   6.186   2.277 -0.7419  0.3258 -0.7520
10374TIP3   OH231078   6.644   6.048   3.146 -0.5219 -0.2034 -0.4919
10374TIP3    H131079   6.688   6.133   3.150 -0.4566 -0.2569 -0.0520
10374TIP3    H231080   6.682   5.998   3.218  0.9878 -1.3481 -1.9790
10375TIP3   OH231081   5.915   3.995   5.749  0.0894  0.1092 -0.1031
10375TIP3    H131082   5.838   3.989   5.805 -0.0583  0.1559 -0.2997
10375TIP3    H231083   5.901   3.930   5.680  1.0350 -1.1175  0.8260
10376TIP3   OH231084   4.702   5.769   5.804  0.5095  0.2657  0.4987
10376TIP3    H131085   4.634   5.836   5.810  0.0001 -0.3094  1.3308
10376TIP3    H231086   4.720   5.762   5.711  1.1875  2.1593  0.4421
10377TIP3   OH231087   5.953   4.817   1.341 -0.0605  0.0302 -0.0837
10377TIP3    H131088   6.010   4.890   1.318 -0.9351  0.9802  0.6942
10377TIP3    H231089   5.993   4.778   1.419 -0.4096  0.6215  0.3912
10378TIP3   OH231090   0.607   5.122   2.516  0.3986  0.2496  0.0035
10378TIP3    H131091   0.601   5.195   2.578  0.7502  0.4627 -0.2084
10378TIP3    H231092   0.563   5.154   2.437  1.4517  0.6245 -0.4463
10379TIP3   OH231093   1.108   7.106   4.324 -0.4355  0.0276  0.0492
10379TIP3    H131094   1.108   7.122   4.418  1.0335 -0.3975  0.1498
10379TIP3    H231095   1.118   7.011   4.316 -0.1672  0.1023 -0.5312
10380TIP3   OH231096   0.952   4.553   3.772  0.0911  0.2128 -0.2280
10380TIP3    H131097   0.906   4.470   3.785  0.9630 -0.2094  0.2316
10380TIP3    H231098   0.945   4.598   3.855 -0.7907  0.8180 -0.6230
10381TIP3   OH231099   6.205   0.579   6.105 -0.2474  0.4961 -0.3243
10381TIP3    H131100   6.127   0.634   6.100  0.0631  0.8348 -1.5718
10381TIP3    H231101   6.245   0.603   6.189 -2.0848 -0.5439  0.9325
10382TIP3   OH231102   1.620   4.469   6.263  0.1822 -0.1596 -0.3716
10382TIP3    H131103   1.653   4.450   6.175  1.2218 -0.0340 -0.0307
10382TIP3    H231104   1.569   4.391   6.287 -2.2183  0.8093 -2.0211
10383TIP3   OH231105   2.028   5.228   2.881 -0.3060 -0.2323  0.4095
10383TIP3    H131106   2.118   5.243   2.854 -0.3743  0.7042  0.6816
10383TIP3    H231107   1.976   5.288   2.827 -0.8614 -1.3598 -0.3456
10384TIP3   OH231108   0.925   3.622   3.208 -0.0280  0.8042 -0.2818
10384TIP3    H131109   0.874   3.606   3.288  3.5013  0.0737  2.0913
10384TIP3    H231110   0.983   3.694   3.231  1.5824  0.1178 -1.9445
10385TIP3   OH231111   2.547   5.553   1.570  0.3802  0.1560 -0.2085
10385TIP3    H131112   2.587   5.485   1.624  2.0121  1.4897  0.3417
10385TIP3    H231113   2.565   5.635   1.617 -2.7950  0.9078 -0.0917
10386TIP3   OH231114   1.342   7.465   1.114  0.0092  0.7176 -0.5160
10386TIP3    H131115   1.424   7.459   1.163 -0.1635 -0.1775 -0.3118
10386TIP3    H231116   1.356   7.537   1.053  1.2862  0.0243 -1.1050
10387TIP3   OH231117   2.912   1.868   4.926  0.0062  0.2684  0.0455
10387TIP3    H131118   2.876   1.942   4.975  1.6033  0.6427  0.7065
10387TIP3    H231119   2.857   1.863   4.848 -3.2445 -0.9218  2.1620
10388TIP3   OH231120   0.574   7.634   5.877  0.4894  0.2604  0.1130
10388TIP3    H131121   0.558   7.686   5.956  0.5193 -1.5514  1.3764
10388TIP3    H231122   0.491   7.588   5.862  0.1847  1.2438 -1.4808
10389TIP3   OH231123   4.943   4.337   6.095  0.0766  0.2929  0.5357
10389TIP3    H131124   5.017   4.398   6.098  0.5640 -0.2060 -0.6618
10389TIP3    H231125   4.936   4.312   6.002 -2.6369  1.5760  0.3225
10390TIP3   OH231126   0.881   2.392   5.485 -0.0522 -0.4318 -0.5591
10390TIP3    H131127   0.792   2.396   5.451  0.2098 -0.1933 -1.2474
10390TIP3    H231128   0.897   2.299   5.501 -0.5852 -0.4240  0.0192
10391TIP3   OH231129   2.628   4.625   2.822  0.5155 -0.0665  0.1148
10391TIP3    H131130   2.639   4.684   2.897 -0.2560 -0.1196  0.2690
10391TIP3    H231131   2.705   4.643   2.767 -0.5394  2.3505 -0.7186
10392TIP3   OH231132   4.125   1.299   5.997 -0.0931 -0.1285  0.4056
10392TIP3    H131133   4.116   1.352   5.918 -0.6547 -1.5780 -0.5480
10392TIP3    H231134   4.211   1.257   5.987 -0.5858 -1.0808  0.0506
10393TIP3   OH231135   4.556   0.199   5.722  0.6823  0.4462 -0.2684
10393TIP3    H131136   4.531   0.108   5.739  1.8144  0.1935  0.1024
10393TIP3    H231137   4.517   0.219   5.637  1.0305 -0.6274 -0.6967
10394TIP3   OH231138   4.013   1.199   6.571 -0.2244  0.3978  0.6503
10394TIP3    H131139   4.085   1.240   6.618  0.6238  0.6941 -0.8360
10394TIP3    H231140   4.027   1.105   6.583 -0.9823  0.4636  2.3294
10395TIP3   OH231141   1.006   1.548   5.741  0.3001 -0.3861 -0.7578
10395TIP3    H131142   1.093   1.559   5.779 -0.2212 -0.5261  0.5472
10395TIP3    H231143   1.019   1.490   5.666  1.5764  1.0189 -1.6554
10396TIP3   OH231144   3.171   3.614   4.934 -0.5714 -0.3201 -0.3734
10396TIP3    H131145   3.245   3.659   4.975 -2.6037  0.6772  2.5222
10396TIP3    H231146   3.121   3.685   4.892 -0.6768 -0.7510 -0.9820
10397TIP3   OH231147   8.066   5.989   2.973  0.9563 -0.3867 -0.1349
10397TIP3    H131148   8.017   6.060   2.932  0.1570  0.0958  1.5409
10397TIP3    H231149   8.129   6.033   3.030  1.1810 -1.0170  0.1203
10398TIP3   OH231150   3.052   2.477   5.294  0.0631  0.3563 -0.2380
10398TIP3    H131151   3.079   2.391   5.263 -0.0280  0.6126 -1.0293
10398TIP3    H231152   2.993   2.457   5.368 -1.1704 -0.3160 -1.3565
10399TIP3   OH231153   4.275   6.179   5.864  0.1279 -0.0450 -0.2104
10399TIP3    H131154   4.237   6.265   5.877  1.6258  0.8757 -1.5258
10399TIP3    H231155   4.301   6.178   5.772 -0.9840 -2.3993 -0.5810
10400TIP3   OH231156   5.816   5.725   6.432 -0.0248 -0.1859  0.0135
10400TIP3    H131157   5.776   5.646   6.397 -0.6573 -0.2346  0.8079
10400TIP3    H231158   5.742   5.775   6.469  0.6682 -0.4785  1.9043
10401TIP3   OH231159   0.675   5.110   5.420 -0.8916 -0.6230  0.4465
10401TIP3    H131160   0.688   5.144   5.332  0.3191  1.0025  1.1992
10401TIP3    H231161   0.750   5.053   5.436 -1.6534 -1.7706  0.0813
10402TIP3   OH231162   6.232   3.265   1.660 -0.0876 -0.1070 -0.0927
10402TIP3    H131163   6.273   3.345   1.626  1.6497 -0.7816  0.3481
10402TIP3    H231164   6.143   3.269   1.625 -0.2615  2.3106  0.4025
10403TIP3   OH231165   0.137   7.533   0.546 -0.4771 -0.3811  0.1032
10403TIP3    H131166   0.042   7.527   0.557 -0.4599  0.7758  1.1556
10403TIP3    H231167   0.168   7.572   0.628  1.0900 -2.0500  0.3681
10404TIP3   OH231168   6.755   5.493   3.690 -0.4109  0.2643 -0.8002
10404TIP3    H131169   6.812   5.492   3.767  0.2370  1.0145 -1.2475
10404TIP3    H231170   6.667   5.478   3.724 -0.1847  0.9845  0.1317
10405TIP3   OH231171   6.776   0.250   1.497  0.6632  0.2719 -0.2913
10405TIP3    H131172   6.772   0.198   1.416  0.1671  0.6928 -0.5413
10405TIP3    H231173   6.773   0.185   1.567  1.9663 -0.1549 -0.6037
10406TIP3   OH231174   0.302   2.532   4.844 -0.1003 -0.4173 -0.6992
10406TIP3    H131175   0.285   2.626   4.852 -1.7352 -0.6304 -1.3143
10406TIP3    H231176   0.229   2.499   4.793 -0.6387 -2.3607  1.1967
10407TIP3   OH231177   3.999   1.375   3.077 -0.0423  0.2110 -0.0402
10407TIP3    H131178   3.947   1.455   3.089 -1.1579 -0.6478  1.0526
10407TIP3    H231179   3.949   1.322   3.015  0.2247 -0.0546 -0.0348
10408TIP3   OH231180   7.146   4.821   3.974  0.3313 -0.1750  0.4608
10408TIP3    H131181   7.078   4.805   4.039 -0.8809  0.8429 -0.5047
10408TIP3    H231182   7.106   4.798   3.890  1.2322  0.2730 -0.1197
10409TIP3   OH231183   7.831   1.298   6.252  0.3197 -0.5107 -0.2278
10409TIP3    H131184   7.903   1.310   6.190 -0.1883 -0.6184 -0.8477
10409TIP3    H231185   7.787   1.383   6.253 -0.3478 -0.8391 -0.8867
10410TIP3   OH231186   0.758   2.211   4.904  0.4622  0.1494 -0.2413
10410TIP3    H131187   0.835   2.266   4.910  0.3664  0.5586 -2.0324
10410TIP3    H231188   0.792   2.123   4.886  0.5540 -0.0448  0.8348
10411TIP3   OH231189   7.585   2.078   3.339 -0.0354  0.2440  0.3157
10411TIP3    H131190   7.497   2.084   3.377  0.0724  0.7293  0.4931
10411TIP3    H231191   7.643   2.106   3.410  0.4780 -2.4280  1.0627
10412TIP3   OH231192   1.503   3.701   6.178  0.0908 -0.8866  0.3237
10412TIP3    H131193   1.588   3.703   6.135 -0.2256  0.1572 -0.2920
10412TIP3    H231194   1.522   3.711   6.271  0.5741  0.9388  0.0687
10413TIP3   OH231195   7.761   6.338   0.244 -0.0188 -0.2632  0.2113
10413TIP3    H131196   7.778   6.265   0.185  1.8527  0.4923 -0.2757
10413TIP3    H231197   7.722   6.406   0.189  0.7469  0.0534  0.0358
10414TIP3   OH231198   8.108   4.747   1.788 -0.3438  0.3042  0.7457
10414TIP3    H131199   8.179   4.769   1.847 -0.1304  0.6872  0.3578
10414TIP3    H231200   8.048   4.822   1.794 -0.4110  0.2612  0.6198
10415TIP3   OH231201   1.300   2.400   0.466  0.6173  0.2959  0.3532
10415TIP3    H131202   1.253   2.482   0.452  1.0371  0.2116 -1.8832
10415TIP3    H231203   1.392   2.422   0.450  0.8276 -0.4537  0.5016
10416TIP3   OH231204   5.582   2.121   5.715 -0.1612 -0.0451  0.3270
10416TIP3    H131205   5.564   2.109   5.622  0.8824 -2.8028  0.3929
10416TIP3    H231206   5.675   2.141   5.720 -0.0670 -0.5724  0.8014
10417TIP3   OH231207   4.312   5.873   4.829  0.3625 -0.4574 -0.3438
10417TIP3    H131208   4.355   5.883   4.744  0.4340 -0.0097 -0.2583
10417TIP3    H231209   4.365   5.926   4.889  0.6273 -1.2158  0.0931
10418TIP3   OH231210   2.349   5.090   5.816  0.3757  0.2442 -0.1118
10418TIP3    H131211   2.410   5.097   5.743  0.3455  0.6036 -0.1014
10418TIP3    H231212   2.385   5.146   5.884  0.7888 -0.6470  0.4268
10419TIP3   OH231213   0.623   3.048   5.164  0.1095  0.4813 -0.2743
10419TIP3    H131214   0.589   2.959   5.172 -0.0585  0.7196  2.6504
10419TIP3    H231215   0.635   3.078   5.254  1.4288  2.9646 -1.1689
10420TIP3   OH231216   0.098   5.784   1.881  0.0961 -0.2384 -0.5954
10420TIP3    H131217   0.097   5.688   1.891 -2.4668 -0.4091 -1.7756
10420TIP3    H231218   0.096   5.798   1.787 -0.7378  0.9461 -0.4226
10421TIP3   OH231219   6.446   0.071   1.432 -0.4271 -0.5399 -0.8119
10421TIP3    H131220   6.461   0.044   1.342  0.3213 -0.4270 -0.7262
10421TIP3    H231221   6.440  -0.011   1.481  0.2860 -0.5934 -0.7975
10422TIP3   OH231222   6.730   3.099   4.151 -0.2606  0.1679 -0.0822
10422TIP3    H131223   6.770   3.128   4.069  1.9146 -1.6160  0.2608
10422TIP3    H231224   6.642   3.137   4.149  0.8515  2.9690 -1.6454
10423TIP3   OH231225   3.644   6.784   4.270  0.5844 -0.4497 -0.1777
10423TIP3    H131226   3.678   6.867   4.237 -0.9726  0.4945  0.4245
10423TIP3    H231227   3.549   6.797   4.271  0.3373 -2.0934  0.3504
10424TIP3   OH231228   3.061   6.746   5.972 -0.4208  0.4668  0.0223
10424TIP3    H131229   2.979   6.792   5.990 -0.0870  0.7085  0.9596
10424TIP3    H231230   3.071   6.686   6.046  1.1146  1.6666  0.8259
10425TIP3   OH231231   7.767   2.382   2.729  0.9507 -0.2278 -0.0507
10425TIP3    H131232   7.678   2.409   2.754 -0.3546 -1.4275 -2.9432
10425TIP3    H231233   7.810   2.363   2.812 -0.9162  1.9464  1.5739
10426TIP3   OH231234   1.011   5.737   6.318 -0.0973  0.0773 -0.1579
10426TIP3    H131235   1.072   5.665   6.306 -0.4574 -0.3758  0.6643
10426TIP3    H231236   1.033   5.799   6.248 -0.4065 -1.2484 -1.4778
10427TIP3   OH231237   7.154   4.537   6.208  0.6842  0.0575  0.2258
10427TIP3    H131238   7.219   4.476   6.173  0.4124  0.3052 -0.7164
10427TIP3    H231239   7.205   4.613   6.237  1.2811 -1.3103  3.1944
10428TIP3   OH231240   2.133   0.413   0.787 -0.4694 -0.2051  0.4164
10428TIP3    H131241   2.176   0.495   0.811  0.8327 -0.3571 -1.1938
10428TIP3    H231242   2.185   0.346   0.831 -0.4123 -0.2536  0.2776
10429TIP3   OH231243   2.079   4.501   0.684 -0.2915 -1.0849 -0.6865
10429TIP3    H131244   2.085   4.597   0.682 -0.8085 -1.0450 -0.3182
10429TIP3    H231245   2.025   4.479   0.609 -1.5623 -0.9727  0.1694
10430TIP3   OH231246   6.920   3.319   5.929 -0.0023 -0.1061 -0.2141
10430TIP3    H131247   6.898   3.375   5.855  0.1060 -0.2000 -0.3186
10430TIP3    H231248   6.926   3.379   6.004 -2.4921 -0.3177  0.2171
10431TIP3   OH231249   3.271   5.148   0.104 -0.4836 -0.2827  0.5082
10431TIP3    H131250   3.357   5.191   0.105 -1.5112  1.9522 -0.7675
10431TIP3    H231251   3.291   5.054   0.112  1.9892  0.2393  1.3156
10432TIP3   OH231252   4.189   3.174   6.653 -0.2729 -0.6756 -0.1764
10432TIP3    H131253   4.228   3.175   6.741 -1.8106 -0.2344  0.5204
10432TIP3    H231254   4.139   3.092   6.650 -0.4137 -0.5783 -0.5632
10433TIP3   OH231255   5.805   4.076   2.652 -0.1889 -0.2256  0.1330
10433TIP3    H131256   5.845   4.026   2.582  1.9784  1.4444  0.0799
10433TIP3    H231257   5.791   4.013   2.722 -1.2231 -1.6532 -1.2915
10434TIP3   OH231258   5.190   2.796   5.529 -0.0125  0.4999 -0.5540
10434TIP3    H131259   5.173   2.874   5.477 -1.8309  0.8643  0.5076
10434TIP3    H231260   5.233   2.829   5.608 -1.0630  0.5002  0.0356
10435TIP3   OH231261  -0.017   3.214   3.634  0.3545 -0.3960  0.0453
10435TIP3    H131262  -0.042   3.207   3.727 -0.7170 -0.6546 -0.2493
10435TIP3    H231263   0.070   3.176   3.630 -0.7582 -3.2886  0.4605
10436TIP3   OH231264   4.718   6.635   4.166  0.2743  0.0256 -0.1558
10436TIP3    H131265   4.809   6.607   4.158  0.1966 -0.1518 -0.4373
10436TIP3    H231266   4.713   6.717   4.117  0.3075  0.0927 -0.0468
10437TIP3   OH231267   6.506   0.126   1.829  0.8012  0.1627 -0.4276
10437TIP3    H131268   6.432   0.065   1.823 -0.4935  1.8054 -2.4216
10437TIP3    H231269   6.522   0.135   1.923  0.0458 -2.0397 -0.0342
10438TIP3   OH231270   1.398   2.878   5.207  0.2472  0.0726 -0.4772
10438TIP3    H131271   1.354   2.895   5.291 -1.8723 -2.8716 -0.8566
10438TIP3    H231272   1.358   2.940   5.147  0.4761  0.9912  0.2886
10439TIP3   OH231273   6.777   7.732   5.357 -0.0327  0.3680 -0.4156
10439TIP3    H131274   6.690   7.765   5.336 -0.1138  0.1502 -0.4246
10439TIP3    H231275   6.807   7.689   5.277  1.4512  3.2605 -1.5533
10440TIP3   OH231276   5.573   5.104   1.078 -0.1992 -0.5438 -0.6800
10440TIP3    H131277   5.633   5.030   1.087  0.6499  0.1228 -0.6313
10440TIP3    H231278   5.572   5.124   0.985 -2.5624 -2.2900 -1.1050
10441TIP3   OH231279   2.575   6.942   2.104 -0.0935  0.2673  0.2469
10441TIP3    H131280   2.496   6.997   2.097  0.6582  1.4270  0.6132
10441TIP3    H231281   2.560   6.891   2.184 -1.0352 -0.4895 -0.3809
10442TIP3   OH231282   0.393   3.116   1.234 -0.4615 -0.4923  0.8335
10442TIP3    H131283   0.310   3.130   1.279 -1.1266  2.3757 -1.0290
10442TIP3    H231284   0.458   3.161   1.288 -0.9299  1.2142  0.0356
10443TIP3   OH231285   0.489   6.116   0.456  0.1896  0.4517 -0.3492
10443TIP3    H131286   0.523   6.156   0.536 -0.2929  1.6441 -0.7172
10443TIP3    H231287   0.566   6.082   0.411  0.4752 -0.1290  0.5593
10444TIP3   OH231288   5.775   6.451   0.433  0.5112 -0.8374  0.3859
10444TIP3    H131289   5.689   6.410   0.431 -0.4534  1.0805 -0.1061
10444TIP3    H231290   5.793   6.464   0.527 -0.2029 -0.3352  0.4553
10445TIP3   OH231291   3.092   6.823   3.227  0.0660 -0.6063 -0.2068
10445TIP3    H131292   3.105   6.799   3.319 -0.4340  0.8327  0.2653
10445TIP3    H231293   3.166   6.880   3.206 -0.9149  0.7864 -0.0315
10446TIP3   OH231294   7.164   7.257   4.943  0.8097  0.6655 -0.4426
10446TIP3    H131295   7.222   7.327   4.912  0.4623  0.8686 -0.6291
10446TIP3    H231296   7.146   7.280   5.034  2.1400 -0.1334  0.0653
10447TIP3   OH231297   1.072   7.024   5.690  0.0010 -0.0971 -0.2723
10447TIP3    H131298   1.083   6.988   5.778  3.5807 -1.0697 -0.9300
10447TIP3    H231299   1.080   7.119   5.702  1.9922 -0.2932  0.3989
10448TIP3   OH231300   2.859   5.679   1.357  0.3410 -0.0863  0.0163
10448TIP3    H131301   2.910   5.737   1.301  1.7497 -0.2868  1.0362
10448TIP3    H231302   2.888   5.591   1.333 -0.3495 -0.2677 -0.1655
10449TIP3   OH231303   3.661   6.894   5.810  0.2229 -0.3479  0.6457
10449TIP3    H131304   3.575   6.923   5.779  1.2303  2.5365  0.2413
10449TIP3    H231305   3.713   6.886   5.730  0.9611  0.3444  1.0371
10450TIP3   OH231306   6.819   3.782   4.847 -0.6776 -0.0633 -0.1372
10450TIP3    H131307   6.738   3.744   4.813 -0.7594  0.8105 -0.9363
10450TIP3    H231308   6.792   3.865   4.887 -0.8479 -1.6340  3.4551
10451TIP3   OH231309   4.998   0.810   1.689  0.1876 -0.2754  0.1391
10451TIP3    H131310   5.058   0.735   1.696 -1.6164 -2.1091 -2.2228
10451TIP3    H231311   5.038   0.867   1.624  0.1328 -0.7281 -0.2993
10452TIP3   OH231312   1.523   2.094   2.032 -0.0606 -0.5109  0.5261
10452TIP3    H131313   1.485   2.068   2.116 -2.5416 -0.7392 -0.5744
10452TIP3    H231314   1.487   2.182   2.016  1.1196 -0.0832  0.0983
10453TIP3   OH231315   7.101   2.322   2.187 -0.5944  0.2471 -0.4149
10453TIP3    H131316   7.048   2.306   2.109 -0.0448  0.7771 -0.9124
10453TIP3    H231317   7.128   2.413   2.179  0.5580 -0.0661 -0.2930
10454TIP3   OH231318   1.866   2.224   1.843 -0.1180  0.3595 -0.2477
10454TIP3    H131319   1.843   2.169   1.918 -1.2341  0.9378 -0.1519
10454TIP3    H231320   1.832   2.178   1.767 -1.7738  1.2686 -0.0959
10455TIP3   OH231321   6.975   0.949   6.328 -0.1553 -0.3968 -0.1413
10455TIP3    H131322   6.945   1.039   6.342  1.4663 -0.1402  2.2234
10455TIP3    H231323   7.068   0.957   6.310 -0.2609 -1.5504 -1.3734
10456TIP3   OH231324   6.735   1.773   4.013  0.0190  0.2144 -0.2875
10456TIP3    H131325   6.819   1.728   4.008 -0.4320 -0.5166 -2.8657
10456TIP3    H231326   6.675   1.708   4.048  0.0499 -0.1156 -0.8286
10457TIP3   OH231327   0.998   3.150   6.408 -0.4685 -0.3133  0.5373
10457TIP3    H131328   1.088   3.121   6.393 -0.6294 -0.3696 -0.3459
10457TIP3    H231329   1.000   3.243   6.386 -0.2861  0.0645  1.9949
10458TIP3   OH231330   6.680   0.238   0.977 -0.4987  0.3169  0.5436
10458TIP3    H131331   6.604   0.223   0.921 -0.4532 -0.8196  0.7719
10458TIP3    H231332   6.752   0.252   0.916 -0.7183  0.5112  0.3254
10459TIP3   OH231333   5.614   0.950   1.185  0.0228 -0.3606  0.0135
10459TIP3    H131334   5.627   0.866   1.229  0.8390 -0.3019 -0.1009
10459TIP3    H231335   5.569   1.004   1.249 -0.4444 -0.8637  0.1140
10460TIP3   OH231336   7.805   5.685   5.768  0.3094  0.5617 -0.1310
10460TIP3    H131337   7.772   5.743   5.699  1.1450 -0.5604 -1.5399
10460TIP3    H231338   7.868   5.629   5.723  0.9434 -0.1659  1.5886
10461TIP3   OH231339   5.406   2.742   0.796 -0.1690 -0.2615 -0.1610
10461TIP3    H131340   5.399   2.660   0.747 -0.9634 -0.2801 -0.0230
10461TIP3    H231341   5.448   2.803   0.735 -0.5055 -0.4852 -0.6189
10462TIP3   OH231342   8.180   2.563   1.686  0.0348 -0.1630  0.1055
10462TIP3    H131343   8.255   2.512   1.716  0.8573  0.9736  0.0340
10462TIP3    H231344   8.157   2.618   1.761 -0.0600  0.2390 -0.2127
10463TIP3   OH231345   8.036   2.981   6.742 -0.0813  0.0408 -0.0091
10463TIP3    H131346   8.105   2.933   6.788  0.9253  0.3246 -1.1538
10463TIP3    H231347   7.982   2.914   6.702  0.0481 -0.1740  0.1759
10464TIP3   OH231348   6.686   4.579   4.255 -0.0999  0.0382 -0.4018
10464TIP3    H131349   6.613   4.592   4.195 -0.1794  1.7090  0.0205
10464TIP3    H231350   6.650   4.602   4.341  0.7116  0.1030 -0.0748
10465TIP3   OH231351   3.836   2.950   5.288 -0.0762 -0.2325 -0.2260
10465TIP3    H131352   3.848   2.866   5.334 -0.8691 -0.9466 -1.2743
10465TIP3    H231353   3.754   2.985   5.324  0.2577  0.1181  0.2157
10466TIP3   OH231354   5.800   3.591   2.155  0.3869  0.2532  0.1993
10466TIP3    H131355   5.865   3.658   2.176 -0.0674  0.3608  1.3135
10466TIP3    H231356   5.775   3.555   2.239 -0.3735 -0.3845 -0.2893
10467TIP3   OH231357   1.023   3.352   2.163 -0.0414  0.2301 -0.3424
10467TIP3    H131358   1.117   3.343   2.148  0.0020  0.5143 -0.2492
10467TIP3    H231359   0.983   3.320   2.082  0.1260 -0.1457 -0.2769
10468TIP3   OH231360   7.488   0.120   4.208  0.2015  0.6043 -0.1608
10468TIP3    H131361   7.461   0.173   4.133  0.6702  0.5023 -0.4096
10468TIP3    H231362   7.584   0.124   4.206  0.3059 -1.2482 -0.9221
10469TIP3   OH231363   1.472   1.124   1.741 -0.0077  0.1211 -0.3060
10469TIP3    H131364   1.437   1.051   1.690 -1.2398  0.8818 -0.6153
10469TIP3    H231365   1.546   1.088   1.789  0.2251 -0.9866 -1.4743
10470TIP3   OH231366   8.305   7.152   5.651 -0.4407  0.4297 -0.6414
10470TIP3    H131367   8.359   7.097   5.593 -1.0145  1.7080 -2.4707
10470TIP3    H231368   8.220   7.157   5.606 -1.2686  0.5921  0.8888
10471TIP3   OH231369   7.266   2.123   0.810  0.2263  0.5051  0.0975
10471TIP3    H131370   7.313   2.043   0.785 -0.6594 -0.4263  1.2574
10471TIP3    H231371   7.215   2.146   0.733  2.3156  1.3954 -1.1115
10472TIP3   OH231372   0.083   7.133   6.243  0.5812  0.0042  0.1646
10472TIP3    H131373   0.044   7.219   6.229 -0.1537 -0.1983  0.8277
10472TIP3    H231374   0.158   7.130   6.185  0.9998  1.3387  0.6094
10473TIP3   OH231375   0.424   4.938   0.521  0.0862 -0.3591 -0.2350
10473TIP3    H131376   0.442   4.909   0.610 -0.4704  0.9058  0.2991
10473TIP3    H231377   0.335   4.909   0.504  0.3978 -1.1370 -0.6274
10474TIP3   OH231378   0.469   0.852   1.696  0.0936 -0.4248 -0.0687
10474TIP3    H131379   0.562   0.845   1.675  0.4320 -0.1772  1.2824
10474TIP3    H231380   0.441   0.934   1.655 -0.5226 -2.2627 -3.8179
10475TIP3   OH231381   6.755   5.967   4.561  0.2283  0.2923  0.4807
10475TIP3    H131382   6.838   5.988   4.520 -0.4903  0.3571 -0.9895
10475TIP3    H231383   6.747   5.872   4.552 -0.3311  0.4115 -0.3193
10476TIP3   OH231384   5.011   7.604   4.406  0.4375  0.4572  0.3298
10476TIP3    H131385   4.969   7.549   4.341  0.5825  0.4993  0.1994
10476TIP3    H231386   5.085   7.643   4.360  0.8989  0.0149  0.6844
10477TIP3   OH231387   6.431   5.232   4.988  0.6846 -0.3217 -0.4378
10477TIP3    H131388   6.441   5.240   5.083  2.1968  1.9214 -0.7080
10477TIP3    H231389   6.520   5.215   4.956  0.0614 -1.9524 -1.4292
10478TIP3   OH231390   6.582   2.904   2.115  0.6944  0.7826  0.1712
10478TIP3    H131391   6.613   2.992   2.139  2.3104 -0.2251  2.0893
10478TIP3    H231392   6.662   2.858   2.087 -0.0541 -0.2289 -0.3590
10479TIP3   OH231393   4.549  -0.008   4.544 -0.1046  0.0997 -0.2694
10479TIP3    H131394   4.589   0.060   4.490 -1.2721  0.2723 -0.9665
10479TIP3    H231395   4.547   0.029   4.632 -1.1151  1.1804 -0.7138
10480TIP3   OH231396   4.176   0.768   0.401  0.8899 -0.5263 -0.3932
10480TIP3    H131397   4.123   0.749   0.323 -0.0841  3.0562 -0.8156
10480TIP3    H231398   4.260   0.799   0.366  0.6147  0.6496 -0.0593
10481TIP3   OH231399   0.229   3.537   0.176  0.1079 -1.2250 -0.6550
10481TIP3    H131400   0.161   3.492   0.225  0.8667 -2.6493 -0.8468
10481TIP3    H231401   0.186   3.566   0.096 -0.2286 -2.3258 -0.8843
10482TIP3   OH231402   3.171   2.635   0.189 -0.1788 -0.3208 -0.7175
10482TIP3    H131403   3.109   2.706   0.202 -0.3928 -0.6025 -0.1685
10482TIP3    H231404   3.257   2.677   0.194 -0.2032 -0.4138  2.0201
10483TIP3   OH231405   4.292   1.438   3.037 -0.2069  0.5500  0.0872
10483TIP3    H131406   4.315   1.494   2.962 -1.9155 -0.2159 -1.0657
10483TIP3    H231407   4.201   1.414   3.022  0.0119 -1.2743  1.3776
10484TIP3   OH231408   1.290   5.190   0.132 -0.0565  0.4380  0.5656
10484TIP3    H131409   1.266   5.100   0.157  0.1084  0.6585  1.5618
10484TIP3    H231410   1.271   5.195   0.039 -0.8524 -0.3835  0.6722
10485TIP3   OH231411   0.559   2.665   1.284  0.0284  0.6360  0.2262
10485TIP3    H131412   0.477   2.713   1.281 -0.1160  0.3388 -1.3504
10485TIP3    H231413   0.551   2.598   1.216  0.8045 -0.6924  1.3747
10486TIP3   OH231414   5.212   3.709   1.063  0.2658 -0.5723  0.0074
10486TIP3    H131415   5.180   3.620   1.081 -0.2234 -0.2608  0.6987
10486TIP3    H231416   5.297   3.695   1.020  0.2380 -1.3713  0.1919
10487TIP3   OH231417   7.648   1.357   1.669 -0.0287  0.1090 -0.6575
10487TIP3    H131418   7.738   1.325   1.680 -0.1739  0.2776  1.3185
10487TIP3    H231419   7.596   1.278   1.656  0.3219 -0.0302 -1.2618
10488TIP3   OH231420   1.344   1.477   4.548 -0.2656 -0.1200 -0.6773
10488TIP3    H131421   1.385   1.516   4.470 -0.3795  0.7432 -0.3168
10488TIP3    H231422   1.270   1.533   4.566  1.2361  1.2839  1.5953
10489TIP3   OH231423   3.197   3.210   3.370 -0.3860 -0.4046 -0.4164
10489TIP3    H131424   3.130   3.186   3.306 -0.3108 -2.2118  0.1350
10489TIP3    H231425   3.261   3.260   3.320 -0.5089 -1.4595 -1.6730
10490TIP3   OH231426   7.820   7.318   1.070 -0.1973 -0.8025 -0.1087
10490TIP3    H131427   7.791   7.387   1.011  2.1340  0.4732  0.1096
10490TIP3    H231428   7.855   7.365   1.146 -0.5539 -2.3194  1.0443
10491TIP3   OH231429   3.752   1.833   3.988 -0.4047  0.3523 -0.4536
10491TIP3    H131430   3.812   1.906   3.969  1.4065 -0.2822  2.2443
10491TIP3    H231431   3.687   1.871   4.047 -0.4137  0.1897 -0.3584
10492TIP3   OH231432   1.738   1.720   2.119 -0.0204 -0.9140  0.4137
10492TIP3    H131433   1.773   1.634   2.143  1.2131 -0.4015  0.5684
10492TIP3    H231434   1.797   1.782   2.162 -0.5172  0.0131 -0.2045
10493TIP3   OH231435   7.321   2.921   0.320 -0.4023 -0.5768 -0.0978
10493TIP3    H131436   7.239   2.960   0.289 -0.8536 -2.1634 -1.0020
10493TIP3    H231437   7.308   2.911   0.415 -1.0434 -0.3492 -0.1575
10494TIP3   OH231438   3.946   6.691   3.580 -1.1460 -0.0224 -0.2190
10494TIP3    H131439   4.030   6.718   3.543 -2.0745  0.1233 -2.3105
10494TIP3    H231440   3.963   6.683   3.674  0.9281  1.0056 -0.4612
10495TIP3   OH231441   2.925   4.679   2.798  0.3666 -0.5233  0.9102
10495TIP3    H131442   2.927   4.584   2.806 -3.4124 -0.6465  2.2757
10495TIP3    H231443   2.955   4.711   2.883  1.0710 -0.5075  0.6568
10496TIP3   OH231444   5.869   2.458   0.503 -0.3701  0.3215  0.2825
10496TIP3    H131445   5.836   2.545   0.480  0.7974  0.0565 -2.9775
10496TIP3    H231446   5.815   2.398   0.450  0.3134 -0.7309  0.7495
10497TIP3   OH231447   6.417   7.530   2.462  0.1483 -1.0383  0.3721
10497TIP3    H131448   6.346   7.500   2.518 -1.0736  0.8141 -0.0657
10497TIP3    H231449   6.497   7.506   2.508 -0.7324 -3.0483  0.9593
10498TIP3   OH231450   2.395   6.573   1.026 -0.2381 -0.1767 -0.5285
10498TIP3    H131451   2.380   6.649   1.083 -1.4337 -0.8643  0.1023
10498TIP3    H231452   2.357   6.599   0.942 -2.1209 -0.6507  0.1362
10499TIP3   OH231453   6.921   3.237   5.435 -0.1707 -0.7785 -0.1571
10499TIP3    H131454   6.881   3.305   5.489 -2.1722 -0.2746 -2.1158
10499TIP3    H231455   7.013   3.237   5.460 -0.2203  2.1901  0.4176
10500TIP3   OH231456   2.488   4.289   5.156 -0.1163  0.2302 -0.1966
10500TIP3    H131457   2.579   4.309   5.133 -1.3742  4.3010 -2.6762
10500TIP3    H231458   2.478   4.196   5.137  3.1592 -0.0417 -1.1520
10501TIP3   OH231459   1.524   3.055   2.800  0.2269  0.3421 -0.5511
10501TIP3    H131460   1.617   3.052   2.821 -0.3049  0.7899  2.2588
10501TIP3    H231461   1.480   3.049   2.885 -2.3700 -1.4032 -1.8783
10502TIP3   OH231462   1.999   4.664   3.519 -0.1092  0.0869  0.5157
10502TIP3    H131463   1.989   4.721   3.443 -2.4776 -0.7237  0.1633
10502TIP3    H231464   1.956   4.582   3.495 -0.3727 -0.4207  2.5067
10503TIP3   OH231465   7.545   2.971   0.717 -0.5345 -0.0306  0.1433
10503TIP3    H131466   7.592   2.962   0.634  1.1243 -0.0668  1.0191
10503TIP3    H231467   7.568   2.891   0.765  1.0585  1.2945  1.7626
10504TIP3   OH231468   7.466   4.645   4.822 -0.3931 -0.4922 -0.2311
10504TIP3    H131469   7.511   4.585   4.763 -0.6482 -1.1208  0.1910
10504TIP3    H231470   7.530   4.713   4.842  1.0561 -2.2861  1.7701
10505TIP3   OH231471   5.723   7.604   1.439 -0.6133 -0.3508  0.2000
10505TIP3    H131472   5.703   7.695   1.417  1.5699 -0.0478 -0.7967
10505TIP3    H231473   5.647   7.554   1.409 -0.8581  0.8969 -1.3646
10506TIP3   OH231474   2.149   7.037   0.120 -0.0402  0.0641  0.1792
10506TIP3    H131475   2.087   7.033   0.048 -1.7294 -1.5874  1.6359
10506TIP3    H231476   2.226   6.991   0.088 -0.3512  0.2712 -0.9127
10507TIP3   OH231477   5.019   1.273   3.537  0.0866  0.1541 -0.1280
10507TIP3    H131478   5.068   1.302   3.615  0.8323  0.9558 -0.8680
10507TIP3    H231479   5.045   1.181   3.526 -1.3020 -0.4960  1.4957
10508TIP3   OH231480   4.471   0.043   2.311  0.0818 -0.7287  0.4346
10508TIP3    H131481   4.538   0.033   2.379  1.0553  0.0711 -0.3810
10508TIP3    H231482   4.509   0.003   2.233  0.3769  1.2657 -0.5089
10509TIP3   OH231483   8.168   7.515   0.220 -0.0795  0.0339 -0.1319
10509TIP3    H131484   8.226   7.439   0.214  0.2358  0.2370  0.3583
10509TIP3    H231485   8.222   7.584   0.259 -0.5963  0.2707  0.1742
10510TIP3   OH231486   2.439   3.638   1.658  0.4452  0.1500  0.0750
10510TIP3    H131487   2.497   3.562   1.665 -0.2631 -0.5500 -1.2682
10510TIP3    H231488   2.397   3.644   1.743  0.9163 -0.6275  0.3750
10511TIP3   OH231489   1.680   6.874   2.057  0.0751 -0.4323 -0.5122
10511TIP3    H131490   1.658   6.911   2.142 -0.2327 -0.4769 -0.5701
10511TIP3    H231491   1.674   6.780   2.069 -5.5185 -0.6272 -1.8655
10512TIP3   OH231492   3.273   1.089   0.485  1.0116  0.5387  0.4159
10512TIP3    H131493   3.302   1.128   0.567 -1.3799  0.5995  1.3278
10512TIP3    H231494   3.200   1.144   0.457  0.5654 -0.5872 -0.7411
10513TIP3   OH231495   7.953   3.173   2.429  0.4756 -0.3084 -0.7463
10513TIP3    H131496   7.967   3.083   2.460  0.4849  0.1393  0.6035
10513TIP3    H231497   8.035   3.218   2.447 -0.6674  0.9039  2.1063
10514TIP3   OH231498   1.275   3.464   0.155  0.3748 -0.2624  0.4021
10514TIP3    H131499   1.301   3.556   0.148 -1.9293  0.4048 -0.0407
10514TIP3    H231500   1.300   3.426   0.070  1.8909 -0.2366  0.8083
10515TIP3   OH231501   3.076   2.996   5.923 -0.5415 -0.3003 -0.2133
10515TIP3    H131502   3.134   2.943   5.868 -0.9674  0.2066 -1.1727
10515TIP3    H231503   3.012   3.033   5.862  0.0623  1.7621  0.3271
10516TIP3   OH231504   2.560   6.129   6.233  0.0037  0.1170  0.1507
10516TIP3    H131505   2.549   6.202   6.294 -2.6208  0.4420 -0.5903
10516TIP3    H231506   2.523   6.053   6.279 -0.3927 -0.0121 -0.3732
10517TIP3   OH231507   2.551   0.329   1.050 -0.1623  0.4646  0.3299
10517TIP3    H131508   2.520   0.417   1.070  0.8286  0.3792  2.5258
10517TIP3    H231509   2.496   0.300   0.978 -1.0010  2.5894  0.0475
10518TIP3   OH231510   4.774   7.718   2.003 -0.0829  0.1503 -0.3949
10518TIP3    H131511   4.765   7.628   2.034 -1.6284  0.5758  0.4893
10518TIP3    H231512   4.704   7.729   1.939  0.9489  0.3366 -1.5315
10519TIP3   OH231513   0.092   5.291   2.590  0.3473  0.1582  0.8343
10519TIP3    H131514   0.078   5.382   2.564  0.2495 -0.0868 -0.0116
10519TIP3    H231515   0.109   5.245   2.507  0.0377 -0.6555  1.2153
10520TIP3   OH231516   6.177   6.883   5.770 -0.5157  0.4221 -0.9904
10520TIP3    H131517   6.186   6.788   5.779  2.3672  0.6719 -0.2600
10520TIP3    H231518   6.160   6.915   5.858  1.7920  0.7839 -0.6205
10521TIP3   OH231519   3.430   6.080   2.935  0.0107 -0.3266  0.2122
10521TIP3    H131520   3.471   6.164   2.918 -0.1732 -0.4716 -1.0639
10521TIP3    H231521   3.418   6.077   3.030 -0.8490  1.4917  0.1915
10522TIP3   OH231522   7.954   5.080   2.046 -0.3938  0.0295 -0.2703
10522TIP3    H131523   8.008   5.008   2.079  1.6263  0.9002 -1.4677
10522TIP3    H231524   7.927   5.052   1.959 -0.0027  0.4958 -0.5482
10523TIP3   OH231525   5.604   3.219   5.035 -0.2291  0.1507  0.3208
10523TIP3    H131526   5.530   3.250   4.982  1.2345  0.3240 -1.7254
10523TIP3    H231527   5.640   3.299   5.073  0.0383  0.3018 -0.2347
10524TIP3   OH231528   1.697   3.203   6.388  0.2202 -0.1024 -0.4905
10524TIP3    H131529   1.643   3.252   6.450  0.5175  1.2029 -1.2261
10524TIP3    H231530   1.756   3.269   6.351  0.9678 -1.1265 -1.1550
10525TIP3   OH231531   1.125   7.104   6.747 -0.4927 -0.9169  0.3936
10525TIP3    H131532   1.143   7.020   6.790 -1.2655 -2.0002 -1.3106
10525TIP3    H231533   1.163   7.096   6.660 -1.1981  0.2267 -0.0543
10526TIP3   OH231534   1.315   5.954   0.190 -0.3381 -0.2935  0.1291
10526TIP3    H131535   1.237   5.993   0.231 -1.0197 -0.8198 -0.6582
10526TIP3    H231536   1.283   5.877   0.144  0.8530 -1.2564  0.8527
10527TIP3   OH231537   6.045   5.382   5.658  0.0623 -0.2405  0.5643
10527TIP3    H131538   6.125   5.328   5.655 -1.1936 -2.2920 -3.3991
10527TIP3    H231539   6.063   5.453   5.597 -0.9198 -0.4078  0.0733
10528TIP3   OH231540   4.782   5.013   6.304  0.1418 -0.0834  0.4062
10528TIP3    H131541   4.785   4.931   6.254 -0.7417 -0.1361  0.4312
10528TIP3    H231542   4.873   5.027   6.330  0.7184  0.1521 -1.5497
10529TIP3   OH231543   0.934   0.511   5.170  0.3963  0.0483 -0.0446
10529TIP3    H131544   0.945   0.539   5.079  0.4526  0.2542  0.0265
10529TIP3    H231545   0.870   0.572   5.207  0.7967  0.3124  0.2135
10530TIP3   OH231546   6.249   2.059   1.137  0.2662  0.1487 -0.7731
10530TIP3    H131547   6.286   2.117   1.203 -1.3686  0.3060  0.0512
10530TIP3    H231548   6.325   2.016   1.097  1.5782  2.9024 -1.5134
10531TIP3   OH231549   4.743   4.930   5.131  0.3381  0.3406  0.1756
10531TIP3    H131550   4.693   4.964   5.206 -1.7621 -1.6254 -0.2168
10531TIP3    H231551   4.729   4.835   5.134 -0.3220  0.2291 -2.9944
10532TIP3   OH231552   0.327   4.833   1.947  0.4646  0.3766  0.8235
10532TIP3    H131553   0.382   4.763   1.983 -0.5390 -1.1063 -0.4055
10532TIP3    H231554   0.369   4.856   1.864 -0.2857 -0.1959  0.2703
10533TIP3   OH231555   1.426   5.161   2.321 -0.4828  0.2254  0.2630
10533TIP3    H131556   1.403   5.124   2.236  0.3540 -1.5404  0.7463
10533TIP3    H231557   1.393   5.097   2.384  1.1844  0.1646  1.1351
10534TIP3   OH231558   8.161   3.857   0.586  0.0200  0.0400 -0.1400
10534TIP3    H131559   8.165   3.866   0.491  0.6755  0.1937 -0.1010
10534TIP3    H231560   8.253   3.853   0.614 -0.1523  0.7002  0.5521
10535TIP3   OH231561   1.697   1.905   4.601  0.2469  0.1523 -0.3076
10535TIP3    H131562   1.781   1.949   4.589  0.2245  0.4589  0.5670
10535TIP3    H231563   1.645   1.932   4.525  0.8570  0.1462 -0.7334
10536TIP3   OH231564   5.664   2.006   0.592 -0.2667 -0.1043  0.3836
10536TIP3    H131565   5.626   2.027   0.677 -0.7709  2.1220 -0.3316
10536TIP3    H231566   5.746   2.056   0.590 -0.1165 -0.3686 -0.3249
10537TIP3   OH231567   6.352   0.887   1.911  0.2475  0.0182  0.0524
10537TIP3    H131568   6.385   0.944   1.981 -2.3820  0.6322  0.8937
10537TIP3    H231569   6.310   0.815   1.957 -1.1964  0.2360 -0.8725
10538TIP3   OH231570   3.124   5.605   4.859 -0.4273 -0.3331 -0.5096
10538TIP3    H131571   3.081   5.614   4.944  0.0445 -1.1136 -0.1767
10538TIP3    H231572   3.162   5.517   4.860 -0.1470 -0.2366 -1.4042
10539TIP3   OH231573   0.618   5.053   3.123 -0.3885 -0.3790 -0.0380
10539TIP3    H131574   0.587   5.026   3.209 -0.0944  1.0420  0.5464
10539TIP3    H231575   0.539   5.063   3.070 -0.6742 -0.0233  0.4514
10540TIP3   OH231576   6.939   2.969   4.487 -0.4815  0.1230 -0.4465
10540TIP3    H131577   7.013   2.956   4.546  0.4794 -0.4441 -1.7270
10540TIP3    H231578   6.935   2.888   4.436 -1.2478  0.6237 -1.2055
10541TIP3   OH231579   1.435   4.607   5.931  0.3783 -0.1471  0.2477
10541TIP3    H131580   1.373   4.579   5.865 -1.9445  0.0332  2.2158
10541TIP3    H231581   1.457   4.697   5.908 -1.9421  0.6004  0.7135
10542TIP3   OH231582   3.909   3.223   2.744 -0.3963 -0.2201  0.2174
10542TIP3    H131583   3.935   3.248   2.655  0.0564 -0.4828  0.2733
10542TIP3    H231584   3.832   3.277   2.762  0.8164  1.4848  0.4951
10543TIP3   OH231585   4.864   5.720   0.515  0.5461 -0.2138 -0.4862
10543TIP3    H131586   4.939   5.675   0.554  1.3460  2.1096  0.8173
10543TIP3    H231587   4.802   5.732   0.587 -0.7007 -1.2128 -1.3331
10544TIP3   OH231588   7.218   0.346   1.347  0.0915 -0.7155 -0.4420
10544TIP3    H131589   7.303   0.333   1.389 -0.6040  0.3896  1.4131
10544TIP3    H231590   7.175   0.261   1.353  0.3520 -0.8044  0.3306
10545TIP3   OH231591   6.268   5.703   3.884  0.3443  0.1482  0.1000
10545TIP3    H131592   6.280   5.796   3.862 -1.2220  0.1708 -0.7798
10545TIP3    H231593   6.174   5.691   3.888  0.5170 -1.4536  0.0749
10546TIP3   OH231594   2.303   3.027   4.154  0.2212  0.4626  0.3674
10546TIP3    H131595   2.257   3.034   4.237  1.0456  0.1300  0.8681
10546TIP3    H231596   2.380   2.974   4.174  1.0815  1.4102 -0.3297
10547TIP3   OH231597   6.525   6.626   0.830 -0.3959  0.0473  0.0382
10547TIP3    H131598   6.445   6.601   0.786 -1.4173  2.6347  0.2233
10547TIP3    H231599   6.508   6.609   0.923 -0.8417  0.7931  0.1002
10548TIP3   OH231600   8.080   6.586   5.288 -0.0585 -0.2146 -0.1105
10548TIP3    H131601   8.115   6.497   5.295  0.1740 -0.1813 -0.7883
10548TIP3    H231602   8.158   6.642   5.290 -0.2581  0.0601  1.4475
10549TIP3   OH231603   0.402   1.998   1.023  0.2681  0.9303  0.4862
10549TIP3    H131604   0.426   2.077   1.071  0.3536 -0.6624  3.3016
10549TIP3    H231605   0.477   1.939   1.035 -0.4684 -0.1663 -0.1079
10550TIP3   OH231606   3.279   1.593   4.925 -0.0507 -0.3120 -0.0427
10550TIP3    H131607   3.367   1.616   4.897 -0.2337  1.1369  0.5125
10550TIP3    H231608   3.291   1.514   4.978  0.8884 -0.1726 -0.0310
10551TIP3   OH231609   2.615   3.934   0.141  0.1313  0.0492  0.1579
10551TIP3    H131610   2.689   3.951   0.083 -0.3622 -0.2745 -0.5856
10551TIP3    H231611   2.655   3.908   0.224  0.8591  1.2292  0.2084
10552TIP3   OH231612   7.233   0.576   1.184  0.1824 -0.4680  0.2822
10552TIP3    H131613   7.238   0.484   1.211 -2.6573  0.2079  3.7880
10552TIP3    H231614   7.280   0.623   1.253 -2.9043  0.9983  1.5590
10553TIP3   OH231615   7.843   6.791   0.959 -0.8049  0.2629  0.3081
10553TIP3    H131616   7.775   6.742   1.005  0.5874 -0.8705  1.2278
10553TIP3    H231617   7.830   6.882   0.986 -2.0000  0.0847  0.3761
10554TIP3   OH231618   7.352   3.273   3.269 -0.6644  0.4884  0.3302
10554TIP3    H131619   7.350   3.362   3.236 -0.3376  0.0439 -0.9259
10554TIP3    H231620   7.440   3.261   3.305 -0.3725  0.3443 -0.4329
10555TIP3   OH231621   5.175   2.989   3.531 -0.0664  0.0417 -0.1439
10555TIP3    H131622   5.224   3.066   3.559 -0.4616  0.2451  0.0069
10555TIP3    H231623   5.234   2.916   3.545  0.1923  0.2827  0.0308
10556TIP3   OH231624   0.856   3.274   3.503 -0.3544 -0.4796  0.3871
10556TIP3    H131625   0.929   3.283   3.441  2.5271  0.2191  3.5387
10556TIP3    H231626   0.788   3.331   3.468  1.7201  1.1570 -1.3214
10557TIP3   OH231627   3.526   1.099   2.064 -0.0612 -0.5171  0.3327
10557TIP3    H131628   3.602   1.143   2.103  0.1987 -0.1979 -0.5104
10557TIP3    H231629   3.559   1.062   1.982 -0.2430 -2.4333  1.0811
10558TIP3   OH231630   1.424   7.118   2.182 -0.4614 -0.4354 -0.1727
10558TIP3    H131631   1.343   7.168   2.198 -0.2617 -0.4128  0.8789
10558TIP3    H231632   1.488   7.183   2.156 -0.8902 -0.5137 -1.5126
10559TIP3   OH231633   0.124   6.213   5.894 -0.0024  0.1287 -0.2378
10559TIP3    H131634   0.034   6.187   5.913  0.5538 -1.4982  0.2722
10559TIP3    H231635   0.145   6.168   5.812  0.9745 -1.1134  0.6617
10560TIP3   OH231636   7.083   5.722   2.111 -0.1999 -0.0654  0.0170
10560TIP3    H131637   7.088   5.627   2.126  1.0442  0.0145  0.2013
10560TIP3    H231638   7.129   5.760   2.186  0.6241  0.6178 -0.8082
10561TIP3   OH231639   6.840   2.055   1.626  0.6587 -0.1733 -0.4117
10561TIP3    H131640   6.849   2.148   1.605  2.0010 -0.0710  0.5163
10561TIP3    H231641   6.915   2.013   1.584  0.5082 -0.7216 -0.1412
10562TIP3   OH231642   3.981   2.813   0.062 -0.2464 -0.3466  0.5753
10562TIP3    H131643   4.041   2.800  -0.012  0.4575  0.0607  1.0638
10562TIP3    H231644   3.982   2.730   0.108  0.1353 -0.2650  0.7176
10563TIP3   OH231645   6.216   6.905   3.425 -0.4672  0.4690  0.4516
10563TIP3    H131646   6.301   6.924   3.464 -0.7081  0.5829  0.9274
10563TIP3    H231647   6.157   6.893   3.499 -1.1239  1.5486  0.1236
10564TIP3   OH231648   8.182   0.409   6.514  0.2048 -0.0142  0.1320
10564TIP3    H131649   8.195   0.494   6.472 -1.0391 -0.7242 -1.8747
10564TIP3    H231650   8.131   0.428   6.592 -2.5554  0.9390 -1.7343
10565TIP3   OH231651   8.185   0.360   2.881 -0.0237  0.0442 -0.7606
10565TIP3    H131652   8.138   0.309   2.947  2.9248 -0.9261  0.7687
10565TIP3    H231653   8.169   0.314   2.799 -1.8925 -0.0558 -0.3990
10566TIP3   OH231654   0.386   3.140   5.522  0.0794 -0.2302 -0.3547
10566TIP3    H131655   0.447   3.067   5.527  1.1091  0.5607 -0.9521
10566TIP3    H231656   0.423   3.198   5.455 -1.2309  0.3670 -0.6061
10567TIP3   OH231657   0.593   1.391   5.518 -0.1025  0.8163 -0.1809
10567TIP3    H131658   0.509   1.438   5.512  0.3502  1.6131 -0.4335
10567TIP3    H231659   0.632   1.423   5.600 -0.1630  0.2378  0.0783
10568TIP3   OH231660   3.231   6.602   2.718 -0.3057 -0.0286  0.0834
10568TIP3    H131661   3.255   6.537   2.783 -0.7566  0.8908  1.2130
10568TIP3    H231662   3.210   6.680   2.769 -0.6765  0.7237 -1.1710
10569TIP3   OH231663   1.819   4.538   2.306 -0.4705  0.9174 -0.2428
10569TIP3    H131664   1.792   4.536   2.398  1.2273  0.0937  0.2648
10569TIP3    H231665   1.914   4.540   2.308 -0.1695 -2.6258 -1.9428
10570TIP3   OH231666   5.165   3.267   0.582  0.5154 -0.5696  0.0328
10570TIP3    H131667   5.212   3.307   0.655  0.0088 -1.1868  0.7129
10570TIP3    H231668   5.081   3.241   0.619 -0.1598  0.0351 -1.0331
10571TIP3   OH231669   4.161   1.774   0.629  0.1639  0.3365 -0.1869
10571TIP3    H131670   4.149   1.853   0.576 -0.2112  1.0969  0.9787
10571TIP3    H231671   4.072   1.752   0.658  0.5939  1.6914  2.5034
10572TIP3   OH231672   8.265   4.766   5.216 -0.2010  0.2162  0.0649
10572TIP3    H131673   8.209   4.689   5.202 -1.5314  1.4256 -1.7408
10572TIP3    H231674   8.233   4.805   5.297 -1.7063  0.6259 -0.6954
10573TIP3   OH231675   3.457   7.180   5.774 -0.1959  0.2723  0.0110
10573TIP3    H131676   3.535   7.169   5.719  0.7962  0.2711  1.3797
10573TIP3    H231677   3.384   7.178   5.712  0.9034  0.7255 -1.3632
10574TIP3   OH231678   6.640   3.151   1.227 -0.5079 -0.3495  0.3314
10574TIP3    H131679   6.666   3.241   1.246 -1.0317  0.1866 -1.3565
10574TIP3    H231680   6.723   3.104   1.214 -0.2233 -0.2108  1.5457
10575TIP3   OH231681   6.683   3.327   4.769 -0.0795  0.5895  0.5206
10575TIP3    H131682   6.772   3.362   4.765 -0.4763  1.6500  0.6684
10575TIP3    H231683   6.673   3.296   4.859  0.6479 -0.9461  0.0926
10576TIP3   OH231684   3.187   4.364   0.996  0.4189  0.5912 -0.5456
10576TIP3    H131685   3.236   4.336   1.073 -2.4870 -1.7566  0.6323
10576TIP3    H231686   3.140   4.443   1.025  0.4241  0.5252 -0.3528
10577TIP3   OH231687   7.872   5.025   5.874 -0.0363  0.1681  0.1984
10577TIP3    H131688   7.892   4.948   5.821 -0.0072  0.3199 -0.0142
10577TIP3    H231689   7.936   5.024   5.945 -0.3482 -0.2761  0.4788
10578TIP3   OH231690   3.192   5.946   4.492 -0.3178 -0.1980  0.4456
10578TIP3    H131691   3.255   5.895   4.542  1.0831  0.8310 -0.1830
10578TIP3    H231692   3.205   6.037   4.520  0.9895  0.5228 -2.1267
10579TIP3   OH231693   0.759   7.457   1.270 -0.0395 -0.2234  0.2505
10579TIP3    H131694   0.711   7.478   1.350  1.0787 -0.5082  1.0239
10579TIP3    H231695   0.845   7.499   1.281  0.8688 -1.9578  0.1444
10580TIP3   OH231696   5.752   0.332   4.048 -0.7339 -0.4666  0.7356
10580TIP3    H131697   5.717   0.360   4.133  0.5282 -0.2427  1.2068
10580TIP3    H231698   5.837   0.376   4.042  0.1562 -2.1619  0.3225
10581TIP3   OH231699   4.449   4.322   0.081 -0.2844  0.2707 -0.2119
10581TIP3    H131700   4.397   4.386   0.129  1.6719  0.3355  1.9495
10581TIP3    H231701   4.435   4.239   0.128  1.6797  0.3428  0.5995
10582TIP3   OH231702   3.795   7.835   3.364 -0.0298 -0.1630 -0.3264
10582TIP3    H131703   3.852   7.777   3.313  2.1543  0.3529  1.3522
10582TIP3    H231704   3.717   7.783   3.381 -1.0472 -0.2352 -4.3630
10583TIP3   OH231705   2.071   7.505   5.420 -0.0893 -0.2573  0.3353
10583TIP3    H131706   1.980   7.526   5.443 -0.3882  0.8402 -1.5839
10583TIP3    H231707   2.123   7.560   5.479 -0.4996 -2.4392  2.9441
10584TIP3   OH231708   4.847   7.371   2.281 -0.8204 -0.2881  0.1880
10584TIP3    H131709   4.754   7.361   2.300 -1.1286 -0.8059 -1.4894
10584TIP3    H231710   4.865   7.464   2.299 -1.5288 -0.2858  0.9638
10585TIP3   OH231711   1.958   0.015   0.422  0.6138  0.0951  0.3469
10585TIP3    H131712   1.989   0.093   0.469 -0.3869  1.3706 -1.0119
10585TIP3    H231713   1.964   0.040   0.329 -1.2117 -0.8530 -0.0639
10586TIP3   OH231714   4.132   1.682   6.256  0.1964  0.5351 -0.4706
10586TIP3    H131715   4.091   1.618   6.313 -1.4532 -0.7352 -2.9134
10586TIP3    H231716   4.205   1.635   6.216  1.2577  1.3724  0.3980
10587TIP3   OH231717   3.934   5.845   5.873 -0.2905  0.1521  0.0336
10587TIP3    H131718   3.915   5.912   5.939 -0.4663 -1.2559  1.4881
10587TIP3    H231719   3.850   5.828   5.831 -0.3320  0.5342 -0.0411
10588TIP3   OH231720   1.783   4.736   3.937  0.2015 -0.1694 -0.5865
10588TIP3    H131721   1.730   4.663   3.905  0.1979 -0.7412  0.6705
10588TIP3    H231722   1.845   4.753   3.866 -1.6713  0.5694 -2.1302
10589TIP3   OH231723   1.588   4.170   1.263 -0.5502  0.3083 -0.5476
10589TIP3    H131724   1.630   4.084   1.257  1.3218  1.2590 -1.6862
10589TIP3    H231725   1.593   4.192   1.356 -1.5273 -0.9972 -0.1478
10590TIP3   OH231726   1.257   3.305   4.316 -0.2164 -0.0172  0.4551
10590TIP3    H131727   1.325   3.366   4.288  1.1215 -0.9822  1.4775
10590TIP3    H231728   1.221   3.344   4.396  0.8614 -0.6898  1.2897
10591TIP3   OH231729   0.978   4.796   5.926 -0.2878 -0.4502 -0.3079
10591TIP3    H131730   0.946   4.881   5.895 -0.0298 -0.6523 -1.1606
10591TIP3    H231731   1.024   4.816   6.008 -0.1912  0.2375 -0.5231
10592TIP3   OH231732   5.674   3.056   4.807  0.3969  0.6920 -0.2460
10592TIP3    H131733   5.640   3.090   4.890 -2.2305 -1.2685 -0.3650
10592TIP3    H231734   5.692   2.964   4.825  0.2158  0.3449 -1.7322
10593TIP3   OH231735   1.284   3.845   6.137  0.6997 -0.5325  0.1547
10593TIP3    H131736   1.351   3.777   6.147 -0.5568 -1.7613  0.4629
10593TIP3    H231737   1.326   3.912   6.082  1.6178 -2.0347 -1.0427
10594TIP3   OH231738   5.571   5.359   4.433 -0.0019 -0.5368  0.6094
10594TIP3    H131739   5.646   5.313   4.470 -0.2031  0.3251  2.1896
10594TIP3    H231740   5.559   5.436   4.490  0.7091  1.8668 -2.2211
10595TIP3   OH231741   0.636   2.546   3.634  0.6386  0.3489 -0.0123
10595TIP3    H131742   0.591   2.553   3.718  2.4043  0.3737  0.9920
10595TIP3    H231743   0.678   2.631   3.622 -1.3105  1.1199 -2.0167
10596TIP3   OH231744   2.928   1.803   5.466  0.3656 -0.3793 -0.2026
10596TIP3    H131745   2.876   1.743   5.413 -1.5784  0.4649  0.6369
10596TIP3    H231746   3.005   1.752   5.491 -0.4145 -1.9747 -0.8851
10597TIP3   OH231747   3.674   6.538   2.015  0.1753 -0.0075  0.2766
10597TIP3    H131748   3.750   6.530   1.957 -0.5570  0.3238 -0.7669
10597TIP3    H231749   3.618   6.464   1.992 -0.6598  0.7784 -0.2767
10598TIP3   OH231750   6.139   3.729   2.471 -0.0867  0.4028 -0.0912
10598TIP3    H131751   6.188   3.804   2.436  0.2280  0.3265  0.1758
10598TIP3    H231752   6.128   3.671   2.396 -0.9173  1.0099 -0.4589
10599TIP3   OH231753   3.995   3.144   3.205  0.4320 -0.2100 -0.0917
10599TIP3    H131754   3.960   3.223   3.245 -0.0202 -0.4225 -0.0563
10599TIP3    H231755   4.022   3.171   3.118  0.5303  0.0451  0.0194
10600TIP3   OH231756   5.689   2.289   1.292 -0.1950 -0.1913 -0.4255
10600TIP3    H131757   5.685   2.217   1.229  1.0080 -1.2197  0.6188
10600TIP3    H231758   5.759   2.264   1.353  0.0060  1.6926  0.1826
10601TIP3   OH231759   0.547   5.171   0.469  0.3067 -0.0368  0.4023
10601TIP3    H131760   0.498   5.094   0.498  1.3454 -0.3206  1.4822
10601TIP3    H231761   0.483   5.224   0.422 -0.9959 -0.4563  1.6460
10602TIP3   OH231762   4.543   0.633   0.807 -0.0822 -0.4166 -0.6058
10602TIP3    H131763   4.572   0.724   0.814 -1.8992  0.1481 -0.0294
10602TIP3    H231764   4.551   0.613   0.713  1.1147  0.0441 -0.6227
10603TIP3   OH231765   5.560   3.682   5.586  0.0056  0.3381 -0.8923
10603TIP3    H131766   5.542   3.776   5.581 -0.1940  0.2737 -1.4373
10603TIP3    H231767   5.544   3.660   5.678  0.6428  0.9486 -0.6240
10604TIP3   OH231768   7.138   2.663   1.006 -0.0906 -0.7347  0.5427
10604TIP3    H131769   7.204   2.649   1.073  1.2051  0.7855 -0.3428
10604TIP3    H231770   7.170   2.614   0.930 -0.1478 -0.2849  0.2227
10605TIP3   OH231771   5.627   5.223   3.439  0.0168  0.0684  0.4886
10605TIP3    H131772   5.614   5.309   3.479  0.4537  0.3178  0.1119
10605TIP3    H231773   5.557   5.216   3.373  0.6642  0.6368 -0.2824
10606TIP3   OH231774   1.070   4.427   5.031 -0.4442  0.1294  0.2851
10606TIP3    H131775   0.974   4.422   5.025 -0.6515  2.5177  0.6506
10606TIP3    H231776   1.093   4.366   5.100 -1.2031 -3.6807 -2.4728
10607TIP3   OH231777   7.169   5.744   5.938 -0.6464  0.5407  0.0648
10607TIP3    H131778   7.243   5.691   5.968 -1.5332 -0.9994 -0.3780
10607TIP3    H231779   7.206   5.832   5.926  1.7264 -0.6440 -2.3338
10608TIP3   OH231780   3.959   7.767   4.465  0.0090  0.3261  0.4073
10608TIP3    H131781   3.963   7.769   4.560 -3.1267 -0.3328  0.6724
10608TIP3    H231782   3.989   7.679   4.441 -1.1488 -0.2720  1.0342
10609TIP3   OH231783   0.070   6.540   0.949  0.2956  0.1466 -0.3906
10609TIP3    H131784  -0.013   6.536   0.902 -0.0131  0.5762  0.1111
10609TIP3    H231785   0.136   6.549   0.880 -0.1116  0.2808 -0.7683
10610TIP3   OH231786   7.484   4.024   0.974  0.0341 -0.3162 -0.0379
10610TIP3    H131787   7.419   3.976   1.025  0.6175 -0.6454  0.4133
10610TIP3    H231788   7.433   4.069   0.907 -0.9016  0.9919  1.4523
10611TIP3   OH231789   0.276   4.639   3.180 -0.3397 -0.5803 -0.0276
10611TIP3    H131790   0.229   4.722   3.173 -0.9450 -0.7908  1.3089
10611TIP3    H231791   0.298   4.631   3.272  0.7277 -1.3699 -0.3377
10612TIP3   OH231792   2.938   3.258   4.737  0.2539 -0.0428 -0.2982
10612TIP3    H131793   2.965   3.183   4.683  2.0810 -0.2234  0.7689
10612TIP3    H231794   3.011   3.320   4.728 -1.1796  1.6341 -1.1035
10613TIP3   OH231795   5.968   0.625   6.385 -0.3292  0.1712  0.2070
10613TIP3    H131796   5.949   0.542   6.342 -0.7464  0.7264 -0.6994
10613TIP3    H231797   5.988   0.601   6.476  1.7987 -1.1717 -0.5417
10614TIP3   OH231798   4.241   2.506   0.037  0.0216 -0.0014 -0.2259
10614TIP3    H131799   4.322   2.554   0.055 -0.4762  0.9268 -0.4293
10614TIP3    H231800   4.261   2.457  -0.043  0.5300 -0.1337 -0.0253
10615TIP3   OH231801   3.542   3.363   1.354 -0.0747  0.0651 -0.4983
10615TIP3    H131802   3.545   3.306   1.432 -0.7407  0.1906 -0.3753
10615TIP3    H231803   3.449   3.375   1.337  0.0615 -0.3727 -1.6271
10616TIP3   OH231804   6.857   3.441   6.432  0.1398 -0.3563  0.8176
10616TIP3    H131805   6.896   3.388   6.361 -0.4425  0.6891 -0.3194
10616TIP3    H231806   6.763   3.427   6.423  0.0284  0.2450  1.0086
10617TIP3   OH231807   6.151   1.196   5.352  0.0993  0.3071  0.4021
10617TIP3    H131808   6.199   1.272   5.319 -1.3060  2.6995  3.3269
10617TIP3    H231809   6.061   1.210   5.322 -0.1815 -0.1725  0.9991
10618TIP3   OH231810   7.313   5.544   0.528  0.3415 -0.4532 -0.1817
10618TIP3    H131811   7.229   5.499   0.533 -0.0773  0.0557 -1.9290
10618TIP3    H231812   7.290   5.637   0.524  1.1099 -0.1568  1.5995
10619TIP3   OH231813   4.850   6.448   6.290  0.2328 -0.0795  0.5934
10619TIP3    H131814   4.837   6.402   6.373 -0.3627 -1.1930 -0.0764
10619TIP3    H231815   4.768   6.496   6.277  0.9964  1.5091  1.4688
10620TIP3   OH231816   2.551   2.462   3.835  0.4846  0.1008 -0.2121
10620TIP3    H131817   2.490   2.531   3.810  0.5141  1.4037  2.8323
10620TIP3    H231818   2.622   2.468   3.772 -1.7374 -0.4968 -2.9801
10621TIP3   OH231819   7.381   1.581   3.830  0.1018  0.3612  0.0849
10621TIP3    H131820   7.343   1.526   3.899 -1.1849  1.1533  0.0493
10621TIP3    H231821   7.403   1.519   3.760 -3.1615 -0.0316 -0.7856
10622TIP3   OH231822   2.830   3.170   2.021 -0.0169 -0.3412 -0.3955
10622TIP3    H131823   2.819   3.098   2.084 -1.3080 -0.4978 -0.7728
10622TIP3    H231824   2.821   3.249   2.074 -0.5654 -0.4673 -0.2993
10623TIP3   OH231825   5.205   6.194   1.865 -0.1381 -0.3889  0.3412
10623TIP3    H131826   5.286   6.186   1.813  0.1525 -0.4412  0.7953
10623TIP3    H231827   5.229   6.251   1.937 -0.6082 -0.1315  0.2944
10624TIP3   OH231828   1.892   1.270   5.765  1.0418 -0.4271 -0.0487
10624TIP3    H131829   1.958   1.214   5.724  3.4376 -0.0094  2.9332
10624TIP3    H231830   1.832   1.210   5.808  2.3510 -0.7949  1.3169
10625TIP3   OH231831   2.410   5.966   6.383 -0.3138  0.4899  0.8848
10625TIP3    H131832   2.404   5.888   6.438  0.7316 -0.1314  0.1558
10625TIP3    H231833   2.319   5.995   6.372 -0.6657 -0.3187  1.5963
10626TIP3   OH231834   8.063   4.970   6.092  0.1858  0.4254 -0.2156
10626TIP3    H131835   8.003   4.933   6.157 -2.5758  1.1513 -2.1820
10626TIP3    H231836   8.070   5.063   6.117  2.7561 -0.1110  1.5191
10627TIP3   OH231837   6.706   0.863   1.941 -0.0300  0.0118 -0.1672
10627TIP3    H131838   6.694   0.923   1.867 -2.0796 -0.8592 -0.6217
10627TIP3    H231839   6.801   0.850   1.947  0.2419  0.8384 -2.0371
10628TIP3   OH231840   3.032   5.659   0.133  0.6619  0.7093 -0.5465
10628TIP3    H131841   3.084   5.655   0.052 -0.7505 -1.0737 -1.4364
10628TIP3    H231842   3.044   5.574   0.174 -0.1646  0.9036  0.1223
10629TIP3   OH231843   3.656   3.018   2.879 -0.0799 -0.0087  0.6642
10629TIP3    H131844   3.655   3.014   2.783  2.7029 -1.4630  0.5852
10629TIP3    H231845   3.732   3.072   2.900 -1.0476  0.8710  2.1168
10630TIP3   OH231846   5.395   1.545   4.519 -0.3804  0.1010 -0.4539
10630TIP3    H131847   5.366   1.455   4.534  3.2076 -1.1125  0.2580
10630TIP3    H231848   5.389   1.586   4.605 -0.0997 -0.1040 -0.3354
10631TIP3   OH231849   7.619   5.879   6.251 -0.0167  0.1161  0.5056
10631TIP3    H131850   7.655   5.851   6.167  1.0521  0.1364  0.9303
10631TIP3    H231851   7.568   5.958   6.231 -1.0210 -0.7283 -0.3283
10632TIP3   OH231852   4.234   2.912   0.660  0.0187  0.3320  0.1966
10632TIP3    H131853   4.284   2.917   0.579  0.1576 -1.0888  0.1729
10632TIP3    H231854   4.191   2.997   0.667  1.1916  1.0211 -0.5804
10633TIP3   OH231855   3.572   7.637   1.559  0.0759 -0.4957  0.2021
10633TIP3    H131856   3.611   7.560   1.602 -1.1630 -0.6928  1.0516
10633TIP3    H231857   3.501   7.600   1.506 -0.0245 -0.0067 -0.0042
10634TIP3   OH231858   5.542   4.684   3.056  0.0630 -0.2155  0.4249
10634TIP3    H131859   5.610   4.667   2.992 -0.5126 -0.4253 -0.1408
10634TIP3    H231860   5.577   4.754   3.111 -0.7872  2.5001 -2.2442
10635TIP3   OH231861   0.860   1.106   6.113  0.1061 -0.1069 -0.0397
10635TIP3    H131862   0.920   1.137   6.046  0.7260  0.7432  0.8772
10635TIP3    H231863   0.810   1.184   6.138 -1.0674 -0.6991 -0.4498
10636TIP3   OH231864   7.244   6.292   2.158  0.0278 -0.6471 -0.3395
10636TIP3    H131865   7.234   6.381   2.124 -1.5842 -0.2992  0.9423
10636TIP3    H231866   7.337   6.271   2.143  0.3076  1.0135 -1.1735
10637TIP3   OH231867   6.222   5.368   2.199 -0.2617  0.2552 -0.0207
10637TIP3    H131868   6.143   5.336   2.154 -0.6270 -0.6079  1.1718
10637TIP3    H231869   6.238   5.302   2.267  1.9122  0.0244 -0.6777
10638TIP3   OH231870   0.243   5.823   5.086 -0.0609 -0.1495 -0.5823
10638TIP3    H131871   0.266   5.781   5.169 -1.3962 -0.1515 -0.1951
10638TIP3    H231872   0.311   5.795   5.025  0.5681 -0.6787  0.3445
10639TIP3   OH231873   8.098   4.551   4.889 -0.0013 -0.5597  0.4543
10639TIP3    H131874   8.141   4.473   4.856 -2.8670 -1.2311 -2.1433
10639TIP3    H231875   8.040   4.579   4.818 -1.3621  2.1313  2.4372
10640TIP3   OH231876   8.007   3.137   2.138  0.2192 -0.4322  0.1095
10640TIP3    H131877   8.045   3.155   2.052  0.8598 -0.2085  0.4331
10640TIP3    H231878   8.055   3.061   2.170 -0.2046 -0.6834  0.1606
10641TIP3   OH231879   6.280   2.266   1.725  0.3232 -0.4435  0.3556
10641TIP3    H131880   6.271   2.172   1.743  0.7895 -0.6395 -0.3831
10641TIP3    H231881   6.259   2.274   1.632  1.3889  0.0173  0.1475
10642TIP3   OH231882   0.633   2.388   4.333 -0.1165  0.4303 -0.2885
10642TIP3    H131883   0.653   2.437   4.253  2.6764  0.2312  0.1964
10642TIP3    H231884   0.707   2.328   4.343 -2.0751 -1.9800  0.6420
10643TIP3   OH231885   5.796   3.852   0.857  0.0164  0.2393  0.1801
10643TIP3    H131886   5.802   3.799   0.778 -1.3872 -1.5480  1.2021
10643TIP3    H231887   5.870   3.825   0.911  0.0759  0.2924  0.1238
10644TIP3   OH231888   2.857   2.807   1.114 -0.4474  0.1558  0.0664
10644TIP3    H131889   2.805   2.753   1.174 -1.6913  1.0713 -0.1335
10644TIP3    H231890   2.916   2.856   1.172 -0.1467 -0.5246  0.3455
10645TIP3   OH231891   3.531   4.275   4.711  0.3136  0.0044  0.1205
10645TIP3    H131892   3.581   4.350   4.744  1.9127 -0.8935 -0.1752
10645TIP3    H231893   3.587   4.237   4.644 -1.3875 -0.2560 -1.1944
10646TIP3   OH231894   2.533   6.955   3.760 -0.3778 -0.1793  0.1506
10646TIP3    H131895   2.487   6.890   3.707 -0.4463  0.3070 -0.4010
10646TIP3    H231896   2.469   6.984   3.824 -0.5316 -0.2208  0.0157
10647TIP3   OH231897   6.780   1.469   1.360 -0.0034  0.4795  0.5283
10647TIP3    H131898   6.814   1.542   1.308 -0.0059 -0.5125 -0.9500
10647TIP3    H231899   6.706   1.436   1.308  0.0315 -0.5911  1.1306
10648TIP3   OH231900   7.217   6.653   3.163 -0.4140  0.0282 -0.1888
10648TIP3    H131901   7.266   6.700   3.230 -1.0488 -0.9969  1.0369
10648TIP3    H231902   7.162   6.719   3.122 -1.7344  0.2912  1.9102
10649TIP3   OH231903   4.037   3.622   5.195 -0.1326  0.3602  1.0718
10649TIP3    H131904   4.016   3.627   5.288 -0.0432 -1.4341  1.2251
10649TIP3    H231905   3.960   3.580   5.155 -0.3415  1.4738  0.2563
10650TIP3   OH231906   5.691   6.700   1.966  0.4446  0.5413 -0.0266
10650TIP3    H131907   5.609   6.746   1.985 -0.4129  0.0843 -2.2378
10650TIP3    H231908   5.676   6.611   1.998  0.1743  0.5210 -0.2089
10651TIP3   OH231909   3.835   6.855   6.047  0.1969  0.1592 -0.0192
10651TIP3    H131910   3.905   6.920   6.039  1.3924 -1.1498 -0.6256
10651TIP3    H231911   3.775   6.876   5.976  0.2094  1.0184  0.2183
10652TIP3   OH231912   3.915   7.538   4.922  0.3022 -0.4517  0.3885
10652TIP3    H131913   4.010   7.548   4.927  0.1118  1.7047  1.0992
10652TIP3    H231914   3.889   7.510   5.010  0.0283  2.7650  1.4688
10653TIP3   OH231915   7.261   5.457   5.796  0.3311  0.2315  0.3865
10653TIP3    H131916   7.246   5.536   5.744  1.3493  0.0450 -0.2163
10653TIP3    H231917   7.293   5.490   5.880 -0.3250  0.4907  0.5444
10654TIP3   OH231918   1.285   2.054   0.802 -0.4224 -0.2087  0.3993
10654TIP3    H131919   1.307   2.043   0.894 -0.2463 -1.8233  0.1805
10654TIP3    H231920   1.308   2.145   0.783 -2.6223  0.9088  2.5233
10655TIP3   OH231921   4.779   0.519   1.232  0.3029 -0.1106  0.1727
10655TIP3    H131922   4.774   0.604   1.188 -0.5825 -1.0268 -1.5959
10655TIP3    H231923   4.704   0.520   1.293  0.0155  0.1930 -0.1783
10656TIP3   OH231924   7.908   6.994   4.145  0.1520 -0.3579  0.6046
10656TIP3    H131925   7.842   7.027   4.083 -1.0804 -0.7720  1.6430
10656TIP3    H231926   7.991   7.001   4.098 -0.7102 -0.4331 -1.0073
10657TIP3   OH231927   6.946   7.549   1.107  0.2117  0.1813 -0.1377
10657TIP3    H131928   6.864   7.557   1.155  0.6994  0.0463  0.7391
10657TIP3    H231929   6.999   7.489   1.160  1.3886  1.3216  0.0271
10658TIP3   OH231930   4.403   3.936   0.765 -0.0508  0.2037 -0.0792
10658TIP3    H131931   4.462   3.953   0.837 -1.9502  2.3298  1.1020
10658TIP3    H231932   4.336   3.877   0.801  0.2082 -0.5597 -0.8000
10659TIP3   OH231933   1.991   0.838   0.049  0.5504  0.1543 -0.1473
10659TIP3    H131934   2.009   0.888  -0.031 -0.8442 -0.3087 -0.7723
10659TIP3    H231935   2.025   0.893   0.120  2.2406  0.3750 -1.0591
10660TIP3   OH231936   3.387   2.774   2.725 -0.1422 -0.1699 -0.1241
10660TIP3    H131937   3.360   2.853   2.678 -2.0201 -1.4474 -1.3111
10660TIP3    H231938   3.365   2.792   2.817 -0.2769  0.7880 -0.3360
10661TIP3   OH231939   6.598   7.421   1.151 -0.1611 -0.0353 -0.1897
10661TIP3    H131940   6.677   7.368   1.151 -1.2572 -1.7915 -1.3185
10661TIP3    H231941   6.535   7.371   1.203 -0.7082  1.0721  0.2614
10662TIP3   OH231942   6.204   1.174   5.833 -0.3052 -0.2588  0.5574
10662TIP3    H131943   6.159   1.189   5.750  0.1607 -0.7930  0.1982
10662TIP3    H231944   6.194   1.257   5.881 -1.5537 -0.3364  0.4508
10663TIP3   OH231945   7.523   1.807   6.285 -0.6102  0.1331 -0.0962
10663TIP3    H131946   7.490   1.841   6.201 -0.4943 -0.8791 -0.5680
10663TIP3    H231947   7.587   1.741   6.260  1.2449  1.5085  0.8142
10664TIP3   OH231948   4.732   6.942   4.713  0.7272 -0.3029 -0.2544
10664TIP3    H131949   4.713   7.036   4.713 -1.4198 -0.6772 -0.2678
10664TIP3    H231950   4.740   6.920   4.620 -0.2410 -0.3529 -0.3439
10665TIP3   OH231951   5.755   5.240   1.481  0.3855 -0.2034 -0.4426
10665TIP3    H131952   5.743   5.218   1.573  2.1599 -0.4574 -0.2273
10665TIP3    H231953   5.800   5.325   1.482  0.6371 -0.3184 -1.0555
10666TIP3   OH231954   5.349   1.686   1.574 -0.1153  0.1913  0.7235
10666TIP3    H131955   5.392   1.682   1.489 -1.0855 -1.8236  0.2695
10666TIP3    H231956   5.289   1.760   1.567 -0.0144  0.1945 -0.2479
10667TIP3   OH231957   8.273   0.614   4.941 -0.1327 -0.5089 -0.5479
10667TIP3    H131958   8.229   0.533   4.914 -1.1026  0.3679 -1.7059
10667TIP3    H231959   8.230   0.683   4.890  0.7562  0.7297  0.3179
10668TIP3   OH231960   4.682   4.310   6.592 -0.0507  0.2641 -0.1019
10668TIP3    H131961   4.672   4.240   6.657  3.1795 -0.3963 -0.1548
10668TIP3    H231962   4.603   4.304   6.537 -2.0676 -0.2492  2.6424
10669TIP3   OH231963   2.100   2.636   2.597 -0.5084 -0.8129  0.7298
10669TIP3    H131964   2.195   2.639   2.603 -0.4430 -1.0229 -0.1264
10669TIP3    H231965   2.082   2.598   2.511 -1.3658  1.8379 -0.3504
10670TIP3   OH231966   6.552   1.848   6.525  0.0738 -0.3855  0.4037
10670TIP3    H131967   6.598   1.803   6.595  0.4840  0.5889  0.7774
10670TIP3    H231968   6.579   1.940   6.533 -0.8674 -0.0350 -0.2287
10671TIP3   OH231969   6.367   6.689   4.152 -0.7427 -0.1134  0.3373
10671TIP3    H131970   6.441   6.631   4.168  3.5162  4.6396  0.5549
10671TIP3    H231971   6.337   6.666   4.064 -0.4250 -3.4492  0.9849
10672TIP3   OH231972   0.972   0.776   4.826  0.1887 -0.1390  0.1486
10672TIP3    H131973   0.928   0.691   4.825 -0.3634  0.1452  0.1502
10672TIP3    H231974   0.902   0.840   4.814  0.8852  0.2228 -2.6647
10673TIP3   OH231975   2.496   6.487   1.435 -0.4160 -0.6352 -0.0283
10673TIP3    H131976   2.413   6.534   1.447  0.4664  1.2696 -1.0633
10673TIP3    H231977   2.552   6.518   1.507  0.2227  0.0567 -0.8077
10674TIP3   OH231978   8.141   6.310   4.930 -0.6225 -0.1567  0.1386
10674TIP3    H131979   8.190   6.230   4.913 -1.5170 -0.9301  0.9902
10674TIP3    H231980   8.138   6.355   4.846  0.8327 -0.4749 -0.1059
10675TIP3   OH231981   5.721   0.771   6.563  0.3754 -0.0234  0.0015
10675TIP3    H131982   5.669   0.717   6.504 -0.0972 -0.6484  0.9687
10675TIP3    H231983   5.786   0.812   6.506  0.7155 -1.5665 -0.7754
10676TIP3   OH231984   3.556   7.701   2.092  0.6729 -0.4500 -0.2441
10676TIP3    H131985   3.462   7.721   2.098  0.6791 -0.5619  0.3222
10676TIP3    H231986   3.578   7.667   2.179  1.0057 -1.4248 -0.7029
10677TIP3   OH231987   4.924   2.984   3.857 -0.4006 -0.1586  0.3278
10677TIP3    H131988   4.946   3.025   3.940 -2.3933 -0.0741  0.8751
10677TIP3    H231989   4.909   2.892   3.878  1.2420 -0.6164 -0.3705
10678TIP3   OH231990   1.938   0.137   4.857  0.0034 -0.2677  0.5864
10678TIP3    H131991   1.972   0.188   4.930 -0.1724 -0.8945  1.1178
10678TIP3    H231992   2.016   0.107   4.810  0.1042  1.2235 -0.2754
10679TIP3   OH231993   1.818   4.744   4.202 -0.3668  0.7635 -0.0026
10679TIP3    H131994   1.828   4.758   4.108  0.8073  0.8871  0.1247
10679TIP3    H231995   1.738   4.692   4.210  1.1593 -2.0473 -1.3721
10680TIP3   OH231996   0.984   7.612   3.627  0.2447 -0.6152 -0.1152
10680TIP3    H131997   0.911   7.636   3.569 -2.8036 -1.6790  2.9734
10680TIP3    H231998   0.999   7.690   3.680  1.3374 -0.4484 -0.6447
10681TIP3   OH231999   5.503   3.441   4.620  0.0840 -0.6635 -0.0864
10681TIP3    H132000   5.498   3.536   4.617 -2.8303 -0.7209 -0.5255
10681TIP3    H232001   5.501   3.419   4.713  0.2862 -0.2998  0.0024
10682TIP3   OH232002   1.571   5.809   0.981 -0.1043 -0.5919 -0.0670
10682TIP3    H132003   1.479   5.811   1.006 -0.2310  4.8086  0.2693
10682TIP3    H232004   1.571   5.837   0.889  1.1430  1.7725  0.5754
10683TIP3   OH232005   7.914   5.890   3.495  0.2561 -0.1773  0.1624
10683TIP3    H132006   7.928   5.944   3.417 -0.7570  1.7936  1.2438
10683TIP3    H232007   7.832   5.923   3.532  0.4822 -1.3492  1.8309
10684TIP3   OH232008   0.500   0.727   3.206 -0.4095  0.0890  0.1753
10684TIP3    H132009   0.456   0.739   3.122  4.5612  2.4770 -2.5416
10684TIP3    H232010   0.477   0.804   3.257  0.4771  1.3283 -1.2146
10685TIP3   OH232011   2.226   6.346   4.100 -0.2082  0.0923  0.0787
10685TIP3    H132012   2.249   6.387   4.184 -1.7082  0.4589  0.3408
10685TIP3    H232013   2.194   6.259   4.124 -1.3331  0.4620 -0.0146
10686TIP3   OH232014   2.166   1.492   1.524  0.0571  0.8035 -0.2732
10686TIP3    H132015   2.169   1.503   1.619 -0.4128  2.0723 -0.3952
10686TIP3    H232016   2.231   1.554   1.490  0.3505  0.2323 -0.7802
10687TIP3   OH232017   3.700   6.573   0.236 -0.1945 -0.2871  0.1938
10687TIP3    H132018   3.671   6.625   0.161  0.3162 -0.1763  0.0761
10687TIP3    H232019   3.795   6.574   0.232 -0.0662 -3.9101 -1.6951
10688TIP3   OH232020   7.947   7.286   2.345  0.1162 -0.2250 -0.2240
10688TIP3    H132021   7.910   7.287   2.257 -0.9466 -2.0107  0.1589
10688TIP3    H232022   8.038   7.257   2.334  0.5102  1.1583 -0.8553
10689TIP3   OH232023   7.041   1.045   1.936  0.7385 -0.0651 -0.1476
10689TIP3    H132024   6.996   1.075   2.016 -0.9378 -0.0114 -1.0651
10689TIP3    H232025   7.101   0.977   1.967  0.8228  0.6076  1.2754
10690TIP3   OH232026   3.094   6.599   6.193  0.4312  0.6257 -0.1961
10690TIP3    H132027   3.098   6.660   6.267  1.0117 -1.0299  1.1988
10690TIP3    H232028   3.090   6.513   6.233 -3.9940 -0.2767 -2.0244
10691TIP3   OH232029   0.738   3.337   2.287 -0.2710 -0.0059  0.3240
10691TIP3    H132030   0.727   3.359   2.379  2.0621  0.6427  0.5114
10691TIP3    H232031   0.730   3.421   2.241 -0.0612 -0.1069  0.0964
10692TIP3   OH232032   1.649   5.118   4.863  0.0300  0.1927 -0.2083
10692TIP3    H132033   1.659   5.057   4.935 -1.1041  0.8607  0.5457
10692TIP3    H232034   1.715   5.091   4.799  1.5999  0.0732  1.3893
10693TIP3   OH232035   4.475   5.488   6.751  0.3722  0.4717 -0.4251
10693TIP3    H132036   4.426   5.465   6.830  1.9065  0.1669  0.4656
10693TIP3    H232037   4.407   5.503   6.685 -0.8716 -1.1898  0.4148
10694TIP3   OH232038   6.967   7.733   2.003  0.0470  0.6001 -0.1688
10694TIP3    H132039   6.965   7.659   2.063  2.0107  0.4041 -0.2685
10694TIP3    H232040   7.018   7.702   1.928  0.8129  1.9871 -0.2619
10695TIP3   OH232041   5.816   4.422   4.003  0.0669 -0.3152 -0.1769
10695TIP3    H132042   5.899   4.419   3.956  0.3178  0.5879  0.2021
10695TIP3    H232043   5.837   4.390   4.091  0.6779  2.6172  0.8413
10696TIP3   OH232044   8.015   7.481   2.935  0.9266 -0.4343 -1.2756
10696TIP3    H132045   7.970   7.467   3.018 -0.4667  3.1953 -1.2680
10696TIP3    H232046   7.956   7.445   2.869 -0.4417  1.1306 -0.9827
10697TIP3   OH232047   6.254   6.907   4.881 -0.0983 -0.1600 -0.4279
10697TIP3    H132048   6.348   6.906   4.864  0.0092  0.0490  0.1021
10697TIP3    H232049   6.229   6.999   4.875  0.0007 -0.0383  0.7593
10698TIP3   OH232050   2.482   0.144   5.617  0.7521  0.1962 -1.3457
10698TIP3    H132051   2.547   0.199   5.574  0.3357 -0.3360 -2.7416
10698TIP3    H232052   2.446   0.198   5.687  0.8193  1.4736 -2.2603
10699TIP3   OH232053   8.055   4.207   0.585  0.8381 -0.2582 -0.2981
10699TIP3    H132054   8.083   4.164   0.665  0.6531  0.6488  0.2613
10699TIP3    H232055   7.961   4.189   0.579  0.8054 -0.1273 -0.1836
10700TIP3   OH232056   0.546   5.580   5.174  0.3806  0.5805  0.1891
10700TIP3    H132057   0.500   5.596   5.092 -1.2357 -3.1005  0.1896
10700TIP3    H232058   0.630   5.544   5.148 -0.2985 -0.9932  0.0591
10701TIP3   OH232059   2.592   7.554   3.247 -1.0351 -0.1247  0.2110
10701TIP3    H132060   2.527   7.490   3.275  0.6716 -1.5244  1.1607
10701TIP3    H232061   2.602   7.613   3.321  2.0936 -2.7115  2.1151
10702TIP3   OH232062   6.700   0.205   3.811  0.2325  0.0015  0.1498
10702TIP3    H132063   6.791   0.216   3.839  0.2494  0.4207 -0.0584
10702TIP3    H232064   6.705   0.196   3.716  0.1341 -0.9289  0.2234
10703TIP3   OH232065   0.531   1.483   6.081  0.4001  0.2452  0.2637
10703TIP3    H132066   0.447   1.457   6.042  0.9587 -1.0027 -0.1695
10703TIP3    H232067   0.585   1.508   6.006  0.4224  1.0366  0.5433
10704TIP3   OH232068   5.974   1.336   5.017  0.0452  0.3117  0.4275
10704TIP3    H132069   6.063   1.337   5.050  0.4319  1.5601 -0.5912
10704TIP3    H232070   5.923   1.382   5.084  0.3981  0.7449  0.4032
10705TIP3   OH232071   1.901   1.694   3.179 -0.0499 -0.2140 -0.8646
10705TIP3    H132072   1.950   1.612   3.179  0.2993 -0.0153 -1.7549
10705TIP3    H232073   1.894   1.718   3.086 -2.0418 -0.3568 -0.7998
10706TIP3   OH232074   1.457   4.315   3.584 -0.3418  0.6410  0.6199
10706TIP3    H132075   1.540   4.342   3.543  0.4392 -0.0485  1.7071
10706TIP3    H232076   1.461   4.220   3.584 -1.0135  0.6113  0.9659
10707TIP3   OH232077   1.888   3.556   5.337  0.5265  0.1056 -0.0997
10707TIP3    H132078   1.934   3.568   5.254  0.2085  0.4772 -0.2286
10707TIP3    H232079   1.797   3.539   5.312  0.2947  0.8507  0.1747
10708TIP3   OH232080   7.473   1.702   5.961  0.0773 -0.3882 -0.0741
10708TIP3    H132081   7.499   1.727   5.872 -0.7745 -1.9184 -0.7915
10708TIP3    H232082   7.446   1.784   6.002 -0.8642  0.1730 -1.7201
10709TIP3   OH232083   6.221   1.446   5.932  0.4524  0.1196 -0.2029
10709TIP3    H132084   6.299   1.427   5.985 -0.5450 -1.4441  0.7967
10709TIP3    H232085   6.250   1.514   5.871  2.8481 -0.9899 -0.4506
10710TIP3   OH232086   5.231   3.470   6.319 -0.0960  0.0928 -0.2306
10710TIP3    H132087   5.164   3.538   6.324 -0.1543  0.0208 -0.0043
10710TIP3    H232088   5.314   3.517   6.320 -0.0557  0.0973  2.2414
10711TIP3   OH232089   4.208   4.004   5.166  0.3375  0.3270 -0.2747
10711TIP3    H132090   4.286   3.950   5.178  0.5178  0.5731 -0.3259
10711TIP3    H232091   4.151   3.952   5.110  0.6733  0.3482 -0.6429
10712TIP3   OH232092   4.548   1.708   5.434  0.7835  0.3647  0.1635
10712TIP3    H132093   4.597   1.787   5.456 -1.5035  1.5720  1.2917
10712TIP3    H232094   4.492   1.735   5.360  0.4122 -0.3641  0.1683
10713TIP3   OH232095   4.777   6.290   0.214 -0.1601 -0.3664  0.2401
10713TIP3    H132096   4.833   6.344   0.158 -1.6936 -0.1799 -1.1827
10713TIP3    H232097   4.821   6.206   0.220 -0.6583 -0.9137 -2.5614
10714TIP3   OH232098   7.433   1.804   4.847  0.2678 -0.0105  0.5803
10714TIP3    H132099   7.385   1.887   4.848  1.9927  1.0535 -0.1044
10714TIP3    H232100   7.447   1.784   4.940  0.4041  0.8298  0.7489
10715TIP3   OH232101   1.721   6.501   4.171 -0.0783  0.2966  0.9518
10715TIP3    H132102   1.804   6.471   4.132 -1.1818 -1.6634 -0.0495
10715TIP3    H232103   1.693   6.574   4.115 -0.7520 -1.3408 -0.9612
10716TIP3   OH232104   1.235   6.888   5.176 -0.6595 -0.0423  0.2767
10716TIP3    H132105   1.198   6.897   5.088  0.3938  2.0836 -0.0080
10716TIP3    H232106   1.178   6.942   5.231  1.7499  3.2417 -0.1613
10717TIP3   OH232107   7.929   3.078   4.329  0.3445  0.3237  0.0962
10717TIP3    H132108   7.868   3.009   4.353  0.1810  0.8563  1.2714
10717TIP3    H232109   7.899   3.108   4.243 -0.4757 -0.0609  0.2409
10718TIP3   OH232110   3.992   5.937   3.541 -0.0971  0.3274 -0.3619
10718TIP3    H132111   4.016   5.860   3.592 -1.3305 -0.2469 -0.5991
10718TIP3    H232112   4.013   5.915   3.451  0.8634  0.8340 -0.2728
10719TIP3   OH232113   7.846   7.400   1.342 -0.7250  0.4547  0.1292
10719TIP3    H132114   7.933   7.425   1.375 -0.2276 -0.0432 -0.7598
10719TIP3    H232115   7.786   7.462   1.384 -0.0916  0.1107  1.6448
10720TIP3   OH232116   7.531   3.957   3.779  0.4049  0.0384 -0.7326
10720TIP3    H132117   7.496   3.899   3.846 -0.0004  0.8875 -0.1989
10720TIP3    H232118   7.584   3.900   3.723 -0.4283 -0.9504 -0.5452
10721TIP3   OH232119   6.915   6.542   1.233  0.5003 -0.2575  0.1908
10721TIP3    H132120   6.963   6.565   1.154  0.8641 -3.0185 -0.5117
10721TIP3    H232121   6.865   6.621   1.255  0.2056  0.5701 -2.9284
10722TIP3   OH232122   0.652   0.731   3.550 -0.4464  0.3077  0.2500
10722TIP3    H132123   0.592   0.656   3.554  0.7240 -0.6404  0.4866
10722TIP3    H232124   0.638   0.777   3.633 -0.5187 -0.1685  0.5074
10723TIP3   OH232125   3.116   5.960   5.168 -0.8554  0.1495  0.0530
10723TIP3    H132126   3.064   5.908   5.229 -0.7704  0.2354  0.1976
10723TIP3    H232127   3.052   5.992   5.103 -0.9515  0.0944  0.1208
10724TIP3   OH232128   3.460   6.498   5.517  0.3127  0.2311  0.0497
10724TIP3    H132129   3.386   6.461   5.565  0.0537  0.8395  0.1268
10724TIP3    H232130   3.510   6.422   5.488 -0.6678 -0.2111 -0.5241
10725TIP3   OH232131   6.700   4.576   0.133 -0.0712  0.2091 -0.4335
10725TIP3    H132132   6.694   4.529   0.217  1.8337  0.4806 -0.1045
10725TIP3    H232133   6.686   4.668   0.156  1.0380  0.3572 -0.2869
10726TIP3   OH232134   0.603   3.543   4.020 -0.5968  0.0315  0.5477
10726TIP3    H132135   0.550   3.482   4.071  0.3064  0.6570  2.2890
10726TIP3    H232136   0.690   3.503   4.016 -0.8042 -0.3203 -1.1024
10727TIP3   OH232137   7.759   5.356   2.923  0.1739 -0.0730 -0.0788
10727TIP3    H132138   7.731   5.267   2.941 -1.0555  0.2185 -0.4368
10727TIP3    H232139   7.715   5.409   2.989  0.0405  0.3790 -0.5232
10728TIP3   OH232140   3.246   6.334   2.807  0.1897 -0.1838 -0.3005
10728TIP3    H132141   3.317   6.367   2.862 -0.2904  2.6557 -1.2026
10728TIP3    H232142   3.258   6.240   2.806  2.7787  0.0443  1.1236
10729TIP3   OH232143   4.827   4.797   6.119  0.3406  0.1573 -0.3869
10729TIP3    H132144   4.732   4.787   6.107  0.4900 -2.3664 -0.1302
10729TIP3    H232145   4.865   4.747   6.047  1.4543  0.2587  0.1124
10730TIP3   OH232146   5.021   5.919   1.635 -0.0770 -0.3415  0.2896
10730TIP3    H132147   4.946   5.877   1.676 -0.6459  1.6439  1.3989
10730TIP3    H232148   4.992   6.009   1.618  1.3623 -0.1050 -1.1787
10731TIP3   OH232149   5.645   2.911   2.040 -0.9222 -0.2488 -0.1808
10731TIP3    H132150   5.681   2.827   2.013  0.8465 -0.0947  1.5044
10731TIP3    H232151   5.665   2.971   1.968  0.8831 -0.5183  0.0697
10732TIP3   OH232152   8.130   3.729   4.263  0.0240 -0.1934  0.4688
10732TIP3    H132153   8.216   3.740   4.302  0.5249 -1.3280 -0.2513
10732TIP3    H232154   8.121   3.803   4.203 -0.1533  0.7612  1.6434
10733TIP3   OH232155   0.139   3.886   0.610  0.4526  0.1899  0.2337
10733TIP3    H132156   0.169   3.966   0.653 -0.9123  0.7747  0.1622
10733TIP3    H232157   0.179   3.887   0.524 -1.0735  1.8576 -0.5251
10734TIP3   OH232158   2.733   6.069   0.590  0.3282  0.0221  0.1601
10734TIP3    H132159   2.783   6.093   0.512 -0.9560 -0.0551 -0.6979
10734TIP3    H232160   2.796   6.078   0.662  1.1936  1.2678 -0.7216
10735TIP3   OH232161   3.729   6.949   6.421 -0.1173  0.6664  0.0804
10735TIP3    H132162   3.699   7.007   6.352  0.1499  0.3170 -0.3317
10735TIP3    H232163   3.666   6.962   6.492 -1.7749 -0.6851 -1.0592
10736TIP3   OH232164   7.425   2.189   2.390  0.3866 -0.5353 -0.2890
10736TIP3    H132165   7.475   2.264   2.422  0.3514 -0.5447 -0.2106
10736TIP3    H232166   7.452   2.117   2.447  1.0222 -0.7680 -0.8766
10737TIP3   OH232167   4.418   0.932   6.216  0.4567  0.7732 -0.0837
10737TIP3    H132168   4.472   0.887   6.151 -0.6632  0.9149 -1.1483
10737TIP3    H232169   4.375   0.861   6.264  0.1419  0.6694 -0.5080
10738TIP3   OH232170   6.423   6.044   6.271 -0.0874  0.1953 -0.4417
10738TIP3    H132171   6.347   6.058   6.215 -1.0987  0.1170  0.8450
10738TIP3    H232172   6.397   6.080   6.356  1.0138 -0.5732  0.2544
10739TIP3   OH232173   1.862   2.576   6.128 -0.6767  0.2168 -0.3473
10739TIP3    H132174   1.888   2.614   6.045 -0.4098  0.1993 -0.2724
10739TIP3    H232175   1.852   2.483   6.110  0.7316 -0.0095 -0.0449
10740TIP3   OH232176   7.166   1.725   6.614  0.1733 -0.2489  0.1775
10740TIP3    H132177   7.099   1.722   6.546  0.0762 -0.4874  0.2807
10740TIP3    H232178   7.162   1.638   6.655  1.2689 -0.6740 -0.5309
10741TIP3   OH232179   3.849   3.732   3.909 -0.1495 -0.4919 -0.0631
10741TIP3    H132180   3.896   3.763   3.832  0.1132 -1.2297 -0.2036
10741TIP3    H232181   3.758   3.726   3.880 -0.2118  0.1505 -0.0275
10742TIP3   OH232182   7.416   7.510   1.668 -0.1725 -0.3240  0.2360
10742TIP3    H132183   7.364   7.552   1.599  0.0314 -0.4541 -0.0007
10742TIP3    H232184   7.433   7.422   1.634 -2.2623 -1.3342  1.5576
10743TIP3   OH232185   4.763   2.029   5.329  0.6716  0.5494  0.0287
10743TIP3    H132186   4.740   1.975   5.405 -0.8172  1.5869  0.3485
10743TIP3    H232187   4.838   1.984   5.290  1.0894 -0.3392  1.7517
10744TIP3   OH232188   7.358   5.542   6.607  0.1043 -0.1935 -0.2991
10744TIP3    H132189   7.367   5.521   6.700 -0.7264  0.0563 -0.1613
10744TIP3    H232190   7.311   5.468   6.570  1.4858 -0.8790 -0.7787
10745TIP3   OH232191   3.955   5.205   2.118  0.0803 -0.3903 -0.3745
10745TIP3    H132192   3.974   5.298   2.131  0.3891 -0.4179 -0.6203
10745TIP3    H232193   4.025   5.174   2.060 -0.4997 -0.5816 -0.9785
10746TIP3   OH232194   7.567   6.344   0.640  0.2381  0.1586  0.3938
10746TIP3    H132195   7.529   6.388   0.717 -0.1319  0.1481  0.2182
10746TIP3    H232196   7.511   6.268   0.627  0.3928  0.0795  0.2026
10747TIP3   OH232197   4.333   7.271   2.462  0.0787 -0.0460  0.0729
10747TIP3    H132198   4.253   7.251   2.413 -0.6863 -0.1037  1.2930
10747TIP3    H232199   4.354   7.361   2.440 -0.8063  0.2412  0.3728
10748TIP3   OH232200   4.160   0.663   1.374 -0.2051  0.6448  0.3166
10748TIP3    H132201   4.074   0.622   1.384  0.4412 -0.3906  2.0123
10748TIP3    H232202   4.146   0.731   1.308 -2.2458  0.3006  0.3243
10749TIP3   OH232203   2.727   1.326   3.496 -0.2272 -0.4951  0.2519
10749TIP3    H132204   2.802   1.297   3.444  0.2217 -0.9731  1.1564
10749TIP3    H232205   2.765   1.365   3.574 -0.8267  1.8594 -0.5346
10750TIP3   OH232206   4.984   1.023   0.520  0.2645  0.0712  0.0992
10750TIP3    H132207   5.012   0.951   0.463 -0.5704 -1.1145  1.1143
10750TIP3    H232208   4.958   1.093   0.460  0.9149 -0.5357 -0.9252
10751TIP3   OH232209   7.811   1.117   0.507  0.0082 -0.2479 -0.0900
10751TIP3    H132210   7.775   1.199   0.541  1.8441  0.7427 -0.4246
10751TIP3    H232211   7.903   1.119   0.532  0.4872 -1.4045 -1.6071
10752TIP3   OH232212   7.380   3.549   0.134 -0.3432 -0.0991  0.5527
10752TIP3    H132213   7.447   3.606   0.171  0.5919  0.2634 -1.5838
10752TIP3    H232214   7.302   3.604   0.130  0.0822  0.4789  0.1227
10753TIP3   OH232215   3.266   7.694   0.229 -0.1629  0.1131  0.0966
10753TIP3    H132216   3.247   7.772   0.178  0.6263  0.7987  0.8320
10753TIP3    H232217   3.195   7.633   0.206 -1.1670  1.2733  0.0280
10754TIP3   OH232218   7.103   7.559   1.833  0.0381 -0.5661  0.0282
10754TIP3    H132219   7.145   7.483   1.872 -2.2651 -1.2649  1.3889
10754TIP3    H232220   7.076   7.530   1.746  0.0757 -0.9607  0.1485
10755TIP3   OH232221   3.358   4.279   3.166  0.2663  0.6363 -0.2264
10755TIP3    H132222   3.412   4.236   3.100  1.9912  1.1971  0.7651
10755TIP3    H232223   3.276   4.299   3.121  0.2302 -1.6917 -1.3248
10756TIP3   OH232224   4.894   6.841   4.923  0.3005 -0.3172 -0.3672
10756TIP3    H132225   4.914   6.776   4.855 -0.0752 -0.8047 -0.0171
10756TIP3    H232226   4.842   6.908   4.877  2.6430  0.9854 -1.3014
10757TIP3   OH232227   5.034   6.380   3.766  0.0176 -0.6799 -0.1140
10757TIP3    H132228   5.090   6.442   3.813 -0.6159  0.9134 -1.3733
10757TIP3    H232229   4.958   6.368   3.823  0.3934 -0.6992  0.3804
10758TIP3   OH232230   7.187   1.252   3.117  0.1186  0.3803  0.4401
10758TIP3    H132231   7.093   1.274   3.119 -0.0959 -0.4053 -0.4667
10758TIP3    H232232   7.204   1.226   3.027  1.1547  0.2356  0.6642
10759TIP3   OH232233   2.858   4.397   2.787  0.2344 -0.0103 -0.4794
10759TIP3    H132234   2.765   4.396   2.812  0.2820 -0.0572 -0.3007
10759TIP3    H232235   2.895   4.320   2.829  0.0888 -0.7044 -1.6004
10760TIP3   OH232236   0.911   6.336   4.254  0.0036 -0.1604  0.4856
10760TIP3    H132237   0.816   6.325   4.254  0.1277 -1.9018  2.1863
10760TIP3    H232238   0.926   6.415   4.306 -0.4998 -0.0853  0.5207
10761TIP3   OH232239   1.152   3.065   0.128  0.1359  0.0858  0.3039
10761TIP3    H132240   1.147   3.005   0.055  0.1664  0.9806 -0.4507
10761TIP3    H232241   1.243   3.059   0.158  0.4086  0.4790 -0.4100
10762TIP3   OH232242   4.555   6.609   2.922  0.0711  0.1302  0.1850
10762TIP3    H132243   4.537   6.594   3.015 -0.4186  1.0807  0.2583
10762TIP3    H232244   4.607   6.533   2.895 -0.9396 -0.8438  0.8901
10763TIP3   OH232245   0.763   0.333   4.363  0.1628  0.2055  0.1505
10763TIP3    H132246   0.668   0.343   4.368 -0.4106 -2.8982 -1.7514
10763TIP3    H232247   0.784   0.274   4.436  0.6060  0.7196  0.4399
10764TIP3   OH232248   6.658   4.641   6.012  0.1783  0.6448 -0.3185
10764TIP3    H132249   6.582   4.586   5.996  0.9162 -0.4060 -0.2928
10764TIP3    H232250   6.693   4.660   5.924  1.5801 -1.3472 -0.2608
10765TIP3   OH232251   7.982   5.000   0.581  0.1211  0.3142 -0.5198
10765TIP3    H132252   8.032   5.016   0.661 -0.5096 -0.3495  0.0257
10765TIP3    H232253   7.904   4.953   0.611 -0.0903 -0.0083 -1.5395
10766TIP3   OH232254   5.707   0.578   0.970 -0.4015 -0.1964  0.1805
10766TIP3    H132255   5.801   0.592   0.978 -0.4573  0.3992 -0.1303
10766TIP3    H232256   5.670   0.667   0.969 -1.0748 -0.4278  1.6349
10767TIP3   OH232257   6.656   5.405   3.249  0.1590  0.2317 -0.1426
10767TIP3    H132258   6.629   5.320   3.215  1.5411 -0.0893 -0.4973
10767TIP3    H232259   6.671   5.389   3.343  0.9173 -0.0679 -0.3025
10768TIP3   OH232260   5.730   0.592   5.018 -0.1673 -0.2827 -0.8268
10768TIP3    H132261   5.684   0.511   4.997 -0.3238 -0.6955  0.9682
10768TIP3    H232262   5.784   0.570   5.094  0.1691  1.1704 -0.6139
10769TIP3   OH232263   6.842   2.133   2.999 -1.4446  0.8186 -0.2282
10769TIP3    H132264   6.839   2.103   2.908  2.0163  0.1514 -0.2875
10769TIP3    H232265   6.801   2.063   3.049  0.5039 -0.9891 -0.9939
10770TIP3   OH232266   0.829   5.622   2.894 -0.3221 -0.4176  0.5977
10770TIP3    H132267   0.881   5.566   2.836  2.1626  2.2896 -0.0434
10770TIP3    H232268   0.771   5.671   2.835 -2.2176 -1.9281  1.1155
10771TIP3   OH232269   7.149   4.900   5.115 -0.5550  0.3396 -0.2341
10771TIP3    H132270   7.118   4.876   5.027 -0.6144  0.7121 -0.3161
10771TIP3    H232271   7.071   4.890   5.171 -0.9426  1.6462 -0.5072
10772TIP3   OH232272   5.022   5.407   2.571 -0.2935 -0.1642  0.3464
10772TIP3    H132273   4.947   5.416   2.512  0.3974  0.4323 -0.4703
10772TIP3    H232274   5.046   5.497   2.593 -1.1364 -0.3911  2.3438
10773TIP3   OH232275   2.555   0.179   1.897  0.3878 -0.1941 -0.0651
10773TIP3    H132276   2.476   0.129   1.916 -0.1705  0.5037 -0.4813
10773TIP3    H232277   2.578   0.220   1.981  0.9897 -1.3056  0.3381
10774TIP3   OH232278   6.689   1.010   1.534  0.0106 -0.0692  0.3315
10774TIP3    H132279   6.597   1.031   1.517  0.6099  1.2328 -1.6852
10774TIP3    H232280   6.730   1.011   1.447  1.9369 -0.6119  1.1832
10775TIP3   OH232281   1.642   5.593   4.224  0.1924 -0.4206 -0.6249
10775TIP3    H132282   1.637   5.684   4.195 -3.3249  0.4493  2.0514
10775TIP3    H232283   1.586   5.544   4.164  0.0437 -0.3188 -0.5689
10776TIP3   OH232284   1.700   4.327   5.706  0.3245  0.0804 -0.0889
10776TIP3    H132285   1.671   4.398   5.649  1.4758 -0.5633 -1.5378
10776TIP3    H232286   1.795   4.327   5.697  0.3629 -1.4176  0.1687
10777TIP3   OH232287   1.249   5.776   4.422 -0.2165  0.1868  0.3823
10777TIP3    H132288   1.248   5.709   4.353  0.2209  0.8226 -0.2559
10777TIP3    H232289   1.179   5.750   4.481  0.0081 -0.8927  0.1984
10778TIP3   OH232290   2.989   2.329   1.639 -0.1090  0.0561 -0.0295
10778TIP3    H132291   3.020   2.245   1.604 -0.5842 -1.1025  2.1437
10778TIP3    H232292   2.971   2.382   1.562 -3.2518 -3.0577 -1.7418
10779TIP3   OH232293   8.210   7.445   2.756 -0.1340 -0.0477  0.2751
10779TIP3    H132294   8.138   7.470   2.814 -0.8690  0.2453 -0.7482
10779TIP3    H232295   8.178   7.463   2.668  1.1556 -0.0102 -0.2090
10780TIP3   OH232296   7.239   0.233   4.936 -0.2516  0.2319 -0.3149
10780TIP3    H132297   7.228   0.166   5.004  1.4014 -0.1425 -0.3743
10780TIP3    H232298   7.297   0.192   4.872 -0.1414  1.3312 -0.9334
10781TIP3   OH232299   3.368   4.478   4.669 -0.4824 -0.6035 -0.8647
10781TIP3    H132300   3.350   4.387   4.694 -0.7968 -0.3931 -0.3156
10781TIP3    H232301   3.433   4.471   4.598  0.4949 -1.2152  0.0556
10782TIP3   OH232302   7.861   0.053   0.469 -0.4262 -0.1871 -0.7257
10782TIP3    H132303   7.947   0.074   0.433  0.3554 -1.1802  0.4784
10782TIP3    H232304   7.801   0.062   0.395  0.5836  1.2209 -1.4357
10783TIP3   OH232305   7.145   0.001   5.812 -0.1243 -0.2344  0.4261
10783TIP3    H132306   7.113   0.059   5.881 -0.3743 -1.7648  1.6730
10783TIP3    H232307   7.234  -0.020   5.838 -0.7661 -2.1655  1.2868
10784TIP3   OH232308   0.872   6.259   2.089 -0.1277 -0.7088  0.0852
10784TIP3    H132309   0.873   6.277   2.183  0.6882  0.0989 -0.0617
10784TIP3    H232310   0.823   6.331   2.051 -0.9164 -1.3118 -0.0748
10785TIP3   OH232311   5.284   6.223   3.745 -0.0839  0.0945 -0.2017
10785TIP3    H132312   5.304   6.273   3.824 -2.8072  2.3131 -0.7630
10785TIP3    H232313   5.251   6.139   3.776  0.2452  0.3753  0.9471
10786TIP3   OH232314   1.932   7.357   1.077  0.2740  0.5037  0.5979
10786TIP3    H132315   1.900   7.269   1.058 -0.5705  1.1391 -1.0344
10786TIP3    H232316   1.923   7.365   1.172  1.5139 -1.5841  0.9601
10787TIP3   OH232317   3.787   6.498   6.649 -0.7317 -0.5148 -0.2191
10787TIP3    H132318   3.871   6.501   6.695  0.0894 -2.5769 -1.4478
10787TIP3    H232319   3.734   6.565   6.692  0.6809 -0.8669  2.3192
10788TIP3   OH232320   0.382   0.134   1.931  0.0608  0.6194 -0.2131
10788TIP3    H132321   0.412   0.173   1.849 -0.7798  0.5616 -0.5572
10788TIP3    H232322   0.363   0.043   1.909  2.1089 -0.0893  0.6043
10789TIP3   OH232323   5.393   5.458   0.877  0.2231 -0.1302 -0.0743
10789TIP3    H132324   5.445   5.381   0.853 -0.4026 -1.2516  1.9179
10789TIP3    H232325   5.440   5.497   0.950 -1.0328 -0.4700  0.9727
10790TIP3   OH232326   1.174   4.271   5.890  0.1418  0.2475 -0.2823
10790TIP3    H132327   1.087   4.230   5.887  0.1160  0.3392 -1.5406
10790TIP3    H232328   1.160   4.359   5.854  0.4205  0.9730  1.2938
10791TIP3   OH232329   1.902   1.895   2.257  0.2747 -0.0255  0.2371
10791TIP3    H132330   1.987   1.908   2.299  0.8174 -0.1207 -0.8216
10791TIP3    H232331   1.843   1.953   2.306  1.6900  3.0783 -1.4159
10792TIP3   OH232332   1.648   6.997   0.756  0.0928 -0.1247  0.4615
10792TIP3    H132333   1.715   7.024   0.693 -0.0155  0.4929  0.5984
10792TIP3    H232334   1.591   7.074   0.765 -0.3818 -0.4927  0.6761
10793TIP3   OH232335   0.011   1.708   2.431  0.0568  0.6604  0.1735
10793TIP3    H132336   0.044   1.642   2.370  1.4699  1.2263  0.2919
10793TIP3    H232337  -0.027   1.776   2.376  1.8187  1.4337 -0.1589
10794TIP3   OH232338   5.643   5.569   4.140  0.4277 -0.6789 -0.0768
10794TIP3    H132339   5.577   5.632   4.170 -0.5669 -0.6791 -2.0598
10794TIP3    H232340   5.711   5.572   4.207 -1.1097  0.0617  1.5473
10795TIP3   OH232341   1.130   6.085   5.076 -0.3099 -0.3920  0.2789
10795TIP3    H132342   1.184   6.059   5.150  1.0808  0.4873 -0.3795
10795TIP3    H232343   1.135   6.181   5.075  1.6501 -0.4052 -2.2601
10796TIP3   OH232344   0.814   1.028   4.963  0.0083  0.4440  0.2439
10796TIP3    H132345   0.852   1.110   4.931  0.8742 -0.1455 -0.2555
10796TIP3    H232346   0.720   1.039   4.949  0.2501  0.7051 -1.3654
10797TIP3   OH232347   6.530   3.056   3.536  0.4004  0.2450 -0.0348
10797TIP3    H132348   6.465   3.120   3.508 -0.2837 -0.2190  0.4520
10797TIP3    H232349   6.479   2.985   3.574  1.1303 -0.6670 -0.7055
10798TIP3   OH232350   1.318   6.249   6.360  0.0637 -0.1076 -0.5751
10798TIP3    H132351   1.239   6.215   6.402  1.3554 -1.8348  0.5706
10798TIP3    H232352   1.304   6.344   6.357 -1.9602 -0.3450 -0.2706
10799TIP3   OH232353   1.953   1.802   1.195  0.0680  0.0897 -0.1909
10799TIP3    H132354   1.935   1.893   1.219 -1.1572 -0.2038  0.0350
10799TIP3    H232355   1.908   1.750   1.261 -2.1167 -0.7275 -2.1908
10800TIP3   OH232356   8.061   3.968   5.740 -0.1435  0.1504  0.0983
10800TIP3    H132357   8.091   3.878   5.745  1.8843  0.7914  0.3513
10800TIP3    H232358   8.054   3.996   5.831  1.8332  1.0099  0.0292
10801TIP3   OH232359   2.764   3.947   3.979 -0.0966 -0.5597  0.0220
10801TIP3    H132360   2.789   3.978   4.066  0.5013  0.7368 -0.5811
10801TIP3    H232361   2.784   4.020   3.921 -1.0510 -1.1779 -1.1338
10802TIP3   OH232362   4.972   6.651   5.760  0.0093  0.6064 -0.2223
10802TIP3    H132363   5.004   6.734   5.724 -0.0243  0.9897  0.6210
10802TIP3    H232364   4.999   6.586   5.695  0.6856  1.1812 -0.5358
10803TIP3   OH232365   6.226   3.775   4.249 -0.0035  0.1833 -0.4113
10803TIP3    H132366   6.140   3.808   4.275  0.2473 -0.0455  0.7455
10803TIP3    H232367   6.254   3.836   4.180 -0.7465  0.7219 -0.2618
10804TIP3   OH232368   6.810   0.999   1.267 -0.4644 -0.1485 -0.2442
10804TIP3    H132369   6.861   0.918   1.261  0.4749  0.2990  1.0286
10804TIP3    H232370   6.731   0.983   1.216  0.4342 -1.2896 -1.3223
10805TIP3   OH232371   3.354   4.854   5.288  0.2436 -0.5348 -0.1131
10805TIP3    H132372   3.384   4.872   5.199  1.4593  0.8828  0.5280
10805TIP3    H232373   3.301   4.930   5.311 -2.8797 -2.3948 -0.7289
10806TIP3   OH232374   4.032   0.870   1.821  0.3824 -0.0729  0.2610
10806TIP3    H132375   3.979   0.797   1.789  1.4213 -2.1329  2.8579
10806TIP3    H232376   4.117   0.858   1.780  0.9131 -1.1217  1.5914
10807TIP3   OH232377   4.264   3.543   5.044  0.1927 -0.2998  0.3106
10807TIP3    H132378   4.193   3.578   5.098  0.6108 -0.4363  0.9655
10807TIP3    H232379   4.221   3.517   4.962 -0.1722  1.4821 -0.1039
10808TIP3   OH232380   4.925   2.090   1.359 -0.1099  0.0356 -0.0844
10808TIP3    H132381   4.845   2.136   1.336 -0.0359  0.0496 -0.3194
10808TIP3    H232382   4.913   2.002   1.324 -0.0474  0.0195 -0.0670
10809TIP3   OH232383   1.284   6.960   6.110  0.6075 -0.0703  0.2218
10809TIP3    H132384   1.270   7.053   6.126  1.2433  0.0678  0.0190
10809TIP3    H232385   1.338   6.957   6.031 -1.6729 -0.6907 -1.4319
10810TIP3   OH232386   0.981   1.327   2.138 -0.1695  0.2693 -0.6080
10810TIP3    H132387   1.076   1.330   2.149 -0.1022 -0.9261 -0.7049
10810TIP3    H232388   0.968   1.305   2.046 -0.5244 -0.1939 -0.4536
10811TIP3   OH232389   4.706   4.501   2.174 -0.2726 -0.1019 -0.4527
10811TIP3    H132390   4.692   4.538   2.262 -0.3147 -1.3372  0.0860
10811TIP3    H232391   4.620   4.507   2.132 -0.6121 -0.7708  0.1138
10812TIP3   OH232392   0.966   7.616   1.701 -0.3458 -0.0424 -0.0775
10812TIP3    H132393   0.908   7.570   1.762 -2.1744  0.4044 -1.3889
10812TIP3    H232394   0.954   7.709   1.723 -0.2794  0.0639 -0.4850
10813TIP3   OH232395   7.758   7.679   6.204 -0.3008  0.7181 -0.3617
10813TIP3    H132396   7.792   7.722   6.282  3.1603 -1.1324 -0.6715
10813TIP3    H232397   7.765   7.745   6.135 -0.4671  1.3896  0.2471
10814TIP3   OH232398   6.671   0.954   2.220  0.2831  1.0867 -0.7706
10814TIP3    H132399   6.732   0.903   2.272 -0.4736  2.3155  1.4407
10814TIP3    H232400   6.663   0.905   2.137 -0.4044 -2.3827  1.1496
10815TIP3   OH232401   4.907   7.001   5.198 -0.2225 -0.0009  0.3812
10815TIP3    H132402   4.959   6.926   5.169 -0.2673  0.5021 -1.0826
10815TIP3    H232403   4.846   7.017   5.126 -1.2421  0.5049  1.3232
10816TIP3   OH232404   3.057   1.639   1.606 -0.3052 -0.6545  0.0968
10816TIP3    H132405   3.089   1.664   1.519  0.9166  0.2064  0.7521
10816TIP3    H232406   2.968   1.673   1.610 -0.1600 -0.1703 -0.6090
10817TIP3   OH232407   1.417   7.683   0.994 -0.4633  0.1591 -0.6527
10817TIP3    H132408   1.362   7.724   1.061 -1.4615  0.1098 -1.4034
10817TIP3    H232409   1.506   7.709   1.016 -0.8339  0.6610  0.3214
10818TIP3   OH232410   3.016   5.988   4.299  0.1500  0.5732 -0.1462
10818TIP3    H132411   2.945   6.022   4.353  0.5270  2.1157 -0.5781
10818TIP3    H232412   3.084   5.964   4.362 -0.7500 -1.0155  0.2789
10819TIP3   OH232413   4.292   3.050   4.564  0.5807  0.0492 -0.1791
10819TIP3    H132414   4.243   3.017   4.489  1.1737  2.6925 -1.8718
10819TIP3    H232415   4.231   3.042   4.638 -0.3230 -1.8529 -1.0550
10820TIP3   OH232416   2.088   5.715   0.122 -0.1209 -0.1783 -0.7127
10820TIP3    H132417   2.133   5.644   0.167  1.7526  0.5213 -1.3841
10820TIP3    H232418   2.104   5.792   0.176 -1.5557 -0.1048 -0.3508
10821TIP3   OH232419   7.124   5.494   1.884  0.1050  0.3948  0.1786
10821TIP3    H132420   7.152   5.473   1.973  1.1468 -3.6277 -0.8649
10821TIP3    H232421   7.201   5.533   1.843  0.9101 -1.2001  0.1006
10822TIP3   OH232422   1.356   1.494   1.993 -0.5784 -0.4640  0.2637
10822TIP3    H132423   1.378   1.586   2.007 -0.4322 -0.2014 -1.4711
10822TIP3    H232424   1.297   1.472   2.066  0.5727  0.5423  1.5584
10823TIP3   OH232425   6.053   6.911   5.229  0.6131 -0.0844  0.1186
10823TIP3    H132426   6.096   6.904   5.314 -1.6734  1.3135  1.4924
10823TIP3    H232427   5.981   6.849   5.234 -1.8377  2.6095  0.8151
10824TIP3   OH232428   1.868   2.053   1.229 -0.3669 -0.1948  0.1626
10824TIP3    H132429   1.900   2.090   1.146  0.6542  0.8303  0.9826
10824TIP3    H232430   1.773   2.053   1.220 -0.3040  0.6924 -0.6958
10825TIP3   OH232431   7.306   3.411   5.677 -0.1374  0.3011  0.1599
10825TIP3    H132432   7.355   3.367   5.746 -2.7437 -0.7772  1.4672
10825TIP3    H232433   7.298   3.502   5.707 -0.4011  0.0674  0.8159
10826TIP3   OH232434   8.106   5.955   0.653 -0.0544 -0.5083 -0.2677
10826TIP3    H132435   8.013   5.936   0.660  0.0806 -0.6554  1.3289
10826TIP3    H232436   8.142   5.936   0.739  1.4796 -0.5361 -0.8775
10827TIP3   OH232437   6.972   3.387   5.680  0.7021  0.1087  0.0577
10827TIP3    H132438   7.040   3.454   5.685  0.3420  0.4038  3.3103
10827TIP3    H232439   7.013   3.308   5.717  0.3538 -0.7909 -1.3998
10828TIP3   OH232440   5.232   4.283   5.996 -0.3493 -0.1383 -0.6058
10828TIP3    H132441   5.194   4.216   5.939  1.0545 -1.3359 -0.1804
10828TIP3    H232442   5.289   4.334   5.938  1.2011 -1.4533 -0.3152
10829TIP3   OH232443   3.126   0.935   1.400 -0.7929 -0.0619 -0.6271
10829TIP3    H132444   3.036   0.932   1.432 -0.2528 -2.6945  0.9669
10829TIP3    H232445   3.124   0.893   1.315 -1.2421  1.1051 -1.2103
10830TIP3   OH232446   2.218   2.622   5.600  0.0985 -0.4130 -0.2557
10830TIP3    H132447   2.178   2.621   5.687  0.7523 -1.0377  0.0473
10830TIP3    H232448   2.312   2.617   5.617  0.3568  1.4437 -0.9400
10831TIP3   OH232449   6.513   5.430   3.832  0.2006 -0.5134 -0.3263
10831TIP3    H132450   6.437   5.403   3.780 -0.4552 -1.3551  1.0070
10831TIP3    H232451   6.492   5.402   3.921  1.0008  1.4338  0.5367
10832TIP3   OH232452   6.460   4.020   5.725 -0.1399  0.2350 -0.1049
10832TIP3    H132453   6.451   3.928   5.751  1.4024  0.5469  1.6879
10832TIP3    H232454   6.372   4.044   5.694 -1.2080 -1.1985  1.5788
10833TIP3   OH232455   5.980   4.422   3.440  0.4073  0.6532 -0.3934
10833TIP3    H132456   6.009   4.345   3.488  0.0775  0.3667 -0.6508
10833TIP3    H232457   5.988   4.494   3.503  0.1608  0.3105  0.0323
10834TIP3   OH232458   2.769   6.032   4.412 -0.5719 -0.8880 -0.2214
10834TIP3    H132459   2.713   6.080   4.351  1.6846  0.7060 -1.2040
10834TIP3    H232460   2.738   6.057   4.499 -1.0311  0.3666 -0.7282
10835TIP3   OH232461   0.709   0.162   1.946  0.4199  0.0120 -0.0320
10835TIP3    H132462   0.795   0.150   1.987  0.3842 -0.9280 -0.2011
10835TIP3    H232463   0.648   0.166   2.020  0.6984  1.7603  0.1412
10836TIP3   OH232464   1.711   5.760   5.072 -0.7609  0.1313 -0.1141
10836TIP3    H132465   1.648   5.803   5.015 -0.0375 -0.3171 -1.3048
10836TIP3    H232466   1.738   5.682   5.023  1.4221  0.8086 -0.0921
10837TIP3   OH232467   3.344   1.866   5.719 -0.1068  0.4023 -0.0269
10837TIP3    H132468   3.323   1.931   5.652 -0.4505 -0.1792 -0.5006
10837TIP3    H232469   3.412   1.811   5.679 -1.1066 -0.6369 -0.3558
10838TIP3   OH232470   4.976   2.540   1.810 -0.1505 -0.5140 -0.3608
10838TIP3    H132471   5.053   2.502   1.768 -0.6598 -0.7343 -1.1280
10838TIP3    H232472   4.905   2.480   1.789 -0.3657 -0.8221  1.1567
10839TIP3   OH232473   7.883   3.329   2.817  0.0576 -0.3387  0.2425
10839TIP3    H132474   7.879   3.377   2.900  0.2607 -1.0177  0.6552
10839TIP3    H232475   7.859   3.393   2.751  0.7283  0.4492  0.7374
10840TIP3   OH232476   7.144   6.186   6.040 -0.6725  0.4140 -0.0664
10840TIP3    H132477   7.118   6.198   5.948 -0.3161 -2.0153 -0.5451
10840TIP3    H232478   7.239   6.174   6.036 -0.5701  0.9332  0.7062
10841TIP3   OH232479   3.791   5.014   4.188 -0.0164 -0.3456 -0.1206
10841TIP3    H132480   3.885   4.999   4.198  0.0028 -0.2598 -0.1617
10841TIP3    H232481   3.761   5.043   4.274 -0.1479 -1.0798  0.0876
10842TIP3   OH232482   2.707   6.621   0.352 -0.1515 -0.3190 -0.1264
10842TIP3    H132483   2.702   6.705   0.399  0.0521  0.1823 -0.9719
10842TIP3    H232484   2.799   6.615   0.327 -0.9570  1.7914 -4.5717
10843TIP3   OH232485   0.312   4.194   5.401 -0.0268 -0.6827  0.7272
10843TIP3    H132486   0.216   4.196   5.400 -0.0253 -0.1356  1.0439
10843TIP3    H232487   0.337   4.280   5.437  0.5727 -0.9354  0.9238
10844TIP3   OH232488   7.826   0.412   0.388  0.4055 -0.0012 -0.0926
10844TIP3    H132489   7.795   0.498   0.414 -0.3503 -0.4118  0.3890
10844TIP3    H232490   7.834   0.363   0.469  0.7346 -0.4195 -0.3704
10845TIP3   OH232491   0.131   4.157   0.040  0.2285  0.6250 -0.4832
10845TIP3    H132492   0.118   4.081   0.097  1.7149 -1.0685 -2.2223
10845TIP3    H232493   0.061   4.217   0.063 -0.1480 -0.6419  1.9952
10846TIP3   OH232494   6.707   5.470   4.411  0.1859  0.2229 -0.4142
10846TIP3    H132495   6.762   5.456   4.334 -0.2180  1.6768 -1.0201
10846TIP3    H232496   6.767   5.466   4.485  0.8984  0.5328 -0.9606
10847TIP3   OH232497   4.247   6.516   4.928 -0.6801 -0.4406  0.0901
10847TIP3    H132498   4.218   6.480   4.845 -2.7931  0.9096  0.1539
10847TIP3    H232499   4.219   6.452   4.994  1.1716 -1.6062 -0.1855
10848TIP3   OH232500   1.413   1.451   5.397 -0.5873 -0.2843  0.2478
10848TIP3    H132501   1.321   1.460   5.369 -0.7234 -1.0909  0.4227
10848TIP3    H232502   1.456   1.528   5.359 -1.0132 -0.7141 -1.1872
10849TIP3   OH232503   6.807   6.061   2.442  0.3319 -0.5741 -0.6371
10849TIP3    H132504   6.763   6.102   2.517  2.2044  1.1617 -0.4008
10849TIP3    H232505   6.799   6.126   2.372  1.0774 -0.9555 -1.0856
10850TIP3   OH232506   4.806   1.373   2.495  0.2598  0.2550  0.0506
10850TIP3    H132507   4.743   1.358   2.565 -0.8766 -1.9107 -1.3256
10850TIP3    H232508   4.808   1.290   2.447  2.5601  0.9817 -1.2475
10851TIP3   OH232509   2.075   4.807   1.118  0.0039 -0.2602 -0.6773
10851TIP3    H132510   2.017   4.735   1.140 -0.2981  0.2328  0.1831
10851TIP3    H232511   2.066   4.817   1.023 -0.8391 -0.5863 -0.6383
10852TIP3   OH232512   2.910   1.081   3.084  0.0097  0.0319 -0.0484
10852TIP3    H132513   2.912   1.039   2.998  2.6704 -1.4552  0.6181
10852TIP3    H232514   2.949   1.167   3.070  2.6743 -1.0755 -0.0494
10853TIP3   OH232515   3.502   0.406   5.005  0.1840  0.2906  0.3574
10853TIP3    H132516   3.475   0.496   5.026 -0.2915  0.1684  0.2875
10853TIP3    H232517   3.483   0.357   5.085  2.2278  0.5990  1.0931
10854TIP3   OH232518   6.759   1.636   0.528 -0.6560 -0.2460  0.7559
10854TIP3    H132519   6.701   1.560   0.528 -1.8352  0.5253 -1.7308
10854TIP3    H232520   6.841   1.604   0.490 -1.7800 -0.0050 -2.1422
10855TIP3   OH232521   0.037   6.825   1.890  0.0585  0.1624  0.0363
10855TIP3    H132522   0.090   6.900   1.919  0.0155 -0.6273  2.3646
10855TIP3    H232523   0.051   6.821   1.796  1.7552  1.8008  0.1592
10856TIP3   OH232524   3.477   4.230   6.509  0.3167 -0.4141 -0.2507
10856TIP3    H132525   3.508   4.150   6.467 -0.7488 -1.8569  1.5500
10856TIP3    H232526   3.383   4.217   6.519  0.3985  0.2035  1.7366
10857TIP3   OH232527   3.388   1.011   0.250  0.0306 -0.0112  0.5503
10857TIP3    H132528   3.355   1.026   0.339  0.5521  0.4676  0.6651
10857TIP3    H232529   3.452   1.081   0.236 -0.1735  0.0184 -0.2668
10858TIP3   OH232530   0.796   6.746   4.519  0.0997  0.6088  0.2404
10858TIP3    H132531   0.849   6.801   4.577  0.2756  1.9378 -1.1237
10858TIP3    H232532   0.860   6.688   4.477  0.0352 -0.0026  0.9611
10859TIP3   OH232533   0.403   5.394   3.649 -0.2775  0.4357 -0.0361
10859TIP3    H132534   0.426   5.486   3.655  0.6911  0.1774  0.3766
10859TIP3    H232535   0.323   5.392   3.597 -0.2708  1.4999 -0.0913
10860TIP3   OH232536   8.064   1.521   4.393 -0.2384  0.0365  0.0226
10860TIP3    H132537   7.989   1.469   4.367 -1.0865  0.4342  1.6036
10860TIP3    H232538   8.027   1.602   4.428  0.9680  0.6511 -0.0431
10861TIP3   OH232539   7.400   3.337   1.039 -0.3085  1.0465 -0.4609
10861TIP3    H132540   7.427   3.424   1.011 -0.0992  0.0519 -3.8281
10861TIP3    H232541   7.439   3.278   0.974 -0.9540 -1.5330  1.3184
10862TIP3   OH232542   6.017   3.860   5.260 -0.0495  0.0922 -0.6047
10862TIP3    H132543   6.073   3.907   5.322  1.3328 -3.1470  0.8695
10862TIP3    H232544   6.075   3.836   5.188  0.1711 -1.9227  0.1739
10863TIP3   OH232545   7.974   7.620   3.707 -0.2014  0.5175 -0.0121
10863TIP3    H132546   7.894   7.666   3.732 -1.2037 -1.3988  0.5195
10863TIP3    H232547   8.038   7.646   3.773 -0.4586  1.8080 -0.2386
10864TIP3   OH232548   1.558   2.347   0.413 -0.0162  0.1274 -0.0306
10864TIP3    H132549   1.629   2.350   0.477  1.4683  1.1902 -1.6703
10864TIP3    H232550   1.547   2.254   0.393  0.5823 -0.0794  0.5765
10865TIP3   OH232551   7.967   6.651   6.709 -0.0307 -0.0869 -0.7416
10865TIP3    H132552   7.921   6.735   6.713 -0.9471 -0.5460 -1.4864
10865TIP3    H232553   7.903   6.590   6.674  0.8131 -0.9822 -0.7486
10866TIP3   OH232554   3.461   4.269   0.462 -0.6218 -0.1128  0.1012
10866TIP3    H132555   3.554   4.283   0.480 -0.5990  0.7560 -0.6281
10866TIP3    H232556   3.460   4.202   0.393 -0.5926 -1.0467  0.9937
10867TIP3   OH232557   0.607   6.987   0.088  0.1618 -0.1530 -0.0121
10867TIP3    H132558   0.548   6.912   0.094 -1.0348  0.7250 -0.4803
10867TIP3    H232559   0.557   7.060   0.124  1.1901  0.5056  0.1247
10868TIP3   OH232560   4.679   4.693   1.556 -0.6578 -0.1811  0.4852
10868TIP3    H132561   4.658   4.763   1.618  1.1839 -0.0227  1.0037
10868TIP3    H232562   4.749   4.643   1.599 -1.2205 -1.7383 -0.3142
10869TIP3   OH232563   3.692   0.677   5.302  0.0488 -0.3289 -0.4660
10869TIP3    H132564   3.725   0.696   5.389 -0.5695  0.3371 -0.3641
10869TIP3    H232565   3.604   0.715   5.301 -0.4077 -1.3764 -0.9837
10870TIP3   OH232566   4.679   2.406   1.026  0.1922 -0.2343  0.6974
10870TIP3    H132567   4.747   2.446   1.081 -0.7866  0.3070  1.5506
10870TIP3    H232568   4.678   2.458   0.946  1.7785 -1.1525  0.0183
10871TIP3   OH232569   7.651   5.505   4.369  0.0490 -0.0410 -0.0070
10871TIP3    H132570   7.560   5.531   4.358 -0.0153 -0.8347 -1.6452
10871TIP3    H232571   7.649   5.433   4.432 -0.2489  1.0229  1.2285
10872TIP3   OH232572   6.259   6.539   3.951  0.2538 -1.1615 -0.5325
10872TIP3    H132573   6.179   6.532   3.899  0.7755 -1.7569 -1.2934
10872TIP3    H232574   6.329   6.515   3.890  1.1142  0.1923 -0.1303
10873TIP3   OH232575   7.410   2.015   5.259  0.3728  0.3771 -0.9075
10873TIP3    H132576   7.404   1.934   5.208  1.5618 -0.3818  0.1086
10873TIP3    H232577   7.342   2.006   5.326  0.6292  0.1212 -0.6781
10874TIP3   OH232578   2.306   7.235   0.918 -0.3168  0.5271  0.2739
10874TIP3    H132579   2.366   7.263   0.849 -1.7030  0.4440 -1.0064
10874TIP3    H232580   2.349   7.158   0.957  0.7195  0.8742 -0.1364
10875TIP3   OH232581   7.695   4.968   5.636 -0.5294 -0.4781 -0.2057
10875TIP3    H132582   7.746   4.995   5.713 -2.1949 -1.5251  1.3529
10875TIP3    H232583   7.729   5.022   5.565  2.2690 -0.6580  0.8644
10876TIP3   OH232584   5.191   0.411   3.649  0.0082 -0.3023  0.1871
10876TIP3    H132585   5.149   0.497   3.641 -0.4313 -0.5889 -0.5931
10876TIP3    H232586   5.284   0.432   3.659 -0.3177  0.3505  2.4179
10877TIP3   OH232587   8.063   3.338   3.095 -0.0745  0.6761  0.1623
10877TIP3    H132588   7.993   3.396   3.064 -1.2139 -0.7015  0.0896
10877TIP3    H232589   8.098   3.383   3.172  0.6544  2.5811 -1.1866
10878TIP3   OH232590   4.699   0.016   1.798 -0.0359 -0.1710 -0.4448
10878TIP3    H132591   4.674  -0.072   1.828  1.6116 -0.5460 -0.0319
10878TIP3    H232592   4.617   0.065   1.794 -0.7757 -1.2112  1.0723
10879TIP3   OH232593   0.534   4.627   2.027 -0.3870  0.2083 -0.5645
10879TIP3    H132594   0.614   4.658   2.070  0.2280  0.1078 -1.5950
10879TIP3    H232595   0.558   4.619   1.935 -1.2713 -0.8721 -0.7271
10880TIP3   OH232596   0.319   1.554   2.533 -0.0791  0.4014  0.5990
10880TIP3    H132597   0.403   1.553   2.487 -0.0155 -0.4937  0.7152
10880TIP3    H232598   0.254   1.545   2.463 -0.0417  0.3698  0.5679
10881TIP3   OH232599   1.998   2.370   3.035  0.0731  0.5163  0.0904
10881TIP3    H132600   1.903   2.361   3.042  0.1764  0.1162  1.0141
10881TIP3    H232601   2.010   2.433   2.963 -0.9207  1.7110  0.9251
10882TIP3   OH232602   2.323   0.808   3.513  0.1125 -0.5253 -0.1328
10882TIP3    H132603   2.350   0.742   3.449  0.6149  0.2139 -0.7046
10882TIP3    H232604   2.243   0.846   3.477  0.0455 -0.5413 -0.0025
10883TIP3   OH232605   6.286   5.557   1.448  0.5037  0.4389 -0.1397
10883TIP3    H132606   6.228   5.496   1.403 -0.8881  1.4190  0.2351
10883TIP3    H232607   6.295   5.631   1.387  0.8335  0.5767  0.0733
10884TIP3   OH232608   6.108   6.489   6.370  0.2485  0.7773  0.0622
10884TIP3    H132609   6.027   6.527   6.403  0.1819 -0.9460  2.0732
10884TIP3    H232610   6.165   6.483   6.446  1.4139 -0.1928 -0.8375
10885TIP3   OH232611   6.313   7.133   0.146  0.4568  0.2985 -0.0172
10885TIP3    H132612   6.260   7.079   0.088  0.8785 -0.6460  0.4511
10885TIP3    H232613   6.397   7.143   0.101  0.5996  0.0174  0.1834
10886TIP3   OH232614   1.783   4.531   2.578 -0.5219 -0.2361  0.0709
10886TIP3    H132615   1.857   4.570   2.624  2.0770 -2.3692 -1.9465
10886TIP3    H232616   1.720   4.511   2.647  0.1291  2.8009  1.7332
10887TIP3   OH232617   7.310   4.950   6.602  0.3617  0.1935  0.2424
10887TIP3    H132618   7.288   5.041   6.580 -0.4180  0.1514  0.8129
10887TIP3    H232619   7.280   4.899   6.527 -0.2804  0.2837  0.4358
10888TIP3   OH232620   4.790   1.755   5.070  0.3593  0.0217 -0.0268
10888TIP3    H132621   4.759   1.667   5.093  0.5426  0.3014  1.4147
10888TIP3    H232622   4.870   1.740   5.019 -0.6259 -0.6613 -1.4069
10889TIP3   OH232623   6.820   4.240   4.035 -0.4617  0.1783 -0.3720
10889TIP3    H132624   6.841   4.325   3.996  0.6455  0.6449  1.1524
10889TIP3    H232625   6.726   4.231   4.023 -0.9801  2.5803  1.1813
10890TIP3   OH232626   5.285   0.170   5.379 -0.2658 -0.2597 -0.1551
10890TIP3    H132627   5.301   0.176   5.473 -0.0389 -1.4667 -0.0993
10890TIP3    H232628   5.221   0.099   5.370  0.0113 -0.4240 -0.9325
10891TIP3   OH232629   3.643   7.276   3.952  0.1106 -0.2018  0.2984
10891TIP3    H132630   3.726   7.323   3.963  0.5053 -1.1136  1.3231
10891TIP3    H232631   3.668   7.185   3.937 -0.6982 -0.4761  0.5633
10892TIP3   OH232632   4.813   1.223   5.162 -0.2551  0.0365 -0.3266
10892TIP3    H132633   4.878   1.198   5.227 -1.4008  1.6212  1.5192
10892TIP3    H232634   4.864   1.242   5.083  1.2470 -1.1490  0.3073
10893TIP3   OH232635   1.591   6.076   5.976  0.1306 -0.4063  0.0455
10893TIP3    H132636   1.650   6.067   5.901 -1.2010 -2.0835 -0.8748
10893TIP3    H232637   1.552   5.989   5.986  1.8939 -0.9860  4.1256
10894TIP3   OH232638   5.109   0.182   5.056 -0.0815  0.6083 -0.6309
10894TIP3    H132639   5.141   0.114   4.996  0.2674  1.1806 -1.1063
10894TIP3    H232640   5.031   0.144   5.096 -0.5591  0.3730 -1.7594
10895TIP3   OH232641   6.536   1.587   4.123  0.7262  0.1767 -0.5317
10895TIP3    H132642   6.479   1.616   4.051 -0.2289  0.5421  0.3568
10895TIP3    H232643   6.493   1.508   4.157  0.0974  1.0885  0.8753
10896TIP3   OH232644   2.144   4.385   1.997  0.2228 -0.3883 -0.3819
10896TIP3    H132645   2.059   4.342   1.991 -0.1389 -0.0229  1.6641
10896TIP3    H232646   2.203   4.317   2.028  0.4132 -0.3033 -0.5552
10897TIP3   OH232647   7.024   2.871   6.778  0.0601 -0.0934  0.6623
10897TIP3    H132648   7.014   2.842   6.688 -0.0399 -0.0982  0.6747
10897TIP3    H232649   7.111   2.841   6.805  1.5983  2.8057 -0.5466
10898TIP3   OH232650   0.969   3.106   4.459  0.0409  0.3776 -0.1018
10898TIP3    H132651   0.980   3.123   4.553  1.2722 -1.1993  0.0619
10898TIP3    H232652   1.050   3.063   4.432 -0.8457 -0.4390 -1.5978
10899TIP3   OH232653   4.277   5.786   6.162  0.3009 -0.4446  0.0441
10899TIP3    H132654   4.303   5.712   6.107  2.6239 -0.4788  1.0425
10899TIP3    H232655   4.284   5.862   6.105  1.3778 -0.6299 -0.0939
10900TIP3   OH232656   0.707   3.956   3.945 -0.5596 -0.4538  0.4151
10900TIP3    H132657   0.761   3.890   3.901 -2.5405 -1.8406 -0.0817
10900TIP3    H232658   0.708   4.031   3.885  1.8840  0.1246  1.0817
10901TIP3   OH232659   6.863   0.859   5.009 -0.3412 -0.1068 -0.1151
10901TIP3    H132660   6.944   0.831   4.967 -0.0885 -0.1521  0.3931
10901TIP3    H232661   6.815   0.778   5.026 -0.7833 -0.0357 -0.9853
10902TIP3   OH232662   0.076   0.829   0.181 -0.0855 -0.0373 -0.4879
10902TIP3    H132663   0.126   0.848   0.102 -0.7613  0.4605 -0.8091
10902TIP3    H232664   0.120   0.754   0.221 -0.0507 -0.6251 -1.6114
10903TIP3   OH232665   0.827   0.747   6.219  0.8776 -0.8027  0.2488
10903TIP3    H132666   0.743   0.710   6.244  0.6080 -0.8655 -0.7100
10903TIP3    H232667   0.841   0.819   6.280 -0.5344  0.0954 -0.4275
10904TIP3   OH232668   3.355   1.911   2.257 -0.0549  0.1220  0.1262
10904TIP3    H132669   3.335   1.974   2.327 -0.6353 -0.3885  0.4390
10904TIP3    H232670   3.333   1.826   2.296 -1.5000 -0.0819 -1.0711
10905TIP3   OH232671   7.420   7.316   6.348 -0.2775 -0.0785 -0.1306
10905TIP3    H132672   7.467   7.393   6.315 -0.8984  0.6341  0.5817
10905TIP3    H232673   7.409   7.334   6.441  0.0486 -1.3058  0.1665
10906TIP3   OH232674   7.018   5.192   4.590 -0.2576 -0.0133 -0.3025
10906TIP3    H132675   7.074   5.183   4.513 -1.9047 -0.7926 -1.4756
10906TIP3    H232676   6.956   5.119   4.583 -0.6023  0.0421  1.6414
10907TIP3   OH232677   7.563   3.865   6.286  0.4306  0.0259 -0.3365
10907TIP3    H132678   7.507   3.920   6.340  1.1853  0.0530  0.4368
10907TIP3    H232679   7.597   3.924   6.219 -1.3891 -0.2477 -1.5762
10908TIP3   OH232680   7.965   1.262   1.164  0.4024  0.3415 -0.7516
10908TIP3    H132681   8.045   1.209   1.157  0.1950 -0.1366  0.2986
10908TIP3    H232682   7.936   1.250   1.255 -0.6069  0.8852 -0.9877
10909TIP3   OH232683   3.107   5.272   2.993  0.6314  0.6724  0.2454
10909TIP3    H132684   3.197   5.240   2.994  1.0328  1.7360  1.2605
10909TIP3    H232685   3.115   5.364   2.968 -0.5026  0.0285 -2.8632
10910TIP3   OH232686   5.083   7.596   3.754 -0.0269 -0.2199 -0.2775
10910TIP3    H132687   5.096   7.518   3.808  0.1111 -1.0607 -1.4751
10910TIP3    H232688   5.162   7.601   3.700 -1.4031 -1.2230 -2.5486
10911TIP3   OH232689   0.730   2.354   2.693  0.1619 -0.2048  1.1697
10911TIP3    H132690   0.783   2.425   2.660  0.4066 -0.4806  0.9638
10911TIP3    H232691   0.757   2.277   2.642  0.6760 -0.6713  2.1175
10912TIP3   OH232692   1.436   4.239   1.000  0.4611  0.0031  0.4415
10912TIP3    H132693   1.422   4.156   0.955 -0.2422  0.3967 -0.0814
10912TIP3    H232694   1.491   4.216   1.075  0.7509 -0.8361 -0.0097
10913TIP3   OH232695   6.037   2.987   1.706 -0.0623  0.1049  0.0664
10913TIP3    H132696   6.037   2.892   1.709  2.2404  0.0710  1.0797
10913TIP3    H232697   6.129   3.012   1.721 -0.6548  2.4836  0.2070
10914TIP3   OH232698   2.772   3.978   2.483 -0.2665 -0.0321 -0.5604
10914TIP3    H132699   2.826   4.051   2.453 -0.4504  1.0763  1.6182
10914TIP3    H232700   2.750   3.930   2.403  2.1954  0.6514 -1.7489
10915TIP3   OH232701   1.489   3.940   5.346 -0.1179 -0.1340 -0.4496
10915TIP3    H132702   1.452   3.979   5.267  0.1776  1.0642 -0.0139
10915TIP3    H232703   1.421   3.880   5.377 -1.4507  1.5279 -0.0323
10916TIP3   OH232704   7.197   0.469   1.950 -0.0310  0.2059  0.4179
10916TIP3    H132705   7.122   0.526   1.937 -1.1959 -1.5044 -0.9062
10916TIP3    H232706   7.213   0.430   1.864  1.0372 -1.0316  1.1325
10917TIP3   OH232707   6.566   5.698   3.418 -0.0588  0.4651  0.2103
10917TIP3    H132708   6.519   5.673   3.338  1.2376 -0.9050 -0.1540
10917TIP3    H232709   6.501   5.693   3.487 -0.7862  0.0053 -0.4984
10918TIP3   OH232710   5.526   5.307   2.113 -0.0315 -0.0687  0.6341
10918TIP3    H132711   5.536   5.236   2.177  0.1870  0.0547  0.7369
10918TIP3    H232712   5.498   5.382   2.165  1.7872  0.4949  0.8498
10919TIP3   OH232713   4.157   2.196   1.182 -0.2512  0.4385  0.1503
10919TIP3    H132714   4.212   2.265   1.146 -0.6177  0.6466 -0.0266
10919TIP3    H232715   4.132   2.228   1.269 -1.2600  1.0216 -0.3273
10920TIP3   OH232716   6.192   3.511   5.791 -0.0110  0.0466 -0.3817
10920TIP3    H132717   6.226   3.594   5.825 -1.4886  1.3781 -1.9656
10920TIP3    H232718   6.235   3.444   5.844  2.6197  1.7135 -0.2280
10921TIP3   OH232719   3.185   7.761   6.299  0.2494  0.1306 -0.4497
10921TIP3    H132720   3.181   7.853   6.275  1.4450  0.0878 -0.9115
10921TIP3    H232721   3.251   7.756   6.368 -2.8194  0.1783  2.7378
10922TIP3   OH232722   6.506   7.294   0.728  0.0731 -0.1946  0.0526
10922TIP3    H132723   6.419   7.290   0.766  0.7483 -0.8154  1.6229
10922TIP3    H232724   6.554   7.354   0.784  0.8186 -0.3221 -0.4336
10923TIP3   OH232725   7.122   4.869   0.662 -0.3462  0.5508  0.5602
10923TIP3    H132726   7.092   4.925   0.734  0.4502  2.7349 -0.7019
10923TIP3    H232727   7.115   4.780   0.696 -1.1593  1.4303  2.8812
10924TIP3   OH232728   4.672   6.383   1.268 -0.5001 -0.2366  0.6877
10924TIP3    H132729   4.670   6.457   1.329 -2.3597 -0.3181  0.7946
10924TIP3    H232730   4.614   6.409   1.197  0.6176 -0.6881 -0.4114
10925TIP3   OH232731   5.236   5.861   0.881 -0.6494 -0.4017 -0.3926
10925TIP3    H132732   5.328   5.871   0.907 -0.6158 -1.4287 -0.0724
10925TIP3    H232733   5.223   5.928   0.814  0.1028  0.2950  0.1387
10926TIP3   OH232734   6.282   3.277   6.440  0.4957  0.3498 -0.5038
10926TIP3    H132735   6.300   3.191   6.478  0.0018  0.0613 -0.9080
10926TIP3    H232736   6.297   3.339   6.512  0.5022 -0.1071 -0.1076
10927TIP3   OH232737   4.720   3.352   1.862 -0.4067 -0.2149  0.2995
10927TIP3    H132738   4.693   3.307   1.942  1.2317 -0.3879  0.7961
10927TIP3    H232739   4.725   3.445   1.888 -0.1779 -0.2314  0.3180
10928TIP3   OH232740   3.695   2.571   6.619 -0.1466 -0.2589  0.2586
10928TIP3    H132741   3.739   2.494   6.582  1.9799  1.1109 -0.2837
10928TIP3    H232742   3.619   2.586   6.563  0.2358 -1.1317 -0.5132
10929TIP3   OH232743   4.887   0.575   4.207  0.2253  0.2817 -0.1635
10929TIP3    H132744   4.876   0.543   4.296  0.4264  0.6530 -0.0038
10929TIP3    H232745   4.953   0.644   4.214  0.5142  0.0607 -0.6557
10930TIP3   OH232746   1.467   7.840   3.115  0.7173 -0.4747 -0.0684
10930TIP3    H132747   1.377   7.809   3.118  0.6454 -0.2865 -0.2164
10930TIP3    H232748   1.516   7.770   3.072  0.9230 -1.2292  1.3540
10931TIP3   OH232749   4.063   4.881   2.460  0.0661 -0.8471 -0.3184
10931TIP3    H132750   4.032   4.945   2.524  0.8198  0.1210 -0.8794
10931TIP3    H232751   4.150   4.913   2.435 -0.0414 -1.4292 -1.4977
10932TIP3   OH232752   3.508   0.797   2.581  0.0317  0.1700 -0.5174
10932TIP3    H132753   3.550   0.724   2.627  0.5478  0.9658  0.3172
10932TIP3    H232754   3.512   0.773   2.489  1.0699 -0.4154 -0.3378
10933TIP3   OH232755   2.224   2.132   4.999 -0.0299  0.3758 -0.1093
10933TIP3    H132756   2.221   2.040   4.973 -1.8027  0.3760 -0.0380
10933TIP3    H232757   2.234   2.130   5.094  0.3475  0.2616 -0.1523
10934TIP3   OH232758   5.651   3.053   2.638 -0.2167  0.1087 -0.0156
10934TIP3    H132759   5.694   2.972   2.666 -0.4630 -0.1697 -0.4426
10934TIP3    H232760   5.699   3.122   2.684  0.3553 -0.2366 -0.0844
10935TIP3   OH232761   1.664   0.486   1.620 -0.8840  0.0642  0.0435
10935TIP3    H132762   1.731   0.531   1.672 -1.2215 -0.7291  1.2023
10935TIP3    H232763   1.711   0.451   1.545 -0.1368  0.1042  0.4886
10936TIP3   OH232764   2.948   3.744   3.977 -0.1931  0.0673  0.2120
10936TIP3    H132765   2.959   3.739   4.072 -1.2223  0.1363  0.3514
10936TIP3    H232766   2.868   3.795   3.965  1.9871  3.5553 -0.8052
10937TIP3   OH232767   5.126   4.229   3.329 -0.3015 -0.4844  0.1915
10937TIP3    H132768   5.062   4.161   3.351  0.9241 -2.3857 -1.8864
10937TIP3    H232769   5.121   4.237   3.234  1.6349  0.2788  0.1251
10938TIP3   OH232770   7.959   1.186   2.767  0.3085 -0.0656 -0.0509
10938TIP3    H132771   8.018   1.260   2.753 -1.2422  1.1726 -0.4204
10938TIP3    H232772   7.886   1.223   2.818 -0.3435 -1.4378  0.0692
10939TIP3   OH232773   2.403   2.946   0.005 -0.0771 -0.2370  0.1987
10939TIP3    H132774   2.425   2.877  -0.058 -0.3484 -2.3683  2.2937
10939TIP3    H232775   2.371   2.899   0.082 -1.2416  2.3049  1.3898
10940TIP3   OH232776   6.790   1.486   5.612  0.0288 -0.0145 -0.3348
10940TIP3    H132777   6.794   1.570   5.656  1.5359  0.0396 -0.5236
10940TIP3    H232778   6.705   1.485   5.569 -0.2850  1.1164  0.2382
10941TIP3   OH232779   2.588   4.265   6.153 -0.3058 -0.2206  0.4170
10941TIP3    H132780   2.597   4.240   6.061 -0.8546 -0.0314  0.3088
10941TIP3    H232781   2.519   4.209   6.187 -0.9099  0.4962  0.4089
10942TIP3   OH232782   7.930   1.712   4.551  0.3307  0.0219  0.1265
10942TIP3    H132783   7.878   1.712   4.632 -0.7025  1.5921 -0.4963
10942TIP3    H232784   7.865   1.713   4.481  1.2112  0.6383 -0.6979
10943TIP3   OH232785   4.145   1.743   4.892  0.8487 -0.3969 -0.1179
10943TIP3    H132786   4.118   1.656   4.922  1.1729 -0.3961  0.1803
10943TIP3    H232787   4.063   1.792   4.882  0.7300 -0.4209  0.7008
10944TIP3   OH232788   0.133   4.191   4.115  0.7064  0.4295  0.0935
10944TIP3    H132789   0.089   4.152   4.040 -0.5718  1.0260  0.5100
10944TIP3    H232790   0.094   4.278   4.124 -0.9351 -0.4357  2.8391
10945TIP3   OH232791   7.239   3.275   6.279 -0.0232 -0.5356 -0.3176
10945TIP3    H132792   7.289   3.350   6.249  0.5376 -1.2454 -1.1993
10945TIP3    H232793   7.197   3.241   6.200 -3.4219  1.0747  0.6080
10946TIP3   OH232794   5.412   0.444   6.621 -0.2375 -0.7583 -0.5044
10946TIP3    H132795   5.500   0.437   6.583  0.7826  1.4617  1.2010
10946TIP3    H232796   5.363   0.495   6.557 -0.8411 -3.2518 -2.1759
10947TIP3   OH232797   2.051   0.268   4.119 -0.2417 -0.0183  0.4156
10947TIP3    H132798   2.129   0.212   4.118 -1.7382 -2.2691  0.4003
10947TIP3    H232799   2.048   0.304   4.208  0.9771  0.3712  0.3102
10948TIP3   OH232800   2.348   3.599   0.952  0.0115  0.6809 -0.1165
10948TIP3    H132801   2.368   3.654   1.029 -2.1492  0.3627  0.7427
10948TIP3    H232802   2.267   3.635   0.918  0.0849 -0.2194 -1.2875
10949TIP3   OH232803   6.948   6.197   4.176 -0.1002 -0.0321 -0.7521
10949TIP3    H132804   6.864   6.232   4.147 -0.6816  1.6791  2.4967
10949TIP3    H232805   7.009   6.270   4.168  0.3058 -0.3020 -0.1737
10950TIP3   OH232806   2.710   7.575   6.588 -0.6235  0.3929  0.3027
10950TIP3    H132807   2.666   7.541   6.666 -0.4559  0.5976  0.4869
10950TIP3    H232808   2.711   7.670   6.600 -1.4244  0.4959 -0.3890
10951TIP3   OH232809   1.464   6.420   4.297  0.6063 -0.3228  0.1297
10951TIP3    H132810   1.526   6.462   4.237 -1.1923  1.3586 -0.6432
10951TIP3    H232811   1.467   6.327   4.271  0.5052  0.2154 -2.0534
10952TIP3   OH232812   1.386   0.839   1.719 -0.2049 -0.5258 -0.0071
10952TIP3    H132813   1.395   0.784   1.797 -0.6111  0.8264  1.0310
10952TIP3    H232814   1.411   0.782   1.646 -0.5107 -2.0412  1.0328
10953TIP3   OH232815   1.885   7.197   2.740  0.0144 -0.0860 -0.3353
10953TIP3    H132816   1.968   7.216   2.783  0.1916  0.1798 -0.7789
10953TIP3    H232817   1.854   7.283   2.708 -0.4945 -0.1631 -0.0621
10954TIP3   OH232818   4.028   6.728   3.837  0.5278 -0.1057  0.6768
10954TIP3    H132819   4.085   6.667   3.885  0.0428 -1.1107  0.0232
10954TIP3    H232820   4.029   6.808   3.889  2.5247 -0.0970  0.6843
10955TIP3   OH232821   8.068   2.465   0.109 -0.1391 -0.2406  0.0803
10955TIP3    H132822   7.975   2.467   0.129  0.3336 -0.1354  2.5488
10955TIP3    H232823   8.074   2.415   0.028 -2.4940  1.6451 -1.3757
10956TIP3   OH232824   4.018   6.831   5.449 -0.0025  0.0828 -0.5845
10956TIP3    H132825   4.019   6.784   5.532 -0.0258  1.2544  0.0967
10956TIP3    H232826   4.064   6.773   5.388  1.5744 -0.0489  0.6614
10957TIP3   OH232827   3.610   7.116   6.259 -0.2519 -0.3011 -0.2505
10957TIP3    H132828   3.518   7.098   6.238 -0.4693 -0.4833  0.8160
10957TIP3    H232829   3.637   7.181   6.195 -1.4269  0.5244  0.0707
10958TIP3   OH232830   1.101   6.579   5.833  0.8769  0.1126  0.0812
10958TIP3    H132831   1.024   6.542   5.875  0.7377  1.1967  0.7916
10958TIP3    H232832   1.127   6.512   5.769 -0.7439 -0.1904 -0.3016
10959TIP3   OH232833   3.361   3.983   3.593 -0.2284 -0.3649 -0.2994
10959TIP3    H132834   3.353   3.895   3.555  1.7913 -1.0430  0.7314
10959TIP3    H232835   3.314   4.039   3.531  2.8261 -1.3665 -3.9449
10960TIP3   OH232836   4.936   5.069   2.120 -0.2448 -0.2212 -0.1780
10960TIP3    H132837   4.901   5.071   2.210  2.0495  1.6120  0.7682
10960TIP3    H232838   4.928   4.977   2.094 -1.2568 -0.7487  1.7828
10961TIP3   OH232839   6.996   4.515   6.745  0.2610  0.1817  0.0660
10961TIP3    H132840   7.037   4.593   6.706 -0.6420  0.9080  0.5072
10961TIP3    H232841   7.069   4.459   6.770  0.9106  0.3468 -1.3343
10962TIP3   OH232842   2.592   3.701   0.791  0.2862 -0.1866 -0.4278
10962TIP3    H132843   2.599   3.726   0.884  1.1484 -1.1326 -0.2200
10962TIP3    H232844   2.508   3.656   0.785 -0.2134  0.7234 -0.3119
10963TIP3   OH232845   6.537   4.325   0.296  0.4564  0.3119  0.1037
10963TIP3    H132846   6.477   4.325   0.221 -1.4057 -1.1892  1.4645
10963TIP3    H232847   6.498   4.387   0.357 -0.1450 -1.1419  1.2631
10964TIP3   OH232848   1.428   4.715   2.553  0.2881 -0.4560  0.7730
10964TIP3    H132849   1.464   4.630   2.580 -2.5037 -1.6341  1.1801
10964TIP3    H232850   1.339   4.715   2.587  0.2145  2.7677  0.9246
10965TIP3   OH232851   2.857   7.670   5.666 -0.2342 -0.4607 -0.1624
10965TIP3    H132852   2.848   7.685   5.760 -0.5481 -0.9519 -0.1115
10965TIP3    H232853   2.877   7.757   5.630 -3.0458  0.3449 -0.0074
10966TIP3   OH232854   4.388   0.271   5.197 -0.0060 -0.5978 -0.0529
10966TIP3    H132855   4.322   0.283   5.129  0.7575  0.6977 -0.6193
10966TIP3    H232856   4.394   0.177   5.209 -2.0505 -0.7451  0.1329
10967TIP3   OH232857   4.898   0.149   5.388 -0.0992  0.3274 -0.2624
10967TIP3    H132858   4.817   0.114   5.351 -0.5472  0.7910  0.2492
10967TIP3    H232859   4.961   0.078   5.382 -0.9768 -0.5635  0.7150
10968TIP3   OH232860   4.611   0.970   2.718  0.4142  0.3136 -0.1700
10968TIP3    H132861   4.680   1.036   2.719  3.7870 -2.8138 -1.3106
10968TIP3    H232862   4.573   0.975   2.630  0.3007  1.0169 -0.0832
10969TIP3   OH232863   1.376   1.105   4.062 -0.1221 -0.0036 -0.1826
10969TIP3    H132864   1.327   1.051   4.000  0.3447  0.0668 -0.6255
10969TIP3    H232865   1.468   1.086   4.044  0.0237  0.0926  0.4288
10970TIP3   OH232866   1.366   4.517   2.171  0.2178 -0.1539 -0.0070
10970TIP3    H132867   1.455   4.481   2.168 -0.3396 -1.5386 -0.6754
10970TIP3    H232868   1.317   4.457   2.227 -0.2862  0.6637  0.4537
10971TIP3   OH232869   7.445   4.924   2.810  0.0135  0.7439  0.4455
10971TIP3    H132870   7.432   4.896   2.900 -2.8390 -0.6027 -0.2586
10971TIP3    H232871   7.387   5.000   2.800 -0.5310  0.2301 -0.4743
10972TIP3   OH232872   3.511   4.756   6.552 -0.0472 -0.4593  0.3031
10972TIP3    H132873   3.521   4.670   6.510 -0.1208  0.1058 -0.8923
10972TIP3    H232874   3.455   4.738   6.628 -1.0210 -1.2969 -0.5695
10973TIP3   OH232875   5.890   6.678   5.337  0.6286  0.4985 -0.0283
10973TIP3    H132876   5.867   6.617   5.407  1.0298 -1.3668 -1.4535
10973TIP3    H232877   5.820   6.743   5.338 -1.8075 -1.9028 -0.6477
10974TIP3   OH232878   2.847   2.341   2.719  0.5097  0.1393  0.0051
10974TIP3    H132879   2.853   2.430   2.753  1.2690  0.4797 -0.9722
10974TIP3    H232880   2.770   2.343   2.662 -1.3048 -0.6655  2.2633
10975TIP3   OH232881   6.608   5.102   2.735 -0.6158  0.0882 -0.4298
10975TIP3    H132882   6.532   5.045   2.726 -0.4250  0.0559 -2.2411
10975TIP3    H232883   6.682   5.043   2.744 -0.6932  0.0977  0.2602
10976TIP3   OH232884   0.666   6.621   0.982 -0.0503  0.0779  0.1375
10976TIP3    H132885   0.752   6.661   0.995  0.2307  0.2494 -1.8610
10976TIP3    H232886   0.607   6.673   1.037  0.9496  0.6293  0.7200
10977TIP3   OH232887   3.840   4.865   0.865 -0.0028  0.0018 -0.4999
10977TIP3    H132888   3.847   4.921   0.943  3.8615  0.0674 -0.7090
10977TIP3    H232889   3.819   4.778   0.900  1.3077  0.1069  0.6459
10978TIP3   OH232890   6.682   7.023   0.503 -0.4925 -0.0191  0.0768
10978TIP3    H132891   6.707   6.933   0.524  1.4421  0.4454 -0.0885
10978TIP3    H232892   6.672   7.065   0.588 -1.9279 -0.4962  0.1677
10979TIP3   OH232893   4.407   6.388   1.087 -0.1243 -0.1426 -0.3641
10979TIP3    H132894   4.457   6.467   1.067 -0.3391  0.1148  0.0948
10979TIP3    H232895   4.327   6.397   1.036 -0.7010  0.5446  0.6299
10980TIP3   OH232896   4.449   6.044   3.081 -0.0599 -0.6502 -0.5162
10980TIP3    H132897   4.446   6.045   2.985 -0.1601 -2.1232 -0.5425
10980TIP3    H232898   4.357   6.051   3.108 -0.0074  0.1331 -0.4990
10981TIP3   OH232899   5.817   4.748   2.566 -0.7737 -0.0170  0.2367
10981TIP3    H132900   5.891   4.805   2.543 -0.0060  0.6620  3.8102
10981TIP3    H232901   5.742   4.788   2.522  0.5082  0.9093 -1.2165
10982TIP3   OH232902   6.695   6.638   6.166  0.5308 -0.2411 -0.4331
10982TIP3    H132903   6.776   6.653   6.118  0.6882 -2.5023 -0.9828
10982TIP3    H232904   6.707   6.552   6.207 -1.3613 -0.3595 -0.0518
10983TIP3   OH232905   7.224   5.778   5.619  0.0640  0.4215  1.3231
10983TIP3    H132906   7.141   5.732   5.634 -0.1485  0.8380  1.4419
10983TIP3    H232907   7.213   5.820   5.534 -0.5053  1.8577  2.0599
10984TIP3   OH232908   8.194   0.806   6.061 -0.6204  0.5763  0.0685
10984TIP3    H132909   8.165   0.796   5.971  0.1296 -1.8770  0.0239
10984TIP3    H232910   8.284   0.839   6.055 -0.7925  1.0304 -0.0428
10985TIP3   OH232911   1.382   7.699   3.501  0.6205 -0.0142  0.2061
10985TIP3    H132912   1.348   7.610   3.505 -0.1057  0.2482  0.0613
10985TIP3    H232913   1.445   7.705   3.573  0.5420 -0.5853  0.3208
10986TIP3   OH232914   8.153   6.113   6.203  0.5732  0.4674  0.1510
10986TIP3    H132915   8.169   6.102   6.109 -2.0529  0.3549 -0.3516
10986TIP3    H232916   8.155   6.208   6.217  0.3912  0.5175 -0.1503
10987TIP3   OH232917   6.129   2.931   5.141 -0.0147 -0.6904 -0.2651
10987TIP3    H132918   6.069   2.938   5.215 -0.1903 -1.1782 -0.3554
10987TIP3    H232919   6.073   2.911   5.066  0.2668 -1.2814 -0.3252
10988TIP3   OH232920   2.392   6.651   4.448 -0.5691  0.3139  0.1624
10988TIP3    H132921   2.398   6.571   4.397 -0.2138  0.1116  0.5116
10988TIP3    H232922   2.436   6.630   4.531 -2.8971 -0.0324  1.3822
10989TIP3   OH232923   2.642   2.014   1.535 -0.5971 -0.1061 -0.0350
10989TIP3    H132924   2.615   2.106   1.527  0.5174  0.1589 -0.9759
10989TIP3    H232925   2.696   2.012   1.614  0.3032  0.3072 -0.6187
10990TIP3   OH232926   3.822   3.630   1.090  0.0684  0.0105  0.3320
10990TIP3    H132927   3.887   3.660   1.154 -0.2697  0.2143  0.5827
10990TIP3    H232928   3.798   3.542   1.121 -0.0211  0.0683  0.4257
10991TIP3   OH232929   3.502   5.933   3.465  0.1931 -0.3599  0.0005
10991TIP3    H132930   3.579   5.957   3.413 -0.2536  0.0208 -0.5056
10991TIP3    H232931   3.535   5.871   3.530  1.0639  0.3552  0.2630
10992TIP3   OH232932   7.245   3.272   3.777 -0.0604 -0.1093 -0.1942
10992TIP3    H132933   7.287   3.343   3.825 -1.0553  0.2617  0.1635
10992TIP3    H232934   7.297   3.262   3.697  0.0331  1.0941 -0.2947
10993TIP3   OH232935   2.496   4.853   1.732  0.7004 -0.3672 -0.4802
10993TIP3    H132936   2.498   4.946   1.753  1.9314 -0.3441 -0.6416
10993TIP3    H232937   2.461   4.811   1.811  1.3499  0.1132  0.0771
10994TIP3   OH232938   1.439   3.763   1.577  0.4284 -0.4984  0.0033
10994TIP3    H132939   1.523   3.805   1.557 -0.1008 -0.2358 -1.8478
10994TIP3    H232940   1.459   3.669   1.575  0.9208 -0.4267  0.8578
10995TIP3   OH232941   6.765   4.088   6.320 -0.0911  0.8821 -0.7042
10995TIP3    H132942   6.845   4.140   6.315 -1.0466  2.7407  1.5914
10995TIP3    H232943   6.715   4.113   6.242  1.0027  0.5986 -1.5237
10996TIP3   OH232944   3.162   7.210   6.334 -0.0283  0.0622  0.0699
10996TIP3    H132945   3.158   7.304   6.316 -1.3755  0.0517  0.2055
10996TIP3    H232946   3.224   7.202   6.407 -1.5797  1.1080  1.5545
10997TIP3   OH232947   0.767   7.776   2.874 -0.1145  0.1765  0.1135
10997TIP3    H132948   0.717   7.722   2.935  1.5926 -0.5260  0.9740
10997TIP3    H232949   0.804   7.714   2.812 -0.0220  0.6362 -0.3006
10998TIP3   OH232950   2.318   5.340   4.616  0.6711  0.0632  0.2506
10998TIP3    H132951   2.380   5.280   4.575  1.4780  1.4886 -0.6758
10998TIP3    H232952   2.344   5.427   4.586 -0.8877  0.8382  1.0081
10999TIP3   OH232953   4.715   5.350   6.139  0.0708 -0.4385  0.0039
10999TIP3    H132954   4.774   5.328   6.067  0.6475  0.2954  0.2378
10999TIP3    H232955   4.652   5.411   6.101  0.4387  0.0309  0.1364
11000TIP3   OH232956   3.487   3.976   5.389 -0.0998 -0.1083  0.1160
11000TIP3    H132957   3.399   3.966   5.425  0.7463  0.3814  2.4357
11000TIP3    H232958   3.530   4.039   5.446  2.0100 -0.8639 -0.5416
11001TIP3   OH232959   4.765   0.569   3.419  0.2168  0.2772 -0.0240
11001TIP3    H132960   4.796   0.574   3.328 -1.0038 -1.8247 -0.6350
11001TIP3    H232961   4.842   0.592   3.471  1.8792 -1.3739 -1.5515
11002TIP3   OH232962   3.256   4.486   5.392 -0.5910  0.3057 -0.0081
11002TIP3    H132963   3.211   4.569   5.374 -1.0524  0.1925  0.6151
11002TIP3    H232964   3.240   4.434   5.314  0.4611  1.1089 -0.8040
11003TIP3   OH232965   5.647   2.985   5.716  0.2186 -0.0916 -0.7782
11003TIP3    H132966   5.647   2.973   5.621  1.7162 -2.5862 -0.5414
11003TIP3    H232967   5.638   2.896   5.752  0.4170  0.7104  1.4147
11004TIP3   OH232968   0.804   2.237   5.956  0.4950 -0.2710 -0.0817
11004TIP3    H132969   0.796   2.332   5.963  0.3110 -0.3506  0.9823
11004TIP3    H232970   0.898   2.221   5.955  0.5281 -0.0485 -0.7749
11005TIP3   OH232971   2.039   0.998   0.886  0.2917  0.2602  0.4415
11005TIP3    H132972   2.129   0.985   0.856  0.8230 -0.4500  2.1880
11005TIP3    H232973   1.997   0.913   0.874 -0.1897  0.6195 -0.4680
11006TIP3   OH232974   2.029   4.227   2.346 -0.3835  0.2434  0.8390
11006TIP3    H132975   1.989   4.280   2.278  0.1593  1.2521  1.2843
11006TIP3    H232976   2.055   4.146   2.302 -0.9243  0.4756  0.0779
11007TIP3   OH232977   0.716   2.787   4.408  0.4231 -0.3331  0.5729
11007TIP3    H132978   0.750   2.729   4.476 -0.6440 -1.1099  0.4665
11007TIP3    H232979   0.729   2.875   4.443 -0.8109 -0.7347  2.1543
11008TIP3   OH232980   4.596   2.469   2.928 -0.3191 -0.6062 -0.6449
11008TIP3    H132981   4.530   2.400   2.916  0.9866 -1.8139 -1.2112
11008TIP3    H232982   4.645   2.470   2.845 -0.5733  1.3345 -0.8196
11009TIP3   OH232983   4.570   7.084   6.117  0.1582 -0.2539 -0.2870
11009TIP3    H132984   4.577   7.141   6.193  0.2606 -2.3660  1.3781
11009TIP3    H232985   4.512   7.013   6.145 -2.2577  0.3498 -3.1632
11010TIP3   OH232986   3.136   3.804   6.064  0.1985  0.8684 -0.5354
11010TIP3    H132987   3.177   3.717   6.071  0.8373  1.1963 -0.1478
11010TIP3    H232988   3.155   3.831   5.974 -0.2761  0.4837 -0.7618
11011TIP3   OH232989   1.668   4.558   6.680  0.0529 -0.0104  0.2624
11011TIP3    H132990   1.680   4.463   6.681 -0.4598 -0.0762  0.9750
11011TIP3    H232991   1.742   4.591   6.732  0.2373 -0.0140  0.0052
11012TIP3   OH232992   3.751   2.399   0.339 -0.2062  0.2616 -0.6422
11012TIP3    H132993   3.817   2.366   0.400  0.5277  1.3250 -0.8381
11012TIP3    H232994   3.679   2.336   0.346  0.2835 -0.2046  0.5476
11013TIP3   OH232995   8.207   5.243   0.375  0.3688  0.3935  0.2386
11013TIP3    H132996   8.280   5.215   0.319  0.6838  1.2793  0.1853
11013TIP3    H232997   8.232   5.330   0.405 -0.3426  0.4077  0.8137
11014TIP3   OH232998   0.798   3.613   3.445  0.0301  0.1590 -0.4022
11014TIP3    H132999   0.772   3.560   3.521  2.0082  0.9770  0.9026
11014TIP3    H233000   0.736   3.686   3.444 -0.6682 -0.4190 -0.2412
11015TIP3   OH233001   4.314   5.565   0.366  0.5708 -0.1841 -0.0855
11015TIP3    H133002   4.246   5.541   0.303 -0.0779 -1.5768  1.0949
11015TIP3    H233003   4.391   5.517   0.336 -0.3655 -2.8747  1.4753
11016TIP3   OH233004   5.706   2.031   6.528 -0.2300  0.5009  0.5437
11016TIP3    H133005   5.687   2.068   6.614 -0.7573  0.8889  0.2662
11016TIP3    H233006   5.720   1.938   6.544  0.3886  0.6887  1.1478
11017TIP3   OH233007   1.677   0.733   2.548 -0.0442  0.4703 -0.0653
11017TIP3    H133008   1.732   0.669   2.594 -0.7684  0.2643  0.5381
11017TIP3    H233009   1.701   0.817   2.586 -0.6884  0.2956  0.7842
11018TIP3   OH233010   4.514   6.417   5.688 -0.1569  0.5544 -0.0322
11018TIP3    H133011   4.476   6.409   5.600  0.3926 -2.6851 -0.0938
11018TIP3    H233012   4.607   6.398   5.675 -0.1340 -0.3184  1.2678
11019TIP3   OH233013   3.526   7.726   4.015 -0.0169 -0.0759 -0.5011
11019TIP3    H133014   3.580   7.723   3.935 -1.6946  2.5466 -1.8611
11019TIP3    H233015   3.558   7.803   4.062 -1.7273  0.8521 -0.7731
11020TIP3   OH233016   6.079   4.326   2.744  0.4326 -0.3425 -0.1264
11020TIP3    H133017   6.047   4.411   2.713 -0.5584 -0.6221  0.0961
11020TIP3    H233018   6.128   4.291   2.670  0.8418  0.4129 -0.2250
11021TIP3   OH233019   6.369   7.146   6.189 -0.2106 -0.5620  0.0149
11021TIP3    H133020   6.416   7.165   6.108  2.1366 -1.0757  1.1546
11021TIP3    H233021   6.437   7.117   6.250 -2.0245 -1.1862  1.8703
11022TIP3   OH233022   2.584   4.322   5.452  0.3302  0.1229 -0.1656
11022TIP3    H133023   2.663   4.269   5.447 -1.1894 -2.2321 -0.6974
11022TIP3    H233024   2.563   4.345   5.361 -1.0036 -1.5653 -0.3312
11023TIP3   OH233025   7.392   0.329   5.453  0.4029 -0.2389 -0.8036
11023TIP3    H133026   7.457   0.397   5.439  2.1537 -1.6215  0.1959
11023TIP3    H233027   7.330   0.367   5.515  2.5646 -0.2309  1.4917
11024TIP3   OH233028   5.218   4.345   4.616 -0.2024 -0.1073  0.3077
11024TIP3    H133029   5.288   4.281   4.607  0.7877  0.9042  0.5565
11024TIP3    H233030   5.261   4.430   4.602 -0.8181  0.7414  2.9346
11025TIP3   OH233031   4.326   0.627   3.288  0.1327 -0.1627 -0.3208
11025TIP3    H133032   4.336   0.534   3.310 -1.2749 -0.4099 -0.5786
11025TIP3    H233033   4.275   0.663   3.361  1.5656  0.6689  0.2960
11026TIP3   OH233034   0.732   7.566   4.368  0.0967  0.6363 -0.2274
11026TIP3    H133035   0.752   7.655   4.341 -1.4711  0.8333 -0.8790
11026TIP3    H233036   0.718   7.573   4.463  0.3523  1.0131 -0.2149
11027TIP3   OH233037   1.929   2.338   0.489 -0.3056 -0.2043 -0.4392
11027TIP3    H133038   1.889   2.331   0.402  0.1291 -3.1350 -0.4859
11027TIP3    H233039   2.014   2.379   0.473 -0.4734 -0.1654 -1.2868
11028TIP3   OH233040   4.562   6.112   1.298  0.1062 -0.0590  0.5822
11028TIP3    H133041   4.628   6.063   1.249  0.9910 -1.5414  3.0454
11028TIP3    H233042   4.573   6.203   1.271  1.8786 -0.5489 -0.4375
11029TIP3   OH233043   3.294   1.926   1.066  0.7770  0.1193  0.2024
11029TIP3    H133044   3.260   1.973   0.990  1.0677  0.1698  0.1034
11029TIP3    H233045   3.237   1.849   1.073  0.5411  0.2874  0.1358
11030TIP3   OH233046   7.049   6.818   1.329  1.0323  0.0479  0.4623
11030TIP3    H133047   7.115   6.751   1.313  0.5384 -0.4032  0.2501
11030TIP3    H233048   7.005   6.790   1.410  0.3068 -0.3193 -0.0469
11031TIP3   OH233049   7.194   3.905   6.493  0.2159  0.1543  0.4138
11031TIP3    H133050   7.178   3.813   6.514  0.3218  0.3826  1.5925
11031TIP3    H233051   7.143   3.954   6.558 -0.0558  0.9320 -0.3683
11032TIP3   OH233052   6.737   4.226   0.506  0.6762  0.2589  0.7021
11032TIP3    H133053   6.825   4.203   0.477  0.2551 -1.1472  0.4668
11032TIP3    H233054   6.690   4.247   0.426  0.6306  0.4426  0.7753
11033TIP3   OH233055   6.171   5.883   5.254 -0.0206 -0.0735  0.4501
11033TIP3    H133056   6.206   5.938   5.184  0.2198 -0.6772  0.0953
11033TIP3    H233057   6.139   5.805   5.210 -0.9039  0.0244  0.8841
11034TIP3   OH233058   8.113   6.656   2.219  0.3580 -0.1952  0.3789
11034TIP3    H133059   8.206   6.666   2.197  0.4961  0.7582  1.3105
11034TIP3    H233060   8.078   6.600   2.150  1.6575 -0.6815  0.0909
11035TIP3   OH233061   7.505   6.087   5.484 -0.0260  0.1484  0.2793
11035TIP3    H133062   7.559   6.140   5.426  0.3702  0.4725  0.9205
11035TIP3    H233063   7.451   6.150   5.531 -0.5532 -0.1320  0.0583
11036TIP3   OH233064   8.238   2.199   1.585  0.4181  0.3461 -0.1170
11036TIP3    H133065   8.153   2.228   1.619 -0.0160  0.5853 -1.3474
11036TIP3    H233066   8.218   2.161   1.500  1.5659  0.5263 -0.4863
11037TIP3   OH233067   2.188   3.943   1.852 -0.5380 -0.0029 -0.5052
11037TIP3    H133068   2.216   3.853   1.869 -1.1341 -0.0949  0.0190
11037TIP3    H233069   2.145   3.938   1.766 -2.2567 -0.6229  0.3389
11038TIP3   OH233070   3.774   4.726   5.977 -0.0253 -0.0071 -0.6315
11038TIP3    H133071   3.680   4.705   5.980 -0.2361  1.0209  0.3121
11038TIP3    H233072   3.806   4.704   6.064  0.7127 -0.7150 -1.0678
11039TIP3   OH233073   0.020   1.276   3.986  0.0392 -0.7859 -0.2931
11039TIP3    H133074  -0.024   1.316   3.911  0.1705  1.8365  0.9275
11039TIP3    H233075   0.014   1.342   4.055  1.4472 -2.4144  1.4735
11040TIP3   OH233076   5.222   1.652   3.570 -0.2835  0.1329 -0.4440
11040TIP3    H133077   5.170   1.726   3.603 -0.0853  0.0944 -0.0412
11040TIP3    H233078   5.309   1.665   3.607  0.3907  0.9129 -2.1633
11041TIP3   OH233079   4.865   1.329   0.814 -0.4388  0.0960 -0.1909
11041TIP3    H133080   4.941   1.271   0.807  0.3444  1.0859  0.0334
11041TIP3    H233081   4.799   1.288   0.757  0.4496 -0.4717 -0.8374
11042TIP3   OH233082   4.020   7.612   1.917 -0.1760  0.5213 -0.2776
11042TIP3    H133083   3.934   7.620   1.876 -0.0647  0.8372 -0.4586
11042TIP3    H233084   4.046   7.702   1.937  0.1342  0.4364 -0.2805
11043TIP3   OH233085   5.886   7.503   6.613 -0.7787 -0.1684 -0.1365
11043TIP3    H133086   5.906   7.597   6.623 -1.8376 -0.0771  1.7319
11043TIP3    H233087   5.800   7.502   6.572 -0.3974 -0.3703 -0.9530
11044TIP3   OH233088   7.874   1.547   2.536 -0.4543 -0.7714 -0.5122
11044TIP3    H133089   7.936   1.476   2.521 -0.7449 -0.6689 -2.4182
11044TIP3    H233090   7.892   1.610   2.466 -2.4133 -0.5460 -0.8643
11045TIP3   OH233091   2.989   2.970   1.285 -0.4540 -0.1920 -0.4664
11045TIP3    H133092   3.012   2.906   1.352  0.0821  0.8655  0.4028
11045TIP3    H233093   3.072   3.015   1.265 -1.0924  1.3677  0.2057
11046TIP3   OH233094   5.980   2.815   4.371  0.5260 -0.1916 -0.5769
11046TIP3    H133095   6.018   2.834   4.456  1.6173  1.5659 -1.4077
11046TIP3    H233096   5.906   2.876   4.363  0.1336 -0.6758 -0.7059
11047TIP3   OH233097   8.164   6.198   2.056  0.1571  0.5565  0.6966
11047TIP3    H133098   8.255   6.171   2.066  0.6717  1.1621 -1.6987
11047TIP3    H233099   8.167   6.294   2.055 -0.1566  0.6004 -1.4670
11048TIP3   OH233100   5.620   5.496   3.499 -0.0077  0.4663  0.2655
11048TIP3    H133101   5.615   5.555   3.424  0.6470  1.2502  0.8201
11048TIP3    H233102   5.666   5.547   3.566 -1.6220  0.2373  1.6262
11049TIP3   OH233103   6.596   4.265   3.476 -0.3420  0.3450  0.0780
11049TIP3    H133104   6.628   4.336   3.419 -0.4425  1.2414  1.1134
11049TIP3    H233105   6.541   4.309   3.540 -1.7463 -0.8919 -0.2325
11050TIP3   OH233106   3.538   3.275   4.566  0.0209  0.2844  0.1733
11050TIP3    H133107   3.531   3.202   4.627  0.9909  0.5830  0.6622
11050TIP3    H233108   3.627   3.268   4.530  0.0974  1.1728  0.1650
11051TIP3   OH233109   3.195   2.689   5.168  0.1502  0.4499  0.2208
11051TIP3    H133110   3.148   2.611   5.196  0.9674  0.2213  0.9972
11051TIP3    H233111   3.287   2.668   5.183  0.7181  0.2426 -2.7720
11052TIP3   OH233112   3.543   2.153   3.041  0.2055 -0.2177 -0.0043
11052TIP3    H133113   3.537   2.242   3.006 -0.9287  0.2355  1.2676
11052TIP3    H233114   3.546   2.164   3.136  0.8191 -1.5144  0.1459
11053TIP3   OH233115   3.999   5.541   1.726 -0.3258 -0.2809  0.7402
11053TIP3    H133116   4.078   5.488   1.725 -0.9484 -1.3403 -2.0790
11053TIP3    H233117   3.935   5.487   1.774 -0.5087 -1.4990 -0.7631
11054TIP3   OH233118   1.566   5.591   1.333 -0.2127  0.4449 -0.1030
11054TIP3    H133119   1.624   5.667   1.334 -0.2777  0.5052  1.0292
11054TIP3    H233120   1.542   5.579   1.241  1.8189  0.2380 -0.6525
11055TIP3   OH233121   2.087   3.223   0.708  0.1443  0.1255  0.0804
11055TIP3    H133122   2.096   3.138   0.664  1.3418  0.8510 -1.1337
11055TIP3    H233123   2.151   3.219   0.779  1.1520  0.4848 -0.7851
11056TIP3   OH233124   8.311   4.856   6.089 -0.2102 -0.1731 -0.1793
11056TIP3    H133125   8.328   4.816   6.175  0.8583  0.3600 -0.1303
11056TIP3    H233126   8.226   4.899   6.100 -1.5200 -2.5247 -0.2953
11057TIP3   OH233127   3.160   5.290   0.923 -0.1029  0.9034 -0.0670
11057TIP3    H133128   3.118   5.371   0.955  0.3923  1.1157  0.0460
11057TIP3    H233129   3.204   5.254   0.999 -1.1364 -0.0104  0.1256
11058TIP3   OH233130   2.941   1.030   6.637 -0.4867 -0.0672  0.0357
11058TIP3    H133131   2.997   1.069   6.705  0.2475  1.0865 -1.1822
11058TIP3    H233132   2.991   0.955   6.605 -0.4259 -0.0695  0.1354
11059TIP3   OH233133   5.010   3.396   3.803  0.0899  0.2658  0.3856
11059TIP3    H133134   5.080   3.336   3.830  1.2821  1.7188  0.6566
11059TIP3    H233135   5.056   3.471   3.766 -1.3420  1.2473  0.5116
11060TIP3   OH233136   4.059   2.405   6.373  0.3935 -0.0713  0.2630
11060TIP3    H133137   4.005   2.337   6.334  0.2104  0.6064 -0.7086
11060TIP3    H233138   4.002   2.482   6.376  0.5112 -0.0093  1.5927
11061TIP3   OH233139   3.345   1.149   1.223 -0.1431  0.9759 -0.0706
11061TIP3    H133140   3.316   1.057   1.219 -1.2548  1.3508 -1.5187
11061TIP3    H233141   3.388   1.156   1.308 -0.2959 -0.8124  0.2081
11062TIP3   OH233142   5.075   2.653   2.522 -0.3296  0.3808 -0.0186
11062TIP3    H133143   5.170   2.648   2.533 -0.4039  0.0038  0.5214
11062TIP3    H233144   5.040   2.588   2.584 -0.8363 -1.4246 -2.0410
11063TIP3   OH233145   7.833   5.320   0.619  0.2448  0.0753  0.1524
11063TIP3    H133146   7.786   5.370   0.552 -1.4040 -0.0879  1.1584
11063TIP3    H233147   7.844   5.233   0.580  0.8957  0.4738 -0.5950
11064TIP3   OH233148   5.227   5.550   3.511 -0.1649 -0.3138 -0.0128
11064TIP3    H133149   5.308   5.500   3.523  0.5746  0.5398 -1.2008
11064TIP3    H233150   5.227   5.611   3.585 -0.1041 -0.8073  0.3990
11065TIP3   OH233151   0.628   6.012   4.234  0.3827 -0.6635  0.0413
11065TIP3    H133152   0.650   6.051   4.150  2.6252  0.0191  0.8689
11065TIP3    H233153   0.536   6.034   4.247  0.0679 -0.5415 -2.0725
11066TIP3   OH233154   6.928   7.031   3.127 -0.3568  0.7523  0.3021
11066TIP3    H133155   7.019   7.040   3.155 -0.8070  0.7205  1.8259
11066TIP3    H233156   6.933   6.978   3.047  0.8859  0.0894  0.7963
11067TIP3   OH233157   2.749   6.308   6.660 -0.1353  0.3083  0.1955
11067TIP3    H133158   2.692   6.252   6.608  1.3330 -1.6387  0.5635
11067TIP3    H233159   2.825   6.253   6.679  1.5221  2.5255  0.3784
11068TIP3   OH233160   3.220   0.523   3.775  0.7639  0.3595  0.1820
11068TIP3    H133161   3.205   0.462   3.847 -1.7837 -0.7570 -1.1708
11068TIP3    H233162   3.307   0.559   3.791  1.4191 -1.9465  2.2544
11069TIP3   OH233163   3.211   2.073   1.858  0.1356 -0.1783 -0.6297
11069TIP3    H133164   3.147   2.014   1.899  1.8589 -0.6365  1.5849
11069TIP3    H233165   3.250   2.021   1.788  0.9345 -1.3789  0.6544
11070TIP3   OH233166   5.580   7.120   0.803  0.4359  0.0110  0.1813
11070TIP3    H133167   5.605   7.104   0.712  1.5314  1.8951  0.0815
11070TIP3    H233168   5.556   7.213   0.804  0.5135  0.0311  1.8263
11071TIP3   OH233169   1.905   2.221   3.732  0.1193 -0.1787 -0.0730
11071TIP3    H133170   1.996   2.236   3.708  0.2571  0.3749  0.7424
11071TIP3    H233171   1.885   2.134   3.698  0.5108  0.2468 -1.5056
11072TIP3   OH233172   6.045   2.512   1.345 -0.0920  0.2568 -0.1916
11072TIP3    H133173   6.072   2.480   1.259  0.8388  1.3625 -0.3359
11072TIP3    H233174   5.965   2.561   1.328 -0.6654 -0.6707 -0.2058
11073TIP3   OH233175   3.097   4.390   1.885  0.1513  0.4662 -0.6781
11073TIP3    H133176   3.165   4.340   1.930 -0.7306 -1.8104 -1.7545
11073TIP3    H233177   3.139   4.473   1.862  2.9785 -1.2934 -2.3313
11074TIP3   OH233178   7.016   7.055   2.788  0.2893 -0.1084  0.1742
11074TIP3    H133179   7.019   6.962   2.763  3.3197 -0.0431 -0.0654
11074TIP3    H233180   7.103   7.073   2.822 -0.3828  2.5734  0.6750
11075TIP3   OH233181   1.092   7.022   5.377  0.4106  0.0806  0.4413
11075TIP3    H133182   1.062   7.112   5.372 -0.7610 -0.3329 -0.4418
11075TIP3    H233183   1.115   7.009   5.470  1.0441  1.4004  0.4856
11076TIP3   OH233184   2.820   2.478   4.636  0.2931  0.3698  0.4862
11076TIP3    H133185   2.853   2.567   4.626  2.6463 -0.6199 -1.7960
11076TIP3    H233186   2.877   2.439   4.703  0.8986 -0.0762 -0.2700
11077TIP3   OH233187   6.692   0.293   3.009  0.2457  0.0865 -0.6894
11077TIP3    H133188   6.630   0.221   3.023  1.6218 -1.0689 -0.2807
11077TIP3    H233189   6.749   0.291   3.085  0.6330  1.3153 -0.9242
11078TIP3   OH233190   5.220   6.154   4.690 -0.6290 -0.4736  0.4626
11078TIP3    H133191   5.148   6.189   4.741 -0.6684 -0.2281  0.2415
11078TIP3    H233192   5.194   6.166   4.599  0.2928  0.9192  0.3522
11079TIP3   OH233193   6.500   2.454   1.722 -0.0917 -0.1141 -0.0572
11079TIP3    H133194   6.406   2.443   1.737 -0.1769  2.6208  2.1922
11079TIP3    H233195   6.541   2.433   1.806  1.1996 -0.0438 -0.6490
11080TIP3   OH233196   4.948   3.174   4.071 -0.1257 -0.2570  0.5100
11080TIP3    H133197   4.994   3.161   4.154  0.5587  0.3455  0.2421
11080TIP3    H233198   5.018   3.191   4.008 -0.6023 -1.2563 -0.3103
11081TIP3   OH233199   0.934   4.224   4.075 -0.1604 -0.5103 -0.1173
11081TIP3    H133200   0.988   4.190   4.004 -1.8863 -1.9502 -0.7984
11081TIP3    H233201   0.923   4.317   4.054  1.5774 -0.2954 -0.2231
11082TIP3   OH233202   1.879   1.953   3.677  0.2433  0.1983  0.3647
11082TIP3    H133203   1.844   1.934   3.589 -1.7620 -0.3249  1.2183
11082TIP3    H233204   1.943   1.884   3.693  0.1816 -0.0547 -0.4360
11083TIP3   OH233205   6.667   1.669   6.701 -0.2397 -0.1044 -0.6418
11083TIP3    H133206   6.662   1.647   6.794 -1.0996 -0.1607 -0.6927
11083TIP3    H233207   6.741   1.619   6.668 -0.3526 -0.6155 -0.1257
11084TIP3   OH233208   6.120   4.754   1.016 -0.3812  0.1566  0.2186
11084TIP3    H133209   6.045   4.711   1.058 -1.3167  0.7727 -0.7828
11084TIP3    H233210   6.181   4.682   0.998 -1.1614 -0.5073  0.1385
11085TIP3   OH233211   0.518   5.503   1.238  0.2216 -0.2733  0.3971
11085TIP3    H133212   0.473   5.570   1.185 -0.4674  0.0602  1.3812
11085TIP3    H233213   0.478   5.510   1.325 -0.5438 -2.5757  0.3204
11086TIP3   OH233214   3.873   1.459   5.705  0.4533 -0.3000  0.1536
11086TIP3    H133215   3.810   1.404   5.753 -0.6656  1.4884  0.8725
11086TIP3    H233216   3.939   1.482   5.771  1.5951 -1.7039 -0.4548
11087TIP3   OH233217   3.209   4.255   6.466  0.3465  0.2517 -0.1985
11087TIP3    H133218   3.181   4.326   6.524  0.3120  0.7599 -0.8222
11087TIP3    H233219   3.128   4.206   6.448 -0.2076  1.7232 -2.0038
11088TIP3   OH233220   2.083   3.326   6.437 -0.6994  0.3963  0.7197
11088TIP3    H133221   2.077   3.294   6.347 -0.1436 -0.1336  0.8573
11088TIP3    H233222   2.112   3.417   6.428  1.5034 -0.2607  0.3754
11089TIP3   OH233223   7.363   7.692   4.657  0.7765 -0.2599 -0.1854
11089TIP3    H133224   7.315   7.684   4.574  0.2653 -1.2432  0.1898
11089TIP3    H233225   7.364   7.786   4.675 -0.4722 -0.1568 -0.5265
11090TIP3   OH233226   3.117   4.891   4.266 -0.0976 -0.0801 -0.7163
11090TIP3    H133227   3.115   4.853   4.178  2.0596 -0.6723 -0.5510
11090TIP3    H233228   3.045   4.849   4.312 -0.1170 -1.1243 -1.6670
11091TIP3   OH233229   3.515   3.753   5.904 -0.0855  0.3130 -0.5135
11091TIP3    H133230   3.457   3.794   5.840 -1.2425 -1.9154 -1.0067
11091TIP3    H233231   3.566   3.690   5.853 -2.5829 -3.1541  0.8807
11092TIP3   OH233232   5.771   0.574   1.642 -0.0990 -0.4570  0.9014
11092TIP3    H133233   5.769   0.542   1.552  0.4222  0.6175  0.4923
11092TIP3    H233234   5.692   0.538   1.682 -0.8978 -0.1022 -0.2835
11093TIP3   OH233235   4.263   0.808   2.064 -0.2709  0.4002 -0.0469
11093TIP3    H133236   4.312   0.754   2.126  2.1083  1.4548 -0.8919
11093TIP3    H233237   4.227   0.746   2.001  2.0555 -0.3340 -0.7581
11094TIP3   OH233238   3.949   7.812   0.002  0.1959 -0.4215  0.0506
11094TIP3    H133239   3.941   7.801   0.097  0.3774 -1.3393 -0.0339
11094TIP3    H233240   3.859   7.823  -0.029 -0.1092 -2.4278  0.0773
11095TIP3   OH233241   4.777   2.584   1.415  0.2100  0.1673  0.0533
11095TIP3    H133242   4.870   2.578   1.391  0.9397 -1.9229  2.8187
11095TIP3    H233243   4.761   2.678   1.424  3.1762  0.6063  2.9047
11096TIP3   OH233244   4.632   1.592   5.681 -0.7572  0.3059  0.2733
11096TIP3    H133245   4.605   1.501   5.693 -1.0810  0.2759 -0.5940
11096TIP3    H233246   4.579   1.623   5.608  0.5525  0.6815 -0.5504
11097TIP3   OH233247   1.322   7.263   4.603  0.2657  0.3049 -0.1395
11097TIP3    H133248   1.406   7.222   4.582 -0.0289  0.3206 -1.4384
11097TIP3    H233249   1.345   7.350   4.635  0.7336  0.5301 -1.0439
11098TIP3   OH233250   6.585   5.887   1.882  0.2007 -0.9166  0.3660
11098TIP3    H133251   6.563   5.883   1.789  1.2173  2.0397 -0.0978
11098TIP3    H233252   6.503   5.913   1.925  0.3014  0.0723 -0.0288
11099TIP3   OH233253   5.379   4.334   3.044 -0.0064  0.0351  0.3286
11099TIP3    H133254   5.472   4.319   3.025 -0.3786 -1.0286 -0.8105
11099TIP3    H233255   5.379   4.381   3.127  1.5266 -1.1559  1.0743
11100TIP3   OH233256   4.171   7.694   1.339  0.4224 -0.2787  0.4258
11100TIP3    H133257   4.105   7.750   1.297 -1.3899 -0.9513  2.2437
11100TIP3    H233258   4.204   7.639   1.268 -2.4804 -1.3396 -0.2199
11101TIP3   OH233259   2.350   7.256   1.231 -0.3505 -0.2056 -0.0105
11101TIP3    H133260   2.374   7.163   1.230 -1.4524 -0.5240  0.9552
11101TIP3    H233261   2.300   7.267   1.312  0.9940  1.5639  0.6304
11102TIP3   OH233262   5.580   6.943   3.150 -0.1865  0.0511 -0.2337
11102TIP3    H133263   5.596   7.037   3.140 -0.6826  0.1496 -0.1133
11102TIP3    H233264   5.543   6.934   3.238 -0.4262 -0.2160 -0.3591
11103TIP3   OH233265   3.633   4.155   5.524 -0.6729 -0.1649  0.0646
11103TIP3    H133266   3.623   4.241   5.564  1.1515 -0.1434  0.5683
11103TIP3    H233267   3.695   4.169   5.452  0.8493 -1.2765  1.0966
11104TIP3   OH233268   4.780   0.142   4.412  0.3315 -0.2430  0.0419
11104TIP3    H133269   4.769   0.179   4.324 -0.4314 -1.0370 -0.2132
11104TIP3    H233270   4.873   0.154   4.431  0.8014 -1.1897 -1.4190
11105TIP3   OH233271   3.700   1.055   0.552  0.1599  0.1748 -0.3676
11105TIP3    H133272   3.774   1.112   0.574  0.9554 -0.8753 -0.2188
11105TIP3    H233273   3.718   1.027   0.463 -0.7664  0.9417 -0.8150
11106TIP3   OH233274   2.422   5.214   0.099  0.3363  0.2867 -0.1985
11106TIP3    H133275   2.463   5.148   0.041 -1.4953  0.4993 -1.8217
11106TIP3    H233276   2.439   5.181   0.187  0.3227 -1.8816 -0.9304
11107TIP3   OH233277   1.333   5.609   4.856  0.0420 -0.2322 -0.6348
11107TIP3    H133278   1.256   5.666   4.860  1.1040  1.3265 -1.5938
11107TIP3    H233279   1.407   5.667   4.873  1.0843 -1.5607 -0.4731
11108TIP3   OH233280   2.733   5.149   4.473  0.1907 -1.1017 -0.2105
11108TIP3    H133281   2.772   5.205   4.540  0.8860 -2.2637  0.3946
11108TIP3    H233282   2.793   5.154   4.399  0.3190 -1.1360 -0.1092
11109TIP3   OH233283   6.209   7.544   1.664 -0.0504 -0.0171  0.1701
11109TIP3    H133284   6.216   7.637   1.687  0.4972  0.4940 -1.8185
11109TIP3    H233285   6.116   7.529   1.651 -0.2031  0.0723  1.0949
11110TIP3   OH233286   6.319   5.315   3.312  0.4756  0.2152  0.5910
11110TIP3    H133287   6.238   5.347   3.272  0.4277 -0.9215 -0.3019
11110TIP3    H233288   6.373   5.289   3.237  1.3282  0.1661  1.2094
11111TIP3   OH233289   6.027   7.795   1.539 -0.4641 -0.2722  0.4367
11111TIP3    H133290   6.017   7.788   1.444 -0.7687 -1.3678  0.5344
11111TIP3    H233291   5.989   7.714   1.573 -0.8953  0.3817  1.5390
11112TIP3   OH233292   4.979   3.807   0.881 -0.4927 -0.1798 -0.1928
11112TIP3    H133293   4.967   3.901   0.897  1.1740  0.3599 -1.7550
11112TIP3    H233294   5.055   3.783   0.934 -0.7963 -0.6154  0.0531
11113TIP3   OH233295   7.822   4.153   0.214  0.0769  0.5099 -0.1167
11113TIP3    H133296   7.896   4.179   0.160  0.4078  1.0871  0.6023
11113TIP3    H233297   7.784   4.235   0.245 -0.3903  0.2014  0.1503
11114TIP3   OH233298   3.807   1.163   2.135  0.0431  0.2700  0.5791
11114TIP3    H133299   3.843   1.099   2.197 -2.1207 -1.6550 -0.0171
11114TIP3    H233300   3.846   1.246   2.162  2.0727 -1.0718  2.1421
11115TIP3   OH233301   7.013   0.690   6.205 -0.1441 -0.4559  0.7058
11115TIP3    H133302   6.999   0.633   6.281  1.6711 -0.8307  0.8046
11115TIP3    H233303   6.945   0.756   6.212 -1.8381 -2.1560  1.0184
11116TIP3   OH233304   2.602   4.056   1.363 -0.0957 -0.0337  0.6849
11116TIP3    H133305   2.549   4.114   1.310  0.8013 -1.9220 -2.5921
11116TIP3    H233306   2.628   4.108   1.438 -2.7018  2.3748  0.0747
11117TIP3   OH233307   6.845   4.556   2.223 -0.2031 -0.3073 -0.3975
11117TIP3    H133308   6.756   4.591   2.222 -0.7699 -1.6733  0.0845
11117TIP3    H233309   6.852   4.511   2.307  1.3867  0.8119  0.1207
11118TIP3   OH233310   2.421   2.997   0.326  0.5376  0.3754  0.2923
11118TIP3    H133311   2.425   3.036   0.413  4.0154  1.0414  0.0093
11118TIP3    H233312   2.381   3.064   0.271 -0.7412  0.3552  1.1701
11119TIP3   OH233313   7.904   6.420   5.040 -0.6845  0.1871  0.0666
11119TIP3    H133314   7.996   6.394   5.033 -0.6708  0.4653 -0.9046
11119TIP3    H233315   7.895   6.450   5.131 -0.2568 -1.4389  0.6774
11120TIP3   OH233316   4.791   6.333   3.898  0.0744 -0.0713 -0.2929
11120TIP3    H133317   4.704   6.296   3.884  0.4423 -1.0221 -0.1093
11120TIP3    H233318   4.778   6.428   3.890 -0.6448 -0.2834 -2.0096
11121TIP3   OH233319   6.296   0.967   5.665  0.3958 -0.3639 -0.1352
11121TIP3    H133320   6.378   1.011   5.642  0.1935  0.5835  0.9035
11121TIP3    H233321   6.251   1.028   5.723  0.4147 -2.2420  1.9642
11122TIP3   OH233322   7.088   2.273   5.061  0.1674  0.0284 -0.0513
11122TIP3    H133323   7.094   2.181   5.032  1.4863 -0.1783  0.7956
11122TIP3    H233324   6.994   2.290   5.065 -0.0951 -1.0085 -1.0615
11123TIP3   OH233325   2.305   2.793   3.385  0.1919 -0.1126 -0.1775
11123TIP3    H133326   2.374   2.732   3.412  1.0658 -0.6106 -3.1940
11123TIP3    H233327   2.353   2.868   3.348 -0.9012  1.1843  0.9388
11124TIP3   OH233328   3.306   0.875   2.745 -0.2720  0.3385 -0.1304
11124TIP3    H133329   3.296   0.798   2.801 -2.0358 -0.9297 -2.0159
11124TIP3    H233330   3.395   0.868   2.710 -0.2554 -0.6189  0.0722
11125TIP3   OH233331   4.287   4.193   0.811 -0.1735 -0.0425  0.5184
11125TIP3    H133332   4.305   4.106   0.777  0.2338  0.4949 -0.6721
11125TIP3    H233333   4.373   4.235   0.816 -0.5400  0.9068 -0.6591
11126TIP3   OH233334   1.081   7.636   4.733 -0.2752  0.9131 -0.2113
11126TIP3    H133335   1.106   7.676   4.650 -0.5023 -0.2624 -0.8785
11126TIP3    H233336   1.002   7.586   4.712  1.4851 -2.1731 -0.1676
11127TIP3   OH233337   4.051   3.709   2.124 -0.0799 -0.2214  0.0873
11127TIP3    H133338   4.024   3.623   2.157 -3.9179 -0.2141 -2.3966
11127TIP3    H233339   4.085   3.691   2.037 -3.0621  0.7788 -1.4256
11128TIP3   OH233340   7.274   4.176   3.885 -0.5486 -0.1634 -0.0211
11128TIP3    H133341   7.263   4.265   3.919 -2.2070 -0.8064  1.2500
11128TIP3    H233342   7.258   4.119   3.960  0.3091 -1.5625 -0.8599
11129TIP3   OH233343   7.999   0.923   4.606  0.5620  0.2275  0.2515
11129TIP3    H133344   7.906   0.913   4.622  0.7109 -1.3622  0.2380
11129TIP3    H233345   8.006   0.942   4.512  0.2832 -0.0164  0.1843
11130TIP3   OH233346   1.408   4.568   6.592 -0.5507 -0.2907  0.2587
11130TIP3    H133347   1.411   4.651   6.544  1.1253 -1.1379 -1.2044
11130TIP3    H233348   1.497   4.558   6.627 -1.2611 -0.5737  2.0677
11131TIP3   OH233349   5.181   3.657   1.383  0.0336  0.3684  0.0073
11131TIP3    H133350   5.266   3.699   1.393  1.0203 -1.6348  0.4071
11131TIP3    H233351   5.198   3.578   1.332 -1.4482 -0.4802  0.7609
11132TIP3   OH233352   6.915   2.512   0.596  0.4187 -0.2716 -0.0357
11132TIP3    H133353   6.856   2.483   0.665 -0.9750  2.4292  0.0499
11132TIP3    H233354   6.871   2.487   0.515 -0.2896  0.6866  0.0416
11133TIP3   OH233355   2.348   5.239   2.424  0.2890  0.2112 -0.3221
11133TIP3    H133356   2.420   5.259   2.364 -0.4477  2.5552 -0.5364
11133TIP3    H233357   2.322   5.324   2.459 -1.3977 -0.7487  0.9063
11134TIP3   OH233358   5.085   6.295   3.481  0.2744 -0.9311 -0.6263
11134TIP3    H133359   5.138   6.321   3.557  1.1375 -0.6897 -1.2838
11134TIP3    H233360   5.015   6.241   3.517  0.0384  0.0616  0.4637
11135TIP3   OH233361   8.240   4.348   4.806  0.0223 -0.0949 -0.8801
11135TIP3    H133362   8.242   4.252   4.801 -1.6466 -0.2401  0.4630
11135TIP3    H233363   8.324   4.375   4.768  0.3663 -2.0492 -1.6740
11136TIP3   OH233364   0.062   7.307   6.733  0.8511  0.4972  0.0898
11136TIP3    H133365   0.129   7.333   6.796  1.8634  0.1201 -0.8028
11136TIP3    H233366   0.103   7.321   6.648  0.8447 -2.3640 -0.4823
11137TIP3   OH233367   8.032   2.290   4.987  0.3517 -0.3677  0.3018
11137TIP3    H133368   7.944   2.306   4.953  0.5129 -0.9347 -0.3816
11137TIP3    H233369   8.068   2.378   5.001 -1.0766 -0.0553  2.6584
11138TIP3   OH233370   5.618   0.061   2.789 -0.5556  0.0090 -0.2729
11138TIP3    H133371   5.685   0.101   2.844  1.4662  0.3675 -2.8038
11138TIP3    H233372   5.576   0.136   2.744 -2.0186 -0.2818  0.5411
11139TIP3   OH233373   3.884   0.310   0.194  0.3965 -0.4704 -0.5845
11139TIP3    H133374   3.862   0.378   0.258  1.0598  1.0336 -1.8960
11139TIP3    H233375   3.819   0.321   0.124 -0.0285 -1.7892 -0.4348
11140TIP3   OH233376   7.877   7.609   0.604 -0.3484  0.4366 -0.0904
11140TIP3    H133377   7.806   7.551   0.633 -0.2317  0.0161 -0.6274
11140TIP3    H233378   7.906   7.572   0.521 -0.3789  1.3740 -0.5225
11141TIP3   OH233379   1.902   4.290   2.105  0.6533 -0.3477 -0.2586
11141TIP3    H133380   1.843   4.366   2.106 -0.4763 -1.1780 -0.8673
11141TIP3    H233381   1.844   4.215   2.089  2.0071 -1.0899 -2.1136
11142TIP3   OH233382   6.468   7.700   1.787  0.0367  1.0092  0.0260
11142TIP3    H133383   6.498   7.694   1.696  2.0557  0.8953  0.6552
11142TIP3    H233384   6.518   7.773   1.824 -0.7664  1.0550  1.0652
11143TIP3   OH233385   7.248   6.608   5.154  0.2821  0.3760  0.0957
11143TIP3    H133386   7.327   6.559   5.133 -0.0864  0.0787 -0.6434
11143TIP3    H233387   7.261   6.693   5.113  0.6429  0.6788  0.8267
11144TIP3   OH233388   0.407   7.681   2.625 -0.0958  0.0554 -0.3533
11144TIP3    H133389   0.367   7.601   2.660  0.9984 -1.0256 -1.4561
11144TIP3    H233390   0.502   7.665   2.633  0.1471  1.6223  0.1831
11145TIP3   OH233391   6.962   3.674   2.345  0.0660 -0.0729 -0.0615
11145TIP3    H133392   6.951   3.600   2.285  1.1658 -0.8870  0.6978
11145TIP3    H233393   6.931   3.641   2.430  0.9539  0.1714  0.3771
11146TIP3   OH233394   4.703   7.660   4.864 -0.7125 -0.3188  0.0770
11146TIP3    H133395   4.662   7.574   4.871 -0.3261 -0.6792 -1.6737
11146TIP3    H233396   4.671   7.695   4.781  0.5628  0.4562 -0.1104
11147TIP3   OH233397   6.919   4.707   4.133  0.4454 -0.1007  0.2641
11147TIP3    H133398   6.945   4.750   4.215 -0.9721 -0.4567  0.9340
11147TIP3    H233399   6.823   4.709   4.134  0.3861  0.0529 -1.4934
11148TIP3   OH233400   1.688   1.539   2.994 -0.3006 -0.1734  0.0337
11148TIP3    H133401   1.657   1.629   3.000 -0.0622  0.1319 -2.4023
11148TIP3    H233402   1.704   1.525   2.901  2.1240 -1.9023  0.6019
11149TIP3   OH233403   5.195   2.583   0.957 -1.0766 -0.1837 -0.0374
11149TIP3    H133404   5.271   2.626   0.918  0.1671 -0.2164  2.1716
11149TIP3    H233405   5.206   2.491   0.933 -1.6741  0.1098 -1.5712
11150TIP3   OH233406   6.475   0.533   1.354 -0.1132 -0.1527 -0.0554
11150TIP3    H133407   6.462   0.439   1.366  0.4605 -0.1341  0.7677
11150TIP3    H233408   6.567   0.548   1.378 -0.0263  0.5208 -0.7655
11151TIP3   OH233409   3.058   7.458   1.101  0.4699  0.6277  0.5527
11151TIP3    H133410   2.977   7.507   1.087 -0.8838 -0.6696  3.1496
11151TIP3    H233411   3.055   7.387   1.036 -2.1894 -1.2906  2.5399
11152TIP3   OH233412   6.340   7.050   5.625  0.8161 -0.3582  0.8605
11152TIP3    H133413   6.270   7.110   5.649 -0.8951 -1.3472 -1.3623
11152TIP3    H233414   6.323   6.971   5.676  0.1693 -0.6761  0.1577
11153TIP3   OH233415   1.033   0.781   4.531 -0.0402 -0.4460 -0.2327
11153TIP3    H133416   1.122   0.811   4.550  0.7145 -1.7427 -1.4912
11153TIP3    H233417   0.976   0.846   4.572  1.4361 -0.8054  2.5890
11154TIP3   OH233418   5.564   6.109   6.232 -0.0828 -0.3830  0.3861
11154TIP3    H133419   5.519   6.052   6.296  0.2372  0.0078  0.9666
11154TIP3    H233420   5.575   6.192   6.278  0.3480 -0.1658 -0.1090
11155TIP3   OH233421   3.721   4.751   5.677  0.0786  0.3037 -0.7720
11155TIP3    H133422   3.640   4.796   5.653  0.2416  0.5787 -0.8143
11155TIP3    H233423   3.730   4.766   5.771  0.6851  1.2873 -0.9622
11156TIP3   OH233424   5.839   0.041   6.717  0.0118  0.2392 -0.2500
11156TIP3    H133425   5.899   0.007   6.783 -0.2019  0.6122  0.1423
11156TIP3    H233426   5.793   0.112   6.761  0.7271  1.3044 -1.1818
11157TIP3   OH233427   3.675   1.183   5.521 -0.3163  0.2802 -0.1299
11157TIP3    H133428   3.613   1.175   5.449 -1.4362  0.5460  0.7857
11157TIP3    H233429   3.652   1.266   5.563  0.4665  0.2362  0.4082
11158TIP3   OH233430   8.262   5.504   0.439  0.1166 -0.3950 -0.1921
11158TIP3    H133431   8.217   5.527   0.520 -0.5110 -0.3455 -0.5504
11158TIP3    H233432   8.237   5.572   0.376  0.0384 -0.8106 -0.6212
11159TIP3   OH233433   5.011   5.895   0.373 -0.2501  0.2195 -0.1864
11159TIP3    H133434   4.962   5.899   0.456 -1.3803  1.1826 -0.8745
11159TIP3    H233435   4.991   5.809   0.338  1.4636 -0.8381  1.2249
11160TIP3   OH233436   3.887   3.759   0.843 -0.1920  0.0915  0.1473
11160TIP3    H133437   3.848   3.741   0.929  0.2745  1.1797  0.6059
11160TIP3    H233438   3.859   3.848   0.822  0.0905  0.0058 -0.6228
11161TIP3   OH233439   0.671   7.765   1.696  0.6565 -0.2528  0.5170
11161TIP3    H133440   0.615   7.808   1.760  0.1334  0.2908 -0.2908
11161TIP3    H233441   0.759   7.801   1.712  0.8684 -1.3564  2.0016
11162TIP3   OH233442   1.304   5.401   2.544 -0.0775 -0.3956  0.0398
11162TIP3    H133443   1.231   5.344   2.523  1.7048 -1.9658 -2.4688
11162TIP3    H233444   1.299   5.472   2.480  1.1192 -1.0827 -0.8579
11163TIP3   OH233445   8.105   1.102   6.752 -0.2493  0.0795 -0.2653
11163TIP3    H133446   8.065   1.077   6.668 -2.0467 -0.1231  0.5851
11163TIP3    H233447   8.193   1.066   6.749 -0.6602 -0.8960 -1.6291
11164TIP3   OH233448   5.690   7.714   4.502 -0.0245  0.2706 -0.0083
11164TIP3    H133449   5.773   7.676   4.531 -0.7829 -0.8460  0.8232
11164TIP3    H233450   5.681   7.686   4.411  0.4841  0.3591 -0.0869
11165TIP3   OH233451   3.742   0.459   3.766  0.1333 -0.0465  0.3596
11165TIP3    H133452   3.771   0.453   3.675 -0.2608 -0.2931  0.2471
11165TIP3    H233453   3.648   0.474   3.760  0.1280  0.0790  0.7278
11166TIP3   OH233454   1.604   1.332   0.818 -0.2731 -0.1268 -0.2798
11166TIP3    H133455   1.585   1.334   0.724  2.2989  0.2347 -0.8768
11166TIP3    H233456   1.585   1.421   0.849  1.4687  0.5911 -1.1169
11167TIP3   OH233457   5.825   3.544   4.083 -0.0193 -0.7686 -0.0305
11167TIP3    H133458   5.816   3.594   4.164  0.0815  0.3884 -0.7150
11167TIP3    H233459   5.779   3.596   4.017 -0.8926 -2.1435 -0.5535
11168TIP3   OH233460   4.077   5.962   1.401 -0.1529  0.9746  0.2088
11168TIP3    H133461   4.070   6.048   1.442 -0.0265  1.9581 -1.7206
11168TIP3    H233462   4.164   5.963   1.359 -0.9090  0.7045 -1.4623
11169TIP3   OH233463   4.500   4.592   0.628 -0.3292  0.3483 -0.2828
11169TIP3    H133464   4.481   4.508   0.587  0.9176  0.1224 -0.4622
11169TIP3    H233465   4.583   4.577   0.675  0.0935  1.5613 -0.6136
11170TIP3   OH233466   3.506   4.057   3.837 -0.0448 -0.6283  0.5567
11170TIP3    H133467   3.442   4.063   3.765 -0.3084  1.3413  0.9079
11170TIP3    H233468   3.487   3.973   3.878 -1.8099 -0.5095  0.0790
11171TIP3   OH233469   5.305   0.673   6.763 -0.0012 -0.7059 -0.0762
11171TIP3    H133470   5.372   0.608   6.741 -0.5423 -1.0398 -0.7920
11171TIP3    H233471   5.333   0.752   6.717  0.1699 -0.6993  0.0387
11172TIP3   OH233472   2.102   7.576   3.782  0.6176  0.4824  0.3534
11172TIP3    H133473   2.074   7.627   3.857 -1.8346  0.6137 -0.5735
11172TIP3    H233474   2.022   7.558   3.733  1.6052 -2.5997 -0.4107
11173TIP3   OH233475   1.705   6.891   4.418  0.3288 -0.7818 -0.2286
11173TIP3    H133476   1.712   6.862   4.508  1.4409  1.6081  0.5316
11173TIP3    H233477   1.761   6.831   4.369  2.2551 -0.2496  1.1962
11174TIP3   OH233478   5.081   0.873   5.410 -0.4410 -0.2889 -0.1905
11174TIP3    H133479   5.164   0.874   5.457 -0.7660  1.0813  0.4004
11174TIP3    H233480   5.038   0.792   5.437 -0.1636 -0.0320  1.0841
11175TIP3   OH233481   4.949   7.014   6.074 -0.5170  0.2374 -0.5837
11175TIP3    H133482   4.856   6.996   6.060 -0.8141  1.4136 -0.2052
11175TIP3    H233483   4.953   7.062   6.156  0.8026 -2.8096  1.3219
11176TIP3   OH233484   3.560   7.407   0.232  0.1252  0.0988  0.2694
11176TIP3    H133485   3.607   7.379   0.310  1.3549  0.4818 -0.3135
11176TIP3    H233486   3.579   7.501   0.225 -0.9996  0.3395  0.1936
11177TIP3   OH233487   6.122   6.264   2.387  0.7775 -0.4874 -0.7623
11177TIP3    H133488   6.179   6.316   2.445 -0.0197 -0.2919 -0.1344
11177TIP3    H233489   6.168   6.182   2.376  2.0397  0.3126 -1.7212
11178TIP3   OH233490   4.041   0.685   0.174  1.1849  0.2131 -0.1562
11178TIP3    H133491   4.097   0.697   0.097  2.6534 -0.7731  0.7038
11178TIP3    H233492   4.067   0.600   0.209  1.1561  0.9994  1.8989
11179TIP3   OH233493   0.655   3.084   4.877 -0.4733  0.0402 -0.0393
11179TIP3    H133494   0.744   3.074   4.909  0.1221 -2.6069 -2.1154
11179TIP3    H233495   0.601   3.038   4.941  0.1709 -1.5288 -0.5659
11180TIP3   OH233496   0.027   1.405   6.703  0.4214 -0.4612 -0.2715
11180TIP3    H133497   0.120   1.383   6.705  1.0762  1.1297 -4.2844
11180TIP3    H233498  -0.009   1.348   6.635 -1.3269 -0.2524  0.4327
11181TIP3   OH233499   5.858   3.233   3.637  0.3266  0.7645  0.0854
11181TIP3    H133500   5.830   3.146   3.610  0.2060  0.4359  1.1954
11181TIP3    H233501   5.946   3.221   3.671 -0.1058  0.8302  1.3062
11182TIP3   OH233502   7.477   3.620   2.404  0.5014 -0.0782  0.0344
11182TIP3    H133503   7.572   3.618   2.412  0.4626 -1.6097  0.4788
11182TIP3    H233504   7.448   3.539   2.446 -0.9608  0.0395 -0.6866
11183TIP3   OH233505   3.910   4.103   1.289 -0.2268 -0.5224  0.5093
11183TIP3    H133506   3.970   4.054   1.345  1.1723 -0.5978 -0.9494
11183TIP3    H233507   3.870   4.037   1.233 -0.2161 -0.2675  0.1961
11184TIP3   OH233508   3.677   1.222   3.160 -0.1791  0.6799  0.4546
11184TIP3    H133509   3.593   1.201   3.118  0.4700  0.8265 -0.9851
11184TIP3    H233510   3.682   1.162   3.234 -0.4121 -1.1460 -0.9327
11185TIP3   OH233511   6.829   4.937   2.296  0.1662 -0.1227 -0.1855
11185TIP3    H133512   6.905   4.939   2.238  1.4997 -0.4673  1.4848
11185TIP3    H233513   6.848   4.868   2.359 -3.0313 -2.5425 -1.6067
11186TIP3   OH233514   1.871   5.605   3.727 -0.2443  0.0931 -0.0131
11186TIP3    H133515   1.813   5.659   3.673 -0.8557  0.8564  1.3731
11186TIP3    H233516   1.812   5.549   3.777  0.3462 -1.1098 -0.6031
11187TIP3   OH233517   0.424   4.134   2.297 -0.0217  0.5875 -0.7997
11187TIP3    H133518   0.335   4.164   2.313  0.1966  0.6777  0.3570
11187TIP3    H233519   0.476   4.175   2.366  0.8231  0.0949 -1.1252
11188TIP3   OH233520   0.364   3.086   2.295 -0.0148  0.2860  0.8070
11188TIP3    H133521   0.384   3.178   2.310 -0.4887  0.3560  1.0214
11188TIP3    H233522   0.272   3.077   2.319 -0.5832  0.2114 -1.1672
11189TIP3   OH233523   3.530   3.131   2.429  0.4794  0.1743  0.3235
11189TIP3    H133524   3.505   3.223   2.440 -1.3637 -0.4245  1.4759
11189TIP3    H233525   3.611   3.135   2.377 -0.4051  2.3715 -1.0325
11190TIP3   OH233526   1.499   5.220   2.656  0.1129 -0.0480  0.0723
11190TIP3    H133527   1.487   5.135   2.614  0.1230 -0.2717  0.5195
11190TIP3    H233528   1.442   5.279   2.607  2.5269  0.4444 -2.4286
11191TIP3   OH233529   2.051   0.818   1.219 -0.5254 -0.4658 -0.3528
11191TIP3    H133530   2.001   0.738   1.235  0.0564 -0.6651  0.5425
11191TIP3    H233531   1.999   0.866   1.155 -1.1489 -1.3143 -0.5115
11192TIP3   OH233532   2.765  -0.028   3.020 -0.0592  0.4500  0.8597
11192TIP3    H133533   2.793  -0.013   2.930  2.7612 -0.5680  1.4705
11192TIP3    H233534   2.793   0.051   3.067  1.1698 -0.2626  1.3514
11193TIP3   OH233535   2.834   6.797   5.240 -0.3585  0.3015 -0.2673
11193TIP3    H133536   2.785   6.718   5.220 -1.1279  0.3801  1.1841
11193TIP3    H233537   2.902   6.769   5.301  0.1441  0.5502 -0.7040
11194TIP3   OH233538   5.601   5.584   6.365  0.2714  0.2313 -0.3790
11194TIP3    H133539   5.545   5.511   6.393  0.2864 -0.0923 -1.1843
11194TIP3    H233540   5.563   5.612   6.282  0.1624  1.2560  0.0054
11195TIP3   OH233541   5.030   5.965   2.604 -0.0104  0.4076 -0.5676
11195TIP3    H133542   4.983   5.974   2.522 -2.2806 -1.6061  0.4059
11195TIP3    H233543   5.054   6.055   2.628 -1.3063  1.2573 -2.2869
11196TIP3   OH233544   6.900   1.802   6.047  0.3002 -0.6453 -0.4053
11196TIP3    H133545   6.836   1.838   6.109  0.1575  0.3237 -1.0777
11196TIP3    H233546   6.877   1.710   6.039  0.8315 -1.0076  1.5850
11197TIP3   OH233547   2.300   5.085   1.006 -0.0052  0.6615  0.0131
11197TIP3    H133548   2.296   5.059   1.098  1.1822  2.0752  0.5061
11197TIP3    H233549   2.212   5.068   0.972 -0.9766  1.6885  1.8659
11198TIP3   OH233550   0.981   2.247   2.259 -1.1558  0.2678  0.1475
11198TIP3    H133551   1.026   2.322   2.297  1.1500 -1.4341  1.0358
11198TIP3    H233552   0.913   2.224   2.322 -2.2618  1.8802 -0.4046
11199TIP3   OH233553   3.884   2.029   4.265 -0.4180 -0.2199  0.1723
11199TIP3    H133554   3.971   1.992   4.256 -0.2622  0.1408  0.1609
11199TIP3    H233555   3.857   2.005   4.353 -1.5842 -2.9889 -0.8219
11200TIP3   OH233556   5.467   2.678   6.323  0.4416  0.0384 -0.1708
11200TIP3    H133557   5.430   2.765   6.341 -0.7888 -0.0940 -1.8715
11200TIP3    H233558   5.483   2.678   6.229  0.3677 -1.6035 -0.2009
11201TIP3   OH233559   0.427   2.966   2.871  0.2280  0.4572 -0.0961
11201TIP3    H133560   0.453   2.909   2.943  0.3978  1.2961  0.5258
11201TIP3    H233561   0.483   2.939   2.798 -2.3138 -2.7950 -1.0868
11202TIP3   OH233562   5.104   4.754   1.220  0.3439  0.1859 -0.1160
11202TIP3    H133563   5.081   4.795   1.137  1.8980  1.1562 -0.1072
11202TIP3    H233564   5.030   4.774   1.277 -0.8068 -0.6163 -1.2852
11203TIP3   OH233565   4.354   7.292   2.135 -0.0972  0.3814  0.0603
11203TIP3    H133566   4.406   7.231   2.083  0.1283 -0.0708  0.7962
11203TIP3    H233567   4.263   7.263   2.123 -0.0712  0.4486 -0.2938
11204TIP3   OH233568   6.026   4.720   1.961  0.5966  0.1386  0.0119
11204TIP3    H133569   5.963   4.650   1.943  1.2940 -0.4128 -0.3294
11204TIP3    H233570   6.109   4.675   1.974  0.9316  0.8600  0.4248
11205TIP3   OH233571   6.189   1.159   2.190 -0.1118  0.0289 -0.4470
11205TIP3    H133572   6.168   1.205   2.271 -1.2369 -0.5387 -0.3936
11205TIP3    H233573   6.134   1.201   2.124 -0.8495 -0.9510 -0.4749
11206TIP3   OH233574   7.865   3.730   0.610 -0.1901  0.0444 -0.5636
11206TIP3    H133575   7.944   3.757   0.656  0.2788 -0.1836 -1.2204
11206TIP3    H233576   7.875   3.765   0.521 -1.1997  0.6984 -0.4402
11207TIP3   OH233577   1.628   3.563   5.798 -0.3199 -0.4750 -0.0867
11207TIP3    H133578   1.684   3.611   5.737  0.0919  0.3204  0.8812
11207TIP3    H233579   1.572   3.509   5.743  2.1358 -2.1830 -1.1110
11208TIP3   OH233580   7.022   6.620   3.908 -0.6394 -0.0445 -0.1284
11208TIP3    H133581   6.974   6.637   3.989  1.7344 -0.4909  1.4874
11208TIP3    H233582   7.105   6.666   3.919  0.2238 -1.0989 -1.7929
11209TIP3   OH233583   0.771   5.037   0.671  0.0799  0.0888  0.1714
11209TIP3    H133584   0.687   5.076   0.694 -0.2105 -0.5333  0.2006
11209TIP3    H233585   0.813   5.101   0.612 -1.5417 -0.7009 -1.9760
11210TIP3   OH233586   2.037   0.405   1.158  0.1932  0.2887  0.1940
11210TIP3    H133587   1.971   0.386   1.224  0.9289  1.2111  1.2410
11210TIP3    H233588   2.116   0.359   1.188 -0.7884 -4.2286 -3.0729
11211TIP3   OH233589   5.474   0.098   2.111 -0.3117  0.3095 -0.1354
11211TIP3    H133590   5.504   0.008   2.104 -1.8936 -0.2026 -0.7409
11211TIP3    H233591   5.424   0.101   2.192 -0.8196  0.4540 -0.4456
11212TIP3   OH233592   7.213   6.893   1.817  0.6496 -0.2033 -0.4924
11212TIP3    H133593   7.125   6.860   1.829  0.5675  0.2892  0.3415
11212TIP3    H233594   7.229   6.948   1.893  1.9437 -0.8557 -0.2653
11213TIP3   OH233595   0.637   3.311   5.615 -0.0833  0.0047  0.3070
11213TIP3    H133596   0.591   3.339   5.536  1.1377  2.0449  0.2315
11213TIP3    H233597   0.680   3.390   5.647  0.9707 -1.1690  1.9914
11214TIP3   OH233598   1.075   2.482   4.298  0.2718 -0.2489 -0.5553
11214TIP3    H133599   1.018   2.535   4.243 -1.5436 -2.5953 -1.1143
11214TIP3    H233600   1.063   2.518   4.386  1.0227  1.7384 -1.1972
11215TIP3   OH233601   7.915   6.211   5.764 -0.0417 -0.7427 -0.0710
11215TIP3    H133602   7.949   6.193   5.677  1.1586 -0.1399  0.2412
11215TIP3    H233603   7.909   6.307   5.768 -0.3782 -0.7771  0.4065
11216TIP3   OH233604   2.400   4.112   4.730  0.0710 -0.4142  0.4324
11216TIP3    H133605   2.459   4.069   4.792  0.3826 -0.8341 -0.1361
11216TIP3    H233606   2.329   4.146   4.784  1.1254  0.6313  1.2111
11217TIP3   OH233607   7.039   6.200   5.792  0.0116 -0.5327 -0.2017
11217TIP3    H133608   7.089   6.197   5.711  0.8365 -0.2423  0.2823
11217TIP3    H233609   6.950   6.226   5.765  0.5285  0.5767 -0.8979
11218TIP3   OH233610   1.292   3.724   4.830 -0.3446 -0.5227  0.2482
11218TIP3    H133611   1.284   3.801   4.775 -2.5052 -1.9288 -1.5601
11218TIP3    H233612   1.385   3.701   4.826 -0.0945  0.6098 -1.1220
11219TIP3   OH233613   3.498   1.370   3.773  0.0584 -0.2700 -0.3193
11219TIP3    H133614   3.470   1.423   3.699 -2.8038 -0.9844  0.1532
11219TIP3    H233615   3.495   1.280   3.741 -1.1563 -0.5867  0.5969
11220TIP3   OH233616   0.662   2.641   4.730  0.5711 -0.4298 -0.0876
11220TIP3    H133617   0.590   2.597   4.686 -1.2777  2.0373  0.2032
11220TIP3    H233618   0.679   2.589   4.808 -0.8537 -1.1266 -0.2189
11221TIP3   OH233619   1.040   3.329   0.107 -0.1413 -0.2482  0.2586
11221TIP3    H133620   1.060   3.236   0.119 -2.2180 -0.6424  1.2614
11221TIP3    H233621   1.114   3.375   0.147  0.9931 -1.4530 -0.3931
11222TIP3   OH233622   0.447   4.080   5.644  0.0261  0.0142  0.2513
11222TIP3    H133623   0.519   4.120   5.596 -0.3696  0.8500  0.3150
11222TIP3    H233624   0.403   4.155   5.685 -1.6054 -0.3313 -0.7842
11223TIP3   OH233625   6.174   5.232   2.484  0.2774 -0.3474 -0.1540
11223TIP3    H133626   6.087   5.226   2.523  0.6522 -0.5758  0.6521
11223TIP3    H233627   6.222   5.294   2.540  0.7337 -0.4615 -0.4101
11224TIP3   OH233628   6.258   3.375   4.550 -0.4251  0.2186  0.3565
11224TIP3    H133629   6.349   3.368   4.520 -0.2878 -0.4270  0.9169
11224TIP3    H233630   6.247   3.304   4.612 -1.6454 -0.3983 -0.5281
11225TIP3   OH233631   0.213   7.485   0.286 -0.5533 -0.6415  0.3696
11225TIP3    H133632   0.308   7.471   0.291 -0.0845  1.3821 -1.3204
11225TIP3    H233633   0.190   7.522   0.370  0.8362  1.9305 -0.2738
11226TIP3   OH233634   4.917   2.233   1.021 -0.7039  0.1343  0.1084
11226TIP3    H133635   4.823   2.221   1.036 -0.9033  1.2206 -0.1849
11226TIP3    H233636   4.942   2.305   1.079 -0.2982  0.6230 -0.6572
11227TIP3   OH233637   3.642   1.448   3.989  0.2084  0.7461 -0.1076
11227TIP3    H133638   3.609   1.422   3.903 -1.0591  0.0181  0.5659
11227TIP3    H233639   3.593   1.527   4.011 -0.8068 -0.0900  0.7109
11228TIP3   OH233640   4.450   3.001   0.442  0.2117  0.0942  0.6005
11228TIP3    H133641   4.494   2.924   0.406  0.2799 -0.4359  1.7766
11228TIP3    H233642   4.516   3.044   0.495  0.8139  2.1784 -1.6787
11229TIP3   OH233643   8.010   4.807   4.411  0.0543 -0.0851 -0.2581
11229TIP3    H133644   7.970   4.867   4.473  0.7996  1.3829 -1.1334
11229TIP3    H233645   8.094   4.847   4.389  2.0839 -2.9949  1.4662
11230TIP3   OH233646   4.803   0.542   2.410  0.7533 -0.0561 -0.3354
11230TIP3    H133647   4.756   0.493   2.478  0.7779  0.1242 -0.1870
11230TIP3    H233648   4.859   0.476   2.368  2.4087  0.2332  1.2762
11231TIP3   OH233649   2.462   7.008   0.990  0.9081  0.2878 -0.0311
11231TIP3    H133650   2.547   7.052   0.998  1.2023 -0.3655  0.5210
11231TIP3    H233651   2.473   6.926   1.038 -0.0776  0.2501  0.1459
11232TIP3   OH233652   3.009   5.314   6.498  0.3442  0.0145  0.5556
11232TIP3    H133653   2.958   5.385   6.536  0.2268 -0.2396  0.8754
11232TIP3    H233654   2.948   5.240   6.493  0.1793  0.2136 -0.6890
11233TIP3   OH233655   3.486   1.860   2.011  0.4207  0.5171 -0.0651
11233TIP3    H133656   3.445   1.778   1.982  0.0290  1.3192 -1.9282
11233TIP3    H233657   3.458   1.870   2.102  0.2432 -1.2538  0.1195
11234TIP3   OH233658   2.853   4.297   0.035 -0.2329  0.0356  0.2124
11234TIP3    H133659   2.795   4.258  -0.030  0.4823 -0.0255 -0.3970
11234TIP3    H233660   2.836   4.247   0.115 -0.5101 -0.4393 -0.1370
11235TIP3   OH233661   7.348   6.659   4.145 -0.2078  0.2607 -0.0161
11235TIP3    H133662   7.299   6.648   4.227  0.1566 -1.5521  0.0124
11235TIP3    H233663   7.424   6.711   4.170 -0.6272  0.6153  0.5647
11236TIP3   OH233664   4.882   4.065   3.380  0.5563  0.3242 -0.6551
11236TIP3    H133665   4.888   4.071   3.476  0.7826  1.2202 -0.7117
11236TIP3    H233666   4.826   4.138   3.355  1.6039  0.9474 -1.2962
11237TIP3   OH233667   6.351   5.381   2.639  0.6403 -0.3093 -0.2327
11237TIP3    H133668   6.308   5.388   2.724 -1.2258 -1.6827 -0.9964
11237TIP3    H233669   6.381   5.471   2.620 -0.3442  0.3393  1.1415
11238TIP3   OH233670   2.847   3.591   1.660  0.7078 -0.2875  0.3415
11238TIP3    H133671   2.904   3.537   1.716  0.6709 -0.2934  0.3734
11238TIP3    H233672   2.769   3.537   1.646  1.4698 -1.0621 -1.2222
11239TIP3   OH233673   6.244   2.126   0.722  0.1764  0.2831  0.2387
11239TIP3    H133674   6.237   2.177   0.641 -0.8672 -1.1170 -0.6155
11239TIP3    H233675   6.173   2.158   0.777  0.6711  0.9997  0.4701
11240TIP3   OH233676   6.488   6.033   3.522 -0.2604 -0.0101  0.0571
11240TIP3    H133677   6.539   5.972   3.470 -1.2072  0.0616 -1.0025
11240TIP3    H233678   6.551   6.099   3.552  0.5722 -0.9174  0.3192
11241TIP3   OH233679   5.280   4.858   4.410  0.1614 -0.2693  0.7755
11241TIP3    H133680   5.196   4.898   4.386  0.4803 -0.2452 -0.3634
11241TIP3    H233681   5.346   4.920   4.378  0.6356  0.6626  3.3272
11242TIP3   OH233682   5.821   6.303   0.113 -0.0212 -0.3847 -0.0804
11242TIP3    H133683   5.777   6.228   0.153  0.3160 -0.4541  0.1644
11242TIP3    H233684   5.769   6.379   0.140 -0.0934 -0.4842  0.0601
11243TIP3   OH233685   6.367   5.980   0.312  0.0608  0.5901  0.7879
11243TIP3    H133686   6.410   5.941   0.235 -2.2426 -0.1414 -0.2152
11243TIP3    H233687   6.418   5.947   0.386  0.9367 -0.6186 -0.2851
11244TIP3   OH233688   1.626   4.436   2.799  0.4189  0.6754  0.2428
11244TIP3    H133689   1.675   4.354   2.809 -1.5561 -0.5690  0.1606
11244TIP3    H233690   1.603   4.461   2.888 -0.4562  0.1855  0.1620
11245TIP3   OH233691   5.928   6.261   6.418  0.2010  0.0627 -0.2842
11245TIP3    H133692   5.962   6.332   6.363 -0.4874  1.3391  0.8511
11245TIP3    H233693   5.995   6.249   6.485 -1.1109  2.1069  1.5495
11246TIP3   OH233694   6.972   0.809   4.611 -0.3922 -0.0620 -0.0921
11246TIP3    H133695   7.039   0.808   4.680 -1.1841 -0.6922  0.6891
11246TIP3    H233696   6.910   0.740   4.636 -0.9036 -0.0431 -1.2370
11247TIP3   OH233697   3.726   6.756   1.791  0.3852 -0.2567 -0.2712
11247TIP3    H133698   3.791   6.783   1.856  0.0792  0.0941 -0.1063
11247TIP3    H233699   3.750   6.666   1.768 -0.1089 -0.7649  1.0875
11248TIP3   OH233700   5.930   6.731   0.035 -0.6393  0.0091  0.3830
11248TIP3    H133701   5.905   6.675  -0.039  1.1956 -1.6602  0.9695
11248TIP3    H233702   5.932   6.673   0.110  0.0703  1.1354  1.2678
11249TIP3   OH233703   3.644   0.194   6.134  0.5790  0.5872  0.0261
11249TIP3    H133704   3.561   0.239   6.119 -0.0603 -0.2964  0.7361
11249TIP3    H233705   3.660   0.205   6.227 -1.3988 -3.4015  1.0795
11250TIP3   OH233706   1.350   6.978   1.864  0.0268 -0.5021  0.1781
11250TIP3    H133707   1.439   6.944   1.851 -0.0126 -0.0841 -1.4094
11250TIP3    H233708   1.357   7.036   1.939  1.5114  0.8552 -0.9179
11251TIP3   OH233709   6.115   5.017   2.809 -0.5680 -0.5277 -0.1888
11251TIP3    H133710   6.188   5.005   2.749  0.2061  1.9200  0.1521
11251TIP3    H233711   6.051   4.950   2.784  0.6622 -0.9984 -2.2391
11252TIP3   OH233712  -0.004   7.444   3.462 -0.2327  0.3598 -0.1838
11252TIP3    H133713   0.005   7.428   3.556  3.2809  0.5585 -0.3637
11252TIP3    H233714   0.040   7.371   3.421  0.6850  1.6349 -1.5606
11253TIP3   OH233715   7.143   5.038   3.488  0.0486 -0.2580 -0.0497
11253TIP3    H133716   7.052   5.045   3.459  0.4954 -0.8040 -1.6702
11253TIP3    H233717   7.181   4.970   3.433  1.3232 -0.3885  0.9429
11254TIP3   OH233718   0.218   5.979   5.455  0.2237 -0.2480 -0.0834
11254TIP3    H133719   0.127   5.953   5.442  0.4127 -0.6000 -0.7468
11254TIP3    H233720   0.239   5.953   5.545 -0.4510  0.2146  0.2146
11255TIP3   OH233721   5.541   0.257   3.656  0.3749 -0.1457 -0.3638
11255TIP3    H133722   5.507   0.312   3.586 -2.9205  0.0899  1.2495
11255TIP3    H233723   5.538   0.312   3.734 -1.8599 -2.0956  1.0664
11256TIP3   OH233724   2.197   3.964   4.123 -0.2533  0.3154  0.0975
11256TIP3    H133725   2.195   4.059   4.138 -1.0000  0.2536  0.4346
11256TIP3    H233726   2.128   3.930   4.179 -0.8974 -0.2885 -1.0259
11257TIP3   OH233727   6.165   4.557   2.365 -0.6589 -0.2949  0.1763
11257TIP3    H133728   6.134   4.492   2.302  2.2763 -1.8233  0.1427
11257TIP3    H233729   6.181   4.635   2.312  0.5044 -1.1457 -0.7801
11258TIP3   OH233730   0.255   6.817   3.445  0.7289  0.1924 -0.0015
11258TIP3    H133731   0.224   6.857   3.364  0.2225 -1.7309 -0.8010
11258TIP3    H233732   0.250   6.723   3.429  1.8054 -0.2195  1.8303
11259TIP3   OH233733   5.669   5.009   3.598  0.4141 -0.1827  0.1727
11259TIP3    H133734   5.695   4.942   3.536  1.3570  0.6360 -0.3422
11259TIP3    H233735   5.624   5.075   3.546  2.2831  1.1065  0.0881
11260TIP3   OH233736   7.417   5.166   4.191 -0.0771 -0.3038 -0.0608
11260TIP3    H133737   7.393   5.137   4.104 -0.6333  1.0664 -0.3953
11260TIP3    H233738   7.335   5.164   4.241 -0.3701  1.5316 -0.3739
11261TIP3   OH233739   6.291   5.056   2.301  0.5661  0.4360 -0.7048
11261TIP3    H133740   6.379   5.090   2.320 -0.3565  1.3905  2.5657
11261TIP3    H233741   6.235   5.099   2.366 -1.6634 -3.1038 -0.0251
11262TIP3   OH233742   0.362   6.316   1.833  0.1305 -0.2551  0.2636
11262TIP3    H133743   0.286   6.372   1.820  0.9694  0.7630 -0.3639
11262TIP3    H233744   0.339   6.234   1.788 -0.8611 -0.2194  0.6872
11263TIP3   OH233745   5.653   0.903   2.816 -0.4844 -0.0282  0.1056
11263TIP3    H133746   5.670   0.822   2.864 -1.7141  0.5362  1.5477
11263TIP3    H233747   5.623   0.873   2.730  0.7404 -1.0595 -0.0020
11264TIP3   OH233748   3.896   7.374   4.003  0.1490 -0.4384  0.5548
11264TIP3    H133749   3.917   7.379   3.910 -1.8860  0.6866  0.0994
11264TIP3    H233750   3.915   7.461   4.037  1.7010 -1.0750  1.4404
11265TIP3   OH233751   2.531   5.715   5.367 -0.7993  0.2589 -0.4831
11265TIP3    H133752   2.496   5.738   5.281 -2.8670 -1.6524 -0.2578
11265TIP3    H233753   2.482   5.769   5.428 -0.6638  0.2865 -0.3995
11266TIP3   OH233754   5.218   0.114   2.805  0.2855 -0.2502  0.0280
11266TIP3    H133755   5.179   0.038   2.848  0.4086  0.1900  0.9594
11266TIP3    H233756   5.308   0.087   2.785  0.1959 -0.4963 -0.0461
11267TIP3   OH233757   5.469   1.082   5.356  0.4057  0.4337  0.5721
11267TIP3    H133758   5.390   1.135   5.363  1.3586  1.8871  0.7358
11267TIP3    H233759   5.526   1.112   5.427  0.9118 -0.9567  0.7924
11268TIP3   OH233760   7.047   7.169   6.667  0.0769  0.0817 -0.0264
11268TIP3    H133761   6.969   7.160   6.611  0.1026  0.5185 -0.1317
11268TIP3    H233762   7.054   7.263   6.683  0.6560  0.0572 -0.1211
11269TIP3   OH233763   6.552   6.112   4.267  0.0450  0.0208  0.4622
11269TIP3    H133764   6.458   6.110   4.284  0.0782 -0.9929  0.6062
11269TIP3    H233765   6.571   6.203   4.247 -1.1890  0.0173 -0.8360
11270TIP3   OH233766   3.648   6.088   0.133 -0.4114 -0.2207 -0.2359
11270TIP3    H133767   3.632   5.997   0.107 -1.6792  0.4675 -2.0499
11270TIP3    H233768   3.620   6.140   0.058  0.7671  1.6666  0.5598
11271TIP3   OH233769   3.038   4.559   5.626 -0.1270 -0.0191 -0.3261
11271TIP3    H133770   3.100   4.531   5.694 -0.7886  1.6372  1.0265
11271TIP3    H233771   3.004   4.477   5.590 -0.2806 -0.9793  1.8386
11272TIP3   OH233772   6.183   0.553   5.621  0.2461  0.4380  0.1185
11272TIP3    H133773   6.224   0.618   5.565 -0.7079  0.4953 -0.5489
11272TIP3    H233774   6.113   0.600   5.666  0.9585  0.3795  1.3497
11273TIP3   OH233775   8.220   0.338   4.646 -0.2394  0.3294 -0.1141
11273TIP3    H133776   8.299   0.375   4.685  0.3616  0.8234 -1.7020
11273TIP3    H233777   8.153   0.405   4.660 -0.4296 -0.1149  1.2897
11274TIP3   OH233778   4.380   7.078   4.443  0.1206 -0.3131 -0.1596
11274TIP3    H133779   4.340   7.164   4.432 -0.9140 -0.7896 -0.3334
11274TIP3    H233780   4.347   7.046   4.527  0.6383 -0.4670 -0.0098
11275TIP3   OH233781   4.554   3.435   2.363 -0.6006  0.2083 -0.3528
11275TIP3    H133782   4.623   3.417   2.299 -1.6110 -0.1016 -1.3915
11275TIP3    H233783   4.573   3.522   2.396  0.1654  0.2093 -0.7826
11276TIP3   OH233784   6.938   6.613   6.042  0.4217  0.3377  0.6870
11276TIP3    H133785   6.977   6.691   6.083 -0.3179  0.7637  0.5905
11276TIP3    H233786   7.010   6.550   6.040  0.9847  0.9465  0.9451
11277TIP3   OH233787   1.822   0.678   6.363  0.3850 -0.4044 -0.0669
11277TIP3    H133788   1.785   0.649   6.280 -0.1820 -0.8568  0.3421
11277TIP3    H233789   1.748   0.716   6.411  0.3691 -1.5558  0.8613
11278TIP3   OH233790   2.041   0.212   0.615  0.2188  0.3445 -0.6214
11278TIP3    H133791   2.081   0.283   0.665  1.5071 -0.7497 -0.0336
11278TIP3    H233792   1.997   0.159   0.681  1.2173 -0.6414 -0.7100
11279TIP3   OH233793   1.305   4.337   4.534 -0.6782  0.1364  0.0567
11279TIP3    H133794   1.347   4.419   4.508 -0.7822  0.2629  0.2868
11279TIP3    H233795   1.363   4.268   4.501 -0.1473  0.3120  0.6111
11280TIP3   OH233796   4.737   1.580   0.598 -0.3730  0.3030 -0.5849
11280TIP3    H133797   4.822   1.611   0.630 -1.1219  1.3741  0.4497
11280TIP3    H233798   4.676   1.598   0.670 -1.1394 -2.3497 -0.4435
11281TIP3   OH233799   4.169   4.353   2.682 -0.5165 -0.4282  0.4990
11281TIP3    H133800   4.248   4.405   2.701 -0.5734  0.5397 -1.6346
11281TIP3    H233801   4.097   4.414   2.696 -0.6784 -0.3743 -0.4912
11282TIP3   OH233802   1.109   4.347   0.984 -0.2186  0.0022  0.3818
11282TIP3    H133803   1.134   4.273   0.927 -1.6587  0.4535 -0.9211
11282TIP3    H233804   1.180   4.411   0.973  0.5229 -0.7432  0.7036
11283TIP3   OH233805   2.976   4.156   2.411 -0.0768 -0.1858 -0.3464
11283TIP3    H133806   2.964   4.164   2.317 -1.2432 -3.3397 -0.5795
11283TIP3    H233807   3.071   4.148   2.423  0.0049 -0.9838 -1.4060
11284TIP3   OH233808   7.759   6.226   6.187  0.1351 -0.2412 -0.1373
11284TIP3    H133809   7.669   6.212   6.159  0.2173 -1.2069  0.0524
11284TIP3    H233810   7.799   6.139   6.184  0.6735 -0.0605  1.1125
11285TIP3   OH233811   1.625   0.863   6.184  0.0163  0.4679 -0.0042
11285TIP3    H133812   1.587   0.949   6.167  1.3303  0.8390 -1.2481
11285TIP3    H233813   1.673   0.841   6.104  1.3292 -0.5490  1.0107
11286TIP3   OH233814   7.604   5.873   5.016 -0.2535  0.1970  0.3172
11286TIP3    H133815   7.553   5.884   5.097 -0.5242 -1.2431  0.3782
11286TIP3    H233816   7.649   5.957   5.004 -2.2594  1.3643  0.5127
11287TIP3   OH233817   8.015   0.551   3.743  0.1322  0.6888  0.1545
11287TIP3    H133818   8.053   0.535   3.830 -0.1072  0.9646  0.3116
11287TIP3    H233819   8.089   0.542   3.683 -0.4392 -4.1037 -0.1748
11288TIP3   OH233820   1.495   3.481   2.877  0.2538 -0.1490 -0.1596
11288TIP3    H133821   1.554   3.476   2.802  0.6226 -1.0978  0.1727
11288TIP3    H233822   1.549   3.519   2.947  0.6970 -1.5811  0.3198
11289TIP3   OH233823   7.489   3.326   0.006 -0.2991 -0.0094 -0.1789
11289TIP3    H133824   7.444   3.407   0.031 -0.8522 -0.7035  1.1688
11289TIP3    H233825   7.428   3.257   0.032  0.2350 -0.8728 -1.1673
11290TIP3   OH233826   7.110   6.947   0.930 -0.1556  1.0312  0.5557
11290TIP3    H133827   7.084   7.032   0.965 -0.0595  0.2604  2.6849
11290TIP3    H233828   7.185   6.921   0.984 -0.1839 -0.3908 -0.0431
11291TIP3   OH233829   7.954   4.769   5.481 -0.6157  0.5335  0.0922
11291TIP3    H133830   7.938   4.849   5.431  1.1021  1.1724  0.5108
11291TIP3    H233831   7.993   4.799   5.563  1.9726 -0.7846 -0.5474
11292TIP3   OH233832   6.008   6.969   2.205 -0.4440  0.1125  0.6303
11292TIP3    H133833   5.975   7.013   2.127  0.4371 -1.3688 -0.6483
11292TIP3    H233834   6.074   7.029   2.239  0.2845  0.1269 -0.7074
11293TIP3   OH233835   0.160   4.822   2.472 -0.3857  0.5852  0.0458
11293TIP3    H133836   0.216   4.847   2.546  1.6415  0.6830 -1.4305
11293TIP3    H233837   0.126   4.736   2.496 -0.8306  1.1659  1.6319
11294TIP3   OH233838   2.616   1.502   5.147  0.3125 -0.2611 -0.6037
11294TIP3    H133839   2.622   1.566   5.076  3.9472  0.8297  0.4779
11294TIP3    H233840   2.656   1.423   5.111 -1.4944 -1.0796 -0.9597
11295TIP3   OH233841   1.274   0.511   4.161  0.4533  0.9058  0.0958
11295TIP3    H133842   1.273   0.495   4.067 -0.3820  1.5528 -0.0175
11295TIP3    H233843   1.232   0.434   4.200  0.6970  0.6916 -0.0621
11296TIP3   OH233844   6.787   2.395   5.461 -0.0363  0.1649  0.0863
11296TIP3    H133845   6.801   2.452   5.537 -1.5063 -0.7107  1.0639
11296TIP3    H233846   6.842   2.433   5.392  1.7474  0.6866  1.7141
11297TIP3   OH233847   7.008   0.256   0.516 -0.1667 -0.2854  0.1312
11297TIP3    H133848   6.943   0.186   0.521 -1.9019  1.2552  0.8689
11297TIP3    H233849   6.996   0.293   0.428  1.8632 -1.8623 -0.8615
11298TIP3   OH233850   4.134   5.753   4.331 -0.3778  0.2538  0.2587
11298TIP3    H133851   4.135   5.700   4.411  1.6389 -4.2688 -2.4205
11298TIP3    H233852   4.069   5.711   4.275  0.0925  1.7121 -1.4713
11299TIP3   OH233853   2.285   5.541   5.389  0.2422  0.1463 -0.1932
11299TIP3    H133854   2.378   5.563   5.399  0.1935  0.4037 -0.3003
11299TIP3    H233855   2.261   5.500   5.472  0.5548 -0.2914 -0.3169
11300TIP3   OH233856   7.396   4.281   1.632  0.1169 -0.2975  0.3095
11300TIP3    H133857   7.358   4.317   1.712 -0.0098 -0.2550  0.2315
11300TIP3    H233858   7.331   4.300   1.565  0.6484  0.4984  0.0155
11301TIP3   OH233859   6.725   5.930   3.364 -0.3231 -0.2582 -0.3038
11301TIP3    H133860   6.818   5.908   3.363  0.4840  2.0531  3.4401
11301TIP3    H233861   6.682   5.849   3.391  1.0666 -0.5049  1.3521
11302TIP3   OH233862   3.061   0.650   0.690  0.4109  0.2575 -0.1377
11302TIP3    H133863   3.133   0.588   0.681 -0.6386 -0.7000 -3.5343
11302TIP3    H233864   3.089   0.727   0.640 -0.8752 -0.1759 -1.6126
11303TIP3   OH233865   6.495   5.614   6.106  0.0885 -0.3831  0.1420
11303TIP3    H133866   6.496   5.699   6.150 -0.6717  0.1020 -0.7546
11303TIP3    H233867   6.410   5.609   6.064  0.9661 -0.6141 -1.6922
11304TIP3   OH233868   1.715   7.408   0.922  0.2251 -0.1564 -0.0464
11304TIP3    H133869   1.661   7.452   0.987  0.1567  3.3776 -2.2604
11304TIP3    H233870   1.805   7.422   0.951  0.2133  1.7628 -0.7966
11305TIP3   OH233871   5.446   2.006   1.518 -0.1779 -0.3756  0.0556
11305TIP3    H133872   5.482   2.094   1.528  0.1181 -0.3990 -0.7114
11305TIP3    H233873   5.364   2.008   1.566  0.2020  0.0852  0.7015
11306TIP3   OH233874   6.679   1.474   4.794 -0.5605 -0.2819 -0.4095
11306TIP3    H133875   6.751   1.459   4.855  0.6408  0.0281 -1.6920
11306TIP3    H233876   6.699   1.558   4.753 -0.7807 -0.9472 -1.9553
11307TIP3   OH233877   2.539   2.482   6.279 -0.5309  0.0967  0.9072
11307TIP3    H133878   2.633   2.467   6.273 -0.1665  2.3276 -0.0878
11307TIP3    H233879   2.531   2.570   6.315 -2.2635 -0.1400  1.1926
11308TIP3   OH233880   6.054   3.469   6.547 -0.1991 -0.0908 -0.3989
11308TIP3    H133881   6.097   3.385   6.531  0.8477  0.5224 -0.8975
11308TIP3    H233882   6.033   3.502   6.459  0.1096  0.5250 -0.2476
11309TIP3   OH233883   5.208   6.707   1.158  0.3338  0.1706 -0.3180
11309TIP3    H133884   5.290   6.756   1.168 -0.3236  0.9674  1.4848
11309TIP3    H233885   5.198   6.659   1.240 -1.6676  1.1326  0.0486
11310TIP3   OH233886   7.712   6.928   2.988 -0.1957 -0.0274  0.3005
11310TIP3    H133887   7.800   6.906   3.018 -0.3823 -1.4428 -0.1247
11310TIP3    H233888   7.676   6.983   3.057  1.0606  0.6782  0.4208
11311TIP3   OH233889   2.373   3.755   4.202  0.0091 -0.5008  0.1789
11311TIP3    H133890   2.289   3.798   4.185  0.0572 -0.9911 -1.4536
11311TIP3    H233891   2.370   3.675   4.150  1.6113 -0.3783 -0.1552
11312TIP3   OH233892   7.525   6.736   0.842 -0.3416  1.1132  0.2808
11312TIP3    H133893   7.570   6.679   0.905  0.6774 -0.4774 -1.7576
11312TIP3    H233894   7.545   6.825   0.872 -0.0230  0.4362  2.2542
11313TIP3   OH233895   6.381   7.742   4.611 -0.0202  0.5560  0.8139
11313TIP3    H133896   6.313   7.718   4.548  0.0371 -1.3840  1.4274
11313TIP3    H233897   6.386   7.837   4.606  0.0216  0.4741 -2.1346
11314TIP3   OH233898   3.005   6.586   6.754  0.1648  0.1956  0.5617
11314TIP3    H133899   3.076   6.578   6.690  0.4233  0.9217  0.7495
11314TIP3    H233900   2.925   6.565   6.704  0.0181  3.3105 -0.7400
11315TIP3   OH233901   5.555   1.162   2.649 -0.5172  0.4343 -0.5219
11315TIP3    H133902   5.610   1.166   2.571 -1.3796 -0.9855 -1.2398
11315TIP3    H233903   5.612   1.125   2.717 -0.1050  0.5366 -0.8133
11316TIP3   OH233904   5.621   4.038   5.004 -0.2298  0.6511  0.3831
11316TIP3    H133905   5.647   4.114   4.951 -0.0877  1.1423  1.1394
11316TIP3    H233906   5.687   4.034   5.073 -0.4526  0.0597  0.5660
11317TIP3   OH233907   8.234   1.446   2.185  0.5883 -0.3564 -0.9478
11317TIP3    H133908   8.173   1.494   2.129 -0.5976  1.6897  1.8254
11317TIP3    H233909   8.188   1.364   2.205  0.1243 -0.1963 -1.3273
11318TIP3   OH233910   4.819   6.004   4.476 -0.1842 -0.1608  0.1007
11318TIP3    H133911   4.886   6.017   4.410  0.3147 -2.7459 -0.0008
11318TIP3    H233912   4.744   5.967   4.428 -0.6630  0.1160  0.6208
11319TIP3   OH233913   6.684   1.188   0.177  0.4179  0.1216 -0.3519
11319TIP3    H133914   6.623   1.235   0.120  0.3123 -0.1244 -0.4430
11319TIP3    H233915   6.670   1.225   0.264  0.7502  0.6678 -0.5280
11320TIP3   OH233916   1.840   2.756   2.707 -0.0349 -0.1362 -0.3114
11320TIP3    H133917   1.850   2.851   2.707 -0.8998  0.0197  1.7546
11320TIP3    H233918   1.906   2.725   2.646  0.5892  1.7574 -0.6750
11321TIP3   OH233919   6.327   1.659   1.805  0.3326 -0.0868  0.0846
11321TIP3    H133920   6.337   1.683   1.897 -0.4431 -0.7164  0.3392
11321TIP3    H233921   6.233   1.656   1.791  0.4017  1.6883 -1.1919
11322TIP3   OH233922   3.550   5.213   6.623  0.5241 -0.4391 -0.3480
11322TIP3    H133923   3.457   5.193   6.634  0.7845 -1.2675  0.4650
11322TIP3    H233924   3.589   5.128   6.601  1.1495 -0.1747 -0.2534
11323TIP3   OH233925   0.834   5.180   1.717 -0.3744  0.4723  0.4097
11323TIP3    H133926   0.867   5.227   1.793 -0.1094 -2.3770  2.1993
11323TIP3    H233927   0.767   5.237   1.680  1.8088  3.4334  0.6685
11324TIP3   OH233928   2.120   3.519   4.333  0.5940  0.2285 -0.3966
11324TIP3    H133929   2.143   3.426   4.334  0.6448  0.2357 -0.7741
11324TIP3    H233930   2.204   3.565   4.336  0.5259  0.2869  1.8094
11325TIP3   OH233931   5.647   3.522   1.477 -0.3277  0.1240 -0.3540
11325TIP3    H133932   5.722   3.576   1.449  0.1271  0.9488  2.1518
11325TIP3    H233933   5.671   3.433   1.452  0.2404  0.6829 -1.9702
11326TIP3   OH233934   6.534   7.793   0.423  0.0160  0.9857 -0.1866
11326TIP3    H133935   6.557   7.848   0.349 -0.3107  0.9205 -0.3389
11326TIP3    H233936   6.617   7.751   0.449  0.2921  1.6485  0.0183
11327TIP3   OH233937   4.352   6.962   2.845  0.3037  0.2506  0.3014
11327TIP3    H133938   4.418   6.998   2.904  1.1783 -1.6209  0.5693
11327TIP3    H233939   4.273   6.956   2.898  0.6234  0.1593  0.7788
11328TIP3   OH233940   5.286   7.374   0.339 -0.5195 -0.0634  0.3161
11328TIP3    H133941   5.377   7.351   0.360 -0.2596  0.9110  0.3190
11328TIP3    H233942   5.277   7.465   0.367 -0.6988  0.7373 -2.0595
11329TIP3   OH233943   3.481   5.196   6.151 -0.0638  0.2232  0.1401
11329TIP3    H133944   3.522   5.271   6.194  1.0409  0.7928 -1.7564
11329TIP3    H233945   3.533   5.121   6.179  0.9823  0.6581 -0.5262
11330TIP3   OH233946   5.049   5.055   6.132  0.7493 -0.2229 -0.3102
11330TIP3    H133947   5.072   5.145   6.107  1.2628  0.1357  1.3510
11330TIP3    H233948   4.967   5.038   6.086  0.2169  1.3971 -0.0139
11331TIP3   OH233949   1.777   0.267   5.989 -0.2705  0.3114  0.4150
11331TIP3    H133950   1.813   0.354   6.006 -0.1920 -0.0939  2.6020
11331TIP3    H233951   1.703   0.259   6.049 -0.7014 -0.8934 -0.2314
11332TIP3   OH233952   3.368   3.710   6.268  0.3158 -0.2907  0.4089
11332TIP3    H133953   3.366   3.654   6.190  0.7330 -0.0340  0.2026
11332TIP3    H233954   3.284   3.697   6.310  0.7723 -1.8215  0.9096
11333TIP3   OH233955   7.218   2.085   2.269 -0.0682  0.1499  0.1400
11333TIP3    H133956   7.290   2.106   2.327 -0.1392  1.7673 -0.3129
11333TIP3    H233957   7.179   2.170   2.246 -1.0208 -0.5513 -1.0000
11334TIP3   OH233958   8.076   7.205   3.674 -0.2632  0.3571  0.6898
11334TIP3    H133959   8.139   7.276   3.684 -0.1911  0.1809  1.5693
11334TIP3    H233960   8.029   7.203   3.757  0.7360 -1.5775  1.2568
11335TIP3   OH233961   7.633   4.844   0.299 -0.0805  0.0981  0.6447
11335TIP3    H133962   7.553   4.812   0.341 -0.0854  0.9721  1.3130
11335TIP3    H233963   7.602   4.902   0.229 -0.0281  0.7501  1.1594
11336TIP3   OH233964   8.154   1.350   0.482 -0.6686 -0.4295  0.3998
11336TIP3    H133965   8.094   1.399   0.425 -2.2678 -1.6688  0.9465
11336TIP3    H233966   8.148   1.395   0.567  0.1435  0.1816  0.1444
11337TIP3   OH233967   5.189   6.548   3.468  0.0464 -0.6277  0.1017
11337TIP3    H133968   5.248   6.497   3.524  0.0046 -2.1564 -1.1745
11337TIP3    H233969   5.113   6.491   3.456 -0.7785  0.4649  0.0300
11338TIP3   OH233970   5.924   7.634   4.623  0.0102  0.1681 -0.0944
11338TIP3    H133971   6.018   7.625   4.604  0.1949  0.2765  0.7338
11338TIP3    H233972   5.917   7.715   4.673 -0.2347 -0.8269  1.5669
11339TIP3   OH233973   6.950   5.901   5.676  0.0292  0.1952  0.3569
11339TIP3    H133974   6.896   5.935   5.747 -1.1508 -1.7099  0.4522
11339TIP3    H233975   6.979   5.815   5.708  1.0848  0.1354 -0.6978
11340TIP3   OH233976   2.183   5.007   1.812 -0.6914  0.1379  0.2610
11340TIP3    H133977   2.211   5.063   1.740  0.1094  0.1290  0.5542
11340TIP3    H233978   2.089   4.997   1.800 -0.6670  0.6712 -0.4042
11341TIP3   OH233979   5.728   6.041   5.106  0.5078  0.1761  0.3001
11341TIP3    H133980   5.771   6.021   5.189  1.6268 -0.5853 -0.4300
11341TIP3    H233981   5.723   5.957   5.061 -2.4756  0.0667  0.6234
11342TIP3   OH233982   6.378   6.202   2.594  0.2252 -0.4787  0.1447
11342TIP3    H133983   6.410   6.202   2.685  1.1942  1.0070 -0.1718
11342TIP3    H233984   6.428   6.133   2.551 -0.0151 -0.9763  0.6421
11343TIP3   OH233985   5.937   2.715   3.006  0.3519  0.0228  0.3568
11343TIP3    H133986   5.935   2.700   3.100  1.6465  2.6900  0.9069
11343TIP3    H233987   5.909   2.806   2.995 -0.9115 -0.5503 -1.9789
11344TIP3   OH233988   0.185   6.295   1.293 -0.1083 -0.3499  0.2893
11344TIP3    H133989   0.106   6.328   1.250  1.2709  0.9639 -1.3830
11344TIP3    H233990   0.223   6.371   1.335  1.9954 -0.1173 -1.8085
11345TIP3   OH233991   7.843   0.699   4.779 -0.6053 -0.3050  0.3952
11345TIP3    H133992   7.821   0.778   4.828 -0.7191  0.4955 -0.9076
11345TIP3    H233993   7.793   0.629   4.822 -1.1297  0.4644  1.0580
11346TIP3   OH233994   7.049   2.297   3.833 -0.2862  0.3075  0.2838
11346TIP3    H133995   7.005   2.329   3.912  2.1096  0.7382  1.5112
11346TIP3    H233996   7.021   2.358   3.764 -1.0531  0.9789  1.1612
11347TIP3   OH233997   6.713   5.946   6.739 -0.0179  0.1029 -0.1124
11347TIP3    H133998   6.672   5.918   6.657 -2.2253 -0.4999  1.1205
11347TIP3    H233999   6.663   6.022   6.767  1.8884  1.4528 -0.1959
11348TIP3   OH234000   5.483   1.803   2.640 -0.2026 -0.1711  0.0545
11348TIP3    H134001   5.565   1.847   2.618 -0.8656  0.5416 -1.1183
11348TIP3    H234002   5.430   1.871   2.682 -0.5814 -0.3250 -0.1659
11349TIP3   OH234003   2.901   7.250   1.286  0.0730  0.0531  0.2315
11349TIP3    H134004   2.819   7.290   1.314  0.4046  0.2360  0.9972
11349TIP3    H234005   2.950   7.322   1.245  0.0770  0.0815  0.2857
11350TIP3   OH234006   6.703   2.560   1.065  0.0392 -0.4920 -0.4776
11350TIP3    H134007   6.778   2.552   1.006 -0.9268  0.0077 -1.8138
11350TIP3    H234008   6.658   2.639   1.037 -0.2100  0.0308  1.2553
11351TIP3   OH234009   2.735   4.830   0.803 -0.3728  0.0866 -0.2105
11351TIP3    H134010   2.726   4.809   0.710  0.0655  0.3918 -0.3218
11351TIP3    H234011   2.663   4.891   0.820  0.4294  1.2036 -0.7097
11352TIP3   OH234012   0.843   6.236   0.435 -0.1133  0.3843  0.3447
11352TIP3    H134013   0.924   6.267   0.396 -1.3915 -0.1642 -3.0740
11352TIP3    H234014   0.783   6.311   0.431 -1.0760 -0.4065 -1.4431
11353TIP3   OH234015   3.062   4.727   5.295  0.3746 -0.3720 -0.1841
11353TIP3    H134016   3.081   4.686   5.210 -1.1677 -0.4542 -0.5269
11353TIP3    H234017   3.110   4.810   5.293 -0.5030  0.1416 -1.6332
11354TIP3   OH234018   7.550   5.663   2.274 -0.4364  0.5664  0.6160
11354TIP3    H134019   7.471   5.697   2.315 -0.7242  1.0099 -0.2701
11354TIP3    H234020   7.541   5.687   2.182  1.4181  1.9336  0.7342
11355TIP3   OH234021   3.662   3.521   6.698  0.8774 -0.3515  0.4763
11355TIP3    H134022   3.669   3.548   6.606 -1.6244  0.7732  0.5298
11355TIP3    H234023   3.571   3.492   6.707  1.6565 -2.4961  2.1205
11356TIP3   OH234024   7.213   4.426   5.474  0.2442 -0.5168  0.2266
11356TIP3    H134025   7.239   4.351   5.421 -0.3398  0.0255 -0.8548
11356TIP3    H234026   7.192   4.495   5.411 -1.0539 -0.0414  1.1168
11357TIP3   OH234027   5.028   4.332   3.799 -0.2800  0.0020 -0.5499
11357TIP3    H134028   4.951   4.328   3.856  1.1070  2.2918  1.7291
11357TIP3    H234029   5.004   4.281   3.722 -1.9977 -4.1531  2.3580
11358TIP3   OH234030   7.468   7.102   6.174 -0.1003 -0.5982  0.2430
11358TIP3    H134031   7.563   7.106   6.184 -0.0640 -0.2913 -0.2257
11358TIP3    H234032   7.436   7.178   6.222 -0.1753 -1.1599  1.1208
11359TIP3   OH234033   8.278   0.579   1.023 -0.3562 -0.1707  0.1041
11359TIP3    H134034   8.204   0.582   1.084 -1.0989 -0.7763 -0.7446
11359TIP3    H234035   8.340   0.519   1.064  0.7660  2.1196  1.9771
11360TIP3   OH234036   4.377   4.508   5.069 -0.0963  0.0019  0.0640
11360TIP3    H134037   4.288   4.519   5.036 -0.5970 -0.7079  1.1335
11360TIP3    H234038   4.421   4.590   5.047 -1.3458  0.8216  0.5284
11361TIP3   OH234039   6.389   6.313   0.043  0.4222  0.1733 -0.0886
11361TIP3    H134040   6.405   6.394  -0.006  2.2730  1.1140  1.9289
11361TIP3    H234041   6.476   6.282   0.067 -0.1701 -2.8607 -1.3522
11362TIP3   OH234042   1.208   7.425   6.555  0.3299 -0.0214  0.0523
11362TIP3    H134043   1.297   7.454   6.573  0.3652 -0.6224  0.9163
11362TIP3    H234044   1.216   7.331   6.538  0.3391  0.4848 -3.5919
11363TIP3   OH234045   4.234   4.144   0.531 -0.3541  0.0587  0.5229
11363TIP3    H134046   4.219   4.094   0.451 -1.0711  2.4071 -0.8797
11363TIP3    H234047   4.200   4.088   0.601 -0.9976 -1.4430 -0.9386
11364TIP3   OH234048   6.218   2.563   5.387 -0.1328  0.0710 -0.3308
11364TIP3    H134049   6.179   2.642   5.424  0.6427 -0.1862  1.0984
11364TIP3    H234050   6.289   2.595   5.332  1.2764  0.3560  1.5703
11365TIP3   OH234051   4.932   5.339   4.078  0.2863  0.0073 -0.9185
11365TIP3    H134052   4.844   5.303   4.067  0.6829 -1.5134  0.5422
11365TIP3    H234053   4.984   5.296   4.010  1.1563 -3.8096  1.8733
11366TIP3   OH234054   0.577   3.056   3.510 -0.3896  0.0958 -0.4778
11366TIP3    H134055   0.576   3.073   3.604 -0.8287 -1.7424 -0.1242
11366TIP3    H234056   0.564   3.142   3.470 -1.4839  0.7295  1.1542
11367TIP3   OH234057   2.271   6.685   0.802 -0.2973 -0.2474 -0.4769
11367TIP3    H134058   2.252   6.774   0.771  1.0983 -0.1878 -1.2564
11367TIP3    H234059   2.356   6.664   0.763  0.1174 -1.3467  0.9361
11368TIP3   OH234060   1.263   4.035   4.486  0.5525 -0.2265  0.1843
11368TIP3    H134061   1.183   4.088   4.491  0.3809 -0.5906  1.7141
11368TIP3    H234062   1.308   4.066   4.407 -0.6518  0.6077 -0.1971
11369TIP3   OH234063   7.129   4.025   0.893 -0.7442  0.1761 -0.0360
11369TIP3    H134064   7.148   4.034   0.987 -3.1225  0.5482  0.4609
11369TIP3    H234065   7.054   3.965   0.889 -1.1240  0.7097 -1.6552
11370TIP3   OH234066   3.686   1.490   3.128  0.1352  0.3557 -0.0980
11370TIP3    H134067   3.702   1.513   3.219  0.5973 -0.8814  0.1543
11370TIP3    H234068   3.674   1.395   3.128 -0.7345  0.4361 -1.2136
11371TIP3   OH234069   7.751   0.216   4.457 -0.1828  0.4616 -0.6115
11371TIP3    H134070   7.836   0.191   4.493 -0.2597 -0.2971 -0.9300
11371TIP3    H234071   7.726   0.294   4.506  0.0302 -0.1479  0.5012
11372TIP3   OH234072   7.422   6.185   3.622 -0.0543 -0.3253  0.0467
11372TIP3    H134073   7.442   6.128   3.696 -0.4273  0.6117  0.8842
11372TIP3    H234074   7.473   6.265   3.638  3.2973 -1.5993 -2.8697
11373TIP3   OH234075   4.869   6.100   6.395  0.2845 -0.2925  0.1736
11373TIP3    H134076   4.851   6.131   6.306 -0.7797  0.8544  0.7584
11373TIP3    H234077   4.867   6.179   6.449 -2.1189 -1.2539  1.6751
11374TIP3   OH234078   4.102   6.989   1.351 -0.2744 -0.1543  0.3595
11374TIP3    H134079   4.155   7.059   1.312  0.2519 -1.6934 -1.8690
11374TIP3    H234080   4.110   7.003   1.446  1.8228  1.3265  0.0270
11375TIP3   OH234081   1.247   0.301   0.403  0.6656  1.0978  0.8242
11375TIP3    H134082   1.207   0.253   0.476  1.0765  0.1079  0.4208
11375TIP3    H234083   1.305   0.364   0.444  3.0524 -1.2828  1.4296
11376TIP3   OH234084   2.365   2.069   2.925 -0.1840 -0.2353  0.5647
11376TIP3    H134085   2.452   2.036   2.904 -0.4483 -0.5483 -0.0789
11376TIP3    H234086   2.354   2.049   3.018  0.6949  0.4332  0.8235
11377TIP3   OH234087   6.419   4.674   4.448 -0.1079  0.2399 -0.1305
11377TIP3    H134088   6.436   4.749   4.506 -0.9502  0.1306  0.2576
11377TIP3    H234089   6.359   4.709   4.381  0.2967  0.1730 -0.5360
11378TIP3   OH234090   2.648   4.885   5.891 -0.1287 -0.5458  0.2623
11378TIP3    H134091   2.657   4.828   5.968 -0.1029  0.8694  1.3366
11378TIP3    H234092   2.597   4.832   5.829 -1.8158 -1.0549  1.9679
11379TIP3   OH234093   0.842   4.916   5.589 -0.4662  0.5253  0.0722
11379TIP3    H134094   0.777   4.864   5.637 -0.2528 -0.2005 -0.4119
11379TIP3    H234095   0.885   4.968   5.657 -0.6877  0.0708  0.5692
11380TIP3   OH234096   5.578   1.203   5.721 -0.8482  0.4115  1.0077
11380TIP3    H134097   5.583   1.110   5.700 -0.6058  0.4829  0.7459
11380TIP3    H234098   5.486   1.217   5.745 -0.4138 -0.4032  3.4467
11381TIP3   OH234099   4.081   1.231   5.678  0.1312 -0.1061  0.3625
11381TIP3    H134100   4.034   1.314   5.668  0.4535 -0.0246 -0.5851
11381TIP3    H234101   4.019   1.173   5.722 -0.1156  0.6126  0.9966
11382TIP3   OH234102   4.508   2.698   3.053  0.0943  0.2898 -0.1488
11382TIP3    H134103   4.539   2.616   3.015 -0.2394  0.2062 -0.2483
11382TIP3    H234104   4.430   2.673   3.103 -0.2766  0.6143 -0.5565
11383TIP3   OH234105   0.535   2.854   6.489 -0.1409  0.3244  0.2564
11383TIP3    H134106   0.564   2.879   6.401 -0.1469  0.1091  0.1923
11383TIP3    H234107   0.545   2.759   6.492 -2.3501  0.0226 -0.3360
11384TIP3   OH234108   3.786   4.098   1.586 -0.3005  0.5167 -0.3866
11384TIP3    H134109   3.804   4.008   1.557 -0.5278 -0.0939  1.2679
11384TIP3    H234110   3.724   4.132   1.521  0.5226 -0.1619 -1.5766
11385TIP3   OH234111   2.208   4.214   4.906 -0.2582  0.6623 -0.6355
11385TIP3    H134112   2.221   4.302   4.941  0.7586 -0.2611  1.4987
11385TIP3    H234113   2.132   4.180   4.954 -0.8302  0.4513 -1.6602
11386TIP3   OH234114   6.225   5.096   6.036  0.4851  0.1825 -0.2126
11386TIP3    H134115   6.260   5.021   5.988 -1.0934  0.7024 -2.3256
11386TIP3    H234116   6.184   5.058   6.113 -0.0066 -1.1207 -1.0750
11387TIP3   OH234117   1.973   4.521   5.574  0.1935 -0.3898 -0.1933
11387TIP3    H134118   2.068   4.519   5.586  0.0058 -0.4339  1.5485
11387TIP3    H234119   1.961   4.553   5.485  1.8503 -1.0059 -0.6778
11388TIP3   OH234120   0.190   4.258   1.857  0.0681 -0.0224 -0.2441
11388TIP3    H134121   0.159   4.275   1.768 -0.4820  1.8454  0.2637
11388TIP3    H234122   0.242   4.335   1.879 -0.1959 -0.2486  1.2262
11389TIP3   OH234123   6.934   4.998   0.202  0.6726  0.0416 -0.0749
11389TIP3    H134124   6.944   5.084   0.162  0.9201  0.5549  1.0562
11389TIP3    H234125   6.965   5.009   0.292  0.3780 -1.1396  0.1936
11390TIP3   OH234126   7.676   7.168   5.645  0.4924  0.1209 -0.0097
11390TIP3    H134127   7.693   7.257   5.615  0.6252 -0.2756 -1.1652
11390TIP3    H234128   7.748   7.149   5.705  1.4019  0.2232 -1.0338
11391TIP3   OH234129   6.073   4.664   1.572  0.3848  0.5498 -0.0996
11391TIP3    H134130   5.993   4.640   1.619  1.5247 -0.0598  1.6616
11391TIP3    H234131   6.124   4.713   1.637  1.8928 -0.0135 -0.8149
11392TIP3   OH234132   5.852   4.684   0.530 -0.0368  0.2252  0.2255
11392TIP3    H134133   5.917   4.754   0.522 -1.3198  1.7095  1.9046
11392TIP3    H234134   5.845   4.647   0.442  0.1286  2.7296 -0.9130
11393TIP3   OH234135   1.672   7.208   3.868 -0.3204  0.3394  0.4006
11393TIP3    H134136   1.645   7.254   3.947 -1.3336  0.4166  0.0394
11393TIP3    H234137   1.698   7.277   3.807  0.2620  0.2939  0.6004
11394TIP3   OH234138   6.365   4.887   3.246  0.1397 -0.0823 -0.1403
11394TIP3    H134139   6.320   4.889   3.162  0.3746  0.9615 -0.2605
11394TIP3    H234140   6.458   4.897   3.223  0.0946  1.7059  0.2901
11395TIP3   OH234141   0.484   1.742   4.718 -0.4359 -0.1375  0.4599
11395TIP3    H134142   0.532   1.809   4.668 -1.4114  0.9269  0.8895
11395TIP3    H234143   0.457   1.787   4.798 -0.2020 -1.3810  1.2541
11396TIP3   OH234144   3.180   6.544   0.475  0.3604  0.3148 -0.4886
11396TIP3    H134145   3.181   6.623   0.529  0.9795  0.1228 -0.2142
11396TIP3    H234146   3.235   6.566   0.400 -0.4934  0.5793 -1.0521
11397TIP3   OH234147   6.599   1.311   3.045  0.1110  0.2388  0.6748
11397TIP3    H134148   6.580   1.259   2.967 -0.1645 -0.4005  1.1597
11397TIP3    H234149   6.679   1.359   3.023  2.1298 -2.5924  1.2360
11398TIP3   OH234150   3.420   3.924   6.603 -0.4022  0.1984  0.3409
11398TIP3    H134151   3.426   4.004   6.655 -0.1566  0.6756 -0.4021
11398TIP3    H234152   3.353   3.871   6.647 -1.5246  1.3795  0.0973
11399TIP3   OH234153   1.122   3.946   3.703 -0.0762  0.1981  0.5333
11399TIP3    H134154   1.206   3.915   3.736 -0.0797 -0.4103 -0.0086
11399TIP3    H234155   1.126   3.932   3.609 -1.1360 -0.7231  0.5962
11400TIP3   OH234156   7.345   3.636   4.619 -0.4164  0.3652  0.4311
11400TIP3    H134157   7.295   3.582   4.558 -0.1481 -0.8468  1.2579
11400TIP3    H234158   7.280   3.692   4.661 -1.1123 -1.1234  1.4259
11401TIP3   OH234159   3.982   7.293   6.665 -0.1752 -0.2151 -0.1494
11401TIP3    H134160   3.901   7.318   6.710 -0.0605  1.9251 -1.0401
11401TIP3    H234161   3.953   7.240   6.591 -0.8533  0.9846 -0.7795
11402TIP3   OH234162   8.008   3.677   2.208  0.0122 -0.1203  0.1545
11402TIP3    H134163   8.099   3.708   2.208  0.8327 -2.3370 -0.4804
11402TIP3    H234164   7.962   3.739   2.151  1.5169  0.0616 -0.9301
11403TIP3   OH234165   2.719   1.566   4.526 -0.1693 -0.4008  0.0192
11403TIP3    H134166   2.658   1.517   4.472  1.0329 -2.6540  0.5748
11403TIP3    H234167   2.796   1.577   4.471 -0.1695  0.2560  0.1431
11404TIP3   OH234168   0.030   2.890   5.375  0.0608 -0.6913 -0.7594
11404TIP3    H134169   0.090   2.817   5.365  1.1742 -0.0688  0.9981
11404TIP3    H234170  -0.043   2.855   5.426 -0.2266 -0.9962 -1.3742
11405TIP3   OH234171   3.922   5.337   4.427  0.0266 -0.1255  0.7464
11405TIP3    H134172   3.920   5.356   4.333 -2.0713 -1.7961  0.3760
11405TIP3    H234173   3.999   5.280   4.438 -0.5619 -1.1667 -0.2652
11406TIP3   OH234174   2.035   5.517   2.771 -0.4345  0.0464 -0.0163
11406TIP3    H134175   1.943   5.501   2.751 -0.3525  1.5683 -1.8574
11406TIP3    H234176   2.062   5.585   2.709  2.4137 -1.5677 -0.7245
11407TIP3   OH234177   2.063   6.510   5.335 -0.3734 -0.0645  0.1295
11407TIP3    H134178   1.973   6.495   5.365 -0.6988  0.1385 -0.7404
11407TIP3    H234179   2.098   6.422   5.321 -1.4115 -0.1574 -2.3755
11408TIP3   OH234180   4.067   5.792   3.050 -0.5031  0.6177  0.0847
11408TIP3    H134181   4.084   5.818   3.141 -0.1237  1.3037 -0.1770
11408TIP3    H234182   4.148   5.750   3.022 -1.2430 -1.2740  0.6287
11409TIP3   OH234183   0.371   6.334   5.895  0.2081  0.3611  0.4354
11409TIP3    H134184   0.278   6.310   5.898  0.0325  1.1419  1.6805
11409TIP3    H234185   0.408   6.295   5.973  0.8764  0.3183  0.1020
11410TIP3   OH234186   1.052   5.974   6.150 -0.5912  0.7195 -0.2418
11410TIP3    H134187   1.071   6.030   6.074 -0.1531 -1.1013 -1.5408
11410TIP3    H234188   1.087   6.023   6.224  1.8526  1.1885 -1.5885
11411TIP3   OH234189   4.718   2.489   6.487 -0.1385  0.2178  0.4394
11411TIP3    H134190   4.681   2.459   6.404 -0.7000 -0.7149  1.0123
11411TIP3    H234191   4.802   2.528   6.463 -0.4010  0.1737 -0.5926
11412TIP3   OH234192   1.389   6.791   1.596  0.2148  0.4187  0.5887
11412TIP3    H134193   1.315   6.851   1.608  1.3610  1.6919  1.4618
11412TIP3    H234194   1.403   6.753   1.682  0.8215  0.4719  0.5158
11413TIP3   OH234195   7.294   7.612   1.432 -0.2584 -0.3899  0.0458
11413TIP3    H134196   7.315   7.698   1.395  2.6422 -0.8740  0.3198
11413TIP3    H234197   7.345   7.551   1.378  2.4317 -1.3210  3.3132
11414TIP3   OH234198   4.913   6.536   3.222  0.5071  0.0390 -0.8069
11414TIP3    H134199   4.850   6.504   3.286  2.5553  0.0085  1.3377
11414TIP3    H234200   4.921   6.629   3.239  0.1870  0.2825 -1.8840
11415TIP3   OH234201   5.817   4.800   3.417 -0.0895  0.2788 -0.4690
11415TIP3    H134202   5.900   4.834   3.386 -0.7068 -0.0159 -2.6539
11415TIP3    H234203   5.830   4.705   3.420 -0.3830  0.2160 -1.0124
11416TIP3   OH234204   2.689   2.098   0.888 -0.4286  0.1312 -0.3447
11416TIP3    H134205   2.722   2.050   0.964  1.6523  1.2264 -0.4830
11416TIP3    H234206   2.718   2.188   0.901 -1.5805  0.7257 -1.5834
11417TIP3   OH234207   2.847   0.192   3.942 -0.2790  0.3898 -0.2683
11417TIP3    H134208   2.862   0.155   3.855  1.1995  1.2309 -0.4181
11417TIP3    H234209   2.789   0.266   3.927  1.2625  1.5504 -0.8428
11418TIP3   OH234210   4.156   5.084   3.345  0.2983 -0.1455  0.4631
11418TIP3    H134211   4.144   5.065   3.438 -0.7868  1.0908  0.6081
11418TIP3    H234212   4.067   5.088   3.309  0.6573 -4.3099 -1.5101
11419TIP3   OH234213   2.729   5.624   5.691 -0.1313  0.4342 -0.1103
11419TIP3    H134214   2.702   5.569   5.617  0.6121 -0.6246  0.3821
11419TIP3    H234215   2.823   5.606   5.701 -0.4720 -0.4986  1.9385
11420TIP3   OH234216   7.648   0.747   6.590  0.3458 -0.7476  0.0758
11420TIP3    H134217   7.670   0.735   6.497 -0.7285 -1.1919 -0.1340
11420TIP3    H234218   7.553   0.748   6.592  0.3636 -0.4787  1.1535
11421TIP3   OH234219   4.778   3.905   6.118  0.6425 -0.4426 -0.4378
11421TIP3    H134220   4.748   3.815   6.105  1.8000 -0.9062 -0.0161
11421TIP3    H234221   4.811   3.907   6.208  1.6574  0.1014 -0.8120
11422TIP3   OH234222   6.709   0.179   2.378  0.6656 -0.1348  0.0207
11422TIP3    H134223   6.719   0.195   2.472  0.2193 -1.0166  0.2271
11422TIP3    H234224   6.726   0.086   2.368 -2.9516 -0.8999 -0.2097
11423TIP3   OH234225   2.333   0.093   6.412  0.0482  0.4557 -0.2760
11423TIP3    H134226   2.417   0.057   6.440 -0.0077  1.6462  1.5958
11423TIP3    H234227   2.354   0.179   6.377 -0.4949  1.4244  1.6502
11424TIP3   OH234228   3.148   0.758   1.649 -0.2078 -0.7318 -0.6736
11424TIP3    H134229   3.186   0.773   1.562  0.7271 -0.6022 -0.2590
11424TIP3    H234230   3.109   0.842   1.672 -1.1520 -0.9881 -1.2862
11425TIP3   OH234231   8.192   1.451   3.346  0.5694  0.4023  0.1787
11425TIP3    H134232   8.195   1.357   3.365  2.0505  0.5373  0.6916
11425TIP3    H234233   8.223   1.493   3.426  1.6713  1.2375 -0.6555
11426TIP3   OH234234   6.386   3.973   6.091  0.0890 -0.2402 -0.4493
11426TIP3    H134235   6.304   3.977   6.041  0.4728  1.0263 -0.9980
11426TIP3    H234236   6.449   3.935   6.029 -0.0578 -1.1978 -0.0326
11427TIP3   OH234237   3.560   0.324   1.712  0.2330  0.3589 -0.4842
11427TIP3    H134238   3.607   0.385   1.656 -0.0324  1.8447  0.8508
11427TIP3    H234239   3.468   0.331   1.683  0.4881 -1.2023 -1.8757
11428TIP3   OH234240   4.229   7.180   4.084  0.0414  0.4672  0.7034
11428TIP3    H134241   4.225   7.274   4.104 -0.1438  0.8930 -1.1142
11428TIP3    H234242   4.284   7.175   4.005 -0.1732 -0.9315  0.6178
11429TIP3   OH234243   4.969   3.724   3.783  0.3855  0.3451  0.2760
11429TIP3    H134244   4.986   3.729   3.690  0.0929 -1.1326  0.1094
11429TIP3    H234245   5.051   3.748   3.825  0.5784  0.8058 -0.3627
11430TIP3   OH234246   1.365   5.826   3.755  0.4424 -0.1488 -0.3385
11430TIP3    H134247   1.340   5.842   3.664 -2.5999 -1.2671  0.1863
11430TIP3    H234248   1.408   5.740   3.752 -0.0607 -0.3978 -0.6912
11431TIP3   OH234249   3.626   5.312   4.087 -0.2836  0.2251 -0.5269
11431TIP3    H134250   3.557   5.284   4.026 -0.6334 -0.5238  0.2005
11431TIP3    H234251   3.679   5.233   4.101 -1.2872 -0.1466  1.5664
11432TIP3   OH234252   8.287   4.225   5.716  0.2333 -0.5140  0.1077
11432TIP3    H134253   8.238   4.305   5.734  0.2374 -0.3965 -0.3787
11432TIP3    H234254   8.225   4.168   5.670  0.6372 -0.2320 -0.8130
11433TIP3   OH234255   7.162   3.810   2.210 -0.7367 -0.1497  0.2354
11433TIP3    H134256   7.078   3.792   2.253 -2.1116  1.9072 -1.3413
11433TIP3    H234257   7.166   3.906   2.206  0.4814 -0.2393 -1.9407
11434TIP3   OH234258   3.511   7.445   4.157 -0.1933  0.2272 -0.6498
11434TIP3    H134259   3.490   7.406   4.072 -1.3199  1.1723 -0.8238
11434TIP3    H234260   3.551   7.529   4.135  1.5200 -0.4272 -0.2582
11435TIP3   OH234261   0.144   0.254   2.316 -0.0238 -0.0648  0.2009
11435TIP3    H134262   0.100   0.175   2.347  0.9234 -0.9011 -0.5126
11435TIP3    H234263   0.149   0.242   2.221 -3.0977  2.5425 -0.4305
11436TIP3   OH234264   6.456   4.306   5.266  0.4897 -0.0149  0.3209
11436TIP3    H134265   6.416   4.262   5.341 -0.0200 -0.4570 -0.2066
11436TIP3    H234266   6.384   4.350   5.222  0.9021  0.8909  0.5077
11437TIP3   OH234267   4.418   3.717   2.298  0.2945  0.0477 -0.0960
11437TIP3    H134268   4.414   3.656   2.223 -2.3797 -0.0661  0.0225
11437TIP3    H234269   4.370   3.672   2.367 -0.3035  1.5921  0.5389
11438TIP3   OH234270   0.736   0.483   2.525  0.3068 -0.2561  0.4757
11438TIP3    H134271   0.724   0.422   2.597  2.1441  0.8905  1.8283
11438TIP3    H234272   0.726   0.569   2.565  3.5837  0.4919 -0.0764
11439TIP3   OH234273   5.106   0.732   4.206 -0.6948  0.2118 -0.0628
11439TIP3    H134274   5.120   0.754   4.113  1.4239  0.0690  0.1706
11439TIP3    H234275   5.134   0.811   4.253  1.5536 -0.8680  0.5449
11440TIP3   OH234276   0.811   5.590   6.794  0.3445 -0.5072 -0.1864
11440TIP3    H134277   0.818   5.601   6.699  0.1594 -0.3994 -0.1885
11440TIP3    H234278   0.891   5.544   6.819  0.6539 -0.0546 -0.3225
11441TIP3   OH234279   0.111   4.846   3.121 -0.3387 -0.2343 -0.1844
11441TIP3    H134280   0.078   4.924   3.167 -0.4756  0.5475 -1.5578
11441TIP3    H234281   0.043   4.826   3.057  1.0208  0.3280 -1.8597
11442TIP3   OH234282   2.340   2.107   6.716  0.2419  0.1832 -0.3454
11442TIP3    H134283   2.282   2.131   6.645 -0.5851  1.1719  0.6255
11442TIP3    H234284   2.328   2.013   6.727  2.3109 -0.5368 -3.1474
11443TIP3   OH234285   3.414   0.131   0.782  0.2526 -0.4120 -0.4468
11443TIP3    H134286   3.481   0.067   0.805  1.6471  1.5499  1.2345
11443TIP3    H234287   3.463   0.206   0.747 -1.3000 -0.0092 -1.9301
11444TIP3   OH234288   0.530   2.912   5.520 -0.4704 -0.1131  0.4359
11444TIP3    H134289   0.529   2.838   5.459 -2.2652  0.7671 -0.6658
11444TIP3    H234290   0.486   2.880   5.598 -0.6330 -0.4167  0.2192
11445TIP3   OH234291   4.713   2.695   2.380 -0.4496 -0.4273  0.7322
11445TIP3    H134292   4.663   2.620   2.349  0.1367 -1.0852  1.3651
11445TIP3    H234293   4.801   2.682   2.346 -0.3790  0.0638  0.7097
11446TIP3   OH234294   1.144   4.344   0.228 -0.1506 -0.0066  0.3460
11446TIP3    H134295   1.238   4.352   0.239 -0.1075 -1.2327  1.1202
11446TIP3    H234296   1.130   4.251   0.209 -1.1981  0.1639  0.2324
11447TIP3   OH234297   2.332   0.184   4.080  0.4150  0.1133 -0.1653
11447TIP3    H134298   2.313   0.275   4.101  0.8018  0.0306  0.5585
11447TIP3    H234299   2.415   0.188   4.032  0.3745  0.1523 -0.2318
11448TIP3   OH234300   1.583   2.816   2.672  0.0363 -0.1093 -0.2991
11448TIP3    H134301   1.561   2.905   2.699 -2.3841  0.1295 -2.6637
11448TIP3    H234302   1.679   2.814   2.675  0.3246  3.2389 -1.9732
11449TIP3   OH234303   7.693   6.673   3.666  0.5251 -0.4089  0.1342
11449TIP3    H134304   7.660   6.659   3.577 -1.0037  1.7322  0.2996
11449TIP3    H234305   7.785   6.647   3.661  0.2025 -1.3962 -1.7623
11450TIP3   OH234306   0.335   5.569   4.143 -0.4151  0.1173  0.0565
11450TIP3    H134307   0.365   5.608   4.226 -1.2625 -0.7956  0.8219
11450TIP3    H234308   0.415   5.551   4.095  0.2507 -1.1735  1.5469
11451TIP3   OH234309   6.817   3.203   6.220  0.0863  0.6957  0.1496
11451TIP3    H134310   6.726   3.176   6.231 -0.5437  2.1321 -1.1564
11451TIP3    H234311   6.852   3.143   6.154  0.5286 -0.6992  1.5825
11452TIP3   OH234312   0.416   6.109   4.773  0.3240 -0.3010  0.5167
11452TIP3    H134313   0.387   6.078   4.858  1.9621 -1.0909  0.8214
11452TIP3    H234314   0.455   6.195   4.791 -1.2922  0.5468  0.1796
11453TIP3   OH234315   8.065   0.419   2.115  0.0978  0.1144 -1.0191
11453TIP3    H134316   8.143   0.461   2.152  0.7009 -0.6878 -1.3274
11453TIP3    H234317   8.022   0.378   2.190 -0.3426  1.0255 -0.7622
11454TIP3   OH234318   1.741   0.438   1.355  0.1811  0.0776  0.9561
11454TIP3    H134319   1.833   0.411   1.363  0.0947 -0.3600  0.5226
11454TIP3    H234320   1.746   0.528   1.323  0.4604 -0.2898 -0.0644
11455TIP3   OH234321   3.465   4.029   4.845  0.1503 -0.1645  0.2585
11455TIP3    H134322   3.500   4.114   4.817  1.3512 -0.5087  0.6710
11455TIP3    H234323   3.433   3.989   4.764  0.1625  0.4048 -0.0363
11456TIP3   OH234324   7.526   2.248   3.755  0.0199  0.1005 -0.0051
11456TIP3    H134325   7.456   2.286   3.809 -1.3670 -0.6778 -1.1950
11456TIP3    H234326   7.584   2.206   3.818 -0.8319  0.3705  0.9901
11457TIP3   OH234327   4.347   3.061   3.927 -0.3005  0.0680 -0.3026
11457TIP3    H134328   4.347   3.050   4.022  0.0186  1.5145 -0.1147
11457TIP3    H234329   4.419   3.005   3.896 -0.9301 -1.0541  0.1995
11458TIP3   OH234330   0.497   7.092   6.016 -0.1542 -0.0214  0.1660
11458TIP3    H134331   0.519   7.072   6.107 -0.5551  0.0864  0.2905
11458TIP3    H234332   0.535   7.178   6.001  2.6321 -1.3011 -0.7449
11459TIP3   OH234333   1.048   5.629   5.081 -0.0340 -0.3576 -0.0107
11459TIP3    H134334   1.097   5.553   5.112  1.1091  0.4700  0.3075
11459TIP3    H234335   1.074   5.699   5.141  0.1499  0.6482 -1.2150
11460TIP3   OH234336   3.294   0.625   2.359  0.2467  0.1416 -0.2018
11460TIP3    H134337   3.293   0.703   2.304 -0.2099  1.1003  1.0987
11460TIP3    H234338   3.296   0.552   2.298  0.3239  1.1667 -1.4629
11461TIP3   OH234339   1.728   3.010   6.756  0.0827 -0.2096  0.4041
11461TIP3    H134340   1.685   3.029   6.840  0.4681  1.8960  0.1706
11461TIP3    H234341   1.660   2.969   6.703 -1.2421  1.6394  0.5772
11462TIP3   OH234342   6.090   1.498   0.848 -0.4686  0.1143 -0.6487
11462TIP3    H134343   6.120   1.557   0.780 -0.1392  1.0035  0.2377
11462TIP3    H234344   6.009   1.538   0.880 -0.7436 -0.4148 -0.6656
11463TIP3   OH234345   0.734   4.458   1.870  0.2451  0.3417 -0.2538
11463TIP3    H134346   0.712   4.446   1.777 -0.3984  2.1011 -0.3637
11463TIP3    H234347   0.793   4.533   1.871  2.9720 -1.6265  0.4884
11464TIP3   OH234348   1.368   5.364   4.985  0.4214 -0.0181  0.1193
11464TIP3    H134349   1.388   5.301   4.915 -0.0354  0.9261 -0.8907
11464TIP3    H234350   1.354   5.447   4.939  1.2913  0.9074  1.4416
11465TIP3   OH234351   1.106   4.777   4.629 -0.0471 -0.5236 -0.1456
11465TIP3    H134352   1.077   4.700   4.679 -0.7088 -1.0761 -1.3427
11465TIP3    H234353   1.193   4.796   4.663 -1.1276  0.1984  2.4463
11466TIP3   OH234354   7.097   7.434   0.079 -0.3660  0.6467  0.0898
11466TIP3    H134355   7.119   7.344   0.055 -2.2421 -0.2646  1.4868
11466TIP3    H234356   7.174   7.485   0.053  0.8664 -1.3759 -0.5222
11467TIP3   OH234357   5.375   3.522   1.727  0.0219 -0.0657 -0.3745
11467TIP3    H134358   5.352   3.475   1.807  0.4789 -2.1518 -1.3727
11467TIP3    H234359   5.460   3.487   1.702  0.7875  1.9695 -0.7644
11468TIP3   OH234360   7.489   1.332   4.202  0.2749 -0.2287 -0.4836
11468TIP3    H134361   7.448   1.315   4.287 -1.5229 -0.0595 -1.2815
11468TIP3    H234362   7.454   1.417   4.176 -0.5741 -1.0810 -2.2000
11469TIP3   OH234363   5.663   5.501   1.631 -0.5343 -0.2720  0.1641
11469TIP3    H134364   5.589   5.536   1.681 -0.3054 -0.0276  0.3378
11469TIP3    H234365   5.732   5.567   1.641 -0.0516 -0.8272  0.5923
11470TIP3   OH234366   0.021   2.909   2.572  0.4094 -0.8349 -0.0576
11470TIP3    H134367   0.030   2.966   2.496  0.3264 -0.0673  0.5002
11470TIP3    H234368   0.012   2.821   2.535 -0.4687 -0.3825 -0.9551
11471TIP3   OH234369   3.405   3.717   1.639 -0.3291 -0.1001 -0.8920
11471TIP3    H134370   3.413   3.691   1.548 -1.2688 -1.6565 -0.5621
11471TIP3    H234371   3.323   3.677   1.669  0.2313 -0.0938  0.7829
11472TIP3   OH234372   6.276   5.402   0.049 -0.9656 -0.3514 -0.0363
11472TIP3    H134373   6.312   5.490   0.039 -0.8912 -0.2548  0.9588
11472TIP3    H234374   6.347   5.344   0.022 -0.6347 -0.1218  0.3173
11473TIP3   OH234375   7.228   6.029   1.634  0.3634  0.5289  0.3501
11473TIP3    H134376   7.298   6.002   1.574  1.8064  1.2396  1.6487
11473TIP3    H234377   7.148   5.995   1.593  1.5991 -1.8018 -0.3541
11474TIP3   OH234378   1.889   4.708   0.483  0.1060  0.2415 -0.1041
11474TIP3    H134379   1.968   4.713   0.429 -0.7120  0.2546 -1.3488
11474TIP3    H234380   1.817   4.722   0.421 -0.8462  0.9034  1.1110
11475TIP3   OH234381   4.528   0.508   0.240 -0.4810  0.2548  0.4590
11475TIP3    H134382   4.606   0.455   0.254  0.4481  1.4205 -0.2465
11475TIP3    H234383   4.493   0.478   0.156 -0.7329 -0.1652  0.7068
11476TIP3   OH234384   1.569   5.422   6.059  0.1845 -0.4185 -0.3316
11476TIP3    H134385   1.583   5.446   6.150 -0.1278  2.1989 -0.8825
11476TIP3    H234386   1.474   5.414   6.050  0.1988 -0.4246 -0.4891
11477TIP3   OH234387   0.331   3.577   5.989 -0.5573  0.1495  0.1335
11477TIP3    H134388   0.237   3.567   5.974 -0.8113 -0.2947  1.7663
11477TIP3    H234389   0.346   3.671   5.990 -0.7091  0.2150 -1.5300
11478TIP3   OH234390   2.961   3.936   5.593  0.4909  0.6078  0.2077
11478TIP3    H134391   2.978   3.852   5.636  0.6050  0.2324 -0.5406
11478TIP3    H234392   2.935   3.995   5.663  1.6486  0.2934  0.9198
11479TIP3   OH234393   2.183   5.142   1.557  0.4389 -0.0148  0.1291
11479TIP3    H134394   2.204   5.068   1.500  1.7648 -0.0575  0.6337
11479TIP3    H234395   2.257   5.202   1.547 -0.2990  0.9383  0.2428
11480TIP3   OH234396   5.538   3.151   1.597 -0.5952 -0.2615 -0.2998
11480TIP3    H134397   5.582   3.223   1.643  0.1922 -0.7128 -0.3233
11480TIP3    H234398   5.580   3.149   1.511  0.4721 -1.6937  0.2170
11481TIP3   OH234399   7.629   6.579   5.069  0.0500 -0.0463 -0.2948
11481TIP3    H134400   7.709   6.528   5.052 -0.0494  0.0635 -1.1575
11481TIP3    H234401   7.602   6.552   5.157  2.0194  1.2229  0.7875
11482TIP3   OH234402   4.279   0.993   0.143 -0.4111 -0.1123  0.2270
11482TIP3    H134403   4.247   0.990   0.053 -0.1257 -0.6306  0.1386
11482TIP3    H234404   4.369   0.962   0.138 -0.4371 -0.2834  0.7107
11483TIP3   OH234405   6.890   7.059   4.260 -0.0899  0.7299  0.0205
11483TIP3    H134406   6.809   7.094   4.223 -0.5108 -0.9134 -0.6925
11483TIP3    H234407   6.937   7.021   4.185 -0.4094 -1.6238  0.9298
11484TIP3   OH234408   2.040   1.271   0.546 -0.1647 -0.0280  0.6617
11484TIP3    H134409   2.122   1.228   0.572  0.4329  0.5356 -0.2236
11484TIP3    H234410   1.989   1.277   0.626  0.1748 -1.4437  1.0048
11485TIP3   OH234411   2.835   1.432   2.592  0.5239  0.1968  0.6608
11485TIP3    H134412   2.914   1.381   2.573 -0.0751 -0.6503  0.4034
11485TIP3    H234413   2.803   1.461   2.506  0.5064  0.4614  0.7561
11486TIP3   OH234414   4.157   6.241   5.380 -0.2211 -0.1873  0.0095
11486TIP3    H134415   4.121   6.291   5.453  1.1658 -0.1606  0.7161
11486TIP3    H234416   4.173   6.154   5.418  0.5067 -0.1724 -0.2532
11487TIP3   OH234417   7.028   5.721   0.957  0.3474  0.4598 -0.2356
11487TIP3    H134418   6.998   5.692   1.043  1.9834  0.3002  0.3168
11487TIP3    H234419   7.101   5.663   0.936  0.9191  1.4391 -1.0617
11488TIP3   OH234420   5.189   1.898   5.762  0.5059 -0.4907 -0.4995
11488TIP3    H134421   5.149   1.936   5.840 -0.1485  1.1685 -1.5974
11488TIP3    H234422   5.213   1.973   5.708  0.5776 -1.6049 -2.0939
11489TIP3   OH234423   4.068   5.725   2.576 -0.7182  0.3690 -0.1753
11489TIP3    H134424   4.105   5.678   2.651  1.0456 -0.6822 -1.6174
11489TIP3    H234425   3.975   5.706   2.580 -0.3899 -1.3026  0.6585
11490TIP3   OH234426   6.631   2.764   1.274 -0.0023 -0.0765 -0.1706
11490TIP3    H134427   6.688   2.809   1.211  1.0398 -1.4594 -0.2525
11490TIP3    H234428   6.615   2.829   1.343  2.4872  0.0777  0.3408
11491TIP3   OH234429   0.801   0.461   3.937  0.0070 -0.5249 -0.2612
11491TIP3    H134430   0.716   0.491   3.969 -0.1796 -1.6012  0.2999
11491TIP3    H234431   0.858   0.465   4.014  0.8863  1.6031 -0.9593
11492TIP3   OH234432   7.279   1.636   1.766  0.7737 -0.4417  0.8417
11492TIP3    H134433   7.249   1.582   1.839  1.5683 -1.4340  0.4495
11492TIP3    H234434   7.367   1.604   1.747  0.3168 -0.6774 -1.0144
11493TIP3   OH234435   2.218   3.851   4.611  0.4747 -0.4704 -0.6053
11493TIP3    H134436   2.276   3.876   4.683 -0.6818 -0.3621  0.3169
11493TIP3    H234437   2.222   3.926   4.551 -1.1147  0.9883  0.9879
11494TIP3   OH234438   2.075   4.408   0.055 -0.2521 -0.5459 -0.2659
11494TIP3    H134439   2.121   4.440  -0.023 -0.0841  0.8647  0.3670
11494TIP3    H234440   1.986   4.440   0.046 -0.7033 -1.8514 -0.6804
11495TIP3   OH234441   2.865   7.773   0.218 -0.2896 -0.1634  0.4798
11495TIP3    H134442   2.828   7.849   0.172 -0.0839 -0.3801 -0.0509
11495TIP3    H234443   2.830   7.780   0.307 -0.8882  0.1322  0.2295
11496TIP3   OH234444   7.145   3.150   6.689  0.7425 -0.0887 -0.5852
11496TIP3    H134445   7.155   3.072   6.743  0.4872  1.4973  1.8963
11496TIP3    H234446   7.091   3.121   6.615 -1.5151 -1.7392  1.5357
11497TIP3   OH234447   6.668   0.782   3.683 -0.5877 -0.2193  0.1525
11497TIP3    H134448   6.645   0.692   3.659 -0.8731  0.0291 -0.5279
11497TIP3    H234449   6.716   0.773   3.765 -4.7210 -0.6896  2.8313
11498TIP3   OH234450   3.394   0.981   1.571 -0.2131  0.3311  0.0281
11498TIP3    H134451   3.394   0.888   1.590  2.5188  0.2779  0.1576
11498TIP3    H234452   3.310   0.997   1.528 -0.0583 -2.5186 -1.5788
11499TIP3   OH234453   3.318   3.526   2.685  0.1490 -0.1750  0.0107
11499TIP3    H134454   3.344   3.444   2.727 -0.2339 -0.5847 -0.5382
11499TIP3    H234455   3.366   3.527   2.602 -0.8211 -0.4796 -0.5724
11500TIP3   OH234456   7.372   2.754   6.582  0.1159  0.4005  0.2862
11500TIP3    H134457   7.355   2.807   6.505  2.0477 -0.2045 -0.6295
11500TIP3    H234458   7.398   2.669   6.547  3.6905  0.8800  1.3924
11501TIP3   OH234459   1.080   5.654   4.016 -0.0508 -0.0783  0.5038
11501TIP3    H134460   1.030   5.704   4.080  1.3342 -1.5366  2.9016
11501TIP3    H234461   1.015   5.623   3.954 -1.4058  1.8122  0.9020
11502TIP3   OH234462   0.511   2.781   3.045  0.2042 -0.1784 -0.4716
11502TIP3    H134463   0.511   2.696   3.090  0.6106 -0.6352 -1.3039
11502TIP3    H234464   0.572   2.834   3.095  0.6098 -0.6617 -0.4400
11503TIP3   OH234465   1.437   7.490   3.130 -0.5965 -0.0001  0.4319
11503TIP3    H134466   1.473   7.546   3.199 -3.5786  0.8124  1.5138
11503TIP3    H234467   1.513   7.452   3.087  1.4589  0.8785  3.0116
11504TIP3   OH234468   2.861   4.566   2.389 -0.4122  0.6360 -0.1064
11504TIP3    H134469   2.868   4.634   2.456  1.0016 -0.5588  1.0192
11504TIP3    H234470   2.924   4.593   2.322  1.4274 -0.3549  1.1326
11505TIP3   OH234471   4.692   3.951   0.274 -0.5393  0.2045  0.2828
11505TIP3    H134472   4.775   3.997   0.284 -0.6815  0.1977  1.6780
11505TIP3    H234473   4.695   3.882   0.341 -0.6779 -1.3229 -1.1937
11506TIP3   OH234474   6.262   3.754   1.874 -0.1053  0.1191  0.1227
11506TIP3    H134475   6.252   3.803   1.956 -1.5391  2.5626 -1.3865
11506TIP3    H234476   6.193   3.688   1.876  0.6221 -0.6388  1.3578
11507TIP3   OH234477   7.498   6.382   1.697  0.8221  0.1127  0.4391
11507TIP3    H134478   7.495   6.473   1.724 -0.3140 -0.1460  1.2608
11507TIP3    H234479   7.488   6.332   1.778  0.3790 -0.7312 -0.1107
11508TIP3   OH234480   4.740   5.726   2.532  0.1131  0.3769  0.2882
11508TIP3    H134481   4.770   5.726   2.623  0.0782  0.2205  0.3003
11508TIP3    H234482   4.645   5.734   2.538 -0.0648 -1.3242  0.3344
11509TIP3   OH234483   0.468   2.044   3.729 -0.2187 -0.4491  0.1645
11509TIP3    H134484   0.447   2.127   3.774 -0.2414 -1.2625  1.7361
11509TIP3    H234485   0.535   2.004   3.785  1.6180 -0.4073 -1.8735
11510TIP3   OH234486   5.211   5.210   5.661 -0.0573 -0.0735  0.0328
11510TIP3    H134487   5.290   5.262   5.673  0.2757 -0.5479 -0.1139
11510TIP3    H234488   5.203   5.198   5.566 -1.9752  2.5554 -0.2577
11511TIP3   OH234489   6.169   1.790   4.825  1.3670  0.9065 -0.1308
11511TIP3    H134490   6.239   1.786   4.760  0.6423 -0.6678 -0.8940
11511TIP3    H234491   6.134   1.700   4.827 -0.0767  1.4554  0.8192
11512TIP3   OH234492   4.258   7.645   4.088 -0.1474  0.7567  0.0735
11512TIP3    H134493   4.298   7.723   4.125 -0.1851  0.8213 -0.0206
11512TIP3    H234494   4.267   7.578   4.155 -0.1410  0.8502  0.1654
11513TIP3   OH234495   2.528   1.824   2.837 -0.2618 -0.0817 -0.5990
11513TIP3    H134496   2.502   1.794   2.924 -0.4175 -1.5368 -1.1183
11513TIP3    H234497   2.619   1.796   2.829  0.3501  1.7029 -0.2134
11514TIP3   OH234498   2.611   2.695   0.910 -0.0135 -0.0828  0.1311
11514TIP3    H134499   2.527   2.711   0.868 -0.5619  0.9201  1.5632
11514TIP3    H234500   2.659   2.641   0.846 -1.2654  0.3351 -1.2228
11515TIP3   OH234501   1.631   5.842   6.280  0.7772  0.1254 -0.2017
11515TIP3    H134502   1.659   5.932   6.298 -0.2973  0.7601 -1.5084
11515TIP3    H234503   1.581   5.816   6.357  0.4399  0.9420 -0.1365
11516TIP3   OH234504   6.148   2.675   0.968  0.0122  0.3121  0.1545
11516TIP3    H134505   6.104   2.659   0.884 -0.2314  1.5495  0.0194
11516TIP3    H234506   6.112   2.609   1.027  0.6151 -0.9588 -0.8385
11517TIP3   OH234507   0.027   4.982   4.605 -0.6000 -0.4449 -0.5430
11517TIP3    H134508   0.120   5.006   4.607 -0.1360 -2.1087 -0.4425
11517TIP3    H234509   0.002   4.990   4.513 -0.5853  0.7562 -0.4570
11518TIP3   OH234510   6.190   2.414   3.584 -0.0889  0.3036 -0.6678
11518TIP3    H134511   6.102   2.377   3.572  0.6535 -1.3023 -1.5583
11518TIP3    H234512   6.205   2.465   3.504  0.1516 -0.2917 -1.0197
11519TIP3   OH234513   4.180   6.372   0.879  0.3928  0.0530 -0.0804
11519TIP3    H134514   4.251   6.392   0.818 -0.3955 -0.2427 -1.1341
11519TIP3    H234515   4.126   6.308   0.832 -0.3968  0.0326  0.8230
11520TIP3   OH234516   7.778   1.437   6.581  0.0005 -0.0400 -0.8815
11520TIP3    H134517   7.691   1.467   6.607  1.2438  1.7008  1.8122
11520TIP3    H234518   7.804   1.495   6.509 -0.7856 -0.1116 -1.2246
11521TIP3   OH234519   6.942   0.486   6.394  0.3039 -0.0053  0.3059
11521TIP3    H134520   6.905   0.565   6.433 -1.1081 -0.4977  0.0368
11521TIP3    H234521   6.903   0.414   6.444  1.3210 -0.5515  0.3406
11522TIP3   OH234522   2.814   7.328   0.147  0.4136  0.1325  0.1528
11522TIP3    H134523   2.819   7.273   0.069 -2.3012  0.5743 -0.4231
11522TIP3    H234524   2.778   7.411   0.116  2.2625  1.4900  1.3868
11523TIP3   OH234525   0.879   3.400   4.302 -0.2218  0.1540 -0.4158
11523TIP3    H134526   0.881   3.317   4.256 -1.3904  0.4166 -0.9990
11523TIP3    H234527   0.856   3.464   4.235 -0.0384  0.8418  0.1598
11524TIP3   OH234528   1.523   6.885   3.526  0.2090  0.8229 -0.1520
11524TIP3    H134529   1.517   6.836   3.444 -1.4305  0.1409  0.3464
11524TIP3    H234530   1.598   6.847   3.571 -0.1837 -0.2727 -0.3987
11525TIP3   OH234531   5.210   3.776   2.991 -0.4080  0.3391  0.0378
11525TIP3    H134532   5.148   3.788   3.063 -0.2419  0.3073  0.1849
11525TIP3    H234533   5.204   3.858   2.941 -2.7507 -0.7441 -1.6478
11526TIP3   OH234534   5.438   2.170   6.435 -0.6012  0.5984 -0.7571
11526TIP3    H134535   5.424   2.264   6.431 -2.8726  0.5015  1.9709
11526TIP3    H234536   5.379   2.139   6.503  0.5582 -2.7421 -1.0512
11527TIP3   OH234537   1.417   7.395   3.487 -0.3205 -0.0694  0.1632
11527TIP3    H134538   1.346   7.371   3.546 -2.5807  1.2159 -1.8662
11527TIP3    H234539   1.418   7.326   3.421  1.0216 -0.5635  0.6435
11528TIP3   OH234540   4.131   1.991   0.457 -0.0308 -0.3855  0.0457
11528TIP3    H134541   4.148   1.915   0.402 -0.4999  2.1954 -4.1503
11528TIP3    H234542   4.215   2.037   0.462 -0.3731  0.2573  0.0339
11529TIP3   OH234543   5.335   7.225   6.191  0.1537  0.7062 -0.3346
11529TIP3    H134544   5.402   7.165   6.224 -1.1235 -0.4542  0.2804
11529TIP3    H234545   5.384   7.301   6.158  1.6671  0.5845  1.4667
11530TIP3   OH234546   6.707   7.011   5.282 -0.3870 -0.3707 -0.6229
11530TIP3    H134547   6.715   7.106   5.285  1.2610 -0.4275 -1.9389
11530TIP3    H234548   6.615   6.994   5.304 -0.7654  1.5261 -0.5925
11531TIP3   OH234549   8.006   7.527   5.743 -0.4720 -0.2766  0.0267
11531TIP3    H134550   7.976   7.485   5.663  1.5748 -2.5162  0.3118
11531TIP3    H234551   7.966   7.614   5.741 -1.9211 -0.8975 -2.4882
11532TIP3   OH234552   0.263   7.155   5.476  0.1235  0.1336  0.2345
11532TIP3    H134553   0.346   7.153   5.429  0.2627 -2.7341  0.4230
11532TIP3    H234554   0.202   7.197   5.415  1.3473  0.8827 -0.5164
11533TIP3   OH234555   4.344   4.320   2.111  0.4943 -0.0678 -0.3325
11533TIP3    H134556   4.290   4.383   2.064  0.4268  0.3550  0.2994
11533TIP3    H234557   4.306   4.317   2.199  1.1318 -0.2114 -0.0560
11534TIP3   OH234558   3.152   1.013   6.227 -0.0532  0.0464  0.4070
11534TIP3    H134559   3.097   1.021   6.149  2.0237 -0.4554 -1.2137
11534TIP3    H234560   3.179   1.103   6.247  1.0491  0.0202 -0.7841
11535TIP3   OH234561   1.971   1.464   1.181  0.6352 -0.3029 -0.1603
11535TIP3    H134562   1.934   1.376   1.191 -0.5680  0.2347  0.3729
11535TIP3    H234563   1.900   1.516   1.144  0.3835  1.0430  1.9970
11536TIP3   OH234564   2.337   5.635   4.686 -0.5641  0.0366 -0.2365
11536TIP3    H134565   2.256   5.625   4.737 -1.1770  0.8561 -1.0347
11536TIP3    H234566   2.335   5.724   4.653  1.3501  0.5427  0.8486
11537TIP3   OH234567   7.947   7.537   0.022 -0.0944  0.1431  0.4292
11537TIP3    H134568   7.889   7.461   0.017 -2.4120  1.6833  2.1066
11537TIP3    H234569   8.020   7.508   0.077  0.7700 -1.7835 -1.5758
11538TIP3   OH234570   1.902   2.832   2.381 -0.0961 -0.0382  0.5577
11538TIP3    H134571   1.932   2.768   2.317  0.0499  0.7159 -0.1448
11538TIP3    H234572   1.824   2.871   2.340  0.3067  0.8221  0.5993
11539TIP3   OH234573   4.004   7.152   3.768  0.0887  0.1202  0.0759
11539TIP3    H134574   4.003   7.247   3.773  0.6650  0.2211 -1.2486
11539TIP3    H234575   3.919   7.128   3.731  0.3647  0.2059 -0.6241
11540TIP3   OH234576   4.040   1.439   0.811 -0.0155 -0.2475  0.2032
11540TIP3    H134577   4.076   1.382   0.879 -0.6768  0.2067  0.9583
11540TIP3    H234578   4.066   1.399   0.728  0.6517 -0.9086  0.7292
11541TIP3   OH234579   2.741   4.796   1.096  0.0276 -0.4498  0.4862
11541TIP3    H134580   2.683   4.845   1.038  1.1568  0.8559  0.4199
11541TIP3    H234581   2.803   4.754   1.037  1.1654  0.8637  0.7053
11542TIP3   OH234582   5.516   6.797   6.125  0.0765 -0.0223 -0.1853
11542TIP3    H134583   5.449   6.731   6.138  0.4927 -0.1982  1.2179
11542TIP3    H234584   5.481   6.853   6.055 -1.0700 -0.6795 -0.1624
11543TIP3   OH234585   7.733   1.731   4.761 -0.0772 -0.1381  0.1130
11543TIP3    H134586   7.717   1.710   4.853 -0.0064  2.2435  0.7378
11543TIP3    H234587   7.664   1.793   4.738  0.3125 -0.1757 -1.2373
11544TIP3   OH234588   7.898   6.007   6.216  0.5256  0.0289 -0.4913
11544TIP3    H134589   7.983   6.043   6.240  0.9820 -0.7361 -0.9400
11544TIP3    H234590   7.900   5.917   6.249 -1.4059  0.9567  2.5714
11545TIP3   OH234591   1.428   6.464   2.924 -0.0661  0.1868  0.2208
11545TIP3    H134592   1.434   6.500   2.835  1.7228  0.7987  0.5665
11545TIP3    H234593   1.498   6.400   2.929 -0.0493  0.2721  1.2500
11546TIP3   OH234594   5.644   1.837   3.038 -0.6877 -0.1468  0.8055
11546TIP3    H134595   5.703   1.789   2.980 -1.5134 -1.2933  0.8915
11546TIP3    H234596   5.576   1.774   3.061 -1.1382  0.7096  1.9035
11547TIP3   OH234597   1.343   5.954   3.470  0.5460 -0.5241 -0.4905
11547TIP3    H134598   1.415   5.995   3.422  0.4660  0.8987  0.5392
11547TIP3    H234599   1.287   5.917   3.402  1.7928 -0.9112 -1.3457
11548TIP3   OH234600   7.040   3.022   0.259  0.0483 -0.1561  0.0035
11548TIP3    H134601   7.012   3.089   0.196 -1.4927  0.5553  1.3774
11548TIP3    H234602   6.985   2.946   0.239 -1.1374  0.3976  1.0879
11549TIP3   OH234603   2.328   6.361   5.520  0.0520  0.6745  0.3558
11549TIP3    H134604   2.327   6.448   5.561  1.0863  0.1670  1.5125
11549TIP3    H234605   2.406   6.319   5.555 -0.3794 -0.6970 -0.2694
11550TIP3   OH234606   4.693   7.436   2.022 -0.2584  0.3712 -0.5295
11550TIP3    H134607   4.722   7.379   2.093  0.2941  1.2584 -0.0220
11550TIP3    H234608   4.694   7.380   1.944  0.7222 -0.1873 -0.1313
11551TIP3   OH234609   3.234   3.815   0.961  0.3502 -0.2849  0.1075
11551TIP3    H134610   3.143   3.844   0.969 -0.0704 -1.1700 -1.1416
11551TIP3    H234611   3.283   3.894   0.937 -0.1534  0.1165  0.3924
11552TIP3   OH234612   4.141   6.101   2.013 -0.0938  0.1963 -0.3154
11552TIP3    H134613   4.109   6.186   1.981  0.2539  0.2377 -0.5609
11552TIP3    H234614   4.119   6.039   1.944  1.9825  0.5358 -1.3549
11553TIP3   OH234615   5.851   6.259   3.901  0.3743 -0.0250 -0.4992
11553TIP3    H134616   5.930   6.248   3.848  0.2214  0.7480 -0.9017
11553TIP3    H234617   5.871   6.334   3.958 -0.0752  0.1996 -0.6326
11554TIP3   OH234618   2.744   6.571   1.338 -0.2474  0.4654 -0.4143
11554TIP3    H134619   2.655   6.535   1.338 -0.4351  0.8261 -2.3890
11554TIP3    H234620   2.800   6.494   1.348 -0.7374  0.1028 -0.3836
11555TIP3   OH234621   6.150   1.751   1.511  0.2185 -0.1881  0.0508
11555TIP3    H134622   6.238   1.713   1.504  0.3964  0.2762 -0.2262
11555TIP3    H234623   6.122   1.764   1.420 -1.0512 -2.4181  0.0556
11556TIP3   OH234624   3.325   5.534   1.810 -0.1520 -0.5189  0.1275
11556TIP3    H134625   3.338   5.478   1.887  3.3491  0.4401  0.4226
11556TIP3    H234626   3.291   5.616   1.846 -0.2996 -0.6897  0.3869
11557TIP3   OH234627   1.639   3.344   0.192 -0.6001  0.0837  0.2011
11557TIP3    H134628   1.606   3.391   0.115 -0.3460 -1.7453 -1.1204
11557TIP3    H234629   1.647   3.410   0.260 -1.1704  1.7167 -1.2499
11558TIP3   OH234630   2.920   3.370   1.379  0.5137  0.2434  0.5177
11558TIP3    H134631   2.964   3.370   1.464  0.6492 -0.3626  0.4468
11558TIP3    H234632   2.876   3.286   1.374 -2.3526  1.5544  1.4553
11559TIP3   OH234633   7.840   7.709   0.315  0.9071  0.4578  0.4034
11559TIP3    H134634   7.857   7.616   0.333 -0.0967  0.4852  1.6258
11559TIP3    H234635   7.833   7.749   0.402 -2.9834  0.8517  0.0614
11560TIP3   OH234636   4.513   3.720   6.767 -1.0007 -0.2410  0.1369
11560TIP3    H134637   4.517   3.748   6.676 -1.8442 -0.3105  0.0729
11560TIP3    H234638   4.603   3.694   6.788 -0.8595 -0.5180 -0.7633
11561TIP3   OH234639   6.424   6.637   2.868 -0.2826 -0.1369 -0.6827
11561TIP3    H134640   6.484   6.599   2.804 -0.1358  0.6812 -1.0441
11561TIP3    H234641   6.469   6.715   2.900 -0.7044 -0.0906 -0.1860
11562TIP3   OH234642   1.394   7.829   1.228  0.6778 -0.4210  0.3615
11562TIP3    H134643   1.341   7.776   1.288  0.0983  2.3176  2.4573
11562TIP3    H234644   1.471   7.853   1.280  1.8745 -0.7691 -1.1957
11563TIP3   OH234645   7.018   0.530   3.971 -0.1424  0.2342  0.0489
11563TIP3    H134646   7.096   0.524   3.917 -0.8897  0.3809 -1.0931
11563TIP3    H234647   6.946   0.538   3.908 -1.0220  0.6892  1.0752
11564TIP3   OH234648   4.363   1.725   3.436 -0.2352 -0.3547  0.3598
11564TIP3    H134649   4.412   1.702   3.516 -0.0222  0.0641  0.3502
11564TIP3    H234650   4.414   1.796   3.396 -1.5276  0.9956  1.0292
11565TIP3   OH234651   2.588   5.363   2.632 -0.2339  0.1632 -0.1889
11565TIP3    H134652   2.566   5.375   2.540  0.8696  0.3048 -0.4425
11565TIP3    H234653   2.664   5.306   2.632 -2.3723 -2.9393  0.8177
11566TIP3   OH234654   1.479   3.833   3.355 -0.7060  0.3866 -0.0403
11566TIP3    H134655   1.474   3.786   3.272 -0.5490 -0.1057  0.2239
11566TIP3    H234656   1.426   3.780   3.416  0.9100 -0.4541  0.7179
11567TIP3   OH234657   2.080   0.661   1.587  0.2799 -0.3889 -0.4699
11567TIP3    H134658   2.058   0.737   1.533  0.8894  0.7636  0.8552
11567TIP3    H234659   2.023   0.669   1.664  2.5799  0.5827  1.2314
11568TIP3   OH234660   5.589   0.919   4.502  0.3129  0.3389  0.0968
11568TIP3    H134661   5.557   0.857   4.436  0.5278 -1.6002  1.7270
11568TIP3    H234662   5.515   0.929   4.562  0.9013  0.1856  0.8567
11569TIP3   OH234663   5.534   5.036   6.126  0.3867  0.1133  0.6380
11569TIP3    H134664   5.493   5.096   6.064  1.6412 -0.9042 -1.2826
11569TIP3    H234665   5.574   5.092   6.192  1.3081  1.4136 -0.9690
11570TIP3   OH234666   4.585   1.471   6.761  0.5306  0.1783  0.4507
11570TIP3    H134667   4.595   1.508   6.849  3.0850 -0.4535  0.5042
11570TIP3    H234668   4.660   1.505   6.712  0.5805 -1.4976 -0.7190
11571TIP3   OH234669   0.352   1.675   0.554 -0.2570 -0.0253  0.3319
11571TIP3    H134670   0.342   1.745   0.618 -0.5012 -0.0609  0.3350
11571TIP3    H234671   0.365   1.596   0.605 -1.7628 -0.2756  0.3965
11572TIP3   OH234672   5.759   1.219   4.230  0.9238  0.3000  0.1278
11572TIP3    H134673   5.744   1.174   4.313  0.5573 -0.0127 -0.1018
11572TIP3    H234674   5.837   1.177   4.194  1.7605  1.2023  0.8274
11573TIP3   OH234675   7.310   3.918   4.110  0.4665  0.3542  0.0752
11573TIP3    H134676   7.225   3.880   4.085  0.0773 -0.7793  2.7974
11573TIP3    H234677   7.374   3.866   4.060 -0.3505  0.4333 -1.1053
11574TIP3   OH234678   2.926   4.310   6.655 -0.0589 -0.2734 -0.2209
11574TIP3    H134679   3.018   4.333   6.664 -0.1797  0.2816 -0.3609
11574TIP3    H234680   2.878   4.386   6.687 -0.4907 -1.2516  1.5929
11575TIP3   OH234681   4.483   0.304   3.116 -0.3045  0.0585  0.2314
11575TIP3    H134682   4.491   0.345   3.031  0.0833 -0.5286 -0.0212
11575TIP3    H234683   4.389   0.284   3.124 -0.2948 -0.1573 -0.1871
11576TIP3   OH234684   2.843   0.755   5.937 -0.4404 -0.3726 -0.5548
11576TIP3    H134685   2.841   0.723   5.847 -1.5504 -1.1240 -0.2817
11576TIP3    H234686   2.764   0.808   5.945  0.4016  0.9071 -0.4340
11577TIP3   OH234687   3.292   6.904   5.971  0.0440  0.0480  0.6995
11577TIP3    H134688   3.206   6.861   5.972  0.6504 -1.3136 -0.5296
11577TIP3    H234689   3.289   6.960   5.894  0.1504  0.2313  0.8300
11578TIP3   OH234690   8.090   0.392   0.211 -0.2515  0.2937 -0.1773
11578TIP3    H134691   8.030   0.355   0.276  0.9574  0.4448  1.0915
11578TIP3    H234692   8.116   0.476   0.249  0.8758  0.1506 -0.5981
11579TIP3   OH234693   0.738   1.016   3.806  0.5490 -0.8329 -0.2982
11579TIP3    H134694   0.807   0.994   3.744  2.5034  1.1868  1.0320
11579TIP3    H234695   0.780   1.015   3.891 -1.0288  0.5147  0.5751
11580TIP3   OH234696   5.490   2.780   5.284  0.2075  0.7594 -0.2808
11580TIP3    H134697   5.458   2.708   5.230 -0.5971  0.8793  0.0230
11580TIP3    H234698   5.440   2.856   5.255 -1.5228  0.5026  1.7466
11581TIP3   OH234699   4.070   1.536   5.859  0.4270  0.1440 -0.4446
11581TIP3    H134700   4.118   1.585   5.792  0.1898  0.5196 -0.3412
11581TIP3    H234701   4.066   1.596   5.934  0.9620 -0.3852  0.0181
11582TIP3   OH234702   6.782   7.577   5.915 -0.2313 -0.6434 -0.1334
11582TIP3    H134703   6.793   7.568   5.821  0.3162 -1.0780 -0.0318
11582TIP3    H234704   6.838   7.509   5.953  0.3435  0.1703  0.5317
11583TIP3   OH234705   0.413   1.467   4.171 -0.3081 -0.0781 -0.2219
11583TIP3    H134706   0.406   1.379   4.208  1.1663 -0.5605 -0.9990
11583TIP3    H234707   0.443   1.521   4.244 -1.5035 -0.1304  0.3349
11584TIP3   OH234708   2.735   2.574   1.240 -0.4770 -0.1890 -0.5362
11584TIP3    H134709   2.653   2.547   1.282 -1.0702  0.8824 -0.9649
11584TIP3    H234710   2.727   2.543   1.150 -1.3462  1.6698 -1.1497
11585TIP3   OH234711   0.576   1.791   0.233 -0.2831 -0.0510  0.5727
11585TIP3    H134712   0.526   1.868   0.258 -1.3631 -0.1750 -1.0280
11585TIP3    H234713   0.606   1.810   0.144  0.0063 -1.2017  0.4099
11586TIP3   OH234714   6.239   2.866   1.467  0.1285 -0.1910 -0.0433
11586TIP3    H134715   6.255   2.818   1.386 -0.7923 -1.9724  0.7619
11586TIP3    H234716   6.268   2.955   1.449  0.5903 -0.7108 -2.0852
11587TIP3   OH234717   2.046   3.662   6.631  0.4878  0.4252  0.0525
11587TIP3    H134718   2.121   3.627   6.582  0.7536  1.8245 -0.5925
11587TIP3    H234719   1.976   3.670   6.567 -0.0431 -0.3029  0.5233
11588TIP3   OH234720   0.357   0.922   3.433  0.0522  0.6775  0.1159
11588TIP3    H134721   0.317   0.861   3.495 -0.5591  0.9907  0.0403
11588TIP3    H234722   0.373   1.001   3.483  1.5211  0.2323  0.3996
11589TIP3   OH234723   0.282   6.785   6.230  0.0868 -0.2336 -0.1139
11589TIP3    H134724   0.237   6.710   6.190 -0.7156 -0.7033  1.6042
11589TIP3    H234725   0.256   6.860   6.175 -1.8206 -0.6946  0.1036
11590TIP3   OH234726   2.641   0.238   1.611  0.4473  0.0663  0.1208
11590TIP3    H134727   2.676   0.289   1.537  2.0022 -0.5618  0.3971
11590TIP3    H234728   2.717   0.221   1.667 -0.2276 -1.6407  0.5794
11591TIP3   OH234729   5.043   0.490   4.760  0.1703 -0.1464 -0.1975
11591TIP3    H134730   5.066   0.439   4.683  1.6124  1.0851 -0.6168
11591TIP3    H234731   5.126   0.520   4.796 -0.5332  0.2929  1.1659
11592TIP3   OH234732   5.123   2.623   6.207  0.1197 -0.5073  0.7264
11592TIP3    H134733   5.104   2.560   6.137 -1.4488 -0.4451  1.0605
11592TIP3    H234734   5.207   2.662   6.182  0.0477 -1.1540 -0.6202
11593TIP3   OH234735   2.580   3.142   4.405  0.0252  0.1336 -0.0690
11593TIP3    H134736   2.664   3.180   4.432 -0.9898  1.0352  1.9944
11593TIP3    H234737   2.547   3.204   4.340 -0.1457  1.1215  0.9245
11594TIP3   OH234738   1.695   5.116   3.452  0.1644 -0.2418 -0.4405
11594TIP3    H134739   1.729   5.070   3.375 -0.2448 -1.2767 -0.0355
11594TIP3    H234740   1.699   5.050   3.521 -0.2136  0.4317  0.2260
11595TIP3   OH234741   0.952   7.252   3.857  0.2478  0.2023  0.0417
11595TIP3    H134742   0.964   7.167   3.900  2.0548 -0.6441 -1.9251
11595TIP3    H234743   0.922   7.229   3.769  0.1807  1.6454 -0.3291
11596TIP3   OH234744   2.206   5.206   5.513  0.2493  0.4725  0.4543
11596TIP3    H134745   2.244   5.280   5.560  0.3315  1.1114 -0.5766
11596TIP3    H234746   2.162   5.154   5.580 -0.3641  1.8020  1.1084
11597TIP3   OH234747   4.069   0.239   2.507 -0.0391 -0.4022 -0.4181
11597TIP3    H134748   4.029   0.296   2.573  0.1475 -0.8154  0.0599
11597TIP3    H234749   4.067   0.291   2.427 -1.9215 -0.5738 -0.5298
11598TIP3   OH234750   1.036   3.416   1.311  0.5258  0.0113  0.0411
11598TIP3    H134751   1.074   3.416   1.399  0.6368 -3.1470  0.1133
11598TIP3    H234752   1.014   3.324   1.295 -0.2189  0.6188 -2.9523
11599TIP3   OH234753   3.682   4.668   5.040 -0.3432 -0.4743 -0.2479
11599TIP3    H134754   3.679   4.665   5.136 -0.1994 -1.6680 -0.2640
11599TIP3    H234755   3.596   4.703   5.015 -0.7017 -0.9455  0.2932
11600TIP3   OH234756   5.534   5.471   1.893 -0.1534 -0.0701  0.0888
11600TIP3    H134757   5.458   5.432   1.849 -0.9275  0.0692  1.2627
11600TIP3    H234758   5.542   5.423   1.975  0.9740 -0.0131  0.0246
11601TIP3   OH234759   1.443   0.787   4.030 -0.3268  0.5806 -0.0751
11601TIP3    H134760   1.368   0.815   3.978  0.3388 -0.1875 -1.4898
11601TIP3    H234761   1.410   0.786   4.120 -2.0867  0.0229 -0.6825
11602TIP3   OH234762   0.019   6.877   4.820  0.2248  0.1044 -0.0575
11602TIP3    H134763   0.024   6.785   4.843  0.9184 -0.5164 -2.3843
11602TIP3    H234764  -0.006   6.921   4.901 -0.0322 -2.0959  1.1360
11603TIP3   OH234765   3.715   3.662   5.277  0.4307 -0.3635 -0.7118
11603TIP3    H134766   3.726   3.675   5.371  1.4701 -0.6563 -0.7872
11603TIP3    H234767   3.718   3.567   5.265  0.3790 -0.3234 -1.0577
11604TIP3   OH234768   7.104   3.325   2.453  0.0959 -0.2749  0.3696
11604TIP3    H134769   7.115   3.403   2.398 -1.2008  0.7407  1.4423
11604TIP3    H234770   7.156   3.344   2.531 -1.3803  0.2186  1.2712
11605TIP3   OH234771   4.799   4.184   5.248 -0.4953  0.0808 -0.4450
11605TIP3    H134772   4.724   4.243   5.239 -0.2625  0.4313 -0.1271
11605TIP3    H234773   4.844   4.214   5.327 -0.6627 -0.8573  0.0179
11606TIP3   OH234774   6.368   5.671   3.621  0.7950 -0.6339  0.6009
11606TIP3    H134775   6.354   5.703   3.710  0.5274  0.0628  0.3140
11606TIP3    H234776   6.360   5.576   3.628  1.5852 -0.6495  1.4630
11607TIP3   OH234777   1.302   4.897   2.806  0.6767  0.0867 -0.2281
11607TIP3    H134778   1.226   4.846   2.834  0.7903 -2.7065 -4.2094
11607TIP3    H234779   1.270   4.987   2.799 -1.4092 -0.5146  0.8518
11608TIP3   OH234780   3.832   6.996   4.552  0.6643 -0.1693  0.5089
11608TIP3    H134781   3.896   6.960   4.489  1.3161 -0.6798  1.4396
11608TIP3    H234782   3.886   7.033   4.622 -0.0616 -0.2155  1.0994
11609TIP3   OH234783   2.990   0.481   5.794 -0.9586  0.4194  1.0223
11609TIP3    H134784   2.956   0.558   5.748  1.0681 -0.4800 -2.3354
11609TIP3    H234785   3.062   0.515   5.848  0.5542  0.8887 -1.1657
11610TIP3   OH234786   5.171   4.937   1.467 -0.4574  0.1016  0.6263
11610TIP3    H134787   5.211   4.925   1.382  0.1813 -0.6702  1.0234
11610TIP3    H234788   5.153   4.848   1.498  0.0089  0.3324  1.6120
11611TIP3   OH234789   2.206   3.565   6.442 -0.1557 -0.0031 -0.4520
11611TIP3    H134790   2.164   3.618   6.374 -0.1250 -0.3384 -0.7378
11611TIP3    H234791   2.299   3.589   6.436 -0.3221  0.9138  0.3393
11612TIP3   OH234792   2.767   6.511   5.710  0.3743 -0.5008 -0.2072
11612TIP3    H134793   2.743   6.515   5.803 -0.2117 -2.5704 -0.2144
11612TIP3    H234794   2.850   6.464   5.710  0.4309 -0.4001 -0.7264
11613TIP3   OH234795   4.248   7.229   5.603  0.3963 -0.0559  0.0573
11613TIP3    H134796   4.230   7.136   5.617 -2.1733  0.5509  1.4951
11613TIP3    H234797   4.231   7.269   5.689  1.4994  1.7449 -0.5205
11614TIP3   OH234798   6.768   1.003   4.237 -0.3426  0.2481  0.4209
11614TIP3    H134799   6.713   0.941   4.284  1.0526 -2.3032 -1.0665
11614TIP3    H234800   6.802   1.062   4.304 -0.3159 -1.7479  2.2379
11615TIP3   OH234801   1.131   7.457   0.107  0.4495 -0.2760 -0.7686
11615TIP3    H134802   1.113   7.551   0.119 -1.5720 -0.4689 -1.8726
11615TIP3    H234803   1.121   7.420   0.195  0.7592  0.4671 -0.4097
11616TIP3   OH234804   6.396   3.073   1.356  0.3295  0.1011  0.4911
11616TIP3    H134805   6.382   3.162   1.387  0.0025  0.1917  0.1045
11616TIP3    H234806   6.476   3.077   1.304  0.6806  0.0243  1.0198
11617TIP3   OH234807   6.859   3.417   2.759 -0.2074 -0.5311 -0.2866
11617TIP3    H134808   6.867   3.345   2.696 -1.1513 -0.9141  0.0097
11617TIP3    H234809   6.772   3.406   2.797 -0.4067  0.8423 -0.3073
11618TIP3   OH234810   4.712   4.441   4.478  0.1334 -0.3433 -0.4418
11618TIP3    H134811   4.764   4.374   4.522  0.0088 -0.8331 -1.0373
11618TIP3    H234812   4.626   4.436   4.519  0.6401  0.7510  0.8412
11619TIP3   OH234813   7.968   0.735   2.809  0.3389  0.1886 -0.2690
11619TIP3    H134814   8.026   0.808   2.830 -0.7057  0.9697 -0.0271
11619TIP3    H234815   7.893   0.775   2.766 -0.2009 -0.7623 -0.2397
11620TIP3   OH234816   7.041   5.222   5.994 -0.6291  0.0595 -0.0925
11620TIP3    H134817   7.039   5.241   5.900 -2.1732 -0.5733 -0.2161
11620TIP3    H234818   7.082   5.135   6.000  0.3313  0.4974 -0.0789
11621TIP3   OH234819   0.365   1.025   6.580  0.0091 -0.5687  0.1868
11621TIP3    H134820   0.355   0.935   6.609  0.3183 -0.2695  1.2781
11621TIP3    H234821   0.460   1.041   6.584 -0.1137  0.0784  0.9246
11622TIP3   OH234822   4.717   5.344   1.065 -0.5930 -0.1234 -0.0645
11622TIP3    H134823   4.635   5.342   1.116 -1.2824  1.0679 -1.0731
11622TIP3    H234824   4.710   5.423   1.012  0.6952 -0.6473 -1.0569
11623TIP3   OH234825   6.199   7.163   2.261  0.5924 -0.0997  0.5636
11623TIP3    H134826   6.250   7.172   2.181 -2.4124  0.3882 -1.4520
11623TIP3    H234827   6.226   7.238   2.315  2.0610  0.0344 -0.3116
11624TIP3   OH234828   6.383   1.535   0.975  0.6954  0.2397  0.0063
11624TIP3    H134829   6.290   1.511   0.979  0.8876 -0.6836 -0.7321
11624TIP3    H234830   6.382   1.630   0.963 -0.2134  0.0615 -1.6305
11625TIP3   OH234831   6.683   0.467   2.156  0.0420 -0.1333 -0.3430
11625TIP3    H134832   6.694   0.530   2.085  1.7492  0.5366  0.4460
11625TIP3    H234833   6.770   0.461   2.196 -0.5527 -1.5304  0.8219
11626TIP3   OH234834   1.236   2.554   2.965 -0.1300 -0.0500 -0.1249
11626TIP3    H134835   1.154   2.505   2.968 -0.0068 -0.2211  1.4155
11626TIP3    H234836   1.213   2.641   2.998  0.3259 -0.1469  0.4625
11627TIP3   OH234837   3.388   1.623   1.927  0.1948 -0.3869 -0.3995
11627TIP3    H134838   3.337   1.570   1.988  1.0614  0.3514  1.0091
11627TIP3    H234839   3.435   1.559   1.874  0.6184 -1.0591  0.7438
11628TIP3   OH234840   0.752   7.646   4.658 -0.2572 -0.4726 -0.3970
11628TIP3    H134841   0.749   7.723   4.715 -0.6037 -0.3712 -0.5476
11628TIP3    H234842   0.700   7.580   4.704  0.7947 -0.9237  0.1688
11629TIP3   OH234843   1.999   4.519   4.196  0.1110 -0.6107 -0.2563
11629TIP3    H134844   1.981   4.464   4.272 -1.8175 -1.1157 -1.0348
11629TIP3    H234845   1.925   4.580   4.192  1.6516  1.3867 -0.0606
11630TIP3   OH234846   0.450   3.345   6.714  0.6578  0.1262  0.3466
11630TIP3    H134847   0.517   3.283   6.684  0.2183 -0.3293  0.2956
11630TIP3    H234848   0.407   3.300   6.787  0.2187  0.2904  0.1923
11631TIP3   OH234849   3.006   7.597   2.749 -0.2662 -0.9217  0.1264
11631TIP3    H134850   3.087   7.549   2.766  0.8844  0.5702 -0.8821
11631TIP3    H234851   2.988   7.645   2.830 -0.2565 -1.3896  0.4091
11632TIP3   OH234852   4.779   7.673   5.757  0.5719 -0.0341 -0.2561
11632TIP3    H134853   4.762   7.751   5.703  1.9026  0.2878 -0.2479
11632TIP3    H234854   4.824   7.707   5.834  1.0974 -0.7966 -0.2152
11633TIP3   OH234855   0.644   1.683   0.852  0.5397 -0.3962  0.1019
11633TIP3    H134856   0.609   1.631   0.780 -0.7695 -0.6167  0.8652
11633TIP3    H234857   0.608   1.770   0.840 -0.3114 -0.6219  0.8873
11634TIP3   OH234858   7.938   6.152   4.716 -0.2536  0.7353  0.1159
11634TIP3    H134859   7.919   6.191   4.631 -1.6312 -0.3918 -0.1249
11634TIP3    H234860   8.033   6.151   4.721 -0.1343  2.9772 -0.3614
11635TIP3   OH234861   0.124   0.315   2.704  0.5014  0.0330 -0.4611
11635TIP3    H134862   0.048   0.267   2.671 -1.4123  1.8362  1.0920
11635TIP3    H234863   0.115   0.403   2.667  2.1358  0.1534 -0.6329
11636TIP3   OH234864   2.919   3.975   5.904  0.0901  0.2080 -0.0016
11636TIP3    H134865   2.864   3.938   5.973 -0.3466  0.1117 -0.3928
11636TIP3    H234866   2.947   3.898   5.853 -2.6525  0.4994 -2.1800
11637TIP3   OH234867   2.644   7.569   2.105  0.6436 -0.1679 -0.6944
11637TIP3    H134868   2.568   7.624   2.124  0.9136  0.3046 -0.9581
11637TIP3    H234869   2.608   7.482   2.092  0.3964 -0.5182  1.7624
11638TIP3   OH234870   7.650   1.512   3.845  0.4534  0.1141 -0.5040
11638TIP3    H134871   7.612   1.582   3.899 -0.9876 -0.3636 -0.8606
11638TIP3    H234872   7.599   1.514   3.764  1.6157 -0.1519 -1.2660
11639TIP3   OH234873   3.472   7.518   1.885  0.1711 -0.7031  0.3036
11639TIP3    H134874   3.507   7.605   1.905 -0.8326 -0.3143  0.4462
11639TIP3    H234875   3.399   7.534   1.826 -0.2657 -1.4171  0.6266
11640TIP3   OH234876   8.082   5.900   1.804 -0.5077  0.0668 -0.1142
11640TIP3    H134877   8.051   5.962   1.738 -0.2380 -0.4830 -0.7706
11640TIP3    H234878   8.156   5.856   1.762 -0.1924 -0.1317  0.6444
11641TIP3   OH234879   4.785   5.011   1.864 -0.5651 -0.2893 -0.2913
11641TIP3    H134880   4.795   4.995   1.958  0.0528  0.3231 -0.2487
11641TIP3    H234881   4.849   4.954   1.823  0.0622  0.3723 -0.2601
11642TIP3   OH234882   1.770   0.930   0.662 -0.1618  1.0610  0.0567
11642TIP3    H134883   1.759   0.975   0.577 -1.1452 -0.1339 -0.4879
11642TIP3    H234884   1.698   0.964   0.715 -1.8106 -0.8402 -0.8346
11643TIP3   OH234885   1.218   6.872   0.065 -0.0934  0.2123  0.5905
11643TIP3    H134886   1.311   6.851   0.055 -0.3382 -0.0238 -1.6191
11643TIP3    H234887   1.176   6.787   0.077 -0.1680  0.2113  0.3108
11644TIP3   OH234888   1.990   3.114   3.586  0.1582 -0.2582  0.9320
11644TIP3    H134889   2.060   3.119   3.650 -0.5301  1.7127  1.5916
11644TIP3    H234890   1.913   3.088   3.637  0.0212 -0.7123  0.5100
11645TIP3   OH234891   0.753   6.627   0.135  0.2630 -0.1170  0.1204
11645TIP3    H134892   0.732   6.535   0.152 -2.6963  0.4497  0.1589
11645TIP3    H234893   0.711   6.645   0.051  2.2642  0.8079 -0.7206
11646TIP3   OH234894   4.609   4.349   1.903 -0.6526  0.1098  0.8238
11646TIP3    H134895   4.563   4.396   1.833  0.5233  1.2130  0.7567
11646TIP3    H234896   4.695   4.329   1.866 -0.2017  0.2428  1.7675
11647TIP3   OH234897   2.196   5.198   6.479 -0.8425 -0.0504  0.5718
11647TIP3    H134898   2.189   5.109   6.444  0.0525 -0.4191  1.2966
11647TIP3    H234899   2.138   5.199   6.555  0.3658 -0.5416  1.5437
11648TIP3   OH234900   7.446   7.560   0.412  0.1293  0.3459  0.1646
11648TIP3    H134901   7.524   7.541   0.359 -1.5649 -1.5081 -1.8494
11648TIP3    H234902   7.436   7.655   0.406  2.9827  0.8568  1.7194
11649TIP3   OH234903   3.698   3.417   0.856  0.2913  0.5522 -0.2338
11649TIP3    H134904   3.648   3.449   0.931  1.0087 -0.8580  0.8906
11649TIP3    H234905   3.774   3.475   0.852  1.2766 -0.5459  1.4208
11650TIP3   OH234906   5.920   6.117   5.333  0.7416 -0.3913 -0.0227
11650TIP3    H134907   5.847   6.179   5.329  1.0091  0.0911  1.6896
11650TIP3    H234908   5.994   6.166   5.297  0.1542 -1.1023 -2.3920
11651TIP3   OH234909   2.796   6.605   4.612  0.0313 -0.1118 -0.4198
11651TIP3    H134910   2.776   6.606   4.519 -2.6811 -1.4033  0.0265
11651TIP3    H234911   2.765   6.690   4.644 -2.3197 -0.9674 -0.2289
11652TIP3   OH234912   3.013   6.238   5.268  0.3609 -0.7338  0.4744
11652TIP3    H134913   3.029   6.314   5.211 -0.8367  1.3319  2.6989
11652TIP3    H234914   2.972   6.174   5.210  0.9557  0.4771 -1.4048
11653TIP3   OH234915   5.866   6.225   1.078 -0.1578 -0.0770 -0.0890
11653TIP3    H134916   5.906   6.244   1.163  0.8326 -0.8135 -0.3638
11653TIP3    H234917   5.902   6.139   1.054  0.0810  0.4050 -1.5436
11654TIP3   OH234918   0.258   6.228   6.623  0.8199 -0.3997  0.4241
11654TIP3    H134919   0.229   6.306   6.575 -2.2508 -1.1746  0.8146
11654TIP3    H234920   0.294   6.263   6.705  0.4693  0.6587  0.1429
11655TIP3   OH234921   2.069   5.481   5.813 -0.5779  0.4956  0.2280
11655TIP3    H134922   2.079   5.438   5.898 -1.8838  1.3021  0.8227
11655TIP3    H234923   1.990   5.534   5.822 -0.2712  1.2565 -1.2198
11656TIP3   OH234924   2.416   5.136   3.829  0.0704 -0.3755 -0.5529
11656TIP3    H134925   2.480   5.207   3.836 -0.0724 -0.2785 -0.1990
11656TIP3    H234926   2.336   5.172   3.868 -0.0739 -0.6424 -0.6018
11657TIP3   OH234927   6.076   7.562   1.938  0.3298  0.0013  0.0261
11657TIP3    H134928   6.088   7.615   2.017  0.9844 -1.3403  0.8782
11657TIP3    H234929   6.070   7.625   1.867 -0.3030  1.2526  1.1497
11658TIP3   OH234930   3.715   5.132   2.189  0.2808  0.2188 -0.4708
11658TIP3    H134931   3.810   5.141   2.178  0.7544 -1.6758  1.4137
11658TIP3    H234932   3.697   5.169   2.275 -0.1334 -2.2319  0.5585
11659TIP3   OH234933   7.183   4.316   1.943  0.0346  0.0097  0.0879
11659TIP3    H134934   7.110   4.337   1.884  1.1645  3.1036 -0.3655
11659TIP3    H234935   7.182   4.386   2.008  1.5515 -0.8601  1.1024
11660TIP3   OH234936   3.992   0.420   5.619  0.2368  0.1059  0.3631
11660TIP3    H134937   3.910   0.422   5.570 -0.2984 -1.9520  1.0639
11660TIP3    H234938   4.060   0.420   5.552 -0.3298  1.2463 -0.2402
11661TIP3   OH234939   4.471   0.915   4.696  0.4013 -0.6614 -0.4202
11661TIP3    H134940   4.407   0.957   4.638 -2.7274 -1.3484  2.2274
11661TIP3    H234941   4.418   0.862   4.755  3.5881 -2.0840  1.3893
11662TIP3   OH234942   5.603   0.678   1.286 -0.5195  0.5879  0.1541
11662TIP3    H134943   5.636   0.721   1.365 -0.7633 -0.0171  0.6001
11662TIP3    H234944   5.637   0.588   1.293 -2.1590 -0.0271  0.5800
11663TIP3   OH234945   5.380   4.057   6.037  0.1587 -0.4375 -0.1312
11663TIP3    H134946   5.468   4.090   6.054  0.5435 -1.4983 -0.0046
11663TIP3    H234947   5.327   4.136   6.025  0.8263  0.2661  1.2590
11664TIP3   OH234948   0.633   5.818   6.272  0.6029  0.2799 -0.2044
11664TIP3    H134949   0.668   5.776   6.194 -0.7186 -1.4974  0.0887
11664TIP3    H234950   0.623   5.910   6.248  2.0320  0.1453 -1.4442
11665TIP3   OH234951   2.517   1.991   3.352  0.0716  0.3284  0.5439
11665TIP3    H134952   2.597   2.036   3.325  0.4921 -1.2151 -0.9571
11665TIP3    H234953   2.522   1.989   3.448  1.2272  1.3078  0.5263
11666TIP3   OH234954   5.335   1.406   3.178  0.6261  0.1799 -0.1020
11666TIP3    H134955   5.278   1.437   3.249  1.7025 -0.0777  0.9076
11666TIP3    H234956   5.279   1.407   3.100 -0.8724 -0.4488  0.9282
11667TIP3   OH234957   7.584   7.592   1.325  0.4851 -0.0674  0.3149
11667TIP3    H134958   7.639   7.612   1.401  1.8045  1.1828 -0.8964
11667TIP3    H234959   7.545   7.676   1.302 -0.8297 -0.6692  0.2843
11668TIP3   OH234960   0.902   4.268   3.559 -0.3831  0.1708 -0.6139
11668TIP3    H134961   0.874   4.359   3.567  0.2524  0.2635  1.0770
11668TIP3    H234962   0.997   4.272   3.555 -0.4143 -0.3458 -2.3847
11669TIP3   OH234963   5.021   1.903   2.011 -0.4062 -0.2650  0.0508
11669TIP3    H134964   4.956   1.835   2.032 -1.5834  0.1444 -2.0090
11669TIP3    H234965   4.987   1.982   2.053 -0.4000 -0.4013  0.3132
11670TIP3   OH234966   4.342   6.721   2.019  0.2883  0.1352 -0.3704
11670TIP3    H134967   4.421   6.756   2.060  0.1958 -0.2038  0.1030
11670TIP3    H234968   4.291   6.686   2.091 -0.0785 -0.0823 -0.7301
11671TIP3   OH234969   0.534   3.569   2.375 -0.0029  0.2986  0.9358
11671TIP3    H134970   0.465   3.623   2.413 -0.3022  0.6765 -0.1118
11671TIP3    H234971   0.499   3.480   2.377  0.9076 -0.0881  3.6413
11672TIP3   OH234972   1.140   3.333   3.988  0.2772  0.5576  0.0906
11672TIP3    H134973   1.097   3.249   3.999  0.5721 -0.0507 -2.5532
11672TIP3    H234974   1.228   3.321   4.024  0.3701 -0.3579 -0.4110
11673TIP3   OH234975   2.888   5.507   1.627 -0.1770  0.3543 -0.1519
11673TIP3    H134976   2.963   5.448   1.616 -0.6487 -0.3860  0.4398
11673TIP3    H234977   2.876   5.547   1.541 -0.5857 -1.3459 -0.9383
11674TIP3   OH234978   3.538   0.648   6.326 -0.0380 -0.0762 -0.9023
11674TIP3    H134979   3.587   0.597   6.390 -0.2600 -1.0549 -1.4781
11674TIP3    H234980   3.507   0.725   6.374 -0.9583 -1.2233  0.4079
11675TIP3   OH234981   4.676   5.648   6.222  0.7236  0.4488 -0.6772
11675TIP3    H134982   4.620   5.726   6.222 -0.8344 -0.6081  0.4047
11675TIP3    H234983   4.705   5.639   6.131  0.4329  1.9261 -0.9399
11676TIP3   OH234984   0.348   3.419   1.218  0.5573  0.3388  0.2688
11676TIP3    H134985   0.386   3.331   1.219 -1.5626 -0.6351  0.6239
11676TIP3    H234986   0.356   3.448   1.127  1.4946 -0.1198  0.1999
11677TIP3   OH234987   3.128   0.243   3.425  0.3744  0.0194  0.3403
11677TIP3    H134988   3.133   0.151   3.452  2.0720  0.1352  0.5034
11677TIP3    H234989   3.092   0.240   3.336 -2.4843 -0.5564  1.4067
11678TIP3   OH234990   3.696   5.046   5.740 -0.0518  0.3069 -0.2823
11678TIP3    H134991   3.780   5.019   5.778  0.7079  3.1697  0.3061
11678TIP3    H234992   3.631   4.994   5.788  1.2759 -1.0181  0.1655
11679TIP3   OH234993   7.073   2.396   5.348  0.6064  0.1093 -0.1338
11679TIP3    H134994   7.151   2.450   5.342  0.4896  0.1705 -1.4560
11679TIP3    H234995   7.070   2.349   5.264 -0.3462 -0.4843  0.2124
11680TIP3   OH234996   4.746   4.918   4.097 -0.1349  0.0772 -0.2595
11680TIP3    H134997   4.659   4.955   4.081  0.4846  1.4744 -0.4589
11680TIP3    H234998   4.791   4.924   4.012 -0.3650 -2.1630 -0.5996
11681TIP3   OH234999   4.987   0.613   5.502  0.3864  0.0084  0.1352
11681TIP3    H135000   4.991   0.567   5.418 -1.4068 -1.0363  0.5673
11681TIP3    H235001   4.982   0.544   5.567 -1.3980  0.7758  0.8762
11682TIP3   OH235002   7.828   2.349   3.258 -0.0537 -0.5306 -0.1371
11682TIP3    H135003   7.898   2.310   3.311  1.8889  0.5335 -1.7879
11682TIP3    H235004   7.829   2.442   3.282  0.5359 -0.1253 -1.6249
11683TIP3   OH235005   5.923   6.230   5.761  0.2211  0.3274 -0.2168
11683TIP3    H135006   5.907   6.324   5.771  1.9396  0.7884 -1.2368
11683TIP3    H235007   6.019   6.223   5.758  0.0965 -1.2952 -1.4930
11684TIP3   OH235008   1.025   3.659   4.025  0.6015  0.2215 -0.3503
11684TIP3    H135009   0.981   3.716   3.962 -0.1118 -0.7954 -0.7871
11684TIP3    H235010   1.118   3.672   4.007  0.4571  1.3134 -0.3777
11685TIP3   OH235011   2.328   2.660   4.804 -0.3956 -1.1248  0.0079
11685TIP3    H135012   2.345   2.754   4.798  0.9226 -1.1154  2.4000
11685TIP3    H235013   2.414   2.619   4.793 -0.8935 -2.0260 -0.6085
11686TIP3   OH235014   4.993   7.654   0.814  0.0889  0.0375  0.0423
11686TIP3    H135015   5.042   7.716   0.867  1.3834 -0.9849  0.0918
11686TIP3    H235016   4.941   7.709   0.754  0.4593  1.1568  0.7242
11687TIP3   OH235017   2.953   0.939   2.851 -0.3808 -0.0724 -0.2238
11687TIP3    H135018   3.026   0.880   2.871 -1.3256 -0.6809  1.5853
11687TIP3    H235019   2.903   0.894   2.783 -0.1933 -0.5958 -0.0149
11688TIP3   OH235020   2.519   4.378   0.005 -0.3133 -0.1745  0.0022
11688TIP3    H135021   2.461   4.447  -0.026 -2.3614 -0.7449  2.2425
11688TIP3    H235022   2.543   4.405   0.094  0.5082 -1.3518  0.1576
11689TIP3   OH235023   4.926   3.128   2.128  0.2939 -0.1871  0.1772
11689TIP3    H135024   5.000   3.182   2.100  1.3041 -0.5850  1.9359
11689TIP3    H235025   4.943   3.042   2.090 -0.7279  0.3617 -1.6735
11690TIP3   OH235026   4.308   0.369   3.348  0.0628  0.0939  0.2303
11690TIP3    H135027   4.263   0.311   3.287  1.0412  0.8206 -1.2288
11690TIP3    H235028   4.363   0.310   3.400  0.9356 -0.3496 -1.1319
11691TIP3   OH235029   3.974   6.774   6.423 -0.2732  0.4625  0.2218
11691TIP3    H135030   3.935   6.760   6.509 -1.0305  0.7118 -0.0716
11691TIP3    H235031   3.919   6.841   6.382 -1.0158 -0.9082 -1.1410
11692TIP3   OH235032   7.861   2.573   5.130 -0.2375 -0.3031 -0.2180
11692TIP3    H135033   7.914   2.600   5.204 -0.4293 -0.1970 -0.1191
11692TIP3    H235034   7.849   2.653   5.078 -1.4467 -0.0157  0.4715
11693TIP3   OH235035   2.350   2.308   6.430 -0.0690  0.2220  0.2947
11693TIP3    H135036   2.423   2.358   6.393  0.4173  0.9157  2.0605
11693TIP3    H235037   2.303   2.372   6.484  0.0301 -0.9831  1.8868
11694TIP3   OH235038   2.683   1.437   1.184  0.0967  0.0360  0.1888
11694TIP3    H135039   2.621   1.434   1.257 -1.5918 -0.4038 -1.2026
11694TIP3    H235040   2.723   1.351   1.183 -2.2676 -1.1423 -1.3225
11695TIP3   OH235041   3.882   4.408   3.609 -0.1031 -0.4513  0.4867
11695TIP3    H135042   3.924   4.432   3.692  2.0576 -1.8165 -0.1269
11695TIP3    H235043   3.876   4.491   3.561  2.0480 -0.1483  0.5981
11696TIP3   OH235044   0.782   5.990   3.330  0.5370  0.0854 -0.0410
11696TIP3    H135045   0.851   6.053   3.350 -0.3618  0.9414  0.4702
11696TIP3    H235046   0.816   5.939   3.256  1.4269  0.9297 -0.2326
11697TIP3   OH235047   5.797   4.639   5.219 -0.0360 -0.0429  0.2930
11697TIP3    H135048   5.865   4.677   5.163  0.5074  0.1157  1.0542
11697TIP3    H235049   5.789   4.699   5.292 -1.1159  0.0161  0.1396
11698TIP3   OH235050   3.864   0.891   4.673  0.7262  0.1920  0.0427
11698TIP3    H135051   3.784   0.880   4.726 -1.4439  2.0809 -2.5771
11698TIP3    H235052   3.876   0.986   4.668  1.8802 -0.0027 -1.4036
11699TIP3   OH235053   1.578   3.954   0.286  0.0398  0.1315 -0.3613
11699TIP3    H135054   1.583   3.928   0.194 -1.6911 -2.2285  0.1056
11699TIP3    H235055   1.668   3.973   0.311  1.0231 -2.1244 -1.8007
11700TIP3   OH235056   1.874   5.968   2.157 -0.2506  0.0960 -0.2228
11700TIP3    H135057   1.815   6.038   2.184  0.3809  1.7578 -2.8344
11700TIP3    H235058   1.823   5.916   2.095  0.1307 -0.2188 -0.2800
11701TIP3   OH235059   3.231   0.478   3.075 -0.6073 -0.1243  0.1096
11701TIP3    H135060   3.286   0.436   3.140 -0.2282 -2.9615 -1.8563
11701TIP3    H235061   3.149   0.497   3.121 -0.7339 -2.9662  1.2570
11702TIP3   OH235062   5.416   5.292   2.674  0.1315  0.0729 -0.0034
11702TIP3    H135063   5.343   5.232   2.658  0.1221  0.0905 -0.0272
11702TIP3    H235064   5.473   5.245   2.735  0.0606  0.0913  0.0772
11703TIP3   OH235065   3.075   4.054   3.109 -0.0432  0.3147  0.4288
11703TIP3    H135066   3.038   4.118   3.170 -0.9289  0.2980 -0.0688
11703TIP3    H235067   3.026   4.067   3.028  1.1171  0.3380 -0.2874
11704TIP3   OH235068   7.394   0.683   5.649  0.6812  0.1221 -0.0880
11704TIP3    H135069   7.358   0.742   5.714  1.3638  2.0264 -1.3322
11704TIP3    H235070   7.320   0.631   5.619 -0.2929  1.4315 -0.0351
11705TIP3   OH235071   2.881   3.001   0.363 -0.3499 -0.3938 -0.4127
11705TIP3    H135072   2.869   3.022   0.455  3.2611 -1.3112  0.4203
11705TIP3    H235073   2.895   3.086   0.320  0.4451 -0.1138  0.3782
11706TIP3   OH235074   1.530   1.219   2.668 -0.4846 -0.2260  0.6329
11706TIP3    H135075   1.537   1.203   2.762 -0.5386  1.1830  0.9041
11706TIP3    H235076   1.436   1.214   2.650 -0.5421  0.1803  0.8001
11707TIP3   OH235077   6.856   1.073   4.526  0.0288 -0.8097 -0.3726
11707TIP3    H135078   6.798   1.111   4.592 -1.6426 -0.4642 -1.9494
11707TIP3    H235079   6.871   0.984   4.556 -0.9430 -0.7511  0.3410
11708TIP3   OH235080   1.814   6.840   4.682  0.5888 -0.4910  0.0717
11708TIP3    H135081   1.871   6.820   4.756 -0.0199  0.0347  0.7007
11708TIP3    H235082   1.731   6.867   4.722  0.1099 -0.6148 -0.8100
11709TIP3   OH235083   7.739   5.786   0.857  0.2775  0.5816  0.1419
11709TIP3    H135084   7.756   5.879   0.870  1.0326  0.1880  2.3578
11709TIP3    H235085   7.676   5.783   0.785  2.1939  2.6272 -1.7657
11710TIP3   OH235086   0.919   6.043   0.065  0.2307  0.1754 -0.2062
11710TIP3    H135087   0.856   5.975   0.087  0.7694 -0.1314  0.4352
11710TIP3    H235088   0.926   6.039  -0.031 -1.2649  0.7276 -0.3667
11711TIP3   OH235089   1.808   3.135   2.210 -0.3247  0.3533 -0.0837
11711TIP3    H135090   1.872   3.143   2.281  0.0566 -1.1347 -0.2385
11711TIP3    H235091   1.842   3.192   2.141  1.0461 -0.6543 -0.2927
11712TIP3   OH235092   2.541   4.372   0.730 -0.9899  0.3841  0.4935
11712TIP3    H135093   2.514   4.439   0.793 -2.1769  0.9897 -0.5914
11712TIP3    H235094   2.461   4.354   0.679  0.1120  0.5654 -1.3927
11713TIP3   OH235095   0.318   5.311   2.787  0.2491  0.6271 -0.5538
11713TIP3    H135096   0.294   5.399   2.814  0.3897  0.3702  0.4522
11713TIP3    H235097   0.259   5.290   2.715 -1.0570  0.8210  0.4442
11714TIP3   OH235098   4.734   1.290   4.221 -0.3859 -0.3879  0.1602
11714TIP3    H135099   4.818   1.269   4.181 -0.9327 -1.2972 -0.5537
11714TIP3    H235100   4.712   1.213   4.273 -0.2485  0.3042  1.2653
11715TIP3   OH235101   5.071   7.306   1.298 -0.2496 -0.1747 -0.0339
11715TIP3    H135102   5.093   7.214   1.311  2.4112  0.4573  0.5881
11715TIP3    H235103   5.139   7.354   1.345 -2.7299  2.1560  1.4258
11716TIP3   OH235104   2.350   2.793   1.168  0.2368 -0.0238 -0.8700
11716TIP3    H135105   2.268   2.840   1.184  0.6228  0.3795 -0.0245
11716TIP3    H235106   2.403   2.854   1.115  0.4031  0.1540 -0.5029
11717TIP3   OH235107   6.870   3.198   2.606  0.1325 -0.0636 -0.0258
11717TIP3    H135108   6.930   3.160   2.670  1.1353 -2.1610 -2.0566
11717TIP3    H235109   6.922   3.207   2.526 -1.2372  1.8206 -0.7951
11718TIP3   OH235110   5.740   5.002   3.865 -0.0685 -0.1019  0.7309
11718TIP3    H135111   5.711   4.911   3.872 -0.9360  0.1098  0.1026
11718TIP3    H235112   5.702   5.033   3.783  1.1720  0.4959  0.3605
11719TIP3   OH235113   4.269   1.325   4.468  0.8230  0.3762  0.1311
11719TIP3    H135114   4.268   1.401   4.411 -0.0508 -0.8626 -1.6003
11719TIP3    H235115   4.348   1.276   4.441  0.6941  0.0493  0.3403
11720TIP3   OH235116   4.474   3.441   1.477  0.2305  0.1482  0.5225
11720TIP3    H135117   4.527   3.419   1.553 -0.5413 -0.5274  0.8764
11720TIP3    H235118   4.521   3.403   1.403  2.5579  3.2821  0.2096
11721TIP3   OH235119   2.476   4.524   3.917  0.4160  0.2621  0.0658
11721TIP3    H135120   2.565   4.550   3.897  0.6410 -1.0645 -0.8193
11721TIP3    H235121   2.422   4.567   3.850  0.5624 -0.0242 -0.2391
11722TIP3   OH235122   4.474   6.232   2.499 -0.1550 -0.4941  0.3388
11722TIP3    H135123   4.536   6.163   2.521 -1.5919 -1.6750  0.8981
11722TIP3    H235124   4.496   6.304   2.557  1.6232 -0.3126 -0.5165
11723TIP3   OH235125   7.148   2.479   6.401 -0.3042  0.0256  0.1528
11723TIP3    H135126   7.215   2.536   6.439 -0.4856  0.9146 -0.8061
11723TIP3    H235127   7.193   2.395   6.387  0.9621  0.9086 -1.4430
11724TIP3   OH235128   0.719   5.109   1.158 -0.0580 -0.2199 -0.0708
11724TIP3    H135129   0.699   5.203   1.158 -2.6091 -0.6853  0.7384
11724TIP3    H235130   0.752   5.092   1.070 -0.6789  1.2340 -0.6216
11725TIP3   OH235131   2.182   0.076   4.752 -0.2018  0.0550 -0.6824
11725TIP3    H135132   2.270   0.099   4.780 -0.7702  2.3684 -0.5681
11725TIP3    H235133   2.183   0.089   4.657 -0.5792  0.7389 -0.5985
11726TIP3   OH235134   2.552   6.469   2.662  0.6595  0.5604  0.0102
11726TIP3    H135135   2.546   6.409   2.737 -0.2942  0.0765 -0.4453
11726TIP3    H235136   2.568   6.413   2.587  0.8901  0.9888 -0.2683
11727TIP3   OH235137   2.320   3.627   0.069  0.0208 -0.8534  0.0151
11727TIP3    H135138   2.302   3.611  -0.023  0.6017 -3.3320  0.2443
11727TIP3    H235139   2.363   3.712   0.072 -1.4879  0.0366 -1.7695
11728TIP3   OH235140   7.260   6.182   3.156  0.5533 -0.1967 -0.9965
11728TIP3    H135141   7.292   6.095   3.179  0.7989  0.3646  0.9438
11728TIP3    H235142   7.273   6.187   3.061  1.6718 -1.8124 -0.9828
11729TIP3   OH235143   3.387   1.160   5.734 -0.1115  0.2413 -0.6681
11729TIP3    H135144   3.358   1.152   5.825  2.2869 -0.1104  0.1381
11729TIP3    H235145   3.348   1.084   5.690  0.4224 -0.8030  0.5856
11730TIP3   OH235146   8.122   6.535   0.778  0.1347 -0.3267 -0.0221
11730TIP3    H135147   8.042   6.483   0.771 -0.1786  0.2965 -1.4443
11730TIP3    H235148   8.164   6.526   0.693  0.5652  0.9481  0.0317
11731TIP3   OH235149   2.070   2.724   6.658  0.6840 -0.4073 -0.2285
11731TIP3    H135150   2.095   2.769   6.738 -0.5908  3.1465 -1.6285
11731TIP3    H235151   2.026   2.644   6.687  0.5909  0.5799  2.5665
11732TIP3   OH235152   4.696   5.534   4.222 -0.0143  0.1203  0.6174
11732TIP3    H135153   4.624   5.563   4.278 -1.0658 -1.4332  0.1387
11732TIP3    H235154   4.657   5.521   4.136  1.4660  1.9188 -0.3915
11733TIP3   OH235155   5.649   6.381   6.340 -0.7909 -0.0272 -0.2075
11733TIP3    H135156   5.679   6.400   6.251 -1.3980  0.3147 -0.3469
11733TIP3    H235157   5.562   6.422   6.345 -0.3737  0.7616  0.8484
11734TIP3   OH235158   7.643   1.234   2.123 -0.2154  0.2952 -0.0661
11734TIP3    H135159   7.580   1.246   2.052 -0.2956 -0.7066 -0.1851
11734TIP3    H235160   7.715   1.293   2.102 -0.6680  0.7106 -0.4663
11735TIP3   OH235161   8.296   5.300   5.351 -0.5677 -0.2770 -0.2844
11735TIP3    H135162   8.305   5.326   5.443  1.9542 -1.4583 -0.1080
11735TIP3    H235163   8.219   5.347   5.320 -0.4514  1.5486  1.9516
11736TIP3   OH235164   7.184   5.836   2.771  0.4567  0.1630 -0.1435
11736TIP3    H135165   7.183   5.747   2.735  1.6450  0.5470 -1.2142
11736TIP3    H235166   7.131   5.887   2.710 -0.1011  0.2161  0.3878
11737TIP3   OH235167   1.358   6.003   2.223  0.5836  1.0203  0.5827
11737TIP3    H135168   1.342   6.068   2.154  0.0364  0.7231  0.4264
11737TIP3    H235169   1.310   5.925   2.194  1.4184  0.4684  0.6538
11738TIP3   OH235170   4.502   4.800   5.705 -0.1668  0.2091  0.1101
11738TIP3    H135171   4.423   4.842   5.740 -0.3288  0.5063 -0.5961
11738TIP3    H235172   4.489   4.707   5.721 -0.3348  0.3183  0.6352
11739TIP3   OH235173   4.030   0.098   5.347 -0.8309  0.0122  0.6585
11739TIP3    H135174   3.976   0.106   5.426 -0.7093  1.7352  0.6094
11739TIP3    H235175   4.041   0.004   5.335 -3.9280 -0.4561  0.5740
11740TIP3   OH235176   2.308   0.966   0.826 -0.0899 -0.8690  0.1874
11740TIP3    H135177   2.342   0.896   0.771 -2.9724 -1.9519 -0.3601
11740TIP3    H235178   2.374   0.976   0.895  2.5401 -0.9935 -2.1458
11741TIP3   OH235179   0.165   3.897   0.194  0.0627  0.7673  0.3207
11741TIP3    H135180   0.202   3.868   0.278 -0.6844  0.0234  0.4116
11741TIP3    H235181   0.143   3.816   0.149 -1.9673  1.1577  0.5243
11742TIP3   OH235182   4.725   7.744   5.150  0.0254  0.6501 -0.2612
11742TIP3    H135183   4.633   7.719   5.147  0.5494 -1.5532  0.5142
11742TIP3    H235184   4.729   7.812   5.217 -1.2152  1.8359 -1.3195
11743TIP3   OH235185   6.598   3.735   2.231 -0.5489  0.1965  0.5713
11743TIP3    H135186   6.639   3.811   2.273  3.4124 -1.9103  1.0858
11743TIP3    H235187   6.561   3.685   2.304  1.0197 -0.5505  0.8987
11744TIP3   OH235188   3.042   2.816   3.392 -0.4392  0.4631 -0.2811
11744TIP3    H135189   2.954   2.804   3.428  0.7447 -2.9713  2.0549
11744TIP3    H235190   3.088   2.869   3.456 -0.0299 -0.3231  0.0922
11745TIP3   OH235191   7.549   7.502   3.166  0.5090 -0.6319  0.3332
11745TIP3    H135192   7.556   7.454   3.248  0.6561  0.7028  1.1425
11745TIP3    H235193   7.637   7.501   3.129  0.1155 -2.6143 -0.6629
11746TIP3   OH235194   2.985   1.985   6.048  0.4263  0.0247 -0.5208
11746TIP3    H135195   2.924   1.912   6.032  1.4275 -0.8816 -0.2960
11746TIP3    H235196   3.036   1.992   5.968  0.7469  0.0841 -0.3109
11747TIP3   OH235197   3.154   6.233   4.734  0.2646 -0.4523 -0.2656
11747TIP3    H135198   3.060   6.244   4.746  0.2734 -0.7408  0.1029
11747TIP3    H235199   3.177   6.159   4.791  0.6885 -0.4761 -0.4607
11748TIP3   OH235200   0.740   7.689   2.114 -0.2721 -0.5370 -0.5225
11748TIP3    H135201   0.692   7.770   2.097  0.7694  0.2976  0.2765
11748TIP3    H235202   0.712   7.663   2.202 -1.3517 -1.6322 -1.1592
11749TIP3   OH235203   6.955   4.022   4.143  0.8900 -0.6300 -0.4005
11749TIP3    H135204   6.887   4.074   4.100 -0.1094 -1.3867  0.2100
11749TIP3    H235205   6.973   3.951   4.082  0.0930 -1.2184  0.0220
11750TIP3   OH235206   1.122   6.085   5.916  0.2603  0.5832 -0.5684
11750TIP3    H135207   1.113   6.169   5.870  3.6395  0.8905 -0.9711
11750TIP3    H235208   1.208   6.091   5.959 -0.3958 -1.8351  1.2836
11751TIP3   OH235209   4.571   5.283   3.222  0.1372  0.7433  0.3791
11751TIP3    H135210   4.640   5.219   3.205  0.9895  1.8082 -0.2505
11751TIP3    H235211   4.536   5.258   3.308  1.4106  0.2940  0.7938
11752TIP3   OH235212   7.626   1.246   0.316 -0.3094  0.1008 -0.0700
11752TIP3    H135213   7.653   1.232   0.407 -1.3463  0.4755  0.3132
11752TIP3    H235214   7.595   1.160   0.287  0.1405 -0.0485 -0.1156
11753TIP3   OH235215   1.890   4.239   6.265 -0.4205 -0.0361 -0.3253
11753TIP3    H135216   1.875   4.278   6.179  0.6446  0.9845 -0.0690
11753TIP3    H235217   1.905   4.313   6.323  2.6351 -0.7874 -0.0009
11754TIP3   OH235218   1.363   2.774   6.084  0.1417  0.0623 -0.1910
11754TIP3    H135219   1.400   2.693   6.049 -1.2146 -0.1116 -1.2725
11754TIP3    H235220   1.340   2.753   6.174 -0.4567 -0.8522 -0.5442
11755TIP3   OH235221   0.662   0.775   0.204  0.0134  0.0718  0.5520
11755TIP3    H135222   0.702   0.860   0.186  0.6174 -0.2355  0.3997
11755TIP3    H235223   0.570   0.794   0.220 -0.2704  0.5460 -1.4041
11756TIP3   OH235224   4.991   1.827   3.607  0.5164  0.1982  0.6028
11756TIP3    H135225   5.000   1.801   3.699  0.1965 -0.3476  0.4855
11756TIP3    H235226   4.954   1.750   3.564  0.8436  0.3876 -0.0231
11757TIP3   OH235227   0.094   0.475   4.349  0.5479 -0.2579  0.4031
11757TIP3    H135228   0.099   0.379   4.343 -0.1528 -0.3580  1.2606
11757TIP3    H235229   0.177   0.500   4.390 -0.2237 -0.7403  2.4136
11758TIP3   OH235230   6.071   4.918   5.373  0.1227  0.1277 -0.1067
11758TIP3    H135231   6.121   4.954   5.300  0.1420  1.6121  0.5903
11758TIP3    H235232   6.131   4.857   5.416  0.0865 -0.8099 -1.3454
11759TIP3   OH235233   6.922   0.855   3.603 -0.4277  0.6606 -0.5972
11759TIP3    H135234   6.831   0.825   3.607 -0.8735  1.8344 -1.3020
11759TIP3    H235235   6.969   0.796   3.661 -1.6264 -0.0210 -0.2717
11760TIP3   OH235236   5.276   6.215   4.123  0.4864  0.0488  0.4859
11760TIP3    H135237   5.321   6.288   4.080  0.1340 -0.6222 -1.0598
11760TIP3    H235238   5.264   6.149   4.055  0.8435 -1.5113  1.8451
11761TIP3   OH235239   0.683   4.561   3.164 -0.3519 -0.3088  0.2919
11761TIP3    H135240   0.636   4.635   3.201  0.9521 -0.1158  1.6394
11761TIP3    H235241   0.705   4.589   3.075  0.7301  1.2387  1.0067
11762TIP3   OH235242   6.655   1.062   6.124 -0.2668 -0.1477  0.0963
11762TIP3    H135243   6.581   1.088   6.180  0.0416 -0.0859  0.4797
11762TIP3    H235244   6.670   1.138   6.068 -0.2430 -0.0082  0.2882
11763TIP3   OH235245   0.078   2.234   3.226  0.4228 -0.1536 -0.1155
11763TIP3    H135246   0.096   2.279   3.309 -0.9892  1.7218 -0.7384
11763TIP3    H235247   0.114   2.292   3.159 -1.0415 -0.1271 -0.9286
11764TIP3   OH235248   6.874   0.225   2.107 -0.2411 -0.1676  0.4881
11764TIP3    H135249   6.786   0.220   2.145 -0.4056 -0.1588  0.1139
11764TIP3    H235250   6.903   0.134   2.103 -0.2387 -0.1718  0.5995
11765TIP3   OH235251   1.438   1.916   1.842  0.2372 -0.4673  0.1081
11765TIP3    H135252   1.466   1.995   1.888 -1.8696 -0.2331  1.1030
11765TIP3    H235253   1.484   1.844   1.887  1.1139  0.0656  0.0822
11766TIP3   OH235254   5.060   0.640   5.018  0.3117 -0.0219  0.0101
11766TIP3    H135255   4.986   0.580   5.029 -0.4971  1.0407  0.5761
11766TIP3    H235256   5.138   0.585   5.028 -0.4058 -0.9666  0.5034
11767TIP3   OH235257   5.229   5.655   3.202  0.2118  0.6407 -0.6263
11767TIP3    H135258   5.209   5.581   3.146  0.7850  0.2173 -0.2750
11767TIP3    H235259   5.264   5.617   3.282 -1.1310  1.2021  0.2620
11768TIP3   OH235260   4.801   4.422   2.628  0.3338  0.5535 -0.2451
11768TIP3    H135261   4.830   4.509   2.604  1.3449  0.4716  0.6064
11768TIP3    H235262   4.801   4.372   2.547  0.7730  1.0645 -0.5589
11769TIP3   OH235263   2.115   1.441   3.213 -0.3124 -0.5716  0.2891
11769TIP3    H135264   2.134   1.427   3.306 -0.3532 -1.3146  0.1958
11769TIP3    H235265   2.147   1.361   3.170 -1.2262 -0.6882 -0.2003
11770TIP3   OH235266   8.139   5.919   6.399 -0.3799  0.3308 -0.0413
11770TIP3    H135267   8.114   5.955   6.484  1.0545 -0.0092  0.5652
11770TIP3    H235268   8.164   5.995   6.347  1.5457  0.3678  0.8535
11771TIP3   OH235269   3.809   2.770   2.452  0.1333  0.4078 -0.3790
11771TIP3    H135270   3.900   2.776   2.482  0.6569  0.3214 -1.8508
11771TIP3    H235271   3.815   2.779   2.357 -1.4439  0.7560 -0.4695
11772TIP3   OH235272   5.848   2.620   0.022 -0.3857 -0.1221 -0.2009
11772TIP3    H135273   5.850   2.702   0.070  2.5627  1.1959 -2.2246
11772TIP3    H235274   5.917   2.567   0.062 -2.7177 -2.0755  1.5577
11773TIP3   OH235275   7.699   4.030   4.585 -0.6913  0.0812  0.5018
11773TIP3    H135276   7.670   4.108   4.538  0.9445  0.4479  0.0196
11773TIP3    H235277   7.639   3.961   4.556  0.6929  0.0805 -2.9057
11774TIP3   OH235278   6.172   2.138   2.078  0.0192  0.0509 -0.1032
11774TIP3    H135279   6.182   2.212   2.139  1.5255  0.1251 -0.3891
11774TIP3    H235280   6.161   2.062   2.135 -0.5078  0.3559  0.2146
11775TIP3   OH235281   6.746   5.279   2.890  0.0083 -0.6302 -0.4037
11775TIP3    H135282   6.676   5.229   2.846 -0.7027 -0.8294  0.9081
11775TIP3    H235283   6.715   5.369   2.890 -0.2252 -0.7081  0.1205
11776TIP3   OH235284   3.010   4.116   6.349  0.7349  0.1192 -0.0842
11776TIP3    H135285   2.983   4.047   6.289  1.9793  0.9813 -1.6930
11776TIP3    H235286   2.957   4.192   6.324  1.6518  0.6381 -0.4732
11777TIP3   OH235287   6.606   3.510   1.600  0.1618  0.0357  0.0841
11777TIP3    H135288   6.542   3.578   1.619  0.6863  0.8687 -1.0112
11777TIP3    H235289   6.689   3.545   1.631  0.4985  0.0671 -0.8151
11778TIP3   OH235290   5.195   1.310   3.745  0.7675  0.1643 -0.3241
11778TIP3    H135291   5.260   1.298   3.676 -0.1345  2.1999 -1.6379
11778TIP3    H235292   5.241   1.361   3.812  0.9114  0.4673 -0.6470
11779TIP3   OH235293   6.386   3.274   5.958  0.6312 -0.2778  0.5593
11779TIP3    H135294   6.316   3.216   5.928 -0.3595 -0.1079  2.4207
11779TIP3    H235295   6.465   3.222   5.950  0.4762 -0.2294 -2.3060
11780TIP3   OH235296   7.688   3.933   5.139 -0.2752  0.0441  0.0864
11780TIP3    H135297   7.705   3.853   5.189 -0.4347  0.3166  0.5762
11780TIP3    H235298   7.728   3.916   5.054 -2.2620 -1.4695 -0.6209
11781TIP3   OH235299   4.730   3.359   3.834  0.6191  0.1001  0.3428
11781TIP3    H135300   4.692   3.334   3.919  0.2879 -0.0848  0.1429
11781TIP3    H235301   4.824   3.359   3.849  0.5909 -0.5307  0.5489
11782TIP3   OH235302   1.245   3.291   1.465 -0.2104  0.0408 -0.1964
11782TIP3    H135303   1.211   3.226   1.404 -0.7597  2.4038 -2.5617
11782TIP3    H235304   1.320   3.329   1.420  0.2579  0.8928  1.2395
11783TIP3   OH235305   6.443   2.220   0.523  0.0933  0.6215  0.6706
11783TIP3    H135306   6.383   2.160   0.478  1.3147 -0.0845 -0.0451
11783TIP3    H235307   6.464   2.176   0.605  2.6886 -1.0811 -0.7541
11784TIP3   OH235308   2.996   4.038   1.470 -0.5798 -0.1337  0.1757
11784TIP3    H135309   2.924   3.976   1.463 -1.4892  0.6986  1.7352
11784TIP3    H235310   2.998   4.063   1.562  1.6322 -0.0292  0.1665
11785TIP3   OH235311   7.642   1.354   4.675  0.0142 -0.2225 -0.3355
11785TIP3    H135312   7.628   1.436   4.627  0.1366 -1.2470 -2.2111
11785TIP3    H235313   7.737   1.347   4.682  0.0249 -0.4580 -0.6749
11786TIP3   OH235314   3.651   1.282   5.847 -0.1020 -0.2330  0.1261
11786TIP3    H135315   3.617   1.195   5.827 -0.6234 -0.4541  1.7998
11786TIP3    H235316   3.645   1.289   5.943 -1.5884  2.2302 -0.0497
11787TIP3   OH235317   0.311   5.676   4.648 -0.0895  0.1177 -0.1870
11787TIP3    H135318   0.334   5.694   4.557  0.7276  0.8406  0.1499
11787TIP3    H235319   0.282   5.585   4.648  1.7433 -0.4974 -0.8479
11788TIP3   OH235320   4.419   0.943   1.342  0.7810  0.3654 -0.1647
11788TIP3    H135321   4.415   0.931   1.247  1.5030 -0.1645 -0.1354
11788TIP3    H235322   4.327   0.936   1.370  0.5228  0.8420 -0.8502
11789TIP3   OH235323   7.951   3.525   2.003 -0.5233 -0.0068  0.3246
11789TIP3    H135324   8.043   3.530   1.978 -0.1878  0.0338  1.5133
11789TIP3    H235325   7.950   3.545   2.096 -1.6610 -0.7045  0.4849
11790TIP3   OH235326   3.837   7.473   1.045  0.3075  0.0194 -0.2268
11790TIP3    H135327   3.755   7.492   0.999  1.7339  0.8466 -2.6197
11790TIP3    H235328   3.877   7.402   0.994  2.1541  1.2424 -0.5751
11791TIP3   OH235329   6.687   1.826   1.564  0.0034  0.0734 -0.1254
11791TIP3    H135330   6.737   1.903   1.588 -1.4220  0.1874  2.9590
11791TIP3    H235331   6.602   1.860   1.535 -0.1472 -0.2714 -0.0998
11792TIP3   OH235332   0.564   7.631   4.937 -0.2745 -0.3633 -0.2421
11792TIP3    H135333   0.474   7.640   4.905  0.4852 -0.0138 -2.4813
11792TIP3    H235334   0.591   7.720   4.958 -0.6651 -0.5562  1.1990
11793TIP3   OH235335   4.038   4.602   0.056  0.2238 -0.2590 -0.0117
11793TIP3    H135336   3.992   4.537   0.002 -1.6152  1.6202 -0.8268
11793TIP3    H235337   4.121   4.616   0.011  0.2141 -1.2798 -0.3837
11794TIP3   OH235338   7.048   3.463   2.966  0.6809  0.0399  0.3073
11794TIP3    H135339   7.138   3.434   2.953  0.1178 -1.2906 -0.7850
11794TIP3    H235340   7.008   3.459   2.880 -1.4676 -3.1353  1.2515
11795TIP3   OH235341   4.867   0.995   1.306 -0.1583 -0.6501  0.1320
11795TIP3    H135342   4.848   1.088   1.319  3.3674  0.0461  1.4528
11795TIP3    H235343   4.803   0.949   1.360 -1.4346  1.0246  0.1099
11796TIP3   OH235344   7.462   4.925   3.636 -0.7698  0.3058 -0.1231
11796TIP3    H135345   7.526   4.991   3.664 -1.0190  0.1475  0.8649
11796TIP3    H235346   7.428   4.959   3.553  0.1493  0.6960 -0.3537
11797TIP3   OH235347   4.817   5.791   0.206  0.0914 -0.1583  0.6805
11797TIP3    H135348   4.777   5.856   0.263 -1.8340 -0.8401  0.1793
11797TIP3    H235349   4.819   5.832   0.119  1.8925  0.4155  0.9474
11798TIP3   OH235350   0.174   3.626   0.745  0.0516 -0.1573  0.1701
11798TIP3    H135351   0.138   3.706   0.706 -0.5031 -0.8194 -0.7111
11798TIP3    H235352   0.129   3.619   0.830  0.6640  0.8601  0.5947
11799TIP3   OH235353   7.803   6.393   1.028 -0.4532 -0.6660 -0.1562
11799TIP3    H135354   7.881   6.434   1.065 -0.2283  0.4303 -1.7562
11799TIP3    H235355   7.770   6.336   1.099  0.7293  0.2516  1.1887
11800TIP3   OH235356   2.545   0.010   0.251 -0.3712 -0.1049 -0.1363
11800TIP3    H135357   2.518   0.060   0.174 -1.8842  0.6723  0.8325
11800TIP3    H235358   2.466  -0.038   0.278  0.2839 -0.8167  0.5946
11801TIP3   OH235359   1.948   3.477   3.003  0.2631  0.4385  0.0382
11801TIP3    H135360   2.027   3.474   2.950 -0.7349  0.6308 -1.5237
11801TIP3    H235361   1.975   3.519   3.085  1.5443  1.4719 -0.8738
11802TIP3   OH235362   7.546   1.580   2.576  0.5955 -0.6546  0.8719
11802TIP3    H135363   7.637   1.573   2.604  1.0920 -1.8472 -0.8930
11802TIP3    H235364   7.545   1.543   2.488 -1.4490  0.1122  0.5185
11803TIP3   OH235365   0.457   4.805   2.331  0.4464  0.0027  0.1351
11803TIP3    H135366   0.402   4.746   2.279  1.1754 -1.2746  0.7626
11803TIP3    H235367   0.414   4.806   2.417  1.0085 -0.4603  0.4278
11804TIP3   OH235368   2.071   4.557   2.378 -0.4023  0.1065 -0.7809
11804TIP3    H135369   2.069   4.498   2.453  0.1649 -1.0062 -1.6174
11804TIP3    H235370   2.163   4.561   2.353 -0.4023  1.4982 -0.6402
11805TIP3   OH235371   0.279   2.838   2.155  0.3578  0.2319  0.0785
11805TIP3    H135372   0.264   2.785   2.233 -1.0420 -0.1690 -0.4455
11805TIP3    H235373   0.318   2.919   2.188 -0.1476  0.0397  1.1845
11806TIP3   OH235374   0.387   3.243   3.048 -0.1852 -0.0943 -0.3049
11806TIP3    H135375   0.440   3.165   3.029  0.9027  0.4046  0.5608
11806TIP3    H235376   0.325   3.248   2.975 -0.0055 -1.5299 -0.5872
11807TIP3   OH235377   3.827   0.692   0.564 -0.0640  0.3877 -0.4315
11807TIP3    H135378   3.768   0.765   0.548 -0.7557  0.0950  0.6163
11807TIP3    H235379   3.887   0.724   0.631  1.3373  0.8594 -1.8712
11808TIP3   OH235380   5.237   2.276   0.251  0.1549  0.2517  0.6818
11808TIP3    H135381   5.158   2.253   0.203 -0.0160 -0.4658  1.2857
11808TIP3    H235382   5.241   2.371   0.248  0.1622  0.2292 -0.7700
11809TIP3   OH235383   4.371   7.457   4.903 -0.2265  0.1898 -0.1139
11809TIP3    H135384   4.322   7.392   4.853  1.7053 -0.7618 -0.8725
11809TIP3    H235385   4.461   7.427   4.899  0.4892  2.0409  0.9525
11810TIP3   OH235386   6.171   4.078   6.583 -0.2770 -0.5754  0.1851
11810TIP3    H135387   6.223   4.092   6.662  0.3969  0.7497 -0.4737
11810TIP3    H235388   6.185   3.985   6.562  1.7417 -0.3028  0.0976
11811TIP3   OH235389   4.020   2.402   2.879 -0.7869  0.3387  0.2001
11811TIP3    H135390   4.031   2.315   2.916 -0.8419  0.4136  0.3908
11811TIP3    H235391   4.090   2.410   2.814 -1.2441 -0.1359 -0.3594
11812TIP3   OH235392   1.471   4.686   0.855 -0.0806  0.0491 -0.4089
11812TIP3    H135393   1.523   4.748   0.905 -1.1901  0.4091  0.3138
11812TIP3    H235394   1.389   4.732   0.836 -1.3378 -1.5006  1.0010
11813TIP3   OH235395   1.113   6.852   5.887  0.4884 -0.2065  0.3894
11813TIP3    H135396   1.108   6.756   5.884 -2.1824 -0.1905  1.3525
11813TIP3    H235397   1.155   6.871   5.971 -0.2727 -0.5397  0.8498
11814TIP3   OH235398   0.806   2.915   4.687  0.2982 -0.0410  0.4201
11814TIP3    H135399   0.744   2.843   4.702  1.2449 -1.1971 -1.0030
11814TIP3    H235400   0.827   2.946   4.775  0.7058 -2.2506  1.1765
11815TIP3   OH235401   4.094   1.221   5.249  0.2124  0.2536 -0.9098
11815TIP3    H135402   4.116   1.270   5.328  0.0485 -2.4830  0.9607
11815TIP3    H235403   3.999   1.232   5.240  0.3793  1.4292 -1.3753
11816TIP3   OH235404   6.635   1.723   3.506 -0.3206  0.2258  0.2814
11816TIP3    H135405   6.729   1.725   3.525 -0.2700 -0.8931  0.1752
11816TIP3    H235406   6.612   1.630   3.505 -1.1474  0.4243 -1.0887
11817TIP3   OH235407   5.539   0.093   5.280  0.3952 -0.5946  0.4959
11817TIP3    H135408   5.455   0.099   5.325  0.0143 -1.9863  0.0074
11817TIP3    H235409   5.524   0.134   5.195 -0.5933 -3.1346 -0.6406
11818TIP3   OH235410   5.423   5.635   1.666  0.3732  0.3838  0.4796
11818TIP3    H135411   5.387   5.555   1.628 -0.0456  0.5125  0.6006
11818TIP3    H235412   5.372   5.706   1.625  0.1527  0.5406  1.0266
11819TIP3   OH235413   2.548   0.874   3.996 -0.3959  0.0043 -0.6841
11819TIP3    H135414   2.545   0.906   4.086  2.7804 -1.4299  0.0620
11819TIP3    H235415   2.629   0.910   3.960 -0.1916 -1.6456 -2.0182
11820TIP3   OH235416   8.032   5.421   2.197 -0.3261  0.3764  0.2081
11820TIP3    H135417   8.095   5.350   2.211 -0.5477 -0.2107 -1.4995
11820TIP3    H235418   7.953   5.393   2.244 -0.2093 -0.2140  0.0625
11821TIP3   OH235419   2.777   0.959   3.899  0.0573  0.8014 -0.5476
11821TIP3    H135420   2.872   0.970   3.896 -0.0037  1.0736 -2.4885
11821TIP3    H235421   2.743   1.025   3.840 -1.3340  0.4744 -0.1485
11822TIP3   OH235422   4.958   3.265   4.649  0.4208  0.0004  0.5387
11822TIP3    H135423   4.936   3.197   4.585 -1.0699  1.0746 -0.1499
11822TIP3    H235424   4.875   3.283   4.694  0.4801  2.1387 -0.1037
11823TIP3   OH235425   7.281   7.312   3.611 -0.1242  0.1761 -0.1827
11823TIP3    H135426   7.369   7.335   3.639  0.5372 -1.9625 -0.3250
11823TIP3    H235427   7.229   7.313   3.692  0.2096  0.7065  0.0240
11824TIP3   OH235428   3.951   4.450   4.899 -0.0277 -0.2277  0.2188
11824TIP3    H135429   3.961   4.517   4.965  2.1979 -0.9615  0.6865
11824TIP3    H235430   3.986   4.489   4.819  0.5788 -0.5691  0.3163
11825TIP3   OH235431   6.074   4.409   0.058  0.2926  0.0134  1.1868
11825TIP3    H135432   6.040   4.375   0.141  0.0841  0.1487  1.1566
11825TIP3    H235433   6.132   4.340   0.026 -0.1323 -0.3179  1.1211
11826TIP3   OH235434   2.904   7.682   1.538 -0.2495  0.1183  0.0044
11826TIP3    H135435   2.868   7.607   1.586 -1.0916  0.0137 -0.7584
11826TIP3    H235436   2.858   7.758   1.573 -0.4059  0.1135 -0.1855
11827TIP3   OH235437   2.626   0.880   5.118 -0.2361  0.4040  0.1712
11827TIP3    H135438   2.708   0.899   5.073  0.6734  0.2155  1.6476
11827TIP3    H235439   2.653   0.851   5.206 -1.8730  0.0605  0.6074
11828TIP3   OH235440   4.221   3.676   0.318 -0.2049  0.2263  0.6777
11828TIP3    H135441   4.298   3.730   0.299 -0.0566 -0.1168  0.2835
11828TIP3    H235442   4.242   3.633   0.401  1.2944 -2.0679 -0.7515
11829TIP3   OH235443   3.486   4.445   1.342 -0.3134 -0.4852  0.1905
11829TIP3    H135444   3.471   4.518   1.282  0.4758 -1.2687 -1.0036
11829TIP3    H235445   3.571   4.464   1.382 -0.5002 -0.3255  0.5090
11830TIP3   OH235446   0.330   4.730   5.413 -0.4336  0.1350  0.4828
11830TIP3    H135447   0.388   4.801   5.440  0.1206 -0.2808  0.4162
11830TIP3    H235448   0.252   4.773   5.378 -0.2103  0.7006  0.6791
11831TIP3   OH235449   1.853   6.911   5.962  0.1929  0.0664 -0.7934
11831TIP3    H135450   1.940   6.922   5.999 -0.0712 -0.8896  0.1686
11831TIP3    H235451   1.847   6.817   5.942 -0.4842  0.1827 -1.1789
11832TIP3   OH235452   0.213   5.333   4.176  0.1015 -0.2631 -0.1361
11832TIP3    H135453   0.294   5.312   4.224  0.1476  0.2094  0.0024
11832TIP3    H235454   0.229   5.421   4.141 -0.5290  0.0325  0.2870
11833TIP3   OH235455   3.396   6.858   3.813 -0.5889 -0.3094  0.1483
11833TIP3    H135456   3.358   6.936   3.854 -0.4585  0.1730 -0.6273
11833TIP3    H235457   3.396   6.792   3.882  1.6982  1.1075  1.6474
11834TIP3   OH235458   2.303   0.435   4.242 -0.6364  0.1608 -0.3692
11834TIP3    H135459   2.390   0.469   4.260 -1.0953  1.5159 -0.5923
11834TIP3    H235460   2.296   0.357   4.297  0.2760  0.7130  0.5662
11835TIP3   OH235461   5.325   3.496   4.196 -0.2443 -0.1462 -0.2990
11835TIP3    H135462   5.363   3.438   4.262  0.5401 -0.0845 -0.6797
11835TIP3    H235463   5.232   3.475   4.197  0.0490 -1.6416 -0.6360
11836TIP3   OH235464   4.232   7.799   1.679  0.3471 -0.4142  1.0313
11836TIP3    H135465   4.154   7.852   1.695  0.7943  0.5957 -0.0322
11836TIP3    H235466   4.198   7.717   1.644 -0.3858 -1.1008  3.1709
11837TIP3   OH235467   5.910   2.710   2.272  0.1386 -0.0556  0.2111
11837TIP3    H135468   5.987   2.696   2.216 -0.5734  0.1849 -0.8602
11837TIP3    H235469   5.903   2.805   2.279 -1.5631  0.0565 -1.9184
11838TIP3   OH235470   2.598   2.279   1.548  0.1480  0.1437 -0.6799
11838TIP3    H135471   2.668   2.336   1.580 -1.3159  1.2590  0.7292
11838TIP3    H235472   2.577   2.314   1.461  2.1538 -1.0243 -1.6963
11839TIP3   OH235473   1.873   3.989   0.304  0.0417 -0.1300  0.0215
11839TIP3    H135474   1.924   3.928   0.358  0.6168 -1.0902 -1.5316
11839TIP3    H235475   1.897   3.967   0.214 -0.2628  1.9484 -0.6283
11840TIP3   OH235476   1.889   7.104   1.774 -0.2600  0.0672 -0.1105
11840TIP3    H135477   1.886   7.009   1.758 -1.2023  0.1848 -0.7349
11840TIP3    H235478   1.801   7.134   1.752 -0.1663  0.9978  0.7309
11841TIP3   OH235479   0.561   7.270   0.542  0.2660  0.2525  0.5655
11841TIP3    H135480   0.556   7.362   0.515  0.1409 -0.0397 -0.4797
11841TIP3    H235481   0.475   7.252   0.580  0.5180  0.7400  1.3734
11842TIP3   OH235482   5.089   0.057   4.172  0.1480 -0.4514 -0.1654
11842TIP3    H135483   5.089  -0.038   4.161 -0.1500 -0.4914  0.1725
11842TIP3    H235484   5.093   0.071   4.266  0.1106 -0.1293 -0.2100
11843TIP3   OH235485   7.253   6.192   2.885 -0.5587  0.6648  0.2296
11843TIP3    H135486   7.340   6.153   2.876 -1.0375 -0.5873  0.7266
11843TIP3    H235487   7.202   6.151   2.815 -1.9937 -2.4267  2.8158
11844TIP3   OH235488   7.916   0.719   1.403 -0.4795 -0.2197  0.2625
11844TIP3    H135489   7.842   0.755   1.354 -0.2360  0.9727  0.7337
11844TIP3    H235490   7.970   0.795   1.423 -1.2958 -0.3548  3.6183
11845TIP3   OH235491   1.451   7.011   1.230  0.1507 -0.0651  0.6640
11845TIP3    H135492   1.525   7.058   1.191 -0.6216 -0.3578 -1.2562
11845TIP3    H235493   1.399   7.080   1.271 -0.3319  0.6564 -1.0606
11846TIP3   OH235494   2.239   1.103   4.520  0.5044 -0.6231 -0.2504
11846TIP3    H135495   2.177   1.159   4.567 -1.6115 -1.4346 -1.9444
11846TIP3    H235496   2.287   1.058   4.589 -0.1903  0.6416  1.1196
11847TIP3   OH235497   5.256   3.749   4.863 -0.0297  0.3340 -0.4370
11847TIP3    H135498   5.288   3.729   4.775  0.7532 -0.4487  0.0175
11847TIP3    H235499   5.234   3.663   4.901  0.1972  0.6112  0.3419
11848TIP3   OH235500   1.857   1.819   0.176 -0.2294  0.5514 -0.2567
11848TIP3    H135501   1.790   1.811   0.244 -0.4774 -1.5772 -0.6680
11848TIP3    H235502   1.824   1.887   0.118 -1.6119  0.1708  0.0327
11849TIP3   OH235503   2.651   4.136   0.802 -0.0821 -0.4055  0.1793
11849TIP3    H135504   2.608   4.218   0.776 -0.5078 -1.0768 -1.3517
11849TIP3    H235505   2.733   4.136   0.752 -0.1143 -0.9406  0.1269
11850TIP3   OH235506   4.287   3.079   2.047  0.1911 -0.4643  0.8846
11850TIP3    H135507   4.217   3.111   1.990  0.5085 -0.5418  0.4537
11850TIP3    H235508   4.307   3.153   2.104  0.6997  0.0049  0.1043
11851TIP3   OH235509   6.964   3.047   6.050 -0.1353 -0.0768  0.2034
11851TIP3    H135510   7.055   3.035   6.023 -0.2874 -0.1238 -0.2915
11851TIP3    H235511   6.929   3.111   5.989 -1.1543 -1.9133 -1.2480
11852TIP3   OH235512   5.471   1.953   5.142 -0.2682 -0.2516  0.0607
11852TIP3    H135513   5.426   2.012   5.081  0.9553  1.5439  0.8208
11852TIP3    H235514   5.530   2.010   5.191 -0.0950 -1.8962  1.8613
11853TIP3   OH235515   2.808   0.212   3.133  0.2511 -0.3823  0.2671
11853TIP3    H135516   2.903   0.223   3.134  0.3355 -0.8935 -1.2466
11853TIP3    H235517   2.778   0.267   3.206  1.6276  0.4610  0.2415
11854TIP3   OH235518   3.761   5.074   0.567  0.2710  0.1071  0.1085
11854TIP3    H135519   3.733   5.029   0.646 -1.5781  1.2751  0.1862
11854TIP3    H235520   3.826   5.138   0.597  2.2764 -1.7973  0.1052
11855TIP3   OH235521   2.138   6.103   4.191 -0.1798 -0.2114  0.1199
11855TIP3    H135522   2.075   6.130   4.258 -2.4439  1.6784 -2.5425
11855TIP3    H235523   2.130   6.007   4.188 -2.2230 -0.1085  0.5997
11856TIP3   OH235524   2.336   7.803   3.050  0.4213 -0.1596 -0.2693
11856TIP3    H135525   2.321   7.758   3.133  1.2169  0.1379  0.0416
11856TIP3    H235526   2.397   7.874   3.071 -0.2549  0.6359 -0.8835
11857TIP3   OH235527   1.843   1.578   0.784 -0.1399 -0.1558 -0.1762
11857TIP3    H135528   1.898   1.625   0.848 -0.0839  0.7553 -0.8741
11857TIP3    H235529   1.895   1.501   0.760  1.1664  1.0447 -1.3413
11858TIP3   OH235530   5.288   5.699   1.341 -0.2748 -0.3757  0.3064
11858TIP3    H135531   5.349   5.773   1.340 -1.7193  0.8969  1.4207
11858TIP3    H235532   5.239   5.709   1.259 -0.4114 -0.1492  0.4151
11859TIP3   OH235533   2.473   1.832   5.561  0.2525  0.2749  0.5644
11859TIP3    H135534   2.528   1.793   5.629  1.7037 -1.0585 -1.2636
11859TIP3    H235535   2.398   1.773   5.554 -1.0621  1.6217  2.4600
11860TIP3   OH235536   7.747   2.359   6.259 -0.3234  0.5720  0.2677
11860TIP3    H135537   7.752   2.322   6.347  1.7396  2.1906  0.9407
11860TIP3    H235538   7.764   2.453   6.272  2.4721  0.5172 -2.0259
11861TIP3   OH235539   8.172   0.836   1.417  0.2481 -0.1924 -0.4456
11861TIP3    H135540   8.245   0.883   1.375  1.1811 -0.6657  0.6133
11861TIP3    H235541   8.211   0.755   1.448 -0.4337  0.0984  1.2318
11862TIP3   OH235542   7.433   0.531   2.265  0.3071 -0.1744 -0.5087
11862TIP3    H135543   7.488   0.607   2.285 -0.8660  0.6050 -0.1251
11862TIP3    H235544   7.344   0.562   2.279 -0.4209 -0.6435 -3.4493
11863TIP3   OH235545   4.410   0.434   2.859 -0.0092 -0.2633  0.5432
11863TIP3    H135546   4.367   0.503   2.911  2.3935  0.2752  1.9859
11863TIP3    H235547   4.453   0.481   2.788 -0.9552 -0.6730 -0.3108
11864TIP3   OH235548   3.407   7.465   0.003  0.2843 -0.3855  0.2821
11864TIP3    H135549   3.343   7.395   0.003  0.7858 -0.8854  1.5707
11864TIP3    H235550   3.455   7.454   0.086  1.5940  0.3604 -0.3382
11865TIP3   OH235551   6.567   7.667   1.509  0.5475  0.3588 -0.3122
11865TIP3    H135552   6.607   7.582   1.491 -0.0946  0.4087 -2.2096
11865TIP3    H235553   6.634   7.731   1.487 -0.0396  0.4030 -2.0817
11866TIP3   OH235554   5.188   6.573   3.906  0.0481  0.2443 -0.7019
11866TIP3    H135555   5.276   6.565   3.941 -0.2847 -0.7795 -0.0541
11866TIP3    H235556   5.164   6.665   3.921  0.6718  0.3098 -0.0664
11867TIP3   OH235557   4.526   6.182   0.941  0.0639 -0.2068 -0.2419
11867TIP3    H135558   4.440   6.223   0.949  0.4854  0.3933  1.8330
11867TIP3    H235559   4.584   6.239   0.991  1.4682 -1.1704 -0.7164
11868TIP3   OH235560   2.552   3.780   3.962  0.1699 -0.9505 -0.3178
11868TIP3    H135561   2.530   3.747   4.049 -1.3801 -1.5866 -0.9202
11868TIP3    H235562   2.625   3.841   3.977 -1.3102  0.4563  1.6604
11869TIP3   OH235563   5.371   7.732   1.570 -0.1548 -0.3392  0.2141
11869TIP3    H135564   5.454   7.776   1.550 -1.0310  1.8427  1.1122
11869TIP3    H235565   5.315   7.752   1.495 -0.6333  0.2943  0.7356
11870TIP3   OH235566   1.535   2.562   2.747 -0.3917 -0.8049 -0.4112
11870TIP3    H135567   1.629   2.548   2.757 -0.0963  0.9273 -0.3629
11870TIP3    H235568   1.528   2.651   2.714 -2.0195 -0.9778 -0.6118
11871TIP3   OH235569   7.203   2.403   3.585  0.3733 -0.2428 -0.0651
11871TIP3    H135570   7.140   2.414   3.514  0.2464 -1.3197 -0.1323
11871TIP3    H235571   7.150   2.385   3.662  0.4839  1.4456  0.4371
11872TIP3   OH235572   0.260   4.056   4.778 -0.0772  0.5322 -0.0261
11872TIP3    H135573   0.272   4.002   4.856  3.2451  0.2222 -0.6190
11872TIP3    H235574   0.225   3.996   4.712  0.3388 -0.0589  0.2822
11873TIP3   OH235575   3.200   3.397   6.258 -0.3322  0.0693  0.3021
11873TIP3    H135576   3.141   3.464   6.291 -1.2014 -0.6354  0.2330
11873TIP3    H235577   3.164   3.372   6.173  0.1354 -0.2860  0.1979
11874TIP3   OH235578   4.201   1.611   5.601  0.4836 -0.1581 -0.0329
11874TIP3    H135579   4.108   1.620   5.579  0.3571  0.8054  0.8035
11874TIP3    H235580   4.242   1.584   5.520 -0.5719 -0.9141 -0.3431
11875TIP3   OH235581   6.970   4.631   2.799 -0.5451 -0.2993  0.0868
11875TIP3    H135582   6.920   4.650   2.878  1.8599 -3.2543  2.5323
11875TIP3    H235583   6.949   4.540   2.778 -0.2562  0.0748 -2.0910
11876TIP3   OH235584   7.538   2.348   4.371 -0.3473  0.5716  0.3743
11876TIP3    H135585   7.499   2.399   4.299 -1.8266  0.4531  1.0466
11876TIP3    H235586   7.611   2.401   4.401 -0.7298  1.4228 -0.1499
11877TIP3   OH235587   3.476   7.775   3.187 -0.1143 -0.0822 -0.0906
11877TIP3    H135588   3.491   7.717   3.261  0.8281 -0.5328 -0.6179
11877TIP3    H235589   3.471   7.863   3.225 -0.3118 -0.3777  0.5703
11878TIP3   OH235590   7.417   3.953   5.982  0.1618 -0.4281 -0.0764
11878TIP3    H135591   7.457   3.890   5.922  0.8217 -1.6957  1.6261
11878TIP3    H235592   7.350   3.902   6.028  0.5440  0.1684  1.1678
11879TIP3   OH235593   5.343   6.690   2.084 -0.2440  0.1621 -0.5307
11879TIP3    H135594   5.258   6.734   2.086 -1.4490 -1.9175 -1.8496
11879TIP3    H235595   5.367   6.680   2.176 -0.5263  2.3505 -0.1736
11880TIP3   OH235596   3.977   2.267   3.687  0.0379  0.0133  0.2435
11880TIP3    H135597   4.070   2.258   3.708 -0.0333  0.9280  0.9890
11880TIP3    H235598   3.964   2.361   3.675 -0.2111 -0.2936 -2.6969
11881TIP3   OH235599   4.106   7.830   0.218 -0.6386 -0.8576 -0.4184
11881TIP3    H135600   4.085   7.791   0.303 -0.2760 -0.2217 -0.0344
11881TIP3    H235601   4.176   7.774   0.184  0.6237  0.0297  0.6051
11882TIP3   OH235602   2.571   3.571   0.366 -0.0597  0.2130  0.0707
11882TIP3    H135603   2.492   3.517   0.355 -0.3173  0.6997 -0.4695
11882TIP3    H235604   2.590   3.604   0.279 -0.9239  2.4112  0.6432
11883TIP3   OH235605   3.859   7.594   0.277  0.5293 -0.0466 -0.5399
11883TIP3    H135606   3.938   7.560   0.319  0.3824  0.5051  0.2167
11883TIP3    H235607   3.795   7.602   0.348 -0.0867 -0.1259 -1.0718
11884TIP3   OH235608   5.580   4.288   3.860  0.2345  0.6012 -0.1183
11884TIP3    H135609   5.531   4.334   3.791  0.2673  0.4951 -0.2110
11884TIP3    H235610   5.639   4.355   3.896  0.6365  0.4998 -0.5889
11885TIP3   OH235611   2.122   4.750   0.650  0.6087 -0.1582 -0.4580
11885TIP3    H135612   2.083   4.791   0.728  4.3705  1.7441  0.6699
11885TIP3    H235613   2.077   4.791   0.577 -2.7941 -1.7363  0.5474
11886TIP3   OH235614   6.318   0.697   1.504  0.7450 -0.2410 -0.2525
11886TIP3    H135615   6.310   0.639   1.580  0.0172  0.3297  0.1165
11886TIP3    H235616   6.349   0.639   1.434  0.9604 -0.8735  0.3504
11887TIP3   OH235617   2.850   7.430   6.189  0.3142  0.2862 -0.0198
11887TIP3    H135618   2.846   7.366   6.118 -0.0671 -0.1297  0.3723
11887TIP3    H235619   2.932   7.476   6.175  0.1636  0.3200 -0.8266
11888TIP3   OH235620   2.886   7.085   0.703 -0.4099  0.1917  0.6301
11888TIP3    H135621   2.903   7.064   0.612  0.9208  1.6757  0.4753
11888TIP3    H235622   2.791   7.096   0.709 -0.4712  0.4852 -0.6856
11889TIP3   OH235623   1.058   6.381   0.324  0.2254 -0.2270  0.1378
11889TIP3    H135624   1.153   6.374   0.317  0.2796 -0.3379  0.8443
11889TIP3    H235625   1.044   6.464   0.370 -0.0380 -0.0130 -0.3259
11890TIP3   OH235626   5.758   7.037   4.527  0.1067 -0.6415 -0.2730
11890TIP3    H135627   5.673   7.045   4.571  0.2756  1.3183 -0.2069
11890TIP3    H235628   5.821   7.069   4.592  1.0148 -2.6354 -0.0927
11891TIP3   OH235629   4.779   1.096   2.419 -0.1948 -0.4949 -0.4872
11891TIP3    H135630   4.815   1.012   2.446  0.7762  0.4483  1.2921
11891TIP3    H235631   4.728   1.076   2.340 -1.7196 -3.1038  1.0279
11892TIP3   OH235632   8.012   6.942   2.468 -0.1901  0.1296 -0.5111
11892TIP3    H135633   7.949   7.008   2.499  0.6369  0.3682  0.6949
11892TIP3    H235634   8.096   6.988   2.466  0.0228 -0.2766 -1.8071
11893TIP3   OH235635   6.904   3.985   6.716 -0.2050 -0.0608  0.5395
11893TIP3    H135636   6.848   3.940   6.654  0.8685 -0.5475 -0.1100
11893TIP3    H235637   6.923   4.069   6.675 -0.8848  0.3395  1.0134
11894TIP3   OH235638   2.402   3.637   5.392 -0.1177 -0.2827 -0.2939
11894TIP3    H135639   2.347   3.643   5.471  0.3720  0.1096  0.0238
11894TIP3    H235640   2.353   3.580   5.333 -0.9721  0.2298 -0.1008
11895TIP3   OH235641   6.986   4.774   6.405 -0.3101  0.3709 -0.6831
11895TIP3    H135642   6.939   4.801   6.326 -1.1761 -2.1087 -1.1097
11895TIP3    H235643   7.078   4.776   6.380 -0.4827  0.9078 -1.2999
11896TIP3   OH235644   8.087   6.032   2.285  0.0614  0.7533  0.4099
11896TIP3    H135645   8.071   6.093   2.212 -4.1161 -0.7540 -0.1656
11896TIP3    H235646   8.138   5.961   2.246 -0.6530  0.7901 -0.6296
11897TIP3   OH235647   0.984   1.562   5.156  0.1157  0.2598 -0.5001
11897TIP3    H135648   0.917   1.553   5.223  0.1731  0.6952 -0.3826
11897TIP3    H235649   1.010   1.654   5.159 -0.0157  0.3341 -1.2442
11898TIP3   OH235650   2.288   5.843   3.625  0.1531 -0.1065 -0.7478
11898TIP3    H135651   2.348   5.917   3.625 -0.5254  0.4498 -1.1101
11898TIP3    H235652   2.334   5.775   3.675  1.4146  0.0358 -1.6569
11899TIP3   OH235653   2.514   3.914   3.235 -0.3497 -0.3522 -0.3640
11899TIP3    H135654   2.496   3.881   3.147  1.6085 -1.1033 -0.5344
11899TIP3    H235655   2.469   3.854   3.294 -0.3395 -0.7947 -0.8050
11900TIP3   OH235656   7.433   0.713   1.363  0.4320  0.2655  0.2116
11900TIP3    H135657   7.388   0.797   1.354 -0.9887 -0.3148  1.5094
11900TIP3    H235658   7.521   0.729   1.328  0.0082  2.1235 -0.1001
11901TIP3   OH235659   8.023   1.641   5.967 -0.4695  0.6009 -0.2985
11901TIP3    H135660   8.115   1.663   5.952 -0.4077  0.1002 -0.6980
11901TIP3    H235661   7.983   1.645   5.880 -0.9714  1.4508 -0.0371
11902TIP3   OH235662   7.691   2.630   6.056  0.1564 -0.4928 -0.1390
11902TIP3    H135663   7.634   2.564   6.016  0.4475 -1.2857  0.7243
11902TIP3    H235664   7.656   2.641   6.145 -0.0579  0.7372 -0.3506
11903TIP3   OH235665   2.548   5.461   0.519 -0.2162  0.3522  0.2804
11903TIP3    H135666   2.455   5.472   0.499  0.0771 -1.2720 -2.5565
11903TIP3    H235667   2.593   5.504   0.446  1.1570 -1.3162  0.0861
11904TIP3   OH235668   6.061   1.426   6.380 -0.4819 -0.6723 -0.6544
11904TIP3    H135669   6.043   1.417   6.286  0.3121 -0.4808 -0.8332
11904TIP3    H235670   6.044   1.518   6.399 -0.0459 -0.5729 -0.7447
11905TIP3   OH235671   5.077   0.438   4.015  0.4413  0.2577 -0.1422
11905TIP3    H135672   4.996   0.451   4.065 -1.3215 -1.3850 -2.3446
11905TIP3    H235673   5.107   0.526   3.995 -1.7719  0.9690 -0.6523
11906TIP3   OH235674   7.776   1.657   2.757  0.2334  0.1830 -0.2967
11906TIP3    H135675   7.812   1.615   2.680  0.9112  1.6468 -0.8144
11906TIP3    H235676   7.818   1.613   2.831  3.2035  1.8118 -0.8673
11907TIP3   OH235677   3.541   4.768   3.738 -0.3046 -1.1267 -0.2246
11907TIP3    H135678   3.499   4.739   3.819  0.7895 -3.1324 -0.3149
11907TIP3    H235679   3.632   4.738   3.746  0.4250  0.5998 -1.2522
11908TIP3   OH235680   0.835   6.397   2.345  0.3049 -0.4208  0.6332
11908TIP3    H135681   0.858   6.483   2.311 -1.0199  0.0357  0.8225
11908TIP3    H235682   0.918   6.357   2.369  0.9669  0.6436  0.1513
11909TIP3   OH235683   4.525   1.251   0.904 -0.2766 -0.6845  0.0676
11909TIP3    H135684   4.536   1.285   0.815  3.2667 -0.9050  0.3131
11909TIP3    H235685   4.493   1.162   0.891  2.8276 -1.7525 -1.2630
11910TIP3   OH235686   4.091   7.217   2.315 -0.0444  0.0283  0.0883
11910TIP3    H135687   4.032   7.291   2.327 -2.2941 -1.8918  1.8735
11910TIP3    H235688   4.090   7.201   2.220  1.2900  2.7774 -0.4768
11911TIP3   OH235689   7.023   0.526   4.760  0.8866  0.5333 -0.1655
11911TIP3    H135690   6.992   0.516   4.850  0.8551 -0.8217 -0.3181
11911TIP3    H235691   6.944   0.519   4.706  1.1620 -0.9429 -0.4227
11912TIP3   OH235692   7.979   4.144   3.990  0.0462 -0.5749  0.2260
11912TIP3    H135693   7.948   4.186   4.070  0.9395 -0.6390  0.6172
11912TIP3    H235694   8.035   4.209   3.948 -0.9051 -0.3057 -0.6894
11913TIP3   OH235695   3.819   5.622   2.566 -0.0845 -0.8920  0.1480
11913TIP3    H135696   3.818   5.558   2.637  1.8388  0.3957  1.4158
11913TIP3    H235697   3.733   5.664   2.571 -0.4388 -1.6651  0.8862
11914TIP3   OH235698   8.030   0.149   4.485  0.2896  0.3823  0.5946
11914TIP3    H135699   8.060   0.213   4.550 -0.1348  0.7810  0.4029
11914TIP3    H235700   8.086   0.073   4.500  0.5867  0.6775  1.0419
11915TIP3   OH235701   6.475   5.884   0.549  0.0333  0.1013  0.3475
11915TIP3    H135702   6.490   5.910   0.640 -1.1199  3.5257 -0.2855
11915TIP3    H235703   6.562   5.863   0.515  0.6866  0.2988  1.8224
11916TIP3   OH235704   7.971   5.288   0.225 -0.4728  0.1761 -0.1926
11916TIP3    H135705   7.922   5.217   0.267 -0.3082 -1.2632 -2.2573
11916TIP3    H235706   8.056   5.289   0.269 -1.5085  1.1702  1.8866
11917TIP3   OH235707   2.592   1.612   0.078 -0.3578 -0.4325 -0.8436
11917TIP3    H135708   2.503   1.597   0.109 -0.7915  0.3813 -1.6756
11917TIP3    H235709   2.636   1.528   0.093 -0.7439 -0.3112  1.2453
11918TIP3   OH235710   0.843   2.082   3.318  0.0239  0.0639  0.4867
11918TIP3    H135711   0.809   2.072   3.407 -1.0390  0.1992  0.1140
11918TIP3    H235712   0.903   2.008   3.307  0.8988  0.5727  1.6303
11919TIP3   OH235713   5.034   7.138   4.245 -0.0085 -0.8544 -0.0679
11919TIP3    H135714   4.973   7.182   4.186  0.4435  2.0318  1.4564
11919TIP3    H235715   5.121   7.160   4.212  0.2369 -0.9264  0.5202
11920TIP3   OH235716   2.651   6.231   6.002 -0.1777  0.1390  0.1207
11920TIP3    H135717   2.620   6.154   6.050 -1.3866 -1.1591 -2.5135
11920TIP3    H235718   2.678   6.196   5.917  1.4333  2.3550 -0.3542
11921TIP3   OH235719   6.447   4.062   4.697  0.0827  0.4103 -0.3378
11921TIP3    H135720   6.538   4.090   4.713  0.8511 -2.6004  1.5300
11921TIP3    H235721   6.405   4.069   4.782  0.4629 -3.9114  0.4361
11922TIP3   OH235722   1.198   6.541   3.042  0.2769 -0.5019 -0.0797
11922TIP3    H135723   1.267   6.499   2.991  1.0564  2.0326 -1.2789
11922TIP3    H235724   1.244   6.602   3.099 -0.8875  1.0576 -0.7120
11923TIP3   OH235725   5.303   4.601   2.179  0.1921 -0.0487  0.0443
11923TIP3    H135726   5.242   4.559   2.240  0.8954 -0.3096  0.5730
11923TIP3    H235727   5.364   4.649   2.235  1.3413 -0.9566 -0.4116
11924TIP3   OH235728   5.445   3.623   6.383 -0.0931  0.0616 -0.0819
11924TIP3    H135729   5.452   3.623   6.479 -1.9247  0.6242  0.0845
11924TIP3    H235730   5.482   3.708   6.357 -2.2924  1.2578  0.4271
11925TIP3   OH235731   2.467   3.748   4.808  0.3932  0.1887 -0.1656
11925TIP3    H135732   2.489   3.695   4.731 -1.7611  0.1621 -0.8381
11925TIP3    H235733   2.547   3.750   4.860  1.3391 -1.4082 -1.4703
11926TIP3   OH235734   6.834   3.831   2.129 -0.3504 -0.3566 -0.1949
11926TIP3    H135735   6.748   3.790   2.141 -1.2061  1.3607 -0.0898
11926TIP3    H235736   6.893   3.780   2.185 -1.5013 -0.9558  0.5149
11927TIP3   OH235737   7.981   4.529   1.670  0.1371 -0.2213  0.7185
11927TIP3    H135738   7.933   4.569   1.597  1.3444  0.3425  0.2082
11927TIP3    H235739   8.042   4.597   1.698  3.4388 -2.1077 -1.2497
11928TIP3   OH235740   6.200   6.908   1.437  0.7567 -0.3639 -0.3981
11928TIP3    H135741   6.120   6.863   1.467  1.0426 -0.6564 -0.0638
11928TIP3    H235742   6.191   6.997   1.470 -0.1079  0.0089 -1.5955
11929TIP3   OH235743   1.178   5.261   6.399 -0.2698  0.1955  0.1146
11929TIP3    H135744   1.109   5.311   6.354  0.1049  0.6781  0.0729
11929TIP3    H235745   1.182   5.299   6.487 -0.3014 -0.0711  0.2319
11930TIP3   OH235746   7.536   0.333   1.853 -0.0083  0.0977  0.3097
11930TIP3    H135747   7.553   0.411   1.905 -1.2994  0.5270  0.1221
11930TIP3    H235748   7.533   0.364   1.763 -0.5223 -0.1536  0.2326
11931TIP3   OH235749   1.703   2.227   1.053 -0.2603 -0.0567  0.5692
11931TIP3    H135750   1.782   2.223   0.999  0.2767 -1.0541  1.3879
11931TIP3    H235751   1.636   2.264   0.996  0.3415 -0.9089 -0.7337
11932TIP3   OH235752   3.798   1.219   2.909 -0.4316  0.1606  0.3337
11932TIP3    H135753   3.749   1.226   2.992 -2.4890 -0.7454 -0.7110
11932TIP3    H235754   3.816   1.125   2.901  0.1040  0.2964 -0.0449
11933TIP3   OH235755   0.149   2.305   4.294 -0.1034 -0.2512 -0.1180
11933TIP3    H135756   0.190   2.312   4.380 -0.4320  1.2428 -0.0534
11933TIP3    H235757   0.154   2.394   4.258  0.9659 -1.0680 -2.0865
11934TIP3   OH235758   5.713   0.591   4.700  0.1393  0.3387 -0.1849
11934TIP3    H135759   5.719   0.658   4.769 -0.3073 -1.3861  1.6356
11934TIP3    H235760   5.627   0.606   4.660 -1.4541 -1.0447  2.4237
11935TIP3   OH235761   3.232   1.162   4.869  0.1578 -0.1962 -0.0753
11935TIP3    H135762   3.272   1.192   4.951  1.6143 -0.8219 -0.5104
11935TIP3    H235763   3.269   1.220   4.802 -1.3348  0.5736 -0.2639
11936TIP3   OH235764   7.783   2.487   4.485  0.0053  0.0770  0.0134
11936TIP3    H135765   7.808   2.552   4.550  1.6241 -0.3362 -0.1529
11936TIP3    H235766   7.844   2.414   4.499 -0.6738 -0.6917 -0.8985
11937TIP3   OH235767   4.329   3.401   3.426  0.3342 -0.0022 -0.3643
11937TIP3    H135768   4.364   3.313   3.418  2.3249  0.8868 -2.7482
11937TIP3    H235769   4.349   3.428   3.516  1.3461 -1.3059 -0.1873
11938TIP3   OH235770   5.049   6.605   1.882 -0.1304  0.2904 -0.1392
11938TIP3    H135771   4.958   6.597   1.911 -0.5073  0.0037 -1.3229
11938TIP3    H235772   5.068   6.699   1.885  0.8261  0.1129  3.7413
11939TIP3   OH235773   5.034   7.382   0.845 -0.2516 -0.1818 -0.2692
11939TIP3    H135774   5.052   7.475   0.832  3.9474 -0.8499 -0.7664
11939TIP3    H235775   5.040   7.344   0.757  0.6012 -1.1964  0.1990
11940TIP3   OH235776   0.227   4.360   5.732 -0.5362 -0.4364 -0.4294
11940TIP3    H135777   0.141   4.320   5.715 -1.1288 -0.1261  1.6100
11940TIP3    H235778   0.258   4.318   5.812  1.6981 -1.2240 -1.6118
11941TIP3   OH235779   7.890   6.586   6.213 -0.5778  0.1710  0.2033
11941TIP3    H135780   7.961   6.583   6.149 -2.2953  0.2649 -1.7857
11941TIP3    H235781   7.881   6.679   6.234  0.7006  0.0518  1.5194
11942TIP3   OH235782   1.781   5.473   1.175  0.5158  0.1816  0.1081
11942TIP3    H135783   1.767   5.525   1.096  0.3710 -0.5970 -0.3936
11942TIP3    H235784   1.742   5.525   1.245  0.0115  0.5651 -0.4424
11943TIP3   OH235785   0.730   2.159   4.065  0.6357 -0.6059 -0.1984
11943TIP3    H135786   0.734   2.232   4.003 -0.5904  0.1733  0.6105
11943TIP3    H235787   0.766   2.194   4.146 -0.2096 -0.8084  0.2713
11944TIP3   OH235788   5.727   2.334   0.286  0.2759  0.0273  0.3861
11944TIP3    H135789   5.791   2.375   0.228  0.7609 -0.1630  0.7775
11944TIP3    H235790   5.644   2.337   0.238  0.4810  0.7147  0.0757
11945TIP3   OH235791   2.410   6.978   5.809  0.3941  0.7122 -0.0155
11945TIP3    H135792   2.489   6.933   5.837  0.7607  0.5145 -1.3052
11945TIP3    H235793   2.383   6.932   5.730 -1.9130 -0.2404  1.1985
11946TIP3   OH235794   7.976   6.458   3.981  0.0298  0.5990 -0.3943
11946TIP3    H135795   7.933   6.468   3.896 -0.0084  0.2445 -0.4165
11946TIP3    H235796   8.066   6.434   3.959 -0.2456 -0.5417 -0.3259
11947TIP3   OH235797   1.379   6.095   2.482 -0.3953 -0.2513 -0.1826
11947TIP3    H135798   1.291   6.100   2.519 -0.6578 -0.0341 -0.8261
11947TIP3    H235799   1.367   6.050   2.398 -0.1805  1.3944 -1.1393
11948TIP3   OH235800   4.698   1.322   5.374 -0.4905 -0.1331 -0.0523
11948TIP3    H135801   4.605   1.299   5.361 -0.6622  1.2704 -1.7336
11948TIP3    H235802   4.743   1.276   5.303 -0.1015  0.2663 -0.0647
11949TIP3   OH235803   1.530   7.161   4.249 -0.4282  0.3224 -0.2337
11949TIP3    H135804   1.441   7.194   4.235 -0.1677  0.2385 -2.4374
11949TIP3    H235805   1.526   7.069   4.223  0.3509  0.4040 -0.6846
11950TIP3   OH235806   7.187   2.916   3.845 -0.5332  0.3067 -0.1507
11950TIP3    H135807   7.243   2.856   3.895 -0.8136 -1.9529 -2.3295
11950TIP3    H235808   7.214   3.003   3.873  4.5488 -0.5367 -1.3713
11951TIP3   OH235809   3.814   7.202   1.790  0.2224 -0.0994 -0.5550
11951TIP3    H135810   3.832   7.137   1.722  0.5785 -1.2507  0.6145
11951TIP3    H235811   3.769   7.154   1.859  1.8598  0.5161  1.0301
11952TIP3   OH235812   4.000   0.918   3.561  0.1225  0.7077  0.4374
11952TIP3    H135813   4.064   0.947   3.626 -1.1073  0.1838  1.9567
11952TIP3    H235814   3.930   0.878   3.613 -0.1759 -1.2288 -1.2997
11953TIP3   OH235815   3.941   0.054   4.048  0.5098  0.1856 -0.4175
11953TIP3    H135816   3.938   0.125   3.983  0.3655  1.0683  0.5365
11953TIP3    H235817   3.948   0.099   4.132  0.6158 -0.9472  0.1904
11954TIP3   OH235818   5.705   2.428   1.638  0.7956  0.0180  1.1731
11954TIP3    H135819   5.702   2.514   1.680  1.8964 -0.4582  2.3016
11954TIP3    H235820   5.798   2.412   1.622  0.5021 -0.4318 -0.1857
11955TIP3   OH235821   5.021   3.801   3.182 -0.4065  0.0308  0.0442
11955TIP3    H135822   4.968   3.880   3.186  1.8871  1.6763 -0.1080
11955TIP3    H235823   4.974   3.738   3.237 -2.1978  1.5543  0.3520
11956TIP3   OH235824   3.510   0.746   1.704  0.4601  0.4030  0.3833
11956TIP3    H135825   3.566   0.811   1.746 -0.1085 -0.0193  1.8650
11956TIP3    H235826   3.426   0.752   1.751  0.0329 -0.5903 -0.2132
11957TIP3   OH235827   4.153   6.028   0.561 -0.1154  0.1821  0.4794
11957TIP3    H135828   4.229   6.015   0.619 -0.1821 -0.0052  0.5245
11957TIP3    H235829   4.142   5.944   0.517  0.2038  0.4522 -0.1293
11958TIP3   OH235830   2.431   0.022   2.748 -0.6424 -0.7281 -0.5567
11958TIP3    H135831   2.376   0.003   2.672  0.1207  0.0394 -1.3302
11958TIP3    H235832   2.399   0.107   2.780 -0.8225 -0.9484 -0.1444
11959TIP3   OH235833   0.478   6.407   0.896  0.2842  0.4132 -0.2503
11959TIP3    H135834   0.566   6.439   0.917 -0.8978  3.0800  1.1419
11959TIP3    H235835   0.430   6.413   0.978 -0.9728 -2.1181 -0.6913
11960TIP3   OH235836   5.970   4.624   6.732  0.2048 -0.4545  0.0132
11960TIP3    H135837   5.929   4.577   6.660  0.7768 -1.9546  0.6155
11960TIP3    H235838   5.946   4.574   6.810  2.3389 -0.8294  0.4933
11961TIP3   OH235839   3.366   7.326   6.751 -0.0024  0.4514 -0.2813
11961TIP3    H135840   3.345   7.258   6.687 -1.3280  0.8803 -0.3233
11961TIP3    H235841   3.294   7.324   6.813  1.0727  0.3090  1.0045
11962TIP3   OH235842   0.165   5.006   4.888 -0.0734 -0.6650 -0.8525
11962TIP3    H135843   0.258   5.024   4.874 -0.0154 -1.5573 -1.7145
11962TIP3    H235844   0.122   5.039   4.809 -0.4080 -0.8409 -0.7453
11963TIP3   OH235845   2.957   3.999   1.957 -0.0256  0.0643 -0.2793
11963TIP3    H135846   2.975   3.965   2.045  0.9483 -1.9282 -1.1649
11963TIP3    H235847   2.885   3.945   1.925 -0.8986  1.2988 -0.4589
11964TIP3   OH235848   1.385   2.346   1.983  0.1531 -0.0484  0.5388
11964TIP3    H135849   1.384   2.398   2.064  0.6670 -0.4729  0.8255
11964TIP3    H235850   1.311   2.379   1.933 -0.1257  0.2823  1.1493
11965TIP3   OH235851   2.255   6.807   1.163  0.3696  0.5160 -0.2008
11965TIP3    H135852   2.208   6.818   1.246  0.3067  0.8290 -0.2771
11965TIP3    H235853   2.190   6.768   1.104 -0.1646  1.9901 -0.6434
11966TIP3   OH235854   7.634   0.970   5.962  0.4515  0.7681 -0.3186
11966TIP3    H135855   7.727   0.948   5.966 -0.0358 -1.2943  0.9867
11966TIP3    H235856   7.593   0.894   5.920 -0.6122  1.8720 -1.3738
11967TIP3   OH235857   3.927   3.221   5.310 -0.3669  0.5220  0.1299
11967TIP3    H135858   3.924   3.192   5.401  1.9554 -0.6290 -0.0849
11967TIP3    H235859   3.930   3.140   5.259  1.3651  1.1112 -0.7799
11968TIP3   OH235860   2.229   1.233   0.852  0.6606  0.2484  0.1489
11968TIP3    H135861   2.270   1.178   0.786  0.6335  0.9448 -0.4700
11968TIP3    H235862   2.135   1.219   0.839  0.6813 -0.6694  0.9705
11969TIP3   OH235863   5.026   3.621   1.841 -0.2239  0.3698 -0.2890
11969TIP3    H135864   4.935   3.606   1.868 -0.0767 -0.7412 -0.3658
11969TIP3    H235865   5.043   3.553   1.777  0.6875  0.5327 -0.2251
11970TIP3   OH235866   5.805   6.891   1.764  0.4480 -0.3206 -0.3771
11970TIP3    H135867   5.770   6.822   1.819  2.2197  0.3365  1.7347
11970TIP3    H235868   5.729   6.945   1.741 -0.2236  0.4743  3.1284
11971TIP3   OH235869   5.627   7.357   4.531  0.9207 -0.3189 -0.3313
11971TIP3    H135870   5.709   7.332   4.573 -0.3525 -2.2239  1.2164
11971TIP3    H235871   5.598   7.435   4.578  1.3641 -0.2179 -0.2242
11972TIP3   OH235872   5.536   4.004   1.493  0.7004  0.3328  0.0910
11972TIP3    H135873   5.503   4.014   1.404 -0.7457  0.3058  0.6023
11972TIP3    H235874   5.494   4.075   1.542  0.5916 -0.3313  0.9885
11973TIP3   OH235875   0.528   6.371   6.384 -0.3838 -0.4951  0.4917
11973TIP3    H135876   0.584   6.356   6.308  1.9220  0.1721  1.9223
11973TIP3    H235877   0.542   6.463   6.406 -3.2511  0.1246  0.1062
11974TIP3   OH235878   7.658   4.218   0.840 -0.3098 -0.5395 -0.5448
11974TIP3    H135879   7.694   4.203   0.753 -2.8052 -1.0022 -1.6047
11974TIP3    H235880   7.636   4.131   0.872  1.0832 -0.4206  0.8325
11975TIP3   OH235881   3.101   1.979   5.374  0.0903 -0.0843  0.1274
11975TIP3    H135882   3.185   1.938   5.395  0.0298  0.2994  1.2144
11975TIP3    H235883   3.035   1.919   5.409 -0.1272 -0.7577 -1.4045
11976TIP3   OH235884   0.115   2.855   0.130  0.0349 -0.8115  0.5745
11976TIP3    H135885   0.092   2.918   0.061 -0.1796 -1.0726  0.4094
11976TIP3    H235886   0.149   2.779   0.083  0.1128 -0.8977  0.7690
11977TIP3   OH235887   1.731   4.698   0.702  0.0141 -0.3691  0.6277
11977TIP3    H135888   1.788   4.704   0.626  2.1322  0.0701  2.1708
11977TIP3    H235889   1.689   4.784   0.708 -0.6407 -0.6092 -0.3695
11978TIP3   OH235890   7.148   2.809   4.714  0.2473  0.3399 -0.3841
11978TIP3    H135891   7.067   2.759   4.726 -1.1254  2.0548 -1.9801
11978TIP3    H235892   7.186   2.815   4.802 -2.1655  0.8116  0.6866
11979TIP3   OH235893   4.466   3.171   3.398 -0.0542 -0.3369 -0.4928
11979TIP3    H135894   4.471   3.081   3.367 -0.3733 -0.3132 -0.6176
11979TIP3    H235895   4.536   3.178   3.463  1.3520 -0.0756 -1.9802
11980TIP3   OH235896   0.931   3.706   0.600  0.3087  0.3735  0.1674
11980TIP3    H135897   1.023   3.702   0.573  0.3285 -0.9979  0.3608
11980TIP3    H235898   0.932   3.677   0.691 -0.2399  1.0982  0.4156
11981TIP3   OH235899   2.493   1.762   6.448  0.0961  0.0807  0.8552
11981TIP3    H135900   2.488   1.786   6.540  1.0389  0.0131  0.9385
11981TIP3    H235901   2.447   1.832   6.402  2.2855  1.8088  1.1339
11982TIP3   OH235902   1.159   0.121   4.483  0.2418  0.4074  0.0846
11982TIP3    H135903   1.103   0.193   4.455  0.1049 -0.8335 -3.3408
11982TIP3    H235904   1.248   0.154   4.475  0.1625  0.3874 -0.9889
11983TIP3   OH235905   8.153   1.103   4.384 -0.0242 -0.0489 -1.0588
11983TIP3    H135906   8.233   1.051   4.397 -0.5574 -0.3010  1.7694
11983TIP3    H235907   8.139   1.101   4.290  1.6619 -2.4861 -1.3567
11984TIP3   OH235908   1.370   5.555   2.758 -0.1105  0.2163 -0.2765
11984TIP3    H135909   1.363   5.503   2.678 -1.1281  0.0690 -0.1079
11984TIP3    H235910   1.284   5.597   2.766 -0.1945 -0.1699  1.0081
11985TIP3   OH235911   1.018   3.624  -0.019  0.2118 -0.0600 -0.1950
11985TIP3    H135912   0.954   3.577   0.034  2.1500 -1.2492  1.2112
11985TIP3    H235913   1.102   3.608   0.024  1.5420  1.1093 -2.1781
11986TIP3   OH235914   1.332   6.728   5.409  0.7185  0.1190 -0.5305
11986TIP3    H135915   1.317   6.788   5.336  0.1760 -0.6160 -1.0347
11986TIP3    H235916   1.245   6.716   5.448  1.0674  0.8480  0.5188
11987TIP3   OH235917   0.486   5.608   5.450  0.7752  0.0879 -0.5168
11987TIP3    H135918   0.517   5.573   5.366 -0.0648 -0.9365 -0.4177
11987TIP3    H235919   0.508   5.540   5.514  1.2722  0.7976  0.0874
11988TIP3   OH235920   5.872   5.543   1.245  0.5367  0.5094  0.3502
11988TIP3    H135921   5.894   5.618   1.190  2.2675  1.0009  1.6017
11988TIP3    H235922   5.798   5.572   1.298  0.5435  0.9593  0.1143
11989TIP3   OH235923   6.670   2.385   6.437 -0.4474  0.5088 -0.1666
11989TIP3    H135924   6.734   2.445   6.477  0.0393  0.8319 -1.3715
11989TIP3    H235925   6.719   2.304   6.424 -0.6467  0.3563  0.0461
11990TIP3   OH235926   3.358   5.140   2.940  0.5171 -0.2023  0.0030
11990TIP3    H135927   3.368   5.090   3.021  1.7374  0.1244  0.0733
11990TIP3    H235928   3.314   5.080   2.880  0.2246 -0.6848  0.6845
11991TIP3   OH235929   2.138   1.521   2.733 -0.6191  0.1311 -0.2491
11991TIP3    H135930   2.208   1.566   2.779 -1.6177  1.6647 -0.1540
11991TIP3    H235931   2.094   1.469   2.801 -0.8342  0.7909  0.1255
11992TIP3   OH235932   0.632   7.577   3.038 -0.0667 -0.1167 -0.3117
11992TIP3    H135933   0.706   7.542   3.087 -0.1960 -0.1374 -0.1313
11992TIP3    H235934   0.582   7.500   3.012  0.0448 -0.1119 -0.5514
11993TIP3   OH235935   3.426   4.463   3.349 -0.1133 -0.2315  0.0750
11993TIP3    H135936   3.405   4.395   3.285  2.6079 -1.6104  0.5475
11993TIP3    H235937   3.486   4.422   3.410  0.0818  2.0625  1.5531
11994TIP3   OH235938   2.121   3.453   3.381  0.0939  0.0601 -0.4050
11994TIP3    H135939   2.212   3.424   3.374  0.1107  0.1564 -0.6139
11994TIP3    H235940   2.070   3.372   3.383  0.3204 -0.0899  2.2802
11995TIP3   OH235941   2.373   3.220   5.810 -0.4268  0.0117 -0.6521
11995TIP3    H135942   2.422   3.147   5.772 -3.2867 -2.3123 -0.2457
11995TIP3    H235943   2.322   3.256   5.737 -0.0194  0.7468 -0.5815
11996TIP3   OH235944   6.647   5.982   5.575 -0.0806 -0.2706  0.3219
11996TIP3    H135945   6.623   5.933   5.654 -0.4786 -1.3857 -0.4590
11996TIP3    H235946   6.742   5.993   5.580 -0.0833 -0.5026  0.8587
11997TIP3   OH235947   6.983   5.261   1.480 -0.2370 -0.3064  0.7007
11997TIP3    H135948   6.962   5.173   1.449 -1.3594  0.1196  0.2096
11997TIP3    H235949   6.961   5.260   1.573  0.6344 -0.8053  0.9125
11998TIP3   OH235950   2.749   0.034   4.924 -0.4143  0.7086 -0.2048
11998TIP3    H135951   2.674  -0.023   4.909 -1.2433  1.5255  0.6783
11998TIP3    H235952   2.797  -0.008   4.996  0.5734 -0.3521 -1.4355
11999TIP3   OH235953   3.962   0.707   2.735  0.3667 -0.3722  0.1848
11999TIP3    H135954   4.013   0.785   2.756 -0.6986  0.4173 -0.0349
11999TIP3    H235955   3.911   0.690   2.814 -0.6286  0.1640 -0.3256
12000TIP3   OH235956   1.789   5.922   1.898 -0.2443  0.0484 -0.2973
12000TIP3    H135957   1.740   6.002   1.880 -0.6305  0.0338  0.6344
12000TIP3    H235958   1.863   5.925   1.837 -0.8060  0.6053 -0.9700
12001TIP3   OH235959   0.055   6.644   2.382 -0.5382 -0.0322 -0.8243
12001TIP3    H135960   0.025   6.730   2.410 -0.6366 -0.5868  0.9123
12001TIP3    H235961   0.137   6.660   2.336 -1.2052  1.0905 -1.6541
12002TIP3   OH235962   6.314   6.823   1.169 -0.0612  0.3068  0.2688
12002TIP3    H135963   6.268   6.850   1.248 -1.7441  0.0255 -0.5723
12002TIP3    H235964   6.321   6.728   1.177 -0.8439  0.2002 -0.2125
12003TIP3   OH235965   0.300   7.130   0.410 -0.4585 -0.5565  0.9496
12003TIP3    H135966   0.351   7.050   0.422  1.3461  0.2629 -0.7631
12003TIP3    H235967   0.320   7.182   0.488  1.8712 -0.0253  0.0777
12004TIP3   OH235968   1.216   1.768   6.286  0.4661 -0.0273  0.0071
12004TIP3    H135969   1.141   1.826   6.298  1.6410  1.9769 -1.7040
12004TIP3    H235970   1.226   1.724   6.370 -3.0371 -0.9726  0.0732
12005TIP3   OH235971   4.163   5.192   1.926  0.2511  0.5272  0.5899
12005TIP3    H135972   4.152   5.248   1.849 -0.6029 -0.5217 -0.0921
12005TIP3    H235973   4.241   5.139   1.907 -1.3209 -1.4700 -0.7501
12006TIP3   OH235974   2.927   2.239   4.146  0.3024  0.3307  0.3552
12006TIP3    H135975   2.970   2.324   4.155  0.0662  0.5960 -0.7941
12006TIP3    H235976   2.933   2.219   4.053  0.8394 -1.1865  0.6880
12007TIP3   OH235977   7.179   4.459   3.882  0.0248  0.2618 -0.1800
12007TIP3    H135978   7.099   4.474   3.932 -0.3323  0.7809 -0.8852
12007TIP3    H235979   7.218   4.545   3.873 -0.3002  0.3020 -1.4063
12008TIP3   OH235980   7.414   3.330   2.522 -0.2749  0.2626 -0.6059
12008TIP3    H135981   7.388   3.241   2.547 -0.7644  0.6189  0.1829
12008TIP3    H235982   7.509   3.329   2.525 -0.3050  0.1340  0.7617
12009TIP3   OH235983   2.960   1.718   0.332 -0.3028 -0.1004 -0.0941
12009TIP3    H135984   2.884   1.717   0.391  1.2061  2.1576  2.1081
12009TIP3    H235985   3.006   1.636   0.352 -0.8140 -0.2653  0.4685
12010TIP3   OH235986   5.009   2.851   2.034 -0.3235  0.8493 -0.4332
12010TIP3    H135987   4.931   2.843   1.978 -0.9396 -0.2051  0.5442
12010TIP3    H235988   4.984   2.809   2.116  1.8064 -0.9944 -0.6270
12011TIP3   OH235989   4.687   0.377   2.582  0.1215 -0.0574 -0.5137
12011TIP3    H135990   4.723   0.319   2.649 -1.8090  0.8050  1.3849
12011TIP3    H235991   4.603   0.337   2.558  0.7878 -0.3655 -2.5093
12012TIP3   OH235992   3.350   6.704   1.401 -0.2680 -0.1566  0.0397
12012TIP3    H135993   3.396   6.626   1.430  0.1551 -0.2923 -0.9528
12012TIP3    H235994   3.420   6.766   1.378 -0.5905  0.1970  0.0007
12013TIP3   OH235995   0.375   0.843   0.784 -0.0609 -0.0110  0.8875
12013TIP3    H135996   0.458   0.889   0.794 -0.0517 -0.2978  2.2954
12013TIP3    H235997   0.387   0.788   0.707  1.5733 -1.1059  1.8768
12014TIP3   OH235998   0.486   5.135   3.520  0.0397 -0.2576 -0.7572
12014TIP3    H135999   0.456   5.222   3.548  1.8385  0.5053 -1.0379
12014TIP3    H236000   0.577   5.149   3.495 -0.0020 -1.9823 -2.0393
12015TIP3   OH236001   7.988   0.918   2.068  0.3056 -0.7458 -0.2591
12015TIP3    H136002   8.040   0.881   2.139  0.9680 -2.3043 -1.5120
12015TIP3    H236003   7.900   0.928   2.106  0.5405 -1.9349  0.6667
12016TIP3   OH236004   3.071   5.339   3.369  0.0261 -0.2880 -0.1355
12016TIP3    H136005   3.037   5.330   3.281 -1.0288  0.5766  0.1622
12016TIP3    H236006   2.994   5.346   3.425  0.5707  2.7489  0.4510
12017TIP3   OH236007   7.076   1.557   2.733  0.2183  0.3410 -0.4033
12017TIP3    H136008   7.048   1.598   2.651 -2.2680 -0.4765 -0.0501
12017TIP3    H236009   7.107   1.470   2.707 -0.8192 -0.0190 -0.4911
12018TIP3   OH236010   2.699   2.410   3.614  0.1104  0.6618  0.0835
12018TIP3    H136011   2.627   2.449   3.565 -0.6891  1.3428  1.7028
12018TIP3    H236012   2.775   2.420   3.558 -1.1374 -0.7733 -2.0255
12019TIP3   OH236013   5.265   5.201   1.559 -0.4746 -0.3041  0.3215
12019TIP3    H136014   5.326   5.174   1.627 -1.2200  0.4931  1.3327
12019TIP3    H236015   5.238   5.119   1.516  2.6380 -0.5796 -1.3905
12020TIP3   OH236016   2.237   3.286   5.565 -0.3576 -0.2505  0.1029
12020TIP3    H136017   2.145   3.312   5.560 -0.4702 -0.8462 -2.0208
12020TIP3    H236018   2.279   3.330   5.491  0.5517 -1.7825 -0.3542
12021TIP3   OH236019   4.124   5.268   0.359  0.5293  0.6436 -0.1808
12021TIP3    H136020   4.043   5.270   0.309  0.0234 -0.2361  0.5617
12021TIP3    H236021   4.124   5.182   0.401  1.1364  1.1798  0.9695
12022TIP3   OH236022   8.297   7.391   6.174 -0.5663  0.1020  0.0929
12022TIP3    H136023   8.302   7.486   6.162  0.0116 -0.0124 -0.6816
12022TIP3    H236024   8.213   7.367   6.134 -0.0381  0.1135 -1.0563
12023TIP3   OH236025   6.924   4.376   6.175  0.1965 -0.2455  0.0006
12023TIP3    H136026   6.987   4.444   6.199  0.1380 -0.3224  0.3729
12023TIP3    H236027   6.839   4.415   6.191  0.1699 -0.7014  1.0533
12024TIP3   OH236028   0.594   0.890   4.140  0.0987  0.5748  0.1351
12024TIP3    H136029   0.537   0.866   4.068  0.8731  1.0477 -0.6520
12024TIP3    H236030   0.650   0.813   4.153 -1.0802 -0.1299  1.3164
12025TIP3   OH236031   1.293   1.500   6.518  0.0996  0.1824 -0.1525
12025TIP3    H136032   1.321   1.495   6.427  0.4280  0.3545 -0.0614
12025TIP3    H236033   1.262   1.590   6.528  0.5550  0.3208  0.0453
12026TIP3   OH236034   0.577   2.156   1.747 -0.2055  0.1337  0.4236
12026TIP3    H136035   0.498   2.103   1.751 -0.9025  1.1496  0.4805
12026TIP3    H236036   0.619   2.143   1.832 -2.0319  2.1330  1.7418
12027TIP3   OH236037   3.470   0.313   5.493 -0.4116  0.0010 -0.4668
12027TIP3    H136038   3.442   0.388   5.545 -1.8785  0.4293 -1.8180
12027TIP3    H236039   3.516   0.256   5.555 -0.6059  1.2941  0.8996
12028TIP3   OH236040   6.695   3.878   6.476  0.4032  0.5541 -0.0665
12028TIP3    H136041   6.627   3.918   6.530  1.5129  0.9187  1.1129
12028TIP3    H236042   6.719   3.946   6.413 -0.4573  0.3495 -0.6246
12029TIP3   OH236043   0.475   4.973   1.038 -0.0070  0.5193  0.4109
12029TIP3    H136044   0.550   4.976   1.097 -0.6926 -0.1185  1.3555
12029TIP3    H236045   0.399   4.970   1.096 -0.7319  0.3905 -0.5115
12030TIP3   OH236046   2.732   5.121   0.981  0.1834  0.0813  0.3685
12030TIP3    H136047   2.733   5.199   0.926  0.6190 -0.9706 -1.1911
12030TIP3    H236048   2.653   5.074   0.954  2.4454 -2.5036 -2.5255
12031TIP3   OH236049   1.692   5.263   5.095 -0.2788  0.2413 -0.0243
12031TIP3    H136050   1.633   5.244   5.022 -0.0970 -1.5653  0.2415
12031TIP3    H236051   1.771   5.297   5.054 -1.5198  2.9612 -0.3697
12032TIP3   OH236052   5.654   3.734   3.715  0.8499 -0.4992 -0.1895
12032TIP3    H136053   5.608   3.796   3.658  1.9465  1.3861  0.8553
12032TIP3    H236054   5.695   3.672   3.655  0.3909  0.2735 -1.3430
12033TIP3   OH236055   0.538   6.368   2.693  0.3480 -0.1615  0.3266
12033TIP3    H136056   0.505   6.453   2.663  1.3676 -0.0742 -0.6077
12033TIP3    H236057   0.559   6.321   2.612  1.7365 -0.5138  0.8666
12034TIP3   OH236058   3.588   2.792   3.832  1.2462  0.4047  0.5600
12034TIP3    H136059   3.639   2.833   3.762  0.5875 -1.5744 -1.1512
12034TIP3    H236060   3.616   2.700   3.832 -1.1058 -0.3667  0.6791
12035TIP3   OH236061   2.226   2.805   3.651  0.6552 -0.5886  0.3410
12035TIP3    H136062   2.224   2.817   3.556  0.3518 -2.8788  0.0035
12035TIP3    H236063   2.282   2.875   3.683  0.9136  0.1172 -1.5450
12036TIP3   OH236064   1.832   1.763   0.524  0.5265 -0.5889  0.0002
12036TIP3    H136065   1.866   1.722   0.604  0.0781 -0.0681  0.4594
12036TIP3    H236066   1.902   1.823   0.497  0.6930 -0.7897 -0.0220
12037TIP3   OH236067   7.408   4.726   1.082 -0.1084 -0.2163 -1.0450
12037TIP3    H136068   7.439   4.717   0.992  0.8875  0.0966 -0.7474
12037TIP3    H236069   7.360   4.646   1.099 -1.3163  0.2286 -2.2367
12038TIP3   OH236070   2.218   0.993   5.825 -0.2160  0.0901 -0.3118
12038TIP3    H136071   2.269   1.073   5.822  0.7040 -0.4612  0.2654
12038TIP3    H236072   2.188   0.987   5.916 -0.2776 -0.2206 -0.3499
12039TIP3   OH236073   4.929   1.253   0.158 -0.6236  0.5168  0.2502
12039TIP3    H136074   4.931   1.280   0.067 -2.4858  0.2665  0.0993
12039TIP3    H236075   4.985   1.316   0.204  3.2925 -1.3336 -1.4591
12040TIP3   OH236076   4.723   6.416   3.423 -0.2004  0.5951  0.1250
12040TIP3    H136077   4.635   6.442   3.449  1.1682  2.3607  3.7129
12040TIP3    H236078   4.714   6.326   3.393 -3.0953  0.3343  1.4406
12041TIP3   OH236079   1.910   7.774   0.622 -0.2538  0.4087  0.0394
12041TIP3    H136080   1.824   7.733   0.613  0.1816 -0.8532  1.2795
12041TIP3    H236081   1.896   7.847   0.682 -0.4345  0.0664  0.4205
12042TIP3   OH236082   4.163   0.615   2.321  0.6587 -0.8283  0.4048
12042TIP3    H136083   4.225   0.595   2.251  0.2805 -0.8925  0.0846
12042TIP3    H236084   4.109   0.536   2.330  0.0464 -0.4623  0.0629
12043TIP3   OH236085   6.458   1.962   3.090  0.0639  0.1764  0.0280
12043TIP3    H136086   6.479   2.051   3.061  0.2161 -0.0364 -0.5285
12043TIP3    H236087   6.365   1.951   3.070 -0.3921  0.8058  1.6760
12044TIP3   OH236088   4.201   6.558   2.562  0.5519 -0.4400  0.0090
12044TIP3    H136089   4.118   6.521   2.531  0.4437 -0.1521 -0.0501
12044TIP3    H236090   4.184   6.651   2.569  0.8095 -0.4074  0.2029
12045TIP3   OH236091   6.586   4.993   6.135  0.7670  0.1960 -0.2844
12045TIP3    H136092   6.588   5.082   6.169  2.2352  0.1604 -0.1758
12045TIP3    H236093   6.675   4.960   6.151 -0.1986 -1.8905  1.2607
12046TIP3   OH236094   0.506   6.779   2.911 -0.0322  0.3451 -0.1012
12046TIP3    H136095   0.596   6.812   2.915 -0.3638  1.1648  1.7033
12046TIP3    H236096   0.492   6.760   2.818  2.5857 -1.5578 -0.2075
12047TIP3   OH236097   0.632   4.968   2.105 -0.8431 -0.6119 -0.2169
12047TIP3    H136098   0.668   4.988   2.191  0.6869 -0.6115 -0.8114
12047TIP3    H236099   0.608   4.875   2.110  0.3688 -0.9417 -0.1332
12048TIP3   OH236100   3.774   0.745   0.118 -0.0052  0.0261 -0.1979
12048TIP3    H136101   3.864   0.749   0.149 -0.3737 -1.5496  1.2256
12048TIP3    H236102   3.769   0.812   0.050  1.8272  1.1658  0.7180
12049TIP3   OH236103   3.451   3.340   0.120 -0.3881 -0.0091  0.1305
12049TIP3    H136104   3.535   3.379   0.094 -0.3126 -1.2648 -1.6688
12049TIP3    H236105   3.393   3.357   0.047 -1.6386  0.5364  1.2130
12050TIP3   OH236106   0.942   3.149   3.235 -0.5516  0.0211 -0.2431
12050TIP3    H136107   1.001   3.080   3.203  1.8895  1.0395  1.6875
12050TIP3    H236108   0.991   3.230   3.222 -2.1457  1.0814  0.1585
12051TIP3   OH236109   0.039   1.703   6.595 -0.7657  0.3798 -0.1937
12051TIP3    H136110   0.110   1.675   6.652  0.0755  0.5591 -1.1185
12051TIP3    H236111   0.038   1.637   6.525 -1.8227  0.1212  0.0545
12052TIP3   OH236112   6.403   5.261   1.655 -0.1884 -0.0825  0.5795
12052TIP3    H136113   6.332   5.325   1.662  0.0252  0.2008  0.1863
12052TIP3    H236114   6.455   5.274   1.734  0.3429  0.8349  0.0979
12053TIP3   OH236115   6.130   3.840   0.080 -0.3173  0.1643 -0.4133
12053TIP3    H136116   6.123   3.780   0.154 -1.3256  1.4922  0.6093
12053TIP3    H236117   6.046   3.833   0.035 -0.2512  0.4290 -0.5817
12054TIP3   OH236118   4.747   6.017   2.132  0.0874  0.5472 -0.9721
12054TIP3    H136119   4.690   6.011   2.055  1.4753 -0.4102 -1.9927
12054TIP3    H236120   4.823   6.066   2.101  0.1305  1.2526  0.1827
12055TIP3   OH236121   0.573   0.301   3.266  0.4883  0.2925  0.0182
12055TIP3    H136122   0.493   0.319   3.218  1.3154  1.4002 -0.9943
12055TIP3    H236123   0.562   0.212   3.299 -0.1031 -0.5101 -2.2221
12056TIP3   OH236124   0.319   2.379   2.719 -0.2303  0.2614  0.1031
12056TIP3    H136125   0.309   2.294   2.763 -0.1052  0.1539 -0.0738
12056TIP3    H236126   0.229   2.411   2.707 -0.2289  0.9836  1.7628
12057TIP3   OH236127   2.931   3.398   5.057  0.1352  0.6573 -0.1718
12057TIP3    H136128   2.884   3.319   5.032  1.3908 -0.3309  0.4700
12057TIP3    H236129   3.023   3.371   5.064  0.4154  1.8300  1.4042
12058TIP3   OH236130   5.135   0.705   3.907 -0.2958 -0.0546  0.0805
12058TIP3    H136131   5.095   0.719   3.821 -0.3065  0.3432  0.1484
12058TIP3    H236132   5.224   0.740   3.898  0.3859 -1.7723 -0.3555
12059TIP3   OH236133   4.033   6.966   2.522 -0.0326  0.2435 -0.0753
12059TIP3    H136134   4.008   6.892   2.467 -3.1521 -0.3929  1.9552
12059TIP3    H236135   4.082   6.926   2.594  0.9282  0.6022 -0.5119
12060TIP3   OH236136   6.052   1.447   2.137  0.5506  0.1662  0.6982
12060TIP3    H136137   6.004   1.376   2.094  0.5637 -1.4269  3.0896
12060TIP3    H236138   6.036   1.524   2.083 -0.3996 -1.4107 -1.4031
12061TIP3   OH236139   6.225   0.301   0.237 -0.9756  0.5920 -0.0529
12061TIP3    H136140   6.305   0.343   0.205  0.0997 -1.4137 -0.1183
12061TIP3    H236141   6.251   0.259   0.319 -2.1159  0.3339  0.1942
12062TIP3   OH236142   6.607   1.859   2.113  0.0177  0.0556  0.2462
12062TIP3    H136143   6.588   1.769   2.141  0.9438  0.1719  1.2736
12062TIP3    H236144   6.700   1.859   2.091  0.3251  1.0471  1.4366
12063TIP3   OH236145   0.643   3.782   3.252  0.2808 -0.1519 -0.6207
12063TIP3    H136146   0.732   3.818   3.260 -0.2007  1.2729 -1.3999
12063TIP3    H236147   0.634   3.762   3.159  0.1225 -1.2523 -0.3794
12064TIP3   OH236148   4.841   3.784   1.476 -0.0295 -0.3335  0.0419
12064TIP3    H136149   4.878   3.814   1.560 -0.5503  0.2132  0.0868
12064TIP3    H236150   4.754   3.752   1.499  0.8604 -2.8547  0.1487
12065TIP3   OH236151   3.339   5.781   6.009 -0.2147 -0.1811 -0.0241
12065TIP3    H136152   3.388   5.814   6.084  1.2721 -1.1692 -0.5100
12065TIP3    H236153   3.402   5.726   5.962 -1.8059 -1.5071 -0.6890
12066TIP3   OH236154   4.956   1.203   6.082 -0.3155 -0.2965 -0.5096
12066TIP3    H136155   4.970   1.280   6.136 -1.1453 -1.2946  1.1781
12066TIP3    H236156   4.927   1.135   6.142 -0.6305 -1.6540 -2.1051
12067TIP3   OH236157   7.722   4.769   4.644  0.0242 -0.4604  0.5378
12067TIP3    H136158   7.694   4.806   4.727  1.3132  0.3262  0.6456
12067TIP3    H236159   7.659   4.801   4.580 -0.5742 -0.5126  1.0952
12068TIP3   OH236160   6.693   6.247   2.603 -0.3600  0.4264  0.2842
12068TIP3    H136161   6.600   6.229   2.585 -0.0758 -0.9106  0.0564
12068TIP3    H236162   6.698   6.258   2.698 -1.0632  2.5808  0.1302
12069TIP3   OH236163   3.661   5.758   6.304  0.2286  0.4210 -0.0428
12069TIP3    H136164   3.636   5.828   6.243  0.8935  1.7404  1.1465
12069TIP3    H236165   3.629   5.788   6.389 -0.4104 -1.2473  0.3442
12070TIP3   OH236166   2.249   5.523   6.698  0.1929 -0.3258  0.7030
12070TIP3    H136167   2.186   5.480   6.756  0.4038 -1.3697  0.1945
12070TIP3    H236168   2.324   5.542   6.754 -0.1114 -0.1516  1.0522
12071TIP3   OH236169   5.178   0.381   1.834 -0.1399  1.3841 -0.3370
12071TIP3    H136170   5.187   0.449   1.766 -0.9104  2.0658  0.2101
12071TIP3    H236171   5.168   0.430   1.915  3.8363  0.6015  0.8204
12072TIP3   OH236172   0.137   1.202   6.539  0.2186  0.5379 -0.8063
12072TIP3    H136173   0.066   1.140   6.522  0.3731  0.4735 -1.2302
12072TIP3    H236174   0.212   1.148   6.562  0.8683  0.4387 -2.9666
12073TIP3   OH236175   7.689   1.586   6.213 -0.1660  0.6427 -1.0090
12073TIP3    H136176   7.719   1.628   6.132  0.7034  0.9541 -0.5380
12073TIP3    H236177   7.612   1.535   6.186 -1.2517  2.4989 -1.6239
12074TIP3   OH236178   6.984   2.748   0.471  0.3609  0.0992 -0.0688
12074TIP3    H136179   6.933   2.822   0.505  2.3654  1.4715  0.1114
12074TIP3    H236180   6.958   2.675   0.526 -0.6663  0.9790  0.6728
12075TIP3   OH236181   5.004   5.257   1.621  0.0491 -0.2195 -0.1543
12075TIP3    H136182   5.096   5.237   1.602  0.3884  1.7994 -0.8970
12075TIP3    H236183   4.955   5.183   1.584  1.3457 -1.3355  0.2790
12076TIP3   OH236184   6.722   3.472   5.730 -0.1786  0.1833  0.1641
12076TIP3    H136185   6.706   3.525   5.652 -0.2230 -0.0553  0.0087
12076TIP3    H236186   6.796   3.416   5.707 -0.5432 -0.2757  0.0947
12077TIP3   OH236187   3.009   3.591   4.271 -0.8570  0.3219 -0.1041
12077TIP3    H136188   3.061   3.621   4.347  0.4025 -0.0768 -0.7821
12077TIP3    H236189   3.037   3.501   4.258 -1.0009  0.4210 -1.1047
12078TIP3   OH236190   7.359   5.812   3.832 -0.0082 -0.0393  0.1525
12078TIP3    H136191   7.331   5.844   3.746  1.1559  0.3225 -0.1179
12078TIP3    H236192   7.281   5.817   3.887 -0.3815  1.2483 -0.4673
12079TIP3   OH236193   1.366   0.020   2.365 -0.0488 -0.4670  0.5823
12079TIP3    H136194   1.296  -0.029   2.322  1.3221  0.0556 -2.4958
12079TIP3    H236195   1.340   0.112   2.355  0.3940 -0.3281  0.7184
12080TIP3   OH236196   3.116   0.983   3.417 -0.2017  0.1066 -0.1487
12080TIP3    H136197   3.107   0.925   3.341 -0.1614  0.0659 -0.1227
12080TIP3    H236198   3.139   0.924   3.489 -0.3989  0.1248 -0.0702
12081TIP3   OH236199   7.885   0.077   0.758  0.1339  0.2547 -0.2700
12081TIP3    H136200   7.968   0.031   0.776  0.5243  0.7021 -0.9109
12081TIP3    H236201   7.872   0.067   0.664 -0.6745 -0.0117 -0.1425
12082TIP3   OH236202   1.959   1.550   4.967 -0.5859  0.0330 -0.1366
12082TIP3    H136203   2.024   1.488   4.934 -0.8074 -0.2404 -0.0629
12082TIP3    H236204   1.902   1.497   5.023 -0.7137  0.3244  0.0090
12083TIP3   OH236205   0.316   0.524   4.485 -0.3203 -0.1616  0.0987
12083TIP3    H136206   0.291   0.597   4.542  0.3282 -0.1160  0.3336
12083TIP3    H236207   0.388   0.558   4.432 -1.0304 -0.1437 -0.8942
12084TIP3   OH236208   5.623   5.827   4.768 -0.0027 -0.5595 -0.4275
12084TIP3    H136209   5.658   5.916   4.766  0.3682 -0.7076 -0.6962
12084TIP3    H236210   5.683   5.777   4.713  1.9488 -1.7330  2.4932
12085TIP3   OH236211   7.398   1.005   6.068 -0.0380  0.1795  0.0536
12085TIP3    H136212   7.419   0.989   6.160 -0.7800 -0.4218  0.1279
12085TIP3    H236213   7.477   0.980   6.020 -0.1097 -0.8126  0.4299
12086TIP3   OH236214   6.984   7.290   0.630 -0.1531  0.2016 -0.6566
12086TIP3    H136215   7.037   7.210   0.624 -0.3206 -0.1222  1.3891
12086TIP3    H236216   6.937   7.293   0.547  0.8725 -1.0792 -1.3445
12087TIP3   OH236217   2.988   6.465   5.508  0.6695 -0.1043  0.3163
12087TIP3    H136218   3.025   6.466   5.420  0.2812  0.6440  0.1488
12087TIP3    H236219   2.894   6.477   5.495  0.5200 -0.6871  0.7997
12088TIP3   OH236220   1.108   4.061   0.175  0.1414 -0.0824 -0.0792
12088TIP3    H136221   1.020   4.027   0.188  0.2753 -0.3696  0.0778
12088TIP3    H236222   1.163   4.010   0.235  0.2338  0.8772  0.6701
12089TIP3   OH236223   2.130   4.667   4.032  0.5786 -0.5375 -0.0334
12089TIP3    H136224   2.105   4.620   3.952  1.0798 -1.1779  0.1739
12089TIP3    H236225   2.076   4.628   4.100  1.4391 -1.2802  0.2512
12090TIP3   OH236226   3.052   7.402   3.956 -0.3365 -0.2191  0.4775
12090TIP3    H136227   3.141   7.373   3.936 -0.2119  0.3337  0.2176
12090TIP3    H236228   3.063   7.488   3.997 -0.7295 -0.3330  0.8386
12091TIP3   OH236229   1.134   2.698   5.777 -0.1147 -0.0753 -0.0433
12091TIP3    H136230   1.069   2.705   5.847  1.2501 -0.4827  1.3239
12091TIP3    H236231   1.130   2.782   5.732 -0.5099  0.4928  1.0235
12092TIP3   OH236232   7.020   7.264   0.939 -0.3194  0.1997 -0.4915
12092TIP3    H136233   7.040   7.296   0.851  2.1054 -0.0857 -0.1160
12092TIP3    H236234   6.968   7.333   0.979  1.2472  1.8218 -1.1211
12093TIP3   OH236235   2.505   3.981   0.577 -0.0131 -0.0271  0.2269
12093TIP3    H136236   2.527   4.009   0.666 -0.0343 -1.3844  0.6822
12093TIP3    H236237   2.567   3.911   0.558  0.4441  0.7178 -1.1094
12094TIP3   OH236238   1.220   5.576   2.345  0.1903  0.2065  0.6330
12094TIP3    H136239   1.288   5.561   2.279 -0.4668  2.3543 -0.6504
12094TIP3    H236240   1.138   5.557   2.299 -0.2472  1.1475  1.0076
12095TIP3   OH236241   7.379   3.175   1.291 -0.3705 -0.2110 -0.1028
12095TIP3    H136242   7.360   3.243   1.356  3.6176 -0.0111  1.1188
12095TIP3    H236243   7.398   3.224   1.211 -0.6479 -0.1334 -0.1234
12096TIP3   OH236244   3.532   5.631   5.932 -0.1681  0.2019  0.1870
12096TIP3    H136245   3.616   5.621   5.978 -1.4688  1.7680  3.1892
12096TIP3    H236246   3.495   5.543   5.932  0.5363 -0.1161  0.8494
12097TIP3   OH236247   7.183   2.961   1.171 -0.2865  0.3457  0.7868
12097TIP3    H136248   7.155   3.051   1.152 -1.9337 -0.6086 -1.9639
12097TIP3    H236249   7.252   2.944   1.107  0.3038 -0.2320  1.5674
12098TIP3   OH236250   4.919   2.490   1.133 -0.3157 -0.0377 -0.4468
12098TIP3    H136251   4.975   2.514   1.207  0.1029 -0.7080 -0.5392
12098TIP3    H236252   4.927   2.564   1.073 -0.2462  0.2788 -0.0556
12099TIP3   OH236253   2.462   6.170   6.663  0.3972 -0.7646 -0.3001
12099TIP3    H136254   2.436   6.078   6.665 -0.9569 -0.4088  0.0175
12099TIP3    H236255   2.452   6.196   6.572 -1.1496 -0.4600 -0.0821
12100TIP3   OH236256   0.053   3.078   5.190 -0.0656 -0.4770 -0.1539
12100TIP3    H136257   0.076   3.001   5.241  1.1635 -0.4123 -0.5710
12100TIP3    H236258  -0.002   3.130   5.249  0.2495 -1.0111  0.6382
12101TIP3   OH236259   7.869   0.354   0.872  0.1394 -0.0302  0.2122
12101TIP3    H136260   7.894   0.264   0.850 -2.6163 -0.3903 -2.1321
12101TIP3    H236261   7.925   0.409   0.818 -0.2999 -0.5471 -0.8090
12102TIP3   OH236262   6.262   3.988   1.508 -0.1740 -0.0455  0.3033
12102TIP3    H136263   6.240   3.981   1.415 -1.5419  0.4347  0.5658
12102TIP3    H236264   6.358   3.988   1.510 -0.0618  2.1954 -1.3265
12103TIP3   OH236265   1.013   5.361   1.269 -0.5786 -0.3572 -0.6280
12103TIP3    H136266   0.975   5.399   1.190 -1.5345 -0.9054 -0.4498
12103TIP3    H236267   0.939   5.351   1.329  0.4252  2.1093  1.2274
12104TIP3   OH236268   7.985   4.376   3.608 -0.4213  0.1964  1.2120
12104TIP3    H136269   7.921   4.447   3.614 -0.9149 -0.0136 -0.8023
12104TIP3    H236270   8.064   4.417   3.574 -1.1974 -0.3756 -1.5702
12105TIP3   OH236271   2.104   4.355   3.284  0.1851  0.3164 -0.0790
12105TIP3    H136272   2.193   4.369   3.254  0.6908  0.0822  1.2531
12105TIP3    H236273   2.079   4.270   3.247  1.3828 -0.7407  1.4270
12106TIP3   OH236274   6.596   7.428   1.706  0.4032  0.1369 -0.3220
12106TIP3    H136275   6.598   7.511   1.754 -0.7940  0.8159 -1.3893
12106TIP3    H236276   6.688   7.408   1.688  0.7588  0.7592  0.7144
12107TIP3   OH236277   4.430   2.108   1.237 -0.0361 -0.0061 -0.3922
12107TIP3    H136278   4.396   2.122   1.325 -0.0173 -0.3535 -0.3282
12107TIP3    H236279   4.353   2.091   1.183 -0.0560  0.3049 -0.4631
12108TIP3   OH236280   4.016   6.586   2.147 -0.0623 -0.2978 -0.2303
12108TIP3    H136281   4.096   6.607   2.195  0.2159  1.2434 -1.3233
12108TIP3    H236282   3.955   6.557   2.215  1.3804 -1.4828  0.6189
12109TIP3   OH236283   4.827   6.859   2.216 -0.5093 -0.1068  0.2677
12109TIP3    H136284   4.883   6.935   2.203 -0.8677  0.0539 -0.3521
12109TIP3    H236285   4.849   6.828   2.304 -1.2679  1.4840  1.0670
12110TIP3   OH236286   8.113   4.544   5.154  0.3570  0.0725 -0.2690
12110TIP3    H136287   8.042   4.558   5.216  0.2135  1.6025 -0.7464
12110TIP3    H236288   8.072   4.550   5.068  0.7198 -1.1067 -0.5465
12111TIP3   OH236289   5.567   7.283   0.047 -0.2276  0.0275 -0.4238
12111TIP3    H136290   5.602   7.316  -0.036  1.3050  0.5419  0.3891
12111TIP3    H236291   5.480   7.324   0.054 -0.4325 -0.1154 -1.8041
12112TIP3   OH236292   2.594   5.653   3.463 -0.6338 -0.5624  0.0255
12112TIP3    H136293   2.626   5.588   3.400  0.3755  0.4594 -0.5653
12112TIP3    H236294   2.548   5.602   3.529 -1.0092 -1.7452 -1.1115
12113TIP3   OH236295   4.573   1.598   6.221 -0.5700 -0.3796 -0.1625
12113TIP3    H136296   4.628   1.566   6.292  0.9378  2.0329 -0.1537
12113TIP3    H236297   4.541   1.518   6.179  0.1098 -1.8751  1.9482
12114TIP3   OH236298   0.149   0.301   3.306 -0.4879 -0.0500  0.2182
12114TIP3    H136299   0.117   0.360   3.238 -0.6803  0.9166  1.1160
12114TIP3    H236300   0.093   0.320   3.382 -1.6039 -2.5065  0.1088
12115TIP3   OH236301   3.070   4.502   0.647 -0.7403  0.4465  0.4955
12115TIP3    H136302   3.054   4.580   0.700 -1.7092  0.6389 -0.0476
12115TIP3    H236303   3.023   4.432   0.694 -1.2614  0.5366  0.1198
12116TIP3   OH236304   8.163   4.456   5.701 -0.3637 -0.1874 -0.0326
12116TIP3    H136305   8.086   4.429   5.652 -1.0136  1.7522 -0.1878
12116TIP3    H236306   8.187   4.540   5.662  1.3741 -0.3878  0.5320
12117TIP3   OH236307   8.185   7.587   4.146 -0.3549  0.3438  0.3222
12117TIP3    H136308   8.159   7.669   4.188 -0.7303  1.6116 -2.1960
12117TIP3    H236309   8.281   7.586   4.153 -0.3908  0.6926  0.9040
12118TIP3   OH236310   4.516   6.574   5.013 -0.7837 -0.3415 -0.3823
12118TIP3    H136311   4.580   6.503   5.010 -1.2593 -0.7461 -1.5300
12118TIP3    H236312   4.435   6.535   4.980 -1.1001  0.6782 -0.8677
12119TIP3   OH236313   0.176   4.154   2.140 -0.4072  0.0155 -0.1741
12119TIP3    H136314   0.265   4.185   2.122  0.4863 -1.2207  1.6863
12119TIP3    H236315   0.152   4.199   2.221  0.3148 -2.7464  1.7265
12120TIP3   OH236316   2.569   7.416   6.765 -0.3862 -0.1410  0.0429
12120TIP3    H136317   2.530   7.334   6.796  0.2389 -0.1080  0.9438
12120TIP3    H236318   2.501   7.456   6.711 -0.8239 -1.0827 -0.1182
12121TIP3   OH236319   6.416   0.946   1.648 -0.6687 -0.1133  0.0855
12121TIP3    H136320   6.366   0.872   1.612 -0.1006 -0.2617 -0.4036
12121TIP3    H236321   6.454   0.911   1.729  1.7269 -1.2237 -1.4120
12122TIP3   OH236322   3.272   1.794   3.029  0.5042 -0.2940  0.3430
12122TIP3    H136323   3.321   1.864   2.986 -0.5098  0.8965  1.0460
12122TIP3    H236324   3.215   1.840   3.091 -0.0325 -1.7711  0.9862
12123TIP3   OH236325   4.656   3.251   4.116 -0.0430 -0.5254  0.2343
12123TIP3    H136326   4.624   3.272   4.204  0.3544  0.1098  0.2316
12123TIP3    H236327   4.743   3.213   4.131 -1.1073 -3.1812  0.3202
12124TIP3   OH236328   3.645   0.513   0.114  0.3082  0.1783  0.2228
12124TIP3    H136329   3.584   0.524   0.041 -0.5203 -0.0219  0.8774
12124TIP3    H236330   3.683   0.600   0.126 -0.8379  0.6382  0.6678
12125TIP3   OH236331   4.831   2.326   1.780 -0.1208 -0.0343  0.4166
12125TIP3    H136332   4.738   2.348   1.781 -0.1983 -0.3827  0.6786
12125TIP3    H236333   4.838   2.251   1.722 -0.0187 -0.0881  0.4972
12126TIP3   OH236334   2.330   3.443   4.687 -0.8557 -0.1114 -0.0268
12126TIP3    H136335   2.405   3.384   4.692 -0.4811  0.4413  2.1129
12126TIP3    H236336   2.349   3.501   4.614  0.8185 -0.0075  0.4444
12127TIP3   OH236337   6.721   1.972   5.266  0.6387  0.4963 -0.3530
12127TIP3    H136338   6.766   1.920   5.199  3.8970  2.8614 -0.2501
12127TIP3    H236339   6.699   1.908   5.334 -1.1734 -1.6790 -2.7685
12128TIP3   OH236340   8.024   6.336   4.289 -0.1187  0.5372  0.0574
12128TIP3    H136341   8.111   6.298   4.276  0.1684  1.5614 -1.2851
12128TIP3    H236342   8.011   6.392   4.212 -2.1901  0.0017 -0.0383
12129TIP3   OH236343   7.486   7.009   5.537 -0.1936 -0.2864 -0.1074
12129TIP3    H136344   7.524   6.946   5.475 -0.6099 -1.4306  0.7530
12129TIP3    H236345   7.556   7.071   5.556  0.7665 -1.4601  0.2832
12130TIP3   OH236346   6.611   3.176   3.079 -1.0498  0.4063 -0.1550
12130TIP3    H136347   6.631   3.151   3.169 -0.2798 -0.0815 -0.4555
12130TIP3    H236348   6.538   3.238   3.087  0.4944  2.1931  0.9778
12131TIP3   OH236349   1.622   7.102   0.351  0.1395  0.1713 -0.0787
12131TIP3    H136350   1.707   7.107   0.309  0.2345 -0.2258  0.0604
12131TIP3    H236351   1.561   7.139   0.287  0.3701  0.1618 -0.3039
12132TIP3   OH236352   0.526   6.531   1.729 -0.4626 -0.3752 -0.2872
12132TIP3    H136353   0.465   6.460   1.745 -1.1656  0.2233 -0.2551
12132TIP3    H236354   0.612   6.489   1.725 -0.9865 -1.3720 -1.4376
12133TIP3   OH236355   3.993   7.697   6.539  0.0615 -0.1534 -0.2104
12133TIP3    H136356   3.935   7.678   6.613 -0.5981 -2.1608 -1.1729
12133TIP3    H236357   3.988   7.792   6.528 -2.3426 -0.1743  0.2910
12134TIP3   OH236358   1.411   4.840   2.294  0.1162 -0.4203 -0.5363
12134TIP3    H136359   1.472   4.798   2.233 -0.1461 -0.7853 -0.5463
12134TIP3    H236360   1.403   4.778   2.366  0.1757 -0.1299 -0.2817
12135TIP3   OH236361   1.825   1.127   4.260 -0.3973  0.5232 -0.0951
12135TIP3    H136362   1.791   1.151   4.346 -0.4001 -0.4402  0.1797
12135TIP3    H236363   1.811   1.205   4.206 -4.8902 -0.3522 -0.5664
12136TIP3   OH236364   5.431   5.220   5.915 -0.0958  0.4967  0.3907
12136TIP3    H136365   5.410   5.300   5.866 -1.0558 -0.8350 -1.5501
12136TIP3    H236366   5.521   5.199   5.890 -0.6335 -0.2648 -1.0516
12137TIP3   OH236367   3.774   3.968   4.956 -0.2550 -0.2179 -0.2331
12137TIP3    H136368   3.703   3.927   5.006 -0.4444  0.0235 -0.3050
12137TIP3    H236369   3.734   3.991   4.872 -0.3806  0.9082  0.1210
12138TIP3   OH236370   4.016   5.194   5.423 -0.2223 -0.1009  0.5934
12138TIP3    H136371   4.071   5.123   5.456 -0.8392 -0.4611  0.8646
12138TIP3    H236372   3.927   5.164   5.439 -0.5149  0.1799 -0.4461
12139TIP3   OH236373   6.732   7.661   2.199  0.1407  0.2043 -0.2604
12139TIP3    H136374   6.638   7.664   2.182 -0.1129 -0.4211  0.9672
12139TIP3    H236375   6.741   7.607   2.277  1.4307  1.2305  0.3430
12140TIP3   OH236376   5.781   2.728   0.519 -0.6232  0.3228 -0.0224
12140TIP3    H136377   5.694   2.766   0.527 -0.6912  0.5668 -1.6498
12140TIP3    H236378   5.834   2.777   0.581 -1.4484  0.7646  0.3534
12141TIP3   OH236379   2.047   5.978   1.003  0.6472  0.2706 -0.3498
12141TIP3    H136380   2.092   6.052   0.963 -0.9419  1.3165 -0.2626
12141TIP3    H236381   1.956   6.005   1.009  0.2928 -1.0807  1.1278
12142TIP3   OH236382   1.328   1.677   2.804  0.8174  0.4730  0.5156
12142TIP3    H136383   1.361   1.766   2.816 -0.5921  1.2833 -1.1065
12142TIP3    H236384   1.281   1.680   2.721  2.1582 -2.2510 -0.4673
12143TIP3   OH236385   3.817   1.987   2.049 -0.2780  0.0876  0.3608
12143TIP3    H136386   3.785   2.003   1.961  1.2247  0.8138 -0.0896
12143TIP3    H236387   3.875   1.911   2.040 -0.8054 -0.3928  0.9041
12144TIP3   OH236388   8.029   1.598   4.969  0.9325  0.3445  0.0960
12144TIP3    H136389   8.015   1.560   4.883  1.7615 -0.5013  0.3222
12144TIP3    H236390   8.082   1.534   5.016  0.2653  0.6591  1.3310
12145TIP3   OH236391   6.630   2.346   0.359 -0.4067  0.1899 -0.3943
12145TIP3    H136392   6.587   2.293   0.426 -2.6024  0.8251 -1.2331
12145TIP3    H236393   6.722   2.318   0.361 -0.7105 -0.8012  1.8704
12146TIP3   OH236394   1.038   1.064   6.574 -0.7718 -0.6044  0.5226
12146TIP3    H136395   1.111   1.008   6.546 -0.5993 -0.4631  0.6848
12146TIP3    H236396   1.057   1.082   6.666 -1.3027 -1.0252  0.7229
12147TIP3   OH236397   2.682   2.825   1.857 -0.1034  0.1265 -0.1137
12147TIP3    H136398   2.736   2.758   1.900  1.0346  0.3808 -1.0830
12147TIP3    H236399   2.731   2.847   1.778 -0.3189  2.3023  0.2963
12148TIP3   OH236400   6.898   4.099   4.401  0.2057 -0.3998 -0.2965
12148TIP3    H136401   6.909   4.047   4.322  1.4499 -0.4571 -0.1106
12148TIP3    H236402   6.897   4.190   4.371 -1.3584 -0.4724 -0.5588
12149TIP3   OH236403   7.345   5.752   6.264 -0.2025 -0.0683 -0.1559
12149TIP3    H136404   7.368   5.708   6.182 -0.8106  0.3989 -0.5978
12149TIP3    H236405   7.418   5.735   6.323  0.8936  0.7048 -1.2315
12150TIP3   OH236406   1.697   0.073   5.223 -0.5057 -0.0564 -0.0890
12150TIP3    H136407   1.735   0.123   5.151  2.0653  0.8940  1.7926
12150TIP3    H236408   1.609   0.110   5.233  0.3303  2.2669 -0.5219
12151TIP3   OH236409   7.708   1.628   5.496  0.4950  0.0712  0.0287
12151TIP3    H136410   7.753   1.567   5.437  1.9220  0.0497  1.0754
12151TIP3    H236411   7.677   1.698   5.439  0.4728 -0.7136 -0.9465
12152TIP3   OH236412   3.335   1.075   0.757  0.2056 -0.1876 -0.0527
12152TIP3    H136413   3.315   1.052   0.847  0.6061 -0.9345 -0.1416
12152TIP3    H236414   3.411   1.020   0.734  0.0053 -0.1378 -0.8894
12153TIP3   OH236415   1.265   0.770   3.432 -0.4094 -0.1108 -0.0503
12153TIP3    H136416   1.293   0.690   3.477  1.6983  0.7614  0.3217
12153TIP3    H236417   1.319   0.774   3.353 -1.7619  0.0595 -0.9970
12154TIP3   OH236418   4.329   5.534   4.693 -0.4196  0.1095 -0.1707
12154TIP3    H136419   4.244   5.528   4.650  0.6008  1.4618 -2.5210
12154TIP3    H236420   4.365   5.445   4.686 -0.4773  0.1798 -1.7476
12155TIP3   OH236421   0.015   4.516   1.564  0.0178 -0.0248 -0.2528
12155TIP3    H136422   0.069   4.466   1.503 -1.1792 -0.5477 -0.9180
12155TIP3    H236423  -0.072   4.518   1.524 -0.4670  0.8180  0.7698
12156TIP3   OH236424   0.504   7.787   6.083 -0.4054  0.1480  0.0012
12156TIP3    H136425   0.530   7.869   6.124  1.6922 -0.3104 -0.2674
12156TIP3    H236426   0.510   7.722   6.153  0.4200 -0.1705 -0.3538
12157TIP3   OH236427   0.711   5.176   4.392  0.1309  0.0388 -0.9408
12157TIP3    H136428   0.799   5.166   4.428 -0.5153  1.3352  1.1741
12157TIP3    H236429   0.660   5.107   4.436 -0.4197  0.8827 -0.2258
12158TIP3   OH236430   3.315   5.626   0.995  0.3451  0.1599  0.5009
12158TIP3    H136431   3.309   5.579   1.078  0.1181  0.3698  0.6043
12158TIP3    H236432   3.389   5.585   0.950  1.5865  1.2091  1.5384
12159TIP3   OH236433   2.452   6.837   2.367  0.4640  0.3870  0.1812
12159TIP3    H136434   2.367   6.838   2.324  0.3821 -2.5921  0.0612
12159TIP3    H236435   2.433   6.814   2.458  1.1606 -2.7126 -0.3382
12160TIP3   OH236436   5.910   4.736   5.771 -0.2745 -0.7105  0.6773
12160TIP3    H136437   5.828   4.689   5.785  0.0182 -1.2479  0.6203
12160TIP3    H236438   5.978   4.672   5.791  0.1370 -0.7603 -0.7509
12161TIP3   OH236439   6.752   5.749   0.644  0.1131  0.9726 -0.2933
12161TIP3    H136440   6.843   5.776   0.658  0.6883  0.0369 -1.8653
12161TIP3    H236441   6.760   5.666   0.597 -1.5501 -0.8714  2.3762
12162TIP3   OH236442   5.831   4.467   1.976 -0.6609 -0.6182  0.1071
12162TIP3    H136443   5.744   4.484   2.012 -0.8205  1.4075 -1.1069
12162TIP3    H236444   5.814   4.443   1.884  0.0915  1.3069 -0.5826
12163TIP3   OH236445   1.548   6.513   3.497 -0.0668  0.5619 -0.5534
12163TIP3    H136446   1.643   6.514   3.484  0.1803 -2.4193  0.3037
12163TIP3    H236447   1.518   6.436   3.448 -1.5984 -0.2435  1.5368
12164TIP3   OH236448   3.767   4.300   0.435 -0.3590  0.2083  0.1201
12164TIP3    H136449   3.797   4.382   0.475 -1.1988  0.3829  0.4086
12164TIP3    H236450   3.784   4.311   0.341  0.6475  0.2174  0.2936
12165TIP3   OH236451   5.582   1.956   0.130  0.1309  0.5339 -0.2883
12165TIP3    H136452   5.623   1.878   0.092 -0.6160 -0.1638  0.3128
12165TIP3    H236453   5.655   2.017   0.144  0.7257 -0.0542 -0.7569
12166TIP3   OH236454   8.103   0.778   2.270 -0.6544  0.0089  0.3647
12166TIP3    H136455   8.020   0.731   2.283 -1.4711  1.5383  0.9471
12166TIP3    H236456   8.170   0.713   2.289 -1.5646 -2.1890 -2.9709
12167TIP3   OH236457   3.136   3.604   6.452 -0.7756  0.7935 -0.0477
12167TIP3    H136458   3.139   3.694   6.484  0.2359  0.9909 -0.6602
12167TIP3    H236459   3.176   3.553   6.522  2.0800  1.3098 -1.1667
12168TIP3   OH236460   4.057   0.902   4.925 -0.3116  0.6191 -0.2914
12168TIP3    H136461   3.982   0.864   4.879 -0.1948 -0.2720  0.2201
12168TIP3    H236462   4.058   0.857   5.010  0.6746  0.7557 -0.2147
12169TIP3   OH236463   6.368   2.089   5.667  0.5326  0.3325  0.6431
12169TIP3    H136464   6.446   2.141   5.646 -0.5916  1.6871 -0.3741
12169TIP3    H236465   6.392   1.999   5.644  0.6673  1.1882 -3.1513
12170TIP3   OH236466   4.022   6.172   0.753 -0.4394  0.3958  0.7898
12170TIP3    H136467   3.929   6.190   0.741 -0.6239 -0.9655 -0.0555
12170TIP3    H236468   4.050   6.133   0.670  0.9978  1.1800  0.8686
12171TIP3   OH236469   1.666   3.905   1.269  0.3048 -0.6642 -0.0221
12171TIP3    H136470   1.689   3.813   1.256  1.2279 -0.6057  1.0610
12171TIP3    H236471   1.678   3.920   1.363  2.2485  1.0949 -0.4873
12172TIP3   OH236472   6.385   4.805   1.164  0.4727 -0.3057  0.2309
12172TIP3    H136473   6.393   4.710   1.179  0.4191 -0.1641  1.2731
12172TIP3    H236474   6.291   4.821   1.168  0.4399 -0.2902 -0.5371
12173TIP3   OH236475   4.864   4.034   5.898 -0.3363 -0.1346  0.8445
12173TIP3    H136476   4.845   3.990   5.981 -1.1882 -1.5313 -0.0588
12173TIP3    H236477   4.815   4.116   5.903 -0.1716 -0.0858  1.8225
12174TIP3   OH236478   3.183   0.951   6.508  0.1399  0.1771  0.0304
12174TIP3    H136479   3.160   0.862   6.534 -0.4969  1.0087  2.6604
12174TIP3    H236480   3.162   0.956   6.415  0.6046 -2.5207 -0.2768
12175TIP3   OH236481   4.860   0.679   3.191  0.1607  0.0926 -0.0123
12175TIP3    H136482   4.892   0.753   3.243 -0.2300  1.9468 -2.2282
12175TIP3    H236483   4.779   0.711   3.151 -0.9233 -2.1640  0.2354
12176TIP3   OH236484   2.698   3.232   0.188 -0.4491 -0.0234  0.2858
12176TIP3    H136485   2.672   3.197   0.273  1.2302 -1.8490  0.1259
12176TIP3    H236486   2.630   3.295   0.166 -0.5651  1.0153  3.2645
12177TIP3   OH236487   0.393   5.401   0.288  0.0568 -1.1261 -0.9125
12177TIP3    H136488   0.317   5.434   0.240  0.4675 -1.5639 -1.8915
12177TIP3    H236489   0.465   5.402   0.224  0.7161 -1.3635 -0.2008
12178TIP3   OH236490   2.262   0.958   1.406  0.1196  0.3298 -0.0989
12178TIP3    H136491   2.175   0.992   1.383  0.7709  0.6480 -2.3551
12178TIP3    H236492   2.298   0.929   1.322  2.6678  1.3488  0.5647
12179TIP3   OH236493   0.538   7.441   4.223 -0.2023  0.0061 -0.3554
12179TIP3    H136494   0.563   7.351   4.243 -0.7059 -0.8044 -3.0090
12179TIP3    H236495   0.596   7.494   4.278 -0.7616 -1.8581  2.2504
12180TIP3   OH236496   4.087   4.937   5.513 -0.5971 -0.1641 -0.0358
12180TIP3    H136497   4.019   4.908   5.452  0.0731 -0.1917 -0.7810
12180TIP3    H236498   4.152   4.867   5.514  0.0313  0.3988 -0.2910
12181TIP3   OH236499   8.306   4.456   3.318 -0.3145  0.1450  0.5889
12181TIP3    H136500   8.231   4.407   3.284  0.4409 -0.9783  0.4797
12181TIP3    H236501   8.304   4.539   3.271 -0.2091 -0.7482 -1.0928
12182TIP3   OH236502   5.365   4.091   6.423  0.2824 -0.0460 -0.3475
12182TIP3    H136503   5.433   4.159   6.421  0.5669 -0.3394 -0.7952
12182TIP3    H236504   5.345   4.081   6.516  2.2532 -1.3122  0.0033
12183TIP3   OH236505   0.161   7.055   6.550 -0.0317 -0.0218  0.1815
12183TIP3    H136506   0.135   7.071   6.641  1.3968  0.1120  0.6037
12183TIP3    H236507   0.092   7.093   6.498  0.1277  1.8041  1.2129
12184TIP3   OH236508   6.934   4.488   3.989 -0.0193 -0.5181  0.1305
12184TIP3    H136509   6.890   4.521   3.910 -0.7210  0.2426  0.8164
12184TIP3    H236510   6.927   4.560   4.052  1.5441 -0.6818  0.5244
12185TIP3   OH236511   5.682   1.711   2.393 -0.0766 -0.6147  0.3362
12185TIP3    H136512   5.673   1.781   2.328 -1.6219 -0.4390  0.7039
12185TIP3    H236513   5.767   1.671   2.373 -0.2222 -0.1557 -1.3814
12186TIP3   OH236514   3.998   5.452   5.497  0.3268 -0.3816  0.4479
12186TIP3    H136515   4.029   5.431   5.585 -0.7255 -1.5584  0.5612
12186TIP3    H236516   3.998   5.369   5.451  1.8380  0.3626 -1.0276
12187TIP3   OH236517   4.373   3.562   3.066 -0.2776 -0.1138  0.0633
12187TIP3    H136518   4.403   3.513   2.990 -1.7267  0.9763 -1.2658
12187TIP3    H236519   4.393   3.506   3.140  1.4062 -1.0971 -1.0812
12188TIP3   OH236520   7.482   3.280   5.154 -0.1185  0.1826  0.4408
12188TIP3    H136521   7.498   3.332   5.233 -3.1112  0.5639  0.9019
12188TIP3    H236522   7.462   3.344   5.087 -1.4512 -0.2234  0.4100
12189TIP3   OH236523   7.460   7.297   4.911  0.4098 -0.1556 -0.2775
12189TIP3    H136524   7.412   7.365   4.864 -1.2525 -0.5952  0.6737
12189TIP3    H236525   7.493   7.340   4.990  1.3537  0.0775 -0.7909
12190TIP3   OH236526   0.894   4.030   2.556  0.3199  0.2033 -0.1628
12190TIP3    H136527   0.918   4.122   2.557 -0.3727  0.3796  1.0342
12190TIP3    H236528   0.977   3.984   2.545  0.7894  0.9261  0.3089
12191TIP3   OH236529   7.004   4.830   5.356 -0.1115 -0.9116 -0.0250
12191TIP3    H136530   6.942   4.764   5.324 -0.1295 -1.2845  0.7542
12191TIP3    H236531   7.089   4.787   5.353  0.5634  0.3195 -3.2771
12192TIP3   OH236532   5.907   5.588   3.335  0.1457  0.3773  0.3819
12192TIP3    H136533   5.992   5.631   3.338  0.1607  0.5196 -1.1465
12192TIP3    H236534   5.850   5.642   3.390  1.0045  0.3360  1.3314
12193TIP3   OH236535   3.315   7.613   4.338 -0.1527  0.1809 -0.5442
12193TIP3    H136536   3.294   7.524   4.369 -3.2333  0.0039 -2.6338
12193TIP3    H236537   3.359   7.599   4.254 -1.1884  0.5860 -1.1720
12194TIP3   OH236538   5.009   2.761   1.650  0.3388  0.2457 -0.4986
12194TIP3    H136539   4.988   2.691   1.713 -0.1595  1.2787  0.5217
12194TIP3    H236540   4.992   2.722   1.565 -0.2338 -0.7929  0.0649
12195TIP3   OH236541   1.163   1.400   5.294 -0.3323  0.4833 -0.0611
12195TIP3    H136542   1.117   1.457   5.232 -1.5076  0.1697  0.4788
12195TIP3    H236543   1.189   1.324   5.242 -0.6951  0.5358 -0.3263
12196TIP3   OH236544   2.921   3.891   1.000  0.2152 -0.1877  0.1788
12196TIP3    H136545   2.881   3.820   0.950  0.4594 -0.8166  0.8491
12196TIP3    H236546   2.848   3.947   1.025 -0.1333 -0.7850  0.5395
12197TIP3   OH236547   6.364   2.716   5.208 -0.2370 -0.1074 -0.3100
12197TIP3    H136548   6.368   2.719   5.113  0.2552 -2.1040 -0.3926
12197TIP3    H236549   6.314   2.794   5.232  0.4651  0.9638 -2.1207
12198TIP3   OH236550   3.554   3.866   4.143 -0.6650 -0.1753 -0.1479
12198TIP3    H136551   3.492   3.818   4.198 -0.6026 -0.7880 -0.6024
12198TIP3    H236552   3.539   3.832   4.055 -0.1443  0.1546 -0.3692
12199TIP3   OH236553   1.004   5.100   2.954  0.1877  0.7772 -0.7390
12199TIP3    H136554   0.957   5.173   2.994 -2.2572 -1.0657 -0.0682
12199TIP3    H236555   1.009   5.033   3.022 -0.4522 -0.8854 -2.2612
12200TIP3   OH236556   7.226   0.451   3.799  0.1351  0.0910 -0.5903
12200TIP3    H136557   7.157   0.403   3.755 -1.2342  2.8437 -1.6491
12200TIP3    H236558   7.298   0.454   3.736  0.1636 -0.3539 -0.5837
12201TIP3   OH236559   3.429   0.041   5.667 -0.0639 -0.1335 -0.2300
12201TIP3    H136560   3.335   0.048   5.652 -0.2188 -1.8529 -0.2745
12201TIP3    H236561   3.437   0.025   5.761  0.0936 -1.1547 -0.4108
12202TIP3   OH236562   4.005   6.238   6.262 -0.2878  0.2085  0.4037
12202TIP3    H136563   4.042   6.208   6.346 -0.4252  0.2289  0.4713
12202TIP3    H236564   3.928   6.289   6.287 -0.0309  0.6488  0.2893
12203TIP3   OH236565   2.011   4.573   1.808  0.3549  0.2914  0.5564
12203TIP3    H136566   2.067   4.553   1.883 -0.0058  0.0064  0.7532
12203TIP3    H236567   2.064   4.550   1.732  0.4643 -0.0970  0.7469
12204TIP3   OH236568   6.394   6.911   4.551  0.0334  0.4204  0.2542
12204TIP3    H136569   6.319   6.969   4.542 -0.6448 -0.4467  0.1469
12204TIP3    H236570   6.405   6.899   4.645 -0.1163  0.3491  0.2619
12205TIP3   OH236571   7.538   0.355   3.699  0.1235 -0.1541  0.1014
12205TIP3    H136572   7.631   0.354   3.674  0.3151 -0.1380  0.7987
12205TIP3    H236573   7.502   0.430   3.653 -0.2819 -1.9124 -2.7402
12206TIP3   OH236574   8.136   1.341   1.830 -0.0826 -0.5098 -0.0830
12206TIP3    H136575   8.179   1.261   1.801 -0.8785 -0.7808 -0.5443
12206TIP3    H236576   8.061   1.312   1.882 -0.5544 -0.0826 -0.5046
12207TIP3   OH236577   3.453   4.068   4.328 -0.1384  0.7874 -0.1110
12207TIP3    H136578   3.508   4.004   4.283 -1.1773 -0.7117  0.6959
12207TIP3    H236579   3.400   4.106   4.258 -0.9597 -0.7287 -0.3509
12208TIP3   OH236580   2.404   7.096   3.485 -0.0508 -0.1830  0.1905
12208TIP3    H136581   2.481   7.151   3.498  0.8537 -1.2244 -0.6157
12208TIP3    H236582   2.356   7.103   3.568  0.3060  1.3771  0.2924
12209TIP3   OH236583   0.827   5.517   3.546  0.3006 -0.0358  0.1696
12209TIP3    H136584   0.869   5.494   3.629  0.6730  1.0577  0.3003
12209TIP3    H236585   0.899   5.547   3.490 -0.2683  2.0736  0.4671
12210TIP3   OH236586   7.384   6.306   5.227  0.5301  0.2406  0.0382
12210TIP3    H136587   7.312   6.246   5.209  1.8294 -1.4713  0.3665
12210TIP3    H236588   7.399   6.351   5.143 -0.1378 -0.2255 -0.3416
12211TIP3   OH236589   6.733   1.137   3.408 -0.0762 -0.4113 -0.2740
12211TIP3    H136590   6.668   1.068   3.424  0.0483 -0.4327  0.1505
12211TIP3    H236591   6.753   1.172   3.495  1.8529 -1.6382 -0.1811
12212TIP3   OH236592   5.917   0.975   5.684 -0.0385 -0.2290 -0.7740
12212TIP3    H136593   5.976   0.901   5.670  0.7474 -0.1978  1.8817
12212TIP3    H236594   5.966   1.051   5.655  0.1300 -0.4647 -1.1245
12213TIP3   OH236595   0.522   0.449   2.022 -0.4810 -0.1688 -0.4863
12213TIP3    H136596   0.515   0.358   2.052 -1.2872 -0.6448 -2.0113
12213TIP3    H236597   0.438   0.488   2.044  0.1773  0.4911  0.9608
12214TIP3   OH236598   1.052   3.846   5.045  0.0649 -0.3578 -0.6676
12214TIP3    H136599   1.075   3.880   4.959 -0.1734 -1.6641 -1.2694
12214TIP3    H236600   0.966   3.882   5.064  0.9505  1.5444 -0.0645
12215TIP3   OH236601   7.051   0.808   3.006  0.0269  0.0052 -0.0091
12215TIP3    H136602   7.040   0.793   3.099 -0.5548 -1.5940 -0.3146
12215TIP3    H236603   6.963   0.799   2.969 -0.0007  2.0268 -0.5566
12216TIP3   OH236604   7.264   5.168   5.792  0.2947 -0.3610 -0.2861
12216TIP3    H136605   7.206   5.110   5.742 -0.8616  1.2776 -0.9128
12216TIP3    H236606   7.235   5.256   5.769  1.8122  0.4745  0.8831
12217TIP3   OH236607   1.190   2.281   5.601 -0.2615 -0.7283  0.6703
12217TIP3    H136608   1.143   2.349   5.649  0.5590  0.7722 -0.5691
12217TIP3    H236609   1.274   2.273   5.645  1.5742  2.5141 -1.8136
12218TIP3   OH236610   5.240   3.504   0.423 -0.5273  0.3415  0.6186
12218TIP3    H136611   5.234   3.542   0.510  0.9932 -0.1031  0.9510
12218TIP3    H236612   5.228   3.410   0.436 -1.0549  0.3523  0.2413
12219TIP3   OH236613   3.910   4.006   6.363 -0.5511 -0.0976  0.0702
12219TIP3    H136614   3.921   3.928   6.418  0.0324  0.0761  0.1985
12219TIP3    H236615   3.824   4.040   6.388 -0.1469  0.1715  1.1184
12220TIP3   OH236616   6.181   6.584   4.665  0.1731  0.1430 -0.1063
12220TIP3    H136617   6.156   6.626   4.583 -0.3879 -0.9125 -0.4976
12220TIP3    H236618   6.182   6.490   4.645  0.7638 -0.0866  0.8983
12221TIP3   OH236619   2.520   4.517   1.794 -0.0643  0.1618 -0.2395
12221TIP3    H136620   2.500   4.536   1.886 -4.1672 -1.4237 -0.5910
12221TIP3    H236621   2.574   4.439   1.797  2.4473  1.8248  0.7785
12222TIP3   OH236622   3.341   6.772   5.407 -0.2533 -0.0326 -0.8369
12222TIP3    H136623   3.387   6.851   5.377  1.1858 -0.3280  0.4605
12222TIP3    H236624   3.373   6.703   5.349  0.9995 -0.2339  0.0522
12223TIP3   OH236625   5.784   2.989   3.543 -0.4995  0.5254  0.3504
12223TIP3    H136626   5.740   2.904   3.551 -0.4031  0.3094 -1.0418
12223TIP3    H236627   5.851   2.974   3.476 -0.2223  1.6050  0.3695
12224TIP3   OH236628   1.776   3.744   5.622 -0.0076 -0.4315 -0.1775
12224TIP3    H136629   1.809   3.732   5.533 -2.6044 -1.5110 -1.0892
12224TIP3    H236630   1.734   3.831   5.621 -1.2772 -1.0183 -0.4935
12225TIP3   OH236631   3.660   2.421   1.565  0.5063  0.1552 -0.2472
12225TIP3    H136632   3.625   2.424   1.654  2.3458 -0.3747  0.5400
12225TIP3    H236633   3.719   2.346   1.565 -0.7332 -0.9341 -2.4485
12226TIP3   OH236634   0.672   5.180   6.716  0.2933  0.3221  0.0005
12226TIP3    H136635   0.594   5.236   6.714 -1.6433 -2.1225  1.5205
12226TIP3    H236636   0.662   5.123   6.640  0.6265  0.0263  0.1826
12227TIP3   OH236637   2.920   4.118   2.895  0.4268 -0.0590  0.4468
12227TIP3    H136638   2.825   4.114   2.903  0.5769 -0.9787  2.3043
12227TIP3    H236639   2.940   4.070   2.815 -0.8454  3.3163 -2.1306
12228TIP3   OH236640   0.484   5.930   4.565  1.1846  0.1070  0.1112
12228TIP3    H136641   0.545   5.861   4.590  0.0650 -0.8548  0.2621
12228TIP3    H236642   0.458   5.969   4.648 -1.6533 -2.3359  0.5441
12229TIP3   OH236643   4.813   1.515   3.685  0.1448 -0.3008  0.3415
12229TIP3    H136644   4.907   1.508   3.673  0.2639 -1.5769  1.7305
12229TIP3    H236645   4.793   1.453   3.755 -1.8816 -0.9198 -0.6936
12230TIP3   OH236646   5.337   6.677   5.065  0.1013 -0.1573  0.5799
12230TIP3    H136647   5.286   6.749   5.103  0.3047  0.3674 -0.1188
12230TIP3    H236648   5.428   6.704   5.076  0.2375 -1.0254  1.6959
12231TIP3   OH236649   0.724   6.333   1.110 -0.9029  0.1918 -0.9760
12231TIP3    H136650   0.635   6.368   1.112 -0.2380  1.9626 -0.9904
12231TIP3    H236651   0.763   6.362   1.193 -1.5778 -4.2435  1.2294
12232TIP3   OH236652   6.581   2.514   2.089 -0.0763 -0.1296 -0.1670
12232TIP3    H136653   6.663   2.514   2.040  0.5194  1.3863  0.7536
12232TIP3    H236654   6.520   2.462   2.036  1.3577 -0.9674 -1.0442
12233TIP3   OH236655   3.281   7.319   0.252  0.0107  0.0732 -0.2541
12233TIP3    H136656   3.374   7.339   0.256  0.4256 -1.4951 -1.5133
12233TIP3    H236657   3.238   7.405   0.257  1.3138  0.6956  3.7222
12234TIP3   OH236658   1.842   4.398   3.151 -0.3614  0.3574 -0.3950
12234TIP3    H136659   1.910   4.403   3.218  0.2983 -0.2098 -1.0080
12234TIP3    H236660   1.883   4.435   3.072 -1.3307  1.6118 -0.3486
12235TIP3   OH236661   3.478   5.160   1.807  0.0261  0.3212 -0.4453
12235TIP3    H136662   3.544   5.223   1.836  0.9134  0.4297 -2.5205
12235TIP3    H236663   3.496   5.147   1.714 -1.4102 -1.4725 -0.5421
12236TIP3   OH236664   1.939   4.583   2.968  0.4090 -0.5945  0.2322
12236TIP3    H136665   1.936   4.644   2.894  1.9170 -0.1622  0.4920
12236TIP3    H236666   1.915   4.636   3.044  3.1027  0.1477  0.6883
12237TIP3   OH236667   5.587   7.072   6.243 -0.0755  0.5289  0.4339
12237TIP3    H136668   5.573   6.983   6.213  1.4000  0.8460 -1.3424
12237TIP3    H236669   5.564   7.070   6.336 -2.0742 -1.1802 -0.0314
12238TIP3   OH236670   0.444   1.980   0.519 -0.2681 -0.2736  0.0805
12238TIP3    H136671   0.467   1.893   0.487 -1.5274 -0.6708  0.1771
12238TIP3    H236672   0.516   2.004   0.578  0.6787 -0.7231 -0.8681
12239TIP3   OH236673   6.506   2.069   2.007 -0.5197  0.6595 -0.2563
12239TIP3    H136674   6.587   2.097   1.965 -0.6226  0.4769 -0.5782
12239TIP3    H236675   6.531   1.992   2.059 -0.4394  0.7498 -0.1607
12240TIP3   OH236676   1.369   0.120   1.145  0.2758  0.1229  0.6056
12240TIP3    H136677   1.294   0.060   1.140 -1.4930  2.2710 -0.5359
12240TIP3    H236678   1.373   0.160   1.058  1.9397  1.0369  1.0645
12241TIP3   OH236679   7.524   4.473   4.261  0.3061  0.6671  0.3219
12241TIP3    H136680   7.429   4.472   4.277  0.1531  1.2375 -0.5240
12241TIP3    H236681   7.533   4.512   4.174  1.3041  0.3426  0.2786
12242TIP3   OH236682   2.607   3.117   3.593 -0.2662 -0.0265  0.0630
12242TIP3    H136683   2.596   3.120   3.498 -1.6846 -0.9039  0.1654
12242TIP3    H236684   2.698   3.090   3.606 -0.1017 -0.0511 -1.0447
12243TIP3   OH236685   1.050   1.938   6.398 -0.0645 -0.6629 -0.1896
12243TIP3    H136686   1.078   2.014   6.450  0.2977 -0.6029 -0.4678
12243TIP3    H236687   0.955   1.945   6.394 -0.0777 -0.5418  0.2767
12244TIP3   OH236688   6.054   0.943   2.506 -0.5390  0.1394  0.0150
12244TIP3    H136689   6.022   1.028   2.537 -0.7336  0.2958 -0.5897
12244TIP3    H236690   5.982   0.883   2.523  0.5143 -0.4708  2.7889
12245TIP3   OH236691   7.393   5.297   1.105 -1.0047 -0.1669  0.1602
12245TIP3    H136692   7.487   5.302   1.087 -0.7135 -0.9314  1.3736
12245TIP3    H236693   7.366   5.388   1.119 -0.6047  0.1240 -0.8759
12246TIP3   OH236694   3.720   1.585   2.008  0.9957 -0.0648  0.1921
12246TIP3    H136695   3.670   1.584   2.090 -0.3240  1.6667 -0.5423
12246TIP3    H236696   3.679   1.517   1.954  0.2094  0.5195  0.0447
12247TIP3   OH236697   6.057   4.133   6.345 -0.2879  0.3812 -0.0066
12247TIP3    H136698   6.120   4.113   6.415 -1.1012  0.3875  0.7374
12247TIP3    H236699   6.099   4.202   6.294  0.0130  0.8904  0.9048
12248TIP3   OH236700   7.725   0.963   2.179  0.2176  0.0185 -0.9023
12248TIP3    H136701   7.668   0.918   2.117 -1.7923 -1.1170  1.5420
12248TIP3    H236702   7.691   1.053   2.182 -0.1120 -0.1014 -0.9847
12249TIP3   OH236703   5.978   5.653   5.099 -0.0464 -0.9957  0.2181
12249TIP3    H136704   5.996   5.577   5.045  0.5599  0.3603 -1.5910
12249TIP3    H236705   5.914   5.704   5.050  2.3645  1.5313 -0.6058
12250TIP3   OH236706   6.088   3.227   4.292  0.4818  0.0883  0.1421
12250TIP3    H136707   6.065   3.316   4.317  0.4017  0.1773 -0.2334
12250TIP3    H236708   6.154   3.200   4.355  0.2062  0.2628  0.5069
12251TIP3   OH236709   5.860   5.712   1.045 -0.8028 -0.1708  0.0583
12251TIP3    H136710   5.925   5.783   1.042 -0.5744 -0.3914 -0.4177
12251TIP3    H236711   5.859   5.677   0.955 -2.1396  0.3251 -0.1287
12252TIP3   OH236712   3.506   5.358   5.908 -0.0697 -0.2850 -0.4289
12252TIP3    H136713   3.452   5.310   5.845 -0.9249 -0.2927  0.2803
12252TIP3    H236714   3.482   5.320   5.993  0.6484  0.1051 -0.0441
12253TIP3   OH236715   5.341   6.696   1.542 -0.3794 -0.2065 -0.1732
12253TIP3    H136716   5.353   6.627   1.477 -0.4599  0.0621 -0.4774
12253TIP3    H236717   5.417   6.753   1.532 -0.1730 -0.3981  0.2649
12254TIP3   OH236718   3.000   2.501   1.399  0.7510 -0.0536  0.5979
12254TIP3    H136719   2.909   2.495   1.371  1.1269  1.2192 -1.0218
12254TIP3    H236720   3.044   2.432   1.350  0.6514 -0.8855  1.6240
12255TIP3   OH236721   0.572   7.359   0.857 -0.7474  0.6288 -0.2263
12255TIP3    H136722   0.488   7.331   0.892 -0.5350  1.6228  1.1365
12255TIP3    H236723   0.550   7.416   0.784 -1.2194  0.0137 -0.5782
12256TIP3   OH236724   8.300   3.888   5.239 -0.2444 -0.0024  0.3899
12256TIP3    H136725   8.329   3.797   5.241 -0.4959 -0.0977 -0.1682
12256TIP3    H236726   8.212   3.885   5.200 -1.1072  0.2609  2.2012
12257TIP3   OH236727   5.773   0.663   2.886  0.2522 -0.1642  0.2324
12257TIP3    H136728   5.751   0.661   2.979  2.3570  1.4183  0.8408
12257TIP3    H236729   5.758   0.573   2.856 -2.1460 -0.3193  1.6174
12258TIP3   OH236730   1.646   2.228   5.040  0.3633 -0.2810  0.5350
12258TIP3    H136731   1.737   2.200   5.052  0.4583  0.1256  0.7693
12258TIP3    H236732   1.605   2.213   5.125  0.5709  0.8701  0.8489
12259TIP3   OH236733   5.264   5.483   4.037 -0.3433 -0.3843 -0.4773
12259TIP3    H136734   5.202   5.465   3.967  0.0189  0.6702 -1.1091
12259TIP3    H236735   5.347   5.498   3.991 -0.0105 -0.0916  0.2130
12260TIP3   OH236736   2.160   7.645   0.724  0.0614 -0.1460 -0.2299
12260TIP3    H136737   2.091   7.683   0.670  1.2173  3.0914  0.3732
12260TIP3    H236738   2.114   7.593   0.790 -1.6996  0.7625 -0.6987
12261TIP3   OH236739   3.476   5.520   1.586 -0.5765  0.2716 -0.1387
12261TIP3    H136740   3.407   5.511   1.652  0.3958  1.5289  1.1173
12261TIP3    H236741   3.523   5.600   1.611  1.2914 -0.4947 -0.9957
12262TIP3   OH236742   1.775   0.540   3.963 -0.0147  0.2496 -0.3660
12262TIP3    H136743   1.698   0.508   4.011 -0.6077  1.7108 -0.2923
12262TIP3    H236744   1.809   0.612   4.016  0.2029  0.9180 -1.3688
12263TIP3   OH236745   1.997   4.348   6.692  0.2788  0.5372 -0.1942
12263TIP3    H136746   2.030   4.374   6.778 -1.1389 -1.3311  1.0055
12263TIP3    H236747   2.053   4.275   6.665  0.2201  0.5957 -0.4831
12264TIP3   OH236748   5.454   5.920   1.854  0.3924  0.1420  0.4025
12264TIP3    H136749   5.546   5.901   1.836  0.5450  1.3416 -0.1633
12264TIP3    H236750   5.416   5.939   1.768  0.3266  2.5826  0.9123
12265TIP3   OH236751   2.948   3.689   2.683  0.3630  0.3124  0.0848
12265TIP3    H136752   2.989   3.689   2.596  0.2818  2.2445  0.0129
12265TIP3    H236753   2.869   3.635   2.672  0.6241  0.1047 -0.8960
12266TIP3   OH236754   5.785   6.642   0.695 -0.0893 -0.4844  0.1100
12266TIP3    H136755   5.813   6.698   0.623  1.2540  0.2091  1.1272
12266TIP3    H236756   5.693   6.665   0.709  0.3688  1.3366  0.3602
12267TIP3   OH236757   4.753   3.617   2.421 -0.2578 -0.3472 -0.1910
12267TIP3    H136758   4.805   3.648   2.495  0.0760  1.0325 -0.9652
12267TIP3    H236759   4.747   3.693   2.363  0.4415 -1.6762 -2.1070
12268TIP3   OH236760   2.252   1.416   3.475  0.3606  0.5201 -0.8604
12268TIP3    H136761   2.201   1.429   3.555  0.1727 -0.5761 -0.7871
12268TIP3    H236762   2.298   1.333   3.489  1.7763  1.2275 -1.1418
12269TIP3   OH236763   7.562   3.975   0.475  0.8912  0.1987  0.3314
12269TIP3    H136764   7.649   3.961   0.439  1.1685 -0.1743  1.1298
12269TIP3    H236765   7.544   4.068   0.460  1.3322  0.2287 -0.0233
12270TIP3   OH236766   8.112   7.206   4.787  0.0039  0.6632 -0.0723
12270TIP3    H136767   8.143   7.131   4.736 -0.2007 -1.1240  2.2606
12270TIP3    H236768   8.167   7.279   4.759  1.7119 -0.8556 -0.8601
12271TIP3   OH236769   3.793   2.852   6.357  0.5002 -0.2502 -0.0162
12271TIP3    H136770   3.750   2.871   6.273  1.1891  0.5124 -0.2098
12271TIP3    H236771   3.722   2.855   6.421  0.1541  0.3502 -0.4159
12272TIP3   OH236772   5.064   6.041   3.034 -0.2381  0.3443  0.1447
12272TIP3    H136773   5.142   6.042   2.978 -1.3278 -1.3764 -1.5763
12272TIP3    H236774   5.062   6.127   3.076  1.5965  1.0751 -1.1512
12273TIP3   OH236775   1.033   6.121   1.345  0.3653 -0.2556  0.4026
12273TIP3    H136776   0.986   6.057   1.292  1.6744  0.2279 -1.4936
12273TIP3    H236777   1.046   6.195   1.286  2.7512 -0.0698  1.0368
12274TIP3   OH236778   0.756   1.699   4.048  0.1501 -0.0071  0.0094
12274TIP3    H136779   0.776   1.609   4.025 -0.9314 -0.3513  0.3429
12274TIP3    H236780   0.814   1.718   4.122  0.6319 -0.2973 -0.2827
12275TIP3   OH236781   2.488   5.041   5.239  0.6151 -0.0462  0.1673
12275TIP3    H136782   2.439   5.107   5.191  0.6510  0.5668  0.9535
12275TIP3    H236783   2.521   4.981   5.171 -1.3243 -0.5802 -0.3772
12276TIP3   OH236784   0.911   1.933   2.462 -0.4244  0.5965 -0.4493
12276TIP3    H136785   0.987   1.941   2.404 -0.1069 -0.6812 -0.2483
12276TIP3    H236786   0.837   1.915   2.403 -0.1819 -0.2471 -0.5198
12277TIP3   OH236787   4.002   0.477   3.269 -0.0089  0.3613  0.1108
12277TIP3    H136788   4.071   0.412   3.283 -0.6755 -0.6865 -1.2900
12277TIP3    H236789   4.009   0.536   3.345  1.5321 -0.5000  0.6768
12278TIP3   OH236790   4.958   2.586   4.943 -0.3381 -0.4266 -1.0396
12278TIP3    H136791   4.907   2.539   5.009 -2.6981  0.1622 -2.2992
12278TIP3    H236792   5.029   2.526   4.920  0.8264 -0.4831  2.2160
12279TIP3   OH236793   6.901   5.651   2.342 -0.4049  0.0371  0.0874
12279TIP3    H136794   6.954   5.572   2.332  1.0346  1.2094 -3.2126
12279TIP3    H236795   6.811   5.620   2.346  0.1371 -1.8212 -0.9259
12280TIP3   OH236796   7.958   0.221   4.755 -1.3256  0.7278 -0.6630
12280TIP3    H136797   7.926   0.310   4.738 -0.4022  1.6077  1.7048
12280TIP3    H236798   8.036   0.234   4.808 -0.6498 -1.5138 -1.0213
12281TIP3   OH236799   1.620   2.968   1.243  0.5973  0.2499 -0.2198
12281TIP3    H136800   1.668   2.979   1.161  1.6930  0.9320  0.5006
12281TIP3    H236801   1.679   3.001   1.310 -0.5183  0.2356  0.7910
12282TIP3   OH236802   5.473   5.401   5.699  0.1918  0.4152 -0.4554
12282TIP3    H136803   5.458   5.355   5.616 -1.2784  0.0387 -0.0127
12282TIP3    H236804   5.443   5.490   5.682  1.0937  0.6828 -0.6939
12283TIP3   OH236805   2.309   5.491   2.517 -0.0251  0.7587  0.2748
12283TIP3    H136806   2.294   5.500   2.611 -0.8728  2.3143  0.0343
12283TIP3    H236807   2.383   5.548   2.499 -0.0293  0.6677 -0.0296
12284TIP3   OH236808   2.025   2.875   2.930 -0.1211  0.2552 -0.2311
12284TIP3    H136809   2.018   2.937   3.003 -1.4590  1.1116 -1.0544
12284TIP3    H236810   1.992   2.923   2.854  1.4128 -0.5376 -1.4751
12285TIP3   OH236811   5.392   1.248   0.210 -0.1646 -0.0645  0.0738
12285TIP3    H136812   5.409   1.158   0.237 -0.5860 -0.0856  0.2712
12285TIP3    H236813   5.470   1.296   0.240  0.0932 -0.3703 -0.0953
12286TIP3   OH236814   5.660   1.405   3.255 -0.6775 -0.8503  0.2968
12286TIP3    H136815   5.741   1.454   3.272 -0.7639 -1.1822  1.7896
12286TIP3    H236816   5.657   1.397   3.159 -0.2932  1.4314  0.0227
12287TIP3   OH236817   0.735   6.615   3.978  0.2847  0.2983  0.0082
12287TIP3    H136818   0.715   6.649   4.065  1.3147  0.4438  0.1946
12287TIP3    H236819   0.742   6.693   3.922 -0.0049  0.2260 -0.1341
12288TIP3   OH236820   2.792   0.708   3.178 -0.2314  0.9027 -0.4528
12288TIP3    H136821   2.734   0.653   3.124 -0.3740  1.1716 -0.5766
12288TIP3    H236822   2.736   0.781   3.206 -0.2710  0.5587  0.3942
12289TIP3   OH236823   1.790   3.655   1.215  0.0164 -0.2831 -0.6299
12289TIP3    H136824   1.856   3.597   1.177 -0.5978 -1.5378  0.1386
12289TIP3    H236825   1.821   3.671   1.305 -1.2192 -1.8224  0.1356
12290TIP3   OH236826   7.765   3.689   6.234 -0.0391 -0.3928 -0.1444
12290TIP3    H136827   7.690   3.748   6.244  0.9239  0.5501  2.0934
12290TIP3    H236828   7.835   3.730   6.284  1.1380 -2.6709  0.2128
12291TIP3   OH236829   1.344   6.326   1.238 -0.3605  0.1053  0.3702
12291TIP3    H136830   1.251   6.338   1.217 -0.5008  1.6675  1.6575
12291TIP3    H236831   1.362   6.392   1.305  1.2326 -1.4115  1.5271
12292TIP3   OH236832   5.142   1.230   1.350  0.2174 -0.6222 -0.7055
12292TIP3    H136833   5.103   1.250   1.265 -0.3556 -1.6243 -0.6933
12292TIP3    H236834   5.068   1.211   1.407  0.5556  0.6514  0.2086
12293TIP3   OH236835   0.968   6.031   4.334 -0.2248  0.1215  0.6078
12293TIP3    H136836   0.921   6.110   4.361 -1.1135  0.2606 -1.2293
12293TIP3    H236837   1.058   6.047   4.361 -0.5227  1.4700  0.8724
12294TIP3   OH236838   6.230   5.353   4.843 -0.4657 -0.1186 -0.4120
12294TIP3    H136839   6.277   5.432   4.870 -1.1749 -0.0133  0.5662
12294TIP3    H236840   6.282   5.281   4.878 -0.3001 -0.0535 -0.5230
12295TIP3   OH236841   6.502   2.230   3.056  0.0625 -0.2454  0.2425
12295TIP3    H136842   6.423   2.244   3.107  0.5502 -0.6373  1.1381
12295TIP3    H236843   6.499   2.298   2.988  0.7490  2.1939  2.4630
12296TIP3   OH236844   1.326   4.953   0.304 -0.4082 -0.1652  0.5614
12296TIP3    H136845   1.408   4.913   0.276 -1.3102 -3.3030  1.8762
12296TIP3    H236846   1.267   4.943   0.229  0.2967  2.0699 -0.3750
12297TIP3   OH236847   2.063   0.389   0.303  0.1827  0.0849  0.0735
12297TIP3    H136848   2.020   0.307   0.281 -0.2698  0.2132  0.4628
12297TIP3    H236849   2.048   0.445   0.227  3.5267 -1.3030 -1.7897
12298TIP3   OH236850   6.686   2.407   4.073 -0.2295 -0.0016 -0.1151
12298TIP3    H136851   6.737   2.354   4.012  0.7075  2.1586 -1.3436
12298TIP3    H236852   6.644   2.473   4.018 -1.7820  0.2441  1.2707
12299TIP3   OH236853   0.824   4.048   6.430 -0.6404 -0.5916  0.3438
12299TIP3    H136854   0.907   4.019   6.466  0.5977 -0.1086 -1.9309
12299TIP3    H236855   0.847   4.122   6.373 -2.5137 -0.9389 -0.9486
12300TIP3   OH236856   4.381   1.406   5.268 -0.5393 -0.0491 -0.1069
12300TIP3    H136857   4.288   1.430   5.268 -0.7271 -0.6646 -1.9215
12300TIP3    H236858   4.391   1.352   5.346 -1.0302  2.3423  1.7458
12301TIP3   OH236859   5.349   0.575   5.075 -0.6909 -0.4156 -0.2228
12301TIP3    H136860   5.388   0.652   5.117  1.9244 -1.0468 -1.2832
12301TIP3    H236861   5.330   0.515   5.147 -0.1612  0.1271  0.3801
12302TIP3   OH236862   4.834   2.961   3.293 -0.2641  0.3714  0.8709
12302TIP3    H136863   4.791   2.999   3.217  2.3351 -1.1774 -1.5488
12302TIP3    H236864   4.763   2.945   3.355 -2.5079  1.6336 -1.1916
12303TIP3   OH236865   6.086   7.280   6.590 -0.2548  0.0568 -0.4760
12303TIP3    H136866   6.130   7.271   6.506 -1.0631  0.8580 -0.9950
12303TIP3    H236867   6.027   7.355   6.580  1.6129  1.9742  1.6708
12304TIP3   OH236868   7.151   1.866   5.808 -0.8586  0.0472  0.3843
12304TIP3    H136869   7.159   1.802   5.878 -1.3409 -0.7168 -0.2385
12304TIP3    H236870   7.057   1.884   5.803 -1.1329 -1.6118 -1.5277
12305TIP3   OH236871   7.987   6.663   2.475  0.0412  0.6647  0.0526
12305TIP3    H136872   8.042   6.654   2.397 -0.2956  0.2150 -0.1338
12305TIP3    H236873   7.981   6.758   2.488 -0.5888  0.7855 -0.9699
12306TIP3   OH236874   5.574   7.228   3.094 -0.3179  0.1815 -0.5650
12306TIP3    H136875   5.569   7.281   3.014  0.1050  0.8161 -0.1742
12306TIP3    H236876   5.649   7.262   3.141 -0.8489  0.1253  0.3420
12307TIP3   OH236877   6.645   3.403   4.323  0.0911  0.7837  0.0614
12307TIP3    H136878   6.612   3.339   4.260  1.2069  0.7372 -0.5009
12307TIP3    H236879   6.593   3.388   4.402 -0.6681  0.1867 -0.5317
12308TIP3   OH236880   5.762   0.413   4.422  0.2390  0.1786  0.1929
12308TIP3    H136881   5.724   0.389   4.507  0.0077  0.5273  0.1908
12308TIP3    H236882   5.701   0.378   4.357  0.3971 -0.0568  0.1694
12309TIP3   OH236883   4.126   3.894   3.404 -0.3394 -0.4027  0.3882
12309TIP3    H136884   4.047   3.945   3.421 -1.1704 -1.8359  0.9783
12309TIP3    H236885   4.103   3.804   3.427  1.3342 -0.9335  0.1703
12310TIP3   OH236886   6.902   6.715   0.065 -0.1795 -0.7425  0.3803
12310TIP3    H136887   6.985   6.763   0.073 -0.8017  0.6294 -0.8616
12310TIP3    H236888   6.921   6.646   0.001 -0.2521  0.2548 -0.7483
12311TIP3   OH236889   5.252   7.188   0.665 -0.2114  0.0252  0.5418
12311TIP3    H136890   5.228   7.100   0.693  0.5170 -0.6323 -0.7917
12311TIP3    H236891   5.170   7.227   0.633 -0.0966 -1.1860 -1.3870
12312TIP3   OH236892   3.667   0.084   5.880  0.1206 -0.2509  0.0313
12312TIP3    H136893   3.679   0.127   5.965 -1.0058 -0.1312  0.1391
12312TIP3    H236894   3.702   0.147   5.817  0.4718 -0.1100  0.3629
12313TIP3   OH236895   7.374   2.893   0.991  0.5737  0.1043  0.1927
12313TIP3    H136896   7.469   2.902   0.998  0.6196 -0.8606  1.0247
12313TIP3    H236897   7.361   2.804   0.960 -0.0522  0.4708 -0.6414
12314TIP3   OH236898   3.957   6.558   4.298  0.2850 -0.4119  0.2125
12314TIP3    H136899   4.023   6.608   4.249 -0.1950 -0.2532 -0.2822
12314TIP3    H236900   3.921   6.620   4.361 -0.7603  0.0643 -0.8284
12315TIP3   OH236901   1.931   3.275   5.079  0.2468  0.0858 -0.5413
12315TIP3    H136902   2.020   3.282   5.043  0.9261 -0.0615  1.0380
12315TIP3    H236903   1.884   3.220   5.016  1.9409 -1.7977 -0.2646
12316TIP3   OH236904   8.106   5.021   5.639  0.1485  0.2802 -0.0023
12316TIP3    H136905   8.071   5.107   5.663  0.7875  0.9181 -1.2733
12316TIP3    H236906   8.168   5.000   5.709  1.8767  2.0415 -0.9101
12317TIP3   OH236907   2.244   6.582   1.474  0.3962  0.3878  0.0115
12317TIP3    H136908   2.209   6.661   1.434  1.0524 -0.3408 -2.1548
12317TIP3    H236909   2.167   6.533   1.502 -0.1836  0.3834 -1.5124
12318TIP3   OH236910   2.417   1.226   2.118 -0.1030 -0.6879  0.3130
12318TIP3    H136911   2.335   1.260   2.153  1.2399  2.2044  0.9597
12318TIP3    H236912   2.477   1.228   2.192  0.8401 -1.7930 -0.3852
12319TIP3   OH236913   0.508   0.918   5.963 -0.3988 -0.1973 -0.0627
12319TIP3    H136914   0.482   0.865   6.039 -1.7266  1.5552  0.7716
12319TIP3    H236915   0.603   0.925   5.971 -0.4347 -0.6380  1.0547
12320TIP3   OH236916   6.192   4.807   2.274  0.1014 -0.3033  0.4226
12320TIP3    H136917   6.096   4.815   2.269 -0.3264 -2.9221  2.4456
12320TIP3    H236918   6.222   4.898   2.282 -2.3772  0.5320  1.4726
12321TIP3   OH236919   0.826   6.839   4.918  0.0163  0.1719 -0.2613
12321TIP3    H136920   0.914   6.817   4.946 -0.7065 -1.1155  1.1324
12321TIP3    H236921   0.775   6.760   4.934 -1.4207  0.9143 -0.9649
12322TIP3   OH236922   7.937   6.957   4.503  0.0213  0.1096 -0.7247
12322TIP3    H136923   7.957   7.040   4.460 -0.8821  1.7083  1.7820
12322TIP3    H236924   8.021   6.911   4.505  1.1498  2.0841  0.0867
12323TIP3   OH236925   1.713   7.297   1.645 -1.0082 -0.1879  0.9698
12323TIP3    H136926   1.777   7.349   1.596 -0.5779 -0.6089  1.0762
12323TIP3    H236927   1.667   7.362   1.699 -0.4682  0.0847  1.1138
12324TIP3   OH236928   1.134   2.934   0.434 -0.5989 -0.0251  0.2462
12324TIP3    H136929   1.095   2.911   0.518 -0.4710 -0.6866  0.1239
12324TIP3    H236930   1.062   2.973   0.384 -0.9668 -0.7174  0.2314
12325TIP3   OH236931   6.907   7.091   3.832 -0.2385 -0.0039 -0.0761
12325TIP3    H136932   6.847   7.024   3.799  0.3491 -0.2248 -0.7158
12325TIP3    H236933   6.932   7.058   3.919 -0.3673 -0.3417 -0.1614
12326TIP3   OH236934   1.389   6.672   0.492  0.4306 -0.3011 -0.4511
12326TIP3    H136935   1.431   6.758   0.482  0.2288 -0.2420 -0.7917
12326TIP3    H236936   1.391   6.634   0.404  0.8163 -0.7848 -0.2331
12327TIP3   OH236937   2.062   0.545   6.283  0.7675 -0.1491 -0.3802
12327TIP3    H136938   2.027   0.560   6.195 -0.5855 -4.1231 -0.7261
12327TIP3    H236939   2.000   0.588   6.342 -0.3309 -0.4273 -1.2963
12328TIP3   OH236940   1.489   0.437   3.012 -0.4552 -1.2086  0.2205
12328TIP3    H136941   1.582   0.438   2.988 -0.8042 -1.9441 -1.2638
12328TIP3    H236942   1.446   0.486   2.942 -1.2490 -1.2553  0.6630
12329TIP3   OH236943   0.658   7.750   5.379 -0.6919 -0.6179  0.7142
12329TIP3    H136944   0.745   7.742   5.339 -1.1813  0.3000 -0.5710
12329TIP3    H236945   0.676   7.773   5.471  0.4850  3.4640 -0.3341
12330TIP3   OH236946   5.975   5.926   3.847  0.1392 -0.2442  0.3559
12330TIP3    H136947   5.926   5.941   3.766  0.0997  0.1928  0.4632
12330TIP3    H236948   6.066   5.949   3.825 -0.2772  2.4809  1.1632
12331TIP3   OH236949   6.974   6.153   3.165  0.0385 -0.3761 -0.7180
12331TIP3    H136950   7.068   6.174   3.159  0.1718 -0.2118  1.1128
12331TIP3    H236951   6.970   6.057   3.159  0.4962 -0.4922  0.5448
12332TIP3   OH236952   6.349   3.345   2.436 -0.0965  0.2235 -0.4258
12332TIP3    H136953   6.301   3.369   2.515 -1.4962 -0.7672 -0.9244
12332TIP3    H236954   6.407   3.274   2.463  0.3628  0.7467 -0.0265
12333TIP3   OH236955   2.189   4.179   6.049 -0.0815  0.0821 -0.5472
12333TIP3    H136956   2.179   4.164   5.955  0.5134  0.9984 -0.7664
12333TIP3    H236957   2.154   4.266   6.063  0.4206  0.2069 -0.0297
12334TIP3   OH236958   8.098   4.145   2.057  0.4229  0.3249 -0.2958
12334TIP3    H136959   8.065   4.213   1.998 -0.5730 -0.6615 -0.9081
12334TIP3    H236960   8.023   4.087   2.071  1.3772 -0.8920 -0.1228
12335TIP3   OH236961   3.143   0.593   0.208  0.2998  0.1233 -0.1618
12335TIP3    H136962   3.218   0.546   0.244  0.1965 -0.2863 -0.4842
12335TIP3    H236963   3.104   0.534   0.144 -0.9160 -0.0981  0.7329
12336TIP3   OH236964   4.417   5.818   3.990 -0.3989  0.4862 -0.3006
12336TIP3    H136965   4.360   5.874   4.044  0.5704  1.0664  0.1436
12336TIP3    H236966   4.493   5.873   3.970 -0.9195  0.4579 -2.6883
12337TIP3   OH236967   5.926   4.567   1.122  0.3325 -0.0544  0.3477
12337TIP3    H136968   5.944   4.539   1.211 -1.2411 -0.1608  0.6505
12337TIP3    H236969   5.930   4.486   1.070 -0.6498 -0.3004  0.6423
12338TIP3   OH236970   5.786   0.829   1.735 -0.1036  0.0770 -0.3550
12338TIP3    H136971   5.871   0.868   1.755 -0.4330  0.0611  1.1747
12338TIP3    H236972   5.807   0.744   1.697  0.5638 -0.0642  0.3072
12339TIP3   OH236973   4.555   7.659   6.000 -0.5081 -0.2682  0.2381
12339TIP3    H136974   4.553   7.703   6.085  1.0465 -0.0360  0.1820
12339TIP3    H236975   4.647   7.639   5.986 -0.9211 -1.5806 -0.7562
12340TIP3   OH236976   4.439   4.634   6.214  0.4080  0.3455  0.6644
12340TIP3    H136977   4.400   4.681   6.288  0.7142  0.1714  0.9363
12340TIP3    H236978   4.486   4.702   6.166  1.3421  0.2264  1.3825
12341TIP3   OH236979   5.637   6.630   1.431  0.2260 -0.0386 -0.1370
12341TIP3    H136980   5.647   6.606   1.523 -0.5256 -1.2134 -0.3377
12341TIP3    H236981   5.608   6.721   1.433  0.7885  0.1333  0.7558
12342TIP3   OH236982   5.097   4.657   1.558 -0.5951 -0.0743  0.2473
12342TIP3    H136983   5.043   4.578   1.549  1.4391 -1.6899  1.5296
12342TIP3    H236984   5.185   4.629   1.532 -0.2495  2.4898 -1.8246
12343TIP3   OH236985   1.529   0.921   1.135 -0.3318 -0.2220  0.3185
12343TIP3    H136986   1.516   0.932   1.229 -0.0563 -1.3593  0.5039
12343TIP3    H236987   1.621   0.897   1.126 -1.0502 -3.4125  0.1209
12344TIP3   OH236988   7.057   1.934   1.014  0.3743 -0.0178  0.4111
12344TIP3    H136989   6.971   1.922   0.975  0.7649 -0.0649 -0.4628
12344TIP3    H236990   7.118   1.911   0.944  1.1425  2.7128  0.0967
12345TIP3   OH236991   2.963   3.339   2.665  0.0941 -0.3562  0.6048
12345TIP3    H136992   2.927   3.395   2.734 -0.5599 -1.7412  1.4313
12345TIP3    H236993   2.910   3.359   2.588  0.5224  0.8607  0.5926
12346TIP3   OH236994   8.003   2.430   4.106 -0.4237  0.6289 -0.1560
12346TIP3    H136995   7.971   2.405   4.020 -1.6529 -0.7300  0.6650
12346TIP3    H236996   7.932   2.480   4.146  0.6532  2.4538 -0.4068
12347TIP3   OH236997   2.571   6.219   0.317 -0.1187 -0.1815  0.7981
12347TIP3    H136998   2.596   6.282   0.386  1.1185  0.2679 -0.0253
12347TIP3    H236999   2.652   6.175   0.295 -0.6763 -0.9288  0.2028
12348TIP3   OH237000   5.399   0.181   5.880  0.1420 -0.1859 -0.0985
12348TIP3    H137001   5.456   0.198   5.806  1.4305 -1.7099  0.4761
12348TIP3    H237002   5.449   0.211   5.956 -0.5678  0.0786  0.2692
12349TIP3   OH237003   1.688   3.189   1.062  0.2260  0.1513 -0.3522
12349TIP3    H137004   1.771   3.227   1.091  1.0029 -2.7579  1.6133
12349TIP3    H237005   1.623   3.224   1.123  0.8467 -1.0910  1.1011
12350TIP3   OH237006   5.881   3.252   6.665 -0.6455  0.4309 -0.3534
12350TIP3    H137007   5.868   3.340   6.630  0.8477  0.5077 -0.7937
12350TIP3    H237008   5.928   3.265   6.747 -1.4522  0.0943  0.1710
12351TIP3   OH237009   5.926   5.214   2.610  0.1142 -0.3548  0.0282
12351TIP3    H137010   5.863   5.273   2.568  0.8191 -0.5389 -1.3549
12351TIP3    H237011   5.891   5.200   2.697 -0.8454  0.9348 -0.1116
12352TIP3   OH237012   7.881   6.603   2.952  0.4266  0.1518  0.0399
12352TIP3    H137013   7.896   6.532   3.014 -0.4535  0.6010  0.7904
12352TIP3    H237014   7.967   6.645   2.942  0.9046 -0.8622 -0.2390
12353TIP3   OH237015   1.590   0.820   2.311  0.3297 -0.3788  0.3819
12353TIP3    H137016   1.619   0.772   2.388  0.0485  0.1695  0.8431
12353TIP3    H237017   1.616   0.766   2.236  0.7513 -0.8341  0.8573
12354TIP3   OH237018   6.834   6.630   5.211  0.1700 -0.1167 -0.1141
12354TIP3    H137019   6.739   6.626   5.213  0.0809  1.1568 -0.7473
12354TIP3    H237020   6.859   6.634   5.304 -0.5308  1.6308  0.0296
12355TIP3   OH237021   3.899   6.344   5.088  0.3209  0.2804  0.1030
12355TIP3    H137022   3.873   6.252   5.092 -1.3269  0.6840 -0.5083
12355TIP3    H237023   3.900   6.373   5.179  0.4316 -0.2303  0.2679
12356TIP3   OH237024   1.188   5.898   6.767 -0.1965  0.5177  0.1409
12356TIP3    H137025   1.172   5.822   6.712 -1.6687  0.1822  0.9989
12356TIP3    H237026   1.105   5.946   6.768  0.7135  2.2059 -0.4460
12357TIP3   OH237027   6.420   0.807   0.673  0.0691  0.2546  0.3905
12357TIP3    H137028   6.402   0.860   0.751 -0.0220 -0.9155  1.1917
12357TIP3    H237029   6.486   0.857   0.625 -0.5248  1.4342  0.7447
12358TIP3   OH237030   3.299   2.546   6.240 -0.2633  0.5400  0.2430
12358TIP3    H137031   3.340   2.486   6.178  0.5376  0.1022  1.1698
12358TIP3    H237032   3.228   2.587   6.191 -0.0344 -0.2495 -0.7685
12359TIP3   OH237033   4.322   5.867   6.748 -0.1854 -0.3712 -0.1445
12359TIP3    H137034   4.414   5.865   6.722 -0.2006 -0.8453 -0.1841
12359TIP3    H237035   4.316   5.802   6.819 -0.4768 -0.3101 -0.1119
12360TIP3   OH237036   5.722   1.709   5.517  0.1348  0.3229 -0.4763
12360TIP3    H137037   5.717   1.620   5.482 -0.0977  0.0961  0.1049
12360TIP3    H237038   5.643   1.752   5.484 -0.1659  0.0613 -0.1237
12361TIP3   OH237039   6.691   3.061   3.774  0.4902  0.1713 -0.4758
12361TIP3    H137040   6.629   3.060   3.701  1.3673  0.5199 -1.2455
12361TIP3    H237041   6.710   2.969   3.791  1.5298  0.1188 -1.8003
12362TIP3   OH237042   6.161   4.694   5.487 -0.2122  0.2296  0.2925
12362TIP3    H137043   6.150   4.599   5.477 -2.7368  0.0905  2.8940
12362TIP3    H237044   6.210   4.703   5.569 -1.5967  1.1464  1.0463
12363TIP3   OH237045   6.850   4.575   5.257  0.8228 -0.3262  0.2859
12363TIP3    H137046   6.819   4.490   5.289  1.1618 -0.1934  0.9984
12363TIP3    H237047   6.926   4.554   5.203 -0.3816 -0.6403 -1.3603
12364TIP3   OH237048   2.213   2.282   4.181 -0.2648  0.3035 -0.6047
12364TIP3    H137049   2.210   2.373   4.207 -3.3603  0.0263  0.4654
12364TIP3    H237050   2.131   2.268   4.133 -0.1511 -2.0319 -0.2516
12365TIP3   OH237051   7.067   5.356   3.212 -0.0435  0.3218  0.3183
12365TIP3    H137052   7.139   5.310   3.255  0.3981  0.6443 -0.0802
12365TIP3    H237053   7.020   5.288   3.164  0.1048  0.1440  0.4265
12366TIP3   OH237054   6.127   5.077   4.359  0.1770 -0.5707 -0.6839
12366TIP3    H137055   6.074   5.100   4.283 -1.9017 -1.2258  0.4994
12366TIP3    H237056   6.066   5.037   4.420  2.0237 -1.2067  0.8501
12367TIP3   OH237057   1.705   2.580   2.472  0.1163 -0.1284 -0.4923
12367TIP3    H137058   1.757   2.611   2.399 -0.4094  1.4273 -0.2550
12367TIP3    H237059   1.648   2.654   2.494 -1.3837 -1.3573 -0.0179
12368TIP3   OH237060   2.140   0.711   4.544  0.4939  0.0935  0.2943
12368TIP3    H137061   2.182   0.774   4.485  0.0715 -1.5020 -1.8102
12368TIP3    H237062   2.096   0.765   4.609  0.6855  1.9624 -1.0550
12369TIP3   OH237063   3.801   0.317   1.306  0.6735  0.0690 -0.1884
12369TIP3    H137064   3.739   0.269   1.361  0.8459 -0.7905 -0.7392
12369TIP3    H237065   3.886   0.300   1.346  0.9936 -1.8182 -1.5581
12370TIP3   OH237066   3.950   0.178   6.693 -0.0942  1.2310 -0.3371
12370TIP3    H137067   3.942   0.189   6.598 -1.5199  0.2207 -0.3738
12370TIP3    H237068   3.934   0.266   6.728 -1.8661  1.2067 -0.9675
12371TIP3   OH237069   1.316   2.872   4.800 -0.1288  0.0349 -0.1005
12371TIP3    H137070   1.383   2.803   4.798  0.3490  0.5039 -0.6236
12371TIP3    H237071   1.245   2.838   4.745  0.6390  0.4673 -1.4227
12372TIP3   OH237072   6.863   4.356   4.272  0.7512  0.3775  0.3627
12372TIP3    H137073   6.856   4.321   4.183  0.9483 -1.1326  0.8997
12372TIP3    H237074   6.819   4.440   4.269 -1.1634 -0.5954 -0.6684
12373TIP3   OH237075   6.232   3.408   3.867  0.3336  0.3886 -0.5183
12373TIP3    H137076   6.222   3.461   3.947 -0.7566 -0.2275 -0.2265
12373TIP3    H237077   6.186   3.459   3.800  0.5504  0.5198 -0.5663
12374TIP3   OH237078   3.757   7.164   0.230 -0.2372 -0.0973 -0.1578
12374TIP3    H137079   3.758   7.253   0.194  0.9820  0.0589  0.2183
12374TIP3    H237080   3.742   7.107   0.154 -0.2792  0.3780 -0.5083
12375TIP3   OH237081   5.667   4.646   3.988 -0.0555 -0.1968 -0.5005
12375TIP3    H137082   5.681   4.556   3.959 -2.0189 -0.5998 -0.3341
12375TIP3    H237083   5.577   4.647   4.019  0.0737  1.7335 -0.0837
12376TIP3   OH237084   2.028   4.481   4.836 -0.5336  0.2084  0.3615
12376TIP3    H137085   2.047   4.390   4.812  0.5190  0.3270  0.7096
12376TIP3    H237086   1.965   4.510   4.769  0.0935 -0.3750 -0.5107
12377TIP3   OH237087   2.962   6.398   1.870 -0.5530  1.0392  0.1586
12377TIP3    H137088   3.019   6.357   1.805 -2.8743 -0.2874 -1.1974
12377TIP3    H237089   2.945   6.328   1.933 -0.9043  1.3200  0.3714
12378TIP3   OH237090   5.282   4.975   3.640  0.1735  0.2440 -0.2151
12378TIP3    H137091   5.334   5.038   3.690 -1.4918  2.5268 -1.1835
12378TIP3    H237092   5.347   4.918   3.599  1.6601 -0.4923  2.8694
12379TIP3   OH237093   1.059   5.571   1.483 -0.1376 -0.2060 -0.2392
12379TIP3    H137094   1.047   5.498   1.422 -0.4687 -0.4129  0.0755
12379TIP3    H237095   1.091   5.643   1.427  0.9571 -0.8138 -0.4138
12380TIP3   OH237096   0.542   7.227   2.120 -0.1643  0.2621  0.2835
12380TIP3    H137097   0.518   7.139   2.149 -3.2296  1.5825  2.2566
12380TIP3    H237098   0.467   7.257   2.069  1.4268  1.2772 -1.5931
12381TIP3   OH237099   6.212   4.252   6.156 -0.1558  0.4459 -0.3285
12381TIP3    H137100   6.297   4.231   6.193 -0.4970 -2.8489 -1.0865
12381TIP3    H237101   6.227   4.257   6.062 -0.8382 -0.7446 -0.5227
12382TIP3   OH237102   0.211   5.720   1.128 -0.3493  0.1615 -0.6918
12382TIP3    H137103   0.123   5.753   1.144  0.4342  1.4792  1.2216
12382TIP3    H237104   0.207   5.627   1.151 -1.0056  0.4365  0.3241
12383TIP3   OH237105   3.894   5.945   6.410  0.0474  0.1940 -0.1084
12383TIP3    H137106   3.846   6.008   6.464 -0.3197 -1.4692  1.5958
12383TIP3    H237107   3.986   5.965   6.425  0.0000 -0.9719  2.1686
12384TIP3   OH237108   1.894   5.441   4.090 -1.0277 -0.1547 -0.4583
12384TIP3    H137109   1.963   5.422   4.154 -0.5552 -0.2673 -0.9924
12384TIP3    H237110   1.848   5.517   4.125  0.0178  0.5613 -0.5923
12385TIP3   OH237111   7.287   6.866   6.234 -0.0246 -0.0120  0.8162
12385TIP3    H137112   7.285   6.911   6.318  0.7511  0.3506  0.6542
12385TIP3    H237113   7.371   6.892   6.195  0.1166 -1.0270  0.4046
12386TIP3   OH237114   0.588   0.172   0.050  0.7656 -0.0744 -0.2318
12386TIP3    H137115   0.582   0.105   0.118 -1.9545 -1.8825 -2.0755
12386TIP3    H237116   0.552   0.251   0.090  0.2956 -0.7812  0.7667
12387TIP3   OH237117   7.770   6.346   1.777  0.0627 -0.0732  0.3820
12387TIP3    H137118   7.688   6.358   1.728 -1.6059  2.5590  3.4430
12387TIP3    H237119   7.746   6.292   1.852  1.8784 -1.6621 -0.1029
12388TIP3   OH237120   4.640   7.720   3.807 -0.7337  0.4702 -0.2447
12388TIP3    H137121   4.576   7.696   3.740  0.4180  0.2354 -1.2900
12388TIP3    H237122   4.724   7.715   3.763  0.1343 -0.3938  1.4186
12389TIP3   OH237123   3.981   6.653   0.192 -0.2135  0.0687 -0.4815
12389TIP3    H137124   4.076   6.641   0.186  0.1481  2.0287  0.6453
12389TIP3    H237125   3.966   6.744   0.167 -1.8370 -0.2863 -0.8945
12390TIP3   OH237126   7.716   1.832   0.902 -0.7435 -0.1930 -0.1943
12390TIP3    H137127   7.659   1.904   0.928 -0.0617  0.4880 -0.5247
12390TIP3    H237128   7.737   1.787   0.983 -1.5047 -0.2689 -0.0353
12391TIP3   OH237129   7.904   4.275   1.712  0.9062 -0.3222 -0.4620
12391TIP3    H137130   7.934   4.355   1.670 -0.9368  0.7155  0.0763
12391TIP3    H237131   7.852   4.305   1.787 -0.5150 -1.9746 -0.7188
12392TIP3   OH237132   1.500   6.835   2.477 -0.0441  0.5787  0.2652
12392TIP3    H137133   1.468   6.777   2.546  0.7194 -0.7017 -0.4044
12392TIP3    H237134   1.476   6.923   2.505  1.5968  0.2601  2.9506
12393TIP3   OH237135   2.979   3.727   5.757 -0.4822 -0.0850 -0.5168
12393TIP3    H137136   2.949   3.683   5.837 -2.0459  1.8289  0.0106
12393TIP3    H237137   2.950   3.669   5.687 -0.1347 -1.2009  0.2123
12394TIP3   OH237138   4.343   3.416   6.145 -0.1103 -0.3335 -0.3919
12394TIP3    H137139   4.356   3.431   6.238 -0.1592  0.2273 -0.4699
12394TIP3    H237140   4.324   3.322   6.137  1.0809 -0.6235  0.0264
12395TIP3   OH237141   6.069   7.791   0.232 -0.4303 -0.1883  0.2411
12395TIP3    H137142   6.115   7.709   0.214  0.0017  0.1263 -0.1042
12395TIP3    H237143   5.976   7.770   0.219 -0.3091 -0.5815  0.0056
12396TIP3   OH237144   7.002   5.792   0.443  0.0901  0.4116 -0.3214
12396TIP3    H137145   7.091   5.822   0.428 -0.0820  1.0557 -0.0900
12396TIP3    H237146   6.977   5.832   0.527 -1.5138  2.8321 -1.8269
12397TIP3   OH237147   3.072   1.448   0.096 -1.0078 -0.2560  0.1610
12397TIP3    H137148   3.095   1.529   0.052  1.5696  0.1767  2.0558
12397TIP3    H237149   3.148   1.390   0.082 -2.8571 -2.5032 -1.3378
12398TIP3   OH237150   0.127   5.129   0.288  0.5216  0.3236 -0.5016
12398TIP3    H137151   0.214   5.097   0.267  0.8283 -0.0745  1.2719
12398TIP3    H237152   0.101   5.081   0.366 -0.9364  1.0585 -0.4948
12399TIP3   OH237153   6.590   2.747   3.477 -0.0782  0.2084  0.2113
12399TIP3    H137154   6.522   2.761   3.543  0.6157  0.5302  0.8710
12399TIP3    H237155   6.576   2.817   3.414 -0.8908 -0.2368 -0.1304
12400TIP3   OH237156   2.893   4.122   0.680  0.7755  0.6211 -0.1251
12400TIP3    H137157   2.946   4.201   0.690  0.1640  1.0201  0.0236
12400TIP3    H237158   2.932   4.076   0.606  0.9497  1.2203 -0.4135
12401TIP3   OH237159   7.531   7.114   4.201 -0.1670  0.2471  0.4888
12401TIP3    H137160   7.556   7.159   4.283  0.6195 -1.8316  1.4635
12401TIP3    H237161   7.504   7.185   4.143  0.0125  1.8865  2.2740
12402TIP3   OH237162   4.656   1.479   1.713  0.1019  0.1022 -0.6748
12402TIP3    H137163   4.571   1.439   1.693  0.1262  0.0676 -0.7077
12402TIP3    H237164   4.642   1.526   1.795  0.1014 -0.0563 -0.5836
12403TIP3   OH237165   5.042   6.366   5.344 -0.1708 -0.2718 -0.4303
12403TIP3    H137166   5.126   6.373   5.299  0.0225  0.2179 -0.0056
12403TIP3    H237167   4.999   6.291   5.303  0.2813 -0.2463 -0.9622
12404TIP3   OH237168   0.082   6.750   1.633 -0.1202  0.7856  0.0166
12404TIP3    H137169   0.090   6.780   1.542  0.5159 -0.6273 -0.4259
12404TIP3    H237170   0.037   6.666   1.626  3.2830 -1.2600  0.5586
12405TIP3   OH237171   6.999   6.277   0.160  0.7676  0.5083 -0.0096
12405TIP3    H137172   7.005   6.193   0.204  1.6157  1.5911  2.0740
12405TIP3    H237173   6.954   6.334   0.222 -0.0084  1.5495 -1.4657
12406TIP3   OH237174   0.124   5.210   0.930 -0.4638 -0.8446  0.7477
12406TIP3    H137175   0.070   5.289   0.934  0.6881 -0.0125  0.5437
12406TIP3    H237176   0.145   5.199   0.838 -1.0411 -1.7041  0.7086
12407TIP3   OH237177   1.654   7.392   3.652 -0.0472 -0.7646  0.1821
12407TIP3    H137178   1.573   7.394   3.601 -0.6552 -1.9009  1.0399
12407TIP3    H237179   1.688   7.481   3.647 -1.8057 -0.0213  0.5121
12408TIP3   OH237180   0.967   0.574   2.406 -0.6040 -0.0806 -0.6171
12408TIP3    H137181   0.897   0.509   2.416  1.1730 -1.7496  2.2236
12408TIP3    H237182   0.968   0.620   2.490  1.9425 -0.4039 -0.4169
12409TIP3   OH237183   5.588   2.867   0.651 -0.9245  0.0024  0.1906
12409TIP3    H137184   5.616   2.934   0.713 -0.0754  0.0755 -0.2448
12409TIP3    H237185   5.521   2.909   0.598  0.2833  0.8563 -0.7131
12410TIP3   OH237186   8.240   2.180   4.849  0.0307 -0.1425 -0.3325
12410TIP3    H137187   8.186   2.215   4.920 -0.0967  2.0829 -1.4239
12410TIP3    H237188   8.327   2.172   4.886 -0.6644 -2.3194  1.0105
12411TIP3   OH237189   3.858   7.803   4.939 -0.2887 -0.2133 -0.2130
12411TIP3    H137190   3.832   7.826   4.850 -0.1589 -0.8172 -0.4075
12411TIP3    H237191   3.877   7.710   4.936 -2.1493 -0.6952  0.8720
12412TIP3   OH237192   1.153   4.545   1.371 -0.2597  0.1196  0.5732
12412TIP3    H137193   1.247   4.539   1.388 -0.4135 -0.0227  1.4011
12412TIP3    H237194   1.138   4.485   1.298 -0.2280 -2.4779  2.5641
12413TIP3   OH237195   1.027   7.478   3.293  0.3257 -0.0831  0.2968
12413TIP3    H137196   0.963   7.525   3.240  0.4926 -0.9204 -0.6912
12413TIP3    H237197   0.975   7.434   3.361  0.2421  2.0794  1.7204
12414TIP3   OH237198   3.201   0.551   4.403  0.4454  0.3386  0.6910
12414TIP3    H137199   3.296   0.561   4.395  0.3823  0.2587 -0.2558
12414TIP3    H237200   3.166   0.637   4.381  0.2665  0.1430  0.1847
12415TIP3   OH237201   0.961   1.593   2.108 -0.2367  0.6896  0.5651
12415TIP3    H137202   0.975   1.607   2.014  1.0468  0.4757  0.7128
12415TIP3    H237203   0.981   1.500   2.122  0.2331  0.8712  1.1574
12416TIP3   OH237204   5.459   7.771   2.766 -0.3855 -0.1368 -0.6549
12416TIP3    H137205   5.524   7.832   2.803 -1.9221  0.6081  0.9713
12416TIP3    H237206   5.476   7.688   2.811 -0.4952  0.0283 -0.3077
12417TIP3   OH237207   7.618   7.127   3.188  0.3188  0.4444  0.3408
12417TIP3    H137208   7.661   7.179   3.257 -1.3583 -1.0521  2.6370
12417TIP3    H237209   7.529   7.114   3.220 -0.0050 -1.8107 -1.2801
12418TIP3   OH237210   7.593   1.051   5.661  0.1588  0.1039  0.2194
12418TIP3    H137211   7.680   1.085   5.640  0.7445 -1.2882  0.2664
12418TIP3    H237212   7.597   1.032   5.755  0.6242 -2.0861 -0.1853
12419TIP3   OH237213   2.724   0.342   3.372  0.0741  0.0998  0.3508
12419TIP3    H137214   2.743   0.309   3.460 -0.9730 -0.3666  0.4183
12419TIP3    H237215   2.631   0.323   3.359 -0.1975  1.6346 -0.2152
12420TIP3   OH237216   1.882   0.105   3.411 -0.0625  0.0096  0.4524
12420TIP3    H137217   1.886   0.164   3.487 -2.1587 -1.0439  1.4572
12420TIP3    H237218   1.822   0.036   3.438  1.1573 -1.7927 -1.2599
12421TIP3   OH237219   2.872   3.491   6.594 -0.2288  0.1318 -0.1590
12421TIP3    H137220   2.942   3.549   6.623  0.0703 -1.1591  1.8897
12421TIP3    H237221   2.904   3.455   6.511  1.1361  0.2373  0.2935
12422TIP3   OH237222   4.222   1.032   0.886  0.3115 -0.2444  0.0880
12422TIP3    H137223   4.256   0.955   0.840  0.8566 -1.4032  2.3153
12422TIP3    H237224   4.129   1.015   0.896  0.7551 -1.7644  2.4783
12423TIP3   OH237225   6.903   3.859   5.971 -0.0023  0.0606 -0.5119
12423TIP3    H137226   6.926   3.934   6.026  1.2643 -1.2097  0.7768
12423TIP3    H237227   6.842   3.808   6.024 -0.0964 -0.3271 -0.9843
12424TIP3   OH237228   2.752   2.060   3.212 -0.1989 -0.0966  0.1067
12424TIP3    H137229   2.831   2.110   3.231 -1.1361  1.1222  0.9696
12424TIP3    H237230   2.778   1.969   3.223  1.3908  0.2086 -0.8694
12425TIP3   OH237231   0.101   7.502   1.170 -0.6171 -0.8121  0.3700
12425TIP3    H137232   0.145   7.578   1.133 -0.3740 -0.6972  0.8948
12425TIP3    H237233   0.016   7.499   1.124 -0.2224 -0.8249 -0.3786
12426TIP3   OH237234   7.818   1.066   3.225  1.0022  0.4489 -0.7384
12426TIP3    H137235   7.731   1.048   3.260  1.2417 -0.4692 -0.5824
12426TIP3    H237236   7.823   1.162   3.222  0.5200  0.5504  0.6270
12427TIP3   OH237237   7.212   3.623   6.363 -0.3855 -0.1886 -0.0691
12427TIP3    H137238   7.298   3.660   6.382  0.5241 -1.5084 -1.3464
12427TIP3    H237239   7.202   3.552   6.427  0.4850 -1.4413 -1.2667
12428TIP3   OH237240   6.633   4.677   4.885 -0.8463  0.5270 -0.0571
12428TIP3    H137241   6.623   4.594   4.839  1.9093 -0.0259  0.1277
12428TIP3    H237242   6.615   4.655   4.977 -0.6905  0.2694 -0.0864
12429TIP3   OH237243   5.721   3.041   0.829  0.2184  0.2538  0.4168
12429TIP3    H137244   5.729   3.001   0.916 -0.3527  0.0862  0.3961
12429TIP3    H237245   5.629   3.068   0.823  0.3620  0.6783  0.0412
12430TIP3   OH237246   6.373   7.565   1.991 -0.4682  0.2948  0.4612
12430TIP3    H137247   6.389   7.633   1.925 -2.0704  1.4846  1.2308
12430TIP3    H237248   6.359   7.485   1.940 -3.1934  1.4810 -0.8206
12431TIP3   OH237249   7.365   1.947   0.281 -0.1430  0.5268 -0.5965
12431TIP3    H137250   7.353   1.852   0.281  1.2050  0.3258 -1.3455
12431TIP3    H237251   7.349   1.974   0.372 -0.5549 -0.4043 -0.3832
12432TIP3   OH237252   6.263   2.189   2.407  0.0015  0.5262  0.0526
12432TIP3    H137253   6.267   2.285   2.407  1.6031  0.4837  0.7033
12432TIP3    H237254   6.198   2.169   2.475 -1.4582  1.1381 -1.0993
12433TIP3   OH237255   5.738   5.652   3.698 -0.0826  0.2105 -0.1581
12433TIP3    H137256   5.832   5.644   3.711 -0.2552 -2.0633  0.0666
12433TIP3    H237257   5.722   5.747   3.697  2.4210  0.7229 -2.0043
12434TIP3   OH237258   2.856   7.616   2.266 -0.0767 -0.0797  0.3671
12434TIP3    H137259   2.784   7.582   2.213  0.1502 -0.4802  0.3137
12434TIP3    H237260   2.932   7.616   2.208  0.4505 -1.6184  1.0049
12435TIP3   OH237261   7.549   6.041   3.819  0.0115 -0.2556 -0.4190
12435TIP3    H137262   7.617   6.062   3.883 -0.1185 -0.9448 -0.0446
12435TIP3    H237263   7.467   6.045   3.869 -0.1709  0.0224 -0.7375
12436TIP3   OH237264   2.101   4.884   6.522  0.7803  0.2199 -0.4112
12436TIP3    H137265   2.023   4.897   6.469  1.3429  0.6704 -1.1471
12436TIP3    H237266   2.107   4.789   6.532 -0.0338  0.1961 -0.0741
12437TIP3   OH237267   1.371   3.537   5.102  0.1020 -0.5866 -0.1279
12437TIP3    H137268   1.356   3.491   5.020  1.2698  0.3809 -0.9048
12437TIP3    H237269   1.307   3.499   5.162  0.2388 -2.3789 -1.0451
12438TIP3   OH237270   1.210   6.753   1.243 -0.1323 -0.2528  0.0453
12438TIP3    H137271   1.278   6.792   1.298 -0.8760  1.1406  0.0057
12438TIP3    H237272   1.136   6.740   1.303 -0.3266 -0.4162 -0.2299
12439TIP3   OH237273   1.196   1.479   3.478 -0.8799 -0.0218 -0.1481
12439TIP3    H137274   1.234   1.557   3.519 -1.6051 -0.2942  1.0878
12439TIP3    H237275   1.180   1.506   3.387  0.1123  0.8264 -0.1031
12440TIP3   OH237276   1.456   6.035   2.987 -0.3811 -0.2493  0.2431
12440TIP3    H137277   1.442   5.960   2.929 -1.5820  0.5434 -0.5578
12440TIP3    H237278   1.368   6.065   3.009  0.0446  1.6562 -0.4474
12441TIP3   OH237279   0.786   5.504   3.140 -0.0264 -0.3214  0.5441
12441TIP3    H137280   0.774   5.546   3.055  3.7430  0.1148  0.0494
12441TIP3    H237281   0.727   5.551   3.199 -1.8755  0.1392 -1.5411
12442TIP3   OH237282   4.574   7.290   6.346 -0.6433 -0.0636 -0.1859
12442TIP3    H137283   4.605   7.380   6.350 -0.5131 -0.1440  1.7216
12442TIP3    H237284   4.603   7.251   6.429 -2.4376 -1.2773 -0.0669
12443TIP3   OH237285   5.642   6.106   4.773  0.3663  0.2390  0.0098
12443TIP3    H137286   5.716   6.151   4.732 -0.1812  1.9070  0.7529
12443TIP3    H237287   5.578   6.095   4.703  1.3787 -1.4817 -0.7097
12444TIP3   OH237288   3.177   3.430   4.724  0.0562  0.1558 -0.5771
12444TIP3    H137289   3.173   3.507   4.780  0.6691 -0.3070  0.1041
12444TIP3    H237290   3.270   3.414   4.712 -0.0577 -0.9940 -0.0019
12445TIP3   OH237291   4.758   7.106   2.024 -0.3112  0.1165 -0.0612
12445TIP3    H137292   4.755   7.091   1.930  0.3157 -0.0111 -0.0643
12445TIP3    H237293   4.668   7.094   2.054 -0.4130 -0.3634 -0.5636
12446TIP3   OH237294   0.156   6.575   1.225 -0.1199  0.5654 -0.0903
12446TIP3    H137295   0.132   6.554   1.134  0.6195 -2.0609  0.2154
12446TIP3    H237296   0.192   6.663   1.221 -0.0736  0.5052 -2.3656
12447TIP3   OH237297   0.922   6.858   4.189  0.2177 -0.5401  0.1580
12447TIP3    H137298   0.830   6.834   4.198  0.6736 -3.1442 -1.0462
12447TIP3    H237299   0.926   6.906   4.106 -0.0362 -0.6385  0.0860
12448TIP3   OH237300   1.336   0.534   3.663 -0.0325  0.3278 -0.1805
12448TIP3    H137301   1.422   0.493   3.655  0.1047  0.4646  0.5902
12448TIP3    H237302   1.285   0.496   3.591 -0.5519 -2.7209  1.6492
12449TIP3   OH237303   1.927   2.063   6.650 -0.3402  0.2493  0.1930
12449TIP3    H137304   1.866   1.992   6.667  1.0936 -0.6875  1.8004
12449TIP3    H237305   1.953   2.051   6.558  0.3442 -1.7446  0.5873
12450TIP3   OH237306   2.703   3.810   0.490 -0.5612  0.0365 -0.0944
12450TIP3    H137307   2.771   3.774   0.545 -0.2159  0.3269 -0.3282
12450TIP3    H237308   2.665   3.734   0.446 -2.0113 -0.4214  1.8074
12451TIP3   OH237309   5.522   3.051   3.823 -0.4599 -0.5825  0.2748
12451TIP3    H137310   5.580   3.125   3.839 -0.1417 -0.7551 -0.0508
12451TIP3    H237311   5.580   2.975   3.825 -0.2590 -0.5914 -2.1960
12452TIP3   OH237312   8.058   6.137   4.013 -0.6567 -0.2862 -0.1185
12452TIP3    H137313   8.087   6.068   4.073 -1.7819 -0.7231 -0.0604
12452TIP3    H237314   8.131   6.200   4.012 -0.7168 -0.1306  1.8917
12453TIP3   OH237315   5.050   6.634   6.401  0.7878  0.0900 -0.2774
12453TIP3    H137316   5.003   6.576   6.341 -0.6263  1.0146 -0.1047
12453TIP3    H237317   5.116   6.675   6.346  0.0398  0.3196 -1.0286
12454TIP3   OH237318   1.581   5.550   4.732 -0.1041 -0.3686  0.4148
12454TIP3    H137319   1.494   5.515   4.753  0.5330 -1.4465  1.3603
12454TIP3    H237320   1.580   5.559   4.637 -1.8285  1.2610  0.5396
12455TIP3   OH237321   8.254   7.816   2.322  0.2528  0.0341  0.3088
12455TIP3    H137322   8.292   7.760   2.390 -0.1569 -0.3612  0.2114
12455TIP3    H237323   8.203   7.757   2.267 -0.4618  0.5584  0.4020
12456TIP3   OH237324   2.606   0.231   4.317  0.7065  0.4849 -0.1605
12456TIP3    H137325   2.590   0.299   4.251 -2.9219  0.1712  0.2006
12456TIP3    H237326   2.570   0.151   4.279 -1.1756  0.2244  1.9496
12457TIP3   OH237327   4.864   7.750   0.072  0.3545  0.3128 -0.1782
12457TIP3    H137328   4.891   7.829   0.026  2.4067  0.4720  1.1881
12457TIP3    H237329   4.876   7.679   0.008  0.6899  0.8302 -0.6954
12458TIP3   OH237330   2.074   1.896   0.546 -0.3267  0.0581  0.0988
12458TIP3    H137331   2.117   1.829   0.600  0.4574  0.1653 -0.3819
12458TIP3    H237332   2.136   1.969   0.543  0.4198 -0.5802 -2.2956
12459TIP3   OH237333   0.846   4.361   3.076 -0.3412 -0.0321  0.2023
12459TIP3    H137334   0.798   4.439   3.104 -2.1129 -0.6801 -0.8087
12459TIP3    H237335   0.796   4.288   3.112  1.2626 -0.7452  1.0890
12460TIP3   OH237336   3.821   5.575   3.590  0.3877 -0.0190 -0.0435
12460TIP3    H137337   3.879   5.551   3.519  0.6620  0.8230 -0.1154
12460TIP3    H237338   3.876   5.624   3.652 -0.0466  0.0510  0.3005
12461TIP3   OH237339   5.900   0.688   2.590 -0.1298  0.6454  0.0342
12461TIP3    H137340   5.957   0.678   2.667 -1.6796  0.2138  1.1769
12461TIP3    H237341   5.822   0.638   2.612 -0.0438 -0.7305 -2.4860
12462TIP3   OH237342   5.771   3.546   0.927 -0.1930  0.5367  0.3910
12462TIP3    H137343   5.823   3.548   0.847 -1.0393 -0.2835 -0.2069
12462TIP3    H237344   5.832   3.519   0.995  0.4835  1.0085 -0.0131
12463TIP3   OH237345   7.639   0.789   6.242  0.0275  0.1682 -0.0400
12463TIP3    H137346   7.626   0.707   6.195 -1.5237  1.4038 -1.9820
12463TIP3    H237347   7.725   0.821   6.212  0.0388 -0.1217 -0.3173
12464TIP3   OH237348   4.204   1.745   2.494 -0.2535 -0.2397 -0.2418
12464TIP3    H137349   4.204   1.674   2.430 -1.2165 -1.7870  1.3786
12464TIP3    H237350   4.120   1.735   2.540  0.5660  0.5507  1.5053
12465TIP3   OH237351   7.794   7.363   3.664 -0.0111 -0.0340 -0.0405
12465TIP3    H137352   7.867   7.425   3.665  0.1924 -0.0319 -3.4074
12465TIP3    H237353   7.830   7.284   3.705  0.5779  1.1719  1.8750
12466TIP3   OH237354   6.889   3.747   4.381 -0.2336  0.0405  0.4121
12466TIP3    H137355   6.882   3.655   4.354 -1.8158  0.6066 -1.2604
12466TIP3    H237356   6.983   3.765   4.379  0.1379 -1.5958  1.0690
12467TIP3   OH237357   6.513   3.109   2.528  0.1262  0.3478 -0.4065
12467TIP3    H137358   6.588   3.061   2.564  0.0481  1.0361  0.7063
12467TIP3    H237359   6.479   3.051   2.460  1.2540 -0.2796 -0.4659
12468TIP3   OH237360   1.413   2.770   1.125 -0.1353 -0.1002  0.3827
12468TIP3    H137361   1.458   2.729   1.052 -0.1159 -0.0573  0.3701
12468TIP3    H237362   1.478   2.830   1.162  0.3464 -1.1781  1.3408
12469TIP3   OH237363   1.209   7.071   0.249 -0.5347  0.4833 -0.3245
12469TIP3    H137364   1.177   6.987   0.217  0.5320 -0.0150 -0.1186
12469TIP3    H237365   1.290   7.086   0.200 -0.8984  1.5743 -0.6257
12470TIP3   OH237366   2.020   1.919   4.797 -0.0574 -0.2137  0.6824
12470TIP3    H137367   2.068   1.890   4.875  1.1724  0.9980  0.4123
12470TIP3    H237368   2.067   1.881   4.724 -1.3901 -1.5952  0.5097
12471TIP3   OH237369   3.744   4.158   6.686  0.1014 -0.5274  0.3843
12471TIP3    H137370   3.795   4.236   6.663 -0.7713  0.4334  1.5473
12471TIP3    H237371   3.682   4.147   6.614  0.4241 -0.3093  0.0761
12472TIP3   OH237372   6.199   7.795   5.750  0.3028 -0.2417 -0.3111
12472TIP3    H137373   6.154   7.799   5.835  0.4879  0.5976 -0.2393
12472TIP3    H237374   6.249   7.877   5.746  0.7145 -0.5223 -1.0002
12473TIP3   OH237375   5.834   4.751   0.081 -0.5209  0.3709  0.9316
12473TIP3    H137376   5.923   4.758   0.048 -1.6966  1.0492 -2.4352
12473TIP3    H237377   5.799   4.840   0.075 -1.6081  0.0203  1.7255
12474TIP3   OH237378   3.858   4.214   5.360  0.6063  0.7702 -0.1383
12474TIP3    H137379   3.896   4.219   5.273 -0.9551  0.6407 -0.8499
12474TIP3    H237380   3.918   4.157   5.409  0.7090 -0.3676 -1.5495
12475TIP3   OH237381   2.844   0.889   3.534  0.2720 -0.2791  0.1046
12475TIP3    H137382   2.758   0.929   3.526 -0.0540  0.2647  4.0593
12475TIP3    H237383   2.905   0.962   3.522 -0.0249  0.0631  0.5897
12476TIP3   OH237384   2.722   6.851   2.478 -0.3490 -0.0197 -0.1809
12476TIP3    H137385   2.637   6.871   2.441 -1.6317 -1.8220  1.5710
12476TIP3    H237386   2.767   6.801   2.410 -1.7325 -1.2665 -0.2144
12477TIP3   OH237387   0.980   2.383   4.893  0.0581 -0.2166 -0.1530
12477TIP3    H137388   0.972   2.464   4.942  0.7877 -0.5067  0.4814
12477TIP3    H237389   1.070   2.384   4.860  0.4184 -1.2310  0.7392
12478TIP3   OH237390   8.233   4.786   0.643 -0.0744 -0.0198 -0.6579
12478TIP3    H137391   8.156   4.750   0.600 -0.9753 -0.0831  0.9086
12478TIP3    H237392   8.199   4.826   0.723  1.4085  0.7927 -0.3902
12479TIP3   OH237393   6.241   7.459   5.338 -0.3043  0.2369  0.0713
12479TIP3    H137394   6.182   7.417   5.275  0.6951  1.1648 -1.5334
12479TIP3    H237395   6.184   7.483   5.411 -1.4283 -1.1867 -0.2915
12480TIP3   OH237396   4.173   6.048   3.149 -0.4753 -0.1890 -0.1118
12480TIP3    H137397   4.115   5.990   3.100 -1.1756  0.1628  0.2813
12480TIP3    H237398   4.182   6.007   3.235 -0.9664  0.2572  0.1648
12481TIP3   OH237399   8.244   5.823   6.031 -0.2129  0.6414  0.3735
12481TIP3    H137400   8.306   5.855   6.096  0.1403 -0.4703  0.5872
12481TIP3    H237401   8.176   5.779   6.082  0.0344 -0.1839 -0.0077
12482TIP3   OH237402   3.911   1.863   6.571  0.2627  0.2329  0.5652
12482TIP3    H137403   3.980   1.797   6.572 -1.2407 -1.4141  2.1077
12482TIP3    H237404   3.954   1.943   6.602  1.5436 -0.6898  1.2436
12483TIP3   OH237405   4.471   5.300   5.010 -0.3860  0.2708  0.4787
12483TIP3    H137406   4.505   5.256   4.932 -0.0271 -2.2966  1.9462
12483TIP3    H237407   4.549   5.338   5.052 -0.6632  2.2266 -0.6620
12484TIP3   OH237408   2.114   1.075   0.154  0.3596 -0.5465  0.0950
12484TIP3    H137409   2.067   1.150   0.189 -0.2746 -1.2909  0.8622
12484TIP3    H237410   2.189   1.114   0.107  0.2780  0.5348  0.8310
12485TIP3   OH237411   1.123   2.214   5.329  0.1701 -0.1890 -0.2977
12485TIP3    H137412   1.103   2.296   5.284 -2.3403 -1.7219 -2.2658
12485TIP3    H237413   1.140   2.240   5.420  0.6886  2.5784 -1.0782
12486TIP3   OH237414   0.211   3.647   3.351  0.0917  0.3145  0.0895
12486TIP3    H137415   0.156   3.569   3.345  0.5490  0.0172 -0.3787
12486TIP3    H237416   0.279   3.633   3.285  0.4096  0.9278  0.2793
12487TIP3   OH237417   5.552   0.592   3.977 -0.4446 -0.6100 -0.5049
12487TIP3    H137418   5.628   0.617   3.925 -0.2398  1.1505  0.5444
12487TIP3    H237419   5.511   0.521   3.928  2.9013 -2.9874 -0.2178
12488TIP3   OH237420   0.441   0.415   4.921  0.2485  0.7043  0.1940
12488TIP3    H137421   0.398   0.497   4.944  0.1834  0.6052  0.4413
12488TIP3    H237422   0.427   0.359   4.998 -1.0771 -0.0826 -0.5709
12489TIP3   OH237423   4.431   3.169   6.409  0.1221  0.0164  0.1731
12489TIP3    H137424   4.497   3.143   6.473 -0.1335  0.9081  0.8204
12489TIP3    H237425   4.368   3.098   6.410 -0.7968  0.7748  2.2415
12490TIP3   OH237426   6.379   4.273   0.082 -0.6948 -0.6289 -0.2391
12490TIP3    H137427   6.409   4.289  -0.007  0.0699  0.5694  0.2060
12490TIP3    H237428   6.288   4.244   0.073 -1.0776  0.8384 -1.3184
12491TIP3   OH237429   5.772   5.938   1.193  0.3811 -0.8312 -0.1377
12491TIP3    H137430   5.752   5.872   1.126 -0.3284  1.0457 -1.8610
12491TIP3    H237431   5.865   5.956   1.182  0.8380 -2.2401  1.0584
12492TIP3   OH237432   4.656   7.601   0.710  0.3197 -0.1834 -0.2073
12492TIP3    H137433   4.705   7.560   0.781 -0.9861 -0.6530  0.4636
12492TIP3    H237434   4.583   7.646   0.754 -0.0215  0.2516 -1.1852
12493TIP3   OH237435   3.062   2.903   3.141  0.8307 -0.7417  0.0356
12493TIP3    H137436   3.050   2.845   3.217  0.4318 -0.1513  0.4329
12493TIP3    H237437   2.987   2.963   3.145  1.4124  0.0118 -0.1760
12494TIP3   OH237438   3.960   6.516   0.605 -0.1292 -0.4874 -0.0363
12494TIP3    H137439   4.013   6.537   0.528 -2.0433  0.6444 -1.1080
12494TIP3    H237440   3.898   6.450   0.575 -0.9129 -0.0183  0.5180
12495TIP3   OH237441   7.585   1.314   5.192  0.3684  0.1627  0.2844
12495TIP3    H137442   7.572   1.323   5.098  1.3257  0.4209  0.1711
12495TIP3    H237443   7.529   1.240   5.216  0.1629  0.0517 -0.4923
12496TIP3   OH237444   1.562   4.174   6.139 -0.1162  0.1947 -0.5108
12496TIP3    H137445   1.597   4.142   6.222  1.6019  1.3776 -0.7400
12496TIP3    H237446   1.473   4.205   6.161 -0.4826 -1.4107  0.4125
12497TIP3   OH237447   3.244   1.093   2.022 -0.2764 -0.4299 -0.3444
12497TIP3    H137448   3.336   1.075   2.039 -0.3902 -2.8448 -1.7134
12497TIP3    H237449   3.241   1.121   1.931 -1.0286 -2.6451 -1.0776
12498TIP3   OH237450   1.378   6.083   6.652 -0.2142 -0.3368  0.5341
12498TIP3    H137451   1.440   6.097   6.724  1.5783  0.7423 -1.1486
12498TIP3    H237452   1.310   6.027   6.691  1.2833 -0.7779  2.7335
12499TIP3   OH237453   7.653   3.071   5.177 -0.0740  0.0263 -0.1003
12499TIP3    H137454   7.678   3.089   5.086  0.4100 -1.2404 -0.2378
12499TIP3    H237455   7.603   3.148   5.204 -0.7922  0.1472 -1.6538
12500TIP3   OH237456   4.760   6.847   1.471  0.3825  0.8136  0.4830
12500TIP3    H137457   4.853   6.855   1.490  0.8665 -2.4580  0.2327
12500TIP3    H237458   4.745   6.907   1.398  2.6879  0.3259 -0.4827
12501TIP3   OH237459   4.472   5.595   4.967  0.0471  0.3441  0.0512
12501TIP3    H137460   4.430   5.605   4.881 -1.4624  0.2919  0.7521
12501TIP3    H237461   4.445   5.509   4.998  0.5337  0.3852  0.6117
12502TIP3   OH237462   3.930   3.872   5.167 -0.4482 -0.5710  0.6152
12502TIP3    H137463   3.900   3.893   5.079 -0.2274 -1.4150  0.3289
12502TIP3    H237464   3.967   3.784   5.160 -1.3288 -1.0599  1.7546
12503TIP3   OH237465   6.467   3.361   1.046 -0.3651  0.0467  0.1457
12503TIP3    H137466   6.544   3.322   1.005 -0.3766 -0.3650  0.5076
12503TIP3    H237467   6.453   3.308   1.125  0.0028  1.1962  1.0016
12504TIP3   OH237468   2.693   6.729   0.938 -0.0338  0.4820  0.2270
12504TIP3    H137469   2.770   6.722   0.994  0.0847 -0.2358 -0.0084
12504TIP3    H237470   2.620   6.743   0.998  0.0559 -0.5174  0.5952
12505TIP3   OH237471   3.117   7.518   6.181  0.3173 -0.0791 -0.6614
12505TIP3    H137472   3.177   7.495   6.110  1.1521  0.7929 -0.2562
12505TIP3    H237473   3.148   7.603   6.212  0.4008 -0.7431  1.1957
12506TIP3   OH237474   7.588   7.083   4.803  0.5017  0.2088 -0.2693
12506TIP3    H137475   7.680   7.109   4.799  0.3557  0.6926 -0.5413
12506TIP3    H237476   7.541   7.163   4.831  0.1454  0.0117 -0.2941
12507TIP3   OH237477   4.941   1.920   3.111  0.3248 -0.1446  0.2103
12507TIP3    H137478   4.925   1.953   3.023  1.0696  0.1842  0.1933
12507TIP3    H237479   4.989   1.839   3.099 -0.2430 -0.4999  0.2973
12508TIP3   OH237480   1.084   7.140   4.616  0.4627  0.2711 -0.2769
12508TIP3    H137481   1.176   7.164   4.611  0.3657  0.5361 -0.9537
12508TIP3    H237482   1.037   7.223   4.602  0.1285 -0.1394 -1.7847
12509TIP3   OH237483   1.517   7.374   4.870  0.1818 -0.2554 -0.6504
12509TIP3    H137484   1.438   7.390   4.817  0.3760 -0.4142 -0.9916
12509TIP3    H237485   1.540   7.460   4.905  0.2506 -0.0827 -1.1096
12510TIP3   OH237486   3.760   7.088   0.924 -0.5524  0.6972  0.8732
12510TIP3    H137487   3.725   7.004   0.954 -1.2167  0.6126 -0.0921
12510TIP3    H237488   3.683   7.144   0.915 -0.6205  0.2570 -2.1013
12511TIP3   OH237489   4.024   1.195   4.504 -0.3726 -0.3163  0.3135
12511TIP3    H137490   4.107   1.240   4.488  0.1293 -1.2437  0.2069
12511TIP3    H237491   3.986   1.183   4.417 -0.8606  0.5462  0.4042
12512TIP3   OH237492   7.714   5.544   1.437 -0.1217  0.9447  0.3025
12512TIP3    H137493   7.728   5.511   1.526  1.4098 -0.7939 -0.5232
12512TIP3    H237494   7.777   5.496   1.383  0.0619  3.0626 -1.5093
12513TIP3   OH237495   4.972   1.207   3.888 -0.3994 -0.4181  0.0707
12513TIP3    H137496   4.897   1.208   3.829 -0.6567 -2.1556  0.3141
12513TIP3    H237497   5.045   1.237   3.835 -1.1370  0.7755 -0.3191
12514TIP3   OH237498   1.428   4.202   5.822  0.2508  0.0887 -0.3580
12514TIP3    H137499   1.427   4.164   5.734  1.3940  0.8791 -0.7328
12514TIP3    H237500   1.337   4.198   5.851 -0.0637 -0.6007 -1.3858
12515TIP3   OH237501   5.437   3.948   2.333  0.3994 -0.3734  0.1826
12515TIP3    H137502   5.420   3.891   2.258 -1.9613  1.0271 -0.4413
12515TIP3    H237503   5.355   3.946   2.383  1.5233 -0.3296  2.1058
12516TIP3   OH237504   2.037   7.325   2.425  0.1094  0.6684  0.4088
12516TIP3    H137505   2.102   7.271   2.469  0.2194  0.5639  0.1240
12516TIP3    H237506   2.042   7.410   2.469 -1.9285 -0.2696  2.6748
12517TIP3   OH237507   0.329   6.770   5.435 -0.1863  0.2602 -0.1572
12517TIP3    H137508   0.311   6.826   5.511 -1.7516 -0.0288 -0.2726
12517TIP3    H237509   0.316   6.827   5.360 -0.2040  0.1458 -0.2411
12518TIP3   OH237510   1.405   4.337   6.418 -0.0330  0.3055  0.2315
12518TIP3    H137511   1.414   4.255   6.467 -0.2788 -0.1084 -0.4109
12518TIP3    H237512   1.352   4.393   6.476  0.2212  0.0525  0.7168
12519TIP3   OH237513   0.328   1.221   5.263 -0.1661  0.4598  0.4894
12519TIP3    H137514   0.380   1.236   5.184  0.2836 -1.1254  0.4525
12519TIP3    H237515   0.337   1.302   5.314  3.7300 -0.2666  1.2646
12520TIP3   OH237516   4.370   5.681   0.623  0.2857  0.6105 -0.0400
12520TIP3    H137517   4.455   5.641   0.640  0.0802  0.5640  0.9459
12520TIP3    H237518   4.351   5.658   0.532 -0.1656 -2.2583  0.6542
12521TIP3   OH237519   5.619   4.946   2.097  0.5372 -0.8226 -0.0587
12521TIP3    H137520   5.682   4.933   2.026  0.6864  0.1240 -0.1167
12521TIP3    H237521   5.540   4.978   2.053  0.9285  0.6642  0.2627
12522TIP3   OH237522   4.933   7.782   2.776  0.2350  0.2712  0.0683
12522TIP3    H137523   4.859   7.832   2.809  0.4255  0.3502  0.3737
12522TIP3    H237524   4.893   7.713   2.723 -0.0374  0.5879 -0.1451
12523TIP3   OH237525   2.876   3.636   2.096 -0.1674  0.3036  0.1584
12523TIP3    H137526   2.840   3.547   2.103  0.5540  0.0101  0.2606
12523TIP3    H237527   2.858   3.661   2.006 -1.9348  0.7592  0.5927
12524TIP3   OH237528   0.418   4.062   2.573 -0.2084 -0.2783 -0.1477
12524TIP3    H137529   0.431   4.149   2.611  0.3919 -0.5465  0.2859
12524TIP3    H237530   0.325   4.059   2.550  0.3748  1.7646 -3.4688
12525TIP3   OH237531   6.043   2.247   0.835  0.7488 -0.3176 -0.0231
12525TIP3    H137532   5.954   2.279   0.855  0.6371  0.4315 -1.5529
12525TIP3    H237533   6.073   2.305   0.765  2.4586 -0.5750  0.4691
12526TIP3   OH237534   2.038   2.962   2.602  0.1067  0.2002 -0.1803
12526TIP3    H137535   1.972   2.970   2.534 -1.9881 -2.2635  1.3558
12526TIP3    H237536   2.069   2.872   2.595 -1.1961 -0.6110  2.8490
12527TIP3   OH237537   1.656   5.517   2.584 -0.2450  0.0423 -0.0664
12527TIP3    H137538   1.625   5.434   2.619  0.5212 -0.8048 -1.3028
12527TIP3    H237539   1.717   5.550   2.650 -3.4099  1.6378  2.2964
12528TIP3   OH237540   7.194   3.268   5.464 -0.2955  0.4621 -0.2627
12528TIP3    H137541   7.176   3.349   5.416 -1.2109  0.9595  0.8716
12528TIP3    H237542   7.238   3.297   5.544  1.2154 -0.3555 -0.7459
12529TIP3   OH237543   3.348   4.354   2.039  0.3165 -0.1381 -0.3430
12529TIP3    H137544   3.289   4.407   2.093  0.9810  4.6730 -3.6353
12529TIP3    H237545   3.431   4.353   2.087  0.3371  2.2554 -0.2054
12530TIP3   OH237546   5.893   7.203   0.055 -0.2339 -0.0729  0.3058
12530TIP3    H137547   5.950   7.254  -0.002 -0.8406 -0.7846 -0.9864
12530TIP3    H237548   5.809   7.250   0.055 -0.1941  0.0093  0.7617
12531TIP3   OH237549   7.443   4.884   2.065 -0.3299 -0.4658  0.0703
12531TIP3    H137550   7.398   4.841   1.992  1.6060  0.3513 -1.7066
12531TIP3    H237551   7.517   4.827   2.084 -1.0672 -0.9025  1.7697
12532TIP3   OH237552   7.369   1.285   6.047 -0.5404 -0.2997  0.2543
12532TIP3    H137553   7.462   1.304   6.036 -0.7274  0.3329 -0.3124
12532TIP3    H237554   7.362   1.190   6.038 -0.4322 -0.1008 -3.8198
12533TIP3   OH237555   4.376   5.401   3.496 -0.5282 -0.4927 -0.4360
12533TIP3    H137556   4.313   5.396   3.567 -3.1069  0.3916 -2.5032
12533TIP3    H237557   4.396   5.310   3.474 -1.2195 -0.7800  0.1081
12534TIP3   OH237558   4.357   1.132   6.011 -0.2577 -0.4867  0.2670
12534TIP3    H137559   4.385   1.054   6.059  1.8559  0.3277  0.4867
12534TIP3    H237560   4.346   1.102   5.921  0.6597 -1.0552  0.3284
12535TIP3   OH237561   1.164   5.392   5.155  0.3986  0.0295 -0.3402
12535TIP3    H137562   1.141   5.310   5.199  0.6534  0.2959  0.3140
12535TIP3    H237563   1.223   5.367   5.085 -0.8779 -0.5252 -1.2439
12536TIP3   OH237564   4.884   4.445   1.555 -0.3902 -0.6153 -0.0162
12536TIP3    H137565   4.906   4.368   1.503 -1.2309 -1.5653  0.9868
12536TIP3    H237566   4.891   4.416   1.646 -2.4563 -0.0409  0.3805
12537TIP3   OH237567   0.238   6.488   6.547  0.2129 -0.3131 -0.3759
12537TIP3    H137568   0.276   6.516   6.630  0.1376  1.0370 -0.7598
12537TIP3    H237569   0.308   6.500   6.484 -0.3313  0.6468 -0.8263
12538TIP3   OH237570   2.246   3.308   4.407  0.4664 -0.2328  0.2943
12538TIP3    H137571   2.261   3.351   4.491  2.0675 -1.9570  0.9721
12538TIP3    H237572   2.318   3.340   4.351 -0.8278  1.2344 -0.6259
12539TIP3   OH237573   7.247   5.480   5.178  0.4049  0.0473 -0.3045
12539TIP3    H137574   7.320   5.521   5.132  0.5956 -0.6879 -0.6796
12539TIP3    H237575   7.253   5.387   5.154 -0.5527 -0.0478 -0.2098
12540TIP3   OH237576   1.189   6.323   6.640 -0.1582 -0.2422  0.1946
12540TIP3    H137577   1.238   6.245   6.614  1.0008  0.5010  0.0916
12540TIP3    H237578   1.216   6.340   6.730 -0.6564 -0.1500  0.3275
12541TIP3   OH237579   7.931   2.089   2.300 -0.6675  0.3648  0.4426
12541TIP3    H137580   8.023   2.062   2.300 -0.3277  1.4195 -0.2104
12541TIP3    H237581   7.914   2.116   2.390 -0.8569 -1.4170  0.9744
12542TIP3   OH237582   2.454   5.144   4.480  0.1697 -0.1516 -0.0415
12542TIP3    H137583   2.549   5.151   4.480  0.1412  0.4038  1.2966
12542TIP3    H237584   2.430   5.148   4.387  1.3989  0.2737 -0.3538
12543TIP3   OH237585   3.861   1.965   4.529  0.3995  0.1717  0.3941
12543TIP3    H137586   3.782   2.001   4.567  0.0026 -0.0847 -0.1715
12543TIP3    H237587   3.843   1.871   4.520  0.7191  0.1299  0.1567
12544TIP3   OH237588   5.644   7.224   2.432  0.5078  0.0878  0.7633
12544TIP3    H137589   5.717   7.241   2.373 -0.4073  2.1355  0.1310
12544TIP3    H237590   5.654   7.133   2.458  1.6973 -0.4887 -1.4983
12545TIP3   OH237591   0.583   1.500   2.452  0.4207 -0.3218 -0.3278
12545TIP3    H137592   0.626   1.478   2.535 -0.3744 -0.4856  0.0592
12545TIP3    H237593   0.626   1.444   2.387  1.5915  0.3839 -0.1716
12546TIP3   OH237594   1.258   3.312   5.740  0.2233 -0.0294 -0.3871
12546TIP3    H137595   1.292   3.222   5.741 -1.5471 -0.7668 -0.9238
12546TIP3    H237596   1.237   3.331   5.831  0.0597 -0.4013 -0.3449
12547TIP3   OH237597   4.089   3.417   3.540  0.0975  0.0979  0.8700
12547TIP3    H137598   4.155   3.435   3.473  1.4154  0.6409  2.2762
12547TIP3    H237599   4.133   3.360   3.603 -0.5963  0.8504  2.0827
12548TIP3   OH237600   2.300   6.527   0.435  0.2193  0.3103  0.2351
12548TIP3    H137601   2.298   6.621   0.418 -0.9615  0.5027  1.2785
12548TIP3    H237602   2.218   6.495   0.399  0.9148 -0.4728 -0.7270
12549TIP3   OH237603   4.965   0.945   3.728  0.1504  0.6614 -0.5694
12549TIP3    H137604   4.965   0.862   3.680  2.4414 -0.3171  0.9369
12549TIP3    H237605   5.051   0.982   3.711  1.0047  0.3719  2.4625
12550TIP3   OH237606   2.394   2.373   6.740 -0.2067 -0.5114 -0.1072
12550TIP3    H137607   2.390   2.279   6.725  2.5280 -0.4582 -2.1896
12550TIP3    H237608   2.455   2.384   6.813  2.0791 -0.4128 -1.9042
12551TIP3   OH237609   2.613   3.174   2.834 -0.1410 -0.3261 -0.0067
12551TIP3    H137610   2.591   3.244   2.773  4.0583 -0.0477 -1.5386
12551TIP3    H237611   2.589   3.094   2.787 -1.3237 -0.0172  0.0550
12552TIP3   OH237612   3.873   4.748   3.537 -0.5127 -0.2203 -0.7086
12552TIP3    H137613   3.786   4.716   3.513  0.2337 -2.7139 -0.4033
12552TIP3    H237614   3.881   4.730   3.630  0.3916 -0.2370 -0.7754
12553TIP3   OH237615   0.236   0.548   3.628 -0.3171 -0.1425  0.2889
12553TIP3    H137616   0.231   0.628   3.680  0.8919 -0.9445  1.7108
12553TIP3    H237617   0.225   0.578   3.538 -1.7142  1.3788  0.9105
12554TIP3   OH237618   2.023   3.816   4.273 -0.7887 -0.0679 -0.1512
12554TIP3    H137619   1.967   3.860   4.337  0.8872  1.1144  0.5755
12554TIP3    H237620   2.025   3.725   4.303 -4.6818 -0.9612 -1.9471
12555TIP3   OH237621   1.823   1.903   3.405 -0.9168 -0.6826 -0.0589
12555TIP3    H137622   1.754   1.929   3.344 -0.7211  3.5327  1.1902
12555TIP3    H237623   1.903   1.940   3.368 -0.2996 -0.6111  1.2750
12556TIP3   OH237624   1.796   2.034   2.042 -0.0395 -0.2397  0.0792
12556TIP3    H137625   1.826   1.972   2.108 -0.6742  1.0005  1.6010
12556TIP3    H237626   1.710   2.063   2.074 -0.3920  0.3637 -1.3327
12557TIP3   OH237627   7.029   7.538   1.537  0.2956  0.3628 -0.0909
12557TIP3    H137628   7.006   7.629   1.559  1.6780  0.6548  0.2248
12557TIP3    H237629   7.111   7.546   1.487  0.8009 -0.7538  0.5303
12558TIP3   OH237630   7.890   0.026   6.268 -0.1010 -0.3466  0.0723
12558TIP3    H137631   7.868   0.102   6.321 -0.7941 -1.4227  1.3879
12558TIP3    H237632   7.967   0.053   6.218 -1.5673  1.9276 -1.1074
12559TIP3   OH237633   4.615   2.035   6.223 -0.0282 -0.7913 -0.2947
12559TIP3    H137634   4.678   1.964   6.231  0.7525 -0.5612 -3.2995
12559TIP3    H237635   4.609   2.052   6.129 -1.3114  2.1282  0.1951
12560TIP3   OH237636   3.060   3.037   2.503 -0.3137  0.0862 -0.0712
12560TIP3    H137637   2.980   2.994   2.533 -0.8458  1.5697  0.7031
12560TIP3    H237638   3.100   3.073   2.582  1.2510 -0.7728 -0.4142
12561TIP3   OH237639   6.706   4.078   2.145 -0.3923 -0.1062 -0.0662
12561TIP3    H137640   6.767   4.148   2.122 -0.7744 -0.0944 -1.0706
12561TIP3    H237641   6.744   3.999   2.107 -0.8111 -0.1642 -0.3639
12562TIP3   OH237642   2.434   3.531   2.902  0.1358  0.0715  0.2629
12562TIP3    H137643   2.514   3.560   2.947  1.1771  1.9900 -2.5171
12562TIP3    H237644   2.363   3.578   2.946  1.0988  1.8041  0.0688
12563TIP3   OH237645   6.482   2.954   5.139 -0.5862 -0.2710  0.3435
12563TIP3    H137646   6.461   3.048   5.133  2.8363  0.5793 -0.6371
12563TIP3    H237647   6.434   2.914   5.066  0.8557  1.4572 -1.6847
12564TIP3   OH237648   1.626   7.283   2.495  0.0864  0.5005  0.3874
12564TIP3    H137649   1.645   7.243   2.580  0.1165 -0.9573 -0.2802
12564TIP3    H237650   1.543   7.329   2.509  0.0125  0.1530  1.1703
12565TIP3   OH237651   2.770   4.888   3.262  0.4639 -0.0932  0.0067
12565TIP3    H137652   2.864   4.903   3.257  0.4372 -0.1408 -0.6662
12565TIP3    H237653   2.742   4.877   3.171  0.2130 -2.6111  0.3027
12566TIP3   OH237654   6.640   7.224   2.814  0.2467 -0.3006 -0.5043
12566TIP3    H137655   6.661   7.138   2.778 -0.6941 -1.1773  0.9075
12566TIP3    H237656   6.716   7.278   2.793  0.0799 -0.9319 -3.0187
12567TIP3   OH237657   8.256   0.313   5.392  0.1055  0.0485 -0.0805
12567TIP3    H137658   8.239   0.223   5.417  2.0532 -0.5275 -0.6809
12567TIP3    H237659   8.282   0.357   5.473  2.1637 -0.7455 -0.2400
12568TIP3   OH237660   0.823   7.662   3.248  0.1235 -0.0903 -0.3098
12568TIP3    H137661   0.836   7.646   3.341  0.6631 -0.6439 -0.4739
12568TIP3    H237662   0.762   7.736   3.244  0.2563  0.0652  0.4792
12569TIP3   OH237663   6.672   0.047   4.068  0.7564 -0.0814 -0.1441
12569TIP3    H137664   6.582   0.040   4.099  1.0181  0.4107  0.7579
12569TIP3    H237665   6.694   0.139   4.078  1.4377 -0.2383 -0.1546
12570TIP3   OH237666   2.786   1.810   0.101  0.1917 -0.1783 -0.5422
12570TIP3    H137667   2.856   1.755   0.137 -0.4338 -0.2152  0.6773
12570TIP3    H237668   2.721   1.747   0.069 -0.8506 -0.2163  1.4975
12571TIP3   OH237669   5.651   4.900   0.571  0.0126  0.1516  0.1628
12571TIP3    H137670   5.705   4.944   0.637 -0.7599 -0.5324  1.2762
12571TIP3    H237671   5.706   4.827   0.542  0.5483  0.7319 -0.3334
12572TIP3   OH237672   1.481   3.388   6.306 -0.4749 -0.2924  0.0652
12572TIP3    H137673   1.473   3.481   6.327  1.1537 -0.2415  0.5734
12572TIP3    H237674   1.483   3.385   6.210  0.7052  0.3290  0.0619
12573TIP3   OH237675   5.817   0.423   2.770 -0.0523 -0.4198  0.2087
12573TIP3    H137676   5.864   0.392   2.693 -1.6277 -1.1467 -0.5073
12573TIP3    H237677   5.883   0.424   2.840  1.6943  1.3439 -1.3455
12574TIP3   OH237678   4.173   0.589   0.624  0.1832  0.1342  0.2335
12574TIP3    H137679   4.155   0.637   0.543 -0.5499 -1.6258 -0.7311
12574TIP3    H237680   4.103   0.523   0.628 -0.2141  0.6111  2.7158
12575TIP3   OH237681   2.763   3.110   1.249  0.3908 -0.5044 -0.1092
12575TIP3    H137682   2.769   3.131   1.155  2.6834  0.3797  0.1613
12575TIP3    H237683   2.833   3.047   1.264  0.2748 -0.3706  1.0802
12576TIP3   OH237684   0.044   5.787   5.769 -0.0612 -0.0803  0.6625
12576TIP3    H137685   0.119   5.846   5.766 -0.9833  1.1340  0.4999
12576TIP3    H237686   0.022   5.781   5.862  1.0508 -1.5501  0.8633
12577TIP3   OH237687   1.410   7.407   6.305  0.3670  0.1846 -0.0219
12577TIP3    H137688   1.331   7.362   6.274  0.8450  0.5431 -1.9057
12577TIP3    H237689   1.480   7.342   6.295  0.7397  0.7080 -0.9365
12578TIP3   OH237690   0.762   0.167   2.546  0.4659 -0.6639  0.2307
12578TIP3    H137691   0.820   0.155   2.621  0.1629 -2.4708  0.2306
12578TIP3    H237692   0.681   0.121   2.571 -0.0152 -0.4118 -0.7928
12579TIP3   OH237693   4.496   4.232   5.635  0.3055 -0.0988  0.0936
12579TIP3    H137694   4.591   4.221   5.632  0.4736  1.2675 -2.0986
12579TIP3    H237695   4.470   4.196   5.720  2.9497  1.0131  1.4940
12580TIP3   OH237696   6.071   7.130   5.420 -0.1194 -0.1331  0.0214
12580TIP3    H137697   6.166   7.121   5.433 -0.2543 -0.5223  0.7799
12580TIP3    H237698   6.061   7.141   5.326  0.8182  1.6654  0.0975
12581TIP3   OH237699   3.532   2.259   0.720  0.1847 -0.6772 -0.5329
12581TIP3    H137700   3.501   2.200   0.650 -4.2285 -1.1456  1.4607
12581TIP3    H237701   3.518   2.347   0.685  0.0047 -0.8792 -0.9785
12582TIP3   OH237702   3.787   0.699   4.468  0.1098  0.7877 -0.3909
12582TIP3    H137703   3.757   0.756   4.398  0.2016  0.2235 -0.9036
12582TIP3    H237704   3.797   0.756   4.544 -1.2884  1.1667 -0.4700
12583TIP3   OH237705   4.261   2.658   1.328 -0.6596  0.0046 -0.1284
12583TIP3    H137706   4.238   2.751   1.325 -2.7134 -0.4777 -0.8612
12583TIP3    H237707   4.344   2.653   1.279 -0.3599  1.4713  0.1758
12584TIP3   OH237708   2.401   4.683   3.038 -0.5458  0.0871  0.2671
12584TIP3    H137709   2.449   4.646   2.964  2.0127 -0.6885  2.1520
12584TIP3    H237710   2.448   4.764   3.058 -1.8184  0.7999  0.4716
12585TIP3   OH237711   5.139   3.901   5.624 -0.4629 -0.0767 -0.3381
12585TIP3    H137712   5.067   3.841   5.606 -1.3285  0.5961  0.7085
12585TIP3    H237713   5.158   3.943   5.540 -0.3423 -1.2751 -0.9180
12586TIP3   OH237714   2.160   7.017   4.160 -0.0094  0.1106  0.0900
12586TIP3    H137715   2.092   7.047   4.099 -0.4105 -1.0074 -0.0427
12586TIP3    H237716   2.184   7.095   4.210  1.4422  1.4655 -2.5023
12587TIP3   OH237717   7.760   0.457   2.236 -0.1028 -0.1126  0.0332
12587TIP3    H137718   7.806   0.381   2.272  1.4826  1.1747  0.8516
12587TIP3    H237719   7.684   0.468   2.293  0.9036  0.2542  1.3550
12588TIP3   OH237720   3.589   1.765   5.706  0.8808 -0.0282  0.5341
12588TIP3    H137721   3.588   1.731   5.616 -1.6343 -0.2996  0.6185
12588TIP3    H237722   3.683   1.770   5.728  1.5869  0.3727 -2.1962
12589TIP3   OH237723   0.899   1.126   2.568 -0.1352  0.0689  0.1651
12589TIP3    H137724   0.895   1.031   2.557 -3.0115  0.1510 -0.2296
12589TIP3    H237725   0.880   1.141   2.661  0.0844  0.2884  0.1774
12590TIP3   OH237726   6.228   6.520   0.123 -0.4305  0.2545 -0.3436
12590TIP3    H137727   6.282   6.441   0.118 -0.2985  0.2255  1.1052
12590TIP3    H237728   6.254   6.572   0.047 -1.2186 -1.4959 -1.8914
12591TIP3   OH237729   4.249   3.176   0.294  0.5908  0.1488  0.0660
12591TIP3    H137730   4.312   3.112   0.327  0.1066 -0.5380 -0.3428
12591TIP3    H237731   4.174   3.125   0.264  0.8028  0.7625 -1.6592
12592TIP3   OH237732   2.118   2.485   5.252  0.3527 -0.2932  0.3163
12592TIP3    H137733   2.050   2.439   5.202 -0.2383  1.0578 -0.1659
12592TIP3    H237734   2.160   2.543   5.188  0.9566 -0.0211  0.9431
12593TIP3   OH237735   6.693   6.072   0.016  0.1324  0.0254 -0.0099
12593TIP3    H137736   6.669   6.114   0.099  1.4057 -0.2417  0.5223
12593TIP3    H237737   6.772   6.023   0.037  0.2114 -0.4153 -1.2893
12594TIP3   OH237738   1.891   5.353   4.490 -0.0730  0.3010  0.1748
12594TIP3    H137739   1.932   5.343   4.576 -1.1652  1.5080  0.8779
12594TIP3    H237740   1.961   5.337   4.428  0.5500 -1.5013  1.2593
12595TIP3   OH237741   8.140   3.935   4.063 -0.1003  0.0227  0.2588
12595TIP3    H137742   8.206   3.920   3.995  0.2434  0.4518  0.4928
12595TIP3    H237743   8.077   3.995   4.023 -0.7282 -0.9216 -0.2016
12596TIP3   OH237744   5.218   1.411   2.568 -0.5448  0.4721  0.3818
12596TIP3    H137745   5.212   1.354   2.491  1.3658 -1.8083  1.7811
12596TIP3    H237746   5.239   1.497   2.532 -0.2841 -0.3987 -1.6867
12597TIP3   OH237747   3.177   1.903   0.684 -0.3846 -0.3938  0.0052
12597TIP3    H137748   3.102   1.889   0.742  0.3044 -0.9721  0.7882
12597TIP3    H237749   3.244   1.943   0.740  0.0898 -0.4136 -0.5358
12598TIP3   OH237750   7.749   6.145   2.232 -0.1376 -0.1371 -0.7928
12598TIP3    H137751   7.808   6.108   2.298  0.0624 -0.8517 -1.3504
12598TIP3    H237752   7.718   6.068   2.183  0.2742  0.4305 -1.9741
12599TIP3   OH237753   4.298   4.122   1.414  0.4440 -0.0176  0.2836
12599TIP3    H137754   4.289   4.171   1.496  0.6196 -0.6809  0.7040
12599TIP3    H237755   4.216   4.073   1.406  0.0869  0.6708 -0.3585
12600TIP3   OH237756   3.432   1.579   3.603  0.4529 -0.1122 -0.5125
12600TIP3    H137757   3.400   1.649   3.546 -1.6846 -0.6334 -0.0377
12600TIP3    H237758   3.492   1.624   3.663 -1.8813  1.7273  0.6761
12601TIP3   OH237759   4.697   1.513   0.873  0.4836  0.4756 -0.1203
12601TIP3    H137760   4.774   1.459   0.856 -0.2446 -0.8651  0.6687
12601TIP3    H237761   4.647   1.464   0.939 -1.5728  0.7416 -1.3747
12602TIP3   OH237762   2.412   0.837   0.603 -0.3746  0.1599  0.0504
12602TIP3    H137763   2.505   0.851   0.583 -0.3182  0.5416  0.5408
12602TIP3    H237764   2.374   0.803   0.522  0.1457  0.2262 -0.2242
12603TIP3   OH237765   2.466   6.013   2.538  0.1956  0.3165  0.0401
12603TIP3    H137766   2.373   6.031   2.551 -0.4481 -2.7318  0.5261
12603TIP3    H237767   2.480   6.027   2.444 -0.5728  1.4326  0.0740
12604TIP3   OH237768   2.148   5.998   3.274 -0.0614  0.2788 -0.3898
12604TIP3    H137769   2.055   5.991   3.249  0.0072 -1.0314 -0.3393
12604TIP3    H237770   2.153   5.956   3.359  0.7080 -0.2977 -0.7143
12605TIP3   OH237771   3.284   7.672   4.681 -0.2251 -0.1311 -0.4334
12605TIP3    H137772   3.369   7.715   4.675  0.8523 -2.0646 -0.1077
12605TIP3    H237773   3.221   7.743   4.694  1.4537  1.2923  0.2897
12606TIP3   OH237774   4.695   3.659   3.758 -0.0310 -0.5312  0.4208
12606TIP3    H137775   4.699   3.575   3.804 -0.0391 -1.5766 -1.4089
12606TIP3    H237776   4.786   3.688   3.752 -0.2018  0.9862  3.3756
12607TIP3   OH237777   0.163   6.231   2.129 -0.4140  0.4846  0.0148
12607TIP3    H137778   0.115   6.295   2.076 -2.2933 -0.2546  0.7533
12607TIP3    H237779   0.210   6.177   2.065 -0.4762  1.2849 -0.7229
12608TIP3   OH237780   3.308   0.354   1.641 -0.3985  0.4802  0.4312
12608TIP3    H137781   3.331   0.404   1.563  0.3228  1.4110  1.2245
12608TIP3    H237782   3.218   0.377   1.659 -0.2335  1.0828  0.4854
12609TIP3   OH237783   3.314   7.330   6.043  0.2406 -0.9424  0.8084
12609TIP3    H137784   3.380   7.391   6.075 -2.5934  1.8584  1.9476
12609TIP3    H237785   3.332   7.248   6.089  3.2776 -0.5961  0.4425
12610TIP3   OH237786   1.279   1.338   3.881 -0.7716  0.5228 -0.5828
12610TIP3    H137787   1.188   1.308   3.876 -0.7303 -0.2574  1.9555
12610TIP3    H237788   1.331   1.257   3.881 -0.4455  0.5890  2.8216
12611TIP3   OH237789   1.969   2.200   4.108 -0.5524  0.3211 -0.0270
12611TIP3    H137790   1.941   2.229   4.195 -0.1726 -0.1021  0.2374
12611TIP3    H237791   1.888   2.175   4.064 -0.6601 -0.2538  0.4974
12612TIP3   OH237792   1.277   3.741   3.548  0.6937 -0.5757  0.1230
12612TIP3    H137793   1.199   3.689   3.567 -0.4837  1.1211  0.1301
12612TIP3    H237794   1.303   3.778   3.633  0.2536  0.4923 -0.1822
12613TIP3   OH237795   3.960   3.772   5.687 -0.0177  0.1992  0.0527
12613TIP3    H137796   3.892   3.706   5.700 -0.0084 -0.1067 -1.2640
12613TIP3    H237797   3.927   3.825   5.614  1.6038 -0.5954 -1.3178
12614TIP3   OH237798   3.304   4.545   6.297  0.0456 -1.3692 -0.4740
12614TIP3    H137799   3.374   4.526   6.360  0.2897 -1.2146 -0.6985
12614TIP3    H237800   3.316   4.479   6.228  1.6048  0.2527 -1.8410
12615TIP3   OH237801   1.063   5.826   5.271 -0.0950  0.1517 -0.1608
12615TIP3    H137802   1.112   5.908   5.271 -0.3010  0.2835 -1.2753
12615TIP3    H237803   0.975   5.850   5.300  0.2999  0.0208  1.2131
12616TIP3   OH237804   1.085   0.116   1.858 -0.3199  0.3302  1.1040
12616TIP3    H137805   1.178   0.129   1.838 -0.4616  0.3547  0.4680
12616TIP3    H237806   1.042   0.194   1.825 -0.7461 -0.2817  0.1585
12617TIP3   OH237807   4.616   2.495   1.775 -0.0677  0.1377 -0.4134
12617TIP3    H137808   4.590   2.554   1.705 -1.0079  0.0330 -0.1679
12617TIP3    H237809   4.663   2.550   1.838 -0.6213  0.5502 -0.3591
12618TIP3   OH237810   4.826   6.293   3.073 -0.2913 -0.5369  0.3416
12618TIP3    H137811   4.850   6.357   3.140  0.0256 -2.5929  2.2674
12618TIP3    H237812   4.747   6.251   3.106  1.0886 -3.1131  0.5592
12619TIP3   OH237813   8.234   0.541   3.570 -0.4492  0.2282 -0.3305
12619TIP3    H137814   8.322   0.554   3.604 -0.5970  1.2157 -0.2879
12619TIP3    H237815   8.227   0.602   3.496 -0.5102 -1.0904 -1.4751
12620TIP3   OH237816   1.121   5.565   2.076 -0.1985  0.0007 -0.1016
12620TIP3    H137817   1.060   5.519   2.018  1.2915  0.2150 -1.9658
12620TIP3    H237818   1.203   5.515   2.067  0.0721  0.0446  1.8713
12621TIP3   OH237819   0.821   5.258   3.059  0.2031  0.0489 -0.1229
12621TIP3    H137820   0.809   5.345   3.098  2.1674 -0.3054  1.3731
12621TIP3    H237821   0.805   5.197   3.130  0.1764 -0.7762 -0.8278
12622TIP3   OH237822   7.916   1.580   6.388  0.1671  0.5596  0.1608
12622TIP3    H137823   7.986   1.595   6.323  0.6219 -0.6435  0.3514
12622TIP3    H237824   7.835   1.594   6.339  0.4989 -0.6042 -0.7627
12623TIP3   OH237825   3.999   0.354   0.652 -0.0550  0.7901 -0.2325
12623TIP3    H137826   4.053   0.275   0.642 -0.5405  0.5817 -1.3060
12623TIP3    H237827   3.918   0.323   0.691 -0.1369  0.8041 -0.3920
12624TIP3   OH237828   5.854   5.896   4.613 -0.1815 -0.1231 -0.1762
12624TIP3    H137829   5.889   5.982   4.636  2.1139 -1.0514  0.0800
12624TIP3    H237830   5.791   5.913   4.544 -0.3280  1.8264  0.3886
12625TIP3   OH237831   5.241   4.423   0.914 -0.3328  0.4769 -0.5250
12625TIP3    H137832   5.175   4.473   0.962  0.8413  2.0612 -0.4844
12625TIP3    H237833   5.260   4.348   0.970  0.3213  1.7939  1.0789
12626TIP3   OH237834   5.297   0.570   6.392 -0.0439 -0.0458 -0.1361
12626TIP3    H137835   5.332   0.555   6.304 -0.4058 -0.4546 -0.2123
12626TIP3    H237836   5.275   0.664   6.393  1.2633  0.2762 -0.0041
12627TIP3   OH237837   1.136   5.507   0.592 -0.4215 -0.3651 -0.4503
12627TIP3    H137838   1.159   5.545   0.507  0.9931 -1.7621 -0.7344
12627TIP3    H237839   1.169   5.570   0.656 -2.3068  1.1540 -0.8667
12628TIP3   OH237840   5.910   1.041   1.399 -0.0615 -0.0023  0.2042
12628TIP3    H137841   5.939   1.091   1.322 -0.5779  1.4860  0.9249
12628TIP3    H237842   5.985   0.988   1.424  0.2800 -0.1282 -1.0185
12629TIP3   OH237843   5.175   2.650   3.674 -0.0286  0.6377  0.0514
12629TIP3    H137844   5.088   2.654   3.635  0.1996  1.0000 -0.4456
12629TIP3    H237845   5.162   2.612   3.761 -0.4334 -1.1265 -0.7345
12630TIP3   OH237846   7.293   7.625   6.202  0.2874  0.3608  0.3055
12630TIP3    H137847   7.389   7.630   6.206  0.3801  2.1291 -2.0314
12630TIP3    H237848   7.263   7.711   6.233 -0.4545  0.3375 -0.3156
12631TIP3   OH237849   6.980   2.593   2.994  0.1781  0.0600  0.4770
12631TIP3    H137850   6.917   2.651   2.951  0.6129  0.9607  1.0261
12631TIP3    H237851   6.940   2.507   2.990 -1.4150  0.7105  1.3841
12632TIP3   OH237852   3.412   1.840   6.075  0.1857  0.5000  0.3634
12632TIP3    H137853   3.372   1.777   6.015 -0.2794  0.7959  0.3573
12632TIP3    H237854   3.496   1.800   6.100 -0.6836 -0.7477  1.4148
12633TIP3   OH237855   6.466   1.046   0.829 -0.4064  0.7015  0.7608
12633TIP3    H137856   6.494   1.074   0.742 -0.1905 -0.7619  0.3221
12633TIP3    H237857   6.540   1.066   0.886 -0.8267  2.3402  0.7718
12634TIP3   OH237858   8.124   3.968   6.569 -0.6614  0.2822 -0.4949
12634TIP3    H137859   8.080   3.895   6.526 -1.8472  1.0511 -0.6555
12634TIP3    H237860   8.195   3.992   6.510 -0.0856 -0.8904 -0.3064
12635TIP3   OH237861   2.867   5.156   5.611  0.3645  0.1925 -0.0976
12635TIP3    H137862   2.961   5.145   5.623  0.6413  1.4433 -0.9131
12635TIP3    H237863   2.828   5.126   5.693  1.4152 -0.8796  0.0345
12636TIP3   OH237864   5.181   3.460   2.320 -0.1529 -0.1309  0.0540
12636TIP3    H137865   5.134   3.476   2.238  1.0679  0.4904 -0.5642
12636TIP3    H237866   5.179   3.544   2.365  1.0209  0.1507 -0.3632
12637TIP3   OH237867   0.343   4.910   3.460  0.2227  0.2676 -0.7411
12637TIP3    H137868   0.280   4.879   3.526  0.2644 -1.1846 -1.3452
12637TIP3    H237869   0.384   4.987   3.501 -0.3918 -0.0573  0.5594
12638TIP3   OH237870   3.702   2.461   5.811 -0.2318  0.4520  0.3438
12638TIP3    H137871   3.790   2.435   5.782 -0.6201 -0.4885 -0.0485
12638TIP3    H237872   3.675   2.389   5.868  0.6302  2.3590  3.4155
12639TIP3   OH237873   0.682   1.529   4.357 -0.0715  0.0569  0.0172
12639TIP3    H137874   0.770   1.564   4.365  0.4230 -0.9288 -0.9008
12639TIP3    H237875   0.694   1.440   4.324 -1.3462 -0.5896  1.1931
12640TIP3   OH237876   2.532   3.003   5.393  0.0376  0.5048  0.0156
12640TIP3    H137877   2.464   3.012   5.326  0.1967  0.2499 -0.1760
12640TIP3    H237878   2.571   3.091   5.399 -0.3124  0.6559  0.1337
12641TIP3   OH237879   2.558   1.051   4.236 -0.1030  0.2297  0.4174
12641TIP3    H137880   2.582   1.043   4.328  0.2740 -0.5276  0.2557
12641TIP3    H237881   2.622   1.113   4.199 -0.9450  1.4290  0.9028
12642TIP3   OH237882   1.264   3.530   1.831 -0.1398  0.0121 -0.0736
12642TIP3    H137883   1.250   3.617   1.868  2.1035  0.2077  0.4902
12642TIP3    H237884   1.190   3.478   1.861 -1.2907  1.6105 -0.0584
12643TIP3   OH237885   0.117   1.021   2.357  0.4519 -0.1389  0.0479
12643TIP3    H137886   0.097   0.994   2.446 -0.5093 -0.0142 -0.1262
12643TIP3    H237887   0.205   1.060   2.363 -0.2957  1.4849  1.2865
12644TIP3   OH237888   1.637   7.782   5.769  0.0296 -0.0768 -0.1739
12644TIP3    H137889   1.596   7.698   5.748 -0.5450  0.2809 -0.5202
12644TIP3    H237890   1.576   7.847   5.733  0.3398  0.4901  0.3255
12645TIP3   OH237891   7.028   4.677   0.056  0.3207  0.4738 -0.1816
12645TIP3    H137892   7.013   4.655   0.147  3.9182 -1.1298  0.2012
12645TIP3    H237893   7.005   4.598   0.008 -0.1678  0.8157 -0.5240
12646TIP3   OH237894   6.213   4.889   3.811  0.1057 -0.0761 -0.7347
12646TIP3    H137895   6.289   4.860   3.762  0.4257 -2.9649  1.2648
12646TIP3    H237896   6.240   4.972   3.850  1.4888 -0.0657 -1.6455
12647TIP3   OH237897   4.747   0.327   4.175  0.1624  0.4914 -0.5172
12647TIP3    H137898   4.812   0.397   4.174  0.1829  0.4653 -1.7023
12647TIP3    H237899   4.666   0.368   4.146 -0.2917  0.4452  0.6325
12648TIP3   OH237900   5.572   4.175   5.704  0.1783 -0.1845  0.2062
12648TIP3    H137901   5.626   4.254   5.703 -1.0074  0.6347 -0.1790
12648TIP3    H237902   5.581   4.141   5.793  1.0416  0.1213  0.2456
12649TIP3   OH237903   7.608   0.688   4.081 -0.3774  0.2501 -0.2698
12649TIP3    H137904   7.589   0.676   4.174 -0.1250 -0.6424 -0.3227
12649TIP3    H237905   7.681   0.750   4.079 -1.3335  1.4240  0.0542
12650TIP3   OH237906   0.473   6.673   6.440  0.4253  0.2011 -0.4799
12650TIP3    H137907   0.547   6.722   6.474  1.0625 -1.1259  0.1455
12650TIP3    H237908   0.412   6.739   6.408  0.9044  1.4105  1.0034
12651TIP3   OH237909   3.427   0.174   3.669  0.6039 -0.5156  0.2886
12651TIP3    H137910   3.478   0.110   3.618  0.3863  0.7665 -1.6294
12651TIP3    H237911   3.413   0.247   3.609 -2.1655 -0.1378  1.2460
12652TIP3   OH237912   6.474   3.846   2.656  0.5022 -0.4938 -0.1516
12652TIP3    H137913   6.489   3.940   2.649 -0.7871 -0.2536  0.0008
12652TIP3    H237914   6.559   3.810   2.683  0.9417  0.6568  0.0711
12653TIP3   OH237915   8.185   2.542   4.935  0.0773 -0.5476 -0.3832
12653TIP3    H137916   8.173   2.620   4.989  0.7838  0.0566 -1.0748
12653TIP3    H237917   8.269   2.506   4.963 -0.6884 -1.6457  0.6206
12654TIP3   OH237918   4.018   4.973   0.067 -0.0435 -0.2168 -0.2574
12654TIP3    H137919   3.968   5.050   0.095 -0.8459 -1.4664  1.9777
12654TIP3    H237920   4.108   5.004   0.060 -0.4710  1.0973 -0.1643
12655TIP3   OH237921   6.995   1.528   4.591  0.1622  0.0757 -0.2114
12655TIP3    H137922   6.926   1.590   4.613  0.8490  0.6585  0.3456
12655TIP3    H237923   7.057   1.578   4.539  0.6635 -0.1752  0.1404
12656TIP3   OH237924   2.253   3.011   5.575 -0.2611 -0.0279 -0.0814
12656TIP3    H137925   2.238   3.100   5.544 -2.2773 -0.8079 -1.6089
12656TIP3    H237926   2.278   2.962   5.496 -0.0328 -0.9794  0.5598
12657TIP3   OH237927   7.420   5.362   4.870  0.0459  0.2571 -0.1263
12657TIP3    H137928   7.414   5.449   4.911  0.8979  0.6066 -0.7197
12657TIP3    H237929   7.512   5.352   4.847  0.1729 -1.2950  0.9318
12658TIP3   OH237930   2.332   4.893   4.266 -0.5354 -0.0669 -0.6719
12658TIP3    H137931   2.362   4.805   4.246  1.1071  0.5033 -0.8465
12658TIP3    H237932   2.352   4.905   4.359  0.2585  0.4848 -0.9028
12659TIP3   OH237933   2.084   4.919   4.121  0.5012 -0.8006 -0.0936
12659TIP3    H137934   2.120   4.830   4.114  1.2822 -0.3747 -2.0597
12659TIP3    H237935   2.157   4.972   4.150  0.1076 -0.7246  0.7956
12660TIP3   OH237936   5.568   5.924   0.191 -0.4141 -0.0631  0.1609
12660TIP3    H137937   5.585   5.998   0.250 -2.4062  0.6329 -0.0640
12660TIP3    H237938   5.644   5.867   0.201  0.1910  0.9923  1.9251
12661TIP3   OH237939   6.620   5.107   0.829  0.3850  0.5132 -0.2760
12661TIP3    H137940   6.534   5.114   0.786  0.6646  1.7613 -0.6735
12661TIP3    H237941   6.605   5.139   0.918  0.4285  0.6612 -0.3226
12662TIP3   OH237942   5.434   2.749   4.122  0.1680  0.6558 -0.2851
12662TIP3    H137943   5.395   2.756   4.035 -1.1474 -1.9756 -0.0062
12662TIP3    H237944   5.511   2.694   4.109  0.4500  0.9463  0.1125
12663TIP3   OH237945   1.317   0.091   2.805 -0.2128  0.0261 -0.6511
12663TIP3    H137946   1.291   0.166   2.859 -1.9101  0.7953 -2.4061
12663TIP3    H237947   1.401   0.117   2.767 -1.2703  1.6050 -2.0780
12664TIP3   OH237948   1.117   6.861   4.924 -0.2548 -0.2126  0.1799
12664TIP3    H137949   1.074   6.868   4.839 -0.3784  1.3262  0.3486
12664TIP3    H237950   1.202   6.820   4.904 -0.1613  0.3868 -0.7279
12665TIP3   OH237951   7.021   7.380   5.954 -0.3875 -0.8266 -0.2742
12665TIP3    H137952   7.059   7.298   5.985  0.5256  0.0664  1.0280
12665TIP3    H237953   7.090   7.420   5.901  0.2451  0.3730  1.3631
12666TIP3   OH237954   5.525   2.165   5.438 -0.1422  0.0557 -0.0467
12666TIP3    H137955   5.535   2.252   5.400  1.1200 -1.0590 -2.5108
12666TIP3    H237956   5.593   2.113   5.396 -1.3185 -2.2957  0.7809
12667TIP3   OH237957   0.398   5.350   3.272 -0.1916 -0.2322 -0.6897
12667TIP3    H137958   0.434   5.437   3.254 -1.2750  0.4552  0.3115
12667TIP3    H237959   0.475   5.294   3.281  0.5452  0.7109 -0.9113
12668TIP3   OH237960   4.080   0.768   5.164 -0.0590  0.1098 -0.5433
12668TIP3    H137961   4.013   0.712   5.125  0.4114 -0.9294  0.0738
12668TIP3    H237962   4.132   0.708   5.218  0.6305  1.1079 -0.0658
12669TIP3   OH237963   6.320   5.855   1.538  0.2459 -0.0466 -0.1033
12669TIP3    H137964   6.260   5.848   1.464 -1.1954 -0.9466  1.0955
12669TIP3    H237965   6.278   5.805   1.608  0.5188  2.4036  1.9884
12670TIP3   OH237966   3.160   6.450   1.443 -0.0253 -0.6160 -0.2684
12670TIP3    H137967   3.253   6.472   1.447 -0.2973  0.4164  1.2359
12670TIP3    H237968   3.115   6.531   1.465 -1.3308 -0.9272 -1.6355
12671TIP3   OH237969   8.242   6.880   4.383  0.5421  0.2442 -0.4943
12671TIP3    H137970   8.224   6.788   4.365  0.5492 -0.1706  1.4287
12671TIP3    H237971   8.285   6.912   4.304 -2.2093 -0.5622 -2.4672
12672TIP3   OH237972   7.334   1.201   1.407  0.6000  0.3086  0.3202
12672TIP3    H137973   7.375   1.141   1.344 -2.4303  1.3280 -2.9603
12672TIP3    H237974   7.404   1.262   1.430  2.1368 -0.7087 -1.3318
12673TIP3   OH237975   3.857   7.403   1.987  0.3167  0.8125 -0.6300
12673TIP3    H137976   3.947   7.435   1.984 -0.0145  1.9740  0.7482
12673TIP3    H237977   3.853   7.336   1.918  3.0051 -1.2426  0.9784
12674TIP3   OH237978   3.165   3.723   3.850 -0.1375 -0.1448 -0.2221
12674TIP3    H137979   3.078   3.724   3.889  0.1822  1.2489  0.5262
12674TIP3    H237980   3.201   3.637   3.873 -0.1625  0.4217  2.1984
12675TIP3   OH237981   5.337   3.230   1.294  1.1549  0.2219 -0.5418
12675TIP3    H137982   5.409   3.208   1.235  3.3517 -0.1581  2.0471
12675TIP3    H237983   5.281   3.153   1.294  1.1019  0.2452 -2.0968
12676TIP3   OH237984   8.222   0.217   1.079  0.2058  0.4095 -0.3954
12676TIP3    H137985   8.144   0.168   1.105 -0.6549  1.4549 -0.9105
12676TIP3    H237986   8.289   0.190   1.142 -0.9970  0.6262  1.0554
12677TIP3   OH237987   8.068   6.185   0.857  0.4752  0.0016  0.6739
12677TIP3    H137988   8.158   6.182   0.825  0.9345  1.0128  1.8001
12677TIP3    H237989   8.030   6.262   0.815 -0.4207 -1.3150 -1.0770
12678TIP3   OH237990   7.975   3.890   6.198 -0.8238  0.3896 -0.2942
12678TIP3    H137991   7.945   3.967   6.247 -0.8206  0.9626 -1.1592
12678TIP3    H237992   7.995   3.924   6.111 -0.0466 -0.4461 -0.4598
12679TIP3   OH237993   2.262   7.540   5.209  0.3796  0.1463  0.0667
12679TIP3    H137994   2.295   7.619   5.251  0.1470  0.6893 -0.7386
12679TIP3    H237995   2.173   7.530   5.244  0.2311  0.5280 -0.1837
12680TIP3   OH237996   1.453   7.361   1.499  1.0632  0.6021  0.1762
12680TIP3    H137997   1.487   7.304   1.567  0.4982  0.9249  0.7447
12680TIP3    H237998   1.411   7.433   1.547 -0.7742  0.0099 -0.4749
12681TIP3   OH237999   1.562   2.738   3.075  0.2451  0.2380  0.0269
12681TIP3    H138000   1.656   2.720   3.080  0.5660  0.9553 -2.2524
12681TIP3    H238001   1.520   2.659   3.109  1.6619 -0.2637  0.6651
12682TIP3   OH238002   2.663   5.849   4.124  0.0776 -0.4478 -0.2468
12682TIP3    H138003   2.582   5.800   4.107  0.8984 -1.2084 -2.2994
12682TIP3    H238004   2.633   5.938   4.144 -1.3049 -1.0075  0.3275
12683TIP3   OH238005   5.699   3.885   1.744  0.0548  0.0704  0.1297
12683TIP3    H138006   5.669   3.941   1.673 -0.0888 -0.5267 -0.2866
12683TIP3    H238007   5.664   3.926   1.824 -0.4698  0.2890 -0.2103
12684TIP3   OH238008   7.117   6.417   2.679 -0.0795 -0.0964 -0.2823
12684TIP3    H138009   7.040   6.402   2.734 -0.1772 -0.9734 -0.6464
12684TIP3    H238010   7.175   6.469   2.734 -0.2486 -0.8154  0.6035
12685TIP3   OH238011   5.881   0.809   5.008  0.5034  0.0109  0.6747
12685TIP3    H138012   5.831   0.851   4.937  1.0340 -0.4884 -0.0048
12685TIP3    H238013   5.840   0.723   5.019  1.0664 -0.3109  0.2710
12686TIP3   OH238014   5.422   5.985   6.012 -0.6062 -0.1970 -0.1020
12686TIP3    H138015   5.485   6.030   6.068  1.1169 -2.4344 -0.0969
12686TIP3    H238016   5.471   5.964   5.933 -1.6666 -1.0465 -0.5529
12687TIP3   OH238017   8.167   6.415   3.615 -0.0373  0.2991  0.4206
12687TIP3    H138018   8.257   6.414   3.646 -0.4759  1.1322  1.8643
12687TIP3    H238019   8.121   6.355   3.674 -0.5685  0.4910  0.2096
12688TIP3   OH238020   2.880   5.097   6.380  0.1470 -0.5955  0.1239
12688TIP3    H138021   2.939   5.027   6.350 -0.0032 -1.5401  1.8933
12688TIP3    H238022   2.802   5.051   6.409 -0.1190  0.3610  0.9631
12689TIP3   OH238023   4.273   7.704   2.631  0.2634 -0.0040 -0.1925
12689TIP3    H138024   4.344   7.648   2.662 -0.7961 -1.3818 -0.1281
12689TIP3    H238025   4.205   7.695   2.698 -0.8008 -0.4398 -1.2921
12690TIP3   OH238026   4.669   3.434   5.570  0.1095  0.1226  0.2471
12690TIP3    H138027   4.694   3.526   5.577 -1.2262  0.6818 -1.7221
12690TIP3    H238028   4.574   3.434   5.567  0.1158 -1.1905 -1.2656
12691TIP3   OH238029   4.698   5.443   4.919  0.2081  0.6097 -0.3126
12691TIP3    H138030   4.694   5.533   4.952  0.7672  0.5068  0.0416
12691TIP3    H238031   4.655   5.448   4.833 -0.7936  0.9740  0.1938
12692TIP3   OH238032   8.160   0.251   1.442 -0.1788  1.2284 -0.4703
12692TIP3    H138033   8.209   0.315   1.391  2.9121 -0.8881 -0.4174
12692TIP3    H238034   8.165   0.283   1.532  1.9228  0.6800 -0.3457
12693TIP3   OH238035   0.229   2.248   1.217 -0.2702  0.0825  0.2388
12693TIP3    H138036   0.318   2.212   1.215  0.2540  1.2863  0.8277
12693TIP3    H238037   0.239   2.338   1.186 -1.1659  0.4540  0.9836
12694TIP3   OH238038   0.170   0.523   2.057  0.2976  0.0479  0.3549
12694TIP3    H138039   0.139   0.582   1.988  2.4295  0.7313 -0.0971
12694TIP3    H238040   0.148   0.435   2.026 -0.2538  0.4493 -0.4035
12695TIP3   OH238041   8.184   6.109   5.150  0.6524  0.1076 -0.0201
12695TIP3    H138042   8.161   6.195   5.116 -0.3911  0.2582  1.0300
12695TIP3    H238043   8.257   6.080   5.094  0.4742  1.3026 -0.9033
12696TIP3   OH238044   5.799   3.200   0.234  0.3068  0.1877  0.0280
12696TIP3    H138045   5.880   3.179   0.188  0.3099  2.2852 -1.0452
12696TIP3    H238046   5.782   3.124   0.289  1.5022 -1.5026 -1.8008
12697TIP3   OH238047   7.638   5.096   3.735 -0.3441 -0.7491  0.1927
12697TIP3    H138048   7.625   5.190   3.749 -0.4309 -0.7515  0.1323
12697TIP3    H238049   7.729   5.080   3.761  0.1706 -0.3610 -1.2752
12698TIP3   OH238050   4.067   3.322   0.439  0.6503  0.2321 -0.0667
12698TIP3    H138051   4.015   3.362   0.370 -0.4618 -1.8092 -0.4907
12698TIP3    H238052   4.145   3.289   0.394  0.8698  0.6028  0.0309
12699TIP3   OH238053   7.750   6.790   1.403 -0.1233 -0.2517 -0.2796
12699TIP3    H138054   7.760   6.805   1.497  0.4340  1.8896 -0.6120
12699TIP3    H238055   7.655   6.779   1.390 -0.4429  1.3744  0.3539
12700TIP3   OH238056   1.424   6.210   4.640  0.2909 -0.4461  0.1646
12700TIP3    H138057   1.372   6.170   4.709  0.7907  0.9012  1.3776
12700TIP3    H238058   1.499   6.152   4.629 -0.4650 -1.3764 -0.2346
12701TIP3   OH238059   4.792   6.076   4.742  0.0132 -0.7200  0.2120
12701TIP3    H138060   4.815   6.056   4.651 -0.2186 -1.4318  0.3002
12701TIP3    H238061   4.786   5.990   4.784 -0.2856 -0.4155  0.8007
12702TIP3   OH238062   4.606   6.446   6.726  0.2522 -0.6002  0.5329
12702TIP3    H138063   4.540   6.397   6.677 -0.8505  1.8512 -0.5906
12702TIP3    H238064   4.611   6.400   6.810 -1.0908 -2.2824 -0.2292
12703TIP3   OH238065   0.663   6.305   4.280  0.4341 -0.3788 -0.4692
12703TIP3    H138066   0.591   6.245   4.298  0.5861 -0.7454 -1.0769
12703TIP3    H238067   0.621   6.380   4.238  0.1615  0.2186  0.8155
12704TIP3   OH238068   5.530   5.831   2.960 -0.2792  0.1298 -0.1152
12704TIP3    H138069   5.558   5.900   3.020  0.3255 -0.3958  0.2074
12704TIP3    H238070   5.590   5.759   2.975 -0.9768 -0.5217 -0.3712
12705TIP3   OH238071   2.296   1.500   6.038  0.1837 -0.2969  0.7663
12705TIP3    H138072   2.284   1.561   5.965 -0.3972 -2.0477 -0.6869
12705TIP3    H238073   2.391   1.485   6.042  0.1879 -0.5157  0.0521
12706TIP3   OH238074   2.600   2.925   1.041  0.0869  0.2559  0.0807
12706TIP3    H138075   2.611   2.849   0.984  0.1202  0.4498 -0.1718
12706TIP3    H238076   2.666   2.914   1.109 -0.1569 -0.1370  0.2583
12707TIP3   OH238077   7.917   1.510   3.339 -0.0955 -0.1640  0.3619
12707TIP3    H138078   8.002   1.486   3.302 -0.8216 -2.7306  0.1666
12707TIP3    H238079   7.890   1.432   3.388 -2.6059  0.3372 -0.1269
12708TIP3   OH238080   0.395   7.744   0.514 -0.8253 -0.1668 -0.0018
12708TIP3    H138081   0.371   7.783   0.430 -1.0696 -1.6329 -0.6496
12708TIP3    H238082   0.362   7.805   0.580  1.6960  2.4034 -0.9165
12709TIP3   OH238083   2.433   1.285   4.794  0.2224  0.1866 -0.3634
12709TIP3    H138084   2.421   1.273   4.888  1.3056  0.7009 -0.1410
12709TIP3    H238085   2.522   1.320   4.786 -0.4168  1.6854 -1.4535
12710TIP3   OH238086   6.501   5.829   0.128 -0.3201  0.4168 -0.1869
12710TIP3    H138087   6.505   5.780   0.046  0.5878  1.3066 -0.6932
12710TIP3    H238088   6.589   5.866   0.138 -0.0284 -0.6564  1.8018
12711TIP3   OH238089   1.058   0.221   4.719 -0.0451  0.2901 -0.1832
12711TIP3    H138090   1.110   0.301   4.727 -1.0297  0.9655 -0.3400
12711TIP3    H238091   1.120   0.154   4.690  1.1694  0.5508  1.6539
12712TIP3   OH238092   5.422   5.967   6.448  0.3921  0.3425  0.7734
12712TIP3    H138093   5.371   5.951   6.368  0.6756 -0.1118  0.6863
12712TIP3    H238094   5.388   6.051   6.480 -0.5284 -0.0240  0.8029
12713TIP3   OH238095   4.634   3.918   5.223  0.1718  0.2372  0.2944
12713TIP3    H138096   4.580   3.997   5.221 -0.0381  0.0890  0.0772
12713TIP3    H238097   4.691   3.926   5.146  1.5011  1.1172  1.3323
12714TIP3   OH238098   1.989   0.134   0.164  0.2672 -0.4486  0.3337
12714TIP3    H138099   2.071   0.112   0.120  0.7985 -0.2357  1.1766
12714TIP3    H238100   1.930   0.161   0.094  0.3957 -2.1141 -0.4640
12715TIP3   OH238101   3.166   3.662   2.882 -0.2919  0.2559  0.2512
12715TIP3    H138102   3.193   3.592   2.822 -2.9104 -0.5026 -0.1525
12715TIP3    H238103   3.086   3.697   2.844  0.4495  2.9157  0.9464
12716TIP3   OH238104   3.544   1.475   4.426  0.3337 -0.3561 -0.1545
12716TIP3    H138105   3.607   1.545   4.408 -0.2822 -0.1440 -1.6720
12716TIP3    H238106   3.467   1.499   4.373 -0.6126 -1.1637  0.8230
12717TIP3   OH238107   7.493   4.677   4.056 -0.6510 -0.4197  0.1364
12717TIP3    H138108   7.558   4.741   4.027  2.2676 -3.5253 -0.9066
12717TIP3    H238109   7.439   4.662   3.978 -1.1771  0.5275  0.3064
12718TIP3   OH238110   6.586   3.071   6.268  0.7112 -0.1653 -0.6136
12718TIP3    H138111   6.610   2.992   6.220  1.9451  0.5107 -1.1805
12718TIP3    H238112   6.493   3.061   6.287  0.7480 -1.5468 -1.0474
12719TIP3   OH238113   5.395   7.353   2.274 -0.5445 -0.5428 -0.2644
12719TIP3    H138114   5.445   7.328   2.352  0.4561  2.1957  0.0794
12719TIP3    H238115   5.311   7.384   2.308 -0.3777 -0.0181 -0.3212
12720TIP3   OH238116   7.232   2.014   4.881 -0.2240 -0.1426  0.1552
12720TIP3    H138117   7.181   2.009   4.962  0.1999  5.4662  1.1185
12720TIP3    H238118   7.167   2.000   4.812 -0.7500 -4.0930  1.1806
12721TIP3   OH238119   7.831   1.387   1.421  0.3040  0.3929 -0.3695
12721TIP3    H138120   7.902   1.370   1.483  1.2018 -1.4449 -1.7963
12721TIP3    H238121   7.752   1.390   1.475  1.2546  0.7555  1.0611
12722TIP3   OH238122   7.542   4.296   5.765 -0.2509 -0.1860 -0.3941
12722TIP3    H138123   7.475   4.360   5.742 -1.9594 -2.0377 -0.8026
12722TIP3    H238124   7.510   4.213   5.730 -0.1006 -2.0712  3.3640
12723TIP3   OH238125   4.980   3.328   5.011  0.0112 -0.2250 -0.3987
12723TIP3    H138126   4.919   3.255   5.003 -1.2129  0.7684 -0.4041
12723TIP3    H238127   4.928   3.399   5.047  1.2050  0.6235 -0.2881
12724TIP3   OH238128   5.253   6.870   4.487  0.6715 -0.0596  0.3132
12724TIP3    H138129   5.187   6.872   4.418 -0.0338 -2.4210  0.8395
12724TIP3    H238130   5.328   6.825   4.449  0.3920 -1.1045  0.9502
12725TIP3   OH238131   1.466   2.227   4.699 -0.3976 -0.3535  0.2386
12725TIP3    H138132   1.562   2.231   4.704 -0.2778 -1.6743 -0.4737
12725TIP3    H238133   1.445   2.266   4.614 -0.2834 -2.0093 -0.5989
12726TIP3   OH238134   2.438   1.333   1.719 -0.2222 -0.1761 -0.9458
12726TIP3    H138135   2.463   1.252   1.764  0.8184  0.3641 -0.5050
12726TIP3    H238136   2.521   1.381   1.711 -1.0618  1.5510  0.2400
12727TIP3   OH238137   1.344   4.412   4.821 -0.1423 -0.1003  0.2271
12727TIP3    H138138   1.332   4.335   4.875 -1.5844 -0.3856 -0.4469
12727TIP3    H238139   1.292   4.395   4.743  1.5852  0.4550 -1.1118
12728TIP3   OH238140   1.180   4.612   1.982  0.4090  0.3125  0.1865
12728TIP3    H138141   1.226   4.606   2.065 -0.6473  0.5394  0.7996
12728TIP3    H238142   1.248   4.636   1.919  1.5473 -1.5246  0.6517
12729TIP3   OH238143   2.312   7.201   3.728 -0.3381  0.6314 -0.1055
12729TIP3    H138144   2.337   7.124   3.780 -2.1367  1.0716  1.5662
12729TIP3    H238145   2.288   7.266   3.794 -2.0972  1.4556 -1.4892
12730TIP3   OH238146   5.959   2.791   6.163  0.2250  0.0447 -0.2482
12730TIP3    H138147   6.013   2.728   6.115  0.1177  0.6172 -1.1464
12730TIP3    H238148   5.869   2.762   6.148  0.1663  0.5111 -0.8147
12731TIP3   OH238149   1.699   6.624   0.032 -0.1756  0.3504 -0.1589
12731TIP3    H138150   1.768   6.636  -0.033 -0.9007  0.5506 -0.8963
12731TIP3    H238151   1.711   6.534   0.063  1.0101  0.6850  0.4314
12732TIP3   OH238152   3.923   7.190   4.203  0.0314 -0.2512 -0.2365
12732TIP3    H138153   3.879   7.116   4.160 -0.6023  0.0356 -0.0923
12732TIP3    H238154   3.916   7.261   4.140 -0.3925  0.0102  0.1024
12733TIP3   OH238155   3.540   6.892   4.604  0.1182 -0.0955 -0.2300
12733TIP3    H138156   3.578   6.978   4.583  0.0718  0.1423  0.6235
12733TIP3    H238157   3.565   6.877   4.695  0.0493 -0.9532 -0.3520
12734TIP3   OH238158   4.961   5.402   5.244  0.3853  0.3223 -0.4692
12734TIP3    H138159   4.981   5.321   5.291  1.1713  0.3463 -0.7351
12734TIP3    H238160   4.980   5.381   5.153 -0.1693  0.5747 -0.6441
12735TIP3   OH238161   7.166   0.164   6.598  0.3068  0.1012 -0.1797
12735TIP3    H138162   7.134   0.155   6.509 -1.4282  0.6808  0.3568
12735TIP3    H238163   7.248   0.115   6.599 -1.2165 -2.6771 -1.2537
12736TIP3   OH238164   2.353   0.472   2.845  0.6860  0.5916 -0.1077
12736TIP3    H138165   2.324   0.395   2.796  1.1286  0.9064 -0.8830
12736TIP3    H238166   2.348   0.446   2.937 -0.5295  0.1152 -0.2953
12737TIP3   OH238167   7.721   1.740   2.247  0.3188 -0.1875  0.0953
12737TIP3    H138168   7.724   1.822   2.197  0.8504 -0.8686 -1.0508
12737TIP3    H238169   7.812   1.719   2.264  0.1246  0.4180  2.0827
12738TIP3   OH238170   5.414   0.384   0.213 -0.2279 -0.3749  0.6288
12738TIP3    H138171   5.362   0.326   0.268  0.7146 -0.9318  0.9567
12738TIP3    H238172   5.389   0.362   0.124 -0.6153 -0.5584  0.7791
12739TIP3   OH238173   2.150   2.520   4.625 -0.3377  0.0084  0.4907
12739TIP3    H138174   2.187   2.459   4.688  1.7181  0.3979 -0.2458
12739TIP3    H238175   2.189   2.605   4.649 -2.4408  0.9042  0.9542
12740TIP3   OH238176   4.789   0.498   4.460  0.3954  0.4940  0.1105
12740TIP3    H138177   4.758   0.579   4.501  1.1464 -0.1137  1.9650
12740TIP3    H238178   4.721   0.434   4.478  1.6322 -0.3028  2.3410
12741TIP3   OH238179   0.172   3.598   4.021 -0.4174  0.2694  0.3389
12741TIP3    H138180   0.219   3.661   4.075  0.3503  0.2369 -0.2828
12741TIP3    H238181   0.238   3.564   3.961 -1.2138  0.1417 -0.4781
12742TIP3   OH238182   6.420   0.801   1.023  0.0050  0.2305 -0.1819
12742TIP3    H138183   6.413   0.707   1.005 -1.2509  0.1418  0.6578
12742TIP3    H238184   6.340   0.822   1.071  1.2270  1.3106  1.4728
12743TIP3   OH238185   8.231   1.777   4.926 -0.5326 -0.2718  0.5986
12743TIP3    H138186   8.156   1.720   4.945  0.0514 -0.9060  1.0567
12743TIP3    H238187   8.192   1.857   4.890 -1.3072 -1.4215 -1.2465
12744TIP3   OH238188   2.635   1.726   5.006 -0.0109  0.5376  0.7021
12744TIP3    H138189   2.632   1.814   5.044 -1.5710  0.1618  1.5595
12744TIP3    H238190   2.669   1.739   4.917  0.4267  1.9049  1.0470
12745TIP3   OH238191   7.328   4.989   1.670  0.3078  0.0586  0.3386
12745TIP3    H138192   7.237   4.974   1.644  0.3941 -1.1635  0.6630
12745TIP3    H238193   7.345   4.923   1.738  1.1353  0.9272  1.0097
12746TIP3   OH238194   7.698   7.463   5.870  0.7636  0.1784  0.1046
12746TIP3    H138195   7.716   7.459   5.776  1.8512  1.5539  0.2276
12746TIP3    H238196   7.603   7.451   5.877  0.6960 -0.0790 -1.1625
12747TIP3   OH238197   0.992   5.057   6.136  0.2111  0.1936 -0.1275
12747TIP3    H138198   0.977   5.108   6.056 -0.9412 -2.0939 -1.4623
12747TIP3    H238199   1.084   5.032   6.132 -0.4006 -2.1077 -2.2300
12748TIP3   OH238200   0.105   4.073   5.906 -0.3247  0.1287 -0.0675
12748TIP3    H138201   0.054   4.117   5.838  2.2169  0.9368 -1.5908
12748TIP3    H238202   0.082   3.980   5.896 -0.1319  0.2373 -1.9786
12749TIP3   OH238203   1.312   1.687   5.073  0.0258  0.1478 -0.7052
12749TIP3    H138204   1.385   1.690   5.135  1.0273  0.1505 -1.8599
12749TIP3    H238205   1.351   1.660   4.990 -1.3931 -0.4423 -1.2104
12750TIP3   OH238206   0.694   1.738   0.531  0.5285 -0.6086 -0.0075
12750TIP3    H138207   0.673   1.772   0.444  1.5493  0.6833  0.2081
12750TIP3    H238208   0.645   1.657   0.538  0.4121 -0.7280 -1.7836
12751TIP3   OH238209   7.693   2.748   5.414  0.1430  0.3640  0.6767
12751TIP3    H138210   7.617   2.787   5.458 -0.9278 -1.8931  1.0030
12751TIP3    H238211   7.682   2.654   5.428  1.6216 -0.2090 -1.5223
12752TIP3   OH238212   4.057   3.239   4.909  0.3538 -0.0550  0.0245
12752TIP3    H138213   4.086   3.302   4.843  1.0494 -0.1296  0.2490
12752TIP3    H238214   3.962   3.244   4.907  0.3998  1.6207  0.6272
12753TIP3   OH238215   7.907   0.767   0.950 -0.2944 -0.1913 -0.2911
12753TIP3    H138216   7.994   0.806   0.959  0.0481 -0.9799 -0.1280
12753TIP3    H238217   7.869   0.810   0.873  1.5052 -2.1330 -2.4006
12754TIP3   OH238218   0.942   3.693   4.665  0.1278 -0.1097 -0.5817
12754TIP3    H138219   1.003   3.625   4.638  1.0223 -0.2744  1.7100
12754TIP3    H238220   0.896   3.657   4.741  1.0788  1.9907  1.0952
12755TIP3   OH238221   2.873   5.899   5.770  0.0395 -0.0298  0.1908
12755TIP3    H138222   2.865   5.839   5.844  1.4114 -0.7306 -0.1869
12755TIP3    H238223   2.807   5.869   5.707 -1.0246  0.4740  1.0475
12756TIP3   OH238224   2.559   0.805   4.700 -0.3576 -0.4434  0.1686
12756TIP3    H138225   2.597   0.792   4.787 -0.1127 -0.3241  0.0811
12756TIP3    H238226   2.492   0.872   4.712  1.6684  1.8002 -0.2449
12757TIP3   OH238227   4.302   2.338   3.217 -0.4458  0.2435  0.4080
12757TIP3    H138228   4.387   2.353   3.258  0.7944 -0.9847 -1.5283
12757TIP3    H238229   4.274   2.424   3.185 -0.8912  0.9997  2.6697
12758TIP3   OH238230   2.832   0.685   1.768 -0.4637 -0.3370  0.5054
12758TIP3    H138231   2.745   0.702   1.730 -1.2673 -0.7205  2.0713
12758TIP3    H238232   2.858   0.768   1.807  1.1673  0.5673 -2.2815
12759TIP3   OH238233   2.949   0.545   0.986  0.0680 -0.0504  0.0270
12759TIP3    H138234   2.892   0.582   0.919 -0.0508  0.0846  0.2022
12759TIP3    H238235   2.937   0.601   1.062  0.4423 -0.0147  0.0652
12760TIP3   OH238236   1.378   5.298   0.373  0.4913  0.1097  0.2279
12760TIP3    H138237   1.347   5.248   0.297 -0.2583  0.0924  0.5317
12760TIP3    H238238   1.305   5.296   0.435  1.3198 -0.3829  1.2143
12761TIP3   OH238239   2.996   7.254   6.639  0.3762 -0.2507 -0.3520
12761TIP3    H138240   2.959   7.313   6.705 -0.0073 -1.6764  0.7403
12761TIP3    H238241   2.993   7.305   6.558 -2.0662  0.4339  0.0946
12762TIP3   OH238242   6.027   1.897   4.474 -0.2655 -0.0573 -0.0264
12762TIP3    H138243   6.057   1.814   4.438  2.5157  1.5987 -1.8264
12762TIP3    H238244   6.034   1.959   4.402  0.8491  2.4185  2.0414
12763TIP3   OH238245   1.270   3.717   4.277 -0.0702  0.2100 -0.2227
12763TIP3    H138246   1.241   3.786   4.336 -1.7804 -1.1408  0.6157
12763TIP3    H238247   1.304   3.649   4.335 -1.4606 -0.9938 -0.7644
12764TIP3   OH238248   4.937   6.990   3.821 -0.8224 -0.0153  0.3346
12764TIP3    H138249   4.951   7.085   3.819  1.2517 -0.3033 -1.1920
12764TIP3    H238250   4.894   6.971   3.738  0.3650 -0.5975 -0.1675
12765TIP3   OH238251   0.046   5.785   2.464 -0.9882 -0.0126  0.1959
12765TIP3    H138252  -0.031   5.833   2.493 -1.0601  0.4146 -0.6676
12765TIP3    H238253   0.030   5.767   2.372 -1.3573 -2.5102  0.6794
12766TIP3   OH238254   0.774   0.695   4.359 -0.1098 -0.0309 -0.1801
12766TIP3    H138255   0.785   0.665   4.449 -0.7819 -1.4606 -0.5355
12766TIP3    H238256   0.858   0.733   4.335  0.3360 -0.3834  0.7837
12767TIP3   OH238257   7.465   6.447   3.718  0.3634 -0.1391 -0.2324
12767TIP3    H138258   7.464   6.461   3.813  1.8737  0.6389 -0.3000
12767TIP3    H238259   7.416   6.520   3.682 -0.4245 -0.5697 -0.0404
12768TIP3   OH238260   5.518   6.762   0.673  0.2053  0.4598 -0.2040
12768TIP3    H138261   5.485   6.812   0.748  0.3227 -0.1226  0.2421
12768TIP3    H238262   5.504   6.820   0.598 -1.1843  0.5101  0.0666
12769TIP3   OH238263   0.868   5.031   5.841  0.2863 -0.0764  0.1263
12769TIP3    H138264   0.891   5.122   5.854  0.7037 -0.2741  0.8322
12769TIP3    H238265   0.774   5.027   5.858  0.0676  0.4002 -0.9273
12770TIP3   OH238266   6.056   5.934   0.396 -0.2509  0.1601  0.4334
12770TIP3    H138267   6.086   5.906   0.482 -1.1368  3.0736  1.8459
12770TIP3    H238268   5.962   5.916   0.397  0.1813 -2.6914 -1.2762
12771TIP3   OH238269   6.412   1.642   4.424 -0.6957  0.1945  0.2707
12771TIP3    H138270   6.428   1.680   4.337 -0.1549 -0.6114  0.0063
12771TIP3    H238271   6.468   1.564   4.426 -1.4790 -0.3557  0.9553
12772TIP3   OH238272   5.113   2.984   4.924 -0.0311 -1.0950 -0.3285
12772TIP3    H138273   5.021   3.012   4.925  0.3319  0.6187  3.4550
12772TIP3    H238274   5.156   3.045   4.865 -1.1505 -1.2955 -1.3813
12773TIP3   OH238275   6.893   3.068   1.400 -0.1637 -0.3871  0.2774
12773TIP3    H138276   6.984   3.071   1.428 -0.5173  0.2549  1.4337
12773TIP3    H238277   6.897   3.055   1.306  1.0838 -2.4201  0.5715
12774TIP3   OH238278   0.637   6.086   1.640  0.3432  0.7656  0.3552
12774TIP3    H138279   0.561   6.043   1.679  0.2891  0.1681 -0.3924
12774TIP3    H238280   0.600   6.156   1.586  0.3944  1.2548  0.9369
12775TIP3   OH238281   1.599   1.921   3.801  0.4910 -0.1177 -0.3525
12775TIP3    H138282   1.537   1.870   3.854  1.1156 -0.2413  0.2814
12775TIP3    H238283   1.651   1.856   3.755  1.7681 -0.1098  1.0094
12776TIP3   OH238284   2.404   5.893   1.153  0.3068  0.3596 -0.0448
12776TIP3    H138285   2.432   5.918   1.064 -0.6168 -1.4102 -0.8860
12776TIP3    H238286   2.475   5.924   1.209  0.0890  3.1512 -1.1406
12777TIP3   OH238287   5.301   7.087   4.805  0.0547  0.6962  0.1536
12777TIP3    H138288   5.350   7.044   4.875 -1.5664 -1.2348  0.2170
12777TIP3    H238289   5.239   7.020   4.775 -0.0159  1.7983 -2.4340
12778TIP3   OH238290   1.371   6.652   3.233 -0.1954 -0.1237 -0.0866
12778TIP3    H138291   1.451   6.694   3.264 -0.3490  0.3487 -0.3278
12778TIP3    H238292   1.312   6.655   3.308  0.4616 -1.6766  0.5306
12779TIP3   OH238293   1.589   7.329   6.057 -0.2476  0.3623  0.3247
12779TIP3    H138294   1.620   7.310   6.146 -0.9450 -2.3335  0.0852
12779TIP3    H238295   1.654   7.289   6.000 -1.3374 -0.6249 -0.2711
12780TIP3   OH238296   5.481   5.084   0.439  0.0705 -0.1515 -0.0994
12780TIP3    H138297   5.550   5.054   0.498 -0.0169 -0.8836 -0.3603
12780TIP3    H238298   5.402   5.040   0.470 -0.1218  0.0472 -0.3049
12781TIP3   OH238299   1.497   7.759   5.513  0.0631  0.3791  0.1617
12781TIP3    H138300   1.436   7.718   5.575  2.2157  0.8521  2.7651
12781TIP3    H238301   1.488   7.853   5.529  0.1661  0.5625 -0.7867
12782TIP3   OH238302   1.238   5.038   0.573  0.0466 -0.2276  0.0466
12782TIP3    H138303   1.273   5.027   0.485 -1.8892 -0.2364 -0.7665
12782TIP3    H238304   1.180   5.114   0.567 -0.2644 -0.3480  1.2515
12783TIP3   OH238305   6.106   0.673   2.767 -0.5207  0.5366  0.2188
12783TIP3    H138306   6.117   0.670   2.862 -2.0104  1.6819  0.4714
12783TIP3    H238307   6.172   0.613   2.733  0.7877  0.9617  1.9028
12784TIP3   OH238308   5.126   7.524   4.642  0.0526  0.4182 -0.0760
12784TIP3    H138309   5.182   7.466   4.589 -0.9277  0.9491 -1.7968
12784TIP3    H238310   5.052   7.545   4.584 -0.5006  1.9829  1.1237
12785TIP3   OH238311   3.867   1.772   3.655  0.5331  0.4923 -0.0328
12785TIP3    H138312   3.792   1.798   3.600  0.5035  2.4841  0.8543
12785TIP3    H238313   3.941   1.819   3.618  0.6383  1.3420  1.1834
12786TIP3   OH238314   6.593   3.513   5.978 -0.1223 -0.4654  0.4065
12786TIP3    H138315   6.515   3.461   5.957  0.7344 -1.3109 -0.8342
12786TIP3    H238316   6.652   3.498   5.903  1.5468 -0.4872  1.6733
12787TIP3   OH238317   2.374   4.767   0.686 -0.7787  0.2077 -0.1126
12787TIP3    H138318   2.387   4.861   0.676  0.0504  0.3557  1.8457
12787TIP3    H238319   2.279   4.754   0.677 -0.9000  1.2328 -0.3733
12788TIP3   OH238320   3.052   2.810   6.261  0.2627 -0.1606 -0.4737
12788TIP3    H138321   3.045   2.902   6.238  0.4761 -0.2159 -0.7669
12788TIP3    H238322   3.143   2.787   6.241 -0.0502 -0.6893 -1.3655
12789TIP3   OH238323   7.792   3.358   6.304  0.0871  0.1649 -0.4279
12789TIP3    H138324   7.753   3.288   6.356  0.9454  0.4478  0.6269
12789TIP3    H238325   7.792   3.434   6.361  1.1536  0.4576 -0.7790
12790TIP3   OH238326   2.474   7.229   5.798 -0.0082  1.1898  0.0614
12790TIP3    H138327   2.456   7.136   5.782  1.5264  1.0825 -1.3806
12790TIP3    H238328   2.387   7.268   5.811 -0.6736 -0.4531  0.9073
12791TIP3   OH238329   0.700   5.171   5.144  0.8872  0.2009  0.3176
12791TIP3    H138330   0.766   5.201   5.081  1.2986  1.5555  1.3448
12791TIP3    H238331   0.618   5.211   5.114  0.5437 -1.2608 -0.8019
12792TIP3   OH238332   1.220   0.936   3.888  0.3368 -0.2953  0.2022
12792TIP3    H138333   1.151   0.878   3.921 -0.1483  1.2816  2.2430
12792TIP3    H238334   1.215   0.928   3.793 -2.9949 -0.0039  0.2094
12793TIP3   OH238335   7.406   0.292   0.201  0.0619  0.0796 -0.4361
12793TIP3    H138336   7.473   0.343   0.156  0.4399  0.0293  0.0704
12793TIP3    H238337   7.428   0.298   0.294 -0.6008  0.0140 -0.2656
12794TIP3   OH238338   2.556   2.418   4.108  0.1370 -0.7010  0.3209
12794TIP3    H138339   2.552   2.431   4.013 -0.2096 -0.0964  0.4130
12794TIP3    H238340   2.554   2.323   4.119  2.1436 -0.8662 -0.3505
12795TIP3   OH238341   6.120   4.547   5.828  0.2575  0.0022  0.2272
12795TIP3    H138342   6.197   4.596   5.854 -0.3911  1.5535 -0.6516
12795TIP3    H238343   6.109   4.481   5.897  2.0716  0.0312  0.6071
12796TIP3   OH238344   4.668   7.534   1.448  0.3460  0.1914 -0.0847
12796TIP3    H138345   4.622   7.555   1.529 -1.0334 -1.2309 -0.4544
12796TIP3    H238346   4.700   7.445   1.461  1.2396  0.4304 -0.6175
12797TIP3   OH238347   0.790   1.858   6.446  0.0117 -0.2149 -0.0403
12797TIP3    H138348   0.730   1.928   6.422 -2.1427 -1.2657  1.8571
12797TIP3    H238349   0.776   1.791   6.378 -1.5482 -0.7104  0.7051
12798TIP3   OH238350   6.488   0.905   0.285 -0.0917  0.5263 -0.2907
12798TIP3    H138351   6.565   0.939   0.330  0.0666  1.9274 -1.5561
12798TIP3    H238352   6.516   0.821   0.249 -0.0322 -0.3280  1.6023
12799TIP3   OH238353   3.569   7.641   2.967  0.6414 -0.0479 -0.1443
12799TIP3    H138354   3.540   7.675   3.052  1.7925 -1.7049  0.9587
12799TIP3    H238355   3.516   7.562   2.954 -0.5732  0.9743 -1.7078
12800TIP3   OH238356   0.476   2.695   4.230 -0.8776  0.2153 -0.9386
12800TIP3    H138357   0.515   2.632   4.169  0.3201  2.1932 -2.3522
12800TIP3    H238358   0.536   2.696   4.305 -1.3783 -0.9139 -0.4989
12801TIP3   OH238359   8.240   4.170   2.438 -0.4914  0.2678 -0.5774
12801TIP3    H138360   8.216   4.240   2.498 -1.5435  0.2916 -1.0032
12801TIP3    H238361   8.226   4.207   2.351  1.2920  0.3342 -0.8872
12802TIP3   OH238362   5.699   7.317   5.301  0.0108 -0.7849 -0.4333
12802TIP3    H138363   5.636   7.326   5.371 -0.5438 -1.0425 -0.8914
12802TIP3    H238364   5.782   7.344   5.340 -0.5805  0.7772 -0.1734
12803TIP3   OH238365   1.326   2.589   4.581 -0.2177  0.4174  0.6646
12803TIP3    H138366   1.328   2.681   4.557 -1.2236  0.3878  0.4036
12803TIP3    H238367   1.369   2.544   4.509  0.1241  0.6670  0.7115
12804TIP3   OH238368   3.429   3.390   0.594 -0.1970 -0.5806 -0.2266
12804TIP3    H138369   3.461   3.479   0.612  0.7196 -0.8099 -0.6822
12804TIP3    H238370   3.465   3.368   0.508 -0.2343 -1.4773 -0.0226
12805TIP3   OH238371   4.901   6.535   3.580  0.2988 -0.1424 -0.2884
12805TIP3    H138372   4.931   6.456   3.627 -1.3258  0.7190  2.4702
12805TIP3    H238373   4.823   6.506   3.533 -0.4127 -0.2108  0.8803
12806TIP3   OH238374   6.028   1.885   0.548 -0.2321 -0.0377 -0.1908
12806TIP3    H138375   5.997   1.825   0.481 -0.5637  0.9743 -0.9738
12806TIP3    H238376   5.969   1.961   0.542  0.0476  0.2921  0.8963
12807TIP3   OH238377   2.993   0.761   0.359 -0.3264 -0.1635  0.1639
12807TIP3    H138378   2.950   0.803   0.285  0.6331  1.7175  0.6216
12807TIP3    H238379   3.028   0.680   0.324 -0.1605  0.5396 -1.3658
12808TIP3   OH238380   3.726   5.340   5.742 -0.7780  0.0668 -0.3266
12808TIP3    H138381   3.666   5.358   5.815  0.7827 -0.6948  1.2266
12808TIP3    H238382   3.715   5.247   5.725  1.5595 -0.6714  1.6121
12809TIP3   OH238383   4.481   5.826   0.199 -0.4206 -0.0223  0.5629
12809TIP3    H138384   4.389   5.833   0.225  0.0328  1.9458  1.8371
12809TIP3    H238385   4.530   5.861   0.273  1.2856  0.2081 -0.6094
12810TIP3   OH238386   5.450   7.563   5.284 -0.1426  0.5204  0.1021
12810TIP3    H138387   5.488   7.576   5.197  1.1497 -1.8329  0.2428
12810TIP3    H238388   5.357   7.584   5.273  0.4596  2.7948 -1.1690
12811TIP3   OH238389   5.264   5.014   2.867 -0.1154  0.4485 -0.6625
12811TIP3    H138390   5.238   4.957   2.940 -0.8779  1.7112  0.0831
12811TIP3    H238391   5.181   5.042   2.828  0.2492 -1.6895 -3.2772
12812TIP3   OH238392   4.029   1.949   1.225  0.1005 -0.0180  0.1778
12812TIP3    H138393   4.090   1.886   1.187  2.0691  1.8114  0.1360
12812TIP3    H238394   4.067   2.035   1.206 -2.4586  1.2364  0.2580
12813TIP3   OH238395   4.432   3.338   3.964 -0.4787  0.0792 -0.7803
12813TIP3    H138396   4.363   3.272   3.960 -2.1887  1.6250  1.2089
12813TIP3    H238397   4.501   3.296   4.016 -1.0422 -0.5616 -0.5255
12814TIP3   OH238398   2.963   4.248   5.283 -0.1060 -0.3428  0.0493
12814TIP3    H138399   2.946   4.155   5.295  1.5610 -0.6417  0.4486
12814TIP3    H238400   3.049   4.251   5.240 -1.5776  0.9556 -3.1330
12815TIP3   OH238401   7.637   7.208   5.131 -0.2131 -0.3579 -0.6216
12815TIP3    H138402   7.672   7.289   5.093  3.1085 -0.8012  1.1219
12815TIP3    H238403   7.694   7.139   5.097 -0.5083 -1.4229  0.9310
12816TIP3   OH238404   4.702   1.456   4.834 -0.1700 -0.0980  0.1342
12816TIP3    H138405   4.700   1.362   4.849  1.6494  0.1900  2.8091
12816TIP3    H238406   4.641   1.491   4.900 -0.4043  0.6329 -0.4669
12817TIP3   OH238407   6.784   1.383   1.726  0.3185 -0.0446 -0.2374
12817TIP3    H138408   6.858   1.359   1.781  1.8851 -1.2851 -2.7129
12817TIP3    H238409   6.751   1.299   1.692 -1.5387  0.5715 -0.1076
12818TIP3   OH238410   2.766   6.056   0.223  0.0510  0.0284  0.1376
12818TIP3    H138411   2.745   5.967   0.252 -1.4269  0.7032  1.2584
12818TIP3    H238412   2.735   6.059   0.132 -1.1457 -0.1957  0.5251
12819TIP3   OH238413   2.295   7.613   0.066 -0.1743 -0.2198  0.0972
12819TIP3    H138414   2.222   7.551   0.070  0.2172 -0.9726 -2.4493
12819TIP3    H238415   2.373   7.557   0.065  0.2887  0.4184 -0.2221
12820TIP3   OH238416   8.170   2.430   6.218  0.4582 -0.1217  0.4352
12820TIP3    H138417   8.219   2.436   6.136  2.6879 -0.2188  1.6716
12820TIP3    H238418   8.156   2.521   6.244 -0.2095 -0.0915  0.0113
12821TIP3   OH238419   7.542   2.258   1.232  0.0603  0.0479  0.4359
12821TIP3    H138420   7.560   2.346   1.262  0.8245  0.5297 -1.2968
12821TIP3    H238421   7.454   2.263   1.194 -0.2639 -0.1782  1.1349
12822TIP3   OH238422   4.291   1.466   6.134  0.3979  0.2787 -0.2097
12822TIP3    H138423   4.377   1.433   6.158 -0.3207 -1.7676 -0.2683
12822TIP3    H238424   4.237   1.388   6.122 -1.5448  1.4934  0.0499
12823TIP3   OH238425   0.660   4.391   0.972 -0.1401  0.0300 -0.2895
12823TIP3    H138426   0.649   4.477   0.931  1.9070  1.2464  1.4972
12823TIP3    H238427   0.742   4.357   0.937 -0.2609 -0.6125  0.0249
12824TIP3   OH238428   1.714   4.088   1.835 -0.0402  0.4962  0.0251
12824TIP3    H138429   1.749   4.175   1.819  0.6927  0.3522  0.7764
12824TIP3    H238430   1.622   4.093   1.809  0.6004  0.7707 -2.3908
12825TIP3   OH238431   0.344   4.767   4.094 -0.0086 -0.2321 -0.2222
12825TIP3    H138432   0.264   4.718   4.075 -0.3416  0.3877 -0.4457
12825TIP3    H238433   0.365   4.812   4.012  0.7601 -0.6541 -0.2674
12826TIP3   OH238434   7.799   7.756   2.545  0.3743  0.0899  0.3354
12826TIP3    H138435   7.807   7.729   2.453 -0.7500 -1.1711  0.5751
12826TIP3    H238436   7.756   7.682   2.588 -2.1807  1.9455  1.2146
12827TIP3   OH238437   3.138   1.868   4.639 -0.1151 -0.6044  0.4390
12827TIP3    H138438   3.070   1.853   4.573 -0.4773  0.7175  0.4840
12827TIP3    H238439   3.110   1.948   4.684  0.7437 -0.8279  1.4067
12828TIP3   OH238440   8.073   5.114   2.454  0.2950 -0.0094 -0.0225
12828TIP3    H138441   8.016   5.082   2.524  0.6715  0.4432  0.5026
12828TIP3    H238442   8.013   5.145   2.386 -0.1183  1.0926  0.8053
12829TIP3   OH238443   2.730   5.125   2.875 -0.3171 -0.2454 -0.4569
12829TIP3    H138444   2.794   5.110   2.805 -2.5129  0.3946 -2.7371
12829TIP3    H238445   2.713   5.219   2.873 -1.5066 -0.4330 -0.0882
12830TIP3   OH238446   6.439   1.064   2.103  0.2905  0.4608  0.1661
12830TIP3    H138447   6.361   1.098   2.147 -0.1072 -0.0313 -0.1424
12830TIP3    H238448   6.484   1.012   2.170 -0.3684 -0.3757 -0.0235
12831TIP3   OH238449   1.590   0.114   3.748  0.2446 -0.1434  0.2560
12831TIP3    H138450   1.555   0.191   3.795 -0.8466 -0.0983 -0.6005
12831TIP3    H238451   1.534   0.042   3.776 -1.4494  0.1595 -2.1031
12832TIP3   OH238452   6.136   7.254   5.689 -0.2148 -0.1609 -0.0098
12832TIP3    H138453   6.048   7.241   5.724 -1.1587  0.6162 -1.9393
12832TIP3    H238454   6.150   7.349   5.695  0.8398 -0.3645  1.0243
12833TIP3   OH238455   3.442   6.363   3.000 -0.2428 -0.5643 -0.1343
12833TIP3    H138456   3.487   6.353   3.084  0.7799 -0.0602 -0.6060
12833TIP3    H238457   3.508   6.342   2.934 -0.1176  1.9041 -0.9104
12834TIP3   OH238458   1.652   6.976   2.293  0.1587 -0.5667 -0.7338
12834TIP3    H138459   1.591   6.939   2.357  0.1613 -0.0909 -0.4502
12834TIP3    H238460   1.633   7.070   2.293  1.5995 -0.2265  0.1567
12835TIP3   OH238461   3.901   5.748   4.692  0.2984 -0.5021  0.0617
12835TIP3    H138462   3.813   5.772   4.662  0.4050 -0.0512  0.0959
12835TIP3    H238463   3.910   5.790   4.778  1.0298  0.5858 -0.5168
12836TIP3   OH238464   2.789   4.939   6.647 -0.3488  0.5101  0.0036
12836TIP3    H138465   2.771   4.923   6.554 -0.2090 -0.3511  0.1106
12836TIP3    H238466   2.711   4.983   6.680 -0.7777  0.0197 -0.3315
12837TIP3   OH238467   6.880   5.325   1.193  0.4194  0.1874  0.1426
12837TIP3    H138468   6.953   5.362   1.142  0.7872  1.6220  1.6549
12837TIP3    H238469   6.914   5.318   1.282 -2.0130  3.3643  1.5225
12838TIP3   OH238470   5.891   2.689   4.095  0.0580  0.1898  0.1273
12838TIP3    H138471   5.970   2.718   4.140 -0.3165  2.6947 -0.6253
12838TIP3    H238472   5.921   2.660   4.009  0.1457  1.8844 -0.4496
12839TIP3   OH238473   5.297   5.100   0.168  0.4589 -0.0161 -0.3665
12839TIP3    H138474   5.215   5.098   0.119  0.6204  0.4276 -0.6654
12839TIP3    H238475   5.332   5.011   0.161 -1.0899 -0.8533  1.6789
12840TIP3   OH238476   2.066   3.091   0.268  0.5189 -0.0266  0.0341
12840TIP3    H138477   2.058   3.076   0.362  0.1180  0.8235  0.1459
12840TIP3    H238478   1.994   3.042   0.229 -0.3410  0.9525  0.3307
12841TIP3   OH238479   1.769   0.878   3.525 -0.3159  0.2082  0.8748
12841TIP3    H138480   1.817   0.854   3.445 -1.1242 -0.3723  0.5425
12841TIP3    H238481   1.783   0.804   3.584 -2.2993 -0.8798  0.0817
12842TIP3   OH238482   2.719   3.629   4.316 -0.3347  0.4608 -0.2918
12842TIP3    H138483   2.810   3.615   4.293 -0.4391  0.8805 -0.9587
12842TIP3    H238484   2.671   3.563   4.267 -0.7730  2.6402 -3.0190
12843TIP3   OH238485   2.131   7.560   1.312  1.1061 -0.0662  0.2744
12843TIP3    H138486   2.145   7.600   1.226 -1.6781  1.7444  0.5071
12843TIP3    H238487   2.043   7.522   1.306  1.5835 -1.5226  1.7880
12844TIP3   OH238488   0.987   5.112   3.741  0.6355 -0.1158 -0.1973
12844TIP3    H138489   1.015   5.185   3.796  1.8436  0.8287 -1.9715
12844TIP3    H238490   1.039   5.038   3.771 -0.1817 -0.1578  1.2353
12845TIP3   OH238491   4.020   1.520   6.440 -0.1373  0.1225 -0.1470
12845TIP3    H138492   4.058   1.433   6.449  0.0840  0.3195  0.9351
12845TIP3    H238493   3.977   1.537   6.524 -0.8379  0.7509 -0.6159
12846TIP3   OH238494   1.528   3.137   4.263 -0.1335  0.6697  0.1812
12846TIP3    H138495   1.478   3.087   4.198  0.3792  1.5523 -0.9366
12846TIP3    H238496   1.571   3.071   4.316  0.5758 -0.0967 -1.2976
12847TIP3   OH238497   6.660   5.686   2.994  0.0137 -0.3390 -0.0210
12847TIP3    H138498   6.711   5.743   2.936  0.8269 -2.6372 -1.7664
12847TIP3    H238499   6.726   5.642   3.048 -0.5597  0.0279  1.0115
12848TIP3   OH238500   0.186   0.518   5.318 -0.0775 -0.3115 -0.3846
12848TIP3    H138501   0.183   0.525   5.413  1.1246  1.0440 -0.4150
12848TIP3    H238502   0.110   0.464   5.296 -1.5079  0.9466  1.1892
12849TIP3   OH238503   6.803   7.753   0.475 -0.2459  0.0298 -0.0893
12849TIP3    H138504   6.832   7.690   0.409 -0.8014 -2.8338  2.1964
12849TIP3    H238505   6.876   7.759   0.536 -0.1921  1.7333 -0.2557
12850TIP3   OH238506   3.977   2.573   2.019  0.3393  0.5526  0.2879
12850TIP3    H138507   3.942   2.484   2.028  0.1242  0.7908  2.2084
12850TIP3    H238508   3.962   2.595   1.927 -1.9851 -0.4197  0.3668
12851TIP3   OH238509   3.300   1.402   5.106  0.1489  0.5644 -0.7445
12851TIP3    H138510   3.209   1.412   5.133 -0.4702  1.4188 -2.9025
12851TIP3    H238511   3.351   1.413   5.186 -1.6368  0.1962  0.4778
12852TIP3   OH238512   0.336   6.600   3.026  0.2161  0.3336  0.6950
12852TIP3    H138513   0.401   6.651   2.978 -0.1429  1.2229  1.1283
12852TIP3    H238514   0.357   6.509   3.006  1.6518  0.5947  0.9115
12853TIP3   OH238515   6.365   1.975   2.254  0.4222 -0.4206 -0.0142
12853TIP3    H138516   6.343   2.050   2.310  0.5656 -0.0029 -0.5045
12853TIP3    H238517   6.405   2.015   2.177 -0.1033 -0.9656 -0.5710
12854TIP3   OH238518   7.167   2.512   4.882 -0.7832 -0.1048  0.0097
12854TIP3    H138519   7.141   2.501   4.790 -1.3596  1.6152 -0.0581
12854TIP3    H238520   7.161   2.423   4.918  0.1971 -0.9739 -1.7801
12855TIP3   OH238521   4.674   1.794   1.549 -0.1118  0.3077  0.3106
12855TIP3    H138522   4.594   1.745   1.532 -1.2570  2.1666  0.1078
12855TIP3    H238523   4.704   1.823   1.463 -0.4559  1.4250  0.5412
12856TIP3   OH238524   1.694   2.813   0.387 -0.5772 -0.0276 -0.0283
12856TIP3    H138525   1.658   2.727   0.363 -1.3043 -1.0639  4.0150
12856TIP3    H238526   1.617   2.868   0.400 -0.5110 -0.4333  2.5770
12857TIP3   OH238527   6.075   4.506   4.627 -0.4594 -0.7577 -0.3343
12857TIP3    H138528   6.155   4.557   4.644 -0.2049 -0.6707 -1.6408
12857TIP3    H238529   6.101   4.415   4.643 -0.1493 -0.7065 -0.5167
12858TIP3   OH238530   6.269   0.636   2.282  0.0286 -0.8256  0.0652
12858TIP3    H138531   6.361   0.646   2.308 -0.1438 -0.6564  0.6268
12858TIP3    H238532   6.238   0.726   2.269  0.0624 -0.8989 -0.5779
12859TIP3   OH238533   5.219   1.054   4.934  0.4900 -0.4163  0.2401
12859TIP3    H138534   5.237   1.146   4.918 -0.6524 -0.2902 -0.4134
12859TIP3    H238535   5.201   1.049   5.028 -2.0138  0.5129 -0.1227
12860TIP3   OH238536   5.664   6.370   3.740  0.0700 -0.0780 -0.0972
12860TIP3    H138537   5.720   6.427   3.687  0.2759  1.0173  1.2323
12860TIP3    H238538   5.724   6.309   3.782 -0.0283 -0.5421 -0.6128
12861TIP3   OH238539   5.679   6.574   1.729 -0.4465 -0.3007 -0.0573
12861TIP3    H138540   5.654   6.501   1.786  1.0679 -0.5040  0.3824
12861TIP3    H238541   5.698   6.646   1.789  1.0457 -0.4824 -0.2633
12862TIP3   OH238542   5.985   7.628   4.234  0.0858 -0.5232 -0.1207
12862TIP3    H138543   5.937   7.666   4.160  1.9997  0.2606 -1.0425
12862TIP3    H238544   5.917   7.603   4.296 -1.4855  0.8019 -1.1957
12863TIP3   OH238545   5.763   4.680   1.649 -0.1679 -0.1963 -0.1899
12863TIP3    H138546   5.750   4.591   1.681  0.1524  0.0958  0.7890
12863TIP3    H238547   5.753   4.673   1.554 -1.9526 -0.9451  0.0206
12864TIP3   OH238548   3.060   3.205   0.304 -0.4319 -0.1494  0.0998
12864TIP3    H138549   3.091   3.205   0.395  0.1337 -1.6363 -0.0715
12864TIP3    H238550   3.076   3.294   0.274  0.2190  0.1218  1.1770
12865TIP3   OH238551   7.633   6.227   1.198 -0.2494  0.8769 -0.1717
12865TIP3    H138552   7.603   6.136   1.198  1.6397  0.1995  1.0500
12865TIP3    H238553   7.553   6.279   1.212 -1.0865 -0.7229  1.2939
12866TIP3   OH238554   7.771   6.613   3.305 -0.4035 -0.1913 -0.4919
12866TIP3    H138555   7.697   6.582   3.358 -2.4235  2.6623 -1.4097
12866TIP3    H238556   7.826   6.535   3.293 -1.0847 -1.5373  3.6293
12867TIP3   OH238557   5.650   0.838   4.831 -0.4004  0.7074 -0.0652
12867TIP3    H138558   5.621   0.819   4.920  2.0398  0.8808  0.8489
12867TIP3    H238559   5.653   0.933   4.827  0.5487  0.6953  0.0799
12868TIP3   OH238560   1.761   4.751   4.891  0.0959  0.0910 -0.2715
12868TIP3    H138561   1.747   4.833   4.938  3.7353  1.3022 -0.9464
12868TIP3    H238562   1.748   4.683   4.957 -0.8045  1.3220  0.8850
12869TIP3   OH238563   3.670   7.358   2.685  0.1417 -0.5724  0.6981
12869TIP3    H138564   3.734   7.425   2.710 -2.8641  1.9002  2.5822
12869TIP3    H238565   3.649   7.379   2.594 -1.0717  1.4998  1.3800
12870TIP3   OH238566   7.777   3.397   1.118  0.3512 -0.1659 -0.1650
12870TIP3    H138567   7.728   3.349   1.052 -0.6637 -0.2281  0.5985
12870TIP3    H238568   7.712   3.417   1.186  1.5567 -1.0624  1.3366
12871TIP3   OH238569   6.912   6.969   0.283 -0.5267  0.0560 -0.1889
12871TIP3    H138570   6.906   6.899   0.348 -1.5634 -0.0086 -0.3407
12871TIP3    H238571   6.821   6.989   0.260 -0.2325  1.1963 -0.4296
12872TIP3   OH238572   4.183   1.459   1.366  0.0095  0.3950  0.1698
12872TIP3    H138573   4.173   1.528   1.301  0.0018 -0.5482 -0.8440
12872TIP3    H238574   4.260   1.410   1.338 -1.2971 -1.3902 -0.4340
12873TIP3   OH238575   2.008   5.278   3.697  0.0651 -0.5562 -0.4824
12873TIP3    H138576   1.962   5.360   3.717  1.0242 -0.1722  0.1989
12873TIP3    H238577   1.977   5.216   3.763  1.4902  0.0711  0.8211
12874TIP3   OH238578   6.192   4.449   6.696 -0.1136 -0.2723  0.2045
12874TIP3    H138579   6.205   4.461   6.601  1.9455  2.7953  0.7273
12874TIP3    H238580   6.156   4.533   6.726 -0.5432 -1.1225  2.2009
12875TIP3   OH238581   6.947   7.357   3.739 -0.3297 -0.5509  0.0066
12875TIP3    H138582   6.941   7.265   3.765 -2.0625 -0.2967  0.6406
12875TIP3    H238583   6.991   7.399   3.812 -1.1960 -0.5836  0.5588
12876TIP3   OH238584   1.661   2.726   1.444  0.4465 -0.1675 -0.1012
12876TIP3    H138585   1.687   2.771   1.364 -0.7287 -1.3341 -1.1737
12876TIP3    H238586   1.744   2.695   1.481  0.8953 -1.0112 -1.7276
12877TIP3   OH238587   7.719   4.168   2.507  0.3806 -0.3969 -0.2121
12877TIP3    H138588   7.719   4.095   2.446 -0.2557 -0.9570  0.4406
12877TIP3    H238589   7.802   4.213   2.491  0.3242 -0.6611 -1.3183
12878TIP3   OH238590   3.034   1.646   2.126  0.4170 -0.5989  0.0288
12878TIP3    H138591   2.941   1.624   2.132 -0.3440  1.8406 -1.2927
12878TIP3    H238592   3.064   1.652   2.216 -0.8318 -0.9637  0.4829
12879TIP3   OH238593   3.506   6.277   4.256  0.1009 -0.4300 -0.0581
12879TIP3    H138594   3.548   6.342   4.313 -1.3687 -0.1843  0.7834
12879TIP3    H238595   3.442   6.326   4.206 -0.8611 -1.1614  0.4190
12880TIP3   OH238596   1.152   2.635   6.716  0.3149  0.5031 -0.2149
12880TIP3    H138597   1.193   2.549   6.712 -0.8593 -0.0544 -0.9092
12880TIP3    H238598   1.181   2.672   6.799  2.7331  0.4475 -0.9563
12881TIP3   OH238599   6.013   1.159   1.155  0.2109 -0.3748  0.0316
12881TIP3    H138600   5.923   1.189   1.148  0.6763  1.2880  0.6156
12881TIP3    H238601   6.047   1.164   1.065 -0.6527 -2.4122 -0.4546
12882TIP3   OH238602   3.161   2.454   2.760  0.2030  0.4181  0.3041
12882TIP3    H138603   3.108   2.512   2.706  1.1887  0.0177 -1.1469
12882TIP3    H238604   3.247   2.453   2.718  0.8264 -0.4212  1.5225
12883TIP3   OH238605   6.292   0.701   5.407  0.0350 -0.3267 -0.4884
12883TIP3    H138606   6.359   0.763   5.380 -0.2765  0.9772  1.5156
12883TIP3    H238607   6.216   0.756   5.427  0.0809 -1.1357  2.3789
12884TIP3   OH238608   4.548   7.689   0.338 -0.0730 -0.9157  0.1930
12884TIP3    H138609   4.552   7.731   0.253 -0.1496 -0.6364  0.3239
12884TIP3    H238610   4.460   7.710   0.370  1.1470  2.2449  1.9713
12885TIP3   OH238611   4.668   3.440   5.037 -0.1372 -0.0783 -0.4805
12885TIP3    H138612   4.694   3.469   5.124  1.1296  1.8070 -1.4114
12885TIP3    H238613   4.603   3.505   5.009  0.2398 -0.0619 -1.3336
12886TIP3   OH238614   6.523   4.032   1.516 -0.3913  0.1049  0.0728
12886TIP3    H138615   6.530   4.030   1.611 -1.8867 -0.9255  0.2121
12886TIP3    H238616   6.605   4.070   1.486  0.9263 -1.3035  1.6937
12887TIP3   OH238617   2.701   4.779   6.188 -0.4998  0.0863  0.3464
12887TIP3    H138618   2.637   4.708   6.194 -1.0348  0.5062 -0.2241
12887TIP3    H238619   2.776   4.741   6.143 -0.6936 -0.1849  0.2545
12888TIP3   OH238620   5.648   6.164   6.549  0.4642 -0.5971  0.1772
12888TIP3    H138621   5.602   6.239   6.512  1.2133  0.3926  1.1586
12888TIP3    H238622   5.740   6.178   6.525  0.5476 -1.4253  0.0091
12889TIP3   OH238623   5.517   6.338   5.845  0.1293  1.1109 -0.1809
12889TIP3    H138624   5.585   6.337   5.912 -0.2552  0.1869  0.2047
12889TIP3    H238625   5.564   6.321   5.763  0.3415  0.2742  0.1106
12890TIP3   OH238626   3.749   6.016   4.997  0.1167  1.0134  0.4367
12890TIP3    H138627   3.803   5.969   4.934 -0.3761 -0.7751  1.2727
12890TIP3    H238628   3.811   6.059   5.056  0.5867  3.0025 -1.3972
12891TIP3   OH238629   2.630   1.486   4.027  0.3465  0.3585  0.2980
12891TIP3    H138630   2.544   1.459   3.994 -0.7490 -0.1453  3.2690
12891TIP3    H238631   2.687   1.412   4.006 -0.7549 -0.7902  1.1972
12892TIP3   OH238632   2.141   3.065   4.364 -0.3684  0.7462 -0.8136
12892TIP3    H138633   2.047   3.083   4.362 -0.6302 -0.1782  0.8975
12892TIP3    H238634   2.182   3.151   4.358 -1.3912  1.3529  0.4112
12893TIP3   OH238635   2.132   3.921   1.143 -0.4456  0.0104  0.2752
12893TIP3    H138636   2.053   3.907   1.091 -0.2674  0.0214 -0.0044
12893TIP3    H238637   2.101   3.956   1.226 -0.7078  0.3711  0.0273
12894TIP3   OH238638   2.570   7.727   5.066 -0.5845 -0.0560  0.6234
12894TIP3    H138639   2.570   7.760   5.156 -0.1593 -1.3488  1.1292
12894TIP3    H238640   2.578   7.632   5.076  2.8129 -0.0636 -0.8349
12895TIP3   OH238641   5.637   3.340   4.132 -0.3486 -0.0792 -0.0521
12895TIP3    H138642   5.658   3.431   4.109  1.7916 -0.4916  0.1196
12895TIP3    H238643   5.593   3.347   4.217  1.3186  0.7233  0.7861
12896TIP3   OH238644   1.308   7.575   1.663 -1.0334  0.0415  0.7101
12896TIP3    H138645   1.323   7.669   1.671 -0.9300  0.2090 -0.9592
12896TIP3    H238646   1.212   7.566   1.666 -1.0058 -0.0499  2.7370
12897TIP3   OH238647   7.211   5.312   2.897  0.5218  0.6509  0.2356
12897TIP3    H138648   7.220   5.288   2.805  1.1908  0.6859  0.2889
12897TIP3    H238649   7.131   5.365   2.901  1.3569  2.0209 -0.5998
12898TIP3   OH238650   1.646   7.637   0.707 -0.0898  0.4761  0.2501
12898TIP3    H138651   1.703   7.570   0.669 -0.2209 -0.1879  1.1984
12898TIP3    H238652   1.667   7.638   0.800  0.9363  2.7811  0.0583
12899TIP3   OH238653   1.039   2.998   5.730 -0.5667 -0.3394  0.3162
12899TIP3    H138654   1.086   3.027   5.809 -0.6779 -0.2222  0.3395
12899TIP3    H238655   1.009   3.079   5.689 -0.6645 -0.4095  0.2498
12900TIP3   OH238656   1.577   7.776   3.657  0.0732 -0.2986 -0.7858
12900TIP3    H138657   1.632   7.829   3.599  0.6894 -0.6104 -0.5002
12900TIP3    H238658   1.568   7.829   3.736  1.5580 -1.0244 -0.0890
12901TIP3   OH238659   4.946   2.271   6.613  0.1851  0.0465  0.1510
12901TIP3    H138660   4.924   2.363   6.593  2.3862  0.7505  0.6572
12901TIP3    H238661   5.013   2.248   6.548  1.1783 -0.4772  1.3168
12902TIP3   OH238662   1.298   7.547   0.440 -0.0566  0.0451  0.2717
12902TIP3    H138663   1.335   7.476   0.492  0.6880  0.2331  0.0110
12902TIP3    H238664   1.283   7.618   0.503  0.6766  0.2100  0.2642
12903TIP3   OH238665   2.390   1.020   4.727  0.1535  0.3577  0.2007
12903TIP3    H138666   2.399   1.113   4.748 -0.9087  0.1426  1.8192
12903TIP3    H238667   2.369   0.978   4.811  1.0869 -1.4283 -0.4043
12904TIP3   OH238668   2.644   5.971   1.239  0.1871 -0.4936 -0.1165
12904TIP3    H138669   2.673   5.968   1.330 -0.4122  0.6990  0.1410
12904TIP3    H238670   2.671   6.057   1.208 -0.0239 -0.7115 -0.9285
12905TIP3   OH238671   5.290   5.479   0.427  0.5189  0.2156 -0.2346
12905TIP3    H138672   5.285   5.543   0.498  1.3948 -0.1542  0.1749
12905TIP3    H238673   5.309   5.396   0.471  0.4415 -0.1310 -0.8501
12906TIP3   OH238674   8.096   6.798   1.509  0.4449 -0.3831 -0.5605
12906TIP3    H138675   8.122   6.821   1.598 -2.4118  2.1261 -0.2329
12906TIP3    H238676   8.103   6.880   1.460  0.6821 -1.4201 -2.3563
12907TIP3   OH238677   3.322   6.549   1.786  0.2395  0.0572 -0.0159
12907TIP3    H138678   3.377   6.569   1.862  0.9203 -0.2921 -0.4070
12907TIP3    H238679   3.364   6.474   1.744 -0.1193  0.2460 -0.7420
12908TIP3   OH238680   4.554   4.184   1.301 -0.1418  0.0446 -0.4012
12908TIP3    H138681   4.462   4.182   1.330 -0.0443  0.3377 -0.0702
12908TIP3    H238682   4.582   4.274   1.317  0.4494 -0.2514  0.2702
12909TIP3   OH238683   3.141   7.016   0.096  0.4335  0.1770  0.0938
12909TIP3    H138684   3.079   6.973   0.155  1.0794 -2.8461 -1.2183
12909TIP3    H238685   3.102   7.005   0.009  1.6956  0.2379 -0.5086
12910TIP3   OH238686   6.828   6.918   2.297  0.4250 -0.2109  0.2630
12910TIP3    H138687   6.792   6.873   2.374 -1.8553  0.4712 -0.3535
12910TIP3    H238688   6.754   6.931   2.239  1.5138  1.9620 -0.7662
12911TIP3   OH238689   0.921   3.974   6.099 -0.0063  0.1520  0.1146
12911TIP3    H138690   0.847   4.028   6.127  0.3892  0.1021  1.3122
12911TIP3    H238691   0.910   3.891   6.145  1.6713  0.7234  1.6600
12912TIP3   OH238692   5.333   6.221   1.046  0.0177  0.4530 -0.2371
12912TIP3    H138693   5.297   6.300   1.005  1.0418  1.6391  1.0527
12912TIP3    H238694   5.419   6.211   1.006  0.5456  0.9456  0.7422
12913TIP3   OH238695   5.489   2.192   0.852  0.1723  0.2198  0.2589
12913TIP3    H138696   5.411   2.194   0.796 -0.6304 -3.9337  0.9142
12913TIP3    H238697   5.455   2.172   0.939  1.8524  0.5239  1.0122
12914TIP3   OH238698   6.029   2.641   0.264  0.3200 -0.4272  0.1441
12914TIP3    H138699   6.093   2.570   0.255  0.5366 -0.3544  1.0207
12914TIP3    H238700   5.980   2.618   0.343  1.3953  1.1663  1.3277
12915TIP3   OH238701   3.385   4.232   1.148  0.2718  0.1295 -0.2931
12915TIP3    H138702   3.301   4.195   1.176  0.8684 -1.7112 -0.8034
12915TIP3    H238703   3.392   4.314   1.196 -0.7914 -0.7595  1.4698
12916TIP3   OH238704   4.734   1.610   2.227  0.3005 -0.0204  0.0090
12916TIP3    H138705   4.770   1.547   2.288  2.5382  0.2892 -0.8818
12916TIP3    H238706   4.645   1.627   2.259  1.0925 -0.4443  2.6737
12917TIP3   OH238707   0.668   5.604   2.297  0.4338  0.0606  0.3978
12917TIP3    H138708   0.656   5.509   2.302 -2.0505  0.1738 -1.2701
12917TIP3    H238709   0.600   5.633   2.236  0.2065  3.0828  1.8982
12918TIP3   OH238710   2.184   7.637   2.711  0.0587 -0.1588  0.2379
12918TIP3    H138711   2.214   7.562   2.762 -0.5541 -0.1767  0.5784
12918TIP3    H238712   2.095   7.614   2.684 -0.5050  0.8223  1.1469
12919TIP3   OH238713   6.848   1.095   2.868  0.5040 -0.1314 -0.9409
12919TIP3    H138714   6.813   1.007   2.883 -0.3510  0.6078  2.1330
12919TIP3    H238715   6.773   1.145   2.837  0.8187 -0.2962 -1.9982
12920TIP3   OH238716   1.565   5.604   3.692  0.2312 -0.1262 -0.2670
12920TIP3    H138717   1.567   5.632   3.600 -1.0700  1.2504  0.0832
12920TIP3    H238718   1.633   5.537   3.698  0.6006  0.0219 -2.1456
12921TIP3   OH238719   3.966   5.561   5.976  0.5213 -0.6753 -0.0250
12921TIP3    H138720   3.978   5.644   5.929  0.9905 -2.1384 -2.6917
12921TIP3    H238721   3.872   5.555   5.991  0.6359  1.0972  1.8249
12922TIP3   OH238722   4.700   2.912   5.086  0.1169 -0.3707  0.3336
12922TIP3    H138723   4.667   2.985   5.137  1.2292  0.4570 -0.0935
12922TIP3    H238724   4.742   2.855   5.150 -0.2933 -0.3846  0.5959
12923TIP3   OH238725   2.160   2.159   1.298  0.9729 -0.5981 -0.3387
12923TIP3    H138726   2.256   2.155   1.293  0.9563 -0.6035 -0.6426
12923TIP3    H238727   2.135   2.080   1.346  1.1116 -0.6496 -0.3500
12924TIP3   OH238728   1.661   7.161   1.111 -0.2869 -0.1748  0.5888
12924TIP3    H138729   1.740   7.118   1.079 -0.5629 -0.7936  0.7061
12924TIP3    H238730   1.652   7.239   1.057  0.7925  0.2838  1.0452
12925TIP3   OH238731   1.240   1.170   5.152  0.1520 -0.4711 -0.3548
12925TIP3    H138732   1.322   1.132   5.185  0.3695  1.3639  1.4481
12925TIP3    H238733   1.181   1.095   5.143  1.4896 -1.6195  0.0246
12926TIP3   OH238734   3.555   6.498   2.619 -0.0654  0.6490 -0.1535
12926TIP3    H138735   3.650   6.490   2.618  0.0464  1.7225 -0.0740
12926TIP3    H238736   3.523   6.424   2.568  0.6694 -1.2731  2.0090
12927TIP3   OH238737   8.242   5.968   4.127 -0.2634 -0.4425 -0.2880
12927TIP3    H138738   8.287   5.903   4.181 -1.4879 -2.1972 -1.3061
12927TIP3    H238739   8.263   5.944   4.037 -0.9499  0.4376 -0.7029
12928TIP3   OH238740   2.614   3.520   6.382  0.1382  0.5923 -0.7528
12928TIP3    H138741   2.543   3.572   6.343  0.1580  0.1356 -1.4119
12928TIP3    H238742   2.569   3.446   6.422  0.1787  0.7251 -0.4548
12929TIP3   OH238743   6.978   1.071   4.045  0.0179  0.8317  0.2074
12929TIP3    H138744   7.039   1.006   4.080 -1.6781 -0.9874 -0.0436
12929TIP3    H238745   6.900   1.064   4.101 -0.1803  2.7703  0.2514
12930TIP3   OH238746   3.332   2.803   4.945 -0.8239 -0.5651  0.9217
12930TIP3    H138747   3.382   2.870   4.992 -2.6860  1.1739  0.5339
12930TIP3    H238748   3.258   2.784   5.002 -0.8953 -1.5038  0.5249
12931TIP3   OH238749   2.359   7.111   2.151 -0.7583 -0.6532 -0.3303
12931TIP3    H138750   2.288   7.092   2.089 -1.4692 -1.0991  0.6007
12931TIP3    H238751   2.315   7.124   2.235  0.2910 -1.1847  0.3202
12932TIP3   OH238752   4.997   3.763   5.039 -0.0026  0.6098  0.4813
12932TIP3    H138753   5.080   3.801   5.070  0.0360  0.0741  1.0653
12932TIP3    H238754   4.997   3.674   5.075 -0.1065  0.0618 -0.8226
12933TIP3   OH238755   3.608   0.491   0.405  0.5019 -0.5923 -0.5233
12933TIP3    H138756   3.691   0.467   0.448 -0.3664 -1.3032  0.8338
12933TIP3    H238757   3.633   0.515   0.316  2.0598 -1.7477 -0.4448
12934TIP3   OH238758   4.479   7.091   3.288  0.4495  0.6150  0.0674
12934TIP3    H138759   4.572   7.073   3.298  0.5623  0.9498 -0.3447
12934TIP3    H238760   4.458   7.153   3.358  0.3216 -0.2014  0.7554
12935TIP3   OH238761   3.739   0.510   1.021 -0.0157  0.1769 -0.1105
12935TIP3    H138762   3.833   0.500   1.009  0.0396 -0.1728  0.5379
12935TIP3    H238763   3.703   0.423   1.001 -0.1885  0.2772 -0.2398
12936TIP3   OH238764   3.607   2.300   2.063 -0.0436  0.2218 -0.1701
12936TIP3    H138765   3.542   2.250   2.015 -1.0433  0.4431  0.9141
12936TIP3    H238766   3.637   2.240   2.132  1.1331  0.0191 -0.8311
12937TIP3   OH238767   1.054   4.351   4.446 -0.0274 -0.0212 -0.1819
12937TIP3    H138768   1.133   4.332   4.496  0.4522 -0.4013 -1.0594
12937TIP3    H238769   1.086   4.369   4.357 -0.9861 -0.9647 -0.7352
12938TIP3   OH238770   4.393   2.064   2.249 -0.0758  0.1453 -0.4628
12938TIP3    H138771   4.334   2.008   2.299  1.5864  0.4851  2.1007
12938TIP3    H238772   4.446   2.003   2.197  1.8499 -0.8697  2.4396
12939TIP3   OH238773   3.739   0.885   4.285 -0.1324  0.7987  0.3677
12939TIP3    H138774   3.811   0.947   4.278  1.6214 -1.2618 -1.0428
12939TIP3    H238775   3.699   0.884   4.197 -1.9039  1.8439  1.0974
12940TIP3   OH238776   2.236   1.778   2.175  0.1564 -0.0504  0.4429
12940TIP3    H138777   2.286   1.704   2.141  0.6386  0.1155  0.7928
12940TIP3    H238778   2.155   1.777   2.124  0.1575 -0.8213  0.4491
12941TIP3   OH238779   4.639   5.900   4.302  0.4706 -0.4371  0.4731
12941TIP3    H138780   4.632   5.886   4.207 -3.2913  1.9778  0.1889
12941TIP3    H238781   4.594   5.824   4.340  0.7996 -0.7339  0.2802
12942TIP3   OH238782   1.480   7.152   3.671 -0.9620 -0.3973  0.3254
12942TIP3    H138783   1.539   7.176   3.743  1.8211  0.3712 -2.0059
12942TIP3    H238784   1.499   7.059   3.655  0.0420 -0.0407 -0.7081
12943TIP3   OH238785   5.583   6.693   0.378 -0.6589  0.0170 -0.6432
12943TIP3    H138786   5.629   6.758   0.326 -0.1357  0.5877  0.4912
12943TIP3    H238787   5.592   6.724   0.469  1.0226 -2.4567  0.1263
12944TIP3   OH238788   4.238   4.784   1.252 -0.1626  0.9325 -0.2759
12944TIP3    H138789   4.296   4.846   1.207  0.2176  0.6700 -0.1571
12944TIP3    H238790   4.294   4.743   1.318 -1.2216  2.8062  1.9009
12945TIP3   OH238791   6.182   3.924   0.754 -0.1535  0.0477  0.8564
12945TIP3    H138792   6.211   3.896   0.668 -3.6396 -2.2513  0.2288
12945TIP3    H238793   6.149   4.013   0.741 -1.6475 -0.6704 -0.4904
12946TIP3   OH238794   1.579   2.576   0.642  0.2950 -0.0372 -0.8201
12946TIP3    H138795   1.657   2.630   0.653 -0.0840  0.6432 -1.4540
12946TIP3    H238796   1.613   2.487   0.629  1.0283  0.4670 -2.5811
12947TIP3   OH238797   3.508   7.368   2.904  0.5509  0.0590  0.1738
12947TIP3    H138798   3.501   7.272   2.911 -0.4764  0.0490 -0.6730
12947TIP3    H238799   3.555   7.382   2.822 -3.2688  0.2412 -2.2390
12948TIP3   OH238800   6.637   6.656   1.633  0.3631  0.0658 -0.0189
12948TIP3    H138801   6.593   6.593   1.691  2.5142 -0.3725  1.2398
12948TIP3    H238802   6.566   6.708   1.595 -1.2222 -0.6090  1.8932
12949TIP3   OH238803   2.298   2.584   6.152  0.0351  0.3038  0.4907
12949TIP3    H138804   2.381   2.538   6.161  0.2976  0.3886 -1.2266
12949TIP3    H238805   2.289   2.633   6.234  2.0771  0.9401  0.3811
12950TIP3   OH238806   3.559   7.635   3.399 -0.5551  0.3122 -0.1871
12950TIP3    H138807   3.467   7.610   3.405 -0.7284  1.0192  0.1106
12950TIP3    H238808   3.602   7.587   3.470 -0.5674 -0.5205 -0.7209
12951TIP3   OH238809   7.416   0.701   1.013  0.5353 -0.0406 -0.4791
12951TIP3    H138810   7.435   0.644   0.939  0.0602  1.4141 -1.7776
12951TIP3    H238811   7.340   0.662   1.055  0.7756 -0.8571 -0.7816
12952TIP3   OH238812   4.312   7.652   0.506  0.1476  0.3653 -0.3478
12952TIP3    H138813   4.327   7.658   0.601 -0.4845 -0.6443 -0.1775
12952TIP3    H238814   4.225   7.689   0.494  0.2380  0.5131 -0.5387
12953TIP3   OH238815   3.174   3.942   4.219 -0.4180  0.1429 -0.3280
12953TIP3    H138816   3.116   3.941   4.295  2.1570 -1.1941  1.7777
12953TIP3    H238817   3.184   4.034   4.197 -1.1865  0.5563  0.9618
12954TIP3   OH238818   1.157   0.633   1.312 -0.0519 -0.4754  0.0446
12954TIP3    H138819   1.184   0.543   1.330 -0.6848 -0.6641  0.0724
12954TIP3    H238820   1.222   0.665   1.249  0.4455 -0.7935  0.3923
12955TIP3   OH238821   5.926   0.332   3.414 -0.0647  0.4425  0.4114
12955TIP3    H138822   5.935   0.406   3.354  2.0567 -0.9117 -1.0281
12955TIP3    H238823   5.863   0.274   3.372  1.1018 -0.3045 -0.3527
12956TIP3   OH238824   5.871   6.338   2.308  0.0938 -0.2819  0.0472
12956TIP3    H138825   5.850   6.246   2.323  1.1934 -0.4313  0.7211
12956TIP3    H238826   5.964   6.345   2.326 -0.1997  1.1979  1.1545
12957TIP3   OH238827   3.740   3.693   3.334  0.5035  0.0340 -0.0999
12957TIP3    H138828   3.729   3.758   3.265  1.5076 -0.0501 -0.3511
12957TIP3    H238829   3.717   3.610   3.293 -0.4308  0.1743  0.1204
12958TIP3   OH238830   3.702   6.456   3.563 -0.4865  0.3095  0.0974
12958TIP3    H138831   3.612   6.455   3.595 -0.8529  1.9493 -0.7838
12958TIP3    H238832   3.753   6.494   3.634 -0.6072  0.0606  0.3168
12959TIP3   OH238833   6.038   6.821   6.371  0.0164 -0.1100  0.2019
12959TIP3    H138834   5.980   6.865   6.433 -0.7440 -0.8559  0.0547
12959TIP3    H238835   5.978   6.772   6.313  0.6562  1.0719 -1.5377
12960TIP3   OH238836   4.782   4.552   2.870 -0.0603  0.1721  0.5885
12960TIP3    H138837   4.762   4.635   2.827 -2.1571 -0.6668 -0.1743
12960TIP3    H238838   4.780   4.487   2.799  1.4142 -0.5798  1.1887
12961TIP3   OH238839   4.590   6.699   4.716  0.3623 -0.1091  0.1195
12961TIP3    H138840   4.628   6.786   4.712  0.5309 -0.2172 -1.3709
12961TIP3    H238841   4.567   6.686   4.808 -1.6550  2.3524  0.0752
12962TIP3   OH238842   1.525   6.162   4.210 -0.3454 -0.3271  0.2796
12962TIP3    H138843   1.453   6.107   4.240  0.0474 -0.8433  0.3002
12962TIP3    H238844   1.604   6.110   4.230  0.0288  0.2388  0.2871
12963TIP3   OH238845   2.580   2.873   0.687 -0.9908 -0.2465  0.4555
12963TIP3    H138846   2.608   2.792   0.645  0.5437  0.5229 -0.0873
12963TIP3    H238847   2.647   2.889   0.754 -0.4937  1.2413 -0.3410
12964TIP3   OH238848   1.691   0.153   3.058 -0.2400 -0.1195  0.6170
12964TIP3    H138849   1.705   0.234   3.010 -0.3262 -0.8387 -0.6466
12964TIP3    H238850   1.779   0.117   3.071 -0.2870 -0.5115 -0.0715
12965TIP3   OH238851   6.219   3.427   3.421 -0.5192 -0.8451 -0.1015
12965TIP3    H138852   6.261   3.506   3.387 -0.8712 -0.6775 -0.1450
12965TIP3    H238853   6.290   3.363   3.424  0.4916  0.2395  2.5934
12966TIP3   OH238854   5.608   3.326   5.887 -0.5172 -0.1748 -0.0884
12966TIP3    H138855   5.688   3.368   5.857  0.2149 -1.6999 -0.3921
12966TIP3    H238856   5.585   3.373   5.967  0.8488  0.1229  0.1651
12967TIP3   OH238857   6.155   1.333   4.305  0.5475 -0.2233  0.4814
12967TIP3    H138858   6.074   1.328   4.254  0.0576  0.6675  1.1350
12967TIP3    H238859   6.148   1.261   4.368  0.3400 -0.2539  0.4250
12968TIP3   OH238860   1.464   6.670   1.825 -0.3131  0.2336 -0.2635
12968TIP3    H138861   1.541   6.614   1.832  0.7183  1.6615  0.3789
12968TIP3    H238862   1.401   6.632   1.886 -0.2955 -1.1599 -1.0616
12969TIP3   OH238863   5.469   6.045   6.751  0.5467  0.0349 -0.2715
12969TIP3    H138864   5.513   6.084   6.675  0.8356 -0.9273 -0.6188
12969TIP3    H238865   5.491   5.952   6.746 -1.3822 -0.4663 -0.3637
12970TIP3   OH238866   4.805   6.299   4.258 -0.7712 -0.6973 -0.3916
12970TIP3    H138867   4.771   6.319   4.171 -0.2873 -0.1331 -0.4618
12970TIP3    H238868   4.883   6.246   4.241 -1.4790 -1.8146 -0.2414
12971TIP3   OH238869   3.439   0.799   5.308 -0.3457  0.0460  0.5474
12971TIP3    H138870   3.410   0.890   5.295 -1.1790 -0.1597  0.8732
12971TIP3    H238871   3.400   0.774   5.391 -0.1921 -0.6453  0.4144
12972TIP3   OH238872   6.283   3.445   5.245 -0.3676  0.2543  0.0830
12972TIP3    H138873   6.239   3.363   5.221  1.7736 -0.9706  0.0829
12972TIP3    H238874   6.235   3.477   5.321 -2.4541  0.0820 -1.0904
12973TIP3   OH238875   7.952   3.697   3.867 -0.2116 -0.2669  0.2183
12973TIP3    H138876   7.932   3.625   3.807  0.1430 -1.4773  1.5082
12973TIP3    H238877   8.047   3.708   3.860  0.3195 -2.4400  2.6735
12974TIP3   OH238878   2.092   0.872   2.554  0.4615  0.4722  0.2531
12974TIP3    H138879   2.040   0.924   2.492  0.0324 -0.2691 -0.0219
12974TIP3    H238880   2.105   0.930   2.629  2.1218  1.8884 -1.0411
12975TIP3   OH238881   0.713   2.495   0.049 -0.4224  0.0752 -0.8539
12975TIP3    H138882   0.644   2.456  -0.004 -1.1629 -0.3130  0.3682
12975TIP3    H238883   0.795   2.467   0.007 -0.9647 -1.3166 -1.0174
12976TIP3   OH238884   6.825   4.175   2.597 -0.2575  0.3872 -0.1931
12976TIP3    H138885   6.863   4.142   2.516  0.5118  1.1723 -0.1647
12976TIP3    H238886   6.900   4.191   2.654 -0.8371 -0.9549  0.9954
12977TIP3   OH238887   4.758   3.627   1.871  0.6331 -0.3193 -0.2750
12977TIP3    H138888   4.686   3.669   1.825  1.3982  1.0889 -0.2532
12977TIP3    H238889   4.757   3.667   1.958  0.4205 -1.5126  0.2863
12978TIP3   OH238890   0.942   1.238   1.881  0.0879 -1.2153  0.2694
12978TIP3    H138891   0.933   1.291   1.802  0.4222 -2.9197 -0.9502
12978TIP3    H238892   1.023   1.189   1.869  1.2980 -0.0062  2.6427
12979TIP3   OH238893   1.654   0.696   3.138  0.3537 -0.0491  0.4726
12979TIP3    H138894   1.658   0.735   3.225 -0.4436 -1.3511  1.1303
12979TIP3    H238895   1.704   0.615   3.146  1.8715  0.7029 -0.8292
12980TIP3   OH238896   2.879   6.636   3.218  0.0474 -0.6955 -0.3190
12980TIP3    H138897   2.887   6.622   3.124 -0.5109 -0.8218 -0.3498
12980TIP3    H238898   2.959   6.683   3.242  0.4155 -1.0879 -0.7704
12981TIP3   OH238899   5.138   1.475   3.387 -0.0649 -0.0570 -0.0109
12981TIP3    H138900   5.111   1.390   3.423 -0.3053 -0.0150 -0.0902
12981TIP3    H238901   5.177   1.521   3.461 -1.8155  0.5866  0.5578
12982TIP3   OH238902   6.349   0.331   6.723  0.6551  0.4736 -0.4698
12982TIP3    H138903   6.346   0.377   6.807  0.8764  1.5935 -1.0526
12982TIP3    H238904   6.417   0.376   6.674  0.6966 -0.3273 -1.1661
12983TIP3   OH238905   4.983   5.607   4.193 -0.0995 -0.0189 -0.2464
12983TIP3    H138906   4.889   5.613   4.213 -0.4005 -0.2859 -1.4910
12983TIP3    H238907   4.991   5.525   4.144  0.9275 -0.4259  0.5806
12984TIP3   OH238908   2.822   2.277   3.844  0.7250  0.2818  0.3854
12984TIP3    H138909   2.781   2.196   3.877 -0.5935  1.0263  0.6473
12984TIP3    H238910   2.785   2.287   3.756  0.2102  1.0441  0.6831
12985TIP3   OH238911   3.603   5.410   1.160 -0.0561  0.3361 -0.6557
12985TIP3    H138912   3.621   5.367   1.076  0.6382  2.1771 -1.5053
12985TIP3    H238913   3.681   5.463   1.177 -0.4474  0.4749  0.8610
12986TIP3   OH238914   8.069   4.913   0.831 -0.4094  0.5854  0.2532
12986TIP3    H138915   8.022   4.985   0.873  0.4283  0.3712  1.6457
12986TIP3    H238916   8.137   4.890   0.894 -1.4134 -2.2576  0.4397
12987TIP3   OH238917   3.850   7.263   4.446 -0.0526  0.2247 -0.2097
12987TIP3    H138918   3.910   7.242   4.374  0.0929  0.0938 -0.0525
12987TIP3    H238919   3.832   7.178   4.487  1.0683  0.4684  0.8472
12988TIP3   OH238920   4.317   0.168   1.982 -0.5331  0.4777 -0.0556
12988TIP3    H138921   4.243   0.204   2.033  0.3087  1.2553  0.6572
12988TIP3    H238922   4.311   0.074   1.995  0.2543  0.6818  2.4395
12989TIP3   OH238923   1.604   0.372   5.431  0.5228 -0.5377 -0.1536
12989TIP3    H138924   1.568   0.288   5.406  2.8214 -1.6817  0.1044
12989TIP3    H238925   1.699   0.358   5.435  0.9380  1.8715  0.5991
12990TIP3   OH238926   1.818   6.477   4.584 -0.5482 -0.3758 -0.3149
12990TIP3    H138927   1.723   6.463   4.585 -0.6317  0.1790 -0.1541
12990TIP3    H238928   1.829   6.567   4.552 -0.1047 -0.2276  0.2312
12991TIP3   OH238929   7.557   5.203   0.563  0.0045  0.1927  0.5352
12991TIP3    H138930   7.612   5.148   0.618 -0.5394 -1.2638 -0.3433
12991TIP3    H238931   7.470   5.199   0.603  0.0042  0.6149  0.5904
12992TIP3   OH238932   1.060   4.072   2.277  0.6974  0.1197 -0.1468
12992TIP3    H138933   1.016   4.157   2.286  1.4232  0.4222  0.6193
12992TIP3    H238934   1.144   4.083   2.321  0.8366 -0.9758 -0.1077
12993TIP3   OH238935   7.823   3.939   0.377 -0.3803 -0.0731 -0.8808
12993TIP3    H138936   7.825   4.013   0.316 -1.5476 -1.4235 -2.6565
12993TIP3    H238937   7.874   3.870   0.334 -1.6025 -1.2087 -0.5801
12994TIP3   OH238938   5.338   3.195   3.626  0.4157 -0.2299 -0.6013
12994TIP3    H138939   5.360   3.286   3.607  1.3309 -0.3834 -0.3140
12994TIP3    H238940   5.422   3.150   3.631  0.3979 -0.2023  3.7911
12995TIP3   OH238941   3.262   7.425   5.276  0.1796  0.3896 -0.2817
12995TIP3    H138942   3.317   7.472   5.214 -0.4294  1.7025  0.1042
12995TIP3    H238943   3.202   7.374   5.222  0.8680  0.0396 -0.7224
12996TIP3   OH238944   3.753   7.518   6.412  0.1628 -0.2670  0.2988
12996TIP3    H138945   3.818   7.577   6.448  0.0808 -0.0835  0.1494
12996TIP3    H238946   3.722   7.467   6.487 -0.0478  0.1516  0.4962
12997TIP3   OH238947   2.689   6.411   3.511 -0.5704 -0.6636 -0.3082
12997TIP3    H138948   2.612   6.460   3.539 -0.7114  0.6771 -2.7568
12997TIP3    H238949   2.762   6.448   3.561 -0.9539  0.8442 -0.8370
12998TIP3   OH238950   5.995   6.205   3.027  0.1151 -0.6850 -0.2023
12998TIP3    H138951   5.901   6.200   3.045  0.1872 -0.4118  0.2696
12998TIP3    H238952   6.017   6.121   2.987 -0.5623 -0.3036 -1.4393
12999TIP3   OH238953   5.863   3.580   5.633  0.4833 -0.5204 -0.0031
12999TIP3    H138954   5.776   3.617   5.648 -0.2441 -1.3546 -1.9254
12999TIP3    H238955   5.881   3.528   5.711 -1.9290 -2.5010 -0.6681
13000TIP3   OH238956   6.500   1.548   5.594  0.2042  0.2940 -0.3632
13000TIP3    H138957   6.453   1.484   5.540 -0.8863  0.5720  0.2326
13000TIP3    H238958   6.491   1.515   5.684  0.4356  0.7945 -0.1534
13001TIP3   OH238959   2.549   5.779   2.117 -0.3940 -0.1612  0.2844
13001TIP3    H138960   2.571   5.871   2.101 -1.3946 -0.0438 -0.5066
13001TIP3    H238961   2.470   5.764   2.065  0.7165 -1.9296 -0.9907
13002TIP3   OH238962   7.714   2.062   3.860  0.0501 -0.2085  0.2189
13002TIP3    H138963   7.673   1.977   3.845 -0.5174  0.2980 -1.1747
13002TIP3    H238964   7.808   2.045   3.849 -0.1051 -0.5432 -0.6550
13003TIP3   OH238965   7.293   6.889   5.205  0.4125 -0.9746 -0.8267
13003TIP3    H138966   7.311   6.958   5.141 -0.9058  1.3702  1.1652
13003TIP3    H238967   7.200   6.868   5.192 -0.1503  0.2393  0.8383
13004TIP3   OH238968   7.569   7.730   2.766  0.4942 -0.2111  0.3021
13004TIP3    H138969   7.600   7.661   2.707 -1.3570 -0.7208 -0.1700
13004TIP3    H238970   7.642   7.791   2.773  1.4722 -1.1832 -0.9098
13005TIP3   OH238971   7.728   7.499   6.792 -0.0102 -0.2044 -0.6018
13005TIP3    H138972   7.645   7.546   6.785 -0.4852 -0.7106  1.1969
13005TIP3    H238973   7.788   7.548   6.736 -0.7912  1.8813  0.2978
13006TIP3   OH238974   5.663   5.089   5.779 -0.5593  0.0837 -0.2168
13006TIP3    H138975   5.591   5.066   5.720 -0.0981  0.4440 -0.9412
13006TIP3    H238976   5.683   5.180   5.757 -0.9705  0.5220  1.1293
13007TIP3   OH238977   5.459   1.865   5.504 -0.3746 -0.3764  0.0078
13007TIP3    H138978   5.375   1.856   5.460 -1.0011 -1.1956  1.3080
13007TIP3    H238979   5.484   1.956   5.490 -2.5309  0.4959  1.3590
13008TIP3   OH238980   5.978   5.805   4.333 -0.2357 -0.0169  0.3521
13008TIP3    H138981   6.063   5.762   4.336  0.4701  1.3405  1.2078
13008TIP3    H238982   5.915   5.734   4.334  0.8788 -1.0607 -0.2901
13009TIP3   OH238983   0.715   6.793   3.225 -0.3959  0.1690  0.4217
13009TIP3    H138984   0.794   6.753   3.189  0.9300  1.3766  1.8609
13009TIP3    H238985   0.663   6.817   3.148  0.7474 -0.4172 -0.5641
13010TIP3   OH238986   6.694   4.860   0.565  0.3792 -0.4964 -0.2248
13010TIP3    H138987   6.694   4.803   0.488  0.9566  0.8863 -1.2807
13010TIP3    H238988   6.601   4.878   0.581  0.2933  0.5329 -1.6505
13011TIP3   OH238989   2.645   7.091   0.438  0.2457 -0.2432  0.1033
13011TIP3    H138990   2.579   7.076   0.369 -0.5364  0.3289  0.7086
13011TIP3    H238991   2.693   7.168   0.408  0.5836 -0.5989 -0.2896
13012TIP3   OH238992   4.243   6.476   5.726 -0.3090 -0.3035  0.3733
13012TIP3    H138993   4.234   6.540   5.797 -0.2486  0.9616 -0.7296
13012TIP3    H238994   4.338   6.460   5.721 -0.0679  1.2262 -0.7644
13013TIP3   OH238995   6.874   0.331   4.563 -0.0966  0.0254  0.0961
13013TIP3    H138996   6.786   0.356   4.592 -0.4268  0.0628 -0.9002
13013TIP3    H238997   6.862   0.298   4.475  0.6830 -1.4566  0.5175
13014TIP3   OH238998   0.836   5.840   3.089  0.5971 -0.2398  0.6120
13014TIP3    H138999   0.845   5.776   3.018 -1.4832  0.8065 -0.6830
13014TIP3    H239000   0.841   5.925   3.045  3.2523  0.6147  2.2839
13015TIP3   OH239001   4.413   4.009   4.049 -0.2582  0.1317  0.7744
13015TIP3    H139002   4.379   3.976   4.132  0.7725  1.5963  1.8314
13015TIP3    H239003   4.443   3.931   4.003 -0.4192 -0.6716  1.9827
13016TIP3   OH239004   2.762   4.764   1.353  0.6647  0.6384 -0.0360
13016TIP3    H139005   2.731   4.782   1.264 -0.4467 -1.8768 -0.2418
13016TIP3    H239006   2.846   4.718   1.339 -0.5683 -1.8131 -0.0008
13017TIP3   OH239007   6.389   3.712  -0.007 -0.1620 -0.0575  0.1293
13017TIP3    H139008   6.421   3.689   0.081  0.2038  0.3446  0.1095
13017TIP3    H239009   6.297   3.732   0.006  0.0754  0.8087  0.5847
13018TIP3   OH239010   5.659   2.634   5.445  0.3956 -0.4653 -0.2291
13018TIP3    H139011   5.654   2.685   5.526  1.5368  2.3424 -1.7610
13018TIP3    H239012   5.572   2.643   5.406  0.2522 -0.6756  0.0402
13019TIP3   OH239013   0.678   2.571   2.897 -0.3038  0.0424 -0.6675
13019TIP3    H139014   0.628   2.650   2.876  0.5374  0.2445 -2.0295
13019TIP3    H239015   0.768   2.601   2.908  0.2389 -0.8468 -2.3449
13020TIP3   OH239016   7.415   4.873   5.123 -0.3710  0.0936 -0.0833
13020TIP3    H139017   7.321   4.857   5.136  0.0448 -1.0464  2.0066
13020TIP3    H239018   7.445   4.909   5.207  1.2555 -0.5660 -0.3405
13021TIP3   OH239019   5.920   7.692   2.467  0.3270 -0.3867  0.4774
13021TIP3    H139020   5.826   7.685   2.484  0.0640  1.5657  0.1759
13021TIP3    H239021   5.948   7.604   2.444 -1.8419 -0.6924 -1.3107
13022TIP3   OH239022   1.195   0.127   0.678 -0.0182  0.4021 -0.0260
13022TIP3    H139023   1.186   0.090   0.591 -1.0801  0.1861  0.1642
13022TIP3    H239024   1.139   0.204   0.677  0.0689  0.4739  0.4332
13023TIP3   OH239025   0.767   6.062   6.220 -0.3768 -0.7396 -0.7487
13023TIP3    H139026   0.808   6.139   6.261 -0.0012 -0.8023 -0.9957
13023TIP3    H239027   0.768   5.996   6.289 -0.6652 -0.5350 -0.5472
13024TIP3   OH239028   2.059   2.653   1.973  0.5228  0.2473  0.1256
13024TIP3    H139029   1.991   2.700   2.021  0.8411 -1.3637  2.2768
13024TIP3    H239030   2.136   2.710   1.978  0.6103  0.0265  1.7660
13025TIP3   OH239031   1.893   3.118   4.450 -0.0580  0.4603 -0.1837
13025TIP3    H139032   1.843   3.195   4.423  0.2633  0.8135  0.2178
13025TIP3    H239033   1.875   3.108   4.543  0.4994  0.5087 -0.0645
13026TIP3   OH239034   4.917   6.800   3.327  0.2992  0.1701 -0.0633
13026TIP3    H139035   4.968   6.861   3.273  1.0998  0.1160  0.6060
13026TIP3    H239036   4.965   6.795   3.410 -0.1233 -0.8480  0.1400
13027TIP3   OH239037   7.915   7.244   3.886 -0.1597 -0.5796  0.1479
13027TIP3    H139038   7.897   7.303   3.959  0.2092  1.1582 -1.0698
13027TIP3    H239039   7.846   7.179   3.889 -0.5717 -0.1069  1.5978
13028TIP3   OH239040   1.558   4.721   5.485  0.1540 -0.2286  0.0491
13028TIP3    H139041   1.560   4.752   5.576  1.5599  0.5217 -0.2023
13028TIP3    H239042   1.624   4.775   5.441 -0.1298 -0.9570 -1.2985
13029TIP3   OH239043   4.977   4.416   5.777 -0.1273  0.1804  0.0572
13029TIP3    H139044   5.068   4.441   5.791  0.3221 -0.8872 -0.7881
13029TIP3    H239045   4.966   4.416   5.682 -1.3416  1.3792  0.1798
13030TIP3   OH239046   0.115   2.070   2.138 -0.2457  0.4401  0.1224
13030TIP3    H139047   0.172   2.116   2.200 -0.3993  0.1787  0.4604
13030TIP3    H239048   0.156   1.984   2.126  0.6595  1.0466 -1.3765
13031TIP3   OH239049   2.519   2.371   5.984  0.0396  0.4738 -0.6028
13031TIP3    H139050   2.607   2.385   5.950 -0.7047  1.1988 -2.3979
13031TIP3    H239051   2.531   2.354   6.077  2.2195 -1.5703 -1.1800
13032TIP3   OH239052   7.010   5.516   0.457  0.6346  0.0520  0.2718
13032TIP3    H139053   6.930   5.500   0.507  0.1569  0.7022 -0.2687
13032TIP3    H239054   7.007   5.609   0.436  0.8844 -0.1757 -0.8478
13033TIP3   OH239055   2.851   2.409   5.552 -0.1271  0.1333  0.0557
13033TIP3    H139056   2.903   2.355   5.612  0.1807  0.2236 -0.1255
13033TIP3    H239057   2.778   2.354   5.527 -0.0524 -0.0410  0.2181
13034TIP3   OH239058   7.964   3.326   1.668 -0.2017  0.1459 -0.1516
13034TIP3    H139059   7.955   3.412   1.626  0.2163  0.8847  1.2252
13034TIP3    H239060   8.056   3.302   1.653 -0.1626  0.2134 -0.0198
13035TIP3   OH239061   1.450   4.584   0.486  0.0394 -0.0967 -0.0683
13035TIP3    H139062   1.361   4.596   0.454  0.4318 -0.1186 -1.2214
13035TIP3    H239063   1.506   4.617   0.415  0.9478  0.3607  0.8268
13036TIP3   OH239064   2.682   4.632   3.763 -0.0341  0.2724 -0.5951
13036TIP3    H139065   2.677   4.556   3.706 -0.5435  0.4852 -0.8378
13036TIP3    H239066   2.689   4.707   3.703 -2.1705  0.6420 -0.4483
13037TIP3   OH239067   4.343   5.705   3.030 -0.1202 -0.0792 -0.1385
13037TIP3    H139068   4.364   5.621   3.071  3.1081  0.9251  0.5063
13037TIP3    H239069   4.426   5.752   3.027 -1.5955  2.6727 -1.5466
13038TIP3   OH239070   0.565   0.844   6.258 -0.3929 -0.2716  0.3614
13038TIP3    H139071   0.496   0.908   6.276 -0.4318 -0.1633 -0.1606
13038TIP3    H239072   0.646   0.887   6.285 -0.1494  0.8794 -1.9717
13039TIP3   OH239073   0.415   1.866   4.170  0.0435 -0.0604  0.4894
13039TIP3    H139074   0.347   1.934   4.163 -0.1461 -0.2563  0.4161
13039TIP3    H239075   0.372   1.794   4.216 -0.3610 -0.9119 -1.1385
13040TIP3   OH239076   3.720   0.271   5.662 -0.1318  0.1551 -0.2719
13040TIP3    H139077   3.766   0.197   5.621  0.5247  0.2144  0.3454
13040TIP3    H239078   3.702   0.331   5.589 -1.0495 -0.7915 -0.8523
13041TIP3   OH239079   3.424   2.147   4.350  0.2369  0.1880 -0.4887
13041TIP3    H139080   3.344   2.160   4.299 -0.1225  1.7952  0.4315
13041TIP3    H239081   3.394   2.146   4.441  1.1312 -0.3995 -0.1889
13042TIP3   OH239082   0.668   5.813   4.789 -0.3640 -0.1215  0.8382
13042TIP3    H139083   0.712   5.860   4.719 -2.9970 -0.4677 -1.2048
13042TIP3    H239084   0.733   5.751   4.822  0.7624 -0.4509 -1.8025
13043TIP3   OH239085   6.388   1.398   4.211 -0.5015  0.0473  0.7603
13043TIP3    H139086   6.435   1.332   4.262  1.1578  1.2154  0.8162
13043TIP3    H239087   6.296   1.376   4.222 -0.0067 -2.2668  0.7523
13044TIP3   OH239088   4.810   7.395   5.360 -0.0739  0.2526  1.2606
13044TIP3    H139089   4.756   7.316   5.372  1.9889 -1.6523 -0.9059
13044TIP3    H239090   4.803   7.414   5.266  1.1900  1.3100  1.3611
13045TIP3   OH239091   3.778   3.169   5.849  0.8283  0.0512 -0.1468
13045TIP3    H139092   3.830   3.244   5.879  1.3806 -0.3569 -0.0626
13045TIP3    H239093   3.735   3.200   5.769 -1.3719  1.4518  1.4616
13046TIP3   OH239094   2.955   5.421   1.342  0.3927 -0.2715  0.5820
13046TIP3    H139095   2.901   5.343   1.330  1.9066 -1.1005 -1.4373
13046TIP3    H239096   3.028   5.392   1.396 -0.0146  0.2795  1.4560
13047TIP3   OH239097   1.319   0.411   5.426  0.6152 -0.0917  0.2524
13047TIP3    H139098   1.405   0.442   5.455  1.7923 -1.0667 -1.9483
13047TIP3    H239099   1.315   0.321   5.457  0.4184 -0.0864  0.2422
13048TIP3   OH239100   2.388   4.773   4.513 -0.1702 -0.1197  0.5259
13048TIP3    H139101   2.338   4.732   4.584 -1.3670  0.9291  0.3337
13048TIP3    H239102   2.474   4.732   4.517 -1.4255 -3.0514 -0.0111
13049TIP3   OH239103   7.586   6.874   5.315  0.2325 -0.9607  0.8054
13049TIP3    H139104   7.551   6.785   5.321 -3.9571  0.3857 -0.1487
13049TIP3    H239105   7.589   6.892   5.221 -1.1906  0.6141  1.0246
13050TIP3   OH239106   7.935   5.772   2.110  0.2032  0.6335 -0.4777
13050TIP3    H139107   7.959   5.763   2.203 -0.6215 -1.1675 -0.4000
13050TIP3    H239108   7.886   5.854   2.107 -1.8610 -0.4114  1.2126
13051TIP3   OH239109   6.372   6.341   2.906  0.0567 -0.0010  0.0306
13051TIP3    H139110   6.371   6.335   3.002 -0.3314  3.1396  0.3336
13051TIP3    H239111   6.297   6.397   2.885 -1.0452 -2.1678 -2.3527
13052TIP3   OH239112   0.986   2.510   3.866  0.0069 -0.6105  0.6092
13052TIP3    H139113   1.019   2.436   3.917  0.8647 -1.2465 -0.7690
13052TIP3    H239114   0.892   2.510   3.881 -0.1959 -2.7702 -0.2558
13053TIP3   OH239115   3.618   4.408   5.280  0.3765  0.2669 -0.1725
13053TIP3    H139116   3.571   4.468   5.222  1.0781  1.3108  0.3156
13053TIP3    H239117   3.655   4.342   5.221 -0.9222 -0.0615 -0.6489
13054TIP3   OH239118   5.117   3.980   2.285  0.2851  0.2309  0.0074
13054TIP3    H139119   5.190   3.940   2.238 -0.9041 -0.9278 -0.9434
13054TIP3    H239120   5.071   4.032   2.219 -0.8301 -0.6060  0.0908
13055TIP3   OH239121   1.545   5.497   4.451 -0.0764  0.5269 -0.1648
13055TIP3    H139122   1.574   5.406   4.459 -0.0626  0.6376  1.3878
13055TIP3    H239123   1.574   5.524   4.364  0.7063 -0.6766 -0.3017
13056TIP3   OH239124   3.087   7.521   1.380  0.0368  0.1236  0.4140
13056TIP3    H139125   3.057   7.503   1.291  0.7827 -0.8630  0.3398
13056TIP3    H239126   3.034   7.595   1.409 -1.0186 -0.2719 -0.4328
13057TIP3   OH239127   2.022   6.104   5.866 -0.2145  0.1251  0.1765
13057TIP3    H139128   1.993   6.195   5.854  0.5282  0.3552  0.0076
13057TIP3    H239129   2.098   6.096   5.808  1.4509  0.2604  2.2224
13058TIP3   OH239130   4.303   2.605   0.990 -0.1901  0.4116  0.1106
13058TIP3    H139131   4.347   2.521   0.998 -0.1077  0.3693 -0.6422
13058TIP3    H239132   4.211   2.583   0.973  0.0084  0.4295 -1.1338
13059TIP3   OH239133   0.968   5.259   5.936 -0.1747  0.9601  0.2775
13059TIP3    H139134   1.041   5.294   5.885  0.3605  0.8975  0.9885
13059TIP3    H239135   0.928   5.335   5.976  0.1462  0.8954  0.7255
13060TIP3   OH239136   2.748   1.946   5.852 -0.3397  0.0064  0.5333
13060TIP3    H139137   2.653   1.960   5.846 -0.6283 -1.9746 -0.3633
13060TIP3    H239138   2.765   1.875   5.791  1.5890 -0.3905  1.4714
13061TIP3   OH239139   0.970   3.710   4.314 -0.0448 -0.5956  0.0548
13061TIP3    H139140   0.972   3.671   4.227 -1.0297 -1.3222  0.3386
13061TIP3    H239141   1.027   3.654   4.367  1.9802  0.8533 -0.4804
13062TIP3   OH239142   1.069   6.623   2.524  0.0264 -0.0832  0.6139
13062TIP3    H139143   1.141   6.570   2.491  0.2690  0.4442  0.2934
13062TIP3    H239144   1.099   6.651   2.611 -0.2324 -0.7158  0.9171
13063TIP3   OH239145   5.108   1.911   4.650  0.2918 -0.4380  0.6617
13063TIP3    H139146   5.063   1.984   4.607  1.9151 -0.1296 -0.5994
13063TIP3    H239147   5.173   1.882   4.586 -0.5796 -3.3166  0.9105
13064TIP3   OH239148   6.840   3.946   1.261  0.0567  0.1593 -0.5349
13064TIP3    H139149   6.794   4.030   1.259 -1.5079 -0.6543 -0.5022
13064TIP3    H239150   6.773   3.883   1.289  1.0765 -1.1675 -0.9750
13065TIP3   OH239151   1.722   3.787   4.770  0.1541  0.4786  0.1911
13065TIP3    H139152   1.728   3.746   4.856 -2.3611 -0.8735 -0.1776
13065TIP3    H239153   1.803   3.761   4.725  0.6553 -0.3060  1.4973
13066TIP3   OH239154   3.345   1.643   1.117 -0.2496  0.1174 -0.3699
13066TIP3    H139155   3.437   1.658   1.137 -0.5721  0.1949  1.2009
13066TIP3    H239156   3.338   1.654   1.023  1.5431 -0.8949 -0.6676
13067TIP3   OH239157   7.228   5.412   1.422  0.5510 -0.0304  0.0774
13067TIP3    H139158   7.156   5.466   1.389  0.9953  0.3433 -0.2961
13067TIP3    H239159   7.185   5.334   1.457  0.0426 -0.4369 -1.3691
13068TIP3   OH239160   4.197   5.353   2.834  0.7872 -0.6544 -0.0307
13068TIP3    H139161   4.227   5.264   2.852 -0.5265 -1.1123 -0.0043
13068TIP3    H239162   4.160   5.383   2.917 -1.8968 -1.3872 -0.8727
13069TIP3   OH239163   1.723   4.438   4.254 -0.0604  0.3897 -0.1661
13069TIP3    H139164   1.654   4.499   4.230 -0.7783 -1.2705 -2.6983
13069TIP3    H239165   1.718   4.431   4.350 -1.6335  2.2634 -0.0720
13070TIP3   OH239166   2.794   6.904   1.680 -0.3665 -0.4888  0.0550
13070TIP3    H139167   2.781   6.905   1.775 -1.2577  1.9561  0.0009
13070TIP3    H239168   2.706   6.889   1.645 -0.6874  1.7751 -0.3113
13071TIP3   OH239169   7.258   2.345   2.969 -0.4474  0.0208 -0.1484
13071TIP3    H139170   7.323   2.284   2.934  0.3875  1.0958 -0.4893
13071TIP3    H239171   7.177   2.323   2.921 -0.3723 -1.3175  0.2749
13072TIP3   OH239172   4.750   2.458   0.062 -0.6732 -0.3937 -0.3159
13072TIP3    H139173   4.695   2.408   0.002 -1.3446  0.3296 -0.3200
13072TIP3    H239174   4.821   2.492   0.007 -0.5656 -0.8161 -0.4389
13073TIP3   OH239175   3.892   2.831   0.484  0.9625  0.1779 -0.2577
13073TIP3    H139176   3.938   2.768   0.538 -0.4337 -0.8552 -0.2425
13073TIP3    H239177   3.831   2.779   0.432 -0.1393  1.4889 -0.3333
13074TIP3   OH239178   3.102   3.689   1.511  0.1754 -0.2061 -0.2121
13074TIP3    H139179   3.082   3.719   1.423  0.1885 -1.2740 -0.5880
13074TIP3    H239180   3.020   3.654   1.544 -0.0098  0.8244  0.4839
13075TIP3   OH239181   7.458   3.712   4.894  0.3202  0.2364  0.3148
13075TIP3    H139182   7.436   3.805   4.907 -0.9422 -0.0983  0.7318
13075TIP3    H239183   7.460   3.701   4.799 -0.0560  0.5799  0.2622
13076TIP3   OH239184   0.820   3.501   0.145 -0.0708  0.2447  0.0979
13076TIP3    H139185   0.796   3.442   0.217 -0.7998 -0.6171 -0.8253
13076TIP3    H239186   0.740   3.509   0.093  0.4984  0.6922 -0.7314
13077TIP3   OH239187   0.794   0.197   4.626 -0.3421 -0.3100  0.0010
13077TIP3    H139188   0.876   0.188   4.673  0.5635  0.4808 -1.3656
13077TIP3    H239189   0.750   0.270   4.669  0.4488  0.3727 -0.3336
13078TIP3   OH239190   5.260   2.227   5.347  0.3098  0.2063  0.0936
13078TIP3    H139191   5.253   2.320   5.366 -2.1071  0.0681  0.1763
13078TIP3    H239192   5.346   2.201   5.382  0.9387  2.3160  0.2392
13079TIP3   OH239193   5.785   6.711   4.555 -0.2896 -0.0875  0.0994
13079TIP3    H139194   5.806   6.783   4.496  1.4622 -1.6072 -1.2475
13079TIP3    H239195   5.830   6.733   4.637 -1.6804  1.4188  0.4947
13080TIP3   OH239196   0.938   5.192   6.812 -0.6035 -0.3698  0.3168
13080TIP3    H139197   0.862   5.242   6.782 -0.1750  0.3110  0.3307
13080TIP3    H239198   0.972   5.150   6.733 -0.9154 -0.5636  0.2870
13081TIP3   OH239199   2.274   6.902   4.596  0.5389  0.3303  0.4840
13081TIP3    H139200   2.193   6.870   4.557 -0.5597  1.9535  1.3242
13081TIP3    H239201   2.336   6.830   4.584 -0.6960 -0.5401 -1.1368
13082TIP3   OH239202   3.117   0.491   4.997 -0.0381  0.6967  1.1243
13082TIP3    H139203   3.175   0.565   5.018  0.7667 -0.3012  2.6288
13082TIP3    H239204   3.126   0.432   5.071 -1.5148 -0.4173  0.4657
13083TIP3   OH239205   4.505   2.680   5.591 -0.2960  0.7804  0.3617
13083TIP3    H139206   4.447   2.622   5.640 -1.0515  0.5381 -0.7863
13083TIP3    H239207   4.481   2.667   5.500  0.8513  1.4733 -0.0644
13084TIP3   OH239208   2.522   4.623   2.353 -0.0090  0.1319 -0.0343
13084TIP3    H139209   2.576   4.663   2.421  0.8654 -0.6141 -0.2711
13084TIP3    H239210   2.483   4.697   2.307 -1.3100  0.6506  1.7968
13085TIP3   OH239211   2.870   5.292   3.159  0.1441  0.6857  0.0639
13085TIP3    H139212   2.904   5.330   3.078 -2.3240  1.5805 -0.6440
13085TIP3    H239213   2.802   5.230   3.130 -0.4752  0.6917  1.4266
13086TIP3   OH239214   4.527   0.205   6.344  0.1355 -0.3201  0.2177
13086TIP3    H139215   4.580   0.181   6.268  0.5654  0.2180  0.3446
13086TIP3    H239216   4.531   0.129   6.401  2.5643  0.4569  1.2197
13087TIP3   OH239217   6.050   1.561   4.819 -0.4019  0.2903  0.0336
13087TIP3    H139218   6.020   1.504   4.890 -0.5569 -0.8817 -0.9609
13087TIP3    H239219   6.024   1.517   4.739  1.9229  0.3713 -0.8437
13088TIP3   OH239220   7.780   1.865   0.635  0.0483  0.4001 -0.0905
13088TIP3    H139221   7.871   1.885   0.616 -0.0640  2.4645  1.2048
13088TIP3    H239222   7.778   1.846   0.729 -0.9445  1.0688  0.0421
13089TIP3   OH239223   3.829   1.598   2.909 -0.3090 -0.2986 -0.0514
13089TIP3    H139224   3.797   1.582   2.998  0.9572  0.8787  0.6460
13089TIP3    H239225   3.891   1.671   2.918  1.6646 -1.6795 -1.5016
13090TIP3   OH239226   4.943   2.752   5.721  0.0353 -0.0936  0.1887
13090TIP3    H139227   4.913   2.768   5.632 -1.2800  1.0956  0.8158
13090TIP3    H239228   4.891   2.811   5.776  1.9021  0.3569  1.5993
13091TIP3   OH239229   6.988   2.006   3.432  0.1663 -0.1123  0.8304
13091TIP3    H139230   6.979   1.927   3.379  1.8124 -0.3852  0.8914
13091TIP3    H239231   7.082   2.023   3.434 -0.1340  1.8335  0.8669
13092TIP3   OH239232   5.865   3.182   5.520  0.0862 -0.4385  0.0329
13092TIP3    H139233   5.770   3.190   5.518  0.2046  1.3131  0.0290
13092TIP3    H239234   5.888   3.188   5.613  0.3377  1.7251 -0.1257
13093TIP3   OH239235   0.810   5.054   6.347 -0.2226 -0.1432 -0.2412
13093TIP3    H139236   0.860   5.062   6.265 -0.3197  0.9618 -0.2084
13093TIP3    H239237   0.738   5.116   6.336 -0.1168  0.1628  0.7710
13094TIP3   OH239238   4.018   3.778   6.017  0.3107  0.1205 -0.4630
13094TIP3    H139239   3.928   3.804   6.034  0.0079 -0.0730 -1.6462
13094TIP3    H239240   4.053   3.755   6.103 -1.2975 -1.4715 -0.1714
13095TIP3   OH239241   0.177   2.989   4.355 -0.0351  0.4388  0.4784
13095TIP3    H139242   0.145   2.911   4.399  0.1376  0.2591  0.2831
13095TIP3    H239243   0.261   2.964   4.318 -0.5415  0.3574 -0.6471
13096TIP3   OH239244   4.526   0.387   1.089 -1.1803  0.3761  0.5708
13096TIP3    H139245   4.472   0.446   1.142 -0.2699  2.0472 -0.2959
13096TIP3    H239246   4.606   0.435   1.072  0.6427 -2.0224  1.7664
13097TIP3   OH239247   2.054   6.598   2.335  0.2171  0.7567 -0.0794
13097TIP3    H139248   2.142   6.585   2.300 -0.3461  2.0364 -2.1492
13097TIP3    H239249   2.024   6.680   2.295 -1.4083  1.0948  1.6735
13098TIP3   OH239250   1.326   5.707   5.817  0.8177 -0.2418  0.5240
13098TIP3    H139251   1.403   5.754   5.848  1.7033 -1.3247  0.0287
13098TIP3    H239252   1.361   5.628   5.776 -0.3003  0.6516 -2.4340
13099TIP3   OH239253   3.416   6.669   4.506  0.4948  0.1285  0.4719
13099TIP3    H139254   3.346   6.709   4.454 -1.0693 -1.4939  1.2220
13099TIP3    H239255   3.462   6.743   4.545  0.5610  1.3187 -1.7137
13100TIP3   OH239256   7.159   7.854   0.138  0.4437 -0.0501 -0.4074
13100TIP3    H139257   7.180   7.830   0.228  1.1356  0.4854 -0.4233
13100TIP3    H239258   7.187   7.779   0.086 -2.3873 -1.5590  0.0294
13101TIP3   OH239259   6.175   6.985   6.032  0.1074  0.3854 -0.1837
13101TIP3    H139260   6.238   7.019   6.095  1.0657 -0.2374 -0.7752
13101TIP3    H239261   6.089   7.003   6.070  0.6479  1.2132  0.6552
13102TIP3   OH239262   6.410   6.896   0.389 -0.7419 -0.6798  0.0155
13102TIP3    H139263   6.368   6.853   0.463 -1.0623 -0.1840  0.1275
13102TIP3    H239264   6.469   6.830   0.352 -0.0370 -0.7069  1.1574
13103TIP3   OH239265   3.706   4.051   2.841  0.1926  0.3618  0.6418
13103TIP3    H139266   3.681   3.991   2.770 -1.0725  0.7637  0.7391
13103TIP3    H239267   3.772   4.108   2.802 -0.2354  0.3480 -0.1075
13104TIP3   OH239268   2.819   5.104   5.870  0.1067 -0.3757 -0.6303
13104TIP3    H139269   2.743   5.144   5.912  0.5259 -0.0222 -0.2060
13104TIP3    H239270   2.796   5.012   5.861  0.4864 -0.7137  1.4913
13105TIP3   OH239271   7.395   7.423   2.847 -0.0733 -0.0330  0.2609
13105TIP3    H139272   7.486   7.451   2.856 -0.0009  0.2880 -1.1333
13105TIP3    H239273   7.354   7.445   2.931  1.0274  0.2146  0.7534
13106TIP3   OH239274   4.332   1.381   3.790  0.3870 -0.3711 -0.2495
13106TIP3    H139275   4.409   1.436   3.773 -0.5120  0.8116 -0.6522
13106TIP3    H239276   4.323   1.328   3.711  1.9838 -2.0496  0.6348
13107TIP3   OH239277   8.039   2.080   6.611  0.0180 -0.3959  0.4394
13107TIP3    H139278   7.985   2.002   6.597  0.0642  0.0175 -2.8064
13107TIP3    H239279   8.049   2.119   6.524  4.7972  0.0585  0.8853
13108TIP3   OH239280   1.469   2.451   6.053 -1.0226  0.0050  0.0691
13108TIP3    H139281   1.522   2.436   6.130 -2.0398  1.7551  1.1737
13108TIP3    H239282   1.520   2.512   5.999 -1.0011  0.0362  0.1252
13109TIP3   OH239283   5.297   7.640   6.211 -0.0452 -0.0119 -0.2348
13109TIP3    H139284   5.239   7.711   6.240 -0.1747 -0.0975 -0.2804
13109TIP3    H239285   5.380   7.657   6.254 -0.3972 -0.4502  0.6289
13110TIP3   OH239286   6.901   2.466   6.536 -0.2216 -0.0772  0.3152
13110TIP3    H139287   6.970   2.445   6.473 -2.0113  0.0195 -1.7795
13110TIP3    H239288   6.905   2.395   6.600  1.2784 -0.4992 -0.2145
13111TIP3   OH239289   4.868   0.262   1.081 -1.2255  0.1349  0.6064
13111TIP3    H139290   4.960   0.264   1.055 -1.8049  0.8240 -1.5343
13111TIP3    H239291   4.847   0.353   1.103 -0.9451 -0.3065  3.0599
13112TIP3   OH239292   5.938   3.639   6.304 -0.5142 -0.2019 -0.4255
13112TIP3    H139293   6.018   3.657   6.255 -0.3543 -1.6522 -0.7259
13112TIP3    H239294   5.879   3.600   6.241 -1.4925  0.8595 -0.2038
13113TIP3   OH239295   2.180   1.887   0.287 -0.5239 -0.2584  1.0427
13113TIP3    H139296   2.115   1.908   0.354 -1.7944  1.5317 -0.6522
13113TIP3    H239297   2.154   1.800   0.256 -0.7296 -0.5236  1.9156
13114TIP3   OH239298   5.509   6.326   0.432 -0.4586 -0.3158  0.0150
13114TIP3    H139299   5.490   6.398   0.492 -0.2216  0.0919 -0.3911
13114TIP3    H239300   5.460   6.252   0.466 -1.5889  0.3253 -0.1840
13115TIP3   OH239301   2.312   0.275   0.243 -0.4117  0.5375 -0.0486
13115TIP3    H139302   2.330   0.220   0.320  0.1254 -0.2657 -0.7351
13115TIP3    H239303   2.234   0.325   0.267 -0.4980 -0.0108  0.8585
13116TIP3   OH239304   6.523   6.865   3.429 -0.2860 -0.2801 -0.0156
13116TIP3    H139305   6.490   6.947   3.466  0.4410  0.0997 -0.1823
13116TIP3    H239306   6.526   6.882   3.334  0.8979 -0.0992  0.0364
13117TIP3   OH239307   0.039   5.960   3.287  0.1610 -0.1022 -0.1973
13117TIP3    H139308   0.111   5.964   3.350 -0.7941 -2.3151  1.1737
13117TIP3    H239309   0.049   6.038   3.233  3.1801  0.0094  0.3595
13118TIP3   OH239310   4.593   6.970   0.396 -0.2264  0.0069 -0.3405
13118TIP3    H139311   4.503   6.964   0.364 -0.4939 -1.6055  0.6386
13118TIP3    H239312   4.621   7.058   0.370 -1.9714  0.4336 -0.9283
13119TIP3   OH239313   0.271   6.015   3.467  0.1942 -0.5044 -0.3427
13119TIP3    H139314   0.363   5.997   3.448  0.3411 -2.3002  1.7206
13119TIP3    H239315   0.271   6.050   3.556 -1.1221 -0.7014 -0.2515
13120TIP3   OH239316   3.369   0.534   1.387  0.2403 -0.8376  0.2052
13120TIP3    H139317   3.276   0.511   1.388 -0.0650  0.3606  0.2282
13120TIP3    H239318   3.395   0.522   1.296 -0.5835  1.2358 -0.3532
13121TIP3   OH239319   4.917   4.880   0.641  0.7120  0.1889  0.0038
13121TIP3    H139320   4.996   4.842   0.602  0.0681  1.2722 -2.5628
13121TIP3    H239321   4.846   4.824   0.610  0.2981  0.0434  1.1447
13122TIP3   OH239322   6.159   0.854   3.702 -0.0565  0.3388 -0.5235
13122TIP3    H139323   6.217   0.930   3.694  0.3446 -0.1025 -2.1316
13122TIP3    H239324   6.217   0.778   3.693 -0.8485 -0.1122 -2.2182
13123TIP3   OH239325   6.101   1.208   0.871  0.5133 -0.1731 -0.0873
13123TIP3    H139326   6.105   1.302   0.885 -1.0187 -0.0117 -0.5879
13123TIP3    H239327   6.044   1.197   0.795  0.0820 -1.5225  0.3989
13124TIP3   OH239328   0.775   5.882   4.556 -0.3461 -0.3887  0.2024
13124TIP3    H139329   0.751   5.836   4.475  2.3163 -1.1311 -0.2357
13124TIP3    H239330   0.816   5.963   4.526 -0.0200 -0.3151  0.8443
13125TIP3   OH239331   2.892   3.257   3.436  0.1291 -0.5385 -0.3980
13125TIP3    H139332   2.897   3.215   3.351  1.4638 -1.4804  0.1192
13125TIP3    H239333   2.894   3.185   3.499  0.0231  0.1863  0.4554
13126TIP3   OH239334   1.160   7.634   5.167 -0.5057  0.2168  0.4155
13126TIP3    H139335   1.081   7.651   5.115  0.0197  1.3665 -0.0369
13126TIP3    H239336   1.127   7.619   5.255 -1.3284 -0.6436 -0.0118
13127TIP3   OH239337   5.161   7.136   0.350 -0.0351 -0.0579  0.1021
13127TIP3    H139338   5.231   7.081   0.385 -1.2214 -0.9400  1.1906
13127TIP3    H239339   5.197   7.224   0.351  1.1907 -0.5371  0.2568
13128TIP3   OH239340   2.669   3.654   5.355  0.3928  0.2367 -0.4013
13128TIP3    H139341   2.577   3.642   5.376  0.3398  2.0586  0.5986
13128TIP3    H239342   2.708   3.568   5.369 -1.1556 -0.6047 -0.9989
13129TIP3   OH239343   7.189   2.040   5.395 -0.0984  0.5058 -0.0830
13129TIP3    H139344   7.147   2.118   5.432 -0.2216  1.1988 -1.5956
13129TIP3    H239345   7.133   1.968   5.424 -0.4616  1.0623  0.6485
13130TIP3   OH239346   6.918   7.639   5.577 -0.0228  0.2993 -1.4306
13130TIP3    H139347   6.906   7.544   5.580  0.1783  0.3126  0.7931
13130TIP3    H239348   6.853   7.668   5.513 -1.7504 -1.1198 -0.4325
13131TIP3   OH239349   7.212   4.264   3.262 -0.1829 -0.3109 -0.4635
13131TIP3    H139350   7.135   4.315   3.238  0.6095  1.7526  1.0879
13131TIP3    H239351   7.181   4.174   3.266 -2.5996  0.4812  0.3551
13132TIP3   OH239352   3.770   5.356   4.927 -0.0617  0.1785  0.5723
13132TIP3    H139353   3.721   5.404   4.860 -0.8924 -1.6141 -0.1903
13132TIP3    H239354   3.756   5.405   5.007 -0.6036  1.3619 -0.2211
13133TIP3   OH239355   7.552   0.893   1.973 -0.4033  0.4451 -0.0897
13133TIP3    H139356   7.526   0.963   1.912 -1.9602  1.6902  1.8891
13133TIP3    H239357   7.474   0.838   1.982  0.9077 -1.9069 -1.9058
13134TIP3   OH239358   1.023   7.532   5.840 -0.5388  0.5469  0.7748
13134TIP3    H139359   1.116   7.539   5.822 -0.5572 -1.6599 -0.6276
13134TIP3    H239360   0.980   7.571   5.764 -0.7242  0.0824  0.6355
13135TIP3   OH239361   6.778   7.545   6.553  0.1242  0.1231  0.3999
13135TIP3    H139362   6.754   7.602   6.480 -0.1036  1.0922  1.2083
13135TIP3    H239363   6.869   7.568   6.572 -0.2848  1.0106  1.4062
13136TIP3   OH239364   0.712   0.142   4.177 -0.8148 -0.0155  0.0386
13136TIP3    H139365   0.754   0.203   4.238 -0.6378 -0.6965  0.6125
13136TIP3    H239366   0.618   0.159   4.187 -0.9846 -1.8510  2.4516
13137TIP3   OH239367   7.472   6.458   3.114  0.7076  0.1518 -0.4821
13137TIP3    H139368   7.392   6.483   3.161  0.1673 -0.6890 -0.9104
13137TIP3    H239369   7.509   6.540   3.083 -0.6426  0.4992 -1.2877
13138TIP3   OH239370   4.234   2.393   3.964 -0.0448  0.2032  0.4086
13138TIP3    H139371   4.201   2.462   4.021  0.6204  0.4447  0.5069
13138TIP3    H239372   4.254   2.320   4.023  1.5512  0.7872  0.6302
13139TIP3   OH239373   3.078   1.022   0.909  0.3816 -0.4979  0.1177
13139TIP3    H139374   3.027   0.951   0.870  1.2845 -2.3572  2.1085
13139TIP3    H239375   3.015   1.093   0.920 -0.8836 -1.4243 -0.7628
13140TIP3   OH239376   2.432   7.579   2.893 -0.1401  0.0645 -0.0499
13140TIP3    H139377   2.522   7.607   2.878 -0.7738  1.9121 -0.7153
13140TIP3    H239378   2.401   7.636   2.964 -1.4127  0.9333 -1.2620
13141TIP3   OH239379   0.952   3.933   4.135  0.0099  0.2614  0.8933
13141TIP3    H139380   0.932   3.844   4.166 -0.7240 -0.2758 -1.0178
13141TIP3    H239381   1.017   3.921   4.067  0.6037  1.3072  1.2500
13142TIP3   OH239382   4.455   5.302   1.798 -0.1649 -0.6847 -0.2525
13142TIP3    H139383   4.547   5.314   1.822 -0.6517 -1.7123  2.5914
13142TIP3    H239384   4.430   5.218   1.837 -2.2351 -0.5733 -1.1770
13143TIP3   OH239385   5.232   4.688   3.436 -0.2266  0.6641 -0.0327
13143TIP3    H139386   5.143   4.715   3.413 -0.3911  0.7638  0.6899
13143TIP3    H239387   5.221   4.628   3.510  0.2183 -0.5148 -0.9003
13144TIP3   OH239388   5.534   5.548   0.287 -0.0193  0.2751 -0.2582
13144TIP3    H139389   5.510   5.467   0.332 -0.1523  0.4508 -0.0176
13144TIP3    H239390   5.459   5.568   0.232 -0.6677  1.1221  0.9017
13145TIP3   OH239391   6.404   2.351   2.001  0.3322 -0.1809  0.8007
13145TIP3    H139392   6.328   2.383   2.048 -0.7652 -0.0507 -0.9553
13145TIP3    H239393   6.382   2.261   1.976 -0.2045  0.5285 -1.5222
13146TIP3   OH239394   2.568   0.081   3.817 -0.0398  0.0472  0.2852
13146TIP3    H139395   2.592   0.084   3.724  0.2046 -1.3750  0.2836
13146TIP3    H239396   2.486   0.033   3.819 -0.2979  0.4989  0.7762
13147TIP3   OH239397   2.822   7.447   1.635  0.3674 -0.2042  0.6121
13147TIP3    H139398   2.791   7.364   1.599  0.6004  0.3516 -0.9481
13147TIP3    H239399   2.797   7.444   1.728 -2.3126 -0.7477 -0.0432
13148TIP3   OH239400   5.597   3.334   0.869  0.1534 -0.0635  0.1090
13148TIP3    H139401   5.603   3.323   0.774  1.7827  0.5754  0.1025
13148TIP3    H239402   5.646   3.414   0.887  1.3219 -1.0681  1.6446
13149TIP3   OH239403   5.243   2.751   1.213  0.4331 -0.2059 -0.0195
13149TIP3    H139404   5.331   2.751   1.251  0.9982  2.4274 -1.1059
13149TIP3    H239405   5.256   2.720   1.123  0.5867  1.8162 -0.7275
13150TIP3   OH239406   7.340   0.177   4.434  0.5092 -0.1839 -0.3293
13150TIP3    H139407   7.304   0.262   4.408  0.2569  0.3157  1.5113
13150TIP3    H239408   7.403   0.155   4.365 -2.1115 -0.3482 -2.8659
13151TIP3   OH239409   7.379   3.983   4.902  0.7655 -0.6126  0.1740
13151TIP3    H139410   7.355   3.984   4.994  0.9600 -0.1858  0.2210
13151TIP3    H239411   7.301   4.017   4.857  0.9256 -0.1608  0.2404
13152TIP3   OH239412   5.806   5.669   1.851 -0.0316 -0.1831 -0.3405
13152TIP3    H139413   5.870   5.653   1.921 -0.1482 -1.0443 -0.4216
13152TIP3    H239414   5.723   5.641   1.888 -0.0733 -0.7766 -0.8716
13153TIP3   OH239415   6.474   3.260   5.218 -0.1112  0.3272  0.0552
13153TIP3    H139416   6.418   3.336   5.210 -0.1418  0.2041 -1.0795
13153TIP3    H239417   6.518   3.271   5.302 -1.2268  0.8248  0.5959
13154TIP3   OH239418   7.037   1.812   1.811 -0.4193  0.3979  0.4361
13154TIP3    H139419   7.117   1.763   1.831 -1.1482  0.4224  4.1401
13154TIP3    H239420   7.068   1.898   1.782  0.8120 -0.6534 -1.6997
13155TIP3   OH239421   1.162   3.777   1.907 -0.2560 -0.5682 -0.0196
13155TIP3    H139422   1.181   3.769   2.001  0.9402  0.2940 -0.1715
13155TIP3    H239423   1.072   3.745   1.899 -0.4586 -0.4683  1.4502
13156TIP3   OH239424   2.243   2.376   0.234  0.1528 -0.7974 -0.3023
13156TIP3    H139425   2.310   2.314   0.263  1.5640  0.2349 -1.1772
13156TIP3    H239426   2.293   2.456   0.213 -1.4806  0.3192 -0.0828
13157TIP3   OH239427   2.684   1.564   6.508 -0.5322  0.0284 -0.4593
13157TIP3    H139428   2.631   1.640   6.483 -0.4840  0.1842 -0.0977
13157TIP3    H239429   2.624   1.490   6.501 -0.9947  0.2891  0.6077
13158TIP3   OH239430   5.045   6.250   5.851 -0.1885 -0.2034  0.4759
13158TIP3    H139431   5.076   6.165   5.819  0.6592 -0.0154  0.7903
13158TIP3    H239432   5.041   6.305   5.773  1.5461  0.1519  0.5904
13159TIP3   OH239433   2.426   6.096   2.273 -0.0268  0.1781 -0.2035
13159TIP3    H139434   2.456   6.064   2.189  1.3917 -0.7770  0.6212
13159TIP3    H239435   2.333   6.116   2.260 -0.3612 -1.9140 -1.4417
13160TIP3   OH239436   4.166   3.403   5.951 -0.1299  0.3109  0.7376
13160TIP3    H139437   4.224   3.423   6.024  0.9557  0.7178 -0.1898
13160TIP3    H239438   4.171   3.481   5.895 -1.4151  0.2639  0.5226
13161TIP3   OH239439   1.643   4.134   1.542  0.0955 -0.5923  0.6535
13161TIP3    H139440   1.560   4.128   1.589  0.9068  0.7370  2.3557
13161TIP3    H239441   1.685   4.049   1.558 -1.4298 -1.8240 -1.3697
13162TIP3   OH239442   1.506   1.470   3.760  0.4657 -0.5314 -0.0686
13162TIP3    H139443   1.419   1.462   3.800  0.6612  0.0791  0.5027
13162TIP3    H239444   1.535   1.380   3.747  0.7201 -0.7879  1.9130
13163TIP3   OH239445   7.877   1.099   5.207 -0.1725 -0.3243  0.3324
13163TIP3    H139446   7.787   1.068   5.202 -0.1743 -0.5947  1.7044
13163TIP3    H239447   7.903   1.086   5.298  0.8737  0.8186  0.2377
13164TIP3   OH239448   6.677   3.926   4.260  0.2808  0.0321 -0.2819
13164TIP3    H139449   6.606   3.934   4.323 -0.9119  0.4305 -1.6076
13164TIP3    H239450   6.734   3.858   4.296 -1.4788 -1.2739  0.1964
13165TIP3   OH239451   1.628   5.532   2.322  0.3875 -0.2430 -0.4513
13165TIP3    H139452   1.610   5.536   2.416 -0.8678 -0.5490 -0.6706
13165TIP3    H239453   1.667   5.446   2.309 -1.4214 -1.0974 -0.5141
13166TIP3   OH239454   2.837   3.629   5.989 -0.3685  0.5038  0.3632
13166TIP3    H139455   2.852   3.620   6.084 -2.2143 -0.5049  0.6113
13166TIP3    H239456   2.759   3.683   5.983  0.3445  1.4511 -0.6480
13167TIP3   OH239457   2.215   5.312   3.266  0.7744 -0.7474  0.5168
13167TIP3    H139458   2.189   5.336   3.355 -1.5352 -1.1244  0.0059
13167TIP3    H239459   2.310   5.323   3.265  0.7041  0.5769  2.6146
13168TIP3   OH239460   4.352   3.523   0.496 -0.4035  0.1881  0.0217
13168TIP3    H139461   4.419   3.455   0.508 -0.7894 -0.1042  0.5380
13168TIP3    H239462   4.295   3.515   0.572 -0.8460  0.6488 -0.2540
13169TIP3   OH239463   7.266   7.112   3.850 -0.1932 -0.0822 -0.6689
13169TIP3    H139464   7.214   7.035   3.872  1.9855 -1.2130  0.9491
13169TIP3    H239465   7.235   7.180   3.910 -0.2447 -0.5620 -0.1460
13170TIP3   OH239466   5.407   5.962   1.271  0.3997 -0.3472  0.3762
13170TIP3    H139467   5.406   6.045   1.224 -1.6921 -0.1340  0.6993
13170TIP3    H239468   5.425   5.985   1.362 -2.2138  0.0762  0.8644
13171TIP3   OH239469   7.902   0.902   4.321 -0.1551 -0.4476  0.0551
13171TIP3    H139470   7.965   0.853   4.268 -0.6801  0.8838 -1.9208
13171TIP3    H239471   7.836   0.932   4.258 -0.9350  1.0544  1.5122
13172TIP3   OH239472   2.388   2.635   2.672 -0.1234 -0.0627 -0.7774
13172TIP3    H139473   2.423   2.657   2.758  0.9760  0.2896 -1.2941
13172TIP3    H239474   2.416   2.706   2.615 -1.8867  0.3386 -1.2011
13173TIP3   OH239475   5.094   7.212   3.496 -0.2442 -0.0492  0.0332
13173TIP3    H139476   5.154   7.196   3.569 -0.6414  1.0686  0.6449
13173TIP3    H239477   5.010   7.229   3.538 -1.3072 -2.6499 -0.8481
13174TIP3   OH239478   2.192   1.926   1.003  0.2426 -0.5641 -0.3387
13174TIP3    H139479   2.149   1.974   1.075  0.7994  0.0456 -0.4104
13174TIP3    H239480   2.214   1.841   1.042 -0.2772 -0.5736 -0.0540
13175TIP3   OH239481   4.660   3.816   0.513  0.8302 -0.1075 -0.2003
13175TIP3    H139482   4.576   3.792   0.476  1.3404 -0.5509 -1.0873
13175TIP3    H239483   4.672   3.755   0.586  0.8095 -0.6780 -0.6622
13176TIP3   OH239484   4.288   5.392   1.412 -0.4910 -0.4827 -0.3095
13176TIP3    H139485   4.224   5.356   1.351  1.2231 -1.4834 -1.5882
13176TIP3    H239486   4.313   5.476   1.374  2.1715 -2.0215 -2.3333
13177TIP3   OH239487   0.089   3.401   0.365  0.0777 -0.3450 -0.3625
13177TIP3    H139488   0.093   3.308   0.342 -1.9624 -0.6398  0.2265
13177TIP3    H239489   0.104   3.404   0.459 -0.2327 -0.1320 -0.3160
13178TIP3   OH239490   1.939   2.730   5.548  0.2066 -0.3223 -0.1144
13178TIP3    H139491   2.028   2.764   5.532  0.3585 -0.4316  0.4790
13178TIP3    H239492   1.905   2.712   5.460  0.0255  1.5896 -0.4762
13179TIP3   OH239493   5.895   2.988   2.275  0.5807 -0.3170 -0.6169
13179TIP3    H139494   5.949   3.064   2.257  0.5926 -0.0266  0.5620
13179TIP3    H239495   5.805   3.017   2.259  0.3621  0.6798  1.9468
13180TIP3   OH239496   4.991   0.540   2.082 -0.2364 -0.1181 -0.6318
13180TIP3    H139497   5.082   0.570   2.083 -0.6909  1.4512  1.5649
13180TIP3    H239498   4.993   0.456   2.128 -0.0176  0.5021  0.5420
13181TIP3   OH239499   2.036   4.172   1.603  0.2757 -0.1765 -0.1354
13181TIP3    H139500   2.039   4.185   1.508  2.8829  0.1486 -0.0774
13181TIP3    H239501   2.019   4.079   1.614  0.3077 -0.2841 -0.9452
13182TIP3   OH239502   5.613   4.202   4.419 -0.8315  0.2305 -0.3794
13182TIP3    H139503   5.578   4.167   4.501 -0.3568  0.7683  0.0651
13182TIP3    H239504   5.676   4.269   4.447 -0.9311  0.6772 -1.1887
13183TIP3   OH239505   8.222   5.125   5.036 -0.1412 -0.0198 -0.3050
13183TIP3    H139506   8.133   5.128   4.999  0.4671  1.1061 -1.7441
13183TIP3    H239507   8.275   5.177   4.977  1.7985 -1.8010 -0.2623
13184TIP3   OH239508   0.964   7.263   5.923  0.6286  0.0347 -0.0714
13184TIP3    H139509   0.969   7.347   5.878 -2.5062  0.6308  0.4168
13184TIP3    H239510   0.912   7.281   6.001 -0.5306 -2.4091 -0.1893
13185TIP3   OH239511   3.588   4.139   1.408  0.0714  0.3729  0.2847
13185TIP3    H139512   3.577   4.190   1.327  1.3687 -0.8948 -0.7566
13185TIP3    H239513   3.571   4.048   1.381  1.9571 -0.2562  1.0619
13186TIP3   OH239514   8.152   5.797   6.748 -0.2361 -0.3098  0.2615
13186TIP3    H139515   8.064   5.830   6.767 -0.4920 -1.0550  0.4076
13186TIP3    H239516   8.209   5.844   6.809 -0.3791  0.8989 -0.4855
13187TIP3   OH239517   3.555   6.221   5.210 -0.1892  0.2820 -0.2215
13187TIP3    H139518   3.638   6.178   5.232  0.5920  0.9449 -1.6984
13187TIP3    H239519   3.491   6.182   5.269  1.1104 -0.4948  0.7297
13188TIP3   OH239520   6.103   5.760   1.733 -0.5193 -0.0990  0.5456
13188TIP3    H139521   6.030   5.749   1.673  0.2704 -1.2156 -0.2522
13188TIP3    H239522   6.066   5.807   1.808 -1.6754  0.7696 -0.5180
13189TIP3   OH239523   5.171   5.682   1.109  0.1734  0.4696 -0.0954
13189TIP3    H139524   5.127   5.625   1.046  0.2208 -0.9273  1.0961
13189TIP3    H239525   5.206   5.753   1.056 -1.7635  0.5614 -1.3474
13190TIP3   OH239526   7.109   0.736   3.767  0.1066 -0.4660  0.0063
13190TIP3    H139527   7.169   0.665   3.745 -0.6958 -1.7852  1.8644
13190TIP3    H239528   7.145   0.774   3.847 -1.2169 -0.9084  0.8348
13191TIP3   OH239529   5.886   7.645   3.736 -0.4154  0.1701  0.1724
13191TIP3    H139530   5.933   7.729   3.733  0.8632 -0.5184  0.6273
13191TIP3    H239531   5.879   7.619   3.644  0.0068  0.3232  0.0955
13192TIP3   OH239532   4.413   2.324   1.063 -0.5519 -0.5147  0.3610
13192TIP3    H139533   4.442   2.285   1.146 -0.9235 -0.2137  0.6387
13192TIP3    H239534   4.493   2.335   1.013 -0.3634 -1.0407  0.5304
13193TIP3   OH239535   1.856   1.378   3.323  0.0169  0.2315  0.0183
13193TIP3    H139536   1.841   1.457   3.375  0.3624  1.0151 -1.0359
13193TIP3    H239537   1.769   1.352   3.293 -0.1571 -0.1010  0.8039
13194TIP3   OH239538   6.081   2.311   5.652 -0.3135  0.4122 -0.0144
13194TIP3    H139539   6.103   2.286   5.562  0.3578  0.2385  0.1894
13194TIP3    H239540   6.064   2.406   5.646  0.3315  0.5214 -0.2223
13195TIP3   OH239541   3.586   5.786   0.479  0.8706 -0.5957  0.1374
13195TIP3    H139542   3.574   5.876   0.451 -0.7260 -0.5876  0.8082
13195TIP3    H239543   3.604   5.738   0.397  3.1459  0.4838 -0.0902
13196TIP3   OH239544   6.323   5.076   1.029  0.3062 -0.2950  0.3278
13196TIP3    H139545   6.351   4.987   1.050 -2.8349 -1.2794  0.8134
13196TIP3    H239546   6.288   5.111   1.111 -3.0029 -0.5284 -0.8371
13197TIP3   OH239547   0.014   5.548   1.769  0.1572  0.4796 -0.0534
13197TIP3    H139548  -0.048   5.597   1.715 -0.8031 -0.3434  0.2699
13197TIP3    H239549   0.083   5.521   1.709 -0.0223  1.0230 -0.5101
13198TIP3   OH239550   4.454   6.236   0.289  0.5531 -0.6857  0.5222
13198TIP3    H139551   4.527   6.204   0.237  0.3183 -0.7105  0.2015
13198TIP3    H239552   4.376   6.202   0.244  0.3638 -1.2062  1.2242
13199TIP3   OH239553   1.654   4.312   0.760  0.0651  0.4174  0.8714
13199TIP3    H139554   1.706   4.289   0.837 -1.1428 -1.2184  1.2496
13199TIP3    H239555   1.702   4.275   0.687 -0.2949 -0.6681  1.1708
13200TIP3   OH239556   3.982   2.956   6.046  0.3076  0.0503  0.2255
13200TIP3    H139557   4.040   2.885   6.020 -0.7896 -0.8328  0.1108
13200TIP3    H239558   3.894   2.921   6.032 -0.2767  2.0297 -1.4470
13201TIP3   OH239559   2.254   1.176   1.119 -0.3684  0.6150 -0.4506
13201TIP3    H139560   2.282   1.087   1.097 -0.4704  0.8293 -1.4809
13201TIP3    H239561   2.271   1.227   1.040  0.9813  1.8286  0.5690
13202TIP3   OH239562   2.875   5.014   3.815  0.8895  0.3571 -0.3301
13202TIP3    H139563   2.822   5.017   3.895  0.5489  0.5031 -0.5575
13202TIP3    H239564   2.855   4.929   3.776  3.2089 -0.9817  1.1732
13203TIP3   OH239565   1.550   5.843   0.724  0.3847  0.1367  0.1657
13203TIP3    H139566   1.589   5.806   0.645  0.6658  2.3719 -0.8124
13203TIP3    H239567   1.457   5.848   0.705  0.0979 -1.5264  0.9570
13204TIP3   OH239568   0.794   6.004   6.507  0.1113 -0.1803  0.1683
13204TIP3    H139569   0.781   6.079   6.565 -0.5467  0.0515 -0.2654
13204TIP3    H239570   0.806   5.930   6.566  1.5843  0.3682  0.6192
13205TIP3   OH239571   7.371   0.149   1.583 -0.0907 -0.0670 -0.2704
13205TIP3    H139572   7.351   0.228   1.633 -1.0927 -1.0916  1.0698
13205TIP3    H239573   7.294   0.135   1.528  0.1830  0.0156 -0.6772
13206TIP3   OH239574   2.057   4.919   2.561  0.3511 -0.0005 -0.0047
13206TIP3    H139575   2.149   4.938   2.543  0.6998 -1.3693  0.2500
13206TIP3    H239576   2.015   5.005   2.565  1.8885  0.7307  1.3410
13207TIP3   OH239577   5.025   4.023   2.796 -0.4054  0.1460 -0.6634
13207TIP3    H139578   4.970   3.952   2.827 -1.3974  0.2534 -2.0714
13207TIP3    H239579   4.966   4.080   2.747  0.6395  1.1954 -0.7665
13208TIP3   OH239580   0.042   5.114   0.008  0.6130 -0.2118 -0.4188
13208TIP3    H139581   0.108   5.054  -0.027  2.1701  0.1842  1.6620
13208TIP3    H239582   0.093   5.180   0.056 -1.2767  0.3339  0.9433
13209TIP3   OH239583   0.988   3.253   1.902 -0.4918  0.3729 -0.5153
13209TIP3    H139584   0.920   3.199   1.940 -1.0503  0.8201 -0.8459
13209TIP3    H239585   0.978   3.241   1.807 -1.5579  2.1007 -0.6727
13210TIP3   OH239586   3.465   7.272   1.564 -0.0989 -0.1614  0.2515
13210TIP3    H139587   3.437   7.349   1.515 -0.6090 -0.5297 -0.0426
13210TIP3    H239588   3.551   7.296   1.599 -0.3607  0.6277  0.3734
13211TIP3   OH239589   3.281   4.857   1.014  0.5920 -0.0354 -0.0896
13211TIP3    H139590   3.262   4.857   0.920 -0.2104 -2.5250  0.0105
13211TIP3    H239591   3.196   4.871   1.056  0.4508 -1.6911  0.2506
13212TIP3   OH239592   3.630   4.960   6.139 -0.1898  0.0014 -0.2039
13212TIP3    H139593   3.723   4.950   6.157  0.1385  0.7962 -1.3154
13212TIP3    H239594   3.589   4.881   6.175  0.8280 -0.0993  0.7789
13213TIP3   OH239595   3.154   3.612   4.523  0.0948 -0.1566 -0.4374
13213TIP3    H139596   3.248   3.625   4.530  0.1349  0.0959 -1.2881
13213TIP3    H239597   3.139   3.526   4.563  0.3695  0.6935  1.6329
13214TIP3   OH239598   7.708   7.354   6.426 -0.3010  0.2206 -0.0932
13214TIP3    H139599   7.671   7.379   6.341 -0.3854 -0.3295 -0.2197
13214TIP3    H239600   7.653   7.400   6.490  0.6042  1.7453 -0.3609
13215TIP3   OH239601   4.492   7.418   0.948 -0.1530 -0.1377 -0.2277
13215TIP3    H139602   4.523   7.352   0.886  2.6856  2.1954 -1.5008
13215TIP3    H239603   4.524   7.388   1.033 -0.0416 -1.0334 -0.5734
13216TIP3   OH239604   7.690   5.333   4.821  0.7968 -0.3657  0.1387
13216TIP3    H139605   7.735   5.417   4.817 -0.2402  0.2356  0.5496
13216TIP3    H239606   7.752   5.274   4.864  0.5593  0.9192  2.4289
13217TIP3   OH239607   3.627   3.992   6.443 -0.4116 -0.4146  0.2726
13217TIP3    H139608   3.590   3.957   6.362 -1.0511  0.5467  0.1313
13217TIP3    H239609   3.561   3.973   6.509 -0.4178 -0.1645  0.3404
13218TIP3   OH239610   7.006   5.867   0.704 -0.4959  0.1970  0.2396
13218TIP3    H139611   7.100   5.864   0.686 -0.5082 -0.1151  0.2182
13218TIP3    H239612   6.998   5.837   0.795 -0.8025 -2.6910 -0.6163
13219TIP3   OH239613   5.173   1.320   4.616  0.1734 -0.3103  0.5004
13219TIP3    H139614   5.172   1.225   4.607 -0.4847 -0.2188 -0.5540
13219TIP3    H239615   5.111   1.351   4.550 -0.4197  0.7959  1.5516
13220TIP3   OH239616   8.105   5.533   1.505 -0.1647  1.0843  0.3017
13220TIP3    H139617   8.090   5.440   1.489  0.8490  0.4410  2.6001
13220TIP3    H239618   8.041   5.556   1.573  0.0247  1.8895  0.2143
13221TIP3   OH239619   4.838   3.985   5.066 -0.8085 -0.0118 -0.2608
13221TIP3    H139620   4.908   3.926   5.095 -0.4916 -0.0663 -1.0981
13221TIP3    H239621   4.838   4.056   5.130 -0.4714 -0.3793  0.1520
13222TIP3   OH239622   5.064   4.202   2.107  0.0066 -0.6749 -0.0676
13222TIP3    H139623   5.008   4.276   2.083 -0.6260 -0.8495  0.7975
13222TIP3    H239624   5.153   4.237   2.104 -0.2182 -0.1321 -0.5487
13223TIP3   OH239625   8.270   5.442   0.863 -0.4728  0.4168  0.3609
13223TIP3    H139626   8.348   5.497   0.855  0.5097 -1.0660 -0.5676
13223TIP3    H239627   8.203   5.486   0.810  1.1954 -0.7862 -3.0354
13224TIP3   OH239628   2.731   7.758   0.818 -0.4216 -0.4505  0.1041
13224TIP3    H139629   2.709   7.850   0.805  1.6569 -0.1008 -1.2247
13224TIP3    H239630   2.656   7.710   0.782 -1.5744  0.6648  0.9054
13225TIP3   OH239631   7.339   6.436   1.060  0.7207 -0.2454 -0.2328
13225TIP3    H139632   7.394   6.462   1.134  1.6188 -0.6363 -0.7477
13225TIP3    H239633   7.287   6.363   1.093 -0.4541  0.9340  0.6481
13226TIP3   OH239634   4.795   5.509   3.869  0.0613 -0.6298 -0.1963
13226TIP3    H139635   4.780   5.416   3.888  1.7547 -0.5008  2.2738
13226TIP3    H239636   4.738   5.555   3.930  1.0369 -0.0903  0.3306
13227TIP3   OH239637   2.554   1.461   4.340 -0.2760 -0.2232 -0.1774
13227TIP3    H139638   2.590   1.437   4.254  0.6901  0.4070  0.0337
13227TIP3    H239639   2.507   1.383   4.369  1.2993 -1.2512 -0.2749
13228TIP3   OH239640   0.091   4.279   4.511  0.5552  0.4842 -0.1324
13228TIP3    H139641   0.135   4.226   4.445  1.2207  0.2576  0.4912
13228TIP3    H239642   0.035   4.218   4.558 -0.9401  0.8666 -1.3033
13229TIP3   OH239643   3.248   4.609   0.154  0.2178 -0.4853  0.2129
13229TIP3    H139644   3.167   4.565   0.129 -0.2837  0.5708 -0.0783
13229TIP3    H239645   3.316   4.544   0.135 -0.3827 -0.7090 -1.3822
13230TIP3   OH239646   0.515   0.508   4.019 -0.7668  0.5386 -0.4534
13230TIP3    H139647   0.466   0.428   4.004 -0.7494  0.4713 -0.1512
13230TIP3    H239648   0.464   0.576   3.975 -1.2803  0.5140  0.1076
13231TIP3   OH239649   6.744   6.766   2.499  0.4131  0.5742 -0.2594
13231TIP3    H139650   6.829   6.723   2.486  0.2144 -0.9475  2.6226
13231TIP3    H239651   6.684   6.720   2.440  1.2191  0.3977 -0.9574
13232TIP3   OH239652   3.301   2.190   6.309  0.1844 -1.0580 -0.3285
13232TIP3    H139653   3.282   2.220   6.221 -2.4860  0.9278  0.7654
13232TIP3    H239654   3.255   2.106   6.316 -1.5655 -0.1389 -0.2168
13233TIP3   OH239655   4.956   5.410   1.236  0.5873  0.1082 -0.1302
13233TIP3    H139656   4.901   5.355   1.292  1.8571 -1.5880 -0.4534
13233TIP3    H239657   4.897   5.440   1.167  0.1822 -2.4350 -0.9959
13234TIP3   OH239658   0.398   5.826   1.429 -0.1827  0.2889 -0.0761
13234TIP3    H139659   0.408   5.731   1.424 -1.1929  0.2163 -1.6652
13234TIP3    H239660   0.481   5.858   1.463 -0.3073 -1.2325  1.8146
13235TIP3   OH239661   5.826   0.421   5.267 -0.7883 -0.1406 -0.5090
13235TIP3    H139662   5.822   0.330   5.296  2.9138 -1.2003 -2.6519
13235TIP3    H239663   5.903   0.458   5.311 -0.4117  0.9527 -1.9962
13236TIP3   OH239664   5.359   1.931   6.208  0.0707 -0.2977  0.2988
13236TIP3    H139665   5.283   1.926   6.266  0.4684 -1.0179  0.7745
13236TIP3    H239666   5.327   1.978   6.131 -0.6225  0.1609  0.8472
13237TIP3   OH239667   4.008   5.226   5.910  0.2338 -0.3695  0.3944
13237TIP3    H139668   3.949   5.283   5.959  0.0575 -0.6641  0.5290
13237TIP3    H239669   3.962   5.142   5.905  1.3677 -1.1492  2.0358
13238TIP3   OH239670   2.500   5.042   0.344  0.6646  0.1823 -0.6024
13238TIP3    H139671   2.581   5.086   0.367  0.0847  0.0044  2.1758
13238TIP3    H239672   2.523   4.949   0.340  0.4128 -0.0512  1.7419
13239TIP3   OH239673   2.235   4.472   5.775 -0.2860 -0.0108 -0.2814
13239TIP3    H139674   2.224   4.409   5.846 -0.0965 -0.2676 -0.4770
13239TIP3    H239675   2.292   4.540   5.812  2.0415 -1.4682 -0.9889
13240TIP3   OH239676   5.582   2.340   3.221 -0.5451 -0.2473 -0.4231
13240TIP3    H139677   5.506   2.336   3.163  0.0560  0.9836 -1.3392
13240TIP3    H239678   5.622   2.253   3.213 -2.7310 -1.5359  1.4008
13241TIP3   OH239679   2.951   2.613   6.013 -0.3598  0.1489  0.2660
13241TIP3    H139680   2.980   2.567   5.934 -2.4406 -0.6227 -0.1315
13241TIP3    H239681   2.940   2.704   5.985  0.4594  0.2065  0.1104
13242TIP3   OH239682   7.255   1.940   0.540 -0.5179  0.0304 -0.3624
13242TIP3    H139683   7.326   1.926   0.603  0.5287 -0.2842 -1.5540
13242TIP3    H239684   7.234   2.033   0.549 -0.7874 -0.1288  0.8307
13243TIP3   OH239685   6.108   3.498   3.657  0.3472 -0.2146  0.2346
13243TIP3    H139686   6.026   3.526   3.617  0.2721  1.6706  1.5572
13243TIP3    H239687   6.168   3.487   3.584 -0.3060  1.2165 -0.5640
13244TIP3   OH239688   1.127   1.338   1.341  0.3025 -0.3237  0.2087
13244TIP3    H139689   1.213   1.367   1.371  1.1390 -1.3724 -1.0967
13244TIP3    H239690   1.098   1.276   1.408  0.6981 -0.2269  0.4742
13245TIP3   OH239691   4.133   7.014   1.612 -0.5168 -0.9667  0.3906
13245TIP3    H139692   4.126   6.958   1.690 -0.4853 -0.9497  0.4058
13245TIP3    H239693   4.213   7.064   1.626 -1.2403  0.0480  0.9995
13246TIP3   OH239694   6.240   2.387   0.347 -0.2087  0.2741  0.3015
13246TIP3    H139695   6.269   2.353   0.262 -0.5154 -0.0712  0.3341
13246TIP3    H239696   6.317   2.379   0.403  0.0987  0.8138 -0.0283
13247TIP3   OH239697   5.529   4.235   1.837 -0.8466  0.2678  0.2114
13247TIP3    H139698   5.481   4.152   1.833 -0.6748  0.2253 -1.3008
13247TIP3    H239699   5.465   4.300   1.808 -0.8612  0.6392  1.0301
13248TIP3   OH239700   0.350   4.946   4.313 -0.4079 -0.5351  0.3264
13248TIP3    H139701   0.328   4.870   4.367 -1.9512 -0.2368  0.1558
13248TIP3    H239702   0.374   4.909   4.228  0.1223 -0.8958  0.6282
13249TIP3   OH239703   0.818   3.097   2.046  0.3342  0.2748  0.3119
13249TIP3    H139704   0.823   3.034   1.974 -1.9779  1.2641 -0.8334
13249TIP3    H239705   0.757   3.058   2.108  0.2195  0.6037  0.4091
13250TIP3   OH239706   3.511   5.927   6.134 -0.6333  0.3411  0.3622
13250TIP3    H139707   3.500   6.008   6.184  0.7249  1.6221 -1.3121
13250TIP3    H239708   3.540   5.955   6.048  2.8591 -1.9741  0.5482
13251TIP3   OH239709   7.484   1.822   2.383  0.1755  0.6919  0.0989
13251TIP3    H139710   7.423   1.814   2.310  0.2278 -2.0112  0.2595
13251TIP3    H239711   7.562   1.773   2.355  1.3912  2.1311  0.8074
13252TIP3   OH239712   5.833   6.802   0.482  0.3102 -0.0577  0.3425
13252TIP3    H139713   5.816   6.896   0.486  1.2249  0.1289  0.0691
13252TIP3    H239714   5.879   6.790   0.399  0.3421 -0.7228  0.4546
13253TIP3   OH239715   4.563   4.264   0.842 -0.0528 -0.3191  0.2036
13253TIP3    H139716   4.599   4.283   0.756 -1.6345 -1.1740 -0.6968
13253TIP3    H239717   4.638   4.265   0.901  1.2167 -0.7158 -1.3495
13254TIP3   OH239718   7.838   5.977   2.461  0.6000 -0.3323 -0.0360
13254TIP3    H139719   7.792   5.949   2.539 -1.4183 -0.1018 -1.0717
13254TIP3    H239720   7.892   5.902   2.437 -1.4486 -1.8081 -0.3589
13255TIP3   OH239721   0.708   1.571   5.899  0.5396 -0.4202  0.2001
13255TIP3    H139722   0.788   1.520   5.887  0.5125 -0.6343  0.8542
13255TIP3    H239723   0.738   1.662   5.901  0.6189 -0.4215 -0.7233
13256TIP3   OH239724   8.196   2.996   0.581  0.3950 -0.3535  0.4661
13256TIP3    H139725   8.240   2.945   0.513 -0.4843  2.2199 -2.2756
13256TIP3    H239726   8.256   2.994   0.655  1.7869 -2.6931 -0.6182
13257TIP3   OH239727   4.165   4.501   4.746 -0.1906  0.3415  0.1945
13257TIP3    H139728   4.172   4.596   4.746 -0.8219  0.3931 -0.2499
13257TIP3    H239729   4.110   4.480   4.670  1.6567 -0.5191 -0.9823
13258TIP3   OH239730   4.995   3.357   0.177  0.3245 -0.4239 -0.0349
13258TIP3    H139731   4.994   3.427   0.112  0.3179  0.2347  0.6538
13258TIP3    H239732   4.916   3.306   0.160  0.9864 -1.0545 -1.3683
13259TIP3   OH239733   4.862   5.601   0.945 -0.0295 -0.7225  0.1592
13259TIP3    H139734   4.940   5.547   0.950  0.9095  0.4071 -1.4423
13259TIP3    H239735   4.894   5.689   0.925 -1.6781 -0.1692 -0.2488
13260TIP3   OH239736   2.036   6.598   2.608  0.4887  0.2277  0.3594
13260TIP3    H139737   2.037   6.613   2.514 -2.1674 -1.3634 -0.0139
13260TIP3    H239738   2.062   6.506   2.618  2.6649  0.8927  1.4022
13261TIP3   OH239739   7.025   7.122   4.496  0.2460  0.0917  0.3078
13261TIP3    H139740   6.964   7.085   4.560 -0.3851  1.1462  0.3381
13261TIP3    H239741   6.978   7.116   4.413  1.5110 -2.3621 -0.3398
13262TIP3   OH239742   2.634   3.642   4.606 -0.1042  0.2929  0.7304
13262TIP3    H139743   2.639   3.557   4.651 -1.0475  0.2330  0.7267
13262TIP3    H239744   2.671   3.625   4.519 -0.3937 -0.1378  0.6903
13263TIP3   OH239745   4.466   0.271   0.545 -0.0012 -0.5513  0.0521
13263TIP3    H139746   4.426   0.198   0.593 -0.6729 -0.0767  0.2349
13263TIP3    H239747   4.501   0.328   0.613 -0.3523 -0.2149 -0.0467
13264TIP3   OH239748   4.501   1.044   5.579 -0.0352 -0.2541  0.1301
13264TIP3    H139749   4.509   1.135   5.608  1.3554 -0.1409 -0.4852
13264TIP3    H239750   4.592   1.016   5.565 -0.3979 -1.9740  0.9876
13265TIP3   OH239751   2.645   7.321   5.975  0.2291  0.1258 -0.2453
13265TIP3    H139752   2.581   7.270   5.925 -1.1785  0.4060  1.2105
13265TIP3    H239753   2.661   7.399   5.922 -1.4313  0.5436 -0.1924
13266TIP3   OH239754   3.138   0.375   3.982  0.2630 -0.3374 -0.3975
13266TIP3    H139755   3.126   0.442   4.049  0.5631  0.9252 -1.5626
13266TIP3    H239756   3.064   0.315   3.995  0.7606 -0.6037  1.5577
13267TIP3   OH239757   2.292   3.166   0.104  0.5077 -0.2060  0.4092
13267TIP3    H139758   2.205   3.153   0.142  0.1838  1.5485  0.3443
13267TIP3    H239759   2.318   3.079   0.073 -2.4337 -0.3320 -2.1848
13268TIP3   OH239760   6.775   2.084   1.935 -0.4082 -0.0845 -0.4300
13268TIP3    H139761   6.791   2.063   1.843  0.6485 -0.5868 -0.1374
13268TIP3    H239762   6.860   2.076   1.977 -0.9908 -0.4562  0.7144
13269TIP3   OH239763   4.144   6.078   6.462  0.2340  0.2184 -0.4451
13269TIP3    H139764   4.159   6.056   6.553 -0.0645 -2.1243 -0.8981
13269TIP3    H239765   4.231   6.076   6.422  0.2535  0.2282 -0.4029
13270TIP3   OH239766   3.436   4.393   0.125  0.8518  0.3517 -0.3426
13270TIP3    H139767   3.460   4.305   0.095 -0.3285 -0.9169  2.2023
13270TIP3    H239768   3.493   4.408   0.201 -1.9750 -0.2128  2.0603
13271TIP3   OH239769   2.055   4.278   4.620  0.0383 -0.3160 -0.0231
13271TIP3    H139770   2.132   4.335   4.628  0.6500 -1.0487 -0.5901
13271TIP3    H239771   2.059   4.245   4.530 -1.0635 -0.1956 -0.1290
13272TIP3   OH239772   7.041   4.964   2.128 -0.2962  0.1390  0.2178
13272TIP3    H139773   7.104   5.036   2.136  0.7166 -0.7022 -0.0075
13272TIP3    H239774   6.982   4.992   2.058  0.0622  0.7667  0.1557
13273TIP3   OH239775   3.984   4.160   2.632  0.9226  0.5393 -0.2628
13273TIP3    H139776   4.050   4.222   2.664 -0.7644  2.4246 -0.2239
13273TIP3    H239777   3.954   4.198   2.549 -0.5326  0.0784  0.0213
13274TIP3   OH239778   2.105   6.846   3.886 -0.3188 -0.7048  0.1465
13274TIP3    H139779   2.045   6.906   3.930 -0.0044 -0.0212 -0.3390
13274TIP3    H239780   2.052   6.768   3.867 -0.7479 -0.5549  0.7100
13275TIP3   OH239781   5.429   1.771   4.710 -0.3492 -0.1129  0.1526
13275TIP3    H139782   5.510   1.815   4.736 -0.8170  1.9414 -1.5828
13275TIP3    H239783   5.399   1.820   4.633 -3.1695 -0.9027  0.6535
13276TIP3   OH239784   2.033   6.155   3.593  0.4429 -0.0903 -0.0522
13276TIP3    H139785   2.025   6.060   3.598  0.2542 -0.1005 -0.4919
13276TIP3    H239786   1.957   6.184   3.543 -0.5119  0.4907  1.6831
13277TIP3   OH239787   6.836   4.156   5.618 -0.0371  0.1570 -0.0423
13277TIP3    H139788   6.845   4.095   5.691  0.2260 -0.3380 -0.4773
13277TIP3    H239789   6.885   4.115   5.547  0.2010  0.9143 -0.3246
13278TIP3   OH239790   4.350   5.778   1.142 -0.2966  0.2161  0.6118
13278TIP3    H139791   4.424   5.822   1.101 -0.1677  0.0112  0.6240
13278TIP3    H239792   4.388   5.701   1.185 -0.1163  1.3953  2.7216
13279TIP3   OH239793   2.678   7.691   2.859  0.6096 -0.0893 -0.1307
13279TIP3    H139794   2.743   7.636   2.903 -0.1749  0.5839  2.0001
13279TIP3    H239795   2.729   7.765   2.826  1.2504 -0.6648 -0.4615
13280TIP3   OH239796   5.503   7.171   3.875 -0.0122 -0.2065  0.3241
13280TIP3    H139797   5.502   7.249   3.930 -1.8160 -0.4993  0.7557
13280TIP3    H239798   5.584   7.126   3.899  0.2322  0.6983  1.2505
13281TIP3   OH239799   1.662   2.918   5.148  0.4657  0.1823  0.5338
13281TIP3    H139800   1.570   2.909   5.171  0.1352 -0.8507 -1.0167
13281TIP3    H239801   1.706   2.846   5.192  0.4741  0.4440  0.9563
13282TIP3   OH239802   7.449   1.910   4.260  0.0191 -0.0306  0.1507
13282TIP3    H139803   7.479   1.822   4.234  0.3402 -0.0584  0.6090
13282TIP3    H239804   7.491   1.968   4.197  1.4905 -0.0198  1.0885
13283TIP3   OH239805   6.629   7.479   0.873 -0.5313  0.2978  0.2573
13283TIP3    H139806   6.609   7.479   0.967  0.4402 -0.3835  0.4713
13283TIP3    H239807   6.724   7.491   0.868 -0.1220 -2.5290 -0.5062
13284TIP3   OH239808   5.983   6.334   5.007 -0.6458 -0.2869 -0.3503
13284TIP3    H139809   5.887   6.335   5.002 -0.6112  2.1624 -1.3869
13284TIP3    H239810   6.011   6.293   4.926 -0.7798 -0.8204 -0.1362
13285TIP3   OH239811   0.524   5.266   4.097 -0.1884  0.0617 -0.1497
13285TIP3    H139812   0.581   5.191   4.113 -1.6813 -1.1840 -0.4276
13285TIP3    H239813   0.454   5.232   4.042 -1.4043  1.4460  0.4541
13286TIP3   OH239814   5.071   6.378   5.606 -0.5137  0.1611 -0.2549
13286TIP3    H139815   5.040   6.393   5.516 -0.1888 -0.0005 -0.3957
13286TIP3    H239816   5.162   6.351   5.595 -0.8688 -1.2000  0.0462
13287TIP3   OH239817   6.724   7.656   6.261 -0.1206 -0.5194  0.3568
13287TIP3    H139818   6.808   7.636   6.220 -0.3318 -0.2636 -0.2162
13287TIP3    H239819   6.683   7.570   6.274  0.2813 -0.6546  0.7669
13288TIP3   OH239820   6.394   0.457   2.022  0.4635 -0.0887 -0.1232
13288TIP3    H139821   6.333   0.519   2.060  0.4049 -0.0166 -0.3356
13288TIP3    H239822   6.461   0.511   1.979  0.3832 -0.1692 -0.3536
13289TIP3   OH239823   5.296   1.668   4.920 -0.0637 -0.1746 -0.1389
13289TIP3    H139824   5.342   1.681   5.003  0.4222  0.7715 -0.5359
13289TIP3    H239825   5.357   1.702   4.854 -0.3493 -1.1038 -0.9089
13290TIP3   OH239826   7.218   1.749   1.226 -0.0360  0.1121 -0.4682
13290TIP3    H139827   7.224   1.663   1.268 -0.9659 -0.0905 -0.7239
13290TIP3    H239828   7.127   1.776   1.240 -0.3388  0.1061 -2.1703
13291TIP3   OH239829   6.358   6.512   3.243  0.5591 -0.6486  0.0593
13291TIP3    H139830   6.288   6.481   3.185 -0.5343  0.9012  0.4926
13291TIP3    H239831   6.364   6.606   3.226  0.2383 -0.1398  2.3929
13292TIP3   OH239832   0.180   6.043   0.010  0.1330 -0.1869  0.3097
13292TIP3    H139833   0.255   5.990   0.035  0.8199 -0.2196 -1.6380
13292TIP3    H239834   0.217   6.123  -0.027 -0.6750 -0.6800 -1.7536
13293TIP3   OH239835   4.951   2.121   0.784 -0.0376 -0.7515  0.6882
13293TIP3    H139836   4.949   2.026   0.794 -0.7705 -0.8083  0.0954
13293TIP3    H239837   4.929   2.155   0.870 -0.2997 -1.1300  0.7726
13294TIP3   OH239838   4.607   4.908   2.272 -0.0725  0.2699  0.0556
13294TIP3    H139839   4.574   4.967   2.204  2.0351  0.7746 -0.6115
13294TIP3    H239840   4.529   4.868   2.309 -1.3902  1.2676 -1.5018
13295TIP3   OH239841   2.318   0.717   4.036  0.0565 -0.4160  0.3489
13295TIP3    H139842   2.400   0.754   4.003 -0.8691  0.3651 -1.2275
13295TIP3    H239843   2.250   0.774   3.999 -1.2148 -1.1196  1.5029
13296TIP3   OH239844   4.093   4.388   4.176 -0.5792  0.4365  0.5996
13296TIP3    H139845   4.033   4.353   4.110  1.3499 -0.6146 -0.7069
13296TIP3    H239846   4.106   4.479   4.150  0.0806  0.0600 -0.4485
13297TIP3   OH239847   3.622   5.325   2.018 -0.1495  0.4756 -0.0633
13297TIP3    H139848   3.625   5.244   2.069 -0.4871  1.0429  0.9080
13297TIP3    H239849   3.620   5.394   2.085  3.0015  1.4492 -0.8174
13298TIP3   OH239850   8.224   1.705   4.593 -0.2588 -0.4293 -0.0508
13298TIP3    H139851   8.132   1.728   4.580 -0.0278  1.0457  0.7902
13298TIP3    H239852   8.269   1.789   4.606  1.4395 -0.9970 -1.7331
13299TIP3   OH239853   0.951   1.745   4.238 -0.2256 -0.5426 -0.4763
13299TIP3    H139854   0.922   1.801   4.310 -3.4131 -1.3469 -1.0012
13299TIP3    H239855   0.960   1.658   4.278 -2.4628 -1.0911 -1.0420
13300TIP3   OH239856   6.058   6.392   5.414  0.2727  0.3889  0.1426
13300TIP3    H139857   5.984   6.428   5.365 -0.5946 -1.1017  0.3082
13300TIP3    H239858   6.119   6.361   5.347  0.0516  0.2337  0.0150
13301TIP3   OH239859   2.201   2.016   4.275 -0.1518 -0.7355 -0.2285
13301TIP3    H139860   2.108   2.013   4.298  0.4260  0.1940  2.6215
13301TIP3    H239861   2.218   2.107   4.254  0.2610 -0.7617 -0.0233
13302TIP3   OH239862   2.729   7.672   2.508 -0.0602 -0.4358  0.0490
13302TIP3    H139863   2.776   7.652   2.427 -0.9132  0.6541 -0.7485
13302TIP3    H239864   2.798   7.689   2.572  0.7606  2.5585 -1.4401
13303TIP3   OH239865   3.909   4.080   0.562 -0.3288  0.2360  0.3569
13303TIP3    H139866   3.870   4.167   0.555 -0.3258  0.1169 -1.8863
13303TIP3    H239867   3.892   4.039   0.477  1.1877 -1.3124  0.7428
13304TIP3   OH239868   5.640   6.726   5.120 -0.5019 -0.3357 -0.2208
13304TIP3    H139869   5.689   6.774   5.053  1.1483 -0.6927  0.6877
13304TIP3    H239870   5.671   6.761   5.203  0.1599 -2.3596  0.4527
13305TIP3   OH239871   2.936   5.888   6.070  0.2394  0.5729  0.3175
13305TIP3    H139872   3.022   5.898   6.111  1.4858 -0.4869 -1.8679
13305TIP3    H239873   2.943   5.935   5.987 -0.0570 -2.3071 -1.4855
13306TIP3   OH239874   8.270   0.396   5.691 -0.4477  0.3289 -0.0397
13306TIP3    H139875   8.303   0.450   5.763 -0.8630  2.2597 -1.2204
13306TIP3    H239876   8.174   0.405   5.697 -0.4618  2.1882 -1.9547
13307TIP3   OH239877   4.872   1.129   4.703  0.3734  0.3652  0.1282
13307TIP3    H139878   4.921   1.203   4.740  0.4735  0.5700 -0.4097
13307TIP3    H239879   4.797   1.118   4.761  1.4564 -0.4666  1.4430
13308TIP3   OH239880   0.565   2.681   5.361 -0.8997 -0.3957 -0.0612
13308TIP3    H139881   0.523   2.702   5.277 -2.1248  0.0168  0.6351
13308TIP3    H239882   0.589   2.588   5.353  3.1719  0.6114 -2.5762
13309TIP3   OH239883   3.090   6.774   5.693  0.2798 -1.0128  0.5687
13309TIP3    H139884   3.098   6.760   5.788  2.4611 -1.3109  0.3907
13309TIP3    H239885   3.131   6.859   5.678 -0.5142 -0.7341 -0.0610
13310TIP3   OH239886   4.241   4.918   2.021  0.6729  0.2884 -0.7047
13310TIP3    H139887   4.146   4.919   2.009  0.4409 -1.0691  0.7259
13310TIP3    H239888   4.267   4.827   2.005  1.7146  0.5968 -0.8758
13311TIP3   OH239889   1.516   3.015   1.758  0.2172 -0.0595 -0.4826
13311TIP3    H139890   1.500   2.932   1.714 -1.6510  0.6139 -1.1857
13311TIP3    H239891   1.587   2.997   1.820 -1.3368 -2.6429  0.7001
13312TIP3   OH239892  -0.011   5.150   1.143  0.0285  0.3893  0.5074
13312TIP3    H139893   0.045   5.139   1.066 -0.7973  0.0763 -0.0562
13312TIP3    H239894   0.049   5.177   1.212  1.0600 -0.9261  0.1812
13313TIP3   OH239895   7.897   2.669   0.540 -0.0039 -0.0234 -0.4802
13313TIP3    H139896   7.954   2.621   0.480  0.1745  0.0334 -0.3561
13313TIP3    H239897   7.951   2.685   0.617 -1.0992 -2.6739  0.9586
13314TIP3   OH239898   6.283   6.733   6.271  0.1288 -0.3029  0.1599
13314TIP3    H139899   6.290   6.638   6.257 -0.6618 -0.2902 -0.3841
13314TIP3    H239900   6.190   6.748   6.286  0.3295  0.3243  0.7997
13315TIP3   OH239901   4.906   5.545   6.024  0.0994 -0.4262 -0.0990
13315TIP3    H139902   4.943   5.633   6.032 -2.5447  0.7570 -0.0629
13315TIP3    H239903   4.851   5.549   5.946  0.0223 -2.1236 -0.1700
13316TIP3   OH239904   2.855   1.157   6.392 -0.2855 -0.0371  0.1169
13316TIP3    H139905   2.762   1.176   6.404 -0.0892  1.3275 -0.3544
13316TIP3    H239906   2.881   1.113   6.472 -1.9041 -2.8666 -0.7516
13317TIP3   OH239907   5.949   0.014   4.474  0.1100 -0.2131 -0.2253
13317TIP3    H139908   6.019  -0.045   4.448 -0.6838 -0.9879 -0.6303
13317TIP3    H239909   5.979   0.101   4.445  1.9812 -0.1064  1.6971
13318TIP3   OH239910   2.113   5.573   3.909 -0.0630  0.2154  0.0242
13318TIP3    H139911   2.057   5.600   3.836 -0.3624 -1.7743 -0.5560
13318TIP3    H239912   2.059   5.588   3.987 -1.3750 -1.4034 -0.4996
13319TIP3   OH239913   2.392   7.672   2.219  0.4705 -0.1970  0.4919
13319TIP3    H139914   2.350   7.620   2.288 -0.2223  0.3079  0.4675
13319TIP3    H239915   2.320   7.720   2.178  0.6441 -1.7060 -1.6894
13320TIP3   OH239916   0.840   0.260   3.713 -0.4291 -0.2147 -0.0246
13320TIP3    H139917   0.843   0.311   3.632  0.5701  1.2137  0.8628
13320TIP3    H239918   0.825   0.325   3.782  0.6930 -1.1440  1.1487
13321TIP3   OH239919   3.765   6.421   6.036  0.0529  0.4606  0.1964
13321TIP3    H139920   3.671   6.403   6.047  0.1258 -0.1846 -0.1843
13321TIP3    H239921   3.793   6.451   6.123 -0.1490 -1.0542  0.8284
13322TIP3   OH239922   4.712   1.162   1.749  0.1836 -0.1295  0.1151
13322TIP3    H139923   4.689   1.117   1.830 -0.6896 -1.6829 -0.9446
13322TIP3    H239924   4.748   1.246   1.777  1.4365 -1.2707  2.1621
13323TIP3   OH239925   4.485   7.752   3.183  0.0155  0.3585  0.0614
13323TIP3    H139926   4.420   7.710   3.126  0.8859 -1.7157  0.5075
13323TIP3    H239927   4.477   7.845   3.164 -0.1735 -0.1838 -2.9961
13324TIP3   OH239928   3.952   1.953   5.116  0.2001 -0.0686 -0.4537
13324TIP3    H139929   4.027   1.894   5.113 -0.3032 -0.8835  1.5536
13324TIP3    H239930   3.986   2.032   5.159 -0.1059 -0.4744  0.5422
13325TIP3   OH239931   4.307   0.759   2.708 -0.5967 -0.7271 -0.1936
13325TIP3    H139932   4.278   0.688   2.766  1.8940  0.5133  2.8289
13325TIP3    H239933   4.399   0.740   2.690 -0.1573  1.1603 -0.1617
13326TIP3   OH239934   3.958   0.733   2.144  0.5669  0.2252  0.2878
13326TIP3    H139935   3.943   0.758   2.235  0.2110 -1.5754  0.7638
13326TIP3    H239936   4.043   0.771   2.122  0.9441  0.1720  1.5691
13327TIP3   OH239937   4.086   5.594   0.897 -0.3504  0.1915 -0.1656
13327TIP3    H139938   4.122   5.682   0.909 -0.8131  0.9250 -3.1482
13327TIP3    H239939   4.162   5.536   0.900  0.4331  1.1050 -1.2267
13328TIP3   OH239940   6.549   1.628   2.274 -0.4289  0.1408  0.4271
13328TIP3    H139941   6.463   1.593   2.252 -0.3459  1.0062 -1.5322
13328TIP3    H239942   6.607   1.552   2.273 -0.9564 -0.2631  0.4471
13329TIP3   OH239943   5.740   2.783   4.676  0.0563  0.7182  0.0643
13329TIP3    H139944   5.653   2.822   4.668 -0.4559 -0.4194 -0.0854
13329TIP3    H239945   5.746   2.721   4.603  1.2759  1.2844 -0.3497
13330TIP3   OH239946   2.153   1.329   2.231  0.6179 -0.2880 -0.0339
13330TIP3    H139947   2.080   1.391   2.241 -0.1856 -0.8478 -1.9204
13330TIP3    H239948   2.133   1.282   2.150  1.5930 -2.5242  0.9509
13331TIP3   OH239949   3.043   7.080   5.411 -0.4260  0.3240 -0.1364
13331TIP3    H139950   3.077   6.993   5.394  0.5501  0.5374  0.6012
13331TIP3    H239951   3.008   7.110   5.327  1.4990  0.2030 -1.0352
13332TIP3   OH239952   1.016   2.486   3.354 -0.2183 -0.2101 -0.3936
13332TIP3    H139953   0.986   2.456   3.440  0.3128 -0.5923 -0.3348
13332TIP3    H239954   0.936   2.495   3.302 -0.5814  0.4596  0.2699
13333TIP3   OH239955   1.750   0.198   4.208 -0.2558 -0.0975  0.6515
13333TIP3    H139956   1.656   0.196   4.223 -0.2025 -0.2445  0.9621
13333TIP3    H239957   1.778   0.283   4.242 -0.5322  0.6765 -0.9661
13334TIP3   OH239958   6.290   1.901   0.866  0.1347 -0.1370  0.2475
13334TIP3    H139959   6.238   1.835   0.821 -1.3273  0.9002  0.3418
13334TIP3    H239960   6.275   1.982   0.816  0.9012  0.3901  0.8382
13335TIP3   OH239961   5.234   6.638   6.617 -0.1270  0.4471 -0.8261
13335TIP3    H139962   5.306   6.592   6.574  0.0325 -0.2808  0.2044
13335TIP3    H239963   5.159   6.625   6.559  0.4930  1.0084 -1.7867
13336TIP3   OH239964   0.400   4.086   4.060 -0.0572 -0.3246 -0.1063
13336TIP3    H139965   0.470   4.148   4.082  0.5934 -0.9337 -0.4129
13336TIP3    H239966   0.319   4.133   4.080  0.3543  1.1272 -1.5653
13337TIP3   OH239967   7.100   7.805   1.267 -0.4087 -0.2354 -0.6368
13337TIP3    H139968   7.065   7.725   1.305 -1.9512  1.0281  0.7804
13337TIP3    H239969   7.024   7.848   1.227  0.2789  0.7419 -0.9283
13338TIP3   OH239970   7.316   4.776   1.850 -0.3086 -0.1610  0.1235
13338TIP3    H139971   7.325   4.696   1.798  0.4853 -0.0604  0.0896
13338TIP3    H239972   7.232   4.767   1.894 -0.4037 -0.8364 -0.1855
13339TIP3   OH239973   4.548   3.879   2.592  0.4083 -0.2783 -0.3064
13339TIP3    H139974   4.630   3.841   2.622  0.7958 -2.5900 -3.7019
13339TIP3    H239975   4.480   3.818   2.621  0.3530 -0.4168 -0.7115
13340TIP3   OH239976   5.590   7.104   4.751  0.1047 -0.9228  0.4419
13340TIP3    H139977   5.676   7.121   4.789  0.8573 -2.0683 -0.6620
13340TIP3    H239978   5.554   7.033   4.804  0.3459 -1.2407  0.1815
13341TIP3   OH239979   3.645   3.614   2.992 -0.3191 -0.4411  0.2450
13341TIP3    H139980   3.712   3.665   2.946 -1.5686  1.2325  0.1752
13341TIP3    H239981   3.570   3.673   2.998 -1.0156 -1.4321  2.3407
13342TIP3   OH239982   3.934   6.504   3.374  0.2136 -0.1997  0.2045
13342TIP3    H139983   3.931   6.565   3.448  0.3235 -1.7345  1.5099
13342TIP3    H239984   3.891   6.425   3.405 -1.5132 -0.2393 -2.0537
13343TIP3   OH239985   5.196   6.290   1.280 -0.0109  0.8145  0.0235
13343TIP3    H139986   5.228   6.263   1.194  0.5336  0.2157  0.3994
13343TIP3    H239987   5.111   6.331   1.263 -0.8711 -1.1060 -0.6148
13344TIP3   OH239988   3.921   4.830   3.264 -0.3133 -0.4433 -0.0045
13344TIP3    H139989   3.921   4.793   3.353  0.6997 -0.7079 -0.1010
13344TIP3    H239990   3.982   4.774   3.215  0.8489  0.9962 -0.2902
13345TIP3   OH239991   4.562   1.118   0.273  0.0749 -0.4680  0.4140
13345TIP3    H139992   4.545   1.139   0.182  1.8700 -0.9723 -0.0722
13345TIP3    H239993   4.648   1.076   0.273 -0.3475 -1.4506  2.2015
13346TIP3   OH239994   5.587   7.324   0.386  0.6492 -0.0856  0.0142
13346TIP3    H139995   5.631   7.282   0.312 -0.4221 -5.2383  1.8642
13346TIP3    H239996   5.651   7.320   0.457 -0.3162 -0.9103  0.8656
13347TIP3   OH239997   3.787   0.003  -0.006 -0.2006 -0.5749 -0.0119
13347TIP3    H139998   3.694   0.028  -0.005 -0.3855 -1.0746 -1.9326
13347TIP3    H239999   3.821   0.036   0.078 -1.9840  0.0522  0.5154
13348TIP3   OH240000   2.845   4.829   4.919  0.2459 -0.1325  0.0639
13348TIP3    H140001   2.936   4.854   4.907 -0.2752  0.9052 -2.0548
13348TIP3    H240002   2.796   4.881   4.856 -1.9157 -0.2216  1.5409
13349TIP3   OH240003   7.597   0.459   3.390  0.4121  0.0018  0.0633
13349TIP3    H140004   7.610   0.473   3.297  1.3309  2.1915  0.4699
13349TIP3    H240005   7.639   0.374   3.408  1.2009  0.0824 -1.2986
13350TIP3   OH240006   5.507   5.145   3.190 -0.0887 -0.3718  0.2475
13350TIP3    H140007   5.425   5.097   3.192  0.2577 -1.0494 -0.9399
13350TIP3    H240008   5.572   5.082   3.159  0.7810  0.2989  0.6423
13351TIP3   OH240009   0.974   3.125   6.714  0.6251 -0.2710 -0.1835
13351TIP3    H140010   0.924   3.075   6.650  0.2725  0.2767 -0.3447
13351TIP3    H240011   0.998   3.206   6.669 -0.7017  0.6868  0.7287
13352TIP3   OH240012   3.991   7.273   2.700 -0.4802 -0.3875 -0.5209
13352TIP3    H140013   4.075   7.299   2.736  1.2946 -2.5405 -2.7597
13352TIP3    H240014   3.943   7.235   2.773  1.2940 -0.9204  0.3981
13353TIP3   OH240015   1.745   0.380   6.344  0.0174 -0.4944  0.0156
13353TIP3    H140016   1.743   0.460   6.292  2.5768 -0.2443  0.1333
13353TIP3    H240017   1.701   0.403   6.426 -2.1013 -0.2279 -1.1407
13354TIP3   OH240018   0.439   3.198   4.756 -0.0122 -0.2041  0.9474
13354TIP3    H140019   0.364   3.140   4.749 -0.2660  0.3342 -1.9826
13354TIP3    H240020   0.510   3.142   4.787 -1.6009 -0.6172  4.2622
13355TIP3   OH240021   5.216   4.388   1.776 -0.2748 -0.5642 -0.2030
13355TIP3    H140022   5.291   4.412   1.830 -0.7252  0.0783  0.1464
13355TIP3    H240023   5.192   4.468   1.730 -0.9041 -0.6932 -0.1179
13356TIP3   OH240024   6.474   7.627   3.261  0.9716  0.0408 -0.1701
13356TIP3    H140025   6.407   7.591   3.319  2.9373 -1.6885  1.1666
13356TIP3    H240026   6.518   7.550   3.224  3.0825  1.0542  0.0692
13357TIP3   OH240027   6.047   5.657   2.947 -0.0225 -0.1109  0.2092
13357TIP3    H140028   5.999   5.618   2.874  0.0781  1.5321 -0.7784
13357TIP3    H240029   6.124   5.601   2.957  0.7897  0.4807 -2.0349
13358TIP3   OH240030   3.870   1.669   4.559  0.2251  0.1404 -0.3859
13358TIP3    H140031   3.827   1.624   4.631 -0.4442 -0.5793 -1.2051
13358TIP3    H240032   3.963   1.649   4.570  0.0803 -0.3097  0.0314
13359TIP3   OH240033   7.552   4.895   4.462 -0.0387  0.2215  0.6374
13359TIP3    H140034   7.473   4.858   4.422 -2.4402  2.2989  3.0452
13359TIP3    H240035   7.586   4.956   4.396 -1.3320  0.3613  0.0683
13360TIP3   OH240036   5.488   4.402   5.948 -0.2749  0.1303  0.5898
13360TIP3    H140037   5.482   4.427   6.040  0.4938 -0.6826  0.8781
13360TIP3    H240038   5.517   4.310   5.950  2.3750  0.8350 -0.4338
13361TIP3   OH240039   4.606   0.727   5.323 -0.0894 -0.2027 -0.1539
13361TIP3    H140040   4.635   0.648   5.368 -1.5876 -0.5541  0.2623
13361TIP3    H240041   4.685   0.763   5.284  0.9567 -0.8667  1.2613
13362TIP3   OH240042   6.026   0.228   4.056  0.1476 -0.0404 -0.3924
13362TIP3    H140043   6.053   0.140   4.028 -2.1488 -0.6562 -0.9443
13362TIP3    H240044   5.932   0.231   4.035  0.5077  3.2140 -2.0980
13363TIP3   OH240045   3.833   2.143   2.740  0.7577  0.6884 -1.2069
13363TIP3    H140046   3.831   2.233   2.773  0.6947 -0.0004  0.8044
13363TIP3    H240047   3.809   2.090   2.816  0.4381 -1.0028 -2.4603
13364TIP3   OH240048   0.390   4.494   5.243 -0.0998 -0.0777  0.3969
13364TIP3    H140049   0.411   4.451   5.326  1.9577  0.3159  0.1499
13364TIP3    H240050   0.394   4.588   5.263 -0.8167  0.0179  0.1140
13365TIP3   OH240051   2.813   5.431   6.643 -0.7161  0.1740 -0.6724
13365TIP3    H140052   2.765   5.508   6.672 -0.1243  0.8068 -1.3422
13365TIP3    H240053   2.879   5.416   6.711  0.5484  1.5409 -1.5513
13366TIP3   OH240054   6.380   1.422   5.398 -0.4950 -0.0402  0.1960
13366TIP3    H140055   6.304   1.446   5.345 -0.4893 -1.0884 -0.3053
13366TIP3    H240056   6.455   1.452   5.345 -0.5304  0.6311  0.5078
13367TIP3   OH240057   1.100   5.944   2.782  0.1098  0.2666 -0.5030
13367TIP3    H140058   1.124   5.861   2.823  1.0492  1.3879  1.2945
13367TIP3    H240059   1.014   5.926   2.743  0.4495 -1.6395 -0.5053
13368TIP3   OH240060   6.945   6.808   1.836  0.3364  0.1545  0.0426
13368TIP3    H140061   6.978   6.811   1.926 -0.1437  1.1864  0.1980
13368TIP3    H240062   6.869   6.867   1.836 -0.0594 -0.3297 -0.8841
13369TIP3   OH240063   3.940   5.347   1.389  0.3135 -0.4161  0.4047
13369TIP3    H140064   3.951   5.367   1.296  3.0175 -0.1848  0.7078
13369TIP3    H240065   3.880   5.414   1.421 -0.6223 -0.4712 -1.1397
13370TIP3   OH240066   7.148   3.197   2.069  0.2464  0.0719  0.3443
13370TIP3    H140067   7.185   3.242   2.145  1.0421  0.1037 -0.0481
13370TIP3    H240068   7.180   3.247   1.994  2.0529 -1.6887 -0.1701
13371TIP3   OH240069   2.557   6.249   3.879 -0.0007  0.1726 -0.0779
13371TIP3    H140070   2.521   6.161   3.887  0.4121  0.0634  0.6471
13371TIP3    H240071   2.483   6.302   3.849 -0.7280 -0.0756  1.2060
13372TIP3   OH240072   6.721   0.055   1.689  0.6534  0.0670 -0.0576
13372TIP3    H140073   6.704  -0.037   1.668  0.0548  0.5085 -1.6605
13372TIP3    H240074   6.635   0.090   1.712  0.8815  0.2363  0.5464
13373TIP3   OH240075   2.256   3.929   3.851 -0.1941 -0.6473 -0.0900
13373TIP3    H140076   2.337   3.880   3.866  1.1150  1.6221  0.7012
13373TIP3    H240077   2.212   3.928   3.936  1.0160  1.4706  0.6292
13374TIP3   OH240078   0.095   3.905   2.745  0.3634  0.2796 -0.3358
13374TIP3    H140079   0.101   3.953   2.663 -0.8777 -0.4788 -0.8883
13374TIP3    H240080   0.100   3.813   2.720  1.4214  0.0651  0.5887
13375TIP3   OH240081   6.662   5.689   2.049  0.2485 -0.7897 -0.1842
13375TIP3    H140082   6.736   5.746   2.070 -0.7298  0.4720  0.0066
13375TIP3    H240083   6.626   5.726   1.968 -1.2027 -0.2616  0.6523
13376TIP3   OH240084   1.698   2.730   4.635  0.0325  0.4298 -0.0152
13376TIP3    H140085   1.721   2.645   4.598  1.4961  0.7615  0.0662
13376TIP3    H240086   1.650   2.710   4.715 -0.3490 -0.3040 -0.4185
13377TIP3   OH240087   0.637   2.186   5.195 -0.0194 -0.5524  0.2520
13377TIP3    H140088   0.568   2.124   5.171  1.5944 -1.8031 -1.4550
13377TIP3    H240089   0.684   2.202   5.113  0.6897  1.6352  1.0133
13378TIP3   OH240090   4.627   4.612   4.263 -0.4428  0.1750 -0.6157
13378TIP3    H140091   4.673   4.566   4.333  0.2856  1.5477 -0.1577
13378TIP3    H240092   4.690   4.677   4.231 -1.2941  0.5893 -1.5066
13379TIP3   OH240093   8.103   1.439   2.694 -0.3621 -0.2897  0.1379
13379TIP3    H140094   8.196   1.455   2.682 -0.4094 -0.0699  0.0588
13379TIP3    H240095   8.068   1.520   2.730 -0.6528 -0.1014 -0.5435
13380TIP3   OH240096   7.643   5.560   6.135 -0.4136  0.1012  0.0503
13380TIP3    H140097   7.699   5.630   6.102  2.1235 -0.8607  1.9263
13380TIP3    H240098   7.617   5.589   6.222 -2.0703  0.0629 -0.3950
13381TIP3   OH240099   0.861   1.968   0.476 -0.0860 -0.5974  0.8764
13381TIP3    H140100   0.955   1.983   0.480 -0.0289 -0.2095 -1.1317
13381TIP3    H240101   0.852   1.887   0.425 -0.8150 -1.5495  2.4287
13382TIP3   OH240102   1.832   0.792   6.677  0.0296 -0.1310 -0.0203
13382TIP3    H140103   1.857   0.804   6.769  2.0229  1.4133 -0.6955
13382TIP3    H240104   1.761   0.855   6.664  1.2577  1.2869 -0.0672
13383TIP3   OH240105   7.569   4.217   4.459  0.3930  0.3956 -0.1591
13383TIP3    H140106   7.614   4.239   4.378  1.8340 -2.0484 -0.1445
13383TIP3    H240107   7.493   4.166   4.431  0.9735 -0.5782 -0.0081
13384TIP3   OH240108   0.875   6.292   6.317 -1.0346 -0.2941  0.3478
13384TIP3    H140109   0.945   6.357   6.326  0.7817 -2.1428  0.1161
13384TIP3    H240110   0.804   6.340   6.273  0.7145  1.2069 -1.0125
13385TIP3   OH240111   6.929   2.448   0.902  0.2400 -0.5639 -0.4749
13385TIP3    H140112   6.973   2.366   0.925  1.2713  0.2193  0.4430
13385TIP3    H240113   6.995   2.496   0.851  0.2201  0.3281  0.3104
13386TIP3   OH240114   1.655   0.481   0.159 -0.2011 -0.0422 -0.1763
13386TIP3    H140115   1.644   0.454   0.250  0.0855  0.2661 -0.0479
13386TIP3    H240116   1.674   0.400   0.112  0.2279 -0.1250  0.1325
13387TIP3   OH240117   1.093   4.771   1.197  0.0686 -0.1472 -0.1782
13387TIP3    H140118   1.121   4.711   1.267 -0.7987 -0.2001  0.1378
13387TIP3    H240119   1.172   4.787   1.146  0.4530 -1.0753  0.1001
13388TIP3   OH240120   6.287   4.571   1.327  0.0510 -0.3168 -0.4014
13388TIP3    H140121   6.209   4.625   1.334  0.8039  0.6057  2.7627
13388TIP3    H240122   6.260   4.485   1.359  0.1109 -0.2578 -0.1905
13389TIP3   OH240123   6.582   4.607   5.141 -0.4555  0.2109 -0.2968
13389TIP3    H140124   6.546   4.668   5.205  0.0576  1.5536 -1.2587
13389TIP3    H240125   6.670   4.587   5.174 -0.7766 -0.3847  0.2410
13390TIP3   OH240126   2.507   3.860   1.937 -0.1343  0.2483 -0.5764
13390TIP3    H140127   2.490   3.903   1.853  0.3202 -1.0201 -1.3457
13390TIP3    H240128   2.442   3.789   1.941 -0.1730  0.3203  0.1553
13391TIP3   OH240129   5.313   7.430   0.077 -0.1323  0.0698  0.5243
13391TIP3    H140130   5.248   7.493   0.047 -1.1855 -0.5400  1.4477
13391TIP3    H240131   5.289   7.412   0.168  0.3415 -1.3969  0.3825
13392TIP3   OH240132   1.111   7.366   1.518 -0.0126 -0.1422 -0.1780
13392TIP3    H140133   1.051   7.410   1.578 -0.9156  0.8832 -1.7748
13392TIP3    H240134   1.069   7.283   1.498 -0.6150  0.2986 -0.7880
13393TIP3   OH240135   1.589   2.552   5.549  0.6529  0.3765  0.3738
13393TIP3    H140136   1.508   2.579   5.593 -2.0828 -2.5396 -2.3648
13393TIP3    H240137   1.588   2.599   5.466  1.4488 -0.1189  0.0712
13394TIP3   OH240138   6.920   0.644   5.898  0.0615  0.2737 -0.0980
13394TIP3    H140139   6.883   0.559   5.874  1.6111 -0.4981  0.0845
13394TIP3    H240140   7.014   0.627   5.907  0.0963  1.3866  2.5550
13395TIP3   OH240141   4.125   2.792   2.430  0.4844  0.6458 -0.8329
13395TIP3    H140142   4.216   2.768   2.444 -0.1496 -1.7989 -0.3876
13395TIP3    H240143   4.110   2.776   2.336  0.4856  0.9693 -0.8898
13396TIP3   OH240144   3.623   5.900   2.758  0.0568  0.0184 -0.1465
13396TIP3    H140145   3.530   5.924   2.766  0.4686  1.9177 -0.4343
13396TIP3    H240146   3.650   5.880   2.848 -0.4914  0.0107  0.0218
13397TIP3   OH240147   3.608   7.084   3.275  0.0997 -0.3655 -0.1490
13397TIP3    H140148   3.531   7.120   3.232  1.1455  1.4256 -0.6286
13397TIP3    H240149   3.649   7.159   3.319  0.7481 -1.5569  1.4103
13398TIP3   OH240150   8.000   6.470   1.702 -0.7966  0.0558  0.0228
13398TIP3    H140151   7.918   6.430   1.731 -0.3579 -0.2018  0.9390
13398TIP3    H240152   8.004   6.450   1.609 -1.5901 -0.2481  0.0400
13399TIP3   OH240153   2.821   1.865   3.697 -0.1716  0.2050  0.0468
13399TIP3    H140154   2.753   1.807   3.663 -0.1857 -0.2435  0.8095
13399TIP3    H240155   2.807   1.948   3.652 -0.1955 -0.3591 -1.0095
13400TIP3   OH240156   5.936   0.165   2.215  0.2200 -0.3219  0.0462
13400TIP3    H140157   6.010   0.165   2.275 -1.2900  0.4203  2.0078
13400TIP3    H240158   5.865   0.206   2.264 -1.1142  0.3040 -2.2598
13401TIP3   OH240159   4.258   3.024   3.002 -0.2936 -0.0309 -0.0383
13401TIP3    H140160   4.171   2.995   3.028 -0.4817  1.9067  1.7960
13401TIP3    H240161   4.242   3.105   2.953  0.3819 -0.9348 -1.8237
13402TIP3   OH240162   4.679   1.194   5.894  0.3822  0.0984  0.1703
13402TIP3    H140163   4.733   1.270   5.915  0.7565 -0.3661  0.9719
13402TIP3    H240164   4.644   1.212   5.807  2.4595  0.0915 -0.7405
13403TIP3   OH240165   7.923   5.693   0.548  0.0992  0.0341 -0.0530
13403TIP3    H140166   7.874   5.674   0.467  0.8132  0.6647 -0.6479
13403TIP3    H240167   7.883   5.773   0.581 -1.2382 -1.0560  1.0955
13404TIP3   OH240168   6.833   0.339   5.904 -0.1873 -0.5336 -0.0624
13404TIP3    H140169   6.922   0.308   5.922 -0.8491 -2.3369  0.2570
13404TIP3    H240170   6.784   0.318   5.984 -1.0848 -0.2605 -0.5308
13405TIP3   OH240171   8.315   4.788   1.608  0.3546 -0.2717 -0.1907
13405TIP3    H140172   8.322   4.694   1.590 -0.4836 -0.6168  1.1475
13405TIP3    H240173   8.252   4.794   1.679  0.7343  1.2848  0.0497
13406TIP3   OH240174   2.928   4.842   5.838 -0.3331 -0.0396 -0.0303
13406TIP3    H140175   3.007   4.811   5.883  0.2418  0.7312 -0.4807
13406TIP3    H240176   2.861   4.777   5.860  0.8414 -1.6682 -1.0131
13407TIP3   OH240177   5.048   7.191   4.506 -0.3451  0.5093 -0.3630
13407TIP3    H140178   5.039   7.154   4.418 -0.1693  0.2270 -0.2652
13407TIP3    H240179   5.142   7.205   4.517 -0.2664 -0.3203  0.1211
13408TIP3   OH240180   6.745   4.336   4.535  0.7919  0.2824  0.2424
13408TIP3    H140181   6.796   4.337   4.454  0.9129  2.6296  0.2545
13408TIP3    H240182   6.785   4.405   4.589  1.0732 -1.5998  2.5722
13409TIP3   OH240183   1.699   3.470   3.868  0.6587  0.1187 -0.1619
13409TIP3    H140184   1.749   3.543   3.905 -1.8629  1.4981  0.8577
13409TIP3    H240185   1.661   3.507   3.788  0.3337 -0.4840 -0.2860
13410TIP3   OH240186   8.020   0.156   3.813 -0.0496  0.3961  0.3207
13410TIP3    H140187   8.092   0.096   3.795 -0.9094 -0.5792 -0.0292
13410TIP3    H240188   7.948   0.098   3.839 -1.5140  1.0730 -1.9539
13411TIP3   OH240189   7.677   4.793   2.708 -0.5135 -0.5185  0.3793
13411TIP3    H140190   7.595   4.835   2.734 -0.0492  0.7303 -0.1124
13411TIP3    H240191   7.677   4.798   2.613  1.8059  2.9551  0.3996
13412TIP3   OH240192   8.143   7.068   6.586 -0.0511  0.2650 -0.7089
13412TIP3    H140193   8.101   7.153   6.599 -0.1367  0.3210 -1.3242
13412TIP3    H240194   8.189   7.051   6.668  0.0766  0.9699 -0.6341
13413TIP3   OH240195   6.745   1.427   2.221 -0.9271 -0.1956  0.1609
13413TIP3    H140196   6.727   1.353   2.279  0.5684  0.4262  1.4984
13413TIP3    H240197   6.715   1.398   2.135 -0.9710 -2.0970  0.7740
13414TIP3   OH240198   2.321   3.274   0.556  0.5319  0.1591 -0.7731
13414TIP3    H140199   2.359   3.192   0.587  3.0035  0.8376 -1.6883
13414TIP3    H240200   2.227   3.264   0.569  0.9946 -1.4889  2.1946
13415TIP3   OH240201   5.622   4.509   4.612  0.4495  0.9906 -0.0067
13415TIP3    H140202   5.684   4.443   4.581 -1.7602 -1.3412  0.2210
13415TIP3    H240203   5.610   4.568   4.537  0.4682 -0.4524 -1.1770
13416TIP3   OH240204   8.141   1.092   4.106 -0.0900  0.2357 -0.1440
13416TIP3    H140205   8.193   1.168   4.080 -1.1041  0.6841 -0.9238
13416TIP3    H240206   8.106   1.058   4.024  0.2112 -0.9941  0.2131
13417TIP3   OH240207   3.168   4.984   5.703 -0.2878  0.0097 -0.9064
13417TIP3    H140208   3.091   4.937   5.735  0.8564 -0.9388  0.5594
13417TIP3    H240209   3.179   4.952   5.613 -0.3367 -1.5495 -0.3981
13418TIP3   OH240210   1.539   1.465   0.170  0.1947  0.3962 -0.1116
13418TIP3    H140211   1.461   1.469   0.225  0.3499  0.4874  0.1035
13418TIP3    H240212   1.575   1.378   0.185  0.4461  0.5555  0.2222
13419TIP3   OH240213   6.225   1.627   0.342 -0.0425  0.0545  0.0156
13419TIP3    H140214   6.295   1.673   0.389  1.0429 -0.5565 -0.9637
13419TIP3    H240215   6.270   1.558   0.293 -1.4925 -1.2792  0.4764
13420TIP3   OH240216   3.892   5.099   3.312 -0.3689  0.7553 -0.1744
13420TIP3    H140217   3.889   5.008   3.281  1.3826  1.0387 -1.2826
13420TIP3    H240218   3.829   5.101   3.384 -1.8404 -0.8581 -1.3305
13421TIP3   OH240219   6.729   2.295   3.524 -0.0290  0.2703 -0.2503
13421TIP3    H140220   6.732   2.314   3.430 -1.5431  1.5862 -0.0663
13421TIP3    H240221   6.705   2.202   3.529 -0.4413  0.3209 -1.1573
13422TIP3   OH240222   1.656   6.940   5.154 -0.2967 -0.1498  0.1208
13422TIP3    H140223   1.719   6.950   5.225 -0.1270 -1.0943  0.1280
13422TIP3    H240224   1.668   7.018   5.099 -0.9222  0.9399  1.4866
13423TIP3   OH240225   2.276   3.073   6.040  0.8860 -0.1624 -0.3511
13423TIP3    H140226   2.336   3.120   5.983 -0.0290  0.3007 -0.9583
13423TIP3    H240227   2.232   3.011   5.981 -0.4340  0.6701 -0.2736
13424TIP3   OH240228   7.615   0.956   5.168 -0.1830  0.1111  0.0830
13424TIP3    H140229   7.594   0.930   5.258 -1.2651 -0.8900 -0.4243
13424TIP3    H240230   7.541   1.010   5.140 -1.4113 -2.0591 -1.1657
13425TIP3   OH240231   5.420   2.482   5.267 -0.2370 -0.0848 -0.3117
13425TIP3    H140232   5.502   2.432   5.267 -0.0503  0.2062  0.7956
13425TIP3    H240233   5.416   2.520   5.179 -0.1498 -1.6416 -1.0276
13426TIP3   OH240234   8.161   1.776   3.554  0.5072  0.5065  0.2287
13426TIP3    H140235   8.221   1.850   3.559  0.6420  0.4250 -0.1209
13426TIP3    H240236   8.219   1.699   3.547  0.3772  0.3284  1.0678
13427TIP3   OH240237   5.065   6.096   1.045  0.1748 -0.5756 -0.9452
13427TIP3    H140238   5.147   6.047   1.032  0.8388 -0.2821  1.5604
13427TIP3    H240239   5.055   6.101   1.140 -2.1275  0.5028 -1.1749
13428TIP3   OH240240   7.632   5.267   4.514  0.1476  0.2562  0.0777
13428TIP3    H140241   7.662   5.297   4.600  1.5977 -0.3130 -0.1952
13428TIP3    H240242   7.537   5.262   4.522  0.2586  0.1384  1.6696
13429TIP3   OH240243   4.036   3.863   1.719  0.3357 -0.3511  0.3463
13429TIP3    H140244   4.040   3.768   1.709  1.8465 -0.4745  1.6424
13429TIP3    H240245   4.005   3.876   1.809 -1.1944  0.4300 -0.2674
13430TIP3   OH240246   4.845   0.815   2.451 -0.4810  0.3265 -0.0524
13430TIP3    H140247   4.910   0.809   2.381 -0.9085  2.5115 -0.7077
13430TIP3    H240248   4.795   0.733   2.445  0.6820 -0.3433 -1.0635
13431TIP3   OH240249   1.709   1.353   6.363  0.7434  0.5323 -0.3052
13431TIP3    H140250   1.638   1.307   6.408 -0.4065  1.4185 -1.1388
13431TIP3    H240251   1.773   1.373   6.431  0.0872 -0.0963  0.5056
13432TIP3   OH240252   7.801   3.429   5.800  0.2271  0.1705  0.2778
13432TIP3    H140253   7.886   3.441   5.758  0.6182 -0.0414  1.0039
13432TIP3    H240254   7.791   3.505   5.857 -0.3480  0.5077 -0.2580
13433TIP3   OH240255   6.743   4.031   5.005 -1.0841 -0.2986  0.5333
13433TIP3    H140256   6.748   4.091   4.930  0.4518 -0.7014  0.2686
13433TIP3    H240257   6.775   4.084   5.079  1.8254 -1.1307  0.0135
13434TIP3   OH240258   2.838   0.840   2.193 -0.5296  0.1165 -0.2944
13434TIP3    H140259   2.801   0.815   2.109  0.1262 -1.3111 -0.1824
13434TIP3    H240260   2.761   0.854   2.249 -0.9473  0.1348 -0.8630
13435TIP3   OH240261   4.408   3.244   4.422  0.1634 -0.0887 -0.0212
13435TIP3    H140262   4.364   3.185   4.483  0.2956 -0.9341 -0.7269
13435TIP3    H240263   4.497   3.252   4.455  0.0049  0.1316  0.3593
13436TIP3   OH240264   3.547   0.848   3.263 -0.1909  0.0262 -0.0609
13436TIP3    H140265   3.617   0.834   3.199 -0.5250  0.2685 -0.4794
13436TIP3    H240266   3.497   0.767   3.262  1.0496 -0.8176  1.4617
13437TIP3   OH240267   8.111   2.889   4.003  0.2035  0.4988 -0.1281
13437TIP3    H140268   8.081   2.846   3.923 -0.7103 -1.2275  1.0914
13437TIP3    H240269   8.068   2.841   4.074  2.5461  0.6780  1.5101
13438TIP3   OH240270   7.448   2.178   2.893 -0.5354 -0.5226 -0.3749
13438TIP3    H140271   7.413   2.096   2.859  1.7127 -2.3878  1.4575
13438TIP3    H240272   7.536   2.156   2.924  1.1500  3.1170 -1.8720
13439TIP3   OH240273   3.541   3.965   3.297  0.0189  0.5725 -0.6715
13439TIP3    H140274   3.581   3.924   3.221  0.2225  0.4973 -0.5258
13439TIP3    H240275   3.447   3.952   3.285 -0.2828  3.6614 -2.7259
13440TIP3   OH240276   0.590   6.996   2.361  0.0570 -0.7870  0.0194
13440TIP3    H140277   0.677   6.964   2.382  0.1768 -0.4711  0.0199
13440TIP3    H240278   0.576   6.970   2.270 -0.5922 -2.4349  0.5513
13441TIP3   OH240279   5.223   2.451   1.652  0.0690 -0.1316  0.3937
13441TIP3    H140280   5.287   2.507   1.695 -0.3092  0.6841 -0.0589
13441TIP3    H240281   5.253   2.446   1.561 -0.5787  0.4177  0.1297
13442TIP3   OH240282   2.516   4.991   0.872  0.5149 -0.1373 -0.3491
13442TIP3    H140283   2.490   5.005   0.781 -0.2216 -1.0158 -0.2822
13442TIP3    H240284   2.439   5.013   0.924  1.1817  1.1784  0.1531
13443TIP3   OH240285   7.347   1.036   5.511 -0.1429  0.4526  0.8727
13443TIP3    H140286   7.277   1.038   5.575  0.0461  0.0297  1.0959
13443TIP3    H240287   7.426   1.019   5.562 -0.4096 -3.6863  0.2317
13444TIP3   OH240288   1.132   0.176   3.676 -0.1046 -0.1150  0.7528
13444TIP3    H140289   1.184   0.236   3.623  0.9299  0.6336  2.5337
13444TIP3    H240290   1.041   0.200   3.656  0.2661  0.8672  0.1469
13445TIP3   OH240291   4.253   7.599   3.399  0.3912  0.1076 -0.0496
13445TIP3    H140292   4.305   7.572   3.323 -2.3794 -1.1477 -1.6289
13445TIP3    H240293   4.207   7.519   3.426 -2.2966  1.5173 -0.1146
13446TIP3   OH240294   0.711   5.840   0.027  0.3810 -0.6833  0.4083
13446TIP3    H140295   0.682   5.833   0.118 -1.9408 -0.6773 -0.2682
13446TIP3    H240296   0.731   5.750   0.001 -0.3336 -0.8735  0.5073
13447TIP3   OH240297   2.772   3.797   2.931  0.2431 -0.0255  0.0810
13447TIP3    H140298   2.724   3.849   2.997 -0.5788 -1.8150  0.9547
13447TIP3    H240299   2.721   3.808   2.851  1.2090  2.1209 -0.2984
13448TIP3   OH240300   5.329   2.242   3.876  0.2527  0.2321  0.0788
13448TIP3    H140301   5.401   2.244   3.940  0.3453  0.2638 -0.0263
13448TIP3    H240302   5.295   2.152   3.882 -1.0543  0.7871  1.6251
13449TIP3   OH240303   2.611   3.869   4.251  0.7359 -0.2277 -0.3377
13449TIP3    H140304   2.664   3.792   4.273  2.5761  0.5510 -1.7651
13449TIP3    H240305   2.522   3.835   4.243  1.2291 -1.8868  0.6785
13450TIP3   OH240306   0.365   1.987   1.469  0.2336  0.5740 -0.6562
13450TIP3    H140307   0.356   2.082   1.458 -0.5061  0.3468 -2.2472
13450TIP3    H240308   0.375   1.975   1.564  0.1107  2.2124 -0.4043
13451TIP3   OH240309   7.886   1.194   6.574 -0.2075 -0.7945  0.1180
13451TIP3    H140310   7.848   1.282   6.567  2.2650  0.6140  2.3242
13451TIP3    H240311   7.834   1.151   6.642 -0.5261 -0.4759  0.0778
13452TIP3   OH240312   6.082   4.845   0.479 -0.3519  0.3640  0.2256
13452TIP3    H140313   6.076   4.939   0.462  2.2901  0.5141 -0.2024
13452TIP3    H240314   6.120   4.808   0.399 -0.6127 -0.9822  0.6860
13453TIP3   OH240315   8.094   4.441   4.401 -0.3048 -0.0118 -0.0637
13453TIP3    H140316   8.110   4.352   4.370 -0.7880  0.0894 -0.6006
13453TIP3    H240317   8.060   4.488   4.325 -2.0764  0.0885  0.7469
13454TIP3   OH240318   7.280   2.914   4.930  0.7631 -0.2048 -0.3552
13454TIP3    H140319   7.325   2.998   4.924  1.7816 -0.3524  3.0442
13454TIP3    H240320   7.206   2.930   4.988 -0.2624 -1.2711 -1.2975
13455TIP3   OH240321   0.863   6.524   2.814 -0.8277  0.0194  0.6521
13455TIP3    H140322   0.798   6.478   2.867  0.0899 -1.2538  0.7364
13455TIP3    H240323   0.815   6.553   2.737 -2.0767  1.4589  1.9013
13456TIP3   OH240324   6.864   3.198   5.169 -0.5129  0.5713 -0.0008
13456TIP3    H140325   6.942   3.216   5.117 -0.3381 -0.7385 -0.2354
13456TIP3    H240326   6.886   3.227   5.257  0.1584  0.4225 -0.1133
13457TIP3   OH240327   1.300   0.415   1.465 -0.1182  0.2485 -0.2848
13457TIP3    H140328   1.374   0.356   1.453  1.1240  1.6825  0.0458
13457TIP3    H240329   1.250   0.377   1.537  1.1974  0.0957  0.5717
13458TIP3   OH240330   3.435   4.113   2.187 -0.0038  0.2266  0.2226
13458TIP3    H140331   3.381   4.179   2.145 -1.0439 -0.0795  1.0282
13458TIP3    H240332   3.510   4.161   2.220 -0.2207  0.8175 -0.1355
13459TIP3   OH240333   6.263   6.544   1.201 -0.0394  0.0483  0.4784
13459TIP3    H140334   6.332   6.559   1.136 -1.3575  0.8272 -0.8146
13459TIP3    H240335   6.216   6.467   1.168 -1.5725  1.2684 -0.3213
13460TIP3   OH240336   1.392   7.069   2.508 -0.1545  0.0021 -0.1817
13460TIP3    H140337   1.298   7.066   2.491 -0.5083  0.8565  1.4075
13460TIP3    H240338   1.416   7.160   2.490  0.6719 -0.5255 -1.9062
13461TIP3   OH240339   4.766   5.940   1.211 -0.6188  0.3406 -0.2919
13461TIP3    H140340   4.829   6.001   1.250 -0.7625 -0.7232  1.7488
13461TIP3    H240341   4.799   5.853   1.234 -1.8437 -0.2925 -0.8001
13462TIP3   OH240342   3.656   6.218   0.691  0.2706 -0.1029  0.5624
13462TIP3    H140343   3.622   6.133   0.660  2.0359 -1.2959  1.6829
13462TIP3    H240344   3.711   6.248   0.619 -0.1714 -0.0089  0.2564
13463TIP3   OH240345   4.895   6.134   5.234 -0.0386  0.5939 -0.0624
13463TIP3    H140346   4.961   6.069   5.211  1.6269  2.0888  0.2549
13463TIP3    H240347   4.825   6.084   5.275  0.6175 -1.1281 -0.9564
13464TIP3   OH240348   3.202   2.675   1.719  0.0816 -0.3138 -0.8436
13464TIP3    H140349   3.179   2.741   1.784 -0.2255 -2.8048  1.7772
13464TIP3    H240350   3.164   2.707   1.637  0.4539  2.9661  0.1443
13465TIP3   OH240351   0.589   3.083   4.299 -0.9770  0.0827  0.1572
13465TIP3    H140352   0.616   3.069   4.390  0.1540 -0.3896 -0.2309
13465TIP3    H240353   0.671   3.092   4.251 -1.4534 -2.0267 -1.1850
13466TIP3   OH240354   2.847   3.122   5.277 -0.8283 -0.0652  0.4834
13466TIP3    H140355   2.792   3.064   5.225  1.2590 -1.7186 -0.0403
13466TIP3    H240356   2.924   3.138   5.222  0.7444 -0.6217  2.4154
13467TIP3   OH240357   0.969   1.955   0.987 -0.8767  0.1422 -0.3614
13467TIP3    H140358   0.961   1.978   1.080 -0.3095  3.6866 -1.0479
13467TIP3    H240359   0.950   2.037   0.941  3.3163 -0.2038 -3.2345
13468TIP3   OH240360   3.353   5.350   3.414  0.5496  0.1553 -0.0428
13468TIP3    H140361   3.332   5.431   3.461 -1.6570 -1.1801  1.4767
13468TIP3    H240362   3.273   5.298   3.420  1.5889 -1.7891 -1.7930
13469TIP3   OH240363   4.913   0.083   1.636  0.3512 -0.0653  0.0545
13469TIP3    H140364   4.847   0.054   1.699  1.3199 -0.9361  0.7114
13469TIP3    H240365   4.880   0.167   1.603 -1.7799 -1.1625 -0.7614
13470TIP3   OH240366   4.776   5.956   3.392 -0.2636 -0.4641  0.2561
13470TIP3    H140367   4.701   5.959   3.451 -1.3765  0.3161 -1.1430
13470TIP3    H240368   4.823   6.038   3.408 -1.4663  0.5116 -1.0384
13471TIP3   OH240369   3.004   4.985   0.074 -0.0030 -0.2063 -0.3755
13471TIP3    H140370   3.044   4.999  -0.011 -0.1564  0.0929 -0.4012
13471TIP3    H240371   3.060   5.032   0.136 -0.2710  0.1549 -0.4030
13472TIP3   OH240372   6.791   1.545   6.055 -0.2183 -0.1189 -0.5507
13472TIP3    H140373   6.727   1.569   6.122 -0.1640 -0.4107 -0.3910
13472TIP3    H240374   6.812   1.453   6.073 -0.6825 -0.3946 -1.3600
13473TIP3   OH240375   1.344   0.434   5.173  0.5840  0.3939 -0.2896
13473TIP3    H140376   1.323   0.526   5.154  0.5705  0.5758  0.5398
13473TIP3    H240377   1.351   0.431   5.269 -0.7665 -0.7732 -0.2067
13474TIP3   OH240378   6.771   6.611   5.783  0.3410  0.2482 -0.1862
13474TIP3    H140379   6.743   6.574   5.866 -0.1352 -1.5711 -1.1020
13474TIP3    H240380   6.866   6.623   5.793  0.0051  2.0964  1.3203
13475TIP3   OH240381   6.375   7.726   3.015 -0.2947 -0.3540  0.1150
13475TIP3    H140382   6.417   7.715   3.101  0.4770  1.9481  0.0876
13475TIP3    H240383   6.439   7.773   2.963 -1.9567  1.0865 -0.7156
13476TIP3   OH240384   4.959   4.803   5.279 -0.2951 -0.2977 -0.6609
13476TIP3    H140385   4.896   4.873   5.261 -1.0490 -1.0797 -1.1356
13476TIP3    H240386   5.044   4.846   5.272 -0.7452  0.6402 -0.6470
13477TIP3   OH240387   1.185   2.932   2.656 -0.4673 -0.2806  0.8060
13477TIP3    H140388   1.167   2.860   2.596  1.5748 -1.8807  1.9705
13477TIP3    H240389   1.254   2.983   2.613 -1.0954  0.3120  0.4942
13478TIP3   OH240390   6.791   7.725   3.661 -0.8834  0.1229  0.2464
13478TIP3    H140391   6.740   7.806   3.652 -0.6427  0.1272 -1.3312
13478TIP3    H240392   6.871   7.742   3.611  0.1494 -0.3279  1.6860
13479TIP3   OH240393   0.347   0.207   3.451  0.1124  0.8940 -0.1525
13479TIP3    H140394   0.292   0.266   3.398  0.5995 -0.3272 -2.1401
13479TIP3    H240395   0.381   0.263   3.521  0.2008  2.8678 -1.6739
13480TIP3   OH240396   2.471   3.107   2.069  0.4235 -0.4453  0.0830
13480TIP3    H140397   2.467   3.132   1.977 -0.7031 -0.9390 -0.0247
13480TIP3    H240398   2.427   3.178   2.116 -1.8171 -1.6167 -0.1143
13481TIP3   OH240399   7.087   1.596   4.261 -0.1295 -0.1376 -0.3865
13481TIP3    H140400   7.100   1.503   4.279 -2.3694 -0.5457 -0.6564
13481TIP3    H240401   7.043   1.598   4.176 -2.1426  0.9950  0.6116
13482TIP3   OH240402   1.326   4.986   2.540 -0.1357  0.1930  0.0796
13482TIP3    H140403   1.389   4.916   2.556 -0.4448  0.0359  0.6538
13482TIP3    H240404   1.293   5.009   2.627 -1.1612 -0.0094 -0.2363
13483TIP3   OH240405   4.313   0.177   3.922  0.2357 -0.2427 -0.3451
13483TIP3    H140406   4.266   0.260   3.918  1.3438  0.4063 -0.4371
13483TIP3    H240407   4.373   0.187   3.996  1.5864 -0.2804 -1.3967
13484TIP3   OH240408   6.416   2.709   2.961 -0.2090  0.2465  0.0636
13484TIP3    H140409   6.424   2.788   2.907  1.1801  1.0802  1.4162
13484TIP3    H240410   6.421   2.741   3.051  1.5462 -1.4740  0.6360
13485TIP3   OH240411   1.260   2.665   0.406 -0.1148 -0.0940 -0.3735
13485TIP3    H140412   1.346   2.650   0.366  0.7554 -1.0855  1.6949
13485TIP3    H240413   1.246   2.759   0.400  1.7040  0.2487  0.3186
13486TIP3   OH240414   1.848   6.213   3.061  0.6265 -0.1520  0.2148
13486TIP3    H140415   1.922   6.266   3.092  0.7631 -0.0463 -0.2791
13486TIP3    H240416   1.849   6.135   3.116  2.1102 -0.9130 -0.8093
13487TIP3   OH240417   2.550   4.568   4.369  0.2848  0.2034  0.0382
13487TIP3    H140418   2.603   4.498   4.333 -0.2501  0.3132 -0.9836
13487TIP3    H240419   2.500   4.602   4.295  0.0517  1.2344  0.6393
13488TIP3   OH240420   1.277   4.075   2.953  1.0315  0.7168  0.2246
13488TIP3    H140421   1.230   3.992   2.957  1.2829  0.6079  0.9636
13488TIP3    H240422   1.249   4.114   2.870 -0.3256  0.6337  0.6171
13489TIP3   OH240423   5.149   5.863   6.621 -0.7806 -0.0173  0.5521
13489TIP3    H140424   5.144   5.928   6.552 -0.8247 -0.6307 -0.0360
13489TIP3    H240425   5.097   5.899   6.693 -2.4398 -0.2744 -0.4702
13490TIP3   OH240426   3.532   6.430   0.436  0.0402 -0.4863 -0.2371
13490TIP3    H140427   3.584   6.463   0.362 -2.3205  2.8842 -0.6323
13490TIP3    H240428   3.450   6.400   0.397 -1.3176  1.5040  0.8938
13491TIP3   OH240429   3.249   2.617   4.347  0.2136 -0.0307 -0.4770
13491TIP3    H140430   3.271   2.591   4.436 -1.2654  0.2069 -0.0144
13491TIP3    H240431   3.318   2.678   4.322  0.1222  0.6725  0.8881
13492TIP3   OH240432   1.624   0.630   5.355  0.5564 -0.0385  0.4159
13492TIP3    H140433   1.622   0.539   5.384  0.8361 -0.8802 -1.9605
13492TIP3    H240434   1.690   0.672   5.411 -0.5075 -0.9011  2.4213
13493TIP3   OH240435   3.063   0.473   1.636  0.8821 -0.2123  0.5815
13493TIP3    H140436   3.096   0.563   1.630  1.1745 -0.3825 -0.6904
13493TIP3    H240437   2.993   0.477   1.701 -2.3094  1.9814 -2.5994
13494TIP3   OH240438   1.329   2.361   2.807  0.2113 -0.0788  0.6506
13494TIP3    H140439   1.285   2.422   2.867  1.8026  0.9597  0.8144
13494TIP3    H240440   1.410   2.405   2.783  0.0838 -0.8868 -1.5342
13495TIP3   OH240441   1.552   6.451   4.565  0.3876 -0.1979 -0.1293
13495TIP3    H140442   1.507   6.376   4.603 -0.3383 -0.2880 -1.1139
13495TIP3    H240443   1.523   6.452   4.474 -0.6423  2.0297  0.1572
13496TIP3   OH240444   6.987   7.718   3.469  0.2485 -0.1489 -0.1994
13496TIP3    H140445   6.955   7.719   3.378 -0.5502 -1.0947  0.0498
13496TIP3    H240446   6.991   7.625   3.491 -0.5574  0.0970  1.0606
13497TIP3   OH240447   3.791   3.942   1.119  0.5182 -0.4379  0.0028
13497TIP3    H140448   3.705   3.907   1.142 -0.7475  1.8443 -0.8913
13497TIP3    H240449   3.786   3.959   1.025  1.7903  0.1376  0.0089
13498TIP3   OH240450   4.542   1.483   0.422  0.3546 -0.0863  0.3793
13498TIP3    H140451   4.547   1.388   0.435  1.3512 -0.5202 -2.4547
13498TIP3    H240452   4.618   1.517   0.469 -0.4404 -0.5357  2.0796
13499TIP3   OH240453   0.319   5.837   2.545 -0.0689 -0.2537  0.0940
13499TIP3    H140454   0.378   5.812   2.474  0.3052 -1.1056  0.6859
13499TIP3    H240455   0.232   5.817   2.511  0.0015  0.6458 -0.6390
13500TIP3   OH240456   4.364   7.278   6.127  0.2667 -0.2416  0.2323
13500TIP3    H140457   4.301   7.239   6.189  0.5533 -2.0758 -0.5563
13500TIP3    H240458   4.443   7.292   6.179  0.3236 -1.2478  0.4376
13501TIP3   OH240459   7.988   4.682   6.042 -0.0957  0.2621 -0.0601
13501TIP3    H140460   8.020   4.757   6.092 -1.1208  0.7086 -0.0452
13501TIP3    H240461   8.047   4.610   6.065  1.7202  1.3516 -1.0612
13502TIP3   OH240462   5.220   0.602   1.683 -0.1377 -0.5736 -0.2163
13502TIP3    H140463   5.313   0.587   1.702  0.3137  1.9084 -0.0808
13502TIP3    H240464   5.219   0.632   1.592 -0.6095  0.7269  0.1945
13503TIP3   OH240465   3.918   4.579   5.549 -0.0809 -0.1873  0.1314
13503TIP3    H140466   3.837   4.627   5.567 -1.2861 -1.3668 -1.7602
13503TIP3    H240467   3.984   4.623   5.603 -1.9031  0.9809  1.5558
13504TIP3   OH240468   3.922   3.931   1.978  0.6369  0.2029 -0.2142
13504TIP3    H140469   3.944   3.856   2.032 -0.1354  0.0845 -0.0432
13504TIP3    H240470   3.826   3.933   1.978  0.6308  0.3644 -1.3558
13505TIP3   OH240471   2.610   5.668   1.228  0.4158 -0.0683 -0.0011
13505TIP3    H140472   2.702   5.677   1.253  0.3536  0.8834 -0.0775
13505TIP3    H240473   2.575   5.757   1.232 -0.6623 -0.4981  0.6140
13506TIP3   OH240474   7.556   6.818   4.136  0.3758  0.4020 -0.3184
13506TIP3    H140475   7.625   6.781   4.082  1.8743  0.0179  1.7392
13506TIP3    H240476   7.587   6.905   4.159 -0.7552  0.9933 -0.9248
13507TIP3   OH240477   4.778   0.068   2.710  0.4441  0.0121 -0.1372
13507TIP3    H140478   4.764  -0.010   2.765 -1.8523  0.7157  0.3765
13507TIP3    H240479   4.792   0.139   2.773 -2.5236  0.8868 -0.3024
13508TIP3   OH240480   5.830   0.119   5.277  0.1107 -0.1501  0.3733
13508TIP3    H140481   5.738   0.093   5.272  0.3360 -0.7170 -2.8591
13508TIP3    H240482   5.872   0.051   5.330 -1.5136  1.1813  3.6950
13509TIP3   OH240483   7.563   6.992   0.927  0.4118 -0.2358 -0.7776
13509TIP3    H140484   7.651   7.022   0.949  0.2858 -0.1356 -0.4201
13509TIP3    H240485   7.547   7.027   0.839  0.9693 -0.7725 -1.1039
13510TIP3   OH240486   5.439   0.015   6.635  0.0281 -0.0816 -0.1973
13510TIP3    H140487   5.414   0.080   6.569  0.5603  0.5961  0.2520
13510TIP3    H240488   5.517   0.053   6.677 -1.1315  0.2090  1.8239
13511TIP3   OH240489   8.199   5.871   2.036  0.9701  0.3005  0.1478
13511TIP3    H140490   8.269   5.857   1.971  0.5526  1.0880 -0.4932
13511TIP3    H240491   8.118   5.869   1.985  0.4872 -0.8406  0.9235
13512TIP3   OH240492   7.430   6.207   4.793  0.1827 -0.5327  0.4692
13512TIP3    H140493   7.523   6.230   4.784  0.3924 -1.2069  0.8608
13512TIP3    H240494   7.431   6.114   4.817 -0.6483 -1.0962 -1.4586
13513TIP3   OH240495   4.682   7.152   5.414  0.7661 -0.1554 -0.0403
13513TIP3    H140496   4.608   7.151   5.475 -0.3450 -0.1117 -1.3589
13513TIP3    H240497   4.698   7.060   5.393  1.8503 -0.2564  1.1030
13514TIP3   OH240498   4.679   2.323   3.879  0.3125 -0.1898  0.1752
13514TIP3    H140499   4.661   2.313   3.786 -1.0544 -2.1001  0.5936
13514TIP3    H240500   4.638   2.406   3.902 -0.3479 -0.2621 -0.6938
13515TIP3   OH240501   3.204   3.316   5.028 -0.3002  0.3550  0.2537
13515TIP3    H140502   3.261   3.349   5.098 -0.8022  0.1806  0.7546
13515TIP3    H240503   3.255   3.328   4.948  0.5715 -0.1120  0.7265
13516TIP3   OH240504   2.808   4.993   5.170 -0.5038  0.2501 -0.2245
13516TIP3    H140505   2.755   5.048   5.112 -1.8848  0.2872  1.0359
13516TIP3    H240506   2.828   4.915   5.118 -2.5472 -0.1594 -0.4698
13517TIP3   OH240507   5.053   3.410   6.758 -0.2335 -0.2988  0.0873
13517TIP3    H140508   5.047   3.420   6.663 -1.6648 -1.0600  0.0654
13517TIP3    H240509   5.108   3.332   6.769  0.4925  0.1787 -0.0840
13518TIP3   OH240510   3.071   2.193   2.613  0.0083 -0.7012 -0.1664
13518TIP3    H140511   2.993   2.235   2.648  0.7660 -0.1705  0.9675
13518TIP3    H240512   3.044   2.156   2.529 -1.6804 -1.3512  0.6367
13519TIP3   OH240513   2.193   6.270   6.434  0.4440  0.6849  0.2629
13519TIP3    H140514   2.195   6.324   6.513  0.4118 -0.5195  1.1111
13519TIP3    H240515   2.104   6.234   6.432  0.5833  0.3544 -0.0746
13520TIP3   OH240516   5.125   2.255   6.398 -0.7001  0.4455  0.0271
13520TIP3    H140517   5.170   2.171   6.406  0.7091  1.0311 -1.2572
13520TIP3    H240518   5.188   2.319   6.433 -1.9574  0.9609  1.4929
13521TIP3   OH240519   3.806   6.416   6.369 -0.5389  0.2861  0.5748
13521TIP3    H140520   3.732   6.474   6.350  0.7588  2.0922  0.7248
13521TIP3    H240521   3.802   6.403   6.464 -0.9021  0.0409  0.5262
13522TIP3   OH240522   3.950   4.187   6.061 -0.4911 -0.6013 -0.1282
13522TIP3    H140523   3.892   4.133   6.113  0.9056 -0.4814  1.6302
13522TIP3    H240524   4.027   4.200   6.116  0.6694  0.2951 -1.8748
13523TIP3   OH240525   4.736   1.249   0.589  0.3285 -0.7524 -0.3663
13523TIP3    H140526   4.660   1.299   0.620  1.6860  0.5985  0.9313
13523TIP3    H240527   4.698   1.170   0.551 -1.7155 -0.2588  0.4859
13524TIP3   OH240528   2.454   5.001   3.161 -0.1309  0.2081 -0.9013
13524TIP3    H140529   2.410   5.006   3.247  0.5799 -0.0751 -0.5152
13524TIP3    H240530   2.452   5.091   3.129 -0.0226  0.3998 -0.3884
13525TIP3   OH240531   0.101   4.723   4.692  0.2052  0.0533 -0.3092
13525TIP3    H140532   0.084   4.813   4.665 -2.0737 -0.0094  0.7090
13525TIP3    H240533   0.100   4.673   4.611  0.6109  0.7986 -0.7929
13526TIP3   OH240534   4.071   0.934   3.074  0.1855 -0.2705  0.3000
13526TIP3    H140535   4.079   0.958   3.166  0.7752 -1.4460  0.5678
13526TIP3    H240536   4.130   0.994   3.028  1.4624 -1.0110  0.9243
13527TIP3   OH240537   2.806   1.827   2.539  0.3326  0.1142 -0.1246
13527TIP3    H140538   2.757   1.764   2.593 -0.5983  2.4560  1.9659
13527TIP3    H240539   2.890   1.837   2.584 -0.2590  1.7225  0.6783
13528TIP3   OH240540   4.332   0.511   5.659  0.6887  0.4617 -0.3956
13528TIP3    H140541   4.245   0.550   5.662  0.5608  0.1682 -0.2637
13528TIP3    H240542   4.391   0.583   5.678  0.4566  0.6044 -0.2100
13529TIP3   OH240543   4.097   3.110   6.262  0.4923  0.3312  0.0166
13529TIP3    H140544   4.056   3.057   6.330  0.0110  1.9768  1.0559
13529TIP3    H240545   4.065   3.072   6.180  0.5955 -1.2960  0.7003
13530TIP3   OH240546   4.342   7.381   1.665  0.0351 -0.0999  0.2219
13530TIP3    H140547   4.262   7.385   1.718  0.7950 -0.1422  1.4298
13530TIP3    H240548   4.407   7.429   1.717  0.6316  0.5427 -1.0602
13531TIP3   OH240549   2.577   4.383   2.164  0.3372  0.0674  0.4582
13531TIP3    H140550   2.586   4.403   2.257 -0.3900  2.1293  0.1224
13531TIP3    H240551   2.507   4.440   2.133  0.0894 -1.0700 -1.2373
13532TIP3   OH240552   5.844   4.181   3.292 -0.2144 -0.2730  0.2144
13532TIP3    H140553   5.811   4.240   3.225  0.1447 -1.9664 -1.5416
13532TIP3    H240554   5.929   4.218   3.317  0.4595 -0.5167 -1.5720
13533TIP3   OH240555   6.507   5.161   6.739 -0.4463 -0.2310 -0.3825
13533TIP3    H140556   6.453   5.204   6.672  0.0690  0.4288 -0.3915
13533TIP3    H240557   6.596   5.190   6.720  0.1750 -2.5304 -1.3164
13534TIP3   OH240558   3.943   6.097   0.047 -0.1098  0.3162 -0.3149
13534TIP3    H140559   3.877   6.118   0.113 -0.6591  0.8231 -1.0012
13534TIP3    H240560   3.946   6.002   0.045 -0.8765  0.2841 -0.3082
13535TIP3   OH240561   4.159   6.958   5.708 -0.0460  0.4361 -0.0465
13535TIP3    H140562   4.231   6.960   5.771 -1.1032  1.9273  1.1980
13535TIP3    H240563   4.126   6.869   5.712  2.0225 -0.4515 -1.0517
13536TIP3   OH240564   1.252   0.136   3.243 -0.5148 -0.1742  0.3244
13536TIP3    H140565   1.297   0.054   3.222 -1.6933 -1.0990  1.2428
13536TIP3    H240566   1.215   0.165   3.160 -1.4431 -1.4497  0.2661
13537TIP3   OH240567   1.029   4.068   1.863 -0.1336  0.0357  0.2677
13537TIP3    H140568   1.070   4.154   1.876 -0.4582  0.0468  1.3464
13537TIP3    H240569   0.983   4.051   1.945 -0.3472 -1.0276 -0.0560
13538TIP3   OH240570   2.281   1.335   5.771  0.5141 -0.4826 -0.3431
13538TIP3    H140571   2.254   1.395   5.840  1.4725  0.7878 -1.0205
13538TIP3    H240572   2.331   1.267   5.816  0.7159  0.0655  0.2761
13539TIP3   OH240573   7.035   6.439   3.287 -0.2699  0.4426  0.6643
13539TIP3    H140574   7.068   6.449   3.198 -1.3928 -0.2362  0.1458
13539TIP3    H240575   7.111   6.414   3.339  0.1709 -0.4101 -0.3570
13540TIP3   OH240576   4.921   1.071   6.697  0.4740  0.2882 -0.7086
13540TIP3    H140577   4.998   1.038   6.744 -0.0711  0.6981  0.5083
13540TIP3    H240578   4.863   1.102   6.766  0.3518  2.4774 -1.7122
13541TIP3   OH240579   3.083   5.943   5.599  0.1242  0.5788  0.2107
13541TIP3    H140580   3.027   5.926   5.675 -2.4248  0.7072 -1.5021
13541TIP3    H240581   3.090   6.039   5.596 -1.6305  0.7322 -0.8425
13542TIP3   OH240582   7.873   5.182   2.278  0.0393 -0.3037 -0.3845
13542TIP3    H140583   7.908   5.146   2.196 -0.3639 -0.2211 -0.5931
13542TIP3    H240584   7.779   5.165   2.274  0.2495 -2.1529  1.0014
13543TIP3   OH240585   3.245   5.063   0.793  0.1582  0.4586  0.3439
13543TIP3    H140586   3.275   5.088   0.705  0.2193  2.5377  0.9052
13543TIP3    H240587   3.208   5.144   0.829 -0.9463 -0.6526  1.8074
13544TIP3   OH240588   5.552   3.207   1.121 -0.1092 -0.1466 -0.0051
13544TIP3    H140589   5.551   3.247   1.034 -2.7924 -2.8092 -1.3871
13544TIP3    H240590   5.606   3.128   1.110 -0.4758 -0.5155  0.7284
13545TIP3   OH240591   1.590   7.624   6.256  0.2927  0.0033 -0.0094
13545TIP3    H140592   1.556   7.535   6.251  1.2335 -0.3684 -0.0503
13545TIP3    H240593   1.514   7.680   6.243 -0.2457 -0.7984 -0.3817
13546TIP3   OH240594   6.707   6.278   2.226 -0.0206  0.4237  0.1188
13546TIP3    H140595   6.613   6.295   2.223 -0.4163 -1.4076  0.8936
13546TIP3    H240596   6.735   6.280   2.135 -1.7480 -3.5076 -0.7083
13547TIP3   OH240597   2.323   6.331   4.566  0.0289  0.8084  0.3094
13547TIP3    H140598   2.319   6.337   4.471  3.2960 -0.2598 -0.0191
13547TIP3    H240599   2.398   6.386   4.591 -1.2748  1.7877  2.4096
13548TIP3   OH240600   3.644   1.852   3.288 -0.2876  0.4061 -0.5129
13548TIP3    H140601   3.730   1.887   3.267  0.0409  0.8808  1.3938
13548TIP3    H240602   3.601   1.840   3.204  1.0537  1.6794 -1.4171
13549TIP3   OH240603   4.057   0.978   5.369 -0.5884 -0.2381 -0.5498
13549TIP3    H140604   4.079   1.063   5.330 -2.5866  0.8592  0.5757
13549TIP3    H240605   4.048   0.919   5.294 -0.3259  0.8083 -1.4289
13550TIP3   OH240606   6.053   5.273   2.925 -0.7121 -0.0419  0.2072
13550TIP3    H140607   6.138   5.317   2.922 -1.1043  0.7162  0.0483
13550TIP3    H240608   6.066   5.192   2.875 -0.1737  0.2191 -0.0819
13551TIP3   OH240609   2.454   4.211   0.399  0.2327  0.3308 -0.0526
13551TIP3    H140610   2.479   4.122   0.425  1.2651  0.0600 -1.7756
13551TIP3    H240611   2.386   4.236   0.461 -1.3735 -2.3434 -0.5305
13552TIP3   OH240612   3.624   3.109   1.228  0.2578  0.2667 -0.0343
13552TIP3    H140613   3.544   3.072   1.191  0.9057 -1.2590 -0.0186
13552TIP3    H240614   3.602   3.199   1.251 -1.5057 -0.1973  0.1964
13553TIP3   OH240615   3.846   4.217   4.277 -0.4336  0.6254 -0.1089
13553TIP3    H140616   3.938   4.235   4.257 -0.3740  0.4626  0.0179
13553TIP3    H240617   3.825   4.139   4.224 -0.1321 -0.1149  0.8316
13554TIP3   OH240618   7.303   6.716   1.634 -0.3069  0.3435  0.0300
13554TIP3    H140619   7.277   6.775   1.705  0.0433  1.4734 -0.7645
13554TIP3    H240620   7.372   6.662   1.673 -2.3363 -1.3335  1.5344
13555TIP3   OH240621   4.534   1.305   5.670  0.0330  0.0642 -0.3944
13555TIP3    H140622   4.478   1.319   5.747  0.0942  1.6323 -0.6131
13555TIP3    H240623   4.477   1.321   5.595 -0.0458 -1.5438 -0.7135
13556TIP3   OH240624   3.675   7.400   0.477 -0.4610  0.5803  0.0230
13556TIP3    H140625   3.599   7.388   0.534 -0.6585 -0.6690 -0.4756
13556TIP3    H240626   3.738   7.449   0.530  0.1785 -2.2667  2.1028
13557TIP3   OH240627   7.693   3.411   0.298 -0.7708 -0.0798  0.6582
13557TIP3    H140628   7.640   3.356   0.240 -0.2549 -1.1814  1.1939
13557TIP3    H240629   7.726   3.480   0.241 -0.8459 -0.7315 -0.2149
13558TIP3   OH240630   6.942   5.158   3.064 -0.2417  0.2143 -1.0771
13558TIP3    H140631   6.875   5.175   2.998 -1.0569 -3.0018 -1.2208
13558TIP3    H240632   6.985   5.078   3.034  0.2582 -0.6190  1.5973
13559TIP3   OH240633   1.120   7.684   0.268 -0.0822 -0.3477 -0.2892
13559TIP3    H140634   1.188   7.751   0.264 -1.5721  1.6953  3.4636
13559TIP3    H240635   1.157   7.614   0.322 -0.6237  0.4380  1.1477
13560TIP3   OH240636   7.204   3.316   2.742  0.0508  0.3597  0.3023
13560TIP3    H140637   7.133   3.258   2.771 -0.5895  0.0313 -1.7306
13560TIP3    H240638   7.282   3.261   2.742 -0.0949  0.1519  0.6128
13561TIP3   OH240639   0.750   1.578   1.821  0.4210  0.4011 -0.0351
13561TIP3    H140640   0.835   1.541   1.797  0.1208  1.0049 -2.2214
13561TIP3    H240641   0.697   1.502   1.846  0.2974 -0.5475 -2.8945
13562TIP3   OH240642   5.139   0.849   6.417  0.1620 -0.3343  0.6045
13562TIP3    H140643   5.067   0.804   6.373  1.4325  1.3372 -3.7188
13562TIP3    H240644   5.113   0.941   6.417  2.2958  0.3424 -1.3309
13563TIP3   OH240645   3.132   7.401   4.770  0.1696  0.1562  0.0739
13563TIP3    H140646   3.183   7.323   4.746 -0.8646 -0.4142 -0.3575
13563TIP3    H240647   3.179   7.474   4.732 -1.0023 -0.6320 -3.2391
13564TIP3   OH240648   4.225   3.983   3.656 -0.5253  0.1006  0.2688
13564TIP3    H140649   4.210   4.077   3.671 -1.2148 -0.0406  0.5304
13564TIP3    H240650   4.223   3.974   3.561 -0.8996  0.2950  0.2522
13565TIP3   OH240651   6.921   1.913   2.842  0.2636  0.1627  0.3225
13565TIP3    H140652   6.827   1.901   2.854  0.2704  0.2746  0.4881
13565TIP3    H240653   6.936   1.895   2.749  0.1655 -0.4381  0.4190
13566TIP3   OH240654   8.111   0.629   0.365 -0.3091 -0.0879  0.0606
13566TIP3    H140655   8.074   0.648   0.451 -1.9403  0.2216 -0.6762
13566TIP3    H240656   8.122   0.714   0.323  1.3770 -0.1607  0.2814
13567TIP3   OH240657   0.681   1.140   2.111  0.8670 -0.1597 -0.0236
13567TIP3    H140658   0.699   1.051   2.140 -1.1153 -0.8544 -0.7276
13567TIP3    H240659   0.745   1.157   2.042  1.0455 -1.1852 -0.1205
13568TIP3   OH240660   6.888   1.284   6.068 -0.3201  0.2993 -0.7818
13568TIP3    H140661   6.899   1.230   5.990  0.0505  1.5487 -1.6293
13568TIP3    H240662   6.958   1.350   6.062 -0.4869  0.6237  0.4392
13569TIP3   OH240663   2.044   0.148   5.249  0.2912 -0.3342  0.0374
13569TIP3    H140664   2.007   0.060   5.250  0.2560 -0.3828 -1.9049
13569TIP3    H240665   2.078   0.161   5.337 -0.6374 -1.8819  0.6562
13570TIP3   OH240666   8.165   6.670   3.378  0.3891 -0.1919 -0.5481
13570TIP3    H140667   8.204   6.670   3.465 -0.6108 -0.0057 -0.0828
13570TIP3    H240668   8.088   6.727   3.386 -1.0395 -1.9462 -0.9263
13571TIP3   OH240669   3.767   1.611   0.063 -0.6194  0.3889 -0.2081
13571TIP3    H140670   3.825   1.538   0.086  0.3237  1.4791  1.0257
13571TIP3    H240671   3.772   1.671   0.138 -1.9664  1.3740 -0.8498
13572TIP3   OH240672   4.860   6.416   0.657 -0.7761 -0.3989  0.1009
13572TIP3    H140673   4.782   6.393   0.608 -1.0257 -1.3688  0.9283
13572TIP3    H240674   4.860   6.357   0.732  0.2945  0.1649  0.5700
13573TIP3   OH240675   3.706   4.669   4.616  0.3745 -0.4800 -0.2761
13573TIP3    H140676   3.637   4.644   4.554 -1.3790 -0.5900  1.5994
13573TIP3    H240677   3.674   4.638   4.701  1.5692  1.6857  1.0485
13574TIP3   OH240678   5.719   4.686   6.090  0.0848  0.6941 -0.0330
13574TIP3    H140679   5.765   4.750   6.145  1.7305 -0.4666  0.0320
13574TIP3    H240680   5.648   4.736   6.049  1.4294  2.6308 -0.1502
13575TIP3   OH240681   5.504   2.690   6.613  0.2556 -0.2271 -0.0919
13575TIP3    H140682   5.502   2.642   6.530 -0.8769 -0.4065  0.0296
13575TIP3    H240683   5.587   2.738   6.610  1.0531 -1.5466 -0.5730
13576TIP3   OH240684   1.161   2.630   1.629 -0.4060 -0.3495 -0.0050
13576TIP3    H140685   1.244   2.626   1.582 -0.4364  0.5028 -0.1527
13576TIP3    H240686   1.166   2.710   1.681 -1.0319 -0.4224  0.1842
13577TIP3   OH240687   6.848   7.010   5.939  0.2347  0.1024 -0.2413
13577TIP3    H140688   6.754   6.994   5.933  0.3949 -0.6664 -0.9264
13577TIP3    H240689   6.878   6.955   6.011  0.2079  0.1045 -0.2290
13578TIP3   OH240690   1.328   5.131   2.041 -0.4292 -0.3925  0.7304
13578TIP3    H140691   1.362   5.195   1.979 -0.6894  0.8499  1.8295
13578TIP3    H240692   1.365   5.048   2.012 -0.2290  0.2145 -0.8360
13579TIP3   OH240693   3.860   7.120   4.956  0.4242  0.7372 -0.1269
13579TIP3    H140694   3.878   7.203   4.913 -0.0566  0.4701 -0.8536
13579TIP3    H240695   3.943   7.097   4.998  0.4680  1.7328  0.3519
13580TIP3   OH240696   4.008   4.869   2.906  0.5298 -0.5164  0.5958
13580TIP3    H140697   4.075   4.938   2.910 -0.1439  0.1346  0.8164
13580TIP3    H240698   4.051   4.793   2.945  0.6180  0.3484  2.3092
13581TIP3   OH240699   6.095   6.064   0.775  0.2128  0.1177  0.1898
13581TIP3    H140700   6.143   5.987   0.747 -0.6092 -1.0357  1.7871
13581TIP3    H240701   6.101   6.063   0.871  0.7925  2.4547  0.2429
13582TIP3   OH240702   4.480   4.336   3.738  0.4817 -0.0074  0.2972
13582TIP3    H140703   4.462   4.292   3.821 -2.5095 -2.4297 -1.4027
13582TIP3    H240704   4.515   4.267   3.682 -0.7424  0.6571 -1.3808
13583TIP3   OH240705   0.965   1.092   2.310  0.1337  0.0865  0.0446
13583TIP3    H140706   0.968   1.181   2.274  0.2938  0.4012  0.8201
13583TIP3    H240707   0.941   1.104   2.402  0.0125 -0.6860  0.1204
13584TIP3   OH240708   2.265   1.564   4.429  0.0342 -0.2227  0.7128
13584TIP3    H140709   2.196   1.513   4.386  0.6736 -0.0404 -0.5904
13584TIP3    H240710   2.346   1.518   4.406  0.7522  1.9015 -1.4426
13585TIP3   OH240711   6.482   6.167   5.750 -0.3322 -0.7274  0.0464
13585TIP3    H140712   6.550   6.130   5.694  0.3113 -0.4347  0.6177
13585TIP3    H240713   6.524   6.177   5.835 -1.3299 -1.2814  0.6243
13586TIP3   OH240714   5.534   0.027   6.271 -0.9124 -0.0803 -0.3596
13586TIP3    H140715   5.591   0.002   6.344 -2.3246 -1.8058  0.1940
13586TIP3    H240716   5.452   0.055   6.312 -2.6873 -3.5272 -1.2326
13587TIP3   OH240717   3.275   7.793   1.519  0.0609  0.4796  0.0094
13587TIP3    H140718   3.348   7.846   1.486  1.5205 -0.9820  0.7491
13587TIP3    H240719   3.209   7.798   1.450  0.4138  2.6817 -0.2352
13588TIP3   OH240720   1.587   1.892   4.143 -0.3102 -0.0618 -0.1393
13588TIP3    H140721   1.540   1.824   4.094 -1.7402 -0.2931  1.4534
13588TIP3    H240722   1.583   1.969   4.087 -0.8213 -0.6399 -0.9241
13589TIP3   OH240723   8.138   7.492   1.089 -0.2878 -0.5235  0.2973
13589TIP3    H140724   8.089   7.575   1.093 -0.9128 -0.9019  0.6757
13589TIP3    H240725   8.146   7.474   0.996 -0.7364 -0.3723  0.2231
13590TIP3   OH240726   2.030   7.728   6.316  0.5165  0.6719 -0.5472
13590TIP3    H140727   2.001   7.667   6.249  1.8234  0.1235 -0.6358
13590TIP3    H240728   2.098   7.681   6.364 -0.9209  0.7208  1.7195
13591TIP3   OH240729   1.676   1.901   5.967 -0.1467 -0.1415  0.4286
13591TIP3    H140730   1.661   1.987   5.927 -1.7188 -1.4671 -2.0932
13591TIP3    H240731   1.769   1.883   5.950  0.7349  1.7839  2.7205
13592TIP3   OH240732   3.507   1.146   4.207  0.3172  0.0831  0.1509
13592TIP3    H140733   3.528   1.238   4.188  2.8775 -0.3178  0.6636
13592TIP3    H240734   3.433   1.151   4.267 -0.5621  1.7266 -0.9591
13593TIP3   OH240735   2.702   3.734   4.933  0.3575  0.4290  0.2873
13593TIP3    H140736   2.756   3.676   4.879 -0.9275 -0.4818 -0.0510
13593TIP3    H240737   2.739   3.726   5.020  0.5346 -0.5006  0.1419
13594TIP3   OH240738   8.090   3.318   0.654 -0.0327  0.4235 -0.3334
13594TIP3    H140739   8.025   3.374   0.697 -1.8087 -1.1401 -0.8595
13594TIP3    H240740   8.080   3.233   0.697  0.7803 -0.1865 -1.3131
13595TIP3   OH240741   2.302   5.552   4.206  0.7569  0.3686 -0.7210
13595TIP3    H140742   2.372   5.534   4.269  0.6778  0.6185 -0.5591
13595TIP3    H240743   2.238   5.482   4.221  0.4166  0.8126 -0.0465
13596TIP3   OH240744   4.948   0.285   2.477 -0.4967 -0.0810 -0.1980
13596TIP3    H140745   4.969   0.194   2.497  2.5537  0.6976  0.6511
13596TIP3    H240746   4.858   0.296   2.510 -0.4535 -2.3904  0.9562
13597TIP3   OH240747   3.434   2.889   2.059  1.0201  0.8652  0.6208
13597TIP3    H140748   3.497   2.945   2.013 -0.4533  1.1259 -1.2297
13597TIP3    H240749   3.487   2.821   2.100  2.5698  1.6280 -0.0356
13598TIP3   OH240750   4.916   7.350   3.664 -0.1805  0.4913 -0.0052
13598TIP3    H140751   4.868   7.299   3.729  0.7743 -0.1576  0.2050
13598TIP3    H240752   4.859   7.424   3.645 -1.3186 -0.3151  0.1535
13599TIP3   OH240753   5.408   4.357   4.065  0.0271 -0.0539  0.1177
13599TIP3    H140754   5.438   4.324   4.149 -0.1419  1.1047  0.6486
13599TIP3    H240755   5.464   4.313   4.000  0.8508 -0.1706  0.8916
13600TIP3   OH240756   1.914   2.514   6.691 -0.7638 -0.5369 -0.1236
13600TIP3    H140757   1.982   2.458   6.729 -0.8949 -0.3737  0.3632
13600TIP3    H240758   1.856   2.453   6.645 -0.7591 -0.7734  0.1800
13601TIP3   OH240759   4.747   6.775   6.110  0.5333 -0.1081 -0.2598
13601TIP3    H140760   4.810   6.704   6.097 -0.6396 -1.8819  2.7017
13601TIP3    H240761   4.678   6.759   6.046  0.8124 -1.0481 -0.3360
13602TIP3   OH240762   7.368   0.751   6.624 -0.4001 -0.0210 -0.1465
13602TIP3    H140763   7.322   0.667   6.627  0.9723 -0.7845  1.6385
13602TIP3    H240764   7.303   0.815   6.651 -1.3162 -0.5659 -1.0003
13603TIP3   OH240765   5.494   2.932   2.264  0.1822  0.1651  0.9333
13603TIP3    H140766   5.402   2.946   2.239  0.7936  1.3757 -0.8027
13603TIP3    H240767   5.542   2.936   2.182  2.1486  2.6688  2.0859
13604TIP3   OH240768   0.254   6.518   5.298  0.1826  0.2175 -0.7375
13604TIP3    H140769   0.263   6.586   5.365  2.1746 -0.3404 -0.3994
13604TIP3    H240770   0.167   6.482   5.313  0.9831 -0.7087  2.3599
13605TIP3   OH240771   3.480   2.169   3.870 -0.0961 -0.0371  0.5977
13605TIP3    H140772   3.545   2.101   3.889  0.0958 -0.0681 -0.1051
13605TIP3    H240773   3.449   2.148   3.782  0.1626  0.9246  0.2594
13606TIP3   OH240774   6.913   6.942   5.577  0.0882 -0.2220  0.0858
13606TIP3    H140775   6.953   7.002   5.638 -0.2782  0.6589 -0.5193
13606TIP3    H240776   6.974   6.936   5.504 -0.2712  0.0949 -0.2447
13607TIP3   OH240777   7.380   0.598   1.581 -0.4537  0.0026 -0.1468
13607TIP3    H140778   7.357   0.632   1.495  0.8602  1.1204 -0.0842
13607TIP3    H240779   7.475   0.593   1.581 -0.4742 -1.0529  0.8671
13608TIP3   OH240780   6.402   0.602   6.297 -0.6459  0.4905  0.1425
13608TIP3    H140781   6.365   0.545   6.364 -0.0465 -1.4924 -1.1066
13608TIP3    H240782   6.496   0.603   6.316 -0.5915  0.6537 -0.1241
13609TIP3   OH240783   8.102   1.119   0.027  0.2746  0.1297  0.4144
13609TIP3    H140784   8.107   1.182   0.098  0.2306  0.3884  0.1867
13609TIP3    H240785   8.038   1.156  -0.034  0.4765  0.0161  0.1321
13610TIP3   OH240786   0.772   4.137   3.759 -0.0363 -0.1627 -0.9722
13610TIP3    H140787   0.729   4.215   3.723  0.2369  0.5583  0.2076
13610TIP3    H240788   0.849   4.124   3.703  0.8001  1.3857 -0.2640
13611TIP3   OH240789   3.603   1.682   1.045 -0.1117  0.3255 -0.3436
13611TIP3    H140790   3.632   1.631   0.969  1.5561  1.9197 -0.8542
13611TIP3    H240791   3.647   1.640   1.120 -0.0288  0.0587 -0.5388
13612TIP3   OH240792   4.886   7.824   6.419 -0.0128  0.5475  0.7009
13612TIP3    H140793   4.925   7.792   6.500 -1.4219 -0.1436  1.1433
13612TIP3    H240794   4.954   7.812   6.353  0.5707 -0.4615  1.4661
13613TIP3   OH240795   4.729   3.446   1.604 -0.6632  0.4866 -0.2611
13613TIP3    H140796   4.722   3.418   1.695  0.5769  0.1811 -0.2296
13613TIP3    H240797   4.824   3.453   1.589 -0.8528  0.6693 -1.4775
13614TIP3   OH240798   0.811   5.070   2.336 -0.1115 -0.8178 -0.0239
13614TIP3    H140799   0.770   5.086   2.421 -0.3638  1.6515 -0.5266
13614TIP3    H240800   0.903   5.050   2.357 -0.3216 -0.8741  0.8619
13615TIP3   OH240801   7.208   2.799   4.185 -1.1254  0.4093  0.0147
13615TIP3    H140802   7.253   2.772   4.265  0.9725  0.7962 -0.9547
13615TIP3    H240803   7.235   2.735   4.119 -0.3433  1.7780 -1.0603
13616TIP3   OH240804   5.824   6.796   3.098  0.1761 -0.0344  0.0088
13616TIP3    H140805   5.746   6.839   3.064 -1.5690 -1.9226  1.3817
13616TIP3    H240806   5.866   6.862   3.153 -1.6877  0.3956  0.9866
13617TIP3   OH240807   0.708   6.608   2.036 -0.3153 -0.2831 -0.1922
13617TIP3    H140808   0.619   6.595   2.070 -0.4523  3.3124  1.2384
13617TIP3    H240809   0.699   6.591   1.942 -2.2534 -0.9810  0.0594
13618TIP3   OH240810   0.180   4.376   0.571 -0.6036  0.3212 -0.1103
13618TIP3    H140811   0.127   4.396   0.648 -1.6912  0.1031 -0.7741
13618TIP3    H240812   0.118   4.337   0.510  0.4932 -0.6693 -0.6242
13619TIP3   OH240813   4.128   7.381   5.804 -0.5113 -0.2711 -1.0242
13619TIP3    H140814   4.046   7.419   5.772  0.2875  1.1659 -1.4406
13619TIP3    H240815   4.179   7.456   5.834  1.4198 -0.9060 -2.5568
13620TIP3   OH240816   1.317   5.445   3.815 -0.8254 -0.1527 -0.1883
13620TIP3    H140817   1.394   5.499   3.831 -1.1682  0.2245  0.2211
13620TIP3    H240818   1.320   5.426   3.721 -2.0259  2.6931 -0.9181
13621TIP3   OH240819   7.627   4.005   2.265 -0.1413  0.3633  0.3797
13621TIP3    H140820   7.589   3.919   2.278 -4.3023  1.0414 -4.3102
13621TIP3    H240821   7.692   3.993   2.195  0.6049  0.8512  0.9609
13622TIP3   OH240822   7.121   4.107   2.590  0.5021  0.2382  0.7258
13622TIP3    H140823   7.140   4.044   2.660  1.0309 -0.3094  0.1013
13622TIP3    H240824   7.189   4.174   2.599  0.1797  0.5105  1.1414
13623TIP3   OH240825   4.622   5.464   2.043  0.0034 -0.8529  0.3923
13623TIP3    H140826   4.682   5.480   2.116 -0.0317 -1.4695  0.5561
13623TIP3    H240827   4.676   5.419   1.978  0.4130  0.8980 -0.5569
13624TIP3   OH240828   7.562   7.215   4.458  0.1594 -0.3541 -1.2954
13624TIP3    H140829   7.525   7.302   4.446 -1.0332 -0.8432 -1.2851
13624TIP3    H240830   7.490   7.163   4.495  1.5039 -0.7942  0.8670
13625TIP3   OH240831   7.417   3.760   2.131 -0.1260 -0.3128 -0.0905
13625TIP3    H140832   7.325   3.775   2.109 -0.1474  1.1313  0.9207
13625TIP3    H240833   7.425   3.782   2.224  1.0743 -1.2656  0.0742
13626TIP3   OH240834   7.960   1.926   3.360 -0.0830 -0.0204 -0.3735
13626TIP3    H140835   8.006   1.865   3.418 -0.9966 -1.1965 -0.8379
13626TIP3    H240836   7.871   1.891   3.354 -0.5520  1.1980 -0.9144
13627TIP3   OH240837   0.555   6.246   3.146  0.2744  0.0583 -0.2493
13627TIP3    H140838   0.467   6.261   3.112  0.0598 -0.5733  0.0109
13627TIP3    H240839   0.568   6.152   3.138  1.1131  0.2134 -0.7178
13628TIP3   OH240840   1.794   7.112   4.178  0.4057 -0.0765 -0.0826
13628TIP3    H140841   1.849   7.092   4.254  0.0076 -1.6632 -0.1585
13628TIP3    H240842   1.711   7.140   4.217  0.4833 -0.0363  0.0573
13629TIP3   OH240843   4.088   2.322   4.398  0.2438  0.6125 -0.1528
13629TIP3    H140844   4.010   2.308   4.344 -0.2153  0.4555  0.5369
13629TIP3    H240845   4.150   2.365   4.339 -0.3754  0.7783 -0.7048
13630TIP3   OH240846   0.048   7.795   1.206 -0.5702 -0.0075 -0.0476
13630TIP3    H140847   0.040   7.803   1.111  0.4834  3.2001  0.0030
13630TIP3    H240848  -0.040   7.815   1.239 -0.6081  0.2613 -0.3070
13631TIP3   OH240849   2.843   4.406   3.995 -0.1958 -0.3604 -0.3302
13631TIP3    H140850   2.936   4.407   3.971 -0.3916  0.7369 -1.1294
13631TIP3    H240851   2.804   4.339   3.939 -0.3330  0.9902 -1.9191
13632TIP3   OH240852   2.655   4.262   1.942  0.1888  0.0987  0.1337
13632TIP3    H140853   2.725   4.322   1.914  0.8667 -0.6284  0.2272
13632TIP3    H240854   2.615   4.305   2.018  0.2366  0.7360 -0.1981
13633TIP3   OH240855   4.452   5.624   2.281 -0.0691  0.3884 -0.1661
13633TIP3    H140856   4.360   5.651   2.284 -0.0628  0.4325 -0.3975
13633TIP3    H240857   4.482   5.634   2.371 -0.1689  0.7939 -0.1742
13634TIP3   OH240858   4.056   2.692   0.645 -0.6509  0.3679 -0.2197
13634TIP3    H140859   4.126   2.752   0.671 -0.6694  0.5657 -0.6217
13634TIP3    H240860   4.019   2.661   0.728 -0.0836  0.2531 -0.0053
13635TIP3   OH240861   5.425   4.166   4.661 -0.6438 -0.2092 -0.2701
13635TIP3    H140862   5.387   4.095   4.714 -1.3096  0.3826  0.0577
13635TIP3    H240863   5.483   4.212   4.722 -1.1232  0.2447 -0.1541
13636TIP3   OH240864   4.126   2.255   5.996  0.3343  0.7527  0.4974
13636TIP3    H140865   4.101   2.176   5.950  0.7641  0.6966  0.3569
13636TIP3    H240866   4.160   2.224   6.080 -0.3858  0.8503  0.8378
13637TIP3   OH240867   3.943   2.693   4.807  0.1758 -0.1469  0.0748
13637TIP3    H140868   3.986   2.616   4.769 -0.2802 -0.5917  0.4473
13637TIP3    H240869   3.878   2.657   4.867  0.7813  0.5417  1.1739
13638TIP3   OH240870   6.955   4.316   1.524 -0.3540 -0.3941  0.4411
13638TIP3    H140871   6.889   4.337   1.459  0.6341 -2.2578 -1.3165
13638TIP3    H240872   7.038   4.340   1.483  0.2366 -0.6324  1.4439
13639TIP3   OH240873   7.133   7.131   6.042 -0.0552  0.3474  0.0693
13639TIP3    H140874   7.102   7.142   6.131  2.3731  0.2161  1.0186
13639TIP3    H240875   7.202   7.065   6.049 -0.5634 -0.5160 -2.1128
13640TIP3   OH240876   7.979   6.425   2.708  0.1506 -0.2188 -0.0924
13640TIP3    H140877   7.998   6.517   2.691  1.2152 -0.6813 -1.6565
13640TIP3    H240878   8.000   6.381   2.626 -1.4407 -1.7195  0.2519
13641TIP3   OH240879   2.262   4.564   1.657 -0.8525 -0.2104  0.1227
13641TIP3    H140880   2.253   4.578   1.563 -1.5828 -0.5166  0.1357
13641TIP3    H240881   2.355   4.549   1.671 -0.6277  0.6522 -0.4364
13642TIP3   OH240882   3.449   6.454   1.443  0.0351  0.1053  0.1163
13642TIP3    H140883   3.502   6.404   1.382 -2.9916 -2.9944 -0.3026
13642TIP3    H240884   3.460   6.409   1.527 -0.3639  0.6612  0.4725
13643TIP3   OH240885   6.812   1.907   0.564 -0.0296 -0.3435  0.0682
13643TIP3    H140886   6.866   1.927   0.487 -0.4589  0.2312 -0.0949
13643TIP3    H240887   6.787   1.815   0.553  0.1111 -0.3321 -0.3591
13644TIP3   OH240888   1.951   6.008   1.673 -0.0763 -0.5947 -0.3570
13644TIP3    H140889   1.902   6.034   1.595  0.7978  1.3649 -0.3160
13644TIP3    H240890   1.966   5.914   1.661 -0.4452 -0.4590 -2.2881
13645TIP3   OH240891   0.247   7.404   1.638 -0.0359  0.4219 -0.0151
13645TIP3    H140892   0.314   7.430   1.701 -0.6826  1.6201  0.2075
13645TIP3    H240893   0.275   7.318   1.607  0.3201 -0.1902  1.8818
13646TIP3   OH240894   6.817   4.693   3.791 -0.2454 -0.2906  0.0943
13646TIP3    H140895   6.792   4.778   3.826  0.1331 -1.2375  2.9109
13646TIP3    H240896   6.740   4.663   3.742 -1.0630  0.8605  0.6419
13647TIP3   OH240897   0.876   4.966   4.468  0.2039 -0.6690 -0.1328
13647TIP3    H140898   0.954   4.919   4.497  0.0464 -1.7208 -1.3384
13647TIP3    H240899   0.829   4.903   4.413  0.8372  1.3853 -3.2970
13648TIP3   OH240900   4.311   2.961   0.988  0.1858  0.1108  0.3469
13648TIP3    H140901   4.259   2.927   1.061  0.1010  0.7676  0.5915
13648TIP3    H240902   4.246   2.986   0.922  0.2482 -0.1531  0.1817
13649TIP3   OH240903   1.992   6.870   1.671 -0.2275  0.1643  0.5070
13649TIP3    H140904   1.937   6.831   1.603  1.0667 -0.5604 -0.1888
13649TIP3    H240905   2.078   6.878   1.630  0.3376  0.6833  1.7344
13650TIP3   OH240906   3.724   5.123   0.075 -0.3587 -0.3603 -0.2342
13650TIP3    H140907   3.667   5.055   0.112  0.6168 -0.9191  0.3081
13650TIP3    H240908   3.678   5.155  -0.002 -1.1881 -1.1129 -0.0620
13651TIP3   OH240909   7.056   5.612   3.320  0.2332  0.2065 -0.3307
13651TIP3    H140910   6.970   5.612   3.362  0.2898  0.7034 -0.2120
13651TIP3    H240911   7.052   5.539   3.257 -0.3043  0.2820 -0.3898
13652TIP3   OH240912   8.246   6.745   0.315  0.6932  0.3442  0.5967
13652TIP3    H140913   8.298   6.734   0.395  0.6904  0.3483  0.5991
13652TIP3    H240914   8.155   6.742   0.345  0.5572 -2.7829  0.2417
13653TIP3   OH240915   7.090   2.003   5.128 -0.6051  0.2909 -0.0612
13653TIP3    H140916   7.017   1.941   5.137 -1.4066  0.8951 -1.8062
13653TIP3    H240917   7.144   1.989   5.205 -2.1240 -0.7869  0.8553
13654TIP3   OH240918   0.386   4.422   3.084 -0.0943  0.7219  0.1596
13654TIP3    H140919   0.333   4.473   3.145 -0.4757  0.2288  0.2458
13654TIP3    H240920   0.467   4.473   3.074 -0.4575  1.3304  0.2582
13655TIP3   OH240921   2.446   6.585   4.953  0.2600  0.0052  0.2325
13655TIP3    H140922   2.432   6.670   4.995 -1.4284 -0.0758 -0.1096
13655TIP3    H240923   2.366   6.536   4.972  0.9016 -1.2368 -0.2262
13656TIP3   OH240924   2.017   3.763   2.552 -0.1742  0.3020 -0.2153
13656TIP3    H140925   2.028   3.699   2.482 -0.3018 -1.3773  1.2195
13656TIP3    H240926   2.103   3.806   2.559  0.4142 -0.8338 -0.1935
13657TIP3   OH240927   0.203   1.393   0.069 -0.0768  0.0147  0.5458
13657TIP3    H140928   0.235   1.312   0.029  2.4063  0.5260  1.3022
13657TIP3    H240929   0.216   1.380   0.163 -2.3410  0.2458  0.9385
13658TIP3   OH240930   6.045   3.218   2.281 -0.2627  0.4243 -0.2006
13658TIP3    H140931   6.032   3.269   2.201  0.7768 -0.3507 -0.8992
13658TIP3    H240932   6.138   3.196   2.280  0.3464  2.4150  2.4864
13659TIP3   OH240933   7.435   7.222   5.303 -0.5305 -0.2875 -0.3152
13659TIP3    H140934   7.518   7.244   5.262 -0.0530 -0.5408  0.4938
13659TIP3    H240935   7.440   7.128   5.319 -0.2862 -0.0511  1.1819
13660TIP3   OH240936   7.562   7.122   1.976 -0.1426  0.4666  0.2833
13660TIP3    H140937   7.480   7.116   1.927  0.6153 -1.4543 -0.8481
13660TIP3    H240938   7.596   7.032   1.978  1.7576  1.1499  1.0198
13661TIP3   OH240939   4.720   3.627   3.055 -0.8100 -0.1894  0.1725
13661TIP3    H140940   4.684   3.606   3.141 -0.0797 -0.2724  0.4625
13661TIP3    H240941   4.789   3.563   3.041 -1.8349 -1.0676 -1.1004
13662TIP3   OH240942   4.751   7.254   3.863 -0.4653 -0.4319  0.6668
13662TIP3    H140943   4.689   7.321   3.891 -2.0816 -0.8631 -1.5546
13662TIP3    H240944   4.697   7.175   3.854  0.6896 -1.1562 -0.0667
13663TIP3   OH240945   8.251   4.786   4.937 -0.6122  0.4515 -0.1626
13663TIP3    H140946   8.200   4.709   4.958 -1.9292  0.9216 -1.4588
13663TIP3    H240947   8.315   4.756   4.872 -2.0941  0.6997 -1.8047
13664TIP3   OH240948   3.196   6.132   1.217 -0.0895 -0.0360  0.8710
13664TIP3    H140949   3.264   6.064   1.220 -1.5999 -1.6630 -0.0707
13664TIP3    H240950   3.216   6.189   1.292  2.9272  0.2073  0.0120
13665TIP3   OH240951   3.192   1.696   1.378 -0.2278  0.1086 -0.7198
13665TIP3    H140952   3.228   1.670   1.293  3.2335  0.5374  0.4884
13665TIP3    H240953   3.215   1.788   1.386 -0.6148  0.0995  0.6661
13666TIP3   OH240954   6.626   1.199   5.670 -0.0340  0.4719  0.0579
13666TIP3    H140955   6.676   1.215   5.591  0.3384 -5.1370 -1.2430
13666TIP3    H240956   6.535   1.192   5.640 -0.0370 -0.5591  0.2609
13667TIP3   OH240957   7.330   7.452   4.358  0.2331 -0.4763  0.1737
13667TIP3    H140958   7.275   7.441   4.436 -0.5373  0.6829 -0.1698
13667TIP3    H240959   7.271   7.490   4.293  1.2652  0.1201 -0.4436
13668TIP3   OH240960   1.968   2.964   0.970 -0.4201  0.7110 -0.2700
13668TIP3    H140961   1.989   2.934   1.058  0.4986  1.4683 -0.2079
13668TIP3    H240962   1.875   2.985   0.973 -0.3112  1.1100  0.6394
13669TIP3   OH240963   2.606   7.096   1.278 -0.0042  0.0612  0.7264
13669TIP3    H140964   2.625   7.181   1.318  0.7142  0.4312 -0.3600
13669TIP3    H240965   2.638   7.104   1.188 -1.8987 -0.6143 -0.0616
13670TIP3   OH240966   0.256   2.361   3.789  0.1828 -0.2125  0.4860
13670TIP3    H140967   0.245   2.437   3.846 -2.7235 -1.3727  1.6888
13670TIP3    H240968   0.295   2.294   3.846 -0.1845 -0.5396  0.3641
13671TIP3   OH240969   1.371   4.409   0.767  0.0803  0.0844 -0.0166
13671TIP3    H140970   1.333   4.330   0.806 -0.9855  1.0702  1.0243
13671TIP3    H240971   1.312   4.430   0.694  0.0364  0.2333  0.0610
13672TIP3   OH240972   4.852   0.884   4.913  0.0868 -0.3421  0.4411
13672TIP3    H140973   4.831   0.799   4.874  0.6513  0.3162 -1.4494
13672TIP3    H240974   4.871   0.940   4.837 -2.1635  2.0094  1.4894
13673TIP3   OH240975   0.565   3.502   4.993  0.4991 -0.3755 -0.2150
13673TIP3    H140976   0.594   3.516   4.903 -0.3328  0.3454 -0.3766
13673TIP3    H240977   0.625   3.556   5.046  1.4620 -1.3723 -0.2492
13674TIP3   OH240978   6.276   7.104   1.060 -0.0240  0.1633 -0.6117
13674TIP3    H140979   6.335   7.154   1.116  1.1740  0.0146 -1.6968
13674TIP3    H240980   6.296   7.013   1.080 -1.5985  0.0661  0.7332
13675TIP3   OH240981   5.757   1.100   6.539  0.2628  0.1821 -0.8299
13675TIP3    H140982   5.697   1.167   6.504  0.1196  0.5262  0.0377
13675TIP3    H240983   5.783   1.049   6.463 -1.9980 -0.6804 -1.0871
13676TIP3   OH240984   6.738   7.006   1.862 -0.2891  0.8841 -0.2179
13676TIP3    H140985   6.758   7.095   1.890  2.0090  0.4824 -0.3338
13676TIP3    H240986   6.677   6.973   1.927  1.6534  1.3819  2.0022
13677TIP3   OH240987   0.883   0.679   1.315  0.0069  0.0630 -0.0919
13677TIP3    H140988   0.974   0.652   1.325 -0.1489 -0.3263  0.3018
13677TIP3    H240989   0.832   0.599   1.329 -0.5468  0.7932  2.8203
13678TIP3   OH240990   3.795   2.297   1.150 -0.1981  0.0434 -0.3559
13678TIP3    H140991   3.750   2.371   1.190 -1.1289 -1.2144  1.0134
13678TIP3    H240992   3.726   2.250   1.102 -0.0048 -0.9462  0.3245
13679TIP3   OH240993   6.285   5.403   0.344  0.0928  0.1327 -0.2478
13679TIP3    H140994   6.370   5.447   0.348 -0.0229  0.3827 -0.4869
13679TIP3    H240995   6.254   5.419   0.255  0.6562 -1.5902 -0.7948
13680TIP3   OH240996   7.339   1.662   2.726  0.0837  0.4512 -0.2597
13680TIP3    H140997   7.263   1.604   2.717  0.6034 -0.1836 -0.6788
13680TIP3    H240998   7.398   1.636   2.655  0.5025  1.2347 -0.2108
13681TIP3   OH240999   2.324   2.672   4.085  0.2793 -0.4572 -0.4914
13681TIP3    H141000   2.303   2.634   4.000  0.2396  0.7648 -1.0513
13681TIP3    H241001   2.251   2.731   4.104  1.5309  1.2992 -0.8913
13682TIP3   OH241002   4.209   6.661   3.043 -0.3823 -0.0834 -0.0055
13682TIP3    H141003   4.237   6.625   2.959  0.7282  2.9397 -1.0974
13682TIP3    H241004   4.291   6.683   3.089 -0.8556  2.7101 -0.3151
13683TIP3   OH241005   6.350   3.612   0.998 -0.1508  0.2525 -0.4847
13683TIP3    H141006   6.340   3.520   1.021 -1.0725  0.1258 -1.3127
13683TIP3    H241007   6.341   3.614   0.902 -1.6241  1.3557 -0.3725
13684TIP3   OH241008   5.395   4.789   1.806 -0.2460  0.0011  0.5188
13684TIP3    H141009   5.299   4.788   1.811 -0.2550  0.2785  0.4218
13684TIP3    H241010   5.420   4.864   1.861 -0.0384 -0.5905  1.2427
13685TIP3   OH241011   7.339   0.032   0.116  0.1569 -0.1628 -0.8139
13685TIP3    H141012   7.346   0.124   0.143  1.5719 -0.3314 -0.5197
13685TIP3    H241013   7.413   0.019   0.057  0.8275 -1.4597  0.2622
13686TIP3   OH241014   8.164   5.970   4.536  0.6548 -1.2285  0.4163
13686TIP3    H141015   8.147   6.061   4.561  0.4016 -1.5488  1.4703
13686TIP3    H241016   8.081   5.940   4.499  0.9244 -0.8547 -0.5193
13687TIP3   OH241017   3.933   3.498   4.042 -0.2565  0.9591 -0.7443
13687TIP3    H141018   3.887   3.565   3.991  0.2029  1.7205 -0.1931
13687TIP3    H241019   4.026   3.519   4.029 -0.1122  0.4630 -0.5151
13688TIP3   OH241020   5.848   2.094   1.493 -0.1713 -0.3946  0.3020
13688TIP3    H141021   5.837   2.125   1.583 -0.3045  0.2697  0.0681
13688TIP3    H241022   5.938   2.117   1.471 -0.7332  1.3562 -0.4110
13689TIP3   OH241023   3.893   5.207   2.886 -0.0077 -0.1473  0.4887
13689TIP3    H141024   3.958   5.244   2.945  0.3410 -0.1047  0.0750
13689TIP3    H241025   3.822   5.178   2.945 -0.3503  1.2647  0.8074
13690TIP3   OH241026   1.743   2.819   5.716  0.6312  0.6926 -0.1462
13690TIP3    H141027   1.818   2.813   5.657  0.0821  1.6354 -0.9715
13690TIP3    H241028   1.667   2.809   5.659  0.1161 -0.6617  0.7354
13691TIP3   OH241029   6.596   4.620   6.280 -0.3548  0.2704 -0.5705
13691TIP3    H141030   6.605   4.597   6.187  2.9860 -0.7644 -0.1433
13691TIP3    H241031   6.593   4.535   6.325 -0.6599  0.7647  0.3672
13692TIP3   OH241032   1.151   1.472   3.205  0.2613 -0.4465 -0.0426
13692TIP3    H141033   1.218   1.539   3.191  0.9301 -0.8928  0.8486
13692TIP3    H241034   1.154   1.418   3.126 -0.8350  0.9899 -1.1257
13693TIP3   OH241035   1.367   3.156   5.084 -0.1963 -0.2836  0.3214
13693TIP3    H141036   1.381   3.166   5.178 -0.0950  1.1418  0.1806
13693TIP3    H241037   1.431   3.216   5.044 -2.6416  1.9560 -0.5201
13694TIP3   OH241038   1.881   2.118   4.590 -0.1901 -0.5000  0.3058
13694TIP3    H141039   1.833   2.184   4.640 -1.9382 -1.6936  0.2631
13694TIP3    H241040   1.966   2.112   4.634 -1.1491 -0.4850  2.2419
13695TIP3   OH241041   3.752   2.413   2.792 -0.0588 -0.4572 -1.0272
13695TIP3    H141042   3.833   2.459   2.816  0.2554 -1.4921 -0.0050
13695TIP3    H241043   3.721   2.459   2.714  0.7234  0.8883 -0.5817
13696TIP3   OH241044   2.037   1.689   0.963  0.0639  0.5622  0.3373
13696TIP3    H141045   2.004   1.749   1.030  0.3118  1.8191 -0.6320
13696TIP3    H241046   2.050   1.607   1.009 -1.6686  0.8264  1.3909
13697TIP3   OH241047   1.949   2.844   4.621  0.6538  0.0830 -0.3348
13697TIP3    H141048   1.862   2.814   4.646  1.1144 -0.3254  0.8563
13697TIP3    H241049   1.976   2.785   4.551 -0.0397  0.2573 -0.7617
13698TIP3   OH241050   3.146   4.044   4.680 -0.5761 -0.7615  0.5187
13698TIP3    H141051   3.131   3.988   4.604 -1.4213  0.2966 -0.1332
13698TIP3    H241052   3.078   4.112   4.673 -1.1213 -1.0254  2.6086
13699TIP3   OH241053   7.912   6.169   3.632  0.6490  0.0471  0.2626
13699TIP3    H141054   7.962   6.097   3.670  1.3724  0.6486  0.4804
13699TIP3    H241055   7.828   6.130   3.608  0.2649 -0.4488  2.1895
13700TIP3   OH241056   0.075   4.748   0.155 -0.4859 -0.2327 -0.1081
13700TIP3    H141057   0.148   4.809   0.165 -0.0463 -0.6672 -0.5916
13700TIP3    H241058  -0.003   4.800   0.173 -0.0228  0.0870  1.0728
13701TIP3   OH241059   5.681   2.686   1.758 -0.3039  0.0378 -0.8889
13701TIP3    H141060   5.590   2.699   1.786 -0.1363  1.5352 -0.9501
13701TIP3    H241061   5.730   2.675   1.839 -0.3295  0.8232 -0.7565
13702TIP3   OH241062   7.267   2.608   5.582  0.1034  0.1963 -0.3386
13702TIP3    H141063   7.357   2.580   5.598  0.2704  1.0332  0.2437
13702TIP3    H241064   7.263   2.698   5.615 -1.1390 -0.0809  0.3351
13703TIP3   OH241065   3.532   4.503   6.432 -0.0299 -0.3428 -0.5250
13703TIP3    H141066   3.619   4.522   6.465 -0.0695  0.2959 -0.7713
13703TIP3    H241067   3.521   4.409   6.445  1.4215 -0.7866 -2.1941
13704TIP3   OH241068   4.801   1.017   0.228  0.5003  0.1389 -0.1420
13704TIP3    H141069   4.852   1.097   0.214  0.6276 -0.2441 -2.1314
13704TIP3    H241070   4.866   0.954   0.259  0.6541  0.4474  0.1758
13705TIP3   OH241071   7.210   4.410   1.424 -0.1426 -0.2469  0.4328
13705TIP3    H141072   7.221   4.502   1.397  2.1541  0.0677  2.0577
13705TIP3    H241073   7.228   4.360   1.345  0.1424  0.7019 -0.1271
13706TIP3   OH241074   6.587   7.580   4.640  0.4383 -0.1052 -0.2510
13706TIP3    H141075   6.625   7.577   4.552  2.0667  0.4464  0.3932
13706TIP3    H241076   6.501   7.621   4.628  0.1139 -1.1504 -1.7337
13707TIP3   OH241077   6.749   6.754   1.021  0.2937 -0.3464  0.0530
13707TIP3    H141078   6.670   6.808   1.020  0.2990 -0.3049 -1.6221
13707TIP3    H241079   6.721   6.670   0.987  0.4234 -1.2586  2.0581
13708TIP3   OH241080   5.817   5.559   4.351  0.2264 -0.2237 -0.4570
13708TIP3    H141081   5.883   5.490   4.353  0.2074 -0.2478 -0.6729
13708TIP3    H241082   5.785   5.564   4.441  0.8332  0.0870 -0.2502
13709TIP3   OH241083   1.447   4.561   4.504 -0.0683 -0.5940 -0.1204
13709TIP3    H141084   1.455   4.627   4.573 -0.4998 -0.2855 -0.3610
13709TIP3    H241085   1.534   4.522   4.497  0.4728  0.6738 -0.7015
13710TIP3   OH241086   4.870   3.645   3.363  0.4010  0.0366 -0.2970
13710TIP3    H141087   4.788   3.606   3.332 -0.7985  0.5991  1.9876
13710TIP3    H241088   4.920   3.572   3.399 -0.0735  0.0118  0.3137
13711TIP3   OH241089   4.746   3.106   2.398  0.0256 -0.5410 -0.3804
13711TIP3    H141090   4.800   3.173   2.356 -1.7519  1.1444 -0.1730
13711TIP3    H241091   4.682   3.083   2.331 -0.2848 -0.9253  0.0434
13712TIP3   OH241092   6.993   2.383   1.909  0.1945  0.7879 -0.1269
13712TIP3    H141093   7.057   2.352   1.844  0.9194 -0.0210  0.9577
13712TIP3    H241094   6.989   2.478   1.894  0.8932  0.7106 -0.8695
13713TIP3   OH241095   5.818   1.268   0.742  0.0407  0.3674 -0.3022
13713TIP3    H141096   5.764   1.339   0.779  1.2507  0.7723  0.7626
13713TIP3    H241097   5.833   1.295   0.651  0.5362  1.5178  0.1076
13714TIP3   OH241098   7.777   6.504   2.359  0.0333 -0.1902 -0.0533
13714TIP3    H141099   7.859   6.506   2.408 -0.3784  0.4017  0.6344
13714TIP3    H241100   7.727   6.578   2.393 -0.6801 -0.3868 -0.6493
13715TIP3   OH241101   6.220   0.919   0.206  0.4787 -0.8127 -0.1731
13715TIP3    H141102   6.194   0.885   0.292 -0.3126 -1.2161 -0.5574
13715TIP3    H241103   6.310   0.950   0.218 -0.7623  2.5658  1.7780
13716TIP3   OH241104   7.464   2.500   6.508  0.6132  0.5955  0.6229
13716TIP3    H141105   7.435   2.422   6.461  1.7152  0.4645  0.1391
13716TIP3    H241106   7.482   2.470   6.597 -1.6608  0.8807  1.2433
13717TIP3   OH241107   1.677   4.471   6.009 -0.2140 -0.0689  0.2266
13717TIP3    H141108   1.624   4.541   5.973 -0.2259  0.2654  0.8758
13717TIP3    H241109   1.765   4.487   5.974  0.1066  1.1233  1.4880
13718TIP3   OH241110   1.027   3.140   1.214  0.1646 -0.1825 -0.3020
13718TIP3    H141111   0.945   3.133   1.166 -0.2283  0.4722  0.2592
13718TIP3    H241112   1.080   3.066   1.182 -0.3469 -0.1724 -1.2101
13719TIP3   OH241113   3.507   6.118   1.069 -0.6600 -0.8466  0.0378
13719TIP3    H141114   3.514   6.025   1.049 -0.0959 -0.5650 -1.1460
13719TIP3    H241115   3.441   6.151   1.007  0.4279 -0.1343 -0.7813
13720TIP3   OH241116   3.566   6.113   6.711 -0.1214 -0.0510 -0.2908
13720TIP3    H141117   3.504   6.082   6.645  0.8516 -1.5877 -0.5308
13720TIP3    H241118   3.515   6.117   6.792 -1.5741  2.7313 -1.2143
13721TIP3   OH241119   1.543   1.283   5.863 -0.0366 -0.3299  0.0788
13721TIP3    H141120   1.591   1.310   5.785 -0.3171 -1.0089 -0.3424
13721TIP3    H241121   1.502   1.364   5.895  1.3834  0.2644  0.4650
13722TIP3   OH241122   1.024   6.376   4.634 -0.2795 -0.4593  0.2008
13722TIP3    H141123   1.104   6.426   4.648 -0.6134  0.9756 -2.4249
13722TIP3    H241124   1.051   6.301   4.581 -0.6480 -0.0722 -0.5371
13723TIP3   OH241125   7.137   0.776   2.252  1.0079 -0.4704 -0.1657
13723TIP3    H141126   7.071   0.756   2.185  0.3239  1.1827 -0.0236
13723TIP3    H241127   7.110   0.724   2.328 -0.2975  0.3756 -0.0223
13724TIP3   OH241128   2.949   7.590   6.706 -0.5152 -0.4647  0.1171
13724TIP3    H141129   2.973   7.663   6.650 -0.5908  0.6049  1.4325
13724TIP3    H241130   2.853   7.585   6.700 -0.9758  2.0308  2.8430
13725TIP3   OH241131   3.975   6.990   2.223 -0.7287 -0.2566  0.4052
13725TIP3    H141132   3.890   6.998   2.267 -1.2386 -0.5468 -0.4907
13725TIP3    H241133   4.032   7.049   2.271 -1.3148 -0.4089  1.3173
13726TIP3   OH241134   4.839   7.470   4.189 -0.6479 -0.0803  0.0677
13726TIP3    H141135   4.791   7.541   4.147  0.9138  1.8697  1.3582
13726TIP3    H241136   4.773   7.419   4.235 -1.7696  0.9252 -0.3874
13727TIP3   OH241137   6.561   6.622   5.216 -0.0387 -0.3756  0.0959
13727TIP3    H141138   6.495   6.640   5.149 -0.4077 -1.3274  0.1923
13727TIP3    H241139   6.562   6.527   5.224  3.1283 -0.6338 -1.6932
13728TIP3   OH241140   2.430   0.325   0.631  0.3555  0.3701  0.0084
13728TIP3    H141141   2.357   0.377   0.598 -0.5148  0.1814  1.5690
13728TIP3    H241142   2.508   0.375   0.607 -0.1405  0.0408 -2.6691
13729TIP3   OH241143   1.794   2.626   3.492 -0.0977 -0.3448  0.4413
13729TIP3    H141144   1.856   2.568   3.448 -0.5561 -0.4692 -0.0579
13729TIP3    H241145   1.765   2.576   3.569 -0.0458 -0.5461  0.3329
13730TIP3   OH241146   4.241   2.784   1.581  0.4992  0.0374 -0.0737
13730TIP3    H141147   4.193   2.865   1.600  2.2474  1.0890  0.0412
13730TIP3    H241148   4.244   2.779   1.486 -0.2417 -0.3070 -0.0885
13731TIP3   OH241149   0.098   6.479   4.101  0.2586 -0.5688  0.5860
13731TIP3    H141150   0.119   6.435   4.183 -0.1516  1.6838  1.9669
13731TIP3    H241151   0.175   6.533   4.082  0.6895 -1.6654 -0.9832
13732TIP3   OH241152   2.521   7.576   4.079  0.2896 -0.0373 -0.1111
13732TIP3    H141153   2.528   7.574   3.984 -0.4036  1.5078 -0.2260
13732TIP3    H241154   2.443   7.524   4.100 -0.7840  1.3316 -0.5767
13733TIP3   OH241155   4.686   0.260   3.847  0.0509  0.2316  0.0869
13733TIP3    H141156   4.762   0.227   3.894  0.2582  1.3851  0.5753
13733TIP3    H241157   4.721   0.319   3.781 -0.3663  0.0178 -0.3401
13734TIP3   OH241158   3.523   1.547   5.864  0.2760  0.1855 -0.2695
13734TIP3    H141159   3.559   1.619   5.811 -1.3344  1.1776 -0.0670
13734TIP3    H241160   3.598   1.515   5.914  0.5948  3.5889  1.7756
13735TIP3   OH241161   6.088   4.678   3.978 -0.8218  0.0036 -0.1324
13735TIP3    H141162   6.133   4.741   3.921 -0.1316  0.4813  0.8878
13735TIP3    H241163   5.998   4.677   3.947 -0.0978 -1.1741 -2.4125
13736TIP3   OH241164   1.593   1.854   4.851  0.1019  0.3842 -0.2627
13736TIP3    H141165   1.625   1.890   4.768 -1.6490  1.5598 -0.4896
13736TIP3    H241166   1.523   1.914   4.878  0.0423 -0.4546  1.6368
13737TIP3   OH241167   7.957   3.046   0.944 -0.8789 -0.5435  0.2706
13737TIP3    H141168   7.963   2.953   0.966  1.4858 -0.3053  0.8571
13737TIP3    H241169   7.919   3.048   0.856  0.8571 -2.1992 -0.5831
13738TIP3   OH241170   8.223   4.499   1.262 -0.3022  0.2938 -0.0183
13738TIP3    H141171   8.190   4.543   1.183  0.8937 -0.1757 -0.8231
13738TIP3    H241172   8.300   4.451   1.231  0.6951  0.7809  1.6133
13739TIP3   OH241173   1.122   5.507   3.636 -0.3093 -0.2613  0.0437
13739TIP3    H141174   1.198   5.530   3.690 -1.3718  0.5394  1.2476
13739TIP3    H241175   1.152   5.520   3.546  1.0065 -0.0335  0.4925
13740TIP3   OH241176   1.808   0.351   1.972 -0.2750 -0.4078 -0.2307
13740TIP3    H141177   1.780   0.427   2.024 -0.1604 -1.8650  2.0642
13740TIP3    H241178   1.900   0.339   1.993 -0.6197 -1.9801  0.5246
13741TIP3   OH241179   7.957   3.014   6.453  0.4714  0.0160 -0.1606
13741TIP3    H141180   7.965   3.040   6.545 -1.9182  1.9545 -0.3913
13741TIP3    H241181   7.958   2.918   6.455  2.0521  0.0060  1.6608
13742TIP3   OH241182   6.849   6.312   1.346  0.8156  0.8860 -0.0421
13742TIP3    H141183   6.851   6.386   1.286 -1.3211 -0.6482 -2.1915
13742TIP3    H241184   6.911   6.249   1.308 -0.4436 -0.0394 -0.6346
13743TIP3   OH241185   4.241   6.779   5.044  0.2576 -0.1799  0.8930
13743TIP3    H141186   4.324   6.825   5.056  0.1964  0.2197 -0.1054
13743TIP3    H241187   4.264   6.695   5.006  0.2987 -0.5960  1.8330
13744TIP3   OH241188   7.002   2.810   2.293 -0.1976 -0.4012  0.5532
13744TIP3    H141189   6.933   2.791   2.357 -1.5746  1.2939 -0.3524
13744TIP3    H241190   6.956   2.848   2.218  1.4214 -1.7402 -1.2515
13745TIP3   OH241191   6.712   1.319   4.296  0.7517 -0.0542 -0.2428
13745TIP3    H141192   6.680   1.382   4.360 -0.9774  0.4367 -1.5190
13745TIP3    H241193   6.662   1.239   4.314  1.5089 -0.4684  0.0914
13746TIP3   OH241194   0.385   2.442   6.159  0.3132 -0.2501 -0.0829
13746TIP3    H141195   0.382   2.483   6.246  0.7202 -0.5958  0.1001
13746TIP3    H241196   0.316   2.376   6.161 -1.7099  1.7208 -1.0724
13747TIP3   OH241197   7.143   0.805   4.389  0.1532  0.0842 -0.0395
13747TIP3    H141198   7.085   0.796   4.466  0.9999  0.3694  0.6495
13747TIP3    H241199   7.151   0.716   4.355 -0.6197  0.0265 -0.0996
13748TIP3   OH241200   2.531   6.665   0.727 -0.9102 -0.0451  0.1359
13748TIP3    H141201   2.590   6.704   0.791 -0.3951 -0.3215 -0.1554
13748TIP3    H241202   2.517   6.734   0.662  1.6340 -0.8768 -1.4792
13749TIP3   OH241203   7.184   3.960   1.878 -0.0326  0.3290  0.0873
13749TIP3    H141204   7.099   3.917   1.889  0.0239  0.4911  1.3163
13749TIP3    H241205   7.236   3.897   1.827 -1.0058  0.4202 -1.0679
13750TIP3   OH241206   1.972   1.743   2.892 -0.0086 -0.1899  0.1738
13750TIP3    H141207   2.059   1.776   2.869 -0.9330  2.1013 -0.3720
13750TIP3    H241208   1.983   1.649   2.901  2.4282 -0.0110 -0.3068
13751TIP3   OH241209   6.666   0.680   1.144 -0.4573  0.4227 -0.4270
13751TIP3    H141210   6.748   0.657   1.100 -0.7872 -0.4856 -0.5851
13751TIP3    H241211   6.599   0.628   1.099 -1.2826  1.8474 -0.9337
13752TIP3   OH241212   5.548   5.011   1.415 -0.0584  0.0110 -0.8478
13752TIP3    H141213   5.549   5.003   1.511  1.6504 -1.4606 -0.9471
13752TIP3    H241214   5.488   4.943   1.386  0.0404 -0.0703 -0.8610
13753TIP3   OH241215   4.829   1.720   1.963 -0.2183  0.3398  0.1000
13753TIP3    H141216   4.885   1.643   1.974 -0.4847  0.2276  0.7088
13753TIP3    H241217   4.742   1.691   1.990 -0.9279  0.0889 -2.2453
13754TIP3   OH241218   4.765   7.062   3.289 -0.2174 -0.3627 -0.3837
13754TIP3    H141219   4.768   7.156   3.271  1.8002 -0.1263  0.8905
13754TIP3    H241220   4.856   7.033   3.280 -0.6727 -2.0377  0.0729
13755TIP3   OH241221   2.561   1.325   0.740  0.0393  0.6805  0.2295
13755TIP3    H141222   2.590   1.321   0.831  1.9187  0.9846 -0.3172
13755TIP3    H241223   2.474   1.365   0.744  0.0831  0.6813  1.8749
13756TIP3   OH241224   0.373   4.888   3.844 -0.4561  0.3777 -0.3091
13756TIP3    H141225   0.281   4.910   3.828 -0.5179 -0.6755 -1.5822
13756TIP3    H241226   0.417   4.972   3.849 -1.4059  0.8866 -0.2259
13757TIP3   OH241227   7.494   3.448   1.783 -0.4465 -0.4066  0.0008
13757TIP3    H141228   7.560   3.512   1.758  0.6608 -0.5362  2.3676
13757TIP3    H241229   7.527   3.365   1.751 -1.6432  0.0268 -2.6303
13758TIP3   OH241230   1.032   2.978   5.276  0.4280 -0.0735 -0.4405
13758TIP3    H141231   1.062   2.988   5.186  2.2033  1.9062  0.3015
13758TIP3    H241232   0.987   3.060   5.296  0.8890 -0.0926  0.7718
13759TIP3   OH241233   4.302   2.443   4.828 -0.2283  0.1236  0.4036
13759TIP3    H141234   4.338   2.529   4.805 -0.2307  0.1917  0.6535
13759TIP3    H241235   4.342   2.421   4.912  1.0668 -0.8766 -0.4308
13760TIP3   OH241236   4.722   4.743   2.685  0.4746 -0.2477  0.1109
13760TIP3    H141237   4.678   4.822   2.717  1.8680  0.8534 -0.5705
13760TIP3    H241238   4.777   4.774   2.613  1.3740 -1.7874  0.0922
13761TIP3   OH241239   7.308   3.849   1.102 -0.6158 -0.4356  0.4988
13761TIP3    H141240   7.281   3.800   1.025 -1.3839  0.8446 -0.0808
13761TIP3    H241241   7.225   3.879   1.142 -0.1817  1.8992 -0.2000
13762TIP3   OH241242   1.099   2.213   2.715  0.2908 -0.1428 -0.8365
13762TIP3    H141243   1.111   2.250   2.627  2.4474 -1.1996 -1.0586
13762TIP3    H241244   1.166   2.256   2.768  0.0926 -0.7004 -0.1203
13763TIP3   OH241245   6.006   7.212   4.379 -0.2230 -0.1248 -0.2095
13763TIP3    H141246   5.936   7.218   4.315 -0.1242 -0.6860 -0.3734
13763TIP3    H241247   5.970   7.253   4.458 -0.7603 -0.4750 -0.2680
13764TIP3   OH241248   3.932   6.992   0.722  0.5032  0.1019  0.0613
13764TIP3    H141249   3.875   7.044   0.778 -0.2821  0.2141 -0.8161
13764TIP3    H241250   4.019   7.003   0.760  0.2384  1.4627  0.3278
13765TIP3   OH241251   3.429   7.121   2.492 -0.8055  0.1354  0.6897
13765TIP3    H141252   3.350   7.123   2.437  1.1778 -0.2246 -2.4652
13765TIP3    H241253   3.425   7.036   2.536 -1.4592 -0.5355 -0.6032
13766TIP3   OH241254   6.224   0.476   4.983  0.2928  0.2580 -0.4248
13766TIP3    H141255   6.184   0.548   5.032 -1.3083 -0.5720 -0.4707
13766TIP3    H241256   6.277   0.429   5.047 -0.0586  0.4457  0.0051
13767TIP3   OH241257   1.604   3.252   1.584 -0.1185  0.3138  0.7665
13767TIP3    H141258   1.646   3.325   1.629  0.2261  0.3313  0.4128
13767TIP3    H241259   1.646   3.174   1.621  0.2024  0.3301  0.4356
13768TIP3   OH241260   4.452   4.483   1.033 -0.0660  0.0026 -0.1716
13768TIP3    H141261   4.480   4.424   0.962 -0.7772  0.0834 -0.5301
13768TIP3    H241262   4.397   4.547   0.989  2.6995  2.5219 -0.2759
13769TIP3   OH241263   3.489   4.944   5.003  0.2997  0.2289  0.3535
13769TIP3    H141264   3.579   4.978   4.997  0.1147  0.9128  1.2803
13769TIP3    H241265   3.463   4.932   4.911  1.3258  0.0309  0.0687
13770TIP3   OH241266   5.685   6.860   5.358  0.2829  0.2086  0.5408
13770TIP3    H141267   5.627   6.823   5.424  1.9853 -1.8977  0.9851
13770TIP3    H241268   5.697   6.952   5.384 -2.1062  0.4725  0.8711
13771TIP3   OH241269   5.110   3.598   5.722  0.5072  0.2210  0.0288
13771TIP3    H141270   5.194   3.632   5.691 -1.2130  3.8373 -1.1896
13771TIP3    H241271   5.089   3.652   5.798 -0.0632 -1.7194  1.3300
13772TIP3   OH241272   1.251   0.896   6.535  0.2914 -0.1804 -0.1985
13772TIP3    H141273   1.309   0.861   6.603 -0.6821 -0.0650  0.7285
13772TIP3    H241274   1.310   0.935   6.471  1.3336 -1.8774 -0.3495
13773TIP3   OH241275   1.162   1.040   4.808 -0.0169  0.3554  0.9033
13773TIP3    H141276   1.198   1.126   4.784  2.7805 -0.6928  0.9918
13773TIP3    H241277   1.071   1.043   4.779  0.6913  2.4378 -1.4216
13774TIP3   OH241278   1.796   5.412   5.882 -0.2934  0.5891  0.1824
13774TIP3    H141279   1.720   5.405   5.941 -0.8936  1.0383 -0.5204
13774TIP3    H241280   1.871   5.394   5.938 -0.9648 -0.5184  0.7487
13775TIP3   OH241281   3.439   1.101   3.650  0.7433 -0.6178 -0.3383
13775TIP3    H141282   3.421   1.094   3.556 -1.4019 -1.6511  0.1016
13775TIP3    H241283   3.485   1.020   3.671 -0.1911 -1.1425 -0.2391
13776TIP3   OH241284   7.468   4.243   2.241  0.2362 -0.1280 -0.5586
13776TIP3    H141285   7.405   4.183   2.202  1.1222 -0.5818 -1.3228
13776TIP3    H241286   7.553   4.200   2.230  0.7295  0.6330  0.1244
13777TIP3   OH241287   4.267   6.090   0.191  0.4070  0.4601  0.0687
13777TIP3    H141288   4.229   6.015   0.236 -0.1991  0.3056 -0.6739
13777TIP3    H241289   4.195   6.127   0.140  1.0928  0.5424 -0.8855
13778TIP3   OH241290   5.177   4.922   2.188 -0.2477 -0.0932 -0.5937
13778TIP3    H141291   5.143   4.995   2.240 -3.4900 -0.6333 -1.7403
13778TIP3    H241292   5.142   4.844   2.231  1.2300 -0.8916 -0.7604
13779TIP3   OH241293   6.070   5.388   3.198  0.6360  0.6130  0.3537
13779TIP3    H141294   6.086   5.481   3.213 -1.1588  0.8478  1.1963
13779TIP3    H241295   6.037   5.383   3.108  1.4202  0.6843  0.0594
13780TIP3   OH241296   2.891   4.157   1.171  0.2793  0.3562 -0.0788
13780TIP3    H141297   2.844   4.237   1.148  0.7430  0.7030  0.1372
13780TIP3    H241298   2.826   4.087   1.165 -0.3992  0.8912  0.7282
13781TIP3   OH241299   5.244   7.852   5.048 -0.5152  0.1283  0.1907
13781TIP3    H141300   5.236   7.823   5.139  0.4002  1.1515  0.6272
13781TIP3    H241301   5.281   7.778   5.001 -2.4616 -0.9714  0.2946
13782TIP3   OH241302   3.136   1.611   4.696 -0.4892  0.1006 -0.1275
13782TIP3    H141303   3.160   1.605   4.789 -2.7125  1.5492  0.6175
13782TIP3    H241304   3.136   1.705   4.678 -1.8568 -0.0611 -1.0630
13783TIP3   OH241305   0.565   2.712   2.204  0.5123 -0.2473  0.0916
13783TIP3    H141306   0.547   2.724   2.110 -2.3197  0.0039  0.5868
13783TIP3    H241307   0.538   2.622   2.222  0.2747 -0.0285  0.8309
13784TIP3   OH241308   3.052   5.132   0.420  0.3496 -0.0517  0.4742
13784TIP3    H141309   3.017   5.147   0.507 -0.2456  1.9360 -0.0403
13784TIP3    H241310   3.136   5.178   0.420  0.2637  0.1146 -0.0380
13785TIP3   OH241311   1.886   6.327   0.691 -0.0695  0.0957 -0.6541
13785TIP3    H141312   1.960   6.293   0.741 -0.0425 -0.6778 -1.2092
13785TIP3    H241313   1.923   6.399   0.640 -0.0268  0.6747  0.1744
13786TIP3   OH241314   7.536   5.381   1.841 -0.8179 -0.2143  0.3420
13786TIP3    H141315   7.447   5.349   1.825 -1.1128  0.6373  0.1985
13786TIP3    H241316   7.553   5.443   1.770  0.1348 -0.8272  0.0223
13787TIP3   OH241317   1.101   3.767   5.957 -0.0936  0.1248  0.3971
13787TIP3    H141318   1.076   3.853   5.925  0.7164  0.6707  1.1857
13787TIP3    H241319   1.148   3.784   6.039  0.3128 -1.0446  0.4327
13788TIP3   OH241320   5.475   7.070   0.214 -0.8026 -0.4924  0.1360
13788TIP3    H141321   5.498   7.001   0.151 -1.8378 -1.0353  0.3318
13788TIP3    H241322   5.505   7.151   0.173 -0.4616 -0.9584 -0.5523
13789TIP3   OH241323   5.753   4.260   2.440  0.3445 -0.0028 -0.2950
13789TIP3    H141324   5.749   4.356   2.444 -1.7998 -0.0691  0.5345
13789TIP3    H241325   5.749   4.233   2.532 -2.1730 -0.9034 -0.5990
13790TIP3   OH241326   3.375   3.008   5.134 -0.0405  0.4596  0.5780
13790TIP3    H141327   3.321   3.087   5.134 -0.1413  0.4057  1.3236
13790TIP3    H241328   3.413   3.006   5.222 -0.7929 -0.8120  0.9072
13791TIP3   OH241329   2.046   1.780   5.457  0.1051 -0.1702 -0.3286
13791TIP3    H141330   2.040   1.873   5.477 -0.1015 -0.4993  1.3327
13791TIP3    H241331   2.046   1.775   5.362  1.7884  1.6249 -0.4929
13792TIP3   OH241332   1.293   4.621   5.341  0.0203 -0.2485 -0.3503
13792TIP3    H141333   1.375   4.668   5.355  0.4253 -0.7166 -1.0595
13792TIP3    H241334   1.315   4.553   5.278 -0.5037 -1.5343  0.8082
13793TIP3   OH241335   3.435   3.439   4.772 -0.1948  0.6199  0.6702
13793TIP3    H141336   3.473   3.390   4.699 -0.2980  1.5794 -0.0519
13793TIP3    H241337   3.482   3.523   4.771 -1.3791  1.2977  0.6193
13794TIP3   OH241338   2.082   6.792   5.330  0.5400 -0.0022  0.3382
13794TIP3    H141339   2.006   6.816   5.277  0.2898  0.1862  0.7796
13794TIP3    H241340   2.106   6.704   5.299  2.5753  1.3989 -2.5601
13795TIP3   OH241341   4.010   1.400   1.963  0.0603  0.3393 -0.0374
13795TIP3    H141342   3.957   1.433   2.036  2.3401  0.7826  1.5257
13795TIP3    H241343   3.994   1.305   1.963 -0.4718  0.4180  0.5779
13796TIP3   OH241344   3.312   3.674   5.445 -0.2472  0.4366 -0.2956
13796TIP3    H141345   3.238   3.708   5.394  0.7898  0.1004 -2.1378
13796TIP3    H241346   3.372   3.749   5.452 -0.8672  0.8118  1.5012
13797TIP3   OH241347   5.128   7.601   5.733  0.0441  0.3903 -0.1807
13797TIP3    H141348   5.150   7.639   5.818  0.7015  0.0810 -0.2080
13797TIP3    H241349   5.138   7.673   5.671  2.9975 -0.1675 -0.4934
13798TIP3   OH241350   2.479   1.593   1.069 -0.0761 -0.1238 -0.5452
13798TIP3    H141351   2.415   1.567   1.136 -0.2898  2.1232  0.1958
13798TIP3    H241352   2.556   1.538   1.088 -0.1433  0.4046  1.5567
13799TIP3   OH241353   0.230   6.601   4.832  0.0342 -0.1327 -0.3124
13799TIP3    H141354   0.270   6.634   4.913 -1.1676  1.2689 -0.2475
13799TIP3    H241355   0.136   6.617   4.843 -0.2541 -0.8015 -1.5944
13800TIP3   OH241356   0.637   4.883   2.644 -0.0405  0.3056  0.6708
13800TIP3    H141357   0.686   4.911   2.721  2.4226 -1.2441 -0.2378
13800TIP3    H241358   0.607   4.965   2.604  3.3934  1.5322  0.3096
13801TIP3   OH241359   7.666   7.736   5.537  0.0252 -0.2089 -0.6759
13801TIP3    H141360   7.582   7.749   5.493 -0.6516 -0.3556  0.5273
13801TIP3    H241361   7.643   7.698   5.622  0.9791  2.9569  1.1676
13802TIP3   OH241362   5.737   0.731   6.218 -0.8561  0.1205  0.0538
13802TIP3    H141363   5.822   0.687   6.222 -1.5856 -1.3198  3.2107
13802TIP3    H241364   5.750   0.813   6.265 -1.2111 -0.1660  0.6667
13803TIP3   OH241365   4.139   2.805   4.518 -0.1514  0.1829 -0.2769
13803TIP3    H141366   4.125   2.713   4.542 -2.2668 -0.0987 -2.3260
13803TIP3    H241367   4.106   2.854   4.593 -1.1210 -0.6983 -0.1054
13804TIP3   OH241368   6.071   0.584   6.674 -0.0145 -0.2828  0.0179
13804TIP3    H141369   5.983   0.608   6.705  0.3584  2.1247 -0.6314
13804TIP3    H241370   6.116   0.553   6.752 -0.1559  2.4704  1.3162
13805TIP3   OH241371   1.433   4.695   6.277 -0.4407  0.0120  0.0402
13805TIP3    H141372   1.404   4.722   6.190 -0.0052  0.1032 -0.0793
13805TIP3    H241373   1.493   4.622   6.260  0.2818  0.5517  0.2063
13806TIP3   OH241374   1.644   5.239   4.499 -0.2626  0.1722  0.0102
13806TIP3    H141375   1.670   5.149   4.481 -1.6397  0.2423 -2.9817
13806TIP3    H241376   1.719   5.277   4.544 -0.0698 -2.6864  2.4318
13807TIP3   OH241377   0.602   2.016   5.565 -0.5203  0.0809  0.0774
13807TIP3    H141378   0.693   2.040   5.547 -0.3549 -0.1968  0.5394
13807TIP3    H241379   0.594   2.023   5.661 -1.2390  1.0213 -0.0277
13808TIP3   OH241380   7.483   3.328   5.854 -0.6338  0.2685 -0.1073
13808TIP3    H141381   7.556   3.298   5.799 -0.7582  1.7982 -1.1846
13808TIP3    H241382   7.523   3.347   5.938 -0.1473 -0.6725 -0.1131
13809TIP3   OH241383   3.961   4.860   4.537  0.1443 -0.1343  0.1224
13809TIP3    H141384   3.880   4.857   4.589  0.3922  1.5610  0.6668
13809TIP3    H241385   3.967   4.773   4.498 -1.3422 -0.6708  0.9829
13810TIP3   OH241386   5.706   4.532   4.970  0.1505 -0.6006 -0.1119
13810TIP3    H141387   5.713   4.530   5.066 -2.5514 -1.4898  0.1509
13810TIP3    H241388   5.770   4.467   4.941  0.6425 -0.6990  1.1125
13811TIP3   OH241389   7.669   5.714   1.699 -0.3090 -0.1044  0.4797
13811TIP3    H141390   7.632   5.788   1.748  0.6955 -0.6245  2.0937
13811TIP3    H241391   7.654   5.736   1.607 -1.3874  1.3788  0.9804
13812TIP3   OH241392   1.800   6.307   2.723  0.0296 -0.4648 -0.3969
13812TIP3    H141393   1.758   6.256   2.793 -0.2905  0.0117 -0.2323
13812TIP3    H241394   1.894   6.301   2.742 -0.0789  0.0144  0.3318
13813TIP3   OH241395   7.940   4.443   0.534  0.0814 -0.2197  0.2353
13813TIP3    H141396   7.996   4.368   0.516 -1.2596 -0.6375 -2.7904
13813TIP3    H241397   7.987   4.517   0.495 -0.5600 -0.2595 -0.6420
13814TIP3   OH241398   1.072   1.589   6.159  0.2813  0.1037  0.0949
13814TIP3    H141399   1.108   1.676   6.178  1.6974 -0.1459 -1.3098
13814TIP3    H241400   1.142   1.542   6.116 -0.2740 -1.9774  1.3089
13815TIP3   OH241401   7.606   3.737   4.277 -0.0189 -0.2297  0.0272
13815TIP3    H141402   7.646   3.802   4.219  0.2783 -0.8545 -0.4753
13815TIP3    H241403   7.674   3.717   4.341 -0.6435  1.1429  1.1994
13816TIP3   OH241404   4.607   5.991   5.477  0.0909  0.1682 -0.0130
13816TIP3    H141405   4.624   6.005   5.384 -0.8766 -0.2911 -0.2695
13816TIP3    H241406   4.627   5.899   5.492  0.6274  0.3365  0.3261
13817TIP3   OH241407   4.008   1.166   6.221 -0.0271  0.3459 -0.1757
13817TIP3    H141408   3.992   1.083   6.175  1.9027 -0.2705  0.1470
13817TIP3    H241409   4.078   1.207   6.170  1.4826  0.0953  1.6145
13818TIP3   OH241410   3.500   4.868   0.466 -0.5416 -0.0849 -0.4816
13818TIP3    H141411   3.411   4.833   0.460 -1.2800  1.4573  0.6967
13818TIP3    H241412   3.515   4.880   0.560  1.1959 -0.9362 -0.6097
13819TIP3   OH241413   7.277   3.338   0.694 -0.5886  0.0441 -0.2019
13819TIP3    H141414   7.262   3.431   0.682  0.0380  0.0450 -1.0720
13819TIP3    H241415   7.261   3.300   0.608  1.3397 -0.3403 -0.4298
13820TIP3   OH241416   1.926   0.483   0.591  0.4805 -0.0578  0.0621
13820TIP3    H141417   1.921   0.448   0.680 -0.2526 -0.3551 -0.0938
13820TIP3    H241418   1.854   0.441   0.544  0.4998  0.5445 -0.5214
13821TIP3   OH241419   6.406   4.406   4.470 -0.6747 -0.0027 -0.1469
13821TIP3    H141420   6.379   4.497   4.456  0.0733 -0.0188 -2.0006
13821TIP3    H241421   6.500   4.412   4.484 -0.6863 -0.4596  0.1166
13822TIP3   OH241422   6.395   4.899   0.609 -0.8263  0.0892 -0.1084
13822TIP3    H141423   6.381   4.962   0.680 -1.6549  2.0637 -1.9214
13822TIP3    H241424   6.341   4.824   0.632 -0.0536  0.1046  1.9731
13823TIP3   OH241425   4.880   6.902   0.810 -0.1164 -0.3886  0.2422
13823TIP3    H141426   4.825   6.828   0.781 -1.1499  0.2820  0.4489
13823TIP3    H241427   4.919   6.935   0.729 -0.4584 -0.5183  0.0218
13824TIP3   OH241428   6.589   5.150   2.290 -0.4387 -0.6682  0.4759
13824TIP3    H141429   6.635   5.072   2.319  0.9596 -0.3224 -0.6919
13824TIP3    H241430   6.585   5.206   2.368  0.3448 -1.0863  0.8217
13825TIP3   OH241431   8.046   2.927   0.283  0.0055 -0.2859  0.3108
13825TIP3    H141432   8.053   2.943   0.189  0.6008 -0.8292  0.2532
13825TIP3    H241433   8.137   2.921   0.313 -0.1825  0.1848  0.9725
13826TIP3   OH241434   5.011   1.643   4.962 -0.1622  0.7524  0.1552
13826TIP3    H141435   5.106   1.646   4.955  0.0860  0.7636  2.6542
13826TIP3    H241436   4.980   1.645   4.871  2.2435 -0.7728 -0.8033
13827TIP3   OH241437   4.469   2.691   2.738  0.0209  0.1815  0.1586
13827TIP3    H141438   4.513   2.776   2.731 -0.2168  0.6819  3.3175
13827TIP3    H241439   4.442   2.686   2.829 -0.6125 -3.0097 -0.1054
13828TIP3   OH241440   2.781   5.515   3.990  0.5614 -0.3210 -0.0647
13828TIP3    H141441   2.750   5.450   4.052  1.3335  0.1688  0.8686
13828TIP3    H241442   2.863   5.479   3.956  1.0981  0.2354  0.6093
13829TIP3   OH241443   7.108   3.565   1.375  0.3694 -0.2551 -0.0416
13829TIP3    H141444   7.152   3.554   1.291  1.4988  2.5005  0.0505
13829TIP3    H241445   7.020   3.595   1.353  0.4474 -0.1868 -0.2587
13830TIP3   OH241446   6.057   2.950   2.498 -0.2645 -0.0109 -0.3152
13830TIP3    H141447   6.119   2.947   2.424 -1.5253 -2.1676 -1.3642
13830TIP3    H241448   5.973   2.972   2.458 -0.3968  2.2450  1.0127
13831TIP3   OH241449   4.818   5.519   0.286 -0.3270  0.0653 -0.7919
13831TIP3    H141450   4.774   5.598   0.255 -1.1771 -0.4851 -1.0032
13831TIP3    H241451   4.851   5.542   0.373 -1.7994  0.2094 -0.2560
13832TIP3   OH241452   7.073   7.206   6.334 -0.6711 -0.3373 -0.5625
13832TIP3    H141453   7.081   7.166   6.420  0.5763 -2.1720 -1.4491
13832TIP3    H241454   7.084   7.300   6.350  0.2930 -0.6984  1.1919
13833TIP3   OH241455   8.129   3.545   2.859  0.5158 -0.2201 -0.3928
13833TIP3    H141456   8.204   3.542   2.918  1.0632 -0.3248 -1.0866
13833TIP3    H241457   8.093   3.457   2.861 -0.6677  0.2483  1.2875
13834TIP3   OH241458   8.076   4.427   1.966 -0.2527  0.2733  0.1490
13834TIP3    H141459   8.099   4.450   1.876 -0.2857  0.2597  0.1373
13834TIP3    H241460   8.001   4.483   1.987 -2.0443 -1.6425 -0.7699
13835TIP3   OH241461   6.987   0.183   3.841 -0.4795 -0.1834  0.6154
13835TIP3    H141462   7.035   0.151   3.765 -0.7253 -2.8667  1.4829
13835TIP3    H241463   7.053   0.230   3.894  0.3758 -0.8587  0.1663
13836TIP3   OH241464   0.456   0.742   2.409 -0.3828  0.3658  0.0023
13836TIP3    H141465   0.514   0.816   2.425 -0.1484  0.0730  0.5398
13836TIP3    H241466   0.514   0.671   2.383 -0.4683  0.0202  0.7201
13837TIP3   OH241467   2.010   1.735   2.007  0.1498  0.1785  0.5845
13837TIP3    H141468   2.008   1.671   2.078  1.9408 -1.1599 -0.4868
13837TIP3    H241469   1.996   1.684   1.927  1.1880  1.1647 -0.2690
13838TIP3   OH241470   5.349   2.569   5.762 -0.3751  0.2795 -0.7306
13838TIP3    H141471   5.273   2.614   5.799 -0.7302  0.4697 -1.6739
13838TIP3    H241472   5.323   2.546   5.673  0.8113  0.7040 -1.2043
13839TIP3   OH241473   0.253   0.814   4.200 -0.0116 -0.1855 -0.0959
13839TIP3    H141474   0.279   0.831   4.109  0.0127  3.0280  0.3909
13839TIP3    H241475   0.328   0.770   4.239  0.6838 -0.0073 -1.1889
13840TIP3   OH241476   6.970   3.123   6.436 -0.0622  0.1355 -0.0837
13840TIP3    H141477   6.932   3.144   6.350 -1.3729 -1.3709  0.0807
13840TIP3    H241478   6.895   3.097   6.489  0.7474  0.9499  1.5174
13841TIP3   OH241479   5.737   6.468   5.512  0.0344  0.0713 -0.5185
13841TIP3    H141480   5.653   6.514   5.521 -0.5858 -0.8522 -1.4055
13841TIP3    H241481   5.759   6.441   5.601  0.6864  2.4783  0.1389
13842TIP3   OH241482   5.187   4.657   0.380 -0.1712  0.1101  0.0618
13842TIP3    H141483   5.176   4.562   0.373 -0.2514  0.1956 -1.3674
13842TIP3    H241484   5.124   4.692   0.317  0.2514  1.0832  0.1755
13843TIP3   OH241485   6.885   6.887   0.756 -0.0545  0.1749 -0.5231
13843TIP3    H141486   6.825   6.961   0.749 -1.3991 -0.5851  1.7997
13843TIP3    H241487   6.936   6.904   0.836 -0.1190 -1.1976 -0.1621
13844TIP3   OH241488   8.317   2.339   5.330 -0.4758  0.1736 -0.1809
13844TIP3    H141489   8.227   2.370   5.327 -0.0966  1.5945  1.2932
13844TIP3    H241490   8.316   2.267   5.393 -0.5621  0.3385  0.0097
13845TIP3   OH241491   5.772   4.677   2.857 -0.1361 -0.3618  0.1801
13845TIP3    H141492   5.848   4.657   2.912 -0.3554  2.7246  1.8073
13845TIP3    H241493   5.808   4.731   2.786 -0.4217 -1.2336 -0.6441
13846TIP3   OH241494   5.318   0.122   4.026  0.0210  0.2783  0.7162
13846TIP3    H141495   5.274   0.084   3.949  1.2108 -0.6707  0.4727
13846TIP3    H241496   5.261   0.099   4.099  0.8002 -2.2817  0.6155
13847TIP3   OH241497   3.245   3.980   3.912 -0.5360  0.1386 -0.4763
13847TIP3    H141498   3.255   3.959   4.005  1.2202 -0.0306 -0.6576
13847TIP3    H241499   3.191   3.910   3.877 -0.3766 -0.3530  0.2398
13848TIP3   OH241500   7.615   0.091   2.157  0.2185 -0.5590 -0.4585
13848TIP3    H141501   7.539   0.146   2.178  0.4974 -0.6629  0.8794
13848TIP3    H241502   7.578   0.018   2.108 -0.7810 -1.3175  1.3231
13849TIP3   OH241503   7.730   2.097   0.411  0.0162 -0.5936  0.3646
13849TIP3    H141504   7.780   2.122   0.333 -1.0949  0.5708 -0.0106
13849TIP3    H241505   7.762   2.009   0.433 -0.2002 -1.2839 -1.8686
13850TIP3   OH241506   2.587   2.479   4.799  0.4016 -0.5446 -0.2248
13850TIP3    H141507   2.637   2.456   4.721  0.1386 -0.1221 -0.5222
13850TIP3    H241508   2.540   2.398   4.822 -1.4943 -0.0323 -1.9986
13851TIP3   OH241509   2.076   3.067   1.976 -0.1188  0.0449  0.3513
13851TIP3    H141510   2.171   3.061   1.966 -0.1195 -2.7436  1.0895
13851TIP3    H241511   2.041   3.028   1.896 -0.6528  0.4768  0.3654
13852TIP3   OH241512   2.060   1.136   5.143 -0.2745  0.2771  0.3084
13852TIP3    H141513   1.994   1.087   5.192  0.2467 -0.2239  0.5281
13852TIP3    H241514   2.103   1.070   5.089  1.7781  0.0656  2.0576
13853TIP3   OH241515   0.199   6.881   5.998 -0.5357 -0.1740 -0.4032
13853TIP3    H141516   0.183   6.810   5.936 -3.7912 -2.0847  2.2335
13853TIP3    H241517   0.131   6.946   5.978 -0.9232 -0.3110  0.4260
13854TIP3   OH241518   5.274   2.178   5.086  0.6977  0.0591 -0.3994
13854TIP3    H141519   5.257   2.196   5.178  0.2581  0.0051 -0.4679
13854TIP3    H241520   5.201   2.122   5.058  0.6552  0.3313 -0.8589
13855TIP3   OH241521   7.159   5.944   1.072  0.2227  0.2114  0.2608
13855TIP3    H141522   7.240   5.939   1.022 -2.1937  0.1634 -4.1248
13855TIP3    H241523   7.112   5.864   1.048 -1.2218  0.2523  2.6579
13856TIP3   OH241524   4.654   1.515   5.149  0.5425 -0.0026  0.6584
13856TIP3    H141525   4.688   1.454   5.215  0.5029  0.2710  0.9358
13856TIP3    H241526   4.567   1.483   5.129  2.4121 -3.4915 -3.4464
13857TIP3   OH241527   3.945   2.954   4.328  0.2128 -0.2781  0.0295
13857TIP3    H141528   3.990   3.036   4.313  1.4963 -1.0102 -0.2339
13857TIP3    H241529   3.943   2.910   4.243  1.9684 -1.6894  0.6568
13858TIP3   OH241530   1.300   5.347   4.422  0.7310  0.2389 -0.3431
13858TIP3    H141531   1.249   5.399   4.484 -1.5342 -2.3337  0.0984
13858TIP3    H241532   1.379   5.400   4.407 -1.1991  3.6157  0.2697
13859TIP3   OH241533   1.990   1.066   4.882 -0.0221  0.3090  0.7192
13859TIP3    H141534   1.937   1.094   4.956 -2.1318 -0.9587 -0.2286
13859TIP3    H241535   1.940   1.093   4.805  0.2066 -1.7211 -0.2176
13860TIP3   OH241536   5.410   5.711   2.008 -0.5725 -0.3096  0.3631
13860TIP3    H141537   5.404   5.773   1.934  0.0671  0.0137  0.5738
13860TIP3    H241538   5.470   5.644   1.978  1.0620  0.7231  1.1949
13861TIP3   OH241539   5.436   5.054   4.665 -0.0048 -0.3181  0.3040
13861TIP3    H141540   5.416   5.041   4.572  0.1679  2.5439 -0.2399
13861TIP3    H241541   5.532   5.056   4.669  0.0155 -1.5321  0.7640
13862TIP3   OH241542   2.820   1.302   3.929  0.7601 -0.0202 -0.0524
13862TIP3    H141543   2.902   1.349   3.914  0.9765 -0.7960 -1.4341
13862TIP3    H241544   2.846   1.211   3.941  0.0594 -0.4765 -1.6694
13863TIP3   OH241545   4.911   7.724   6.004  0.2308  0.1412 -0.4439
13863TIP3    H141546   4.912   7.804   6.057  1.0749 -0.2891  0.2118
13863TIP3    H241547   5.002   7.693   6.005 -0.3645 -1.7242  0.7062
13864TIP3   OH241548   1.138   0.540   4.523  0.1824  0.0054  0.0880
13864TIP3    H141549   1.089   0.622   4.513 -1.1346 -0.6264  0.9808
13864TIP3    H241550   1.087   0.489   4.586  2.3323 -0.4982  1.5197
13865TIP3   OH241551   0.231   4.086   2.882 -0.0912 -0.2406  0.1328
13865TIP3    H141552   0.194   4.017   2.826 -0.3276  0.2149 -0.2780
13865TIP3    H241553   0.162   4.152   2.888  0.5099  0.4460 -0.3325
13866TIP3   OH241554   4.474   7.644   5.176  0.4842  0.3978 -0.3265
13866TIP3    H141555   4.456   7.639   5.270 -0.6313 -0.0953 -0.5486
13866TIP3    H241556   4.452   7.557   5.142 -2.1286  1.3779 -1.5043
13867TIP3   OH241557   6.849   0.343   3.270  0.0462  0.0050  0.1139
13867TIP3    H141558   6.936   0.360   3.235  0.3140  0.0752  0.8158
13867TIP3    H241559   6.852   0.252   3.299 -0.6265 -0.5257 -1.3602
13868TIP3   OH241560   2.457   7.403   1.501 -0.0270  0.7122  0.1149
13868TIP3    H141561   2.473   7.495   1.478  0.1784  0.6279 -0.0885
13868TIP3    H241562   2.539   7.374   1.543 -0.2471  0.7438  0.5731
13869TIP3   OH241563   6.718   6.235   1.563 -0.6890 -0.4043  0.2567
13869TIP3    H141564   6.754   6.271   1.481 -1.0300 -1.4543 -0.3729
13869TIP3    H241565   6.795   6.212   1.615 -0.4644 -0.5495 -0.1373
13870TIP3   OH241566   7.498   3.481   2.897  0.1372  0.8736 -0.1098
13870TIP3    H141567   7.446   3.527   2.831 -1.4082 -0.6710 -0.0411
13870TIP3    H241568   7.495   3.389   2.870  0.1265  0.3211  1.6712
13871TIP3   OH241569   2.935   2.462   3.103  0.6145 -0.2601  0.5844
13871TIP3    H141570   2.968   2.372   3.092 -0.1713 -0.5792  0.7860
13871TIP3    H241571   2.867   2.454   3.170  1.2183  0.6534  1.3343
13872TIP3   OH241572   3.460   2.500   4.556  0.0886 -0.1964  0.6802
13872TIP3    H141573   3.470   2.573   4.617 -0.0392  0.3411  0.0598
13872TIP3    H241574   3.543   2.497   4.508 -0.0403 -0.2268  0.4567
13873TIP3   OH241575   6.331   5.680   0.406 -0.0292  0.0632  1.1123
13873TIP3    H141576   6.335   5.620   0.481  1.2615  1.1835  1.9871
13873TIP3    H241577   6.374   5.759   0.437 -0.7620  1.0741 -0.3711
13874TIP3   OH241578   7.990   1.776   1.664  0.0845  0.3480 -0.1605
13874TIP3    H141579   8.054   1.770   1.593 -1.3905 -0.3007 -1.4710
13874TIP3    H241580   7.954   1.688   1.672 -0.7915  0.7439  0.4178
13875TIP3   OH241581   6.070   7.372   1.088 -0.5009 -0.0248  0.1519
13875TIP3    H141582   6.007   7.424   1.137 -0.5290 -1.0361  1.2397
13875TIP3    H241583   6.042   7.282   1.101  0.0792 -0.3781 -0.9188
13876TIP3   OH241584   4.984   6.131   0.235 -0.6511  0.2755  0.4162
13876TIP3    H141585   5.036   6.111   0.157 -0.5210 -0.2006  0.6224
13876TIP3    H241586   5.000   6.057   0.294 -3.3764 -1.1067 -0.4102
13877TIP3   OH241587   4.153   1.415   4.013  0.2176  0.2220  0.5025
13877TIP3    H141588   4.201   1.419   3.930  0.5111 -0.5070  0.6284
13877TIP3    H241589   4.091   1.488   4.008  0.5234  0.4503 -0.1725
13878TIP3   OH241590   7.611   4.142   4.846  0.0481  0.5149  0.0026
13878TIP3    H141591   7.660   4.114   4.769 -1.6541  0.3971 -1.1130
13878TIP3    H241592   7.555   4.067   4.868 -0.7422  1.1521  0.2485
13879TIP3   OH241593   1.295   6.406   0.484  0.1444  0.0330  0.2448
13879TIP3    H141594   1.346   6.471   0.534  0.7105 -0.8516  0.8417
13879TIP3    H241595   1.237   6.367   0.549 -0.9350  0.6393 -0.3229
13880TIP3   OH241596   1.798   7.052   2.966  0.4258 -0.3128  0.2412
13880TIP3    H141597   1.817   7.097   2.883 -0.8532 -1.1827 -0.5623
13880TIP3    H241598   1.841   7.106   3.032  1.5415  0.3784 -0.9840
13881TIP3   OH241599   3.050   1.727   3.702 -0.0772 -0.3581  0.3683
13881TIP3    H141600   2.967   1.775   3.697 -0.1935 -0.5591  0.3389
13881TIP3    H241601   3.110   1.786   3.747  0.2424  0.4745 -1.0809
13882TIP3   OH241602   5.311   5.646   0.650 -0.3714 -0.0529 -0.1935
13882TIP3    H141603   5.217   5.651   0.668 -0.7150 -0.2531 -1.7641
13882TIP3    H241604   5.347   5.594   0.722 -1.5214 -0.2814  0.2319
13883TIP3   OH241605   7.865   3.468   0.729 -0.4572  0.9275 -0.2630
13883TIP3    H141606   7.856   3.550   0.681 -1.6996  0.5040 -0.8148
13883TIP3    H241607   7.778   3.428   0.725  0.4410 -1.0899 -1.2781
13884TIP3   OH241608   0.812   0.916   3.431 -0.2449 -0.0090  0.0820
13884TIP3    H141609   0.870   0.843   3.410  0.8488  1.3182 -1.9082
13884TIP3    H241610   0.734   0.875   3.470 -0.3556 -2.4092 -2.3505
13885TIP3   OH241611   7.239   0.727   0.337  0.0487  0.5285  0.3342
13885TIP3    H141612   7.244   0.810   0.386 -1.2402  1.4957 -1.0488
13885TIP3    H241613   7.158   0.686   0.369 -0.4533  0.8561 -0.4850
13886TIP3   OH241614   1.227   2.392   4.758 -0.3399  0.0430 -0.8199
13886TIP3    H141615   1.252   2.468   4.706  1.0012  2.0699  2.4756
13886TIP3    H241616   1.304   2.336   4.756 -0.3852 -0.0099 -1.1944
13887TIP3   OH241617   4.607   0.374   0.770 -0.5410 -0.9693  0.4589
13887TIP3    H141618   4.649   0.409   0.691 -0.4969 -0.2767  0.7854
13887TIP3    H241619   4.571   0.450   0.814 -1.5885 -1.4798  0.5223
13888TIP3   OH241620   3.958   1.705   1.389  0.1493  0.9571  0.5412
13888TIP3    H141621   3.899   1.662   1.327  0.2252 -1.0157  1.7428
13888TIP3    H241622   4.011   1.763   1.335 -0.9950  0.6669 -0.9676
13889TIP3   OH241623   0.716   7.549   1.000  0.2205 -0.4825  0.0772
13889TIP3    H141624   0.666   7.507   0.930 -2.4233  1.9849  0.2702
13889TIP3    H241625   0.695   7.498   1.078 -1.5010  0.0382  0.0072
13890TIP3   OH241626   0.774   1.015   6.370  0.1124  0.2793  0.1982
13890TIP3    H141627   0.704   1.081   6.371 -1.4930 -1.3295  0.1740
13890TIP3    H241628   0.835   1.047   6.304 -0.2383  2.0841  0.6854
13891TIP3   OH241629   4.095   5.812   3.312 -0.4394 -0.3996  0.8068
13891TIP3    H141630   4.175   5.859   3.333 -0.1822  0.3457 -1.6002
13891TIP3    H241631   4.117   5.720   3.324  0.8633 -0.2190 -0.0411
13892TIP3   OH241632   7.715   0.018   1.605  0.6198  0.0799  0.3607
13892TIP3    H141633   7.771   0.096   1.600 -0.1465  0.8397  2.3583
13892TIP3    H241634   7.636   0.048   1.650 -0.3245 -1.5504 -0.1052
13893TIP3   OH241635   2.285   4.729   5.618  0.2325 -0.2855  0.0527
13893TIP3    H141636   2.376   4.708   5.639  0.9762  1.1345 -1.4630
13893TIP3    H241637   2.291   4.805   5.559 -1.8866 -0.8361 -0.9818
13894TIP3   OH241638   4.823   5.881   6.546  0.2177 -0.2986 -0.2934
13894TIP3    H141639   4.886   5.827   6.499  0.6712  0.8253 -1.0393
13894TIP3    H241640   4.799   5.949   6.483 -0.3455  0.3468  0.5975
13895TIP3   OH241641   1.632   6.941   1.803  0.4344  0.3049 -0.9265
13895TIP3    H141642   1.637   6.912   1.894  0.5696  0.8433 -0.7606
13895TIP3    H241643   1.624   6.860   1.752 -1.0290  0.0575 -0.3476
13896TIP3   OH241644   8.205   0.718   5.194  0.4009  0.6159  0.2774
13896TIP3    H141645   8.233   0.679   5.111  1.8433  0.5396  0.7660
13896TIP3    H241646   8.125   0.765   5.173  0.2992 -0.0759 -0.9827
13897TIP3   OH241647   0.433   0.774   5.015 -0.4609  0.6182  0.1366
13897TIP3    H141648   0.358   0.722   5.044 -0.8062  0.4760 -0.9383
13897TIP3    H241649   0.397   0.830   4.945  0.2390  1.2054  0.2349
13898TIP3   OH241650   4.394   3.545   2.055 -0.0741  0.2382  0.2110
13898TIP3    H141651   4.332   3.570   1.987 -0.3810 -0.2296  0.3134
13898TIP3    H241652   4.368   3.456   2.080  0.9189 -0.1512 -0.0730
13899TIP3   OH241653   3.760   7.053   2.365 -0.5036  0.4452  0.2566
13899TIP3    H141654   3.700   6.979   2.375 -1.6375  0.9336 -2.0932
13899TIP3    H241655   3.710   7.117   2.315  0.7091  2.5362  1.6051
13900TIP3   OH241656   7.103   7.729   3.018 -0.0859  0.0138 -0.1555
13900TIP3    H141657   7.144   7.815   3.019  0.5786 -0.2737  2.0533
13900TIP3    H241658   7.172   7.670   2.986 -0.0356  0.0690 -0.1487
13901TIP3   OH241659   5.358   0.745   5.791 -0.1164 -0.3412 -0.3266
13901TIP3    H141660   5.433   0.710   5.838 -0.6813  0.4998  1.2907
13901TIP3    H241661   5.341   0.681   5.721  0.5832 -1.8029  0.7854
13902TIP3   OH241662   5.125   6.316   3.143  0.3776  0.2993  0.0420
13902TIP3    H141663   5.079   6.383   3.194  2.0797  0.2448  1.7162
13902TIP3    H241664   5.216   6.322   3.170  1.2403 -0.3328 -2.3954
13903TIP3   OH241665   6.271   0.189   2.067 -0.4220  0.5267  0.1868
13903TIP3    H141666   6.278   0.276   2.027  1.9235  0.3558  0.0740
13903TIP3    H241667   6.259   0.130   1.993  0.2598  0.5624  0.0388
13904TIP3   OH241668   1.523   4.784   2.990  0.1476 -0.7115 -0.6003
13904TIP3    H141669   1.567   4.862   2.955  0.8463 -0.7716  0.1297
13904TIP3    H241670   1.433   4.793   2.960  0.2016  0.4128 -0.4706
13905TIP3   OH241671   7.833   0.704   5.329 -0.0413  0.6720  0.0466
13905TIP3    H141672   7.812   0.781   5.382 -1.0163  0.5662 -0.1540
13905TIP3    H241673   7.787   0.719   5.246 -0.1516 -0.0668 -0.0331
13906TIP3   OH241674   7.145   4.239   4.174 -0.1374  0.2880 -0.1095
13906TIP3    H141675   7.073   4.289   4.213 -1.9679 -1.5179 -0.9814
13906TIP3    H241676   7.125   4.148   4.195  1.1510 -0.3733 -1.5864
13907TIP3   OH241677   0.386   2.938   4.182 -0.1441  0.3112 -0.0019
13907TIP3    H141678   0.425   2.853   4.200 -0.2519  0.4577  0.9811
13907TIP3    H241679   0.448   3.001   4.220 -1.8987  0.5011  2.8397
13908TIP3   OH241680   8.278   7.161   2.757  0.3465 -0.2074  0.0398
13908TIP3    H141681   8.242   7.250   2.759  2.2504  0.5913  1.3113
13908TIP3    H241682   8.372   7.174   2.749  0.5643 -2.1694 -1.0901
13909TIP3   OH241683   3.654   2.426   3.654 -0.2650  0.5054  0.4350
13909TIP3    H141684   3.564   2.421   3.621 -0.4409 -0.4079  1.0079
13909TIP3    H241685   3.697   2.490   3.597 -0.8095 -0.3432 -0.9877
13910TIP3   OH241686   7.948   5.562   3.679 -0.1519  0.5935 -0.2342
13910TIP3    H141687   7.889   5.632   3.707  0.4992  1.0160  0.0992
13910TIP3    H241688   7.922   5.543   3.589 -0.7556  0.8100 -0.1099
13911TIP3   OH241689   2.506   2.732   1.410 -0.6466 -0.0260 -0.1038
13911TIP3    H141690   2.441   2.734   1.339 -1.3623  0.2146  0.5517
13911TIP3    H241691   2.591   2.737   1.364 -0.9965 -2.0433 -1.0855
13912TIP3   OH241692   1.942   2.423   6.365  0.0970 -0.3866 -0.1006
13912TIP3    H141693   1.900   2.491   6.313 -1.2191 -1.3028 -0.2959
13912TIP3    H241694   2.031   2.455   6.380 -0.3114  1.0915 -0.6692
13913TIP3   OH241695   5.345   6.350   6.715 -0.4446 -0.4584 -0.2894
13913TIP3    H141696   5.386   6.408   6.779 -1.9958 -0.4947  0.8130
13913TIP3    H241697   5.352   6.397   6.632 -2.0469  1.5927  0.6354
13914TIP3   OH241698   2.846   2.866   2.553  0.0228  0.0645 -0.6036
13914TIP3    H141699   2.790   2.796   2.519 -0.3002 -0.6314  1.2887
13914TIP3    H241700   2.794   2.907   2.622  1.6345 -0.2899  0.8856
13915TIP3   OH241701   3.021   4.960   3.477 -0.5357  0.0591  0.1866
13915TIP3    H141702   2.974   4.877   3.489 -1.1212  0.3168 -0.2473
13915TIP3    H241703   3.091   4.958   3.542 -0.4843 -0.8204  0.1160
13916TIP3   OH241704   5.613   0.050   1.727 -0.0595  0.3160  0.1866
13916TIP3    H141705   5.630   0.135   1.769  2.2493  0.7286 -1.3909
13916TIP3    H241706   5.595  -0.009   1.800  1.0305  1.5876  1.5568
13917TIP3   OH241707   7.106   6.394   1.447 -0.8278  0.5640  0.7698
13917TIP3    H141708   7.034   6.367   1.391  0.1146 -2.0258  0.6594
13917TIP3    H241709   7.081   6.364   1.535 -0.0451 -0.1569  0.7680
13918TIP3   OH241710   6.968   4.387   1.781  0.2091 -0.2621 -0.2605
13918TIP3    H141711   6.950   4.353   1.693  0.3959  0.2350 -0.4946
13918TIP3    H241712   6.925   4.472   1.783  0.1505 -0.2969  0.1582
13919TIP3   OH241713   5.529   4.685   4.836  0.3673  0.1289 -0.6449
13919TIP3    H141714   5.511   4.629   4.761 -0.4679 -1.0008  0.3728
13919TIP3    H241715   5.608   4.648   4.875 -0.7667 -1.0351  0.6338
13920TIP3   OH241716   5.636   6.309   4.424  0.2079  0.0085 -0.6609
13920TIP3    H141717   5.579   6.245   4.465  1.3747 -1.3298 -1.0639
13920TIP3    H241718   5.694   6.258   4.367  0.4433  1.5225 -1.8648
13921TIP3   OH241719   4.400   3.864   4.901 -0.0669  0.1307  0.0878
13921TIP3    H141720   4.427   3.955   4.892 -2.2711  0.8101 -0.2536
13921TIP3    H241721   4.307   3.868   4.924 -0.1430 -2.0315  0.4211
13922TIP3   OH241722   0.731   4.997   3.780 -0.5291  0.3350  0.5924
13922TIP3    H141723   0.798   5.053   3.819  0.8021 -1.3817  0.9086
13922TIP3    H241724   0.778   4.947   3.714 -1.6199 -0.5477  0.4619
13923TIP3   OH241725   3.219   7.490   2.892  0.8861 -0.1053  0.2542
13923TIP3    H141726   3.232   7.396   2.882  2.6851 -0.0340  1.5635
13923TIP3    H241727   3.182   7.500   2.979  0.9665  0.4292  0.2290
13924TIP3   OH241728   0.398   2.143   2.848  0.5077  0.4892  0.2867
13924TIP3    H141729   0.345   2.118   2.924  0.1555  0.9682  0.2056
13924TIP3    H241730   0.429   2.060   2.812 -0.4367  0.1775  0.1653
13925TIP3   OH241731   2.047   1.323   6.435  0.4541 -1.0787 -0.3049
13925TIP3    H141732   2.045   1.333   6.340  0.0103 -1.2640 -0.3174
13925TIP3    H241733   2.128   1.366   6.462  0.9223 -1.6044 -0.8367
13926TIP3   OH241734   0.933   1.691   0.327  0.7715 -0.3811 -0.3713
13926TIP3    H141735   0.862   1.628   0.344 -0.0095  0.0191 -1.9171
13926TIP3    H241736   0.954   1.678   0.235  1.7146  0.5302 -0.2951
13927TIP3   OH241737   7.878   2.693   0.222  0.3773 -0.5129 -0.5645
13927TIP3    H141738   7.860   2.723   0.133 -1.1032 -0.0104 -0.1321
13927TIP3    H241739   7.937   2.759   0.258  1.8955 -1.3042 -1.4972
13928TIP3   OH241740   7.430   0.931   6.332  0.4473  0.7391 -0.5135
13928TIP3    H141741   7.512   0.890   6.304  0.6502 -0.8330  2.0765
13928TIP3    H241742   7.363   0.864   6.319 -0.1769  1.4620 -1.1374
13929TIP3   OH241743   2.733   6.704   6.171 -0.3763 -0.6903  0.6588
13929TIP3    H141744   2.664   6.760   6.207 -0.9348 -1.4587  0.8159
13929TIP3    H241745   2.810   6.723   6.224 -0.2963  0.5841  0.1279
13930TIP3   OH241746   2.075   0.602   4.249 -0.8860  0.8961  0.7648
13930TIP3    H141747   2.074   0.576   4.341 -1.9587  0.4268  0.6285
13930TIP3    H241748   2.147   0.552   4.211 -1.3225  0.0406  1.0507
13931TIP3   OH241749   1.224   4.395   2.364  0.5335  0.0701  0.3620
13931TIP3    H141750   1.239   4.366   2.454 -0.8845 -0.0265  0.5914
13931TIP3    H241751   1.129   4.405   2.357  0.6116  0.0554 -1.1360
13932TIP3   OH241752   7.830   7.178   5.346  0.0249 -0.0269 -0.3100
13932TIP3    H141753   7.765   7.188   5.277  1.2803 -2.6036 -2.0251
13932TIP3    H241754   7.882   7.258   5.343 -2.7956  2.0500  1.0135
13933TIP3   OH241755   2.043   4.619   1.418 -0.3930  0.0540  0.0833
13933TIP3    H141756   2.004   4.602   1.333  0.2937 -1.0002 -0.0415
13933TIP3    H241757   2.133   4.586   1.410 -0.4274 -0.4016  1.3144
13934TIP3   OH241758   0.540   4.847   3.286  0.3782  0.9489  0.0340
13934TIP3    H141759   0.502   4.801   3.211  2.2698 -4.5870  1.9148
13934TIP3    H241760   0.464   4.874   3.338 -1.0318 -1.1300 -0.8109
13935TIP3   OH241761   2.169   0.652   2.172  0.5734 -0.0452 -0.4211
13935TIP3    H141762   2.221   0.623   2.247  0.4637  1.4277  0.2601
13935TIP3    H241763   2.166   0.576   2.114 -0.5659 -1.7375  1.6920
13936TIP3   OH241764   0.156   5.417   3.527  0.5325 -0.0154 -0.2623
13936TIP3    H141765   0.061   5.425   3.516  0.1513 -3.3570 -0.3825
13936TIP3    H241766   0.192   5.438   3.441 -0.0621  1.0886 -0.2663
13937TIP3   OH241767   5.664   5.920   4.418  0.2627  0.4602 -0.4744
13937TIP3    H141768   5.649   5.830   4.390  0.7871  0.5908 -1.1820
13937TIP3    H241769   5.600   5.972   4.368 -0.8640  0.3677  0.8022
13938TIP3   OH241770   1.865   5.540   0.419  0.6896 -0.3882 -0.0254
13938TIP3    H141771   1.934   5.597   0.453  0.7220 -0.3703 -0.1211
13938TIP3    H241772   1.908   5.487   0.352  0.7942 -0.9108  0.4423
13939TIP3   OH241773   7.521   4.216   3.656 -0.2572 -0.2631  0.2696
13939TIP3    H141774   7.615   4.227   3.670 -0.0486 -1.1741 -0.3037
13939TIP3    H241775   7.500   4.131   3.697 -0.6953 -0.3771 -0.1732
13940TIP3   OH241776   6.078   4.998   1.982  1.0059  0.0077 -0.2396
13940TIP3    H141777   6.036   5.023   1.900 -1.2500 -0.9845  0.5499
13940TIP3    H241778   6.084   4.903   1.979  0.8500 -0.0522  0.7415
13941TIP3   OH241779   1.552   5.602   3.430  0.1517 -0.2280  0.8587
13941TIP3    H141780   1.577   5.512   3.408  0.0388 -0.1027  0.2090
13941TIP3    H241781   1.475   5.620   3.377 -0.0451  0.1286  1.2610
13942TIP3   OH241782   7.327   1.274   2.422  0.1954 -0.2323  0.5549
13942TIP3    H141783   7.411   1.319   2.411 -0.9264  1.5426 -1.4020
13942TIP3    H241784   7.320   1.217   2.346 -0.8291  0.4536  0.1145
13943TIP3   OH241785   7.441   4.441   0.785 -0.4653 -0.4611  0.1502
13943TIP3    H141786   7.378   4.446   0.713 -0.2542  2.2524  0.0514
13943TIP3    H241787   7.508   4.380   0.754 -0.8285 -0.0269 -1.6031
13944TIP3   OH241788   4.892   6.905   0.332  0.3555  0.0717  0.3290
13944TIP3    H141789   4.796   6.912   0.326  0.4013  0.4274 -0.0738
13944TIP3    H241790   4.907   6.820   0.372 -0.1272 -0.1626  0.0297
13945TIP3   OH241791   4.302   4.795   4.539  0.0680 -0.2568 -0.0905
13945TIP3    H141792   4.373   4.754   4.589 -0.2718  0.9795  1.4719
13945TIP3    H241793   4.246   4.836   4.605 -1.5078 -0.2367 -1.3632
13946TIP3   OH241794   0.686   3.911  -0.012  0.1705  0.2388  0.2464
13946TIP3    H141795   0.719   3.958   0.064 -0.5729  0.8644  0.1960
13946TIP3    H241796   0.618   3.853   0.024  1.5624 -1.3863  0.4238
13947TIP3   OH241797   4.842   6.867   5.504  0.0950  0.6399  0.4638
13947TIP3    H141798   4.918   6.910   5.544 -0.7497 -0.5500  3.6256
13947TIP3    H241799   4.769   6.888   5.563 -1.1786 -1.6699 -0.1828
13948TIP3   OH241800  -0.012   6.753   5.323 -0.8531  0.1312 -0.1206
13948TIP3    H141801   0.074   6.731   5.359 -1.1792 -0.3660  0.3744
13948TIP3    H241802  -0.031   6.840   5.359 -0.2323  0.5783 -0.8429
13949TIP3   OH241803   4.454   5.256   4.151  0.1979 -0.5377  0.3370
13949TIP3    H141804   4.428   5.226   4.238 -0.2173  1.4966  0.9808
13949TIP3    H241805   4.383   5.314   4.123  0.2020 -1.3357 -1.4919
13950TIP3   OH241806   7.891   6.604   4.797 -0.1483 -0.1290 -0.4390
13950TIP3    H141807   7.914   6.574   4.886  0.7233 -0.3270 -0.7166
13950TIP3    H241808   7.870   6.697   4.808  0.2937 -0.0657 -0.0710
13951TIP3   OH241809   5.335   1.003   2.659 -0.3520 -0.0963  0.2709
13951TIP3    H141810   5.379   0.930   2.702 -0.8127 -0.5471 -0.0117
13951TIP3    H241811   5.401   1.072   2.655 -0.5045  0.2688  2.4394
13952TIP3   OH241812   5.359   7.587   3.176 -0.1653 -0.1790 -0.5048
13952TIP3    H141813   5.328   7.503   3.209 -2.4091  0.1776 -1.5075
13952TIP3    H241814   5.320   7.595   3.089 -1.5829  2.6704  0.2630
13953TIP3   OH241815   2.361   6.097   4.339 -0.0825  0.1534 -0.2458
13953TIP3    H141816   2.301   6.046   4.285  0.3691  0.4606 -1.0460
13953TIP3    H241817   2.425   6.033   4.371 -0.5868 -0.1010  0.2814
13954TIP3   OH241818   1.759   5.601   0.924 -0.5710 -0.2391  0.2979
13954TIP3    H141819   1.728   5.684   0.962 -2.3596 -1.0685  0.7446
13954TIP3    H241820   1.814   5.628   0.850  0.4450  1.3623  1.5723
13955TIP3   OH241821   8.123   3.730   1.376 -0.1218  0.5351  0.4146
13955TIP3    H141822   8.215   3.702   1.376 -0.6936 -1.6959  2.4341
13955TIP3    H241823   8.125   3.816   1.418  0.9771  0.0195  1.5060
13956TIP3   OH241824   6.771   2.725   2.427  0.0167 -0.2595 -0.1997
13956TIP3    H141825   6.735   2.638   2.440 -1.1621  0.1391 -0.6518
13956TIP3    H241826   6.701   2.784   2.455  0.6366  0.5428 -0.3073
13957TIP3   OH241827   5.386   3.135   4.104 -0.3982  0.2111  0.3673
13957TIP3    H141828   5.456   3.192   4.138  0.2681  0.7792 -1.7455
13957TIP3    H241829   5.415   3.114   4.015 -1.2026 -2.5509  0.6785
13958TIP3   OH241830   5.739   0.035   4.921  0.4644  0.0223 -0.1390
13958TIP3    H141831   5.772  -0.020   4.992 -0.5828  0.6261  0.8520
13958TIP3    H241832   5.651   0.060   4.949 -0.1280 -0.0299 -1.8404
13959TIP3   OH241833   0.366   1.515   4.855 -0.4022 -0.2846 -0.0016
13959TIP3    H141834   0.422   1.581   4.814 -1.1059 -0.4566 -1.3290
13959TIP3    H241835   0.284   1.562   4.874 -0.1296 -0.2457  1.0986
13960TIP3   OH241836   6.547   7.031   6.358  0.6651  0.3958 -0.4209
13960TIP3    H141837   6.590   7.035   6.444  1.4503 -0.2039 -0.7623
13960TIP3    H241838   6.537   6.937   6.342  0.2552  0.5130 -0.8546
13961TIP3   OH241839   0.749   5.264   3.520  0.5098 -0.4920  0.2130
13961TIP3    H141840   0.694   5.252   3.597 -3.9025  3.1024 -1.9268
13961TIP3    H241841   0.770   5.357   3.520  1.3143 -0.5988 -2.3386
13962TIP3   OH241842   3.060   1.274   1.247 -0.3077 -0.1688 -0.2600
13962TIP3    H141843   3.147   1.234   1.235 -0.0640  0.7162 -1.6820
13962TIP3    H241844   3.064   1.355   1.196 -1.7109  0.3009  0.3365
13963TIP3   OH241845   2.230   4.999   6.277  0.5537 -0.0128 -0.3117
13963TIP3    H141846   2.274   4.964   6.199 -0.0817 -0.0182 -0.6724
13963TIP3    H241847   2.140   5.016   6.249  0.6040  1.0606  0.1018
13964TIP3   OH241848   4.323   3.770   3.836 -0.0030  0.0401 -0.6708
13964TIP3    H141849   4.368   3.788   3.753  0.6522  3.4151  0.2943
13964TIP3    H241850   4.232   3.794   3.819  0.6097  3.4791  0.2013
13965TIP3   OH241851   8.001   6.982   1.935 -0.0870 -0.2060 -0.0348
13965TIP3    H141852   8.032   6.981   1.844 -1.3607 -2.7993 -0.5164
13965TIP3    H241853   8.069   6.936   1.983 -0.0623 -0.0235  0.1074
13966TIP3   OH241854   4.088   4.707   5.804  0.4183 -0.0366  0.1895
13966TIP3    H141855   4.173   4.683   5.765 -0.1453  0.1084 -1.1883
13966TIP3    H241856   4.098   4.688   5.897  2.0708  0.2608  0.1006
13967TIP3   OH241857   2.671   1.662   3.504 -0.2642 -0.5038  0.7282
13967TIP3    H141858   2.576   1.651   3.498 -0.0213 -2.7323 -0.0307
13967TIP3    H241859   2.702   1.583   3.549  1.3829 -0.8341 -0.8414
13968TIP3   OH241860   6.714   1.779   5.604  0.9031 -0.1659 -0.2850
13968TIP3    H141861   6.771   1.841   5.649  1.2276 -0.2796 -0.5384
13968TIP3    H241862   6.631   1.826   5.593  1.3297  0.4475 -1.0048
13969TIP3   OH241863   7.557   6.845   2.771  0.5196  0.2347  0.2925
13969TIP3    H141864   7.594   6.806   2.691 -0.6421 -1.8664  0.6964
13969TIP3    H241865   7.628   6.899   2.806  1.1283  1.0831 -2.0231
13970TIP3   OH241866   3.890   4.249   2.405  0.1760  0.3485 -0.1303
13970TIP3    H141867   3.885   4.192   2.329  1.1242  0.1989 -0.0932
13970TIP3    H241868   3.928   4.330   2.373 -0.8884  0.8756 -0.1204
13971TIP3   OH241869   1.330   0.364   6.336  0.2649  0.4370 -0.4924
13971TIP3    H141870   1.369   0.404   6.258 -0.5504 -1.2160 -1.8222
13971TIP3    H241871   1.323   0.435   6.399  2.2430  1.5163 -1.4199
13972TIP3   OH241872   7.915   7.443   3.202 -0.1845  0.1035 -0.1145
13972TIP3    H141873   7.831   7.440   3.249  0.4808  0.5689  1.1750
13972TIP3    H241874   7.973   7.491   3.261  0.4962  1.4752 -1.8215
13973TIP3   OH241875   8.140   6.109   5.898  0.0802  0.3903 -0.2127
13973TIP3    H141876   8.057   6.156   5.911  0.0892  0.4359 -0.3175
13973TIP3    H241877   8.120   6.045   5.830  0.3684  1.0063 -0.8975
13974TIP3   OH241878   3.615   0.572   4.154 -0.8513 -0.2299  0.1807
13974TIP3    H141879   3.670   0.494   4.143 -1.0524 -0.2834 -0.4996
13974TIP3    H241880   3.648   0.634   4.089  0.9690  1.2508  2.3527
13975TIP3   OH241881   1.676   2.566   0.931  0.0433 -0.1971  0.3759
13975TIP3    H141882   1.735   2.506   0.977 -0.5662  0.5948  2.2826
13975TIP3    H241883   1.716   2.577   0.844  1.1744 -1.8382  0.6467
13976TIP3   OH241884   2.414   3.061   2.568  0.0487  0.5355 -0.9411
13976TIP3    H141885   2.458   2.976   2.556 -0.5958  0.2431 -1.2690
13976TIP3    H241886   2.414   3.101   2.481  0.2510  0.8271 -0.8086
13977TIP3   OH241887   1.345   6.663   4.336  0.0749 -0.2809  0.3590
13977TIP3    H141888   1.385   6.577   4.347  1.3088  0.2394  0.1283
13977TIP3    H241889   1.301   6.658   4.251  0.5204 -0.5470  0.1405
13978TIP3   OH241890   4.479   2.990   2.881 -0.2444 -0.1166  0.2360
13978TIP3    H141891   4.523   3.072   2.902  1.3316 -0.5962 -1.0063
13978TIP3    H241892   4.405   2.986   2.943 -1.1943  2.8458 -0.5344
13979TIP3   OH241893   1.021   7.680   4.208 -0.2920  0.3507 -0.3188
13979TIP3    H141894   0.945   7.724   4.246  1.1632  1.4568  1.5299
13979TIP3    H241895   1.061   7.746   4.151  0.8359  0.8446  0.9768
13980TIP3   OH241896   6.191   5.598   5.491 -0.4149  0.8632  0.7201
13980TIP3    H141897   6.269   5.621   5.440 -0.0509 -0.4818  0.6455
13980TIP3    H241898   6.123   5.656   5.458 -0.4001 -0.4859 -1.8604
13981TIP3   OH241899   3.813   5.877   0.672 -0.0570 -0.3809 -0.2573
13981TIP3    H141900   3.904   5.889   0.645 -0.4163 -0.2810 -1.5188
13981TIP3    H241901   3.763   5.884   0.590 -1.0702 -1.8230  0.1888
13982TIP3   OH241902   8.224   2.040   0.449  0.2589 -0.1844  0.1395
13982TIP3    H141903   8.198   2.060   0.358 -1.0493 -1.9773  0.0596
13982TIP3    H241904   8.242   2.125   0.488  0.8145  0.6345 -1.7951
13983TIP3   OH241905   4.067   3.255   2.973  0.4835 -0.6701 -0.2521
13983TIP3    H141906   3.995   3.218   2.922 -1.6894  0.6364  1.6653
13983TIP3    H241907   4.111   3.315   2.912 -2.2792  1.1740 -0.6192
13984TIP3   OH241908   4.759   6.865   4.029  0.4837 -0.1827  0.1864
13984TIP3    H141909   4.824   6.924   3.990  0.1373 -0.0877 -0.2590
13984TIP3    H241910   4.690   6.924   4.061  1.2449 -0.1748  1.9156
13985TIP3   OH241911   8.161   2.037   1.355 -0.2467  0.2349  0.3778
13985TIP3    H141912   8.187   1.951   1.387 -0.7343  0.7492  2.3384
13985TIP3    H241913   8.080   2.022   1.307  0.8578 -0.6655 -1.2765
13986TIP3   OH241914   3.213   2.364   3.948 -0.7159  0.2128 -0.4428
13986TIP3    H141915   3.250   2.438   3.899 -4.2677  2.4925 -0.0208
13986TIP3    H241916   3.269   2.357   4.025  1.8758 -0.0340 -2.2152
13987TIP3   OH241917   6.467   0.959   6.562 -0.6467  0.2206 -0.1012
13987TIP3    H141918   6.455   0.874   6.603 -2.9488  0.0262 -1.0314
13987TIP3    H241919   6.429   1.021   6.625 -2.3969  0.1220 -1.0091
13988TIP3   OH241920   0.799   2.522   5.932  0.7493 -0.1456  0.5217
13988TIP3    H141921   0.716   2.549   5.894 -0.5332 -3.0595  1.0307
13988TIP3    H241922   0.855   2.502   5.857 -0.1680 -1.3844  0.1539
13989TIP3   OH241923   7.432   1.131   0.809 -0.0942 -0.1386  0.0564
13989TIP3    H141924   7.398   1.211   0.849  0.0174  1.0411 -2.0446
13989TIP3    H241925   7.384   1.060   0.851 -1.5864  1.1666  0.6390
13990TIP3   OH241926   0.257   4.978   2.184 -0.5312 -0.3582  0.2353
13990TIP3    H141927   0.264   4.903   2.243 -1.9284  0.1815  1.1188
13990TIP3    H241928   0.294   4.946   2.101 -0.0507 -1.6428  0.9114
13991TIP3   OH241929   0.994   2.413   2.972  0.1463  0.4728  0.5489
13991TIP3    H141930   0.921   2.412   2.910  1.3929  2.6678 -1.1107
13991TIP3    H241931   0.953   2.425   3.058 -1.5033 -0.4193 -0.0719
13992TIP3   OH241932   3.752   3.347   2.989 -0.3737  0.7317 -0.1985
13992TIP3    H141933   3.677   3.289   2.999 -1.1563  1.7665  0.1125
13992TIP3    H241934   3.714   3.431   2.963  0.7615  1.0054 -1.0857
13993TIP3   OH241935   3.221   2.863   1.059  0.4431 -0.0691 -0.5284
13993TIP3    H141936   3.176   2.941   1.027  0.1489  0.1809  0.4639
13993TIP3    H241937   3.210   2.799   0.989  1.3674  1.0094 -1.6954
13994TIP3   OH241938   4.188   7.331   4.503  0.7059  0.3122  0.0848
13994TIP3    H141939   4.100   7.368   4.511  0.4642 -0.4074  0.7858
13994TIP3    H241940   4.207   7.293   4.588  1.0794 -0.8976 -0.5184
13995TIP3   OH241941   6.225   0.071   4.613  0.1452 -0.7438  0.3367
13995TIP3    H141942   6.316   0.089   4.639  0.4373 -1.0577 -0.4498
13995TIP3    H241943   6.174   0.137   4.659  0.9441  0.4672 -0.4529
13996TIP3   OH241944   0.912   1.309   3.458  0.0126  0.0268  0.0143
13996TIP3    H141945   0.970   1.255   3.404  0.5385 -0.0594  0.6411
13996TIP3    H241946   0.943   1.294   3.548  0.7311  2.0139  0.1401
13997TIP3   OH241947   3.669   2.718   2.774 -0.3210 -0.0838  0.2471
13997TIP3    H141948   3.578   2.730   2.750 -0.5521 -0.8820  0.6560
13997TIP3    H241949   3.715   2.794   2.738 -0.3349 -1.8180 -4.0228
13998TIP3   OH241950   5.034   2.650   0.145  0.3111  0.7355 -0.1951
13998TIP3    H141951   4.960   2.701   0.111  0.3326  0.5143 -0.5814
13998TIP3    H241952   5.071   2.607   0.068  1.9078  2.1667 -0.2820
13999TIP3   OH241953   1.118   6.642   6.185 -0.1959 -0.0944 -0.0084
13999TIP3    H141954   1.061   6.613   6.114  1.0717 -1.9672 -0.3493
13999TIP3    H241955   1.203   6.657   6.143 -0.0503  1.1964  0.7215
14000TIP3   OH241956   3.139   2.898   1.823  0.5319  0.1432 -0.1055
14000TIP3    H141957   3.083   2.971   1.798 -0.2764 -0.0195  1.1553
14000TIP3    H241958   3.136   2.897   1.919  0.4467 -1.5785 -0.0942
14001TIP3   OH241959   5.943   3.784   6.524  0.0438  0.1646 -0.0534
14001TIP3    H141960   5.937   3.737   6.440 -0.8559 -2.0451  1.1768
14001TIP3    H241961   6.033   3.817   6.526  1.0337 -2.2969 -0.6274
14002TIP3   OH241962   0.081   5.478   4.370 -0.3413  0.0813  0.4397
14002TIP3    H141963   0.094   5.406   4.309 -0.9843 -1.1632  1.7065
14002TIP3    H241964   0.164   5.486   4.417  0.3439  1.4081 -0.9140
14003TIP3   OH241965   6.734   4.641   1.425  0.4858 -0.3585 -0.0778
14003TIP3    H141966   6.706   4.724   1.387  0.4912 -0.4612 -0.3043
14003TIP3    H241967   6.662   4.614   1.481  0.2620 -0.4700 -0.4200
14004TIP3   OH241968   0.762   6.980   0.891  0.0767 -0.0787 -0.1026
14004TIP3    H141969   0.807   7.014   0.968 -1.4483  1.9391 -0.0299
14004TIP3    H241970   0.795   7.033   0.818 -1.0141  0.3597 -0.2865
14005TIP3   OH241971   6.538   4.865   4.635 -0.4222  0.5592  0.4048
14005TIP3    H141972   6.629   4.887   4.617 -0.4795  0.9862  0.6270
14005TIP3    H241973   6.542   4.781   4.680 -0.1980  0.1112 -0.4327
14006TIP3   OH241974   4.206   3.332   1.460  0.0750  0.0579  0.1977
14006TIP3    H141975   4.298   3.305   1.465 -0.5676 -2.4479 -0.1629
14006TIP3    H241976   4.196   3.397   1.530  1.5211 -1.6528  2.1229
14007TIP3   OH241977   0.731   1.588   2.940 -0.5189  0.6561 -0.5141
14007TIP3    H141978   0.764   1.598   3.030  0.3037  2.2755 -0.9587
14007TIP3    H241979   0.805   1.612   2.885 -1.6747  1.8884 -1.5946
14008TIP3   OH241980   4.274   0.827   0.696 -0.5112 -0.3389 -0.1842
14008TIP3    H141981   4.203   0.871   0.648 -0.9999 -1.2107 -0.2953
14008TIP3    H241982   4.262   0.734   0.675 -0.4803 -0.6940  1.2894
14009TIP3   OH241983   6.816   7.396   2.780 -0.1244  0.2086  0.0777
14009TIP3    H141984   6.842   7.486   2.803  0.6156  0.3227 -1.1178
14009TIP3    H241985   6.898   7.348   2.776 -0.6582 -1.0737  2.7551
14010TIP3   OH241986   0.549   2.197   1.107 -0.1675 -0.0700 -0.1904
14010TIP3    H141987   0.645   2.196   1.109 -0.1530 -1.3633 -0.3510
14010TIP3    H241988   0.527   2.270   1.049  0.7278  0.0522 -0.3972
14011TIP3   OH241989   7.941   2.790   6.176 -0.3090  0.2706  0.5180
14011TIP3    H141990   7.980   2.872   6.146 -1.1730  1.1924  1.8180
14011TIP3    H241991   7.907   2.749   6.096 -0.4904  1.5171 -0.0713
14012TIP3   OH241992   7.940   4.316   4.609 -0.7028 -0.3460  0.0697
14012TIP3    H141993   7.881   4.375   4.562  0.2769  0.2199 -0.4546
14012TIP3    H241994   8.011   4.371   4.640 -0.1151 -1.1326  0.1537
14013TIP3   OH241995   7.563   2.383   4.072 -0.0269 -0.2381  0.3834
14013TIP3    H141996   7.641   2.419   4.115  0.6388  0.8054 -1.6046
14013TIP3    H241997   7.553   2.435   3.993 -0.0532 -3.2697 -1.7997
14014TIP3   OH241998   4.386   7.072   1.783  0.3304  0.4437  0.0538
14014TIP3    H141999   4.383   7.154   1.733 -1.2307 -0.2337 -1.0510
14014TIP3    H242000   4.411   7.006   1.719 -0.3380 -0.2370  0.4801
14015TIP3   OH242001   5.904   1.143   3.878  0.1379 -0.1125 -0.0604
14015TIP3    H142002   5.952   1.207   3.825 -1.2638  1.0671  0.0371
14015TIP3    H242003   5.859   1.088   3.814  1.1403 -0.8772 -0.1371
14016TIP3   OH242004   5.946   5.552   6.705 -0.0459 -0.0145  0.0718
14016TIP3    H142005   6.003   5.586   6.774  2.7886  0.5004 -2.3513
14016TIP3    H242006   5.929   5.628   6.649  0.6963 -1.0867 -1.6833
14017TIP3   OH242007   6.847   0.064   3.192 -0.3520  0.2788  0.5704
14017TIP3    H142008   6.916   0.086   3.129  0.3947  0.0741  1.2899
14017TIP3    H242009   6.822  -0.026   3.171 -1.7111  0.9454 -0.8479
14018TIP3   OH242010   2.837   0.945   1.889  0.2220 -0.3789 -0.1388
14018TIP3    H142011   2.837   1.040   1.885 -0.2446 -0.4103 -1.0329
14018TIP3    H242012   2.749   0.923   1.921 -1.2229 -0.6132 -3.8241
14019TIP3   OH242013   4.727   3.308   2.647  0.2132 -0.0359  0.3000
14019TIP3    H142014   4.820   3.288   2.654  0.5077  0.2996 -1.8795
14019TIP3    H242015   4.702   3.276   2.560 -1.6411  0.1339  0.7263
14020TIP3   OH242016   3.225   4.080   6.146  0.3588 -0.3965  0.6030
14020TIP3    H142017   3.178   4.008   6.105  1.2140 -0.0591 -1.0107
14020TIP3    H242018   3.182   4.090   6.232 -2.6632  0.0101 -0.8088
14021TIP3   OH242019   6.153   2.356   0.584  0.3794 -0.2577 -0.1335
14021TIP3    H142020   6.140   2.439   0.630 -0.5244 -0.9001  0.8291
14021TIP3    H242021   6.141   2.378   0.491  0.1136  0.6742  0.1069
14022TIP3   OH242022   8.211   7.519   6.410  0.6321 -0.0377 -0.1322
14022TIP3    H142023   8.125   7.480   6.391  1.0608 -0.7512 -0.6492
14022TIP3    H242024   8.273   7.463   6.365  1.3774  0.4992  0.2088
14023TIP3   OH242025   1.618   3.103   2.406 -0.0780  0.0936  0.0974
14023TIP3    H142026   1.659   3.110   2.319 -0.9636  0.0069 -0.3418
14023TIP3    H242027   1.677   3.150   2.464  0.2526  0.6390 -0.6575
14024TIP3   OH242028   0.121   5.080   5.258  0.0462 -0.4544  0.1702
14024TIP3    H142029   0.176   5.078   5.337 -0.4003 -0.8612  0.4792
14024TIP3    H242030   0.065   5.156   5.270  1.1685  0.5153 -0.5878
14025TIP3   OH242031   8.089   6.878   5.667 -0.5201  0.4116 -0.2171
14025TIP3    H142032   8.078   6.951   5.607 -0.2049 -0.5258 -1.4583
14025TIP3    H242033   8.184   6.864   5.670 -0.6517 -0.8535 -1.1534
14026TIP3   OH242034   5.828   2.073   0.213  0.3110  0.0050  0.0089
14026TIP3    H142035   5.792   2.120   0.288  0.4863  0.1508  0.0042
14026TIP3    H242036   5.922   2.093   0.216  0.1285  1.0801 -1.0053
14027TIP3   OH242037   5.145   1.642   0.460  0.2744  0.0223 -0.3750
14027TIP3    H142038   5.147   1.583   0.384 -0.2880  0.7149 -0.9450
14027TIP3    H242039   5.178   1.725   0.426  1.8415 -0.1654  0.6221
14028TIP3   OH242040   6.025   7.300   5.180 -0.0433  0.3619  0.4808
14028TIP3    H142041   5.989   7.389   5.184 -0.9247 -0.0142  1.6750
14028TIP3    H242042   5.998   7.267   5.094 -1.7818  0.4369  0.9631
14029TIP3   OH242043   0.254   3.405   4.833  0.6720  0.2378  0.4275
14029TIP3    H142044   0.308   3.342   4.786  1.1427 -0.7528  2.1921
14029TIP3    H242045   0.171   3.359   4.847  0.0279  1.0447 -0.6219
14030TIP3   OH242046   4.217   0.116   6.628 -0.1705  0.1762 -0.1584
14030TIP3    H142047   4.135   0.124   6.678 -0.5318  0.5224 -0.7884
14030TIP3    H242048   4.214   0.189   6.566  1.8292  1.7931  1.5007
14031TIP3   OH242049   3.294   1.289   3.922  0.2200 -0.2580  0.4176
14031TIP3    H142050   3.267   1.367   3.875  1.0838  0.6044  1.3203
14031TIP3    H242051   3.389   1.295   3.929  0.2839 -1.2672  0.7086
14032TIP3   OH242052   0.459   1.164   0.230  0.2423  0.0684 -0.0306
14032TIP3    H142053   0.449   1.157   0.325  1.6533 -0.2084  0.1105
14032TIP3    H242054   0.540   1.213   0.217 -0.2803  0.6814 -1.1029
14033TIP3   OH242055   1.446   3.577   4.437 -0.2229 -0.0310 -0.6042
14033TIP3    H142056   1.525   3.629   4.422  0.2960 -0.8239 -0.6421
14033TIP3    H242057   1.438   3.575   4.533 -0.6628  0.7248 -0.6139
14034TIP3   OH242058   2.122   3.068   4.714  0.1371 -0.5382  0.0069
14034TIP3    H142059   2.116   3.131   4.642  1.5184 -0.2477  0.1109
14034TIP3    H242060   2.047   3.010   4.701 -0.5197  0.4406 -0.7516
14035TIP3   OH242061   5.398   4.678   6.524  0.3123 -0.1275 -0.2639
14035TIP3    H142062   5.435   4.756   6.483  0.0016  0.3110  0.2676
14035TIP3    H242063   5.304   4.694   6.527  0.3825  0.2083  1.2854
14036TIP3   OH242064   0.332   0.679   1.214 -0.4115  0.2975  0.1937
14036TIP3    H142065   0.301   0.763   1.248 -1.2144  0.1620 -0.1987
14036TIP3    H242066   0.387   0.644   1.284  1.0922  1.7843 -0.1776
14037TIP3   OH242067   2.381   2.308   2.805 -0.1363  0.3046 -0.3191
14037TIP3    H142068   2.368   2.225   2.850  1.4796 -0.6275 -1.4755
14037TIP3    H242069   2.340   2.373   2.863 -0.3659 -1.1208  1.2043
14038TIP3   OH242070   2.898   1.634   3.003 -0.3753  0.6825 -0.3744
14038TIP3    H142071   2.988   1.602   3.014 -0.3657  0.9088  0.2568
14038TIP3    H242072   2.872   1.663   3.090 -0.5702  1.9197 -0.8238
14039TIP3   OH242073   5.789   7.727   4.016  0.1665  0.0773 -0.2796
14039TIP3    H142074   5.811   7.702   3.926 -0.9714  2.2540 -1.2302
14039TIP3    H242075   5.717   7.789   4.007  1.1289  1.6556  2.0511
14040TIP3   OH242076   8.074   5.387   4.876  1.0082 -0.0202  0.0961
14040TIP3    H142077   8.024   5.345   4.945 -0.9818  2.6806  0.4858
14040TIP3    H242078   8.140   5.439   4.923  1.1455  0.0332 -0.1550
14041TIP3   OH242079   1.115   5.210   0.937  0.3654 -0.4114 -0.3229
14041TIP3    H142080   1.067   5.140   0.894  1.6096 -2.0080  0.7953
14041TIP3    H242081   1.192   5.224   0.882  0.2200 -0.0226 -0.4380
14042TIP3   OH242082   5.378   6.513   5.359 -0.3967  0.4624 -0.0385
14042TIP3    H142083   5.450   6.497   5.298 -0.3272  0.0900  0.1334
14042TIP3    H242084   5.305   6.538   5.303 -0.2474  0.4301 -0.2518
14043TIP3   OH242085   1.366   2.936   2.200  0.2051 -0.2139  0.3162
14043TIP3    H142086   1.410   3.014   2.168  0.1264 -0.8683 -1.4977
14043TIP3    H242087   1.273   2.959   2.199  0.2593  0.0827  1.0540
14044TIP3   OH242088   3.030   2.031   6.455  0.2202  0.1871  0.0165
14044TIP3    H142089   3.054   1.944   6.424 -2.8722 -1.2303  1.1780
14044TIP3    H242090   2.935   2.028   6.464  0.0881  3.4020  1.0135
14045TIP3   OH242091   6.622   2.048   3.539 -0.5665  0.2912 -0.4035
14045TIP3    H142092   6.615   1.953   3.554 -4.0713  0.8162  2.9424
14045TIP3    H242093   6.555   2.067   3.474  0.3609  0.5152 -1.3258
14046TIP3   OH242094   2.802   3.806   1.854 -0.6919 -0.0491  0.9603
14046TIP3    H142095   2.708   3.823   1.862 -0.7702  0.5893 -0.8612
14046TIP3    H242096   2.808   3.739   1.785  0.1743 -0.5428  1.4984
14047TIP3   OH242097   5.384   3.722   4.599  0.1675  0.0746 -0.3236
14047TIP3    H142098   5.306   3.694   4.552  1.4146 -1.8594 -1.3888
14047TIP3    H242099   5.423   3.789   4.543  0.1163 -0.1236 -0.5971
14048TIP3   OH242100   0.146   6.932   1.035 -0.4707  0.2474  0.1260
14048TIP3    H142101   0.065   6.983   1.033 -1.2444 -0.9578 -0.5720
14048TIP3    H242102   0.194   6.966   1.110 -2.2520  0.0515  1.4058
14049TIP3   OH242103   4.185   0.451   0.250 -0.2843 -0.3493 -0.1698
14049TIP3    H142104   4.256   0.465   0.313 -2.4059  0.3022  2.2203
14049TIP3    H242105   4.219   0.384   0.191  2.6231  0.5339  0.3178
14050TIP3   OH242106   0.037   2.541   5.995  0.2865  0.1399 -0.4148
14050TIP3    H142107   0.130   2.557   5.980  0.3906  0.6243  0.6596
14050TIP3    H242108   0.019   2.460   5.948  0.9307  0.7371 -1.7462
14051TIP3   OH242109   2.095   5.465   3.496  0.1170 -0.4311 -0.0896
14051TIP3    H142110   2.057   5.542   3.538  0.9506  0.4091 -0.8249
14051TIP3    H242111   2.100   5.399   3.565 -0.2479  0.3070  0.6538
14052TIP3   OH242112   1.624   5.658   5.653 -0.1885 -0.5009 -1.0098
14052TIP3    H142113   1.623   5.743   5.611 -0.1105 -0.6089 -1.2288
14052TIP3    H242114   1.701   5.660   5.710 -2.3242  1.0941  2.0993
14053TIP3   OH242115   3.607   1.485   1.758 -0.1177 -0.1186  0.7336
14053TIP3    H142116   3.625   1.411   1.701 -0.4449 -0.5277  1.1489
14053TIP3    H242117   3.624   1.563   1.704  0.1718 -0.4924  0.2799
14054TIP3   OH242118   0.898  -0.004   3.789 -0.3419  0.5473 -0.6044
14054TIP3    H142119   0.913  -0.031   3.698 -1.1971 -0.6905 -0.4064
14054TIP3    H242120   0.869   0.087   3.783 -0.6043  0.4136 -1.5815
14055TIP3   OH242121   3.560   2.145   2.342  0.0356  0.6982  0.2739
14055TIP3    H142122   3.471   2.161   2.311 -0.0565  0.5114  0.4437
14055TIP3    H242123   3.565   2.188   2.427 -0.1300  0.0689  0.6087
14056TIP3   OH242124   2.150   7.578   5.975  0.3010  0.4442  0.7450
14056TIP3    H142125   2.085   7.560   6.043  1.0127  0.5967  1.4926
14056TIP3    H242126   2.233   7.546   6.013  0.8609  1.3440  0.3206
14057TIP3   OH242127   0.833   4.016   5.102 -0.2275 -0.2309 -0.4616
14057TIP3    H142128   0.814   4.045   5.012  1.3366 -0.0357 -0.7495
14057TIP3    H242129   0.829   4.096   5.154 -1.8832 -0.4527 -0.1959
14058TIP3   OH242130   6.643   4.828   4.059 -0.1993 -0.2457  0.5342
14058TIP3    H142131   6.634   4.851   3.967  0.0070 -1.2854  0.2545
14058TIP3    H242132   6.588   4.751   4.071 -2.7362  1.5900  1.9851
14059TIP3   OH242133   0.905   3.606   0.856  0.2634 -0.7595 -0.8315
14059TIP3    H142134   0.825   3.558   0.879  1.1012 -0.5653  3.0476
14059TIP3    H242135   0.925   3.659   0.933  2.1918  2.0259 -3.0516
14060TIP3   OH242136   1.899   2.357   5.131 -0.0449  0.4109 -0.0011
14060TIP3    H142137   1.925   2.270   5.102 -2.0046 -0.4241  0.5757
14060TIP3    H242138   1.854   2.395   5.055 -1.0494  0.0585  0.3972
14061TIP3   OH242139   3.775   6.915   1.562 -0.5092  0.3385 -0.2505
14061TIP3    H142140   3.822   6.850   1.510 -0.8766  0.3963 -0.6609
14061TIP3    H242141   3.752   6.870   1.643  0.3801  0.3526  0.0257
14062TIP3   OH242142   1.740   5.711   2.153 -0.2652 -0.2048 -0.4076
14062TIP3    H142143   1.719   5.643   2.217  0.2053  1.4884  1.6598
14062TIP3    H242144   1.812   5.674   2.102  0.4079 -1.0668  1.0880
14063TIP3   OH242145   3.425   4.671   4.848 -0.7594 -0.1619  0.2281
14063TIP3    H142146   3.410   4.607   4.780 -0.3831 -0.5417  0.4986
14063TIP3    H242147   3.413   4.756   4.805 -0.6720 -0.4018 -0.2702
14064TIP3   OH242148   5.704   0.715   5.542  0.5004  0.0707 -0.1999
14064TIP3    H142149   5.683   0.786   5.602 -1.4063 -3.0211  3.1416
14064TIP3    H242150   5.625   0.705   5.488  0.6279  0.2171 -0.4170
14065TIP3   OH242151   1.311   3.360   4.697  0.2685 -0.1940 -0.4248
14065TIP3    H142152   1.367   3.379   4.772 -0.0138  1.8255 -0.6849
14065TIP3    H242153   1.370   3.356   4.623  0.5238 -2.0156 -0.1793
14066TIP3   OH242154   1.258   0.277   3.003 -0.1062 -0.5669 -0.5062
14066TIP3    H142155   1.337   0.304   3.050 -0.3219 -2.0792  0.8210
14066TIP3    H242156   1.199   0.352   3.009  0.6931  0.0577 -0.2644
14067TIP3   OH242157   6.979   4.098   3.866 -0.0265  0.0457 -0.2089
14067TIP3    H142158   7.048   4.144   3.818 -0.3004  0.5650 -0.1136
14067TIP3    H242159   6.953   4.160   3.935  1.2394 -1.1426  1.4326
14068TIP3   OH242160   5.481   0.418   3.408 -0.2022  0.2692 -0.0892
14068TIP3    H142161   5.449   0.447   3.322  2.5309  2.4441 -0.5220
14068TIP3    H242162   5.426   0.465   3.471 -0.1669  1.2221 -0.7414
14069TIP3   OH242163   3.763   6.928   3.123 -0.1012 -0.0278  0.7596
14069TIP3    H142164   3.822   6.869   3.171  0.5129  0.8616  1.1248
14069TIP3    H242165   3.734   6.991   3.189  1.7901  2.0364 -0.2575
14070TIP3   OH242166   5.494   1.814   6.487 -0.2580  0.1600  0.4846
14070TIP3    H142167   5.424   1.750   6.489  0.9768 -1.2162  1.0633
14070TIP3    H242168   5.554   1.788   6.556  0.7043  1.4605  0.1958
14071TIP3   OH242169   0.451   2.233   3.941 -0.8867 -0.1684 -0.2457
14071TIP3    H142170   0.491   2.180   4.010 -2.2174 -0.3689  0.4124
14071TIP3    H242171   0.478   2.323   3.960 -0.8061 -0.2907  0.2220
14072TIP3   OH242172   1.878   0.949   2.886 -0.6903 -0.4364 -0.1349
14072TIP3    H142173   1.785   0.928   2.883 -0.3855 -1.8573 -0.3077
14072TIP3    H242174   1.894   0.996   2.804 -0.9464 -1.6568 -0.9160
14073TIP3   OH242175   6.741   2.633   6.778  0.1829  0.0933 -0.0917
14073TIP3    H142176   6.717   2.596   6.694  0.6416  0.6796 -0.4913
14073TIP3    H242177   6.659   2.668   6.814  0.3617  1.9708 -1.3822
14074TIP3   OH242178   5.202   2.237   2.019 -0.0086  0.0530  0.1147
14074TIP3    H142179   5.196   2.324   1.979 -1.5469 -0.6438 -1.3364
14074TIP3    H242180   5.113   2.219   2.050  0.2963 -0.9855  0.4348
14075TIP3   OH242181   7.830   6.466   5.330 -0.2033  0.0033  0.1931
14075TIP3    H142182   7.751   6.497   5.375 -1.3272  1.9740 -2.8699
14075TIP3    H242183   7.894   6.537   5.342  1.0105 -1.3376  2.1753
14076TIP3   OH242184   6.509   5.650   2.590  0.0068 -0.5778  0.1355
14076TIP3    H142185   6.543   5.721   2.644 -0.1131  0.0749 -0.6352
14076TIP3    H242186   6.582   5.626   2.533 -0.1583 -0.6218 -0.0591
14077TIP3   OH242187   6.411   7.007   1.726  0.6600  0.3454 -0.8410
14077TIP3    H142188   6.500   6.978   1.748 -0.2744 -2.2355 -0.1285
14077TIP3    H242189   6.357   6.971   1.796 -0.9798  1.8925 -1.2516
14078TIP3   OH242190   5.166   3.444   1.193  0.3859  0.1850  0.2489
14078TIP3    H142191   5.137   3.358   1.164 -0.3972  0.6925 -0.5691
14078TIP3    H242192   5.260   3.435   1.208 -0.1141 -1.5116  2.9247
14079TIP3   OH242193   2.397   4.650   0.929  0.6618  0.1709 -0.2384
14079TIP3    H142194   2.389   4.666   0.835 -0.1309  0.1533 -0.1779
14079TIP3    H242195   2.313   4.614   0.955  0.4248  1.3366  0.7135
14080TIP3   OH242196   4.629   4.245   2.259  0.3577 -1.0000  0.1963
14080TIP3    H142197   4.678   4.216   2.336 -0.6235  0.0335  1.2349
14080TIP3    H242198   4.683   4.313   2.220  1.9075 -2.9813 -1.3447
14081TIP3   OH242199   4.109   1.061   3.800 -0.2665 -0.1759 -0.1699
14081TIP3    H142200   4.133   1.101   3.884 -0.2847 -0.2412 -0.1327
14081TIP3    H242201   4.020   1.092   3.783  0.1119  0.6625 -0.6766
14082TIP3   OH242202   0.379   6.859   0.450 -0.3157  0.4163 -0.0596
14082TIP3    H142203   0.361   6.771   0.418 -1.5776  0.9195 -0.8261
14082TIP3    H242204   0.390   6.848   0.545 -1.0786 -0.4903 -0.0577
14083TIP3   OH242205   0.574   6.016   6.727  0.4031  0.4780  0.0960
14083TIP3    H142206   0.592   6.105   6.696 -1.5366  1.0159  0.4213
14083TIP3    H242207   0.530   5.973   6.654  1.1530 -0.1846  0.0105
14084TIP3   OH242208   0.476   7.064   3.373 -0.5564  0.4344  0.0249
14084TIP3    H142209   0.408   7.087   3.437 -0.7184  0.5141 -0.1737
14084TIP3    H242210   0.468   7.132   3.306 -0.7847  0.0135 -0.3804
14085TIP3   OH242211   8.147   7.051   0.726  0.7042  0.3619  0.0119
14085TIP3    H142212   8.120   6.965   0.757 -0.4895  0.4773 -0.6537
14085TIP3    H242213   8.137   7.047   0.631  0.3060  1.3419 -0.0009
14086TIP3   OH242214   7.498   3.207   2.815 -0.0438  0.1750  0.2577
14086TIP3    H142215   7.460   3.122   2.796 -0.1696  0.4212 -0.6486
14086TIP3    H242216   7.590   3.199   2.790 -0.3252  0.6580 -1.0474
14087TIP3   OH242217   2.431   1.776   0.613  0.6302 -0.2781  0.1449
14087TIP3    H142218   2.353   1.785   0.667 -0.0121 -0.0866 -0.7826
14087TIP3    H242219   2.420   1.691   0.569  0.5149  0.1303 -0.6314
14088TIP3   OH242220   0.568   0.317   1.743 -0.0055 -0.4271  0.5059
14088TIP3    H142221   0.629   0.285   1.809  0.9560  0.2726  0.0033
14088TIP3    H242222   0.619   0.314   1.661 -0.6061  0.2764  0.0932
14089TIP3   OH242223   5.527   1.310   6.509  0.1386  0.9292  0.5636
14089TIP3    H142224   5.529   1.262   6.592 -0.2445  0.5567  0.3618
14089TIP3    H242225   5.477   1.254   6.450 -1.7612  2.2772  0.7853
14090TIP3   OH242226   4.030   1.613   1.062  0.4304 -0.2054  0.5079
14090TIP3    H142227   3.949   1.591   1.016  0.9283 -0.1808 -0.3908
14090TIP3    H242228   4.064   1.529   1.093  1.6757 -0.6394 -1.8336
14091TIP3   OH242229   5.746   7.587   6.014  0.3644  0.0066 -0.7836
14091TIP3    H142230   5.836   7.553   6.013  1.3378  2.2819  0.4502
14091TIP3    H242231   5.732   7.614   6.105 -1.3766  0.2101 -1.0856
14092TIP3   OH242232   4.395   1.140   4.319 -0.1867 -0.3374  0.0229
14092TIP3    H142233   4.398   1.131   4.223  1.9842 -1.4967  0.1341
14092TIP3    H242234   4.376   1.052   4.351  0.4577 -0.2461  0.6836
14093TIP3   OH242235   4.831   1.646   6.703 -0.4598 -0.1837 -0.2517
14093TIP3    H142236   4.870   1.579   6.758 -0.8193  0.5814  0.9728
14093TIP3    H242237   4.871   1.728   6.733 -3.7814  0.8320  1.9722
14094TIP3   OH242238   1.023   4.978   1.593  0.1333 -0.2894  0.3160
14094TIP3    H142239   1.002   4.986   1.500  0.8311 -1.1481  0.0626
14094TIP3    H242240   0.998   5.062   1.631  1.1652  0.6133 -0.9119
14095TIP3   OH242241   2.369   2.985   3.200  0.0930  0.1546 -0.2439
14095TIP3    H142242   2.354   2.942   3.116 -0.2357 -1.8229  0.7890
14095TIP3    H242243   2.323   3.069   3.192 -1.8109 -0.9285 -1.2582
14096TIP3   OH242244   1.507   0.674   4.649  0.4448 -0.5395  0.1832
14096TIP3    H142245   1.428   0.641   4.693  0.8317  1.3402  2.4912
14096TIP3    H242246   1.495   0.769   4.647  1.7580 -0.3613 -1.3513
14097TIP3   OH242247   0.434   2.167   3.431  0.5275 -0.3755  0.0568
14097TIP3    H142248   0.473   2.130   3.352 -0.1651  1.1600 -1.0481
14097TIP3    H242249   0.404   2.091   3.481  1.8014 -1.4135 -0.6919
14098TIP3   OH242250   0.902   4.949   5.040  0.1615  0.2821  0.1359
14098TIP3    H142251   0.853   4.911   5.113  0.9224  0.0792  0.5585
14098TIP3    H242252   0.931   4.873   4.989 -1.5534  0.4767 -1.1938
14099TIP3   OH242253   0.886   0.271   6.159  0.2720  0.0039  0.2267
14099TIP3    H142254   0.929   0.189   6.136 -0.0884 -0.3626  0.8159
14099TIP3    H242255   0.793   0.254   6.145  0.2464  0.5492 -0.3275
14100TIP3   OH242256   4.806   0.883   4.311 -0.0277  0.3807 -0.0855
14100TIP3    H142257   4.833   0.910   4.223  3.0410  0.7154  0.8631
14100TIP3    H242258   4.781   0.964   4.354  2.7039  0.9054  0.6519
14101TIP3   OH242259   1.803   5.568   4.913  0.2416  0.4783 -0.0341
14101TIP3    H142260   1.731   5.560   4.851 -1.2693 -0.0149  1.7399
14101TIP3    H242261   1.843   5.481   4.916  0.0691  0.4022  0.0024
14102TIP3   OH242262   6.757   5.653   1.723 -0.1606 -0.0724 -0.3347
14102TIP3    H142263   6.815   5.696   1.785 -1.6777  1.6665 -0.0255
14102TIP3    H242264   6.728   5.723   1.664 -2.3766 -0.7005 -0.1045
14103TIP3   OH242265   6.316   1.126   6.730 -0.4034  0.4151 -0.1720
14103TIP3    H142266   6.311   1.214   6.691  1.0025  1.0998  1.1051
14103TIP3    H242267   6.331   1.142   6.823 -1.9055 -1.1918  0.3951
14104TIP3   OH242268   1.072   5.546   3.175 -0.1353  0.0407 -0.4666
14104TIP3    H142269   0.978   5.526   3.177  0.1903 -1.6188 -0.2457
14104TIP3    H242270   1.081   5.625   3.229 -1.1726 -0.8554  1.0929
14105TIP3   OH242271   0.621   4.251   5.515 -0.5697 -0.2021 -0.4571
14105TIP3    H142272   0.659   4.270   5.429  1.1603  0.9503  0.4915
14105TIP3    H242273   0.555   4.319   5.528  0.9819  1.2900  0.1375
14106TIP3   OH242274   0.886   5.098   3.294 -0.1700  0.2564  0.0618
14106TIP3    H142275   0.860   5.006   3.305  0.7182  0.1228  1.2399
14106TIP3    H242276   0.822   5.147   3.346 -0.8997  0.3604 -0.9083
14107TIP3   OH242277   3.920   3.761   4.295  0.3653 -0.1481 -0.3917
14107TIP3    H142278   3.888   3.850   4.277  1.1240 -0.0511 -1.3682
14107TIP3    H242279   3.976   3.741   4.220  3.8198  0.2855  1.8491
14108TIP3   OH242280   2.628   0.534   3.043  0.4515 -0.4374  0.0773
14108TIP3    H142281   2.585   0.620   3.048 -0.5801 -0.7739 -1.8565
14108TIP3    H242282   2.592   0.485   3.117 -1.2773 -0.1467 -0.5089
14109TIP3   OH242283   3.214   0.978   0.044 -0.3103 -0.7417 -0.4321
14109TIP3    H142284   3.282   0.991   0.110 -0.4914  0.5163 -0.4504
14109TIP3    H242285   3.226   0.889   0.012  1.0062 -0.7024 -0.0791
14110TIP3   OH242286   7.876   1.444   4.024  0.3702  0.2695  0.2883
14110TIP3    H142287   7.809   1.465   3.958 -0.2392 -1.2470  0.3923
14110TIP3    H242288   7.933   1.380   3.981  1.0771  0.6556  0.6191
14111TIP3   OH242289   0.476   1.357   6.602 -0.3829 -0.6172  0.5348
14111TIP3    H142290   0.428   1.326   6.679 -0.2369  1.8704  1.7295
14111TIP3    H242291   0.419   1.425   6.564  1.2689  1.0343  0.8530
14112TIP3   OH242292   7.119   0.405   5.193 -1.0264  0.9302  0.1549
14112TIP3    H142293   7.146   0.313   5.193  0.9487  1.4439  1.4828
14112TIP3    H242294   7.102   0.424   5.285 -2.3263  1.6632 -0.2295
14113TIP3   OH242295   6.090   1.156   1.779 -0.0550 -0.5672 -0.0572
14113TIP3    H142296   6.056   1.217   1.713 -0.6495  0.1821  0.9128
14113TIP3    H242297   6.181   1.183   1.791  0.1486 -0.9046 -0.7805
14114TIP3   OH242298   4.784   7.700   4.561  0.5387 -0.1625 -0.0157
14114TIP3    H142299   4.850   7.700   4.492  1.0645  1.9229  0.4034
14114TIP3    H242300   4.731   7.622   4.544  0.8564  0.0750 -2.5641
14115TIP3   OH242301   2.013   1.380   4.029 -0.1732 -0.2138 -0.0547
14115TIP3    H142302   2.022   1.356   4.121 -3.4940 -0.5012  0.3221
14115TIP3    H242303   1.992   1.473   4.030  0.7225  0.0056 -0.6181
14116TIP3   OH242304   3.829   3.357   4.815  0.9687 -0.2259  0.6702
14116TIP3    H142305   3.800   3.406   4.738 -1.3961 -2.5673 -0.0304
14116TIP3    H242306   3.784   3.399   4.888 -0.8929 -1.1477  0.0975
14117TIP3   OH242307   5.464   1.612   3.046  0.1168  0.4125  0.5538
14117TIP3    H142308   5.555   1.583   3.040 -0.4539 -1.1609 -2.5131
14117TIP3    H242309   5.419   1.540   3.090  0.1953  0.8377  1.3469
14118TIP3   OH242310   5.512   2.795   2.905 -0.2548 -0.3474 -0.0193
14118TIP3    H142311   5.473   2.856   2.843 -0.1648 -1.3673 -1.1150
14118TIP3    H242312   5.458   2.801   2.983 -0.2662  1.0965 -0.1194
14119TIP3   OH242313   1.406   0.861   5.952 -0.5088  0.0872  0.0371
14119TIP3    H142314   1.375   0.809   6.026  1.9497 -0.7710  0.5438
14119TIP3    H242315   1.326   0.886   5.905 -1.9080 -2.7925  0.6607
14120TIP3   OH242316   4.838   5.208   2.814  0.1235 -0.6756  0.3403
14120TIP3    H142317   4.784   5.255   2.750 -0.0562 -1.0202  0.2341
14120TIP3    H242318   4.779   5.191   2.887  0.0057 -1.2916  0.1100
14121TIP3   OH242319   7.672   5.362   3.811  0.2841 -0.4755 -0.7629
14121TIP3    H142320   7.753   5.361   3.863 -1.6869 -1.0719  2.5736
14121TIP3    H242321   7.631   5.446   3.833 -0.5601 -0.6889 -1.4862
14122TIP3   OH242322   6.647   3.202   5.020 -0.2775 -0.1269  0.1843
14122TIP3    H142323   6.592   3.215   5.098 -0.0059  0.4346  0.2823
14122TIP3    H242324   6.734   3.230   5.047 -0.5179  1.7746 -0.8283
14123TIP3   OH242325   0.453   1.441   2.131  0.5418  0.9030  0.6982
14123TIP3    H142326   0.491   1.353   2.142 -0.2232  0.4515 -0.1321
14123TIP3    H242327   0.527   1.500   2.138  1.0165  0.2306  1.7446
14124TIP3   OH242328   1.540   3.550   1.130  0.1012 -0.1545  0.2330
14124TIP3    H142329   1.616   3.586   1.174 -0.5465  0.0631  1.2049
14124TIP3    H242330   1.523   3.467   1.174 -1.5157  0.8056  1.5566
14125TIP3   OH242331   2.055   2.350   5.906  0.1248  0.2780  0.0590
14125TIP3    H142332   2.006   2.416   5.857  0.1089  0.5184  0.3938
14125TIP3    H242333   2.133   2.396   5.937  1.0997 -0.3640 -1.3354
14126TIP3   OH242334   8.241   7.414   3.715 -0.2845 -0.7119 -0.4339
14126TIP3    H142335   8.225   7.506   3.736 -0.8405 -0.5950 -1.3359
14126TIP3    H242336   8.292   7.382   3.789 -0.9140  0.0658  0.3648
14127TIP3   OH242337   2.191   0.448   1.722  0.0351 -0.2003 -0.6427
14127TIP3    H142338   2.170   0.526   1.670 -2.6315  0.3785  1.0820
14127TIP3    H242339   2.115   0.391   1.710  0.5668 -1.1914  0.5286
14128TIP3   OH242340   5.414   5.821   3.529  0.1741  0.4722  0.2863
14128TIP3    H142341   5.418   5.826   3.433 -0.8281  2.8648  0.2969
14128TIP3    H242342   5.436   5.910   3.558 -1.8546  0.4384  2.1433
14129TIP3   OH242343   1.684   3.518   3.078 -0.5040  0.3211 -0.0978
14129TIP3    H142344   1.756   3.511   3.014 -1.0298  2.8521 -1.0819
14129TIP3    H242345   1.724   3.493   3.161  1.4180  1.1694 -0.6974
14130TIP3   OH242346   7.128   0.381   2.455  0.1903 -0.1020 -0.2963
14130TIP3    H142347   7.219   0.353   2.464 -0.0969 -1.0417 -0.1655
14130TIP3    H242348   7.077   0.308   2.492 -0.5301  1.9208  3.1085
14131TIP3   OH242349   5.371   3.715   2.633  0.0899  0.2010 -0.4884
14131TIP3    H142350   5.407   3.785   2.688  1.3821 -0.6165 -0.2226
14131TIP3    H242351   5.345   3.647   2.696 -1.9147  0.7423 -0.6896
14132TIP3   OH242352   5.919   5.463   2.027  0.0891 -0.7611  0.1599
14132TIP3    H142353   5.923   5.371   2.051 -0.0828 -0.6797  0.5003
14132TIP3    H242354   6.011   5.488   2.013  0.0481 -1.3835 -1.5055
14133TIP3   OH242355   0.437   5.589   2.696 -0.2551  0.3695  0.5250
14133TIP3    H142356   0.441   5.592   2.792  1.6413  0.5110  0.4681
14133TIP3    H242357   0.445   5.680   2.669  0.1434  0.2388  0.2038
14134TIP3   OH242358   1.585   7.447   5.538 -0.0345 -0.1152 -0.0640
14134TIP3    H142359   1.530   7.380   5.497  0.1815 -0.3294 -0.0069
14134TIP3    H242360   1.532   7.527   5.534 -0.6199 -0.4625  0.5954
14135TIP3   OH242361   5.579   4.920   6.451 -0.0117 -0.4590 -0.1417
14135TIP3    H142362   5.593   4.964   6.367 -1.5668  0.9200  0.2690
14135TIP3    H242363   5.643   4.959   6.510  0.2067 -0.4780 -0.3643
14136TIP3   OH242364   1.456   5.452   4.071  0.8971 -0.0553 -0.1586
14136TIP3    H142365   1.392   5.432   4.004 -0.9412 -0.5550  1.6403
14136TIP3    H242366   1.474   5.368   4.113 -0.3877  0.6175  1.9238
14137TIP3   OH242367   7.136   1.742   3.829 -0.1957 -0.0644  0.2913
14137TIP3    H142368   7.223   1.706   3.816 -0.5132 -1.1059  0.9763
14137TIP3    H242369   7.151   1.831   3.859  0.6721 -0.7383  1.9543
14138TIP3   OH242370   7.758   2.526   4.216 -0.2294 -0.0726  0.6044
14138TIP3    H142371   7.763   2.497   4.307 -0.6831  0.9743  0.9749
14138TIP3    H242372   7.681   2.583   4.213 -1.0864 -1.2241 -0.7557
14139TIP3   OH242373   7.453   3.831   0.221 -0.0737 -0.2108  0.4490
14139TIP3    H142374   7.484   3.909   0.175  0.1198  0.8436  2.2682
14139TIP3    H242375   7.486   3.841   0.310  0.9819 -3.0117  0.4563
14140TIP3   OH242376   0.227   6.010   4.481  1.0770  0.1097  0.5907
14140TIP3    H142377   0.235   6.105   4.471  2.6465  0.2071  2.2414
14140TIP3    H242378   0.318   5.979   4.488  0.5610 -1.3949  0.9878
14141TIP3   OH242379   1.810   4.596   1.532  0.4191  0.5651 -0.4216
14141TIP3    H142380   1.899   4.607   1.498  0.9098  2.1748  1.2391
14141TIP3    H242381   1.758   4.660   1.484  0.4603  0.6319 -0.3776
14142TIP3   OH242382   3.432   1.763   2.634 -0.4707  0.2112 -0.0657
14142TIP3    H142383   3.436   1.852   2.671  0.2761 -0.2088  0.9390
14142TIP3    H242384   3.339   1.740   2.638 -0.9617  1.6048 -2.0466
14143TIP3   OH242385   1.299   1.780   3.808 -0.6238 -0.8729  0.2480
14143TIP3    H142386   1.279   1.873   3.795  0.4163 -0.7261 -0.3608
14143TIP3    H242387   1.222   1.746   3.853 -1.7126 -0.0581 -0.9245
14144TIP3   OH242388   4.953   5.415   3.205  0.0951 -0.2626 -0.2059
14144TIP3    H142389   4.887   5.427   3.272  0.0372 -0.9004 -0.1406
14144TIP3    H242390   5.035   5.403   3.254  0.4351  1.4261 -0.3005
14145TIP3   OH242391   2.357   4.560   5.217  0.2074 -0.2791  0.1036
14145TIP3    H142392   2.321   4.624   5.156  0.1124 -0.7838 -0.3739
14145TIP3    H242393   2.432   4.522   5.171  1.7359  1.1356  1.2838
14146TIP3   OH242394  -0.031   1.147   1.670 -0.0263  0.2123  0.9134
14146TIP3    H142395   0.012   1.066   1.697  1.1342 -0.0289 -1.4013
14146TIP3    H242396   0.036   1.196   1.623 -1.5903  0.9072 -0.7497
14147TIP3   OH242397   3.930   7.616   1.617 -0.1696  0.6248 -0.0380
14147TIP3    H142398   3.851   7.572   1.650 -0.4446 -1.4537 -3.0362
14147TIP3    H242399   3.973   7.550   1.562  0.5719  3.4616 -3.1949
14148TIP3   OH242400   6.047   2.324   4.105  0.6096  0.4003 -0.4637
14148TIP3    H142401   6.040   2.364   4.192  1.9353  0.3510 -0.3120
14148TIP3    H242402   6.051   2.398   4.045  1.9641  0.5220 -0.2699
14149TIP3   OH242403   1.434   7.702   6.754  0.2516  0.3052  0.4019
14149TIP3    H142404   1.434   7.647   6.676 -1.7841  1.7750 -0.7170
14149TIP3    H242405   1.484   7.779   6.729  2.1135 -0.4389  1.5884
14150TIP3   OH242406   2.899   1.325   1.476 -0.1473  0.3501 -0.4088
14150TIP3    H142407   2.827   1.265   1.458  1.5465 -2.0974  0.4166
14150TIP3    H242408   2.940   1.340   1.391 -0.2950 -0.0651 -0.5539
14151TIP3   OH242409   1.860   2.990   1.427 -0.0473 -0.1909 -0.1005
14151TIP3    H142410   1.914   2.933   1.481  0.1949  0.6189  0.5212
14151TIP3    H242411   1.922   3.049   1.384 -0.2882 -0.4363 -0.8037
14152TIP3   OH242412   2.859   4.049   4.215 -0.0684 -0.0988 -0.0411
14152TIP3    H142413   2.899   4.071   4.300 -0.3179 -0.7153  0.2426
14152TIP3    H242414   2.864   4.130   4.165  2.2719 -0.3411 -0.3154
14153TIP3   OH242415   3.685   7.745   5.902  0.4925 -0.5960 -0.3021
14153TIP3    H142416   3.594   7.730   5.875 -0.0365  0.7941  0.6077
14153TIP3    H242417   3.686   7.725   5.996  0.4981  1.7147  0.2554
14154TIP3   OH242418   3.056   3.503   1.159  0.0351 -0.3196  0.4455
14154TIP3    H142419   3.038   3.596   1.173  0.5534 -0.2760  0.8390
14154TIP3    H242420   2.998   3.457   1.220  0.5507 -0.2165  1.0114
14155TIP3   OH242421   3.501   6.403   3.758  0.0949 -0.0471 -0.4129
14155TIP3    H142422   3.584   6.389   3.803  0.4697 -0.0667 -1.1006
14155TIP3    H242423   3.434   6.381   3.824  0.6112 -3.5161 -0.8558
14156TIP3   OH242424   2.670   5.377   1.755  0.4501  0.4276 -0.0488
14156TIP3    H142425   2.741   5.392   1.692  1.0620  3.1740  1.1601
14156TIP3    H242426   2.713   5.335   1.830  0.5975  1.1583  0.2769
14157TIP3   OH242427   0.090   6.250   3.427  0.2589  0.1284 -0.5154
14157TIP3    H142428   0.123   6.275   3.513  0.2969 -1.3720 -0.0731
14157TIP3    H242429   0.169   6.235   3.375  0.2576 -0.4504 -0.3571
14158TIP3   OH242430   7.937   2.195   2.552 -0.1526 -0.3846 -0.3637
14158TIP3    H142431   7.911   2.112   2.593 -0.2410  0.4473  1.3543
14158TIP3    H242432   7.898   2.262   2.608 -0.6621  0.8375 -2.1073
14159TIP3   OH242433   1.145   1.353   4.986  1.1461 -0.2380  0.2157
14159TIP3    H142434   1.098   1.423   5.032  0.6681 -0.6286  0.3327
14159TIP3    H242435   1.187   1.302   5.055 -1.2652 -2.0653  0.4520
14160TIP3   OH242436   6.229   3.038   1.115  0.1471 -0.0529 -0.4581
14160TIP3    H142437   6.299   3.029   1.180 -0.0184  0.8980 -0.1328
14160TIP3    H242438   6.155   3.074   1.164  0.6676  2.7244 -1.5342
14161TIP3   OH242439   6.481   2.601   2.581 -0.2819  0.0187  0.4261
14161TIP3    H142440   6.521   2.540   2.644 -2.1862  0.1567  1.8630
14161TIP3    H242441   6.523   2.580   2.498  1.9977 -0.5187  1.6114
14162TIP3   OH242442   5.595   6.518   3.089 -0.1880  0.3522 -0.1273
14162TIP3    H142443   5.582   6.609   3.061 -1.4820 -0.2618 -1.6416
14162TIP3    H242444   5.641   6.477   3.016  0.8524 -0.1155  0.7658
14163TIP3   OH242445   1.083   7.496   1.984  0.9088  0.1371  0.6461
14163TIP3    H142446   1.135   7.568   1.948 -1.6253  1.6270 -0.3579
14163TIP3    H242447   1.055   7.528   2.069 -1.1582  0.9541 -0.2631
14164TIP3   OH242448   1.012   3.789   6.560  0.0716 -0.4819 -0.2240
14164TIP3    H142449   1.051   3.833   6.484 -3.2408 -0.6717 -2.2657
14164TIP3    H242450   1.045   3.699   6.555 -0.5454 -0.6660 -1.9235
14165TIP3   OH242451   6.916   5.893   3.694  0.2130  0.6119  0.2243
14165TIP3    H142452   6.925   5.889   3.790 -2.4268  0.3807  0.5318
14165TIP3    H242453   6.821   5.890   3.679  0.5798  0.4438 -2.4292
14166TIP3   OH242454   1.606   3.466   0.459 -0.2096  0.3330  0.1561
14166TIP3    H142455   1.547   3.403   0.418 -1.7354  1.8530 -0.1261
14166TIP3    H242456   1.549   3.517   0.517  0.6210  2.4117 -0.7562
14167TIP3   OH242457   0.340   2.793   0.425  0.0030 -0.3126 -0.2172
14167TIP3    H142458   0.358   2.813   0.333 -1.8215  1.6358 -0.2287
14167TIP3    H242459   0.269   2.728   0.421 -1.2878  1.0450 -0.2522
14168TIP3   OH242460   3.274   7.544   1.702  0.2705 -0.3118  0.3330
14168TIP3    H142461   3.214   7.501   1.641  1.7810 -1.7767 -0.1711
14168TIP3    H242462   3.270   7.637   1.678 -1.4350 -0.4198  0.0416
14169TIP3   OH242463   4.323   4.712   0.919  0.6138 -0.1678  0.1676
14169TIP3    H142464   4.242   4.672   0.952  1.1111 -1.4229 -0.1010
14169TIP3    H242465   4.344   4.778   0.985 -0.6901  0.2682  0.1822
14170TIP3   OH242466   4.431   6.114   4.233 -0.2327  0.1051 -0.5064
14170TIP3    H142467   4.510   6.060   4.224 -0.5489 -0.4233 -0.1071
14170TIP3    H242468   4.463   6.197   4.268  0.1460 -0.1132 -0.3302
14171TIP3   OH242469   5.885   2.175   0.576  0.1414  0.1249  0.4098
14171TIP3    H142470   5.927   2.224   0.505  0.1844  0.3292  0.5749
14171TIP3    H242471   5.829   2.240   0.620 -1.2850 -0.4053 -0.5417
14172TIP3   OH242472   5.075   5.223   3.847  0.1995  0.2177  0.0042
14172TIP3    H142473   5.165   5.205   3.875  0.8483  0.2582 -1.8681
14172TIP3    H242474   5.075   5.316   3.826 -0.5483  0.4118  0.8299
14173TIP3   OH242475   7.602   0.917   1.018  0.3332  0.1417  0.1026
14173TIP3    H142476   7.666   0.902   0.948  0.5069 -0.7925  0.4482
14173TIP3    H242477   7.533   0.853   1.002  0.0519  0.3669  0.4058
14174TIP3   OH242478   3.986   1.413   2.490 -0.0524 -1.2540 -0.3600
14174TIP3    H142479   3.942   1.479   2.544  0.9522 -0.4318 -0.5102
14174TIP3    H242480   3.955   1.329   2.525  1.1024 -0.7903  2.0556
14175TIP3   OH242481   4.054   0.288   1.455 -0.1113  0.1876 -0.0225
14175TIP3    H142482   4.111   0.353   1.498  0.4401 -0.4842  0.2889
14175TIP3    H242483   4.113   0.239   1.398  0.0359 -1.6778  1.6023
14176TIP3   OH242484   3.287   1.644   0.840  0.7509 -0.4315 -0.1129
14176TIP3    H142485   3.201   1.685   0.835  1.4595  1.0565 -0.8767
14176TIP3    H242486   3.310   1.627   0.748  1.9252  0.6669 -0.0425
14177TIP3   OH242487   1.766   2.890   1.857  0.3642 -0.4557  0.9107
14177TIP3    H142488   1.758   2.795   1.841  1.4493 -0.4942  0.5111
14177TIP3    H242489   1.828   2.897   1.929  1.0641 -0.0274  0.2833
14178TIP3   OH242490   3.772   3.195   4.389  0.3387 -0.4493 -0.1403
14178TIP3    H142491   3.826   3.145   4.450  1.0229  1.0507  0.5147
14178TIP3    H242492   3.827   3.204   4.311  0.7367  0.3935  0.2307
14179TIP3   OH242493   2.142   4.523   0.971 -0.0946  0.1664 -0.3091
14179TIP3    H142494   2.075   4.589   0.986  0.9611  1.7092 -2.0269
14179TIP3    H242495   2.121   4.486   0.885  0.7950  0.1230 -0.5206
14180TIP3   OH242496   4.302   6.757   0.279  0.1302 -0.3207 -0.5469
14180TIP3    H142497   4.344   6.722   0.200  1.3850  0.6624 -0.3366
14180TIP3    H242498   4.288   6.850   0.260  1.2669  0.1349  0.6980
14181TIP3   OH242499   7.801   4.773   3.110  0.3826  0.1411 -0.6549
14181TIP3    H142500   7.851   4.804   3.035  0.7634 -0.8166 -0.7996
14181TIP3    H242501   7.750   4.699   3.077  2.4548 -1.9698  0.5567
14182TIP3   OH242502   0.374   1.091   2.105 -0.5608  0.5162  0.3815
14182TIP3    H142503   0.460   1.095   2.064 -0.9927  0.1451 -0.6190
14182TIP3    H242504   0.376   1.156   2.174  1.1183 -0.7260  1.5702
14183TIP3   OH242505   8.128   4.185   4.245 -0.1684 -0.2256  0.2895
14183TIP3    H142506   8.185   4.109   4.233  2.5836  1.3981  2.0246
14183TIP3    H242507   8.054   4.152   4.295 -1.0249 -2.4632 -2.2096
14184TIP3   OH242508   1.569   1.332   0.474  0.3983 -0.2244  0.4211
14184TIP3    H142509   1.496   1.273   0.455  0.4185 -0.2298  0.3590
14184TIP3    H242510   1.527   1.413   0.504  0.3773 -0.3556  0.7516
14185TIP3   OH242511   6.521   3.585   5.264 -0.4292  0.0092 -0.3720
14185TIP3    H142512   6.551   3.615   5.350 -0.5799 -0.2951 -0.2118
14185TIP3    H242513   6.446   3.528   5.283 -1.3268  1.0187 -0.7877
14186TIP3   OH242514   2.855   4.464   4.468  0.4174 -0.5599 -0.4356
14186TIP3    H142515   2.804   4.402   4.416 -1.0019 -1.7306  2.1822
14186TIP3    H242516   2.939   4.420   4.483 -0.6182 -2.0138  1.4973
14187TIP3   OH242517   0.649   6.221   2.482  0.1264  0.1296 -0.3759
14187TIP3    H142518   0.688   6.289   2.427  0.1224 -0.0653 -0.6205
14187TIP3    H242519   0.588   6.175   2.424 -1.2542  1.0907  0.2525
14188TIP3   OH242520   7.746   7.751   0.036 -0.3180 -0.8715 -0.2601
14188TIP3    H142521   7.754   7.747   0.131  0.8540 -0.8084 -0.3396
14188TIP3    H242522   7.823   7.705   0.003  0.9890  1.7716 -1.1692
14189TIP3   OH242523   6.759   1.208   2.031 -0.5720  0.4754 -0.2290
14189TIP3    H142524   6.754   1.148   1.956 -0.2986  0.8560 -0.5588
14189TIP3    H242525   6.816   1.163   2.093  2.0857  1.6098 -1.6762
14190TIP3   OH242526   4.424   5.339   0.680  0.4576 -0.5843  0.3819
14190TIP3    H142527   4.463   5.287   0.751 -0.3741 -1.5776  0.1382
14190TIP3    H242528   4.493   5.347   0.615  1.1949  0.2358  1.2314
14191TIP3   OH242529   6.298   1.698   6.672 -0.3464 -0.1081  0.6485
14191TIP3    H142530   6.389   1.711   6.645 -0.7775  2.6459  0.1963
14191TIP3    H242531   6.254   1.666   6.594  0.1726 -1.2735  0.8168
14192TIP3   OH242532   0.717   4.077   3.475  0.2483  0.4163  0.2231
14192TIP3    H142533   0.771   4.141   3.521 -1.2508  1.2729  0.8736
14192TIP3    H242534   0.657   4.043   3.541 -0.6316  0.1829 -0.6555
14193TIP3   OH242535   6.986   7.623   6.188  0.1351 -0.1911  0.6288
14193TIP3    H142536   7.016   7.564   6.257 -1.0350 -0.3737  1.0042
14193TIP3    H242537   7.056   7.622   6.123  0.6113 -1.1447  1.1459
14194TIP3   OH242538   4.365   5.252   4.666  0.3942 -0.4254  0.4110
14194TIP3    H142539   4.413   5.173   4.644  0.0011 -0.5428 -0.0635
14194TIP3    H242540   4.291   5.222   4.719  0.7152 -0.2724  0.9524
14195TIP3   OH242541   0.285   3.298   2.584  0.0604  0.4782  0.0185
14195TIP3    H142542   0.355   3.332   2.640  0.4451 -0.6259  0.2362
14195TIP3    H242543   0.295   3.203   2.589 -0.3088  0.3407 -1.4177
14196TIP3   OH242544   3.831   0.994   0.308 -0.2705 -0.2426  0.0940
14196TIP3    H142545   3.894   1.043   0.255  0.6891 -2.9279 -1.4483
14196TIP3    H242546   3.787   0.936   0.246 -2.1504 -0.5691  1.6332
14197TIP3   OH242547   0.309   5.802   6.764 -0.2615 -0.0089 -0.1452
14197TIP3    H142548   0.243   5.863   6.730 -0.6745 -0.5773 -0.3845
14197TIP3    H242549   0.355   5.852   6.831 -2.5390 -0.3304  1.7948
14198TIP3   OH242550   7.210   2.533   0.738 -0.3350  0.1205 -0.2089
14198TIP3    H142551   7.266   2.590   0.685 -1.4421  0.4168 -1.1031
14198TIP3    H242552   7.164   2.479   0.674 -2.3622  1.0896  0.3401
14199TIP3   OH242553   6.068   1.208   5.614 -0.1363 -0.3324 -0.1677
14199TIP3    H142554   5.991   1.263   5.598 -1.4938 -2.2981 -0.8955
14199TIP3    H242555   6.116   1.210   5.531 -1.3411 -1.8480 -0.9697
14200TIP3   OH242556   5.433   3.087   0.801 -0.4519 -0.4848  0.5389
14200TIP3    H142557   5.394   3.044   0.725  1.1467 -0.1730 -0.5174
14200TIP3    H242558   5.410   3.179   0.791  2.3514  0.1492 -1.4315
14201TIP3   OH242559   7.298   6.375   0.491  0.5349  0.4350 -0.3063
14201TIP3    H142560   7.301   6.358   0.585  2.0550 -2.9295 -0.8142
14201TIP3    H242561   7.205   6.378   0.470  0.1762  0.2850  1.1483
14202TIP3   OH242562   1.501   6.087   0.469  0.1211 -0.5730  0.0466
14202TIP3    H142563   1.550   6.060   0.547 -0.0844 -0.2430  0.2921
14202TIP3    H242564   1.520   6.020   0.404  0.3170 -0.8356  0.3747
14203TIP3   OH242565   3.783   1.572   6.294  0.5374  0.0857  0.0904
14203TIP3    H142566   3.770   1.478   6.308  0.9658 -0.0074 -0.1149
14203TIP3    H242567   3.863   1.592   6.343 -0.5889  0.7450  1.7513
14204TIP3   OH242568   7.876   0.839   6.043  0.1937  0.3661  0.3470
14204TIP3    H142569   7.893   0.747   6.023  2.7602  1.1730 -1.7680
14204TIP3    H242570   7.893   0.847   6.137  2.2133 -0.9504  0.1609
14205TIP3   OH242571   0.168   6.047   2.643  0.1238 -0.2244 -0.0175
14205TIP3    H142572   0.241   6.003   2.599 -0.1802  0.7062 -1.5176
14205TIP3    H242573   0.090   6.018   2.595 -0.1794  1.1572 -0.4059
14206TIP3   OH242574   7.992   0.204   5.818 -0.2123 -0.0032 -0.5429
14206TIP3    H142575   7.946   0.233   5.897  0.4007  1.8834 -0.8397
14206TIP3    H242576   7.972   0.271   5.753  2.2280  0.4224 -0.9306
14207TIP3   OH242577   1.218   2.707   3.818  0.3974 -0.0698  0.1125
14207TIP3    H142578   1.160   2.647   3.866 -1.9820  0.6150 -1.7507
14207TIP3    H242579   1.294   2.654   3.796 -1.6022 -2.4840 -1.4424
14208TIP3   OH242580   0.391   2.824   4.509 -0.5911  0.0415 -0.8374
14208TIP3    H142581   0.466   2.882   4.522  0.0210 -0.7242 -0.8607
14208TIP3    H242582   0.424   2.737   4.531 -2.3903  0.0520  2.5517
14209TIP3   OH242583   3.438   3.469   3.496  0.1950 -0.4013 -0.0935
14209TIP3    H142584   3.487   3.390   3.518 -0.7455 -0.5903  1.4314
14209TIP3    H242585   3.405   3.452   3.407  2.2772 -0.5372 -0.8888
14210TIP3   OH242586   4.282   3.610   1.398  0.9597  0.3218  1.1994
14210TIP3    H142587   4.356   3.550   1.397  2.3556  1.9398  0.4202
14210TIP3    H242588   4.296   3.667   1.321 -0.1011  1.8234  2.0516
14211TIP3   OH242589   2.518   3.219   4.988 -0.1695 -0.1513  0.1503
14211TIP3    H142590   2.518   3.307   4.951  1.9379 -0.6381 -1.1656
14211TIP3    H242591   2.610   3.198   5.000 -0.6393 -2.1091  0.6212
14212TIP3   OH242592   8.250   0.765   5.511  0.7292  0.0259  0.0855
14212TIP3    H142593   8.203   0.692   5.472  2.2362 -1.6629  1.2258
14212TIP3    H242594   8.222   0.842   5.462 -1.5625 -1.1748 -0.6139
14213TIP3   OH242595   1.472   4.111   0.676 -0.3683  0.3360  0.1741
14213TIP3    H142596   1.462   4.044   0.744  3.3261 -1.0356 -0.3658
14213TIP3    H242597   1.531   4.176   0.714  0.0927  0.6236 -0.9629
14214TIP3   OH242598   2.039   0.027   1.512 -0.0744 -0.7834  0.6541
14214TIP3    H142599   2.108   0.093   1.510  0.3077 -1.1509  1.2643
14214TIP3    H242600   2.082  -0.052   1.546 -0.0487 -1.9416 -1.8332
14215TIP3   OH242601   1.880   2.276   1.428  0.2694  0.9837 -0.0920
14215TIP3    H142602   1.940   2.293   1.500 -1.2115 -0.6439  1.6469
14215TIP3    H242603   1.930   2.223   1.366  1.3536  1.8012  0.0740
14216TIP3   OH242604   6.365   3.506   0.739  0.1586 -0.1427  0.2022
14216TIP3    H142605   6.401   3.420   0.715 -3.1043 -1.6087  0.0090
14216TIP3    H242606   6.314   3.532   0.662  0.2912  1.5137  0.6534
14217TIP3   OH242607   4.287   7.678   3.005 -0.5732  0.2285  0.3235
14217TIP3    H142608   4.324   7.590   2.996 -0.1242  0.6086 -3.4581
14217TIP3    H242609   4.200   7.672   2.965 -1.1176  1.2447  1.2817
14218TIP3   OH242610   1.423   4.167   4.981 -0.4325  0.3777 -0.4915
14218TIP3    H142611   1.502   4.141   4.935  1.9377  1.2065  2.7251
14218TIP3    H242612   1.388   4.085   5.016  0.3674  0.2353 -0.0041
14219TIP3   OH242613   5.859   0.692   4.209  0.5846 -0.6495  0.0138
14219TIP3    H142614   5.894   0.631   4.145  0.9169 -0.9201  0.4422
14219TIP3    H242615   5.786   0.645   4.251  1.0654 -0.8946  0.5890
14220TIP3   OH242616   3.123   3.202   0.585  0.1869  0.0658 -0.0377
14220TIP3    H142617   3.029   3.185   0.594 -0.3444  2.3587 -0.5064
14220TIP3    H242618   3.165   3.126   0.623 -1.8666 -1.1313 -0.0196
14221TIP3   OH242619   0.722   1.475   4.838 -0.4198  0.0593  0.6384
14221TIP3    H142620   0.689   1.464   4.928 -1.2254  1.6216  0.5751
14221TIP3    H242621   0.725   1.570   4.826  0.3277 -0.1274 -0.7684
14222TIP3   OH242622   5.936   1.927   4.735 -0.8319  0.6148  0.1571
14222TIP3    H142623   6.006   1.902   4.795  0.0335 -0.0722 -1.0874
14222TIP3    H242624   5.962   1.890   4.651 -3.1715 -0.4693 -0.1638
14223TIP3   OH242625   3.098   6.060   0.971  0.0383  0.3968  0.6464
14223TIP3    H142626   3.158   6.002   0.925 -0.3809  1.6853 -1.6545
14223TIP3    H242627   3.137   6.070   1.058  2.4275  0.0873 -0.3074
14224TIP3   OH242628   0.126   3.366   5.350  0.0226  0.1520  0.1321
14224TIP3    H142629   0.120   3.371   5.255  1.4774  0.4948  0.0365
14224TIP3    H242630   0.132   3.272   5.368  2.7175  0.1137 -0.3997
14225TIP3   OH242631   2.481   5.708   2.373 -0.5448 -0.4418  0.4003
14225TIP3    H142632   2.529   5.728   2.293 -1.4978 -5.4894 -1.8715
14225TIP3    H242633   2.394   5.746   2.359  0.0547  0.9409  0.3096
14226TIP3   OH242634   3.295   6.267   3.916  0.0453  0.2098 -1.0493
14226TIP3    H142635   3.263   6.199   3.975 -0.1819 -0.3569 -1.8191
14226TIP3    H242636   3.231   6.271   3.845 -0.9439  2.5229 -0.1133
14227TIP3   OH242637   5.391   1.710   5.198  0.5593 -0.1215 -0.4596
14227TIP3    H142638   5.301   1.725   5.226  0.8232  1.0609 -0.1856
14227TIP3    H242639   5.428   1.798   5.188  0.7031 -0.4344 -3.8480
14228TIP3   OH242640   6.024   7.085   5.023  0.2884  0.3384  0.2485
14228TIP3    H142641   6.108   7.132   5.018  0.5888 -0.2215 -0.0235
14228TIP3    H242642   6.028   7.038   5.106 -0.4319  1.5629  1.0090
14229TIP3   OH242643   4.294   5.971   3.383 -0.1143  0.0369  0.1231
14229TIP3    H142644   4.377   5.923   3.380 -0.7364 -1.3696  2.3613
14229TIP3    H242645   4.295   6.015   3.468 -0.8689  1.6253 -0.6438
14230TIP3   OH242646   6.944   4.857   6.665  0.0873  0.7865 -0.2414
14230TIP3    H142647   6.994   4.835   6.586  1.5544  0.1096  0.8255
14230TIP3    H242648   6.867   4.903   6.633 -0.5876 -1.5541 -2.2624
14231TIP3   OH242649   1.183   5.352   2.955  0.0701  0.5252  0.4318
14231TIP3    H142650   1.126   5.393   2.890 -0.2522  0.1420  0.4696
14231TIP3    H242651   1.159   5.392   3.038 -0.7734 -0.2674  0.5869
14232TIP3   OH242652   3.671   3.779   5.531  0.4991  0.1821  0.2198
14232TIP3    H142653   3.660   3.723   5.608 -0.4303 -0.2926 -0.2442
14232TIP3    H242654   3.606   3.848   5.542  0.2303  0.0038 -0.2296
14233TIP3   OH242655   0.448   3.282   5.124 -0.1468 -0.6172  0.2627
14233TIP3    H142656   0.495   3.201   5.103  0.4477 -0.1017 -0.4664
14233TIP3    H242657   0.476   3.344   5.056 -1.0111  0.0409  0.4923
14234TIP3   OH242658   6.920   5.806   6.058 -0.0321 -0.1463 -0.0156
14234TIP3    H142659   6.887   5.739   6.118  0.1266  0.7492  1.1140
14234TIP3    H242660   6.990   5.762   6.009 -2.0579 -1.7297 -1.6485
14235TIP3   OH242661   2.798   6.234   1.670  0.6174 -0.0966  0.2633
14235TIP3    H142662   2.723   6.231   1.611  1.2303  3.8952 -1.0309
14235TIP3    H242663   2.873   6.212   1.615  0.9172  1.2196  0.1080
14236TIP3   OH242664   3.248   7.796   3.353 -0.0382 -0.1068  0.0044
14236TIP3    H142665   3.229   7.723   3.294  1.3698  0.6354 -1.4699
14236TIP3    H242666   3.189   7.784   3.427 -1.0483 -1.7578 -1.0103
14237TIP3   OH242667   6.350   1.054   3.658  0.1312  0.3509 -0.6588
14237TIP3    H142668   6.423   1.104   3.694 -0.8833  1.9217 -0.6944
14237TIP3    H242669   6.287   1.120   3.629 -2.5890 -0.8343  1.9110
14238TIP3   OH242670   5.492   4.135   0.760  0.3762  0.1943  0.1517
14238TIP3    H142671   5.514   4.228   0.769 -0.8776  0.7331 -1.5848
14238TIP3    H242672   5.465   4.108   0.847  0.7173  1.4879  0.6849
14239TIP3   OH242673   5.970   0.326   5.008 -0.3922 -0.3481  0.3674
14239TIP3    H142674   5.925   0.308   5.090 -1.6251 -1.5513 -0.5268
14239TIP3    H242675   6.040   0.387   5.032 -1.0125 -0.2918  2.2103
14240TIP3   OH242676   2.719   4.674   4.618 -0.1990 -0.1342 -0.2622
14240TIP3    H142677   2.690   4.625   4.542  1.3294  0.9708 -1.6342
14240TIP3    H242678   2.801   4.632   4.645  0.7318  1.1203 -0.9979
14241TIP3   OH242679   7.350   5.614   1.756 -0.3142  0.0534  0.2695
14241TIP3    H142680   7.398   5.688   1.793  1.8765 -1.3448  0.4077
14241TIP3    H242681   7.392   5.598   1.672 -0.4608 -1.3042  0.4351
14242TIP3   OH242682   6.345   6.179   5.480  0.1620  0.2943  0.9752
14242TIP3    H142683   6.411   6.113   5.455 -1.6006 -1.2485  0.1579
14242TIP3    H242684   6.338   6.236   5.403  0.8761  0.7814  1.2577
14243TIP3   OH242685   0.062   6.959   3.954 -0.6131 -0.4818  0.0420
14243TIP3    H142686   0.054   6.864   3.943 -0.3523 -0.6272  0.9702
14243TIP3    H242687   0.124   6.986   3.886 -2.2951 -0.6353 -1.6179
14244TIP3   OH242688   5.653   5.165   5.250  0.0279 -0.1470 -0.2154
14244TIP3    H142689   5.613   5.077   5.255  0.0406 -0.1408  0.0387
14244TIP3    H242690   5.744   5.151   5.278 -0.1213  0.0407  0.3737
14245TIP3   OH242691   4.880   0.798   5.227 -0.1889 -0.6994  0.1763
14245TIP3    H142692   4.938   0.788   5.302 -0.4627 -0.0136  0.4905
14245TIP3    H242693   4.932   0.771   5.152 -0.4577 -3.1741  0.7754
14246TIP3   OH242694   3.659   3.017   1.727  0.3449 -0.8101  0.0929
14246TIP3    H142695   3.579   2.967   1.709  0.5281 -0.3504 -2.2736
14246TIP3    H242696   3.729   2.963   1.690  0.7582  0.2285 -0.6805
14247TIP3   OH242697   7.039   6.858   5.131  0.1211  0.4232 -0.3706
14247TIP3    H142698   6.968   6.922   5.132 -1.2311 -0.7739 -4.0781
14247TIP3    H242699   6.997   6.774   5.148  1.0274 -0.0240 -0.2868
14248TIP3   OH242700   3.276   4.727   0.771  0.6165 -0.1282  0.1937
14248TIP3    H142701   3.196   4.773   0.743  0.9610  0.5904  0.3565
14248TIP3    H242702   3.257   4.635   0.756 -0.7354 -0.0921  1.4315
14249TIP3   OH242703   6.642   5.708   4.970  0.4688  0.0647 -0.2221
14249TIP3    H142704   6.704   5.654   4.922  0.7493 -0.1728  0.4077
14249TIP3    H242705   6.646   5.676   5.060  1.8893  2.2190  0.5536
14250TIP3   OH242706   1.316   1.410   0.299  0.0563  0.2222 -0.3005
14250TIP3    H142707   1.235   1.359   0.296 -0.3129  0.6913  0.9921
14250TIP3    H242708   1.300   1.476   0.366  1.0338  1.1699 -0.9707
14251TIP3   OH242709   3.689   5.783   5.738  0.3543  0.4830  0.7943
14251TIP3    H142710   3.633   5.716   5.777  2.3553 -1.4723  0.5062
14251TIP3    H242711   3.724   5.742   5.659  0.9645  2.2371  0.0960
14252TIP3   OH242712   0.357   6.302   2.313  0.1719  0.4448  0.2173
14252TIP3    H142713   0.415   6.231   2.341  1.3224  1.0068 -0.6513
14252TIP3    H242714   0.302   6.262   2.245  0.5054  0.2671  0.0491
14253TIP3   OH242715   0.769   6.804   6.228  0.3488 -0.4511 -0.0419
14253TIP3    H142716   0.773   6.723   6.178  2.4131 -0.8049  0.6021
14253TIP3    H242717   0.822   6.866   6.178  4.7466 -1.5479  2.7637
14254TIP3   OH242718   1.134   5.333   4.196  0.6178  0.3152  0.1124
14254TIP3    H142719   1.199   5.345   4.265  2.3660 -0.3123 -1.3506
14254TIP3    H242720   1.065   5.396   4.217  1.7141  1.0602  1.6918
14255TIP3   OH242721   6.524   2.611   4.754 -0.6305 -0.1458  0.1513
14255TIP3    H142722   6.493   2.522   4.771 -2.6059  0.2663 -0.9356
14255TIP3    H242723   6.457   2.649   4.697  0.0948  2.0875  0.6904
14256TIP3   OH242724   4.277   6.383   6.649  0.2027  0.3074  0.0610
14256TIP3    H142725   4.355   6.328   6.643 -0.0194  0.0165 -0.1381
14256TIP3    H242726   4.269   6.423   6.563  0.6255  1.0137  0.3373
14257TIP3   OH242727   1.173   2.431   6.149  0.4424  0.3033  0.4682
14257TIP3    H142728   1.266   2.455   6.144  0.7377 -0.6325  1.0889
14257TIP3    H242729   1.158   2.377   6.071 -0.2923  2.5612 -1.0807
14258TIP3   OH242730   5.165   1.046   3.539 -0.2195 -0.1955  0.3753
14258TIP3    H142731   5.242   1.101   3.523 -0.6210  0.2112 -0.1780
14258TIP3    H242732   5.202   0.961   3.561  0.4036 -0.3584 -1.1425
14259TIP3   OH242733   5.482   3.819   0.672 -0.2200 -0.1882  0.6043
14259TIP3    H142734   5.452   3.782   0.589 -2.4386  0.1611  1.1893
14259TIP3    H242735   5.516   3.905   0.649 -0.0973 -0.4061 -0.0528
14260TIP3   OH242736   0.471   5.186   2.235  0.4299  0.3992  0.1140
14260TIP3    H142737   0.518   5.176   2.152  0.1850 -0.3874  0.0650
14260TIP3    H242738   0.429   5.102   2.249 -3.1703  1.7935 -1.1723
14261TIP3   OH242739   2.749   3.528   2.971  0.3783  0.2592  0.3313
14261TIP3    H142740   2.770   3.620   2.950  0.0600  0.0137 -1.1938
14261TIP3    H242741   2.834   3.485   2.974  0.4777  0.4334  0.1150
14262TIP3   OH242742   5.214   3.872   5.155  0.4287  0.2182 -0.4385
14262TIP3    H142743   5.193   3.953   5.201  0.2302 -0.6861  1.1054
14262TIP3    H242744   5.296   3.892   5.108  1.3021  0.8278  1.2553
14263TIP3   OH242745   7.174   7.665   5.946 -0.3145 -0.0269  0.2514
14263TIP3    H142746   7.233   7.677   6.021 -0.1127  0.6834 -0.0180
14263TIP3    H242747   7.211   7.590   5.899 -0.0086 -0.0050  0.4498
14264TIP3   OH242748   1.095   6.191   5.492  0.1760  0.2200 -0.5220
14264TIP3    H142749   1.000   6.197   5.487  0.1342  1.1502  0.9265
14264TIP3    H242750   1.118   6.119   5.433 -1.4168 -0.0268 -0.8705
14265TIP3   OH242751   5.388   6.916   0.888 -0.2382  0.0589  1.1071
14265TIP3    H142752   5.450   6.988   0.876 -0.4585 -0.0331 -1.1080
14265TIP3    H242753   5.302   6.959   0.886 -0.3318 -0.1353  0.8759
14266TIP3   OH242754   2.641   4.110   2.878  0.0353 -0.2515  0.1834
14266TIP3    H142755   2.568   4.085   2.935 -1.1710  1.1987 -0.6202
14266TIP3    H242756   2.605   4.103   2.789  1.7495 -2.0704 -0.4255
14267TIP3   OH242757   3.743   6.581   4.095  0.4319  0.1442  0.8753
14267TIP3    H142758   3.732   6.663   4.143  1.0446  1.6765 -1.4847
14267TIP3    H242759   3.799   6.528   4.152  0.5590  1.5890  2.1651
14268TIP3   OH242760   3.113   1.354   6.012 -0.0991  0.1897  0.1308
14268TIP3    H142761   3.108   1.364   5.917 -1.4813 -2.0136 -0.0963
14268TIP3    H242762   3.022   1.353   6.041  0.2993  0.5967  1.4614
14269TIP3   OH242763   2.294   1.218   4.160  1.0366 -0.0221 -0.3059
14269TIP3    H142764   2.341   1.136   4.175 -0.9254 -1.5491 -1.9843
14269TIP3    H242765   2.326   1.248   4.074  2.0841  1.2686  0.5024
14270TIP3   OH242766   2.344   1.649   1.421  0.3670 -0.5034  0.6528
14270TIP3    H142767   2.368   1.742   1.418 -0.9161 -0.1548  0.8977
14270TIP3    H242768   2.428   1.603   1.426  1.2011  0.4749 -2.4059
14271TIP3   OH242769   7.412   6.821   0.001  0.8993 -0.0101  0.5648
14271TIP3    H142770   7.411   6.896   0.060  2.3554 -1.0299  1.9772
14271TIP3    H242771   7.442   6.748   0.056 -0.0644 -1.5511 -0.8543
14272TIP3   OH242772   0.973   1.650   4.632  0.0132  0.0569  0.0782
14272TIP3    H142773   0.912   1.652   4.705 -0.1405  0.4245 -0.0590
14272TIP3    H242774   0.937   1.712   4.569 -0.0761 -0.5594 -0.4874
14273TIP3   OH242775   2.469   5.234   3.556  0.0817  0.3827 -0.2517
14273TIP3    H142776   2.520   5.187   3.490 -2.0691 -1.0548 -1.0010
14273TIP3    H242777   2.468   5.176   3.632  0.8286  1.1183  0.3449
14274TIP3   OH242778   2.792   0.600   2.634 -0.2285 -0.3982 -0.5605
14274TIP3    H142779   2.783   0.695   2.638  0.0104 -0.4257  1.3883
14274TIP3    H242780   2.878   0.586   2.594 -0.5183  0.1773 -1.4105
14275TIP3   OH242781   2.375   2.742   6.402  0.4473 -0.0543 -0.2276
14275TIP3    H142782   2.379   2.826   6.357 -0.9310  0.2703  0.2278
14275TIP3    H242783   2.420   2.757   6.485  1.6153 -0.2277 -0.8093
14276TIP3   OH242784   0.498   3.659   0.550  0.6338  0.6526 -0.1655
14276TIP3    H142785   0.575   3.604   0.538  0.6151  0.3919  0.8241
14276TIP3    H242786   0.476   3.650   0.643 -1.1784 -0.0516 -0.6311
14277TIP3   OH242787   6.740   1.634   4.326  0.2913  0.2003 -0.1924
14277TIP3    H142788   6.795   1.683   4.265  0.2103  1.3688  0.6481
14277TIP3    H242789   6.668   1.602   4.271 -2.5021  5.3010 -0.0897
14278TIP3   OH242790   7.524   3.751   3.969  0.3405 -0.6692 -0.2488
14278TIP3    H142791   7.551   3.702   3.891  2.0689  0.6813 -0.5680
14278TIP3    H242792   7.606   3.763   4.018 -0.1237  1.3450  0.1060
14279TIP3   OH242793   2.232   3.808   0.555  0.3388  0.0751 -0.3110
14279TIP3    H142794   2.211   3.715   0.558  1.9890 -0.3389  2.5826
14279TIP3    H242795   2.328   3.810   0.549  0.5573  1.4388  2.2859
14280TIP3   OH242796   7.933   1.587   3.639  0.1350 -0.0233  0.1636
14280TIP3    H142797   7.966   1.642   3.568  0.9063  0.6267  1.0001
14280TIP3    H242798   7.863   1.536   3.600  0.4900  0.3905 -1.0393
14281TIP3   OH242799   3.150   2.319   1.251  0.1381  0.2096  0.2288
14281TIP3    H142800   3.213   2.247   1.245  0.7300  0.8532 -3.0427
14281TIP3    H242801   3.072   2.286   1.206  0.4326  1.5397 -1.3468
14282TIP3   OH242802   0.500   6.793   1.808  0.3725  0.3427  0.1264
14282TIP3    H142803   0.483   6.704   1.778 -0.8131  0.9334 -1.0558
14282TIP3    H242804   0.585   6.815   1.768  1.0759 -0.5104  1.0927
14283TIP3   OH242805   3.803   1.238   5.229  0.7363  0.2600  0.1476
14283TIP3    H142806   3.773   1.218   5.317 -2.0184  0.3230 -0.6743
14283TIP3    H242807   3.768   1.167   5.175  4.5643 -1.2488 -0.6583
14284TIP3   OH242808   6.564   4.351   2.429 -0.3694  0.6333 -0.2715
14284TIP3    H142809   6.510   4.346   2.508 -0.3754  0.2629 -0.2987
14284TIP3    H242810   6.654   4.356   2.462 -0.4800  2.8046 -0.1796
14285TIP3   OH242811   6.092   3.226   0.152 -0.4068 -0.1275  0.2550
14285TIP3    H142812   6.148   3.300   0.127 -1.7052  0.4861 -0.9792
14285TIP3    H242813   6.131   3.194   0.233  1.1327  0.9009 -0.0109
14286TIP3   OH242814   6.721   2.783   3.843  0.0034  0.0193 -0.4667
14286TIP3    H142815   6.775   2.738   3.778  0.2086 -0.3596 -0.0431
14286TIP3    H242816   6.780   2.799   3.916 -0.0803  0.9489 -0.5847
14287TIP3   OH242817   7.480   5.998   6.596 -0.0455 -0.2930  0.0785
14287TIP3    H142818   7.548   5.948   6.552 -0.5211 -0.5322 -0.4013
14287TIP3    H242819   7.412   6.009   6.529 -0.5064 -0.1267  0.5701
14288TIP3   OH242820   5.351   1.453   3.929  0.5563 -0.0477  0.3914
14288TIP3    H142821   5.412   1.457   3.856  0.1284  0.3294  0.0472
14288TIP3    H242822   5.403   1.422   4.003  1.5299  1.6006  0.4589
14289TIP3   OH242823   2.835   1.908   1.090 -0.2246 -0.4099  0.2509
14289TIP3    H142824   2.869   1.969   1.155  0.2529  0.5257 -0.8517
14289TIP3    H242825   2.793   1.839   1.142  0.7191 -0.0382  1.5641
14290TIP3   OH242826   2.178   1.942   5.766 -0.4688 -0.2528  0.2250
14290TIP3    H142827   2.145   1.942   5.856 -1.1608 -1.5402 -0.0056
14290TIP3    H242828   2.149   2.026   5.730  0.3618  0.5454  1.3785
14291TIP3   OH242829   5.456   4.019   1.237  0.1203 -0.6090 -0.3198
14291TIP3    H142830   5.375   3.969   1.238  0.5995 -1.4327 -1.2234
14291TIP3    H242831   5.498   3.996   1.154  0.4370  1.1605 -0.6995
14292TIP3   OH242832   4.481   6.652   0.460 -0.0849  0.2097 -0.2282
14292TIP3    H142833   4.426   6.685   0.389 -0.1715 -0.7728 -0.6399
14292TIP3    H242834   4.512   6.730   0.506  2.3516  1.1056 -3.0872
14293TIP3   OH242835   8.003   6.614   5.557 -0.4635 -0.2602 -0.2094
14293TIP3    H142836   8.033   6.703   5.536  1.9168 -0.6055  1.2813
14293TIP3    H242837   8.045   6.558   5.491  1.2359 -0.6091  1.0951
14294TIP3   OH242838   1.987   0.898   0.408  0.2502 -0.6625  0.1194
14294TIP3    H142839   1.962   0.976   0.457  1.3076 -0.1723 -0.0870
14294TIP3    H242840   2.082   0.894   0.417  0.2394 -1.7478 -0.1502
14295TIP3   OH242841   5.262   7.542   2.808 -0.4631  0.4031  0.3017
14295TIP3    H142842   5.350   7.502   2.810 -0.1485  1.0259 -0.7438
14295TIP3    H242843   5.233   7.533   2.717 -1.6725 -0.1690  0.7235
14296TIP3   OH242844   7.164   1.306   2.652  0.3124 -0.5450  0.2376
14296TIP3    H142845   7.188   1.241   2.718 -0.8984 -0.5869  0.6529
14296TIP3    H242846   7.225   1.291   2.580  1.3314 -0.8224  1.1396
14297TIP3   OH242847   3.949   7.083   5.828  0.0423  0.4335 -0.5286
14297TIP3    H142848   4.000   7.126   5.897  0.5188  0.1462 -0.6992
14297TIP3    H242849   4.014   7.043   5.771 -0.3717 -1.8740  0.4843
14298TIP3   OH242850   0.175   6.786   6.689  0.5716 -0.5407 -0.2135
14298TIP3    H142851   0.171   6.700   6.646  2.0358 -1.4902  1.4079
14298TIP3    H242852   0.086   6.820   6.682 -0.0206 -2.1336 -1.0180
14299TIP3   OH242853   6.935   1.635   1.585 -0.3652 -0.8796 -0.1457
14299TIP3    H142854   6.983   1.552   1.589 -0.1632 -0.7269  2.4195
14299TIP3    H242855   7.003   1.701   1.571 -0.3029 -0.9814 -0.3319
14300TIP3   OH242856   6.568   1.397   4.525  0.5071 -0.3107 -0.5767
14300TIP3    H142857   6.622   1.449   4.585 -0.4467  0.6607 -0.5321
14300TIP3    H242858   6.543   1.320   4.575  0.1501  0.2409  0.0991
14301TIP3   OH242859   2.584   0.681   1.549 -0.1471 -0.1783 -0.3627
14301TIP3    H142860   2.531   0.649   1.476  2.0680 -2.2054 -1.2151
14301TIP3    H242861   2.563   0.622   1.622 -0.2523  0.0312 -0.2239
14302TIP3   OH242862   4.498   2.709   1.197 -0.2672  0.1567  0.8022
14302TIP3    H142863   4.551   2.788   1.193  2.9457 -1.7167  1.9013
14302TIP3    H242864   4.466   2.696   1.108  1.5732  1.1720 -0.0554
14303TIP3   OH242865   3.954   4.680   5.066 -0.0853 -0.4753 -0.1068
14303TIP3    H142866   3.947   4.775   5.057  1.0720 -0.4252 -0.6969
14303TIP3    H242867   3.864   4.649   5.057 -0.3200  0.4546 -1.3570
14304TIP3   OH242868   5.603   2.047   3.850 -0.1140 -0.2219  0.1727
14304TIP3    H142869   5.619   2.080   3.761 -1.3089  0.5004  0.2051
14304TIP3    H242870   5.689   2.016   3.880  0.0387 -2.0854 -1.8669
14305TIP3   OH242871   3.685   7.768   6.643  0.1682  0.5775 -0.6117
14305TIP3    H142872   3.593   7.783   6.665  0.3704  0.1654  0.6059
14305TIP3    H242873   3.710   7.692   6.696  0.5582 -0.8699 -2.7526
14306TIP3   OH242874   6.734   5.800   5.355 -0.1685 -0.2294  0.0111
14306TIP3    H142875   6.701   5.804   5.445  0.3996 -2.9556  0.4094
14306TIP3    H242876   6.681   5.733   5.312  2.3717 -2.1917 -0.3353
14307TIP3   OH242877   7.409   3.042   4.424 -0.0951  0.1385  0.0866
14307TIP3    H142878   7.490   3.037   4.372  0.4282 -0.4240  0.9382
14307TIP3    H242879   7.418   3.122   4.475  0.9812 -1.0686  1.8665
14308TIP3   OH242880   2.306   5.297   0.675 -0.1578 -0.6208  0.0821
14308TIP3    H142881   2.231   5.245   0.707 -0.2535 -0.6323 -0.1588
14308TIP3    H242882   2.307   5.374   0.731 -0.2723 -0.6836  0.1720
14309TIP3   OH242883   5.714   5.372   3.860 -0.2016 -0.1341  0.2101
14309TIP3    H142884   5.666   5.440   3.813 -1.6204 -1.3001 -0.0990
14309TIP3    H242885   5.770   5.331   3.793  0.8897  0.8944  0.4630
14310TIP3   OH242886   0.112   6.002   6.585  0.4987  0.6355 -0.0840
14310TIP3    H142887   0.019   6.008   6.606  0.3740 -1.2070  0.0812
14310TIP3    H242888   0.149   6.086   6.611 -1.0352  1.2195  0.2841
14311TIP3   OH242889   7.084   3.209   1.017 -0.8693  0.2690 -0.3966
14311TIP3    H142890   7.171   3.237   1.044 -0.8339 -0.3385  0.1213
14311TIP3    H242891   7.067   3.260   0.937 -0.1154  0.5154 -0.4106
14312TIP3   OH242892   2.500   5.707   3.007  0.0691  0.2940 -0.3407
14312TIP3    H142893   2.417   5.702   3.053 -0.4525  1.1038 -1.1611
14312TIP3    H242894   2.509   5.799   2.983  1.7685  0.4499  0.7374
14313TIP3   OH242895   3.826   3.373   1.859 -0.1744  0.7242 -0.0933
14313TIP3    H142896   3.779   3.303   1.905 -0.1150  1.1305  0.6047
14313TIP3    H242897   3.811   3.356   1.766  0.7984 -0.9001  0.0102
14314TIP3   OH242898   1.833   3.552   3.558  0.1634 -0.5337 -0.5521
14314TIP3    H142899   1.763   3.494   3.590 -1.0125  0.0064 -2.0397
14314TIP3    H242900   1.892   3.495   3.510  1.1534 -1.1026  1.2358
14315TIP3   OH242901   4.561   5.897   1.035 -0.2971  0.5041 -0.4083
14315TIP3    H142902   4.637   5.920   1.088 -0.3269  2.2319 -1.0879
14315TIP3    H242903   4.548   5.971   0.976 -2.3210  0.1285 -0.5176
14316TIP3   OH242904   6.151   2.584   2.868 -0.4568  0.4908  0.3244
14316TIP3    H142905   6.220   2.637   2.908 -1.1906  2.0264 -0.3463
14316TIP3    H242906   6.070   2.616   2.908 -0.8823 -0.5306  0.3104
14317TIP3   OH242907   1.177   0.729   0.632  0.2800  0.0237  0.5825
14317TIP3    H142908   1.199   0.786   0.706 -0.3110  0.5666  0.3519
14317TIP3    H242909   1.093   0.763   0.601 -0.0360 -0.9211  0.3816
14318TIP3   OH242910   2.147   5.770   5.861  0.5771  0.0736 -0.0765
14318TIP3    H142911   2.213   5.715   5.819  1.3558  1.0392 -0.1641
14318TIP3    H242912   2.153   5.748   5.954 -0.4915 -1.3841 -0.3190
14319TIP3   OH242913   7.141   4.032   3.380 -0.1335  0.4751 -0.4214
14319TIP3    H142914   7.133   3.938   3.362  2.3238  0.2658 -0.8716
14319TIP3    H242915   7.168   4.036   3.471  0.5251  0.6771 -0.6196
14320TIP3   OH242916   1.723   3.672   6.697  0.5061  0.1475 -0.6346
14320TIP3    H142917   1.801   3.640   6.742  0.2901 -1.0526 -1.0888
14320TIP3    H242918   1.743   3.663   6.604 -0.5254 -1.0961 -0.7607
14321TIP3   OH242919   6.900   7.728   3.217  0.4024 -0.1744  0.2229
14321TIP3    H142920   6.975   7.734   3.158  0.9222 -2.4788  0.5498
14321TIP3    H242921   6.844   7.661   3.177 -1.1405  0.9649  0.3786
14322TIP3   OH242922   3.990   5.237   4.787  0.2781  0.1561  0.0573
14322TIP3    H142923   3.923   5.300   4.816 -0.7374 -0.9769  0.2947
14322TIP3    H242924   4.066   5.257   4.841 -0.1809  0.8659  0.4684
14323TIP3   OH242925   0.960   1.481   4.338  0.4374 -0.2538 -0.0029
14323TIP3    H142926   0.942   1.429   4.259  0.5309 -1.8883  1.0062
14323TIP3    H242927   0.991   1.418   4.402 -1.3901  0.6916  1.9558
14324TIP3   OH242928   2.744   6.014   5.416 -0.0528 -0.5109 -0.1065
14324TIP3    H142929   2.684   5.978   5.482 -0.4488 -0.5061 -0.4578
14324TIP3    H242930   2.687   6.044   5.346  0.4208 -1.5680 -0.9734
14325TIP3   OH242931   0.760   2.645   1.782 -0.4475  0.0516  0.2839
14325TIP3    H142932   0.720   2.641   1.696 -0.5252 -1.4406  0.3646
14325TIP3    H242933   0.782   2.554   1.803  1.4667  0.6115  0.9558
14326TIP3   OH242934   7.928   0.952   5.451  0.1289 -0.2349  0.0506
14326TIP3    H142935   8.017   0.962   5.416  0.9229 -1.2384  1.6857
14326TIP3    H242936   7.938   0.960   5.546 -1.7141  0.7750  0.2088
14327TIP3   OH242937   5.823   5.273   3.632  0.2508  0.1234  0.2186
14327TIP3    H142938   5.874   5.323   3.569  0.0426 -0.0730 -0.1072
14327TIP3    H242939   5.758   5.227   3.580  0.0578 -0.0212  0.5787
14328TIP3   OH242940   7.712   4.393   4.011 -0.0692  0.0999  0.1661
14328TIP3    H142941   7.691   4.445   3.934  0.4714 -0.3836 -0.3189
14328TIP3    H242942   7.656   4.316   4.004 -0.4519  0.3363  0.5779
14329TIP3   OH242943   3.137   7.324   1.865 -0.0967 -0.0569 -0.1494
14329TIP3    H142944   3.052   7.342   1.826  0.2819  1.5784 -0.2713
14329TIP3    H242945   3.200   7.348   1.797  0.5204  1.3839  0.8797
14330TIP3   OH242946   6.907   2.170   1.227  0.1840  0.1937 -0.3865
14330TIP3    H142947   6.923   2.197   1.137 -1.1823 -0.4550 -0.8465
14330TIP3    H242948   6.992   2.142   1.259  0.5238 -0.4923 -1.7985
14331TIP3   OH242949   5.043   4.557   3.608 -0.1206 -0.5209  0.6144
14331TIP3    H142950   5.013   4.534   3.520  0.4522  0.4731  0.1438
14331TIP3    H242951   4.986   4.507   3.666 -0.3591 -1.3664 -0.3188
14332TIP3   OH242952   0.323   1.297   6.215 -0.2741 -0.2166 -0.4471
14332TIP3    H142953   0.309   1.305   6.120  0.9349  0.4800 -0.5870
14332TIP3    H242954   0.261   1.360   6.253  0.2537  0.5886 -0.8758
14333TIP3   OH242955   2.334   0.112   0.519  0.3923 -0.0852 -0.1130
14333TIP3    H142956   2.355   0.184   0.579 -1.5228 -0.5737  1.2334
14333TIP3    H242957   2.239   0.111   0.516  0.3308 -2.8934  0.3487
14334TIP3   OH242958   3.822   0.467   3.499  0.6134  0.7669 -0.1897
14334TIP3    H142959   3.806   0.557   3.473  0.5334  0.3385 -1.6702
14334TIP3    H242960   3.844   0.421   3.418  0.5394 -0.5706  0.5156
14335TIP3   OH242961   2.480   6.607   2.078  0.2080  0.2648 -0.4587
14335TIP3    H142962   2.410   6.542   2.067  0.0236  0.4166 -0.1970
14335TIP3    H242963   2.438   6.678   2.126  0.0898  1.0703 -1.7045
14336TIP3   OH242964   4.086   3.601   1.568  0.3633  0.5243  0.1069
14336TIP3    H142965   3.998   3.566   1.556  1.5820 -2.7266 -0.3772
14336TIP3    H242966   4.124   3.603   1.480  1.2600  0.4971  0.4850
14337TIP3   OH242967   3.046   1.423   5.204  0.3156  0.1844  1.0656
14337TIP3    H142968   2.986   1.348   5.205 -1.1480  1.2961  0.2855
14337TIP3    H242969   3.025   1.470   5.123  0.7695  1.7601  1.8223
14338TIP3   OH242970   6.183   1.692   2.813  0.0108  0.0362 -0.0966
14338TIP3    H142971   6.243   1.668   2.883 -0.3604 -0.3579  0.0887
14338TIP3    H242972   6.231   1.759   2.763  0.1951  0.4782  0.6482
14339TIP3   OH242973   1.680   5.739   0.483 -0.3918  0.3521  0.1136
14339TIP3    H142974   1.623   5.734   0.407  0.5762 -1.0926 -0.5613
14339TIP3    H242975   1.743   5.668   0.471  1.1787  1.5013  1.1198
14340TIP3   OH242976   6.137   6.389   3.141  0.4888 -0.6613 -0.0642
14340TIP3    H142977   6.062   6.448   3.146  0.8835 -0.1255 -0.3143
14340TIP3    H242978   6.106   6.313   3.093  0.5949  0.3414 -1.7722
14341TIP3   OH242979   1.527   3.040   0.632  0.2645 -0.0201  0.0389
14341TIP3    H142980   1.483   3.120   0.659  0.8169 -0.2004  1.5836
14341TIP3    H242981   1.478   3.011   0.555  0.5253  2.1709 -1.0289
14342TIP3   OH242982   4.661   4.026   1.932  0.1028  0.4540 -0.5677
14342TIP3    H142983   4.716   4.053   1.858  1.1873  0.3430  0.1841
14342TIP3    H242984   4.667   3.930   1.933  0.4811  0.4790 -0.0521
14343TIP3   OH242985   3.474   3.378   6.275 -0.0101  0.1671  0.1590
14343TIP3    H142986   3.499   3.470   6.266  1.5527 -0.2280  0.1324
14343TIP3    H242987   3.383   3.380   6.302  0.3730  1.7628  1.4688
14344TIP3   OH242988   3.786   5.631   5.547 -0.1217  0.3182 -0.2280
14344TIP3    H142989   3.848   5.558   5.543 -0.2046  0.2006  0.5331
14344TIP3    H242990   3.703   5.594   5.515 -0.5234 -0.3214  1.4864
14345TIP3   OH242991   5.165   7.331   5.772 -0.3645  0.0731  0.2479
14345TIP3    H142992   5.093   7.279   5.735  1.4434 -0.6056 -2.7086
14345TIP3    H242993   5.153   7.418   5.735 -0.5352  0.4112  1.0749
14346TIP3   OH242994   5.949   2.888   1.405  0.5512 -0.0377 -0.0975
14346TIP3    H142995   5.976   2.881   1.314  0.1642  1.2500 -0.3368
14346TIP3    H242996   6.028   2.916   1.452  0.5797  0.0039 -0.1700
14347TIP3   OH242997   8.026   3.129   1.193 -0.5506 -0.4716 -0.2580
14347TIP3    H142998   7.957   3.090   1.246 -0.7494  0.2695  0.0508
14347TIP3    H242999   7.990   3.128   1.104 -2.5792  3.1044  0.3182
14348TIP3   OH243000   0.096   5.065   2.391  0.7575 -0.0673  0.6052
14348TIP3    H143001   0.168   5.075   2.329  0.2697 -0.9826 -0.1343
14348TIP3    H243002   0.094   4.972   2.411  2.0954  0.4170  3.4981
14349TIP3   OH243003   6.539   3.806   5.944  0.0145  0.0555  0.0250
14349TIP3    H143004   6.464   3.747   5.931  0.3220 -0.0098 -1.5501
14349TIP3    H243005   6.609   3.749   5.977 -0.1873 -0.1412  0.1174
14350TIP3   OH243006   7.747   0.179   1.926 -0.5700 -0.1949  0.3176
14350TIP3    H143007   7.672   0.229   1.892 -1.1776  1.0735  3.2225
14350TIP3    H243008   7.720   0.153   2.014  1.0366 -2.9441  0.0925
14351TIP3   OH243009   7.447   2.505   4.816  0.4594 -0.0529  0.1967
14351TIP3    H143010   7.443   2.416   4.851  0.2814  0.5446  1.7869
14351TIP3    H243011   7.362   2.543   4.837 -0.0331  0.0570 -1.8036
14352TIP3   OH243012   8.011   3.492   4.263 -0.2140  0.0924  0.2838
14352TIP3    H143013   8.072   3.424   4.290 -0.8939 -0.2384  1.0557
14352TIP3    H243014   8.066   3.568   4.245  0.4629 -0.3354  0.5070
14353TIP3   OH243015   0.160   5.738   0.854  0.0359  0.1554  0.3454
14353TIP3    H143016   0.196   5.771   0.772  0.9586 -0.0667  0.6549
14353TIP3    H243017   0.071   5.773   0.857  0.2415  0.7541 -0.4040
14354TIP3   OH243018   4.654   3.077   6.567 -0.4992  0.4760  0.3876
14354TIP3    H143019   4.652   3.001   6.626  0.8210 -0.5936 -0.8612
14354TIP3    H243020   4.733   3.125   6.594  0.0964 -0.0064 -0.4672
14355TIP3   OH243021   2.420   3.706   6.347 -0.4492 -0.5879 -0.0188
14355TIP3    H143022   2.393   3.784   6.396 -0.0206 -1.3234  1.4300
14355TIP3    H243023   2.462   3.742   6.268 -1.0450  0.6280  0.1855
14356TIP3   OH243024   1.646   1.700   1.158 -0.2024  0.3416  0.1847
14356TIP3    H143025   1.639   1.742   1.243  1.6232 -1.2565  1.2187
14356TIP3    H243026   1.674   1.769   1.099 -0.9221  1.3488  0.9941
14357TIP3   OH243027   4.763   0.742   6.503 -0.1831  0.3922 -0.1803
14357TIP3    H143028   4.853   0.720   6.527 -0.5174  0.3844  1.1492
14357TIP3    H243029   4.747   0.692   6.423  0.5848 -0.5855  0.2551
14358TIP3   OH243030   0.327   2.049   0.102 -0.1341  0.0892 -0.0749
14358TIP3    H143031   0.368   2.018   0.022  0.2806 -1.0053  0.5511
14358TIP3    H243032   0.399   2.057   0.165 -0.7992 -1.6268  0.9620
14359TIP3   OH243033   1.144   6.745   5.610 -0.0160 -0.4099  0.3672
14359TIP3    H143034   1.157   6.828   5.656  0.2388 -0.4689  0.4057
14359TIP3    H243035   1.134   6.680   5.680  0.2779 -0.4858  0.3387
14360TIP3   OH243036   5.694   1.352   2.989 -0.2969 -0.1286 -0.0424
14360TIP3    H143037   5.623   1.296   2.959 -0.2587 -0.5512  0.6324
14360TIP3    H243038   5.763   1.340   2.924  0.0388 -1.5379  0.5422
14361TIP3   OH243039   4.469   3.711   3.610 -0.3578  0.0816  0.4448
14361TIP3    H143040   4.556   3.687   3.644 -0.2669  1.3498  1.1667
14361TIP3    H243041   4.426   3.627   3.596  0.6900 -0.5574  0.8655
14362TIP3   OH243042   5.479   6.811   4.244 -0.5309 -0.3688 -0.0920
14362TIP3    H143043   5.512   6.732   4.288  0.1392 -0.6770 -1.1223
14362TIP3    H243044   5.439   6.779   4.163  0.2906  0.3993 -0.8161
14363TIP3   OH243045   5.592   4.872   2.480 -0.4375 -0.5886  0.4443
14363TIP3    H143046   5.554   4.854   2.566  1.3561 -0.3525  1.3139
14363TIP3    H243047   5.594   4.967   2.473  0.5334 -0.5925  0.6527
14364TIP3   OH243048   0.157   5.558   3.807 -0.1824 -0.2769  0.5234
14364TIP3    H143049   0.196   5.561   3.720 -0.4882  1.3956  0.4099
14364TIP3    H243050   0.200   5.628   3.855 -1.4029  0.1083  1.0987
14365TIP3   OH243051   2.868   5.374   2.712  0.1578  0.3682  0.3192
14365TIP3    H143052   2.913   5.293   2.734 -1.4274 -0.3184  1.2347
14365TIP3    H243053   2.860   5.373   2.617 -1.1938 -1.3476  0.4053
14366TIP3   OH243054   4.279   2.353   6.235  0.0162  0.2097 -0.2250
14366TIP3    H143055   4.232   2.377   6.315  1.6451 -0.0812  0.8801
14366TIP3    H243056   4.248   2.265   6.214 -0.2428  0.1856  0.2466
14367TIP3   OH243057   0.184   0.189   4.156  0.4410  0.6699  0.3215
14367TIP3    H143058   0.134   0.139   4.091  2.0095 -0.4896 -0.0700
14367TIP3    H243059   0.157   0.152   4.240  0.1643  0.4987  0.1589
14368TIP3   OH243060   0.777   6.617   3.647  0.4373 -0.2484 -0.1822
14368TIP3    H143061   0.870   6.592   3.652  0.2849 -0.9470 -0.6077
14368TIP3    H243062   0.740   6.557   3.582 -0.4351 -0.3451  0.3878
14369TIP3   OH243063   2.203   6.023   2.574 -0.5000 -0.3155 -0.4761
14369TIP3    H143064   2.167   6.032   2.662 -0.7545 -1.5419 -0.4302
14369TIP3    H243065   2.133   5.980   2.524 -1.0251  1.8972 -1.7510
14370TIP3   OH243066   6.052   0.717   5.805 -0.2642 -0.2751 -0.0838
14370TIP3    H143067   6.012   0.791   5.851 -0.3310 -0.8875  0.8818
14370TIP3    H243068   6.136   0.704   5.850  2.1895  2.3164 -3.3788
14371TIP3   OH243069   1.522   6.731   6.259  0.2995  0.2685 -0.2987
14371TIP3    H143070   1.444   6.687   6.226 -0.7425  0.8115  1.3362
14371TIP3    H243071   1.583   6.730   6.185 -0.7034 -1.4439 -1.1587
14372TIP3   OH243072   3.262   6.599   5.846 -0.5350  0.3045  0.0753
14372TIP3    H143073   3.316   6.653   5.789  0.5260  0.0906  0.8537
14372TIP3    H243074   3.214   6.661   5.900 -2.1562  0.5355 -1.5437
14373TIP3   OH243075   4.190   4.087   0.269 -0.2464  0.0936 -0.4249
14373TIP3    H143076   4.258   4.074   0.204  0.9576  2.6055  0.1978
14373TIP3    H243077   4.162   4.178   0.256 -1.4224  0.0076  1.2152
14374TIP3   OH243078   6.776   6.335   3.149  0.3882 -0.4648 -0.1690
14374TIP3    H143079   6.851   6.284   3.178 -0.4845 -0.9650  1.3258
14374TIP3    H243080   6.763   6.400   3.219  0.0289  0.2449 -0.8828
14375TIP3   OH243081   4.547   2.987   3.739  0.2071  0.1105 -0.0764
14375TIP3    H143082   4.596   2.904   3.739  1.4573  0.8229 -0.4935
14375TIP3    H243083   4.607   3.050   3.698 -0.6372  1.2715  0.4270
14376TIP3   OH243084   6.097   3.402   0.415  0.1141 -0.2783 -0.2985
14376TIP3    H143085   6.045   3.390   0.494  1.9834 -0.3364  0.9791
14376TIP3    H243086   6.140   3.317   0.401  0.0568 -0.1720 -1.1874
14377TIP3   OH243087   7.648   2.238   1.706 -0.3077  0.2880 -0.4331
14377TIP3    H143088   7.589   2.261   1.779  1.0251 -1.9970  1.4964
14377TIP3    H243089   7.591   2.197   1.641 -0.9021 -2.6657  1.7564
14378TIP3   OH243090   7.651   1.244   2.569  0.6544 -0.4910  0.5116
14378TIP3    H143091   7.626   1.307   2.502  1.4693  0.4064  1.0110
14378TIP3    H243092   7.741   1.221   2.547  1.5646  1.1360  2.2036
14379TIP3   OH243093   2.325   0.061   1.456 -0.1353 -0.2637 -0.0277
14379TIP3    H143094   2.357   0.120   1.387 -0.1422 -0.6999 -0.4070
14379TIP3    H243095   2.376   0.086   1.534  1.4168 -1.1937 -0.7019
14380TIP3   OH243096   6.664   2.838   6.169 -0.1211 -0.0689  0.3136
14380TIP3    H143097   6.638   2.751   6.139 -0.1619  0.3222 -0.8417
14380TIP3    H243098   6.755   2.828   6.196 -0.1517 -0.4838  0.2736
14381TIP3   OH243099   0.259   6.100   1.697 -0.8686 -0.1191 -0.1174
14381TIP3    H143100   0.178   6.097   1.749 -1.8033  1.0289 -1.4423
14381TIP3    H243101   0.230   6.093   1.607  0.5395  0.2273 -0.6229
14382TIP3   OH243102   2.897   4.523   1.344  0.9330  0.1412  0.4078
14382TIP3    H143103   2.805   4.507   1.366  0.5763 -0.5027 -1.3952
14382TIP3    H243104   2.947   4.480   1.413 -0.0961  1.3019  1.9380
14383TIP3   OH243105   0.073   1.165   6.014  0.1566 -0.1233  0.2648
14383TIP3    H143106   0.147   1.111   5.987  1.9372  1.7163  1.2329
14383TIP3    H243107   0.061   1.146   6.107 -0.5593 -0.3478  0.1352
14384TIP3   OH243108   1.206   5.753   6.084  0.4784 -0.4316  0.1883
14384TIP3    H143109   1.166   5.839   6.101  0.1840 -0.6221  0.4673
14384TIP3    H243110   1.236   5.758   5.993  0.8267  0.1117  0.3281
14385TIP3   OH243111   3.514   7.465   5.817  0.3626  0.0787 -0.3138
14385TIP3    H143112   3.489   7.373   5.819  0.4063  0.0516 -0.8007
14385TIP3    H243113   3.522   7.485   5.724  1.3629  0.2966 -0.1889
14386TIP3   OH243114   5.873   7.038   3.248 -0.3856 -0.0054  0.2332
14386TIP3    H143115   5.843   7.010   3.334  0.8980 -0.0100  0.7083
14386TIP3    H243116   5.839   7.127   3.238 -2.2670 -0.7169 -0.1634
14387TIP3   OH243117   3.732   7.016   4.134  0.0828  0.3638 -0.1959
14387TIP3    H143118   3.672   7.078   4.175 -0.4916 -0.3111  0.0166
14387TIP3    H243119   3.721   7.031   4.040  0.5535  1.1312 -0.1370
14388TIP3   OH243120   4.464   4.115   0.352 -0.0941  0.3999  0.0749
14388TIP3    H143121   4.539   4.064   0.322  0.7208  1.0835  0.9199
14388TIP3    H243122   4.419   4.057   0.413  0.8380  0.6744  1.0433
14389TIP3   OH243123   4.001   7.386   1.472 -0.1433 -0.0118 -0.3534
14389TIP3    H143124   3.943   7.310   1.478 -0.1025  0.0395  0.9826
14389TIP3    H243125   4.035   7.383   1.383  2.6335 -3.6405  0.5791
14390TIP3   OH243126   6.905   6.510   0.898  0.6548 -0.2849 -0.4765
14390TIP3    H143127   6.945   6.585   0.941  2.8568 -1.4915 -0.2800
14390TIP3    H243128   6.881   6.542   0.811  1.7924  0.5864 -0.4901
14391TIP3   OH243129   7.491   0.182   3.244 -0.6514  0.1645 -0.0834
14391TIP3    H143130   7.551   0.202   3.316 -0.5145  1.2119 -0.4800
14391TIP3    H243131   7.544   0.130   3.184 -0.4335  0.2471  0.0342
14392TIP3   OH243132   0.693   7.535   5.624 -0.9034 -0.3357  0.0467
14392TIP3    H143133   0.644   7.569   5.699 -0.7400 -0.6384  0.2949
14392TIP3    H243134   0.633   7.473   5.582 -1.7025  1.1750 -1.1760
14393TIP3   OH243135   6.133   3.349   3.134 -0.2564 -0.2429  0.4116
14393TIP3    H143136   6.124   3.416   3.202  0.6486  0.2284  0.0819
14393TIP3    H243137   6.227   3.343   3.119 -0.4841  0.3784 -1.4988
14394TIP3   OH243138   4.035   1.218   1.437  0.2321  0.5574 -0.2552
14394TIP3    H143139   4.090   1.276   1.384 -0.3016  0.3609 -1.0323
14394TIP3    H243140   4.047   1.250   1.527  2.5056 -0.2076 -0.2371
14395TIP3   OH243141   5.890   1.568   3.295  0.5280 -0.4620 -0.1995
14395TIP3    H143142   5.860   1.659   3.298 -2.2101 -1.2748 -0.0107
14395TIP3    H243143   5.940   1.562   3.213  0.1548  1.0424 -0.5714
14396TIP3   OH243144   4.577   2.871   0.003 -0.1322  0.2852  0.2181
14396TIP3    H143145   4.521   2.938   0.041  0.5568  0.2575  1.3156
14396TIP3    H243146   4.665   2.893   0.033  0.0012 -1.5796  1.3235
14397TIP3   OH243147   7.015   6.370   0.446 -0.2611  0.2129 -0.4154
14397TIP3    H143148   6.953   6.440   0.463 -0.4665  0.1146 -0.7442
14397TIP3    H243149   6.970   6.291   0.476 -0.6857  0.0196 -1.5369
14398TIP3   OH243150   5.513   3.399   6.157 -0.2761  0.2739 -0.2612
14398TIP3    H143151   5.423   3.416   6.130 -0.9281  0.7141  1.9568
14398TIP3    H243152   5.507   3.386   6.252  1.7456 -1.5961 -0.3270
14399TIP3   OH243153   3.311   6.435   4.148 -0.0476 -0.2716  0.0865
14399TIP3    H143154   3.270   6.504   4.201  1.7996  0.1017  1.1229
14399TIP3    H243155   3.238   6.392   4.104 -1.9422 -1.6994  4.1661
14400TIP3   OH243156   2.925   4.077   5.045  0.0988 -0.2061 -0.7300
14400TIP3    H143157   2.904   4.028   5.124 -2.7339 -1.2150 -1.9513
14400TIP3    H243158   2.895   4.167   5.063  1.9809  0.2670  0.2385
14401TIP3   OH243159   7.402   4.049   6.410 -0.3556  0.5603 -0.1687
14401TIP3    H143160   7.405   4.124   6.468 -1.5320  1.4839 -1.2618
14401TIP3    H243161   7.328   3.996   6.441  0.4147 -0.1362  0.5433
14402TIP3   OH243162   4.155   7.633   5.003  0.5411  0.1171  0.1460
14402TIP3    H143163   4.141   7.638   5.097  0.2200 -1.2210  0.1859
14402TIP3    H243164   4.222   7.566   4.991  0.8506  0.5393 -0.5596
14403TIP3   OH243165   7.852   7.490   1.739  0.1817  0.0433 -0.1426
14403TIP3    H143166   7.799   7.441   1.802  0.4520  1.7333  1.4735
14403TIP3    H243167   7.920   7.532   1.791  0.7044  1.1531 -1.6304
14404TIP3   OH243168   4.238   0.721   1.648 -0.1980 -0.4158 -0.0006
14404TIP3    H143169   4.215   0.655   1.583  1.1999 -0.3943 -0.5423
14404TIP3    H243170   4.247   0.802   1.599 -2.7147  0.4326  0.7756
14405TIP3   OH243171   0.930   4.249   5.238 -0.0329  0.9302  0.4457
14405TIP3    H143172   0.912   4.228   5.330 -0.0436 -0.8888  0.0595
14405TIP3    H243173   0.909   4.342   5.230 -3.3214  0.4170  1.5267
14406TIP3   OH243174   0.887   4.322   2.312  0.3701  0.5355 -0.0883
14406TIP3    H143175   0.820   4.304   2.246 -2.4723  0.0824  2.7196
14406TIP3    H243176   0.899   4.417   2.307 -2.8912  1.1562  1.3341
14407TIP3   OH243177   4.208   5.934   5.937  0.4461  0.4587  0.1653
14407TIP3    H143178   4.123   5.902   5.909 -0.0078  0.0442  1.9389
14407TIP3    H243179   4.202   6.029   5.928 -0.8600  0.5795  1.9230
14408TIP3   OH243180   0.985   2.445   5.732  0.1731 -0.1563 -0.3434
14408TIP3    H143181   0.954   2.450   5.642  0.1652 -1.2127 -0.4182
14408TIP3    H243182   1.041   2.522   5.743  0.2918 -0.0980 -1.2997
14409TIP3   OH243183   2.644   4.054   2.108  0.1211  0.5186 -0.3055
14409TIP3    H143184   2.572   4.006   2.068 -0.4568 -0.0255  1.3223
14409TIP3    H243185   2.658   4.130   2.050 -2.0194  0.8562 -0.4385
14410TIP3   OH243186   7.571   3.282   4.370  0.2224  0.2392  0.2049
14410TIP3    H143187   7.633   3.328   4.426  1.3286 -1.1060  0.1588
14410TIP3    H243188   7.496   3.341   4.361  0.6422  1.0668  1.9098
14411TIP3   OH243189   3.066   1.280   3.631  0.5646  0.4078 -0.3882
14411TIP3    H143190   3.096   1.369   3.616 -2.7093  2.0680  1.8420
14411TIP3    H243191   3.025   1.254   3.548  0.9245  1.2183 -0.8315
14412TIP3   OH243192   5.876   7.763   3.053  0.1286  0.4841  0.4732
14412TIP3    H143193   5.786   7.739   3.074  0.4371 -1.6140 -0.2873
14412TIP3    H243194   5.872   7.800   2.965  0.0182  0.3171  0.4085
14413TIP3   OH243195   6.664   1.786   6.267 -0.6519  0.3271  0.0306
14413TIP3    H143196   6.611   1.715   6.231  0.0737 -0.1006 -0.2236
14413TIP3    H243197   6.620   1.809   6.349 -0.7521 -0.6062  0.2543
14414TIP3   OH243198   5.677   4.948   4.682  0.4909  0.2057 -0.1951
14414TIP3    H143199   5.638   4.863   4.701  0.1127  0.6021  0.8586
14414TIP3    H243200   5.735   4.965   4.756  1.3056  0.4475 -0.8644
14415TIP3   OH243201   4.065   0.099   0.228 -0.9132  0.3310  0.0136
14415TIP3    H143202   4.013   0.177   0.208 -1.7981  0.0097  0.9797
14415TIP3    H243203   4.111   0.080   0.146 -1.1008  1.5366 -0.4018
14416TIP3   OH243204   3.068   2.745   3.854 -0.2368  0.1322  0.5598
14416TIP3    H143205   3.021   2.665   3.877  0.1524 -0.1080  0.5323
14416TIP3    H243206   3.003   2.799   3.808 -0.9202  0.4593  1.8543
14417TIP3   OH243207   0.387   6.063   5.045 -0.7852  0.3313  0.5625
14417TIP3    H143208   0.475   6.053   5.083  0.0150  0.3838 -1.1883
14417TIP3    H243209   0.339   5.986   5.076  0.5895 -0.9223 -0.2816
14418TIP3   OH243210   3.748   2.566   3.876 -0.5742  0.7694 -0.1407
14418TIP3    H143211   3.823   2.620   3.855  1.0820 -1.3603 -0.0983
14418TIP3    H243212   3.735   2.511   3.798 -0.8158 -0.2244  0.5725
14419TIP3   OH243213   1.626   5.345   0.246 -0.1333  0.0926 -0.1617
14419TIP3    H143214   1.699   5.375   0.301 -1.2664  1.4895  0.6627
14419TIP3    H243215   1.551   5.341   0.306 -0.9141 -0.5459 -1.1484
14420TIP3   OH243216   7.685   2.960   1.795  0.1704  0.1485 -0.4087
14420TIP3    H143217   7.776   2.948   1.769  0.5106 -2.2178  1.5117
14420TIP3    H243218   7.636   2.898   1.741 -0.0027 -0.0188 -0.0671
14421TIP3   OH243219   0.614   3.881   2.238  0.1311  0.0084 -0.4010
14421TIP3    H143220   0.607   3.880   2.333 -1.3310  1.4231 -0.4568
14421TIP3    H243221   0.702   3.915   2.221  1.0393 -1.8182  0.4062
14422TIP3   OH243222   3.027   0.036   0.303 -0.6014 -0.0043 -0.7249
14422TIP3    H143223   3.003   0.127   0.283 -1.7208 -0.6301 -2.4761
14422TIP3    H243224   2.958   0.004   0.360 -0.1790  0.2431 -0.0647
14423TIP3   OH243225   5.158   6.526   1.640  0.0613 -0.5532  0.5489
14423TIP3    H143226   5.130   6.537   1.731 -1.3990  1.9605 -0.1006
14423TIP3    H243227   5.231   6.587   1.630  1.6161 -2.3483  0.5238
14424TIP3   OH243228   3.975   4.476   1.766  0.3633 -1.2175 -0.0954
14424TIP3    H143229   3.968   4.386   1.734 -0.6726 -0.8430 -0.9945
14424TIP3    H243230   3.890   4.514   1.747  1.0051  0.1476 -0.3426
14425TIP3   OH243231   6.880   4.323   2.094 -0.1890 -0.3002 -0.2565
14425TIP3    H143232   6.897   4.341   2.002 -0.0922  0.6755 -0.0644
14425TIP3    H243233   6.899   4.406   2.138 -2.1024 -0.1458  0.4032
14426TIP3   OH243234   7.133   4.076   2.136 -0.2244 -0.4829 -0.3844
14426TIP3    H143235   7.105   4.167   2.141 -0.8948 -0.7254  0.8374
14426TIP3    H243236   7.137   4.056   2.043  0.4236  0.9320 -0.6794
14427TIP3   OH243237   3.861   6.182   3.327  0.0312 -0.2946 -0.2424
14427TIP3    H143238   3.826   6.099   3.359  0.5767 -0.4540 -0.0483
14427TIP3    H243239   3.930   6.205   3.390  0.7910 -0.3694 -1.0238
14428TIP3   OH243240   2.954   6.506   5.171 -0.0807  0.2340  0.2392
14428TIP3    H143241   2.981   6.571   5.236 -0.8352  2.8498 -1.8723
14428TIP3    H243242   2.875   6.467   5.208  0.1002  0.8584  1.3352
14429TIP3   OH243243   3.868   5.319   1.814 -0.1161 -0.2820 -0.4387
14429TIP3    H143244   3.821   5.296   1.894 -0.8322  4.9247  1.0347
14429TIP3    H243245   3.803   5.309   1.744 -0.7188 -1.1332  0.2166
14430TIP3   OH243246   7.955   3.681   5.485  0.1239 -0.1286  0.5999
14430TIP3    H143247   8.008   3.672   5.406 -2.0144 -1.5953 -0.7902
14430TIP3    H243248   7.981   3.606   5.539  0.9887  0.3963  0.9267
14431TIP3   OH243249   0.355   0.370   0.529 -0.1841  0.4282 -0.4646
14431TIP3    H143250   0.264   0.363   0.499 -0.5305 -0.4560  0.7525
14431TIP3    H243251   0.393   0.284   0.512 -0.3313 -0.0368  1.3760
14432TIP3   OH243252   1.925   6.185   6.387 -0.5236 -0.0062 -0.0856
14432TIP3    H143253   1.878   6.264   6.416 -2.0856 -0.7053 -0.6092
14432TIP3    H243254   1.866   6.145   6.323  0.5342 -1.2680 -0.2883
14433TIP3   OH243255   1.991   3.812   5.795 -0.2122 -0.4373 -0.0728
14433TIP3    H143256   1.905   3.809   5.753 -0.3000 -0.2429  0.0894
14433TIP3    H243257   1.981   3.877   5.865  0.5783  0.9224 -1.1693
14434TIP3   OH243258   7.646   2.174   5.549  0.2751  0.7590 -0.1448
14434TIP3    H143259   7.567   2.198   5.500 -0.6805  0.0452  0.9873
14434TIP3    H243260   7.678   2.095   5.506 -0.1368  0.5627 -0.1047
14435TIP3   OH243261   4.520   1.326   6.122  0.1693 -0.0917  0.7365
14435TIP3    H143262   4.589   1.287   6.175 -1.1393 -2.7954  0.6059
14435TIP3    H243263   4.477   1.252   6.080 -2.0779  1.5788 -0.0962
14436TIP3   OH243264   4.664   4.681   0.175  0.3840  0.2299 -0.9610
14436TIP3    H143265   4.631   4.709   0.261  1.8365 -0.4206 -0.1612
14436TIP3    H243266   4.646   4.587   0.172  0.3110  0.2549 -1.4028
14437TIP3   OH243267   4.491   0.643   1.640  0.0658  0.0590 -0.1995
14437TIP3    H143268   4.547   0.656   1.717  0.6294  0.7464 -0.7170
14437TIP3    H243269   4.424   0.711   1.648 -0.1306 -0.1448 -0.0951
14438TIP3   OH243270   1.931   5.086   4.699  0.3068 -0.1392  0.0058
14438TIP3    H143271   1.878   5.015   4.662  0.9261 -1.6793  1.8899
14438TIP3    H243272   2.006   5.092   4.640 -0.0498 -0.6278 -0.5181
14439TIP3   OH243273   2.484   2.150   4.126 -0.3617 -0.2553 -0.3133
14439TIP3    H143274   2.475   2.055   4.123  0.0629 -0.2989 -0.1929
14439TIP3    H243275   2.395   2.182   4.144 -0.3121 -0.6821  0.7438
14440TIP3   OH243276   4.045   0.239   1.953  0.7729  0.0211  0.0168
14440TIP3    H143277   3.954   0.210   1.962  1.0907 -1.0396 -0.1189
14440TIP3    H243278   4.039   0.335   1.955 -0.4005 -0.0190 -0.5144
14441TIP3   OH243279   4.530   0.189   1.626 -0.2778  0.2861 -0.7419
14441TIP3    H143280   4.603   0.203   1.566  1.9440 -1.4155  1.3989
14441TIP3    H243281   4.538   0.259   1.691 -0.0888 -0.3339 -0.0899
14442TIP3   OH243282   1.105   2.851   3.636 -0.1965 -0.3872  0.7611
14442TIP3    H143283   1.106   2.795   3.559 -0.1043  0.7055 -0.0594
14442TIP3    H243284   1.174   2.816   3.693  1.7602  0.4853 -0.9294
14443TIP3   OH243285   4.255   3.983   5.631  0.3786  0.1640 -0.0680
14443TIP3    H143286   4.344   3.947   5.626  0.6687  0.8990 -0.3706
14443TIP3    H243287   4.267   4.077   5.617 -0.1923  0.6176  2.2027
14444TIP3   OH243288   3.787   5.948   3.731 -0.3580 -1.0154  0.1152
14444TIP3    H143289   3.870   5.942   3.684  0.5906 -1.1160  1.7247
14444TIP3    H243290   3.769   6.042   3.735  0.2749 -0.9183  0.7456
14445TIP3   OH243291   5.956   7.179   3.700 -0.5325 -0.5044 -0.5707
14445TIP3    H143292   5.981   7.203   3.611 -0.0435 -3.4257 -1.3333
14445TIP3    H243293   5.862   7.197   3.704 -0.0384  2.4900 -0.5831
14446TIP3   OH243294   0.858   4.428   0.145  0.3369 -0.0617  0.2735
14446TIP3    H143295   0.813   4.382   0.215 -0.1951  2.4263  1.7027
14446TIP3    H243296   0.951   4.416   0.164  0.2581 -1.5907 -0.1715
14447TIP3   OH243297   4.839   5.561   0.002 -0.3042  0.3874  0.0363
14447TIP3    H143298   4.796   5.561   0.088 -1.1878  0.3093 -0.3996
14447TIP3    H243299   4.795   5.491  -0.046 -1.1640  1.6894 -1.1432
14448TIP3   OH243300   0.248   0.189   0.279  0.5203 -0.0013  0.3751
14448TIP3    H143301   0.209   0.145   0.355 -1.3327 -1.5865 -1.3774
14448TIP3    H243302   0.173   0.220   0.228  1.7276  1.4675 -0.5841
14449TIP3   OH243303   0.317   6.738   2.283  0.3447 -0.3251  0.4076
14449TIP3    H143304   0.360   6.798   2.343 -1.6607  2.7774 -1.0052
14449TIP3    H243305   0.336   6.773   2.196 -1.1824 -1.5228 -0.4724
14450TIP3   OH243306   1.964   7.392   4.742 -0.1363 -0.3955  0.0148
14450TIP3    H143307   1.946   7.477   4.782  0.8381  0.1623 -0.7073
14450TIP3    H243308   2.026   7.350   4.803  3.1100  1.3360 -1.8143
14451TIP3   OH243309   5.362   0.610   2.986  0.0508 -0.1278  0.0782
14451TIP3    H143310   5.360   0.607   2.890  2.1704  0.5039 -0.0228
14451TIP3    H243311   5.385   0.700   3.006  3.3402 -1.0660  1.0283
14452TIP3   OH243312   7.196   5.506   4.501  0.0214  0.1515 -0.2094
14452TIP3    H143313   7.241   5.425   4.523 -0.5529  0.3903  2.0613
14452TIP3    H243314   7.265   5.565   4.470  0.6807 -0.6775 -0.3319
14453TIP3   OH243315   6.459   2.477   1.245  0.1754 -0.1092 -0.0926
14453TIP3    H143316   6.405   2.552   1.270  0.2164 -0.3092  0.6316
14453TIP3    H243317   6.428   2.453   1.158  0.0408  0.6352 -0.2594
14454TIP3   OH243318   7.031   2.203   0.956  0.3767 -0.3728 -0.1817
14454TIP3    H143319   7.104   2.200   0.894  0.5926 -1.2241  0.0926
14454TIP3    H243320   7.024   2.113   0.988 -0.5218 -0.2010  0.1162
14455TIP3   OH243321   5.845   3.682   0.627  0.0647  0.0716  0.5178
14455TIP3    H143322   5.862   3.702   0.535  1.7138  1.1643  1.0127
14455TIP3    H243323   5.887   3.597   0.642 -3.3437 -1.9675 -0.5610
14456TIP3   OH243324   8.296   2.999   6.327  0.3820 -0.0585 -0.0344
14456TIP3    H143325   8.282   2.976   6.235 -0.9868  0.9831 -0.1150
14456TIP3    H243326   8.213   2.980   6.369  1.2584 -1.3320  1.1909
14457TIP3   OH243327   0.921   6.331   6.631  0.8250  0.3795 -0.0866
14457TIP3    H143328   0.878   6.412   6.605 -0.1094 -0.6951 -2.0920
14457TIP3    H243329   1.013   6.344   6.610  0.3955  0.2818 -2.2139
14458TIP3   OH243330   7.124   2.169   5.881  0.4768 -0.2728 -0.5227
14458TIP3    H143331   7.098   2.239   5.821 -1.5831 -2.0821 -1.8955
14458TIP3    H243332   7.144   2.095   5.824  1.0366 -1.2974  0.9389
14459TIP3   OH243333   7.973   1.869   6.324 -0.6766  0.4146 -0.0483
14459TIP3    H143334   8.020   1.897   6.245  1.0284  1.6618  1.3384
14459TIP3    H243335   7.888   1.913   6.317 -1.1490 -0.6827 -1.8741
14460TIP3   OH243336   0.152   2.783   5.644  0.4643  0.0779  0.3781
14460TIP3    H143337   0.169   2.803   5.552  2.2596 -0.2620  0.6095
14460TIP3    H243338   0.126   2.691   5.645 -1.8870  0.6630 -0.0031
14461TIP3   OH243339   1.305   5.994   4.277  0.3607 -0.2662  0.4565
14461TIP3    H143340   1.314   5.938   4.200  0.0712 -0.0622  0.2744
14461TIP3    H243341   1.278   5.935   4.347 -0.7966 -0.2216  0.0668
14462TIP3   OH243342   0.360   0.731   2.955 -0.2281  0.1798 -0.4456
14462TIP3    H143343   0.392   0.811   2.914  1.5386 -1.2243 -1.9924
14462TIP3    H243344   0.352   0.668   2.883 -1.6709 -1.0313  0.6897
14463TIP3   OH243345   6.284   1.081   1.393  0.1280 -0.0048 -0.7715
14463TIP3    H143346   6.354   1.016   1.404  1.0455  1.0839  0.0536
14463TIP3    H243347   6.204   1.034   1.416  0.5197 -1.3665 -2.0306
14464TIP3   OH243348   6.445   4.158   6.275 -0.0685 -0.2766 -0.7433
14464TIP3    H143349   6.435   4.079   6.222  0.6341  0.2493 -1.6960
14464TIP3    H243350   6.484   4.127   6.357 -0.7467 -1.0425 -0.6920
14465TIP3   OH243351   6.230   4.211   2.519 -0.2402 -0.2843  0.1848
14465TIP3    H143352   6.180   4.204   2.438 -0.6071 -0.9605  0.4609
14465TIP3    H243353   6.293   4.138   2.514 -0.6122 -0.6491  0.7395
14466TIP3   OH243354   6.037   6.724   1.080 -0.3361 -0.1829 -0.6275
14466TIP3    H143355   6.094   6.652   1.054 -0.2297  0.0773 -1.1181
14466TIP3    H243356   5.966   6.681   1.128  0.1833 -0.5233 -0.1520
14467TIP3   OH243357   2.669   2.559   1.588 -0.3682  0.5918 -0.0018
14467TIP3    H143358   2.720   2.640   1.595  0.7955  0.1218 -2.2653
14467TIP3    H243359   2.595   2.582   1.532 -0.5237  0.2941  0.0793
14468TIP3   OH243360   6.263   3.519   2.663 -0.5209  0.8960 -0.5506
14468TIP3    H143361   6.214   3.575   2.602 -0.2112  1.4907 -0.2610
14468TIP3    H243362   6.221   3.533   2.748 -1.5457 -0.6254 -0.7487
14469TIP3   OH243363   6.696   1.723   1.868 -0.1599  0.5776 -0.0185
14469TIP3    H143364   6.655   1.781   1.933  2.1772  2.9804 -0.5446
14469TIP3    H243365   6.790   1.742   1.874  0.2810  0.0044 -3.2442
14470TIP3   OH243366   7.384   1.117   5.244 -0.8697  0.1397  0.8061
14470TIP3    H143367   7.374   1.081   5.332  0.6379 -0.0888  0.9206
14470TIP3    H243368   7.306   1.169   5.230 -1.1531  0.1505  2.2752
14471TIP3   OH243369   7.702   2.830   6.710 -0.3973 -0.3561  0.1144
14471TIP3    H143370   7.700   2.865   6.799  0.2760  0.4534 -0.1823
14471TIP3    H243371   7.610   2.816   6.688 -0.8451  2.4994 -0.2344
14472TIP3   OH243372   3.621   1.255   0.981  0.0042  0.2688 -0.2017
14472TIP3    H143373   3.588   1.165   0.970 -0.0910  0.5414 -2.6372
14472TIP3    H243374   3.543   1.306   1.002 -0.4223  0.2097 -1.5827
14473TIP3   OH243375   7.895   5.996   4.405  0.0387 -0.4033 -0.2570
14473TIP3    H143376   7.848   6.080   4.405 -0.1175 -0.4884  0.0422
14473TIP3    H243377   7.834   5.935   4.365  0.3888 -0.2493 -1.0357
14474TIP3   OH243378   5.404   7.767   2.122 -0.4426  0.1246 -0.1222
14474TIP3    H143379   5.311   7.750   2.133 -0.2905 -0.1262  0.9340
14474TIP3    H243380   5.430   7.812   2.203  0.0514  1.5693 -1.0266
14475TIP3   OH243381   7.542   4.185   3.956 -0.1934 -0.0567  0.1525
14475TIP3    H143382   7.455   4.224   3.948  0.4812  1.2830 -1.1590
14475TIP3    H243383   7.534   4.100   3.913 -0.1547  1.3334 -2.9019
14476TIP3   OH243384   4.541   5.535   3.151  0.0414 -0.7381 -0.1047
14476TIP3    H143385   4.527   5.446   3.182 -0.3390 -1.0995 -1.2857
14476TIP3    H243386   4.568   5.525   3.060 -2.4231  0.4499 -1.0283
14477TIP3   OH243387   5.255   6.129   0.511 -0.4039 -0.8379  0.5526
14477TIP3    H143388   5.178   6.169   0.470  0.3736 -0.0799 -0.2146
14477TIP3    H243389   5.238   6.035   0.507 -1.3836 -0.6670  0.5867
14478TIP3   OH243390   2.319   7.459   2.371 -0.1308 -0.2759 -0.4746
14478TIP3    H143391   2.349   7.368   2.378  1.9466  0.3885 -0.1723
14478TIP3    H243392   2.348   7.500   2.452  0.8021  1.1231 -1.4678
14479TIP3   OH243393   5.161   6.867   4.745  0.0626  0.3609 -0.2808
14479TIP3    H143394   5.171   6.781   4.785 -1.4552  0.1210 -0.3598
14479TIP3    H243395   5.162   6.849   4.651  2.1707  0.7509 -0.3807
14480TIP3   OH243396   2.850   4.006   0.367  0.0653  0.4487 -0.0451
14480TIP3    H143397   2.785   3.947   0.404  1.1376  0.0427  1.2657
14480TIP3    H243398   2.933   3.958   0.373  0.3564  0.4141 -2.8887
14481TIP3   OH243399   7.644   0.177   6.057  0.1562 -0.0944  0.2869
14481TIP3    H143400   7.729   0.218   6.043  0.3495 -0.6819 -0.3421
14481TIP3    H243401   7.597   0.191   5.975  0.1412 -0.9176  0.1496
14482TIP3   OH243402   6.617   5.222   4.713 -0.3701  0.0897 -0.0017
14482TIP3    H143403   6.665   5.236   4.795  0.1997  1.4530 -0.5404
14482TIP3    H243404   6.681   5.180   4.656 -0.6061 -0.3700  0.0629
14483TIP3   OH243405   0.188   6.169   4.038 -0.5891 -0.4473  0.0885
14483TIP3    H143406   0.248   6.199   3.970 -1.4851  1.4940  0.0775
14483TIP3    H243407   0.122   6.118   3.991 -0.5258 -0.1493 -0.3312
14484TIP3   OH243408   1.885   1.208   2.769 -0.0885  0.0688  0.0868
14484TIP3    H143409   1.845   1.293   2.786  1.1944  0.9562 -1.1456
14484TIP3    H243410   1.881   1.162   2.854 -0.5560  1.4371  0.8359
14485TIP3   OH243411   0.015   5.521   4.901  0.3600 -0.5502  1.1486
14485TIP3    H143412  -0.030   5.602   4.923 -1.5694 -1.9194  2.6164
14485TIP3    H243413   0.051   5.536   4.814 -0.8430  1.5183  0.9458
14486TIP3   OH243414   3.565   2.025   5.329  0.0823  0.1843  0.5056
14486TIP3    H143415   3.610   2.108   5.343 -0.9133  0.6798  0.9106
14486TIP3    H243416   3.597   1.994   5.244  0.6066  0.8908  0.4394
14487TIP3   OH243417   1.150   7.779   2.872  0.2782 -0.1016  0.8448
14487TIP3    H143418   1.208   7.703   2.878  1.0326  0.4682  0.8287
14487TIP3    H243419   1.113   7.774   2.783 -1.3366 -1.6233  1.5397
14488TIP3   OH243420   7.865   6.793   2.106 -0.1355 -0.9144  0.0538
14488TIP3    H143421   7.880   6.698   2.104 -0.9081 -1.0585  0.6073
14488TIP3    H243422   7.943   6.830   2.067  0.5279 -1.7467  0.5466
14489TIP3   OH243423   4.402   3.976   2.129  0.2978 -0.4692  0.0227
14489TIP3    H143424   4.402   3.927   2.211  1.6944  0.5728  0.6859
14489TIP3    H243425   4.313   3.967   2.096  0.1151 -2.1871  0.8587
14490TIP3   OH243426   8.003   6.467   0.198 -0.1019  0.4303  0.0540
14490TIP3    H143427   8.012   6.468   0.293  0.3170 -0.1634  0.0297
14490TIP3    H243428   7.910   6.450   0.183  0.2728 -2.4782  0.4063
14491TIP3   OH243429   6.480   2.731   1.013  0.5895  0.1374  0.5229
14491TIP3    H143430   6.434   2.667   0.959  1.8651 -0.0709 -0.3797
14491TIP3    H243431   6.479   2.812   0.961 -1.4345  1.0492  1.8645
14492TIP3   OH243432   1.332   5.089   5.191 -0.1230  0.2896 -0.2573
14492TIP3    H143433   1.377   5.173   5.190  2.6390 -1.0443 -3.0088
14492TIP3    H243434   1.372   5.042   5.264  0.9167  0.1564 -0.8928
14493TIP3   OH243435   5.378   7.514   4.356  0.4883  0.0958  0.2150
14493TIP3    H143436   5.446   7.469   4.406 -1.4560 -0.9644  2.0675
14493TIP3    H243437   5.355   7.452   4.286 -0.3253 -0.7077  1.1573
14494TIP3   OH243438   0.855   0.395   5.510  0.3904  0.0317 -0.2755
14494TIP3    H143439   0.898   0.472   5.549 -2.2326  0.6016  1.8568
14494TIP3    H243440   0.822   0.427   5.426 -2.2663  2.0359  1.3370
14495TIP3   OH243441   2.430   6.021   3.943 -0.9586 -0.0504  0.2967
14495TIP3    H143442   2.340   6.031   3.911 -0.4163 -0.1979 -1.3460
14495TIP3    H243443   2.453   5.931   3.922 -0.3923  0.0092  0.6479
14496TIP3   OH243444   7.793   0.305   1.612  0.4590  0.0703  0.0451
14496TIP3    H143445   7.828   0.390   1.585  4.2362 -1.4728 -0.4906
14496TIP3    H243446   7.765   0.318   1.703  2.2275  1.6420  0.4345
14497TIP3   OH243447   5.737   4.351   0.442  0.3024 -0.5135  0.3061
14497TIP3    H143448   5.786   4.432   0.451  0.0689 -0.4387  0.9673
14497TIP3    H243449   5.804   4.283   0.436  0.4946 -0.3471  0.5414
14498TIP3   OH243450   7.524   1.402   5.613  0.1441  0.1061  0.6740
14498TIP3    H143451   7.571   1.319   5.605 -1.9398 -1.0834  0.0273
14498TIP3    H243452   7.591   1.464   5.641  2.0152 -1.5361  0.1236
14499TIP3   OH243453   2.684   6.750   1.946 -0.2124  0.0126 -0.4283
14499TIP3    H143454   2.659   6.838   1.974  0.8750 -0.3143  1.8409
14499TIP3    H243455   2.612   6.694   1.975 -0.7267  0.0673 -1.5343
14500TIP3   OH243456   0.429   5.210   4.367  0.1270 -0.1413 -0.0263
14500TIP3    H143457   0.497   5.222   4.301 -0.0771 -0.1575 -0.2405
14500TIP3    H243458   0.408   5.117   4.364 -0.8702  0.0902 -0.9262
14501TIP3   OH243459   3.727   6.241   0.958 -0.0965 -0.8947 -0.2155
14501TIP3    H143460   3.702   6.241   0.866 -2.6359 -1.4226  0.3919
14501TIP3    H243461   3.659   6.189   1.001  0.6342 -0.0864  2.0438
14502TIP3   OH243462   7.945   6.919   1.243  0.1225 -0.2979 -0.4017
14502TIP3    H143463   7.860   6.880   1.265 -1.0270  0.3435 -3.2318
14502TIP3    H243464   7.970   6.969   1.321 -2.1982 -0.3693  0.4619
14503TIP3   OH243465   2.838   0.267   5.654  0.3089  0.7180  0.1249
14503TIP3    H143466   2.878   0.180   5.652  0.1363  0.6359  0.2891
14503TIP3    H243467   2.910   0.327   5.675  0.9232  0.8828 -2.1264
14504TIP3   OH243468   7.377   2.503   6.141 -0.8848  0.4478 -0.4925
14504TIP3    H143469   7.289   2.515   6.105 -1.5279 -1.0939  0.4622
14504TIP3    H243470   7.371   2.422   6.192  1.2694 -0.0710 -0.9623
14505TIP3   OH243471   4.155   7.374   2.889 -0.2332  0.5764 -0.2956
14505TIP3    H143472   4.250   7.369   2.877 -0.5145 -1.3565 -2.1721
14505TIP3    H243473   4.142   7.353   2.982  1.2143  2.7254  0.4873
14506TIP3   OH243474   2.993   4.894   1.808  0.3328 -0.0090  0.0203
14506TIP3    H143475   3.074   4.946   1.809  0.1655  0.3382 -1.7075
14506TIP3    H243476   3.024   4.803   1.802  0.5936  0.0228  0.7265
14507TIP3   OH243477   5.534   2.642   0.323 -0.7608  0.0731 -0.5319
14507TIP3    H143478   5.500   2.616   0.237  0.6847  1.5544 -1.6177
14507TIP3    H243479   5.579   2.725   0.307  0.3595 -0.0716  1.4813
14508TIP3   OH243480   2.875   7.543   5.085 -0.1433  0.3769 -0.0392
14508TIP3    H143481   2.859   7.571   5.175  0.2300 -1.9727  0.8278
14508TIP3    H243482   2.954   7.590   5.059  0.3294  0.3253  1.2512
14509TIP3   OH243483   6.053   1.847   5.895  0.7356 -0.1086 -0.6305
14509TIP3    H143484   6.065   1.780   5.828 -0.2675 -0.9468  0.0065
14509TIP3    H243485   5.991   1.909   5.856 -0.4421 -0.9941 -0.2267
14510TIP3   OH243486   2.198   4.172   5.772 -0.3688  0.0552  0.7173
14510TIP3    H143487   2.240   4.217   5.699 -0.4221 -0.7475  0.1780
14510TIP3    H243488   2.105   4.170   5.750 -0.3271 -0.5982  0.5674
14511TIP3   OH243489   6.571   3.579   4.118  0.0854  0.3207 -0.0736
14511TIP3    H143490   6.476   3.572   4.132  0.0289  1.1654 -0.0020
14511TIP3    H243491   6.609   3.560   4.204 -0.0580  0.8053  0.0999
14512TIP3   OH243492   2.022   4.167   1.310  0.4687 -0.2977  0.0103
14512TIP3    H143493   1.947   4.219   1.282  0.1697  0.2468  1.6654
14512TIP3    H243494   2.097   4.209   1.268 -0.0394 -0.1573 -0.7709
14513TIP3   OH243495   2.241   0.146   5.477 -0.0580 -0.1941  0.3844
14513TIP3    H143496   2.215   0.055   5.488  2.6155 -1.0470  0.2336
14513TIP3    H243497   2.331   0.150   5.508 -0.3494  2.6020  1.1680
14514TIP3   OH243498   0.624   4.717   5.658  0.1216  0.5251  0.4016
14514TIP3    H143499   0.665   4.676   5.735 -1.8849  0.3322  1.4187
14514TIP3    H243500   0.615   4.646   5.595  0.2536  0.3101  0.6219
14515TIP3   OH243501   3.917   1.456   6.696  0.1890 -0.0540  0.5783
14515TIP3    H143502   3.903   1.444   6.790  0.0464 -0.0090  0.5637
14515TIP3    H243503   3.926   1.367   6.662 -2.3495 -0.2642  0.2478
14516TIP3   OH243504   3.629   3.215   5.623  0.8433 -0.0032 -0.0926
14516TIP3    H143505   3.606   3.164   5.545  1.1091 -0.3029  0.0210
14516TIP3    H243506   3.556   3.275   5.635  1.1278  0.5454 -0.9982
14517TIP3   OH243507   5.201   2.282   0.894 -0.1127 -0.6211  0.4685
14517TIP3    H143508   5.205   2.276   0.799 -2.3897 -0.8555  0.3451
14517TIP3    H243509   5.114   2.250   0.917  0.0673  0.2353  2.5707
14518TIP3   OH243510   1.547   5.382   6.603 -0.5994  0.3750 -0.3125
14518TIP3    H143511   1.598   5.302   6.607 -0.1689  0.6592  0.0883
14518TIP3    H243512   1.461   5.358   6.638 -0.2104  0.2774  0.6165
14519TIP3   OH243513   0.226   1.260   1.646  0.3179 -0.4561 -0.5036
14519TIP3    H143514   0.233   1.354   1.630 -1.0224 -0.0414  1.0734
14519TIP3    H243515   0.236   1.251   1.740  1.8200 -2.0860 -0.7586
14520TIP3   OH243516   1.145   4.910   1.839  0.4345 -0.3050  0.4817
14520TIP3    H143517   1.113   4.890   1.751  0.6526  1.4088 -0.0186
14520TIP3    H243518   1.068   4.944   1.885  0.9629  1.6953 -0.0289
14521TIP3   OH243519   2.767   2.971   4.038  0.1514  0.3756 -0.2382
14521TIP3    H143520   2.798   2.938   4.122  1.2584 -1.5469 -1.3290
14521TIP3    H243521   2.686   3.019   4.060  0.7223  0.4571  1.9553
14522TIP3   OH243522   3.404   3.956   4.577  0.1174  0.7161 -0.1257
14522TIP3    H143523   3.329   4.012   4.597  0.5466  1.6371 -0.9925
14522TIP3    H243524   3.447   3.999   4.503  1.5805  0.3000  0.4365
14523TIP3   OH243525   1.852   3.490   4.259  0.0023  0.6754  0.2532
14523TIP3    H143526   1.947   3.498   4.262 -0.1532  3.1371  0.6884
14523TIP3    H243527   1.825   3.553   4.193 -1.3447 -0.2129 -0.0868
14524TIP3   OH243528   5.277   6.339   6.044 -0.3587  0.1478  0.3119
14524TIP3    H143529   5.196   6.288   6.038 -0.6349  0.5779  0.2940
14524TIP3    H243530   5.346   6.278   6.017 -0.6553 -0.2734  0.4917
14525TIP3   OH243531   6.566   2.926   4.282  0.3164 -0.7117 -0.3185
14525TIP3    H143532   6.544   2.863   4.213  1.7976 -0.5999 -0.9257
14525TIP3    H243533   6.638   2.978   4.246  0.5904 -0.1211  1.0096
14526TIP3   OH243534   3.833   2.010   6.143  0.3831 -0.2309  0.3756
14526TIP3    H143535   3.754   2.050   6.107  1.0930  0.7105 -0.1912
14526TIP3    H243536   3.801   1.952   6.212 -0.9212 -1.1141 -0.9266
14527TIP3   OH243537   6.560   1.419   0.780  0.3914  0.0720  0.1480
14527TIP3    H143538   6.496   1.480   0.818 -0.7352 -0.5226 -0.7410
14527TIP3    H243539   6.556   1.342   0.837  1.0986  0.4293  0.6982
14528TIP3   OH243540   4.498   5.186   0.899  0.6640 -0.0569 -0.3807
14528TIP3    H143541   4.492   5.222   0.988 -1.0876  0.3912 -0.6573
14528TIP3    H243542   4.557   5.111   0.908 -2.7920 -2.7675  2.1268
14529TIP3   OH243543   2.861   4.689   3.949 -0.0488  0.3927 -0.5647
14529TIP3    H143544   2.804   4.664   3.876  0.9075  0.0662 -1.2106
14529TIP3    H243545   2.857   4.614   4.008  0.6139 -0.1280 -1.1652
14530TIP3   OH243546   3.711   2.431   1.827 -0.3931 -0.0415 -0.5421
14530TIP3    H143547   3.662   2.511   1.845  0.1136 -0.0315  0.9182
14530TIP3    H243548   3.663   2.362   1.873  0.6701 -0.1019  0.5449
14531TIP3   OH243549   7.099   7.379   2.774  0.2263 -0.0387 -0.3059
14531TIP3    H143550   7.186   7.341   2.791  0.2489 -0.0067 -0.3493
14531TIP3    H243551   7.118   7.457   2.721  0.1146 -0.4757 -1.0049
14532TIP3   OH243552   7.359   4.266   0.302  0.3204 -0.2052  0.5177
14532TIP3    H143553   7.394   4.349   0.270  0.8522 -0.1977  1.1087
14532TIP3    H243554   7.323   4.224   0.224 -1.1059  1.1206  0.4164
14533TIP3   OH243555   8.261   7.004   5.390  0.2415 -0.4004  0.5480
14533TIP3    H143556   8.303   7.071   5.336  1.0814 -0.5777  0.9627
14533TIP3    H243557   8.175   7.042   5.411  0.5286  0.3576  0.4151
14534TIP3   OH243558   1.838   7.156   0.662 -0.3441 -0.5954 -0.4491
14534TIP3    H143559   1.914   7.165   0.605  0.3750 -1.7030  0.2869
14534TIP3    H243560   1.783   7.231   0.641  0.1840 -0.6353 -2.1494
14535TIP3   OH243561   8.023   4.085   5.981  0.1970 -0.0812 -0.0138
14535TIP3    H143562   7.980   4.165   5.951 -1.0438 -0.5036  0.5281
14535TIP3    H243563   8.092   4.115   6.039 -0.9538  0.6037  1.0575
14536TIP3   OH243564   2.579   0.265   4.591  0.2484  0.3743 -0.2310
14536TIP3    H143565   2.573   0.360   4.595 -0.1351  0.4336 -1.6385
14536TIP3    H243566   2.582   0.245   4.498  0.1653 -1.0043  0.0392
14537TIP3   OH243567   7.228   2.156   1.572  0.2348 -0.4839  0.5284
14537TIP3    H143568   7.154   2.129   1.518 -1.7130  2.2001  1.6544
14537TIP3    H243569   7.214   2.250   1.587  0.9963 -0.8828  5.0789
14538TIP3   OH243570   4.442   4.596   3.808 -0.2036 -0.1598 -0.5976
14538TIP3    H143571   4.436   4.602   3.903  0.3569 -0.5773 -0.5342
14538TIP3    H243572   4.435   4.502   3.789 -0.8914 -0.0336 -1.0135
14539TIP3   OH243573   1.962   3.404   0.184  0.4395 -0.0283  0.1631
14539TIP3    H143574   1.976   3.317   0.146 -1.8290 -0.2076 -0.4182
14539TIP3    H243575   1.921   3.387   0.268 -0.8494  0.4600 -0.3423
14540TIP3   OH243576   7.115   3.080   5.758  1.0667  0.3485 -0.5396
14540TIP3    H143577   7.169   3.066   5.680  0.3869 -0.8777 -0.7970
14540TIP3    H243578   7.172   3.131   5.817  0.7692  3.5524 -2.7461
14541TIP3   OH243579   7.600   3.150   3.895 -0.2677  0.0628  0.4684
14541TIP3    H143580   7.578   3.059   3.874  0.1947  0.3394 -1.3281
14541TIP3    H243581   7.692   3.148   3.918 -0.4721 -0.0426  1.3158
14542TIP3   OH243582   6.585   6.298   0.926  0.3014  0.0437 -0.3242
14542TIP3    H143583   6.506   6.244   0.916  1.1396 -1.7214  1.6322
14542TIP3    H243584   6.621   6.304   0.838 -1.3768 -0.1227 -1.0653
14543TIP3   OH243585   7.887   6.360   0.724 -0.1458 -0.9943  0.2049
14543TIP3    H143586   7.820   6.395   0.782 -0.5608  1.3770 -1.5617
14543TIP3    H243587   7.840   6.300   0.666 -0.8064  0.5235 -0.9129
14544TIP3   OH243588   7.382   6.270   1.430 -0.2126 -0.2950  0.7699
14544TIP3    H143589   7.409   6.313   1.512  0.5939  0.7504 -0.0062
14544TIP3    H243590   7.287   6.282   1.426 -0.5285 -1.8544  2.3545
14545TIP3   OH243591   3.461   5.185   0.585  0.6378  0.1191  0.0854
14545TIP3    H143592   3.493   5.100   0.619  1.7144 -0.2563 -1.7300
14545TIP3    H243593   3.525   5.209   0.518  0.5133  2.5450  0.7529
14546TIP3   OH243594   6.662   4.329   0.030  0.1732  0.1550  0.7646
14546TIP3    H143595   6.597   4.292   0.090 -0.4498  1.0272  0.6477
14546TIP3    H243596   6.681   4.416   0.066  0.3720  0.3793  0.1383
14547TIP3   OH243597   0.995   1.125   3.273 -0.0271  0.2184  0.8197
14547TIP3    H143598   0.986   1.031   3.289  1.6426  0.4382  3.7917
14547TIP3    H243599   1.078   1.133   3.225  0.0390  0.1922  0.9290
14548TIP3   OH243600   7.460   3.432   6.292 -0.8591 -0.0070  0.4725
14548TIP3    H143601   7.469   3.460   6.382  1.4062 -0.2282  0.3722
14548TIP3    H243602   7.438   3.512   6.243  1.7366  0.9451  0.7217
14549TIP3   OH243603   6.520   2.604   6.057  0.1785 -0.4722  0.2906
14549TIP3    H143604   6.547   2.565   5.974 -1.6168  0.2592 -0.7013
14549TIP3    H243605   6.426   2.584   6.063 -0.9832  3.7562 -0.4510
14550TIP3   OH243606   2.248   0.200   0.930  0.5090 -0.1367 -0.1747
14550TIP3    H143607   2.282   0.122   0.886  0.0159 -0.4786  0.0489
14550TIP3    H243608   2.201   0.166   1.006  0.6110  0.4008  0.1321
14551TIP3   OH243609   1.637   6.376   3.245  0.1458 -0.7517 -0.1469
14551TIP3    H143610   1.694   6.436   3.197  0.9707 -1.7993 -0.5236
14551TIP3    H243611   1.685   6.293   3.245  0.1986 -0.8014  2.5258
14552TIP3   OH243612   1.316   6.109   6.118 -0.1922 -0.1883 -0.1665
14552TIP3    H143613   1.406   6.115   6.087 -0.1797  0.1201 -0.0760
14552TIP3    H243614   1.318   6.149   6.205 -0.5517  0.4501 -0.4444
14553TIP3   OH243615   0.440   0.576   1.459 -0.1338 -0.1013  0.0090
14553TIP3    H143616   0.427   0.555   1.551  4.5504  0.3309  0.9821
14553TIP3    H243617   0.429   0.492   1.414 -0.4391 -0.7376  1.2253
14554TIP3   OH243618   1.957   7.306   1.373  0.3335 -0.0862  0.1013
14554TIP3    H143619   1.920   7.221   1.395  1.5054 -0.8877 -0.8893
14554TIP3    H243620   2.051   7.294   1.382  0.4779  1.4459  1.0286
14555TIP3   OH243621   2.023   7.162   3.944  0.4159 -0.3707  0.1831
14555TIP3    H143622   1.949   7.217   3.969  0.9957  0.4752  0.0899
14555TIP3    H243623   2.094   7.224   3.928  1.3173 -1.1960  0.8512
14556TIP3   OH243624   3.643   2.804   5.155  0.0247 -0.4287  0.1614
14556TIP3    H143625   3.565   2.860   5.151 -0.0792 -0.6016 -0.3528
14556TIP3    H243626   3.713   2.862   5.185  0.0455  0.1234 -0.9277
14557TIP3   OH243627   7.286   6.979   1.501 -0.5264 -0.1147  0.0688
14557TIP3    H143628   7.204   6.962   1.455  0.9668 -0.8075 -2.5404
14557TIP3    H243629   7.311   6.895   1.539 -1.0987  0.1488  1.0581
14558TIP3   OH243630   4.485   0.776   3.536  0.3833 -0.3700 -0.0447
14558TIP3    H143631   4.528   0.845   3.486 -1.1391  1.1608  0.6551
14558TIP3    H243632   4.422   0.737   3.475 -0.9753  1.0223  0.4097
14559TIP3   OH243633   7.760   5.435   4.092 -0.1402 -0.1001 -0.0685
14559TIP3    H143634   7.752   5.419   4.186  0.6274 -0.3372 -0.0329
14559TIP3    H243635   7.769   5.530   4.084 -0.3100 -0.0712  0.0907
14560TIP3   OH243636   8.042   3.985   0.104  0.4471 -0.2604 -0.3542
14560TIP3    H143637   8.046   4.071   0.062  1.6995  0.0847  0.4306
14560TIP3    H243638   8.106   3.932   0.056 -0.1420 -0.6990 -0.6745
14561TIP3   OH243639   2.816   6.811   5.714 -0.2219  0.3570 -0.5820
14561TIP3    H143640   2.884   6.752   5.682 -0.3011  0.1539 -0.3765
14561TIP3    H243641   2.861   6.894   5.727  0.0318  0.1732 -0.2673
14562TIP3   OH243642   6.389   0.194   4.374 -0.7973  0.3844  0.4365
14562TIP3    H143643   6.366   0.105   4.402 -2.0986 -0.0431 -1.7380
14562TIP3    H243644   6.337   0.251   4.431 -0.7973 -0.2930  1.1249
14563TIP3   OH243645   4.855   5.468   1.641  0.4752  0.1838  0.4861
14563TIP3    H143646   4.923   5.401   1.639  0.4311  0.1588 -0.9969
14563TIP3    H243647   4.903   5.551   1.630  0.3219  0.2147  0.0565
14564TIP3   OH243648   6.578   4.815   5.337 -0.0423  0.2623  0.4377
14564TIP3    H143649   6.653   4.858   5.378  1.0037  0.9832 -2.0534
14564TIP3    H243650   6.514   4.885   5.324 -0.6533 -0.0984  1.3696
14565TIP3   OH243651   1.216   7.723   1.961  0.2965 -0.1024 -0.4002
14565TIP3    H143652   1.267   7.779   1.902 -0.1191  1.6105  0.7769
14565TIP3    H243653   1.271   7.715   2.039 -0.8611  1.1280  0.5845
14566TIP3   OH243654   8.244   5.918   5.357  0.3239  0.5119  0.1279
14566TIP3    H143655   8.240   6.000   5.308  0.2122  0.7877  0.5871
14566TIP3    H243656   8.231   5.850   5.291 -0.3584  0.8986 -0.1442
14567TIP3   OH243657   0.560   6.432   3.682 -0.6310 -0.1788  0.1233
14567TIP3    H143658   0.588   6.368   3.616  2.1814  1.0380  0.0020
14567TIP3    H243659   0.596   6.398   3.765  0.0296  0.7132  0.2137
14568TIP3   OH243660   7.578   5.479   0.548  0.1154 -0.1223  0.7084
14568TIP3    H143661   7.494   5.516   0.521  0.4530  0.2767  0.1727
14568TIP3    H243662   7.574   5.387   0.523  0.6692  0.3609 -1.4181
14569TIP3   OH243663   6.585   2.743   6.458 -0.2818 -0.0279 -0.4277
14569TIP3    H143664   6.493   2.719   6.455 -0.3267  0.1227 -0.2666
14569TIP3    H243665   6.600   2.791   6.376 -0.3151 -0.1647 -0.5135
14570TIP3   OH243666   2.260   1.092   2.352 -0.1941 -0.4147 -0.0221
14570TIP3    H143667   2.268   1.121   2.443  0.7277 -0.7353  0.0053
14570TIP3    H243668   2.213   1.163   2.308  1.4010  0.8305  0.2011
14571TIP3   OH243669   5.444   1.628   1.899 -0.1404 -0.2251  0.2310
14571TIP3    H143670   5.414   1.662   1.983 -0.7172  0.1298 -0.1138
14571TIP3    H243671   5.492   1.701   1.859  0.6978 -0.5975  0.5210
14572TIP3   OH243672   2.992   2.185   3.299  0.3512 -0.0073 -0.4686
14572TIP3    H143673   3.039   2.248   3.245  0.7613  0.7070  0.6844
14572TIP3    H243674   3.050   2.170   3.374  0.2962 -1.8041 -0.7280
14573TIP3   OH243675   3.747   3.233   6.715 -0.2854 -0.2419 -0.5565
14573TIP3    H143676   3.766   3.191   6.631 -1.1357 -1.6654 -0.0714
14573TIP3    H243677   3.720   3.322   6.692  0.9050 -0.1320 -1.6575
14574TIP3   OH243678   7.549   6.682   0.186  0.5634  0.0157 -0.0880
14574TIP3    H143679   7.642   6.689   0.206  0.1020 -0.4821  2.7063
14574TIP3    H243680   7.524   6.595   0.217 -1.0640  0.6418  0.4917
14575TIP3   OH243681   0.735   6.615   2.577  0.6232 -0.4984  0.1672
14575TIP3    H143682   0.785   6.554   2.524  0.2160  0.3689 -1.2491
14575TIP3    H243683   0.750   6.701   2.537 -1.3071 -0.0990  0.1987
14576TIP3   OH243684   0.049   4.604   5.526  0.3956  0.0028 -0.0416
14576TIP3    H143685   0.045   4.694   5.493  0.4156  0.0531  0.0917
14576TIP3    H243686   0.073   4.614   5.618 -1.2228 -0.0477  0.4121
14577TIP3   OH243687   7.362   1.938   5.643 -0.0866 -0.0579  0.3326
14577TIP3    H143688   7.349   2.033   5.646  0.4831  0.0081  1.7668
14577TIP3    H243689   7.290   1.903   5.695  0.0221 -0.3771  0.2664
14578TIP3   OH243690   3.732   2.809   6.740 -0.4858  0.0614 -0.3272
14578TIP3    H143691   3.736   2.724   6.695 -2.0760 -0.4855  0.4846
14578TIP3    H243692   3.675   2.862   6.685 -2.2419 -0.5321  0.8573
14579TIP3   OH243693   4.374   7.366   1.404  0.0648 -0.2580  0.5348
14579TIP3    H143694   4.306   7.432   1.391 -0.2729 -0.5689  0.7244
14579TIP3    H243695   4.374   7.350   1.498  0.9834  0.3595  0.6534
14580TIP3   OH243696   0.559   6.598   5.627  0.0965  0.2403 -0.5138
14580TIP3    H143697   0.547   6.503   5.617 -2.8811  0.5298 -0.5965
14580TIP3    H243698   0.511   6.636   5.554  0.8975  1.8579 -0.2449
14581TIP3   OH243699   6.702   3.645   0.466 -0.6902  0.1742 -0.2624
14581TIP3    H143700   6.647   3.723   0.472 -1.1921 -0.1922  0.0047
14581TIP3    H243701   6.729   3.627   0.556 -1.4596 -0.5692 -0.1595
14582TIP3   OH243702   2.349   4.441   3.150  0.0901  0.1063 -0.0119
14582TIP3    H143703   2.412   4.370   3.136  0.3820  0.1498  0.9602
14582TIP3    H243704   2.399   4.521   3.134 -0.7207  0.1332 -3.0165
14583TIP3   OH243705   5.445   5.776   0.452 -0.1957 -0.5854 -0.0632
14583TIP3    H143706   5.493   5.706   0.409 -0.4586 -1.5239  1.1426
14583TIP3    H243707   5.405   5.736   0.529 -1.5308  0.5512 -0.1048
14584TIP3   OH243708   7.742   4.913   3.354  0.3292  0.0001  0.1403
14584TIP3    H143709   7.822   4.959   3.379  1.0997 -0.6195 -1.0811
14584TIP3    H243710   7.764   4.871   3.271 -1.6626  0.7995 -0.8473
14585TIP3   OH243711   2.919   3.907   6.200  0.2707 -0.0771  0.5263
14585TIP3    H143712   2.991   3.868   6.151  0.3038  2.2530 -1.4407
14585TIP3    H243713   2.840   3.869   6.161  0.2566  2.3159 -2.0985
14586TIP3   OH243714   7.253   1.803   1.550 -0.0058  0.2888  0.3255
14586TIP3    H143715   7.244   1.735   1.616 -2.8691  2.0067  1.9010
14586TIP3    H243716   7.342   1.835   1.560 -0.0504 -0.1837  2.6841
14587TIP3   OH243717   6.586   6.165   5.010  0.0100  0.3150  0.2033
14587TIP3    H143718   6.645   6.093   5.032  0.8247  1.5421  2.3287
14587TIP3    H243719   6.610   6.190   4.921  0.6140 -1.1417 -0.0737
14588TIP3   OH243720   7.964   2.398   2.296 -0.1240  0.0638  0.3877
14588TIP3    H143721   7.874   2.368   2.310  0.1260 -0.5935  0.6263
14588TIP3    H243722   8.017   2.319   2.302  0.4193  0.3652 -0.3034
14589TIP3   OH243723   2.809   1.553   5.381  0.2050  0.1889 -0.1734
14589TIP3    H143724   2.748   1.618   5.345  1.5955  1.9717  0.5322
14589TIP3    H243725   2.850   1.513   5.304 -0.0526  0.7680 -0.6183
14590TIP3   OH243726   1.010   0.461   1.682  0.4204  0.4154  0.0489
14590TIP3    H143727   0.925   0.496   1.653  0.7097  1.1575  0.0846
14590TIP3    H243728   1.016   0.376   1.639 -1.5836 -0.9278  2.1511
14591TIP3   OH243729   5.491   6.075   1.503 -0.1648  0.4602  0.4004
14591TIP3    H143730   5.522   6.115   1.584 -0.5499  0.8543  0.3576
14591TIP3    H243731   5.513   6.138   1.435 -1.0291  0.7354  0.3671
14592TIP3   OH243732   7.779   1.741   1.157 -0.2973 -0.4641 -0.2590
14592TIP3    H143733   7.861   1.695   1.178 -0.9559 -2.4961 -1.7842
14592TIP3    H243734   7.790   1.828   1.195  1.3360 -1.6228  2.1504
14593TIP3   OH243735   7.062   6.241   4.879  0.0200 -0.6948 -0.0669
14593TIP3    H143736   7.022   6.258   4.964  0.1711 -0.1144 -0.1031
14593TIP3    H243737   7.123   6.314   4.867  1.9080 -2.1181  0.4798
14594TIP3   OH243738   4.402   5.183   0.331 -0.0493  0.1995 -0.1050
14594TIP3    H143739   4.470   5.248   0.347  0.7871 -0.3005 -1.4480
14594TIP3    H243740   4.322   5.223   0.365  0.8324  0.9546  1.1737
14595TIP3   OH243741   6.008   1.865   5.068  0.0415  0.1793  0.1809
14595TIP3    H143742   6.034   1.956   5.079 -0.6143  0.6629 -1.8659
14595TIP3    H243743   6.064   1.832   4.997  0.3749 -1.0740  0.9903
14596TIP3   OH243744   4.803   0.050   5.695  0.6368  0.5606  0.0913
14596TIP3    H143745   4.874   0.037   5.758 -0.7453 -1.7936  1.3091
14596TIP3    H243746   4.754   0.125   5.729  1.4487  1.0118  0.2824
14597TIP3   OH243747   4.836   1.551   1.493  0.4550  0.1414 -0.4610
14597TIP3    H143748   4.819   1.645   1.487  2.1762  0.5600  0.4217
14597TIP3    H243749   4.796   1.525   1.576  0.9660  0.3555 -0.1413
14598TIP3   OH243750   5.531   4.391   0.870  0.0439  0.4236  0.3617
14598TIP3    H143751   5.592   4.446   0.822  0.3641  0.1016  0.3970
14598TIP3    H243752   5.447   4.436   0.862  0.5243  1.5742  1.4494
14599TIP3   OH243753   2.083   3.317   3.955 -0.8273 -0.3646  0.4194
14599TIP3    H143754   2.005   3.262   3.967 -0.7613 -0.3106  1.1377
14599TIP3    H243755   2.130   3.310   4.038 -2.0992  2.7933  1.5830
14600TIP3   OH243756   3.354   0.442   0.307  0.2880  0.4788  0.0221
14600TIP3    H143757   3.431   0.498   0.310 -0.0196  0.9125 -0.0889
14600TIP3    H243758   3.365   0.392   0.225  0.6018  0.3140  0.1624
14601TIP3   OH243759   8.155   3.599   6.335 -0.2846  0.2901  0.4598
14601TIP3    H143760   8.104   3.632   6.410 -0.7115  3.3677 -1.0258
14601TIP3    H243761   8.245   3.622   6.356 -0.0374 -1.2092  1.1376
14602TIP3   OH243762   7.992   2.167   0.951  0.5280 -0.1678  0.6716
14602TIP3    H143763   8.012   2.150   0.858  0.5661 -1.8435  0.9407
14602TIP3    H243764   7.935   2.244   0.950  1.0150  0.2013 -0.6979
14603TIP3   OH243765   5.879   0.955   0.021  0.3601 -0.0807 -0.2478
14603TIP3    H143766   5.870   1.049   0.038  1.3279  0.4159 -2.1508
14603TIP3    H243767   5.891   0.915   0.107 -1.0283  1.4088  0.6842
14604TIP3   OH243768   5.778   3.358   2.684 -0.4677 -0.0379  0.1979
14604TIP3    H143769   5.869   3.354   2.655 -0.1277 -3.8584  1.2271
14604TIP3    H243770   5.739   3.428   2.632  2.5921  0.5016 -1.6114
14605TIP3   OH243771   0.214   5.555   2.498  0.8543  0.7329 -0.2647
14605TIP3    H143772   0.133   5.602   2.516  1.4952  1.5930  0.4593
14605TIP3    H243773   0.256   5.546   2.583  0.7866 -1.1199 -0.3987
14606TIP3   OH243774   7.087  -0.026   0.764  0.1508 -0.2852 -0.0782
14606TIP3    H143775   7.173  -0.010   0.725  0.3233  1.2790  0.8461
14606TIP3    H243776   7.064   0.057   0.805 -3.5565  0.7528 -3.5482
14607TIP3   OH243777   1.976   5.927   6.077 -0.2828 -0.0293 -0.3210
14607TIP3    H143778   1.934   5.994   6.130 -0.6612 -0.3932 -0.1601
14607TIP3    H243779   1.992   5.970   5.993 -0.3209  0.3282 -0.1464
14608TIP3   OH243780   2.084   6.199   0.436 -0.4979  0.7141  0.0574
14608TIP3    H143781   2.158   6.255   0.414  0.8278 -1.4389 -1.3753
14608TIP3    H243782   2.122   6.132   0.493 -1.6936  0.4433  0.5528
14609TIP3   OH243783   6.924   4.677   1.044  0.4735  0.1416  0.3453
14609TIP3    H143784   6.883   4.764   1.039  0.7787  0.2413 -0.5565
14609TIP3    H243785   6.851   4.616   1.040  0.3470  0.3357 -0.3969
14610TIP3   OH243786   7.589   0.340   6.429  0.3960  0.3080 -0.6925
14610TIP3    H143787   7.583   0.326   6.524  1.1725  1.7706 -0.3908
14610TIP3    H243788   7.680   0.320   6.408  0.0468 -0.7112 -1.2718
14611TIP3   OH243789   2.381   2.285   5.763  0.2707 -0.7536 -0.4053
14611TIP3    H143790   2.433   2.287   5.844  0.2413  0.0071 -0.4033
14611TIP3    H243791   2.295   2.317   5.788  0.1999 -0.7086 -0.7002
14612TIP3   OH243792   6.972   1.146   2.188 -0.1589  0.3230 -0.2144
14612TIP3    H143793   6.959   1.076   2.252 -1.3244 -0.1627 -0.9432
14612TIP3    H243794   6.958   1.227   2.237  1.4224  0.0841  0.6882
14613TIP3   OH243795   3.726   7.527   5.499  0.5942  0.1467  0.5585
14613TIP3    H143796   3.804   7.532   5.553  0.7881 -1.0046  0.4050
14613TIP3    H243797   3.750   7.572   5.418  1.3654 -0.8613  0.2144
14614TIP3   OH243798   1.392   2.888   4.126 -0.0794  0.1799  0.2293
14614TIP3    H143799   1.427   2.897   4.037 -0.2510 -0.2890  0.1118
14614TIP3    H243800   1.363   2.797   4.132  3.3100 -0.9464  2.0127
14615TIP3   OH243801   7.056   3.302   0.139  0.2965 -0.1488  0.1330
14615TIP3    H143802   7.013   3.385   0.162  1.3527  1.2385 -2.4237
14615TIP3    H243803   7.120   3.288   0.209  0.0239  1.1410  0.6740
14616TIP3   OH243804   8.030   6.330   6.603  0.3397 -0.1050 -0.5496
14616TIP3    H143805   8.090   6.383   6.551  0.3567 -2.4520 -3.1263
14616TIP3    H243806   7.947   6.334   6.556  0.1165 -1.6156 -0.3352
14617TIP3   OH243807   7.137   1.687   6.017 -0.1381  0.1319 -0.6087
14617TIP3    H143808   7.045   1.711   6.021 -0.6138 -1.0772 -2.8050
14617TIP3    H243809   7.173   1.716   6.101 -2.5966  0.2166  0.5009
14618TIP3   OH243810   2.265   3.802   5.990  0.3536  0.3126 -0.0946
14618TIP3    H143811   2.188   3.857   5.973 -0.4746 -0.7187  0.2014
14618TIP3    H243812   2.230   3.727   6.038  1.4989 -0.3392 -0.2525
14619TIP3   OH243813   2.176   3.116   3.782  0.1973 -0.2572 -0.2183
14619TIP3    H143814   2.268   3.098   3.760 -0.0962 -1.1144 -0.8226
14619TIP3    H243815   2.180   3.182   3.851  1.2280  1.1610 -1.5530
14620TIP3   OH243816   1.328   5.759   1.775 -0.1882  0.3976 -0.1079
14620TIP3    H143817   1.417   5.747   1.809  0.1892 -0.6217 -1.3360
14620TIP3    H243818   1.336   5.737   1.681 -1.4483  1.6798 -0.5400
14621TIP3   OH243819   3.546   0.922   4.083  0.2748  0.0257 -0.2754
14621TIP3    H143820   3.624   0.934   4.029  0.3652  0.1563 -0.1161
14621TIP3    H243821   3.530   1.008   4.121  1.8760 -0.6552  2.1483
14622TIP3   OH243822   3.883   2.679   5.954 -0.1100 -0.2950  0.0463
14622TIP3    H143823   3.945   2.618   5.912  0.0999 -1.2291  1.6157
14622TIP3    H243824   3.803   2.671   5.901  0.6797 -0.0507 -1.2404
14623TIP3   OH243825   6.082   6.553   0.560  0.2917  0.3623 -0.0604
14623TIP3    H143826   6.070   6.459   0.576  1.5958 -0.2260 -2.1521
14623TIP3    H243827   5.995   6.590   0.569 -0.0391 -0.7669  2.2349
14624TIP3   OH243828   3.978   2.285   1.677 -0.3892 -0.2133 -0.5453
14624TIP3    H143829   3.973   2.291   1.581 -0.0444  0.0704 -0.5488
14624TIP3    H243830   3.891   2.256   1.704 -0.8988  0.9397 -0.8583
14625TIP3   OH243831   2.713   2.642   2.607 -0.7417 -0.1269  0.2100
14625TIP3    H143832   2.780   2.643   2.675 -0.0429 -1.7180 -0.3910
14625TIP3    H243833   2.659   2.565   2.628  0.1145 -1.2807 -1.5545
14626TIP3   OH243834   0.201   7.504  -0.001  0.6674  0.3339  0.0831
14626TIP3    H143835   0.211   7.469   0.087 -0.0641  1.0147  0.4416
14626TIP3    H243836   0.125   7.561   0.004 -0.9463 -1.5269 -1.5814
14627TIP3   OH243837   5.887   0.012   1.997  0.3238 -0.4426 -0.3387
14627TIP3    H143838   5.952   0.029   1.928  1.5762 -0.2583  0.8321
14627TIP3    H243839   5.924   0.054   2.075 -1.8587  0.7779  0.1032
14628TIP3   OH243840   6.696   4.555   0.495 -0.1620 -0.0154 -0.2107
14628TIP3    H143841   6.605   4.565   0.467 -0.1030  1.1017 -0.0340
14628TIP3    H243842   6.744   4.619   0.444  0.5814 -0.7805 -0.4906
14629TIP3   OH243843   1.874   7.315   1.950  0.6208 -0.1274 -0.0463
14629TIP3    H143844   1.967   7.313   1.973  0.6864 -2.4941 -0.2348
14629TIP3    H243845   1.856   7.227   1.917 -1.6176  0.3957 -0.3802
14630TIP3   OH243846   6.475   6.545   5.774 -0.2596  0.2005  0.3361
14630TIP3    H143847   6.538   6.565   5.705 -1.3292  0.2751 -0.6442
14630TIP3    H243848   6.392   6.580   5.742 -0.7852  0.2823  1.6856
14631TIP3   OH243849   4.049   7.618   2.809  0.6401  0.2204 -0.7208
14631TIP3    H143850   4.088   7.532   2.824  2.1374  0.9101 -0.4823
14631TIP3    H243851   3.954   7.601   2.809  0.8720 -1.3112  0.0030
14632TIP3   OH243852   2.641   0.789   6.607 -0.0293  0.2421  0.2078
14632TIP3    H143853   2.595   0.745   6.678  3.1677 -2.0097  1.1356
14632TIP3    H243854   2.647   0.880   6.636 -0.7981 -0.1467  1.7037
14633TIP3   OH243855   2.182   2.618   5.883 -0.4153  0.1139  0.9696
14633TIP3    H143856   2.091   2.636   5.906 -0.6048 -0.0003  0.3269
14633TIP3    H243857   2.227   2.608   5.967 -0.9319  0.4826  1.2943
14634TIP3   OH243858   6.847   5.307   0.791  0.0632  0.6788 -0.7199
14634TIP3    H143859   6.811   5.222   0.818  1.1332  0.6324  0.7072
14634TIP3    H243860   6.793   5.371   0.837 -0.4585  0.7749 -1.4443
14635TIP3   OH243861   2.535   4.194   3.214  0.1157  0.1729  0.3520
14635TIP3    H143862   2.518   4.211   3.307  1.3264 -1.0387  0.8446
14635TIP3    H243863   2.516   4.101   3.203 -0.4707  0.4108 -0.7473
14636TIP3   OH243864   0.216   5.364   0.495 -0.1576  0.1653 -0.3944
14636TIP3    H143865   0.283   5.390   0.432  0.4499 -0.7049 -0.1342
14636TIP3    H243866   0.133   5.389   0.454  0.3421  3.7742  0.4178
14637TIP3   OH243867   7.526   0.970   0.311  0.1285  0.4598  0.3711
14637TIP3    H143868   7.537   0.878   0.334  1.0580  0.6547  0.7769
14637TIP3    H243869   7.484   1.009   0.387  0.4278  0.5133  0.5114
14638TIP3   OH243870   5.079   6.009   1.307 -0.4665 -0.2692 -0.0703
14638TIP3    H143871   5.006   6.059   1.346 -0.8837 -2.3029  1.9810
14638TIP3    H243872   5.144   6.005   1.377  0.2824 -1.1193 -0.8050
14639TIP3   OH243873   3.439   3.976   2.709  0.2137  0.3698  0.1721
14639TIP3    H143874   3.361   4.021   2.742  0.6697  1.1867  0.1570
14639TIP3    H243875   3.444   3.896   2.761 -0.6103  0.3325  0.2052
14640TIP3   OH243876   6.689   5.140   3.222  0.3364 -0.1773  0.0639
14640TIP3    H143877   6.660   5.049   3.230  0.3165 -0.0687  1.6055
14640TIP3    H243878   6.766   5.135   3.165  0.2753 -1.1442  0.0414
14641TIP3   OH243879   4.300   1.847   1.609 -0.2403 -0.1252 -0.1520
14641TIP3    H143880   4.312   1.800   1.692  0.7581 -0.5588 -0.5209
14641TIP3    H243881   4.297   1.939   1.634 -0.1345 -0.2647  0.3893
14642TIP3   OH243882   2.127   3.448   1.545 -0.0408 -0.7744  0.3658
14642TIP3    H143883   2.116   3.361   1.506  1.2887 -1.0064  0.4654
14642TIP3    H243884   2.113   3.435   1.638  0.7074 -1.0016  0.4518
14643TIP3   OH243885   8.092   3.462   0.419 -0.0955 -0.5785 -1.0845
14643TIP3    H143886   8.081   3.409   0.497 -1.8657  0.8096 -0.3298
14643TIP3    H243887   8.186   3.460   0.401  0.1562 -2.0197  0.2671
14644TIP3   OH243888   2.503   7.470   3.502  0.1793  0.4475  0.0422
14644TIP3    H143889   2.581   7.442   3.550 -1.6959 -2.8330  1.5385
14644TIP3    H243890   2.458   7.529   3.563  0.1085  0.0329  0.4018
14645TIP3   OH243891   6.678   3.063   3.309  0.1916  0.0540  0.1391
14645TIP3    H143892   6.756   3.030   3.355 -0.2341 -0.1269  0.7508
14645TIP3    H243893   6.609   3.060   3.375 -0.1605  0.9343 -0.1795
14646TIP3   OH243894   7.728   5.395   2.585  0.2111  0.1393 -0.5845
14646TIP3    H143895   7.807   5.399   2.638 -0.9786 -1.5286  1.4828
14646TIP3    H243896   7.715   5.302   2.567 -1.4765  0.3261 -0.5325
14647TIP3   OH243897   5.926   4.116   4.489  0.2073  0.6662 -0.7963
14647TIP3    H143898   6.000   4.106   4.548 -1.5674 -4.5025  1.1295
14647TIP3    H243899   5.962   4.099   4.401  1.9832  3.3969 -0.7143
14648TIP3   OH243900   1.419   4.347   0.252  0.2022 -0.1438  0.1923
14648TIP3    H143901   1.482   4.304   0.194  0.8627  0.9874  0.0387
14648TIP3    H243902   1.413   4.290   0.328  0.0076 -1.1954 -0.5880
14649TIP3   OH243903   5.146   6.527   2.699 -0.5204  0.1024  0.0171
14649TIP3    H143904   5.236   6.498   2.681 -1.0031 -1.1247 -0.5308
14649TIP3    H243905   5.113   6.464   2.762 -0.9478  0.6470  0.3372
14650TIP3   OH243906   6.379   0.871   4.035  0.2137 -0.1534  0.7489
14650TIP3    H143907   6.467   0.894   4.005  0.1490  1.0975  1.4547
14650TIP3    H243908   6.365   0.782   4.003  1.5616 -0.2021  0.2465
14651TIP3   OH243909   7.362   5.024   3.948 -0.3352 -0.1475  0.4057
14651TIP3    H143910   7.341   5.058   3.861  2.9066 -0.1917 -0.5234
14651TIP3    H243911   7.327   4.935   3.948 -0.1818 -0.2308 -0.9645
14652TIP3   OH243912   2.287   1.010   1.933  0.3435 -0.1901  0.0295
14652TIP3    H143913   2.340   0.994   2.011 -0.0855  0.7692  0.5345
14652TIP3    H243914   2.332   0.962   1.863  1.4701  0.0114  0.5890
14653TIP3   OH243915   4.138   2.674   5.294  0.1184  0.6464 -0.2090
14653TIP3    H143916   4.053   2.636   5.317 -0.0703  0.2747 -1.4309
14653TIP3    H243917   4.125   2.768   5.302 -0.7227  0.6470 -1.3383
14654TIP3   OH243918   0.991   2.262   4.627 -0.2616 -0.0295 -0.7471
14654TIP3    H143919   1.081   2.232   4.614  0.3382  1.3435 -0.0421
14654TIP3    H243920   0.982   2.273   4.722 -1.2206 -0.2852 -0.7954
14655TIP3   OH243921   7.633   6.535   0.459  0.2524 -0.2687 -0.3515
14655TIP3    H143922   7.651   6.474   0.387 -1.2137  0.3734 -1.3146
14655TIP3    H243923   7.617   6.479   0.534 -2.8975 -1.2748 -1.6275
14656TIP3   OH243924   1.338   1.179   0.768  0.7139  0.0663  0.4333
14656TIP3    H143925   1.338   1.163   0.674  0.3655  0.6059  0.3399
14656TIP3    H243926   1.274   1.249   0.781 -0.7101 -1.3521  1.3133
14657TIP3   OH243927   6.351   6.904   0.764  1.0064  0.0460  0.2151
14657TIP3    H143928   6.371   6.856   0.684 -0.2141 -1.3849  0.6986
14657TIP3    H243929   6.271   6.952   0.744 -0.2216 -1.5657  0.9761
14658TIP3   OH243930   5.575   3.398   2.067 -0.2488  0.6159 -0.2558
14658TIP3    H143931   5.584   3.456   2.143 -1.1384  0.8578 -0.3263
14658TIP3    H243932   5.599   3.311   2.100  0.3679  0.8937  0.0357
14659TIP3   OH243933   6.749   4.086   3.718 -0.0799  0.8129  0.6111
14659TIP3    H143934   6.737   4.179   3.698  0.6426  0.6882 -0.4716
14659TIP3    H243935   6.823   4.084   3.779  0.3861  0.8990  0.0542
14660TIP3   OH243936   7.141   7.452   6.355 -0.0976 -0.6598 -0.2002
14660TIP3    H143937   7.150   7.484   6.445  1.1168 -0.9756 -0.1889
14660TIP3    H243938   7.208   7.500   6.306 -1.1604 -0.0229 -1.0843
14661TIP3   OH243939   6.912   5.801   1.877 -0.8266  0.3361 -0.2377
14661TIP3    H143940   6.892   5.893   1.892 -2.5480 -0.1581  0.7922
14661TIP3    H243941   6.956   5.773   1.957 -1.7263 -0.0944  0.1201
14662TIP3   OH243942   4.118   3.927   4.926  0.6952 -0.4736 -0.2463
14662TIP3    H143943   4.044   3.866   4.915 -0.4755  0.0679  3.3827
14662TIP3    H243944   4.103   3.994   4.859 -1.5677 -0.9015 -0.2639
14663TIP3   OH243945   5.812   5.168   3.250 -0.0120  0.1020 -0.0785
14663TIP3    H143946   5.749   5.161   3.323 -0.3282 -1.3280 -0.4682
14663TIP3    H243947   5.894   5.195   3.292 -0.9239  2.4359  0.3903
14664TIP3   OH243948   2.822   5.719   6.514  0.1801 -0.0542 -0.2610
14664TIP3    H143949   2.835   5.661   6.439 -0.4332 -0.6038  0.0410
14664TIP3    H243950   2.838   5.807   6.480  0.2891 -0.3320 -0.9366
14665TIP3   OH243951   1.276   5.415   1.371  0.6031 -0.2752 -0.2451
14665TIP3    H143952   1.198   5.365   1.348  1.1585 -0.6935 -1.2603
14665TIP3    H243953   1.319   5.434   1.287  0.9455  1.0210  0.1993
14666TIP3   OH243954   2.405   5.719   5.098 -0.2758 -0.1163 -0.1105
14666TIP3    H143955   2.491   5.691   5.067  1.3830  2.0217  2.1633
14666TIP3    H243956   2.351   5.639   5.095  1.7852 -1.5563 -1.4361
14667TIP3   OH243957   3.103   2.245   6.080  0.0645 -0.9653  0.3418
14667TIP3    H143958   3.127   2.283   5.996  1.2320 -2.1844  0.0886
14667TIP3    H243959   3.046   2.171   6.058 -1.0839 -0.2292  0.7452
14668TIP3   OH243960   0.153   3.481   2.124 -0.5198  0.0229  0.5463
14668TIP3    H143961   0.135   3.556   2.067  0.3910  0.3095  0.6149
14668TIP3    H243962   0.103   3.409   2.085 -0.1405  0.2823 -0.4597
14669TIP3   OH243963   7.471   3.879   3.477  0.7077  0.2356  0.2266
14669TIP3    H143964   7.534   3.948   3.459  0.0040  0.8613  0.1405
14669TIP3    H243965   7.522   3.811   3.520  1.1014  1.4761  1.7898
14670TIP3   OH243966   7.346   0.741   3.967  0.3615  0.4944  0.0758
14670TIP3    H143967   7.313   0.683   4.035 -0.3720 -0.3149 -0.9425
14670TIP3    H243968   7.440   0.724   3.964  0.3032  0.1059  0.4747
14671TIP3   OH243969   3.372   0.318   2.867  0.0197  0.7543 -0.0473
14671TIP3    H143970   3.332   0.233   2.881  2.3850 -0.2307  1.4121
14671TIP3    H243971   3.306   0.381   2.897 -1.0489 -0.6671  0.7294
14672TIP3   OH243972   3.005   0.440   4.760  0.5879 -0.0129  0.2052
14672TIP3    H143973   2.910   0.452   4.763  0.5165 -0.6342  0.6569
14672TIP3    H243974   3.037   0.485   4.839  0.4475 -1.5663  1.1934
14673TIP3   OH243975   4.486   5.376   6.371 -0.2001 -0.4956 -0.1986
14673TIP3    H143976   4.436   5.420   6.440 -1.0428 -1.1913 -0.3540
14673TIP3    H243977   4.446   5.290   6.363 -1.3736  0.1739 -2.8451
14674TIP3   OH243978   1.708   1.322   4.090 -0.7212 -0.8000 -0.1575
14674TIP3    H143979   1.642   1.390   4.098  0.8614  0.5418  2.8045
14674TIP3    H243980   1.774   1.359   4.031  0.0481  0.2427  1.3032
14675TIP3   OH243981   7.968   1.224   4.990 -0.0546 -0.6000 -0.2015
14675TIP3    H143982   7.998   1.147   4.942 -3.2783 -0.5777 -2.6006
14675TIP3    H243983   7.925   1.188   5.068 -0.9500 -1.2456 -0.9643
14676TIP3   OH243984   3.902   2.036   3.216  0.0331  0.0664 -0.0114
14676TIP3    H143985   3.940   2.124   3.216  1.4885 -0.5032  1.6640
14676TIP3    H243986   3.931   1.997   3.298 -0.5209 -2.0113 -0.7300
14677TIP3   OH243987   2.032   6.648   3.190  0.6339 -0.6519 -0.2590
14677TIP3    H143988   2.071   6.584   3.249 -0.2441 -0.6591  0.3199
14677TIP3    H243989   1.942   6.619   3.178  0.8108 -0.6984 -1.6733
14678TIP3   OH243990   7.164   7.090   0.556  0.3966 -0.2104 -0.7140
14678TIP3    H143991   7.222   7.132   0.493 -0.1315  1.4846 -0.1122
14678TIP3    H243992   7.198   7.001   0.564  2.1473  0.3710 -1.3011
14679TIP3   OH243993   8.180   5.965   3.509 -0.0002  0.5573  0.1980
14679TIP3    H143994   8.088   5.939   3.506 -0.0913  0.8000  0.6957
14679TIP3    H243995   8.201   5.994   3.420  0.1936 -1.5155 -0.4806
14680TIP3   OH243996   1.053   7.300   5.097  0.4479 -0.0319 -0.2554
14680TIP3    H143997   1.108   7.229   5.064 -1.2642 -0.8759 -1.4392
14680TIP3    H243998   1.021   7.345   5.019  1.0036  1.6932  0.4564
14681TIP3   OH243999   1.548   4.048   3.021 -0.2404  0.3663  0.1257
14681TIP3    H144000   1.585   3.974   2.974 -1.1727 -0.6256  0.8913
14681TIP3    H244001   1.461   4.060   2.983 -0.3143  0.6994  0.3891
14682TIP3   OH244002   1.024   6.946   3.167 -0.0367 -0.2732  0.1161
14682TIP3    H144003   0.996   6.861   3.133 -0.4201  0.5657 -1.8429
14682TIP3    H244004   0.943   6.995   3.179  0.1568 -0.2531  1.5514
14683TIP3   OH244005   6.447   7.797   4.214  0.5087  0.3388 -0.4639
14683TIP3    H144006   6.359   7.831   4.197 -0.7403 -2.8264 -0.9436
14683TIP3    H244007   6.500   7.832   4.143 -1.1124 -0.1588 -1.9987
14684TIP3   OH244008   4.131   0.357   5.378  0.0445 -0.3458  0.7342
14684TIP3    H144009   4.092   0.429   5.328  0.5022 -0.5521  0.0669
14684TIP3    H244010   4.090   0.279   5.343 -0.1941 -0.4344  1.2151
14685TIP3   OH244011   5.330   2.838   0.200  0.7236  0.0928  0.1239
14685TIP3    H144012   5.294   2.827   0.111  1.2765  0.6933 -0.1771
14685TIP3    H244013   5.259   2.808   0.257  0.5548 -0.8223 -0.5281
14686TIP3   OH244014   2.844   0.816   4.588  0.2294  0.4516  0.2528
14686TIP3    H144015   2.828   0.724   4.568  0.0914  0.3781  0.6848
14686TIP3    H244016   2.783   0.837   4.659  0.9834  0.5773  0.8923
14687TIP3   OH244017   0.241   6.276   6.162 -0.3235 -0.0164 -0.3032
14687TIP3    H144018   0.233   6.189   6.200 -2.7565  0.0951 -0.4565
14687TIP3    H244019   0.211   6.266   6.072 -1.1726  1.0929 -0.1580
14688TIP3   OH244020   0.709   2.624   6.367 -0.1502  0.8125  0.6299
14688TIP3    H144021   0.802   2.642   6.380  0.6945  0.4542 -3.4397
14688TIP3    H244022   0.705   2.529   6.354 -1.0783  0.8154  0.8650
14689TIP3   OH244023   7.033   2.274   5.583  0.0223 -0.3106 -0.0642
14689TIP3    H144024   6.942   2.246   5.595 -0.2376  0.8497  0.8501
14689TIP3    H244025   7.034   2.318   5.498 -0.2846 -0.2646 -0.0436
14690TIP3   OH244026   4.089   6.429   6.073 -0.0358  0.5681 -0.0214
14690TIP3    H144027   4.065   6.347   6.115 -0.8909  0.5854 -0.4629
14690TIP3    H244028   4.032   6.495   6.114 -0.1310  0.7556 -0.4501
14691TIP3   OH244029   0.474   3.708   1.862 -0.4728 -0.3893  0.4724
14691TIP3    H144030   0.424   3.708   1.943  0.6268  0.9078  1.1974
14691TIP3    H244031   0.555   3.756   1.883  1.6547 -3.3245 -0.3181
14692TIP3   OH244032   0.813   1.215   5.742 -0.4214 -0.5700  0.3944
14692TIP3    H144033   0.885   1.211   5.804  0.0852 -0.3238 -0.1713
14692TIP3    H244034   0.851   1.186   5.659 -1.1040 -0.9511  0.2076
14693TIP3   OH244035   7.412   5.224   3.103  0.0560 -0.2533  0.5192
14693TIP3    H144036   7.347   5.283   3.064  0.4082 -1.2182 -1.6496
14693TIP3    H244037   7.359   5.160   3.151 -0.7910 -1.8480 -2.3557
14694TIP3   OH244038   4.807   3.538   0.363 -0.2481  0.1308  0.4011
14694TIP3    H144039   4.852   3.515   0.282 -2.4262  1.2542 -1.1953
14694TIP3    H244040   4.866   3.600   0.406  0.0925  1.0393 -1.2882
14695TIP3   OH244041   2.741   6.727   3.430  0.2152  0.1332 -0.3204
14695TIP3    H144042   2.800   6.677   3.373  1.8264 -0.2486  1.5657
14695TIP3    H244043   2.729   6.670   3.507 -0.9415  1.1063  0.2428
14696TIP3   OH244044   4.182   4.404   2.343 -0.2267  0.6245 -0.4633
14696TIP3    H144045   4.211   4.321   2.380  2.2635  0.1448 -3.1092
14696TIP3    H244046   4.214   4.470   2.405  0.6071 -0.2643  0.0919
14697TIP3   OH244047   4.948   4.446   4.996 -0.0986 -0.2057 -0.7968
14697TIP3    H144048   4.950   4.413   4.906  1.9874 -0.5247 -0.6838
14697TIP3    H244049   4.952   4.368   5.050 -0.9861  0.0065 -0.4076
14698TIP3   OH244050   3.716   2.024   5.688 -0.1257  0.1344  0.5532
14698TIP3    H144051   3.726   2.080   5.765  4.5985 -0.4196  0.5973
14698TIP3    H244052   3.698   1.937   5.724 -1.0335  0.3988  0.7856
14699TIP3   OH244053   1.507   0.489   0.422 -0.0393 -0.0525  0.1408
14699TIP3    H144054   1.567   0.557   0.452 -0.5485  0.8024 -0.7031
14699TIP3    H244055   1.531   0.411   0.473  1.9767  0.1692 -0.3666
14700TIP3   OH244056   1.237   3.799   2.204 -0.3755  0.6522 -0.5763
14700TIP3    H144057   1.185   3.861   2.255 -0.4072 -0.4870  0.8678
14700TIP3    H244058   1.215   3.713   2.241  2.1831  0.0788 -0.1617
14701TIP3   OH244059   4.702   4.564   6.328 -0.2846  0.4897  0.0183
14701TIP3    H144060   4.641   4.517   6.272  0.1943  1.3313 -1.2537
14701TIP3    H244061   4.645   4.617   6.385 -0.7940  1.6815 -1.5116
14702TIP3   OH244062   1.752   6.122   6.199  0.0889 -0.2936 -0.2266
14702TIP3    H144063   1.725   6.163   6.117 -1.2096  1.7936  1.1520
14702TIP3    H244064   1.675   6.128   6.256  0.7145 -2.3519  0.9468
14703TIP3   OH244065   0.045   3.468   6.606 -0.5043 -0.2513 -0.0049
14703TIP3    H144066  -0.010   3.414   6.548 -0.3136 -0.8582  0.3686
14703TIP3    H244067   0.083   3.534   6.548 -0.9210 -0.3778 -0.4319
14704TIP3   OH244068   2.537   4.532   4.797 -0.0349 -0.3679  0.4812
14704TIP3    H144069   2.602   4.590   4.758  1.5102 -2.0781  0.4168
14704TIP3    H244070   2.517   4.573   4.882 -0.3937  1.2147 -0.3263
14705TIP3   OH244071   2.766   5.314   5.303 -0.1031 -0.0900  0.4590
14705TIP3    H144072   2.861   5.318   5.295 -0.0600  1.9205  1.1517
14705TIP3    H244073   2.734   5.336   5.216  0.0920  0.2391  0.4668
14706TIP3   OH244074   7.916   1.410   4.761  0.6044 -0.3666  0.2874
14706TIP3    H144075   7.970   1.362   4.698 -0.5779 -0.5368 -0.6373
14706TIP3    H244076   7.911   1.353   4.837 -0.2821 -1.4819 -0.5703
14707TIP3   OH244077   0.789   1.014   0.191 -0.1892 -0.0472  0.0744
14707TIP3    H144078   0.755   1.099   0.218  0.7753 -0.0731  1.4775
14707TIP3    H244079   0.804   1.023   0.097 -0.3432  1.2452  0.1595
14708TIP3   OH244080   4.761   1.794   6.172 -0.1829  0.1996 -0.6472
14708TIP3    H144081   4.697   1.724   6.186  0.1987 -0.0053  0.1756
14708TIP3    H244082   4.838   1.766   6.223  0.5755  0.4142 -1.6437
14709TIP3   OH244083   0.051   4.535   0.777 -0.0934  0.2230  1.0527
14709TIP3    H144084  -0.035   4.494   0.783  0.8444 -1.8452  1.0990
14709TIP3    H244085   0.037   4.613   0.723 -2.3880  1.1532  2.8213
14710TIP3   OH244086   2.079   7.330   4.491  0.3924 -0.1796  0.1424
14710TIP3    H144087   2.158   7.344   4.545  0.2815  1.7374 -0.1272
14710TIP3    H244088   2.015   7.391   4.527  0.1088  0.7050 -1.7429
14711TIP3   OH244089   1.581   1.331   2.056  0.2638  0.1572 -0.1093
14711TIP3    H144090   1.512   1.382   2.015  0.5126 -0.4767 -1.3742
14711TIP3    H244091   1.555   1.240   2.042  1.6179 -0.1076 -1.1608
14712TIP3   OH244092   2.374   6.728   2.639  0.4297 -0.5076 -0.1296
14712TIP3    H144093   2.378   6.742   2.734  1.3888 -0.4270 -0.1722
14712TIP3    H244094   2.428   6.651   2.624 -0.0207 -0.7393 -0.5751
14713TIP3   OH244095   3.172   5.036   3.866 -0.2125 -0.1898  0.0589
14713TIP3    H144096   3.217   5.010   3.786  0.8414  1.5043  0.0576
14713TIP3    H244097   3.089   5.072   3.836  0.0319  0.1245 -0.2428
14714TIP3   OH244098   1.490   3.014   3.079  0.1394 -0.4202  0.3563
14714TIP3    H144099   1.536   2.933   3.060  0.1813 -0.7554  1.7941
14714TIP3    H244100   1.435   2.994   3.155 -1.2423  0.3914 -0.3872
14715TIP3   OH244101   0.697   6.877   5.361  0.0170  0.4107  0.0669
14715TIP3    H144102   0.719   6.824   5.438  0.1320  1.5217  0.8283
14715TIP3    H244103   0.755   6.846   5.292 -0.6863 -1.2080  0.1665
14716TIP3   OH244104   4.112   3.112   3.473  0.4164  0.2228 -0.1411
14716TIP3    H144105   4.076   3.114   3.384 -0.0754  0.4969  0.0602
14716TIP3    H244106   4.173   3.038   3.472 -2.7693 -2.6979  0.4562
14717TIP3   OH244107   7.869   6.913   6.766 -0.3325  0.3897  0.5188
14717TIP3    H144108   7.905   6.964   6.839  1.6628  1.2145 -0.9313
14717TIP3    H244109   7.860   6.977   6.695  0.8114 -0.9351 -0.8939
14718TIP3   OH244110   2.175   1.703   6.207 -0.7259 -0.3231 -0.5110
14718TIP3    H144111   2.150   1.618   6.171  2.2430 -1.6608  0.3161
14718TIP3    H244112   2.252   1.728   6.156 -0.9748  1.4268 -0.0835
14719TIP3   OH244113   4.481   1.938   6.736  0.5271  0.4495  0.0509
14719TIP3    H144114   4.495   1.938   6.642 -0.0970 -0.0698 -0.0507
14719TIP3    H244115   4.386   1.947   6.746  0.5350 -0.0068  0.6095
14720TIP3   OH244116   8.139   6.371   2.967 -0.1689  0.1211 -0.0857
14720TIP3    H144117   8.219   6.417   2.989  0.3582 -0.7126 -0.2230
14720TIP3    H244118   8.144   6.358   2.872  0.2048 -1.1304  0.0821
14721TIP3   OH244119   2.631   0.358   6.679  0.0912 -0.3590 -0.5888
14721TIP3    H144120   2.562   0.345   6.615 -1.6194  0.9144  0.8802
14721TIP3    H244121   2.611   0.296   6.750 -0.1555  0.6719  0.2779
14722TIP3   OH244122   2.455   0.034   5.144 -0.4427 -0.1979 -0.1703
14722TIP3    H144123   2.531   0.066   5.192 -0.2475 -1.0661  0.1184
14722TIP3    H244124   2.437   0.102   5.079  0.1474  0.3381  0.2144
14723TIP3   OH244125   2.645   0.660   6.199 -0.3717 -0.4344 -0.3550
14723TIP3    H144126   2.564   0.610   6.204 -0.8451  0.0630 -2.2285
14723TIP3    H244127   2.632   0.720   6.126  0.5093  1.8822  1.2735
14724TIP3   OH244128   0.305   4.705   4.439 -0.2436  0.2845 -0.2597
14724TIP3    H144129   0.318   4.630   4.497  0.4930 -0.8760 -1.8371
14724TIP3    H244130   0.223   4.687   4.393  0.3662 -0.0166 -1.2639
14725TIP3   OH244131   7.083   1.165   3.791  0.3091  0.3470 -0.2141
14725TIP3    H144132   7.177   1.162   3.805  0.4151 -1.2082 -0.9756
14725TIP3    H244133   7.045   1.131   3.872  0.6080 -2.1663 -1.0219
14726TIP3   OH244134   5.439   3.920   4.404 -0.0489 -0.3505  0.2559
14726TIP3    H144135   5.441   4.013   4.385  1.4139 -0.3495  0.2504
14726TIP3    H244136   5.483   3.879   4.328  3.7568 -0.5538  2.2950
14727TIP3   OH244137   6.833   2.774   5.795 -0.0239 -0.1196 -0.3356
14727TIP3    H144138   6.807   2.860   5.762  1.1034 -0.7191 -2.9778
14727TIP3    H244139   6.873   2.793   5.881 -0.9886  1.7949 -0.2611
14728TIP3   OH244140   4.563   1.662   2.007  0.5552 -0.2935 -0.0457
14728TIP3    H144141   4.500   1.690   2.073 -0.4651  1.7656 -1.7630
14728TIP3    H244142   4.575   1.569   2.023 -1.5565 -0.3715  1.4655
14729TIP3   OH244143   5.963   3.379   2.089 -0.1563  0.2555  0.0701
14729TIP3    H144144   5.897   3.447   2.088 -0.7202 -0.2633  0.7130
14729TIP3    H244145   5.959   3.340   2.002 -0.9090  0.0409  0.1935
14730TIP3   OH244146   3.612   6.606   5.744  0.4467  0.7133 -0.3826
14730TIP3    H144147   3.561   6.552   5.683 -1.5464 -0.8927  2.4470
14730TIP3    H244148   3.546   6.655   5.794  1.9560  1.8548  0.5876
14731TIP3   OH244149   5.787   6.921   3.475 -0.3117 -0.3340  0.0550
14731TIP3    H144150   5.741   6.838   3.466 -3.0722  1.0805 -0.0319
14731TIP3    H244151   5.733   6.972   3.536 -0.0935  2.2192 -1.6860
14732TIP3   OH244152   6.717   5.270   4.956 -0.2214  0.5012 -0.2196
14732TIP3    H144153   6.704   5.236   5.044  0.6688 -2.5251 -1.1098
14732TIP3    H244154   6.811   5.286   4.951 -0.5701  2.9075  0.0367
14733TIP3   OH244155   0.035   3.502   3.075 -0.0547 -0.7583 -0.0339
14733TIP3    H144156   0.078   3.426   3.114  0.7432 -0.8553 -1.0607
14733TIP3    H244157  -0.019   3.538   3.145  1.5978 -0.7095  1.2576
14734TIP3   OH244158   0.484   0.199   1.113 -0.9969 -0.4295  0.6537
14734TIP3    H144159   0.401   0.207   1.066 -0.9424 -1.7486  0.2678
14734TIP3    H244160   0.551   0.201   1.045 -0.6408  1.3559  1.0272
14735TIP3   OH244161   6.215   0.212   3.322  0.3512  0.2128 -0.4049
14735TIP3    H144162   6.294   0.260   3.346  0.9482 -0.7546 -0.4227
14735TIP3    H244163   6.172   0.195   3.406 -0.2855  1.4512 -0.4482
14736TIP3   OH244164   7.962   1.683   5.696 -0.2463  0.0595  0.1826
14736TIP3    H144165   7.902   1.688   5.621  0.1046  2.9293 -0.0260
14736TIP3    H244166   8.027   1.752   5.679  0.2134  0.3599  2.8178
14737TIP3   OH244167   3.001   5.127   2.774 -0.3387 -0.1962  0.4225
14737TIP3    H144168   3.078   5.097   2.727 -0.1759 -0.1384  0.6471
14737TIP3    H244169   3.037   5.173   2.851 -0.5982 -0.6829  0.8431
14738TIP3   OH244170   2.502   0.773   3.100 -0.5302 -0.3540 -0.5236
14738TIP3    H144171   2.542   0.846   3.146  2.8819 -2.6983  0.6813
14738TIP3    H244172   2.462   0.720   3.169 -1.9247 -0.2327 -1.2169
14739TIP3   OH244173   4.274   7.682   4.512  0.5441 -0.0693  0.2397
14739TIP3    H144174   4.227   7.749   4.560  1.2540 -0.5327  1.6594
14739TIP3    H244175   4.208   7.616   4.491  0.2787 -0.0475  0.9682
14740TIP3   OH244176   2.962   6.963   1.936  0.6552 -0.0910 -0.4016
14740TIP3    H144177   2.976   6.873   1.907  1.7198 -0.1209  0.1633
14740TIP3    H244178   3.043   7.009   1.912  0.1922  0.6752 -0.5213
14741TIP3   OH244179   6.498   4.099   2.450 -0.6045  0.0665 -0.0320
14741TIP3    H144180   6.566   4.036   2.473  0.0315  1.5319  2.4418
14741TIP3    H244181   6.546   4.177   2.423 -1.3535  0.4214 -0.3667
14742TIP3   OH244182   7.343   1.383   0.924 -0.0503  0.4833 -0.5413
14742TIP3    H144183   7.275   1.414   0.983  0.4272  1.2139 -0.3626
14742TIP3    H244184   7.300   1.378   0.838 -1.1370 -1.9013  0.0439
14743TIP3   OH244185   1.861   7.153   0.229 -0.5013 -0.2023  0.2693
14743TIP3    H144186   1.918   7.186   0.298 -1.2805 -1.1595  1.4000
14743TIP3    H244187   1.909   7.079   0.191  0.1371  0.6147 -0.5783
14744TIP3   OH244188   3.611   1.327   6.127 -0.1985 -0.1171  0.1151
14744TIP3    H144189   3.545   1.367   6.184  0.8520  0.0767  1.2372
14744TIP3    H244190   3.654   1.262   6.183 -0.4311 -1.3194 -1.0513
14745TIP3   OH244191   8.130   7.479   2.491  0.4100 -0.3026 -0.1305
14745TIP3    H144192   8.052   7.425   2.476 -0.2702  0.6004  0.0457
14745TIP3    H244193   8.172   7.485   2.406  1.6147 -2.7445  0.2183
14746TIP3   OH244194   4.703   5.300   4.405 -1.2037 -0.1565  0.1783
14746TIP3    H144195   4.751   5.378   4.375 -1.3631  0.2513  0.9523
14746TIP3    H244196   4.624   5.298   4.351 -0.7613 -0.2974 -0.4656
14747TIP3   OH244197   0.654   1.723   1.617  0.3015 -1.0214 -0.0646
14747TIP3    H144198   0.709   1.797   1.642  0.3886 -1.4535  1.0593
14747TIP3    H244199   0.670   1.657   1.684  1.5806 -2.7882 -1.9999
14748TIP3   OH244200   7.444   5.583   1.473  0.3039  0.5648  0.3167
14748TIP3    H144201   7.533   5.554   1.455 -0.7870 -2.0215 -1.6096
14748TIP3    H244202   7.389   5.511   1.442 -2.5653  2.9523 -0.6233
14749TIP3   OH244203   4.225   3.217   3.710  0.2398  0.3354  0.3658
14749TIP3    H144204   4.196   3.169   3.788 -2.3738  2.4098  0.8053
14749TIP3    H244205   4.177   3.176   3.638  1.1348 -0.3068  0.1294
14750TIP3   OH244206   6.106   3.098   3.296 -0.1401  0.2784  0.8593
14750TIP3    H144207   6.130   3.167   3.234  0.6518  0.5298  1.4256
14750TIP3    H244208   6.016   3.075   3.273  0.6053 -0.7035 -1.3590
14751TIP3   OH244209   0.235   4.351   4.755 -0.1261  0.0592  0.0517
14751TIP3    H144210   0.226   4.315   4.843 -1.7405 -0.5025 -0.2989
14751TIP3    H244211   0.258   4.276   4.701 -1.8352 -0.1697 -0.4106
14752TIP3   OH244212   7.390   2.332   5.873 -0.4889 -0.1402 -0.0400
14752TIP3    H144213   7.367   2.260   5.813 -0.5144  1.3231 -1.8696
14752TIP3    H244214   7.306   2.375   5.891 -0.0668  1.7914 -2.1986
14753TIP3   OH244215   2.267   3.152   1.495 -0.2238  0.3265  0.1375
14753TIP3    H144216   2.347   3.126   1.450 -0.9110 -2.1681  0.2442
14753TIP3    H244217   2.296   3.182   1.582  0.5762 -0.8927  0.3036
14754TIP3   OH244218   1.155   1.455   0.577  0.0314  0.1828  0.3616
14754TIP3    H144219   1.085   1.426   0.519  1.1608 -0.7778 -0.5749
14754TIP3    H244220   1.142   1.403   0.657  0.9527 -1.6666 -0.6291
14755TIP3   OH244221   2.404   6.946   3.255  0.0051 -0.7016 -0.1826
14755TIP3    H144222   2.319   6.931   3.214 -0.2434  1.8929 -0.7795
14755TIP3    H244223   2.384   6.991   3.337  0.7866 -0.6422 -0.0146
14756TIP3   OH244224   4.632   5.550   5.924  0.2910  0.3953  0.1960
14756TIP3    H144225   4.537   5.547   5.933  0.1255 -1.3194 -1.4600
14756TIP3    H244226   4.648   5.626   5.868  0.0318  1.4185  1.4684
14757TIP3   OH244227   6.711   3.328   3.567  0.1146  0.1215  0.1599
14757TIP3    H144228   6.742   3.408   3.609 -1.3634  0.5875  0.4323
14757TIP3    H244229   6.736   3.257   3.626  1.2379  0.3894  0.0233
14758TIP3   OH244230   0.295   6.519   3.419  1.0308 -0.0805  0.0775
14758TIP3    H144231   0.274   6.451   3.356 -0.1291  0.2585  0.0890
14758TIP3    H244232   0.391   6.516   3.427  1.4257  1.0724 -3.0508
14759TIP3   OH244233   5.391   1.232   3.570 -0.8909 -0.3874 -0.0425
14759TIP3    H144234   5.423   1.154   3.615  0.8859  1.9649  3.2134
14759TIP3    H244235   5.467   1.266   3.523 -0.8373  0.7580  0.8163
14760TIP3   OH244236   5.739   5.284   1.764  0.0786 -0.3760 -0.3895
14760TIP3    H144237   5.823   5.320   1.734 -0.2496  0.3997 -0.3790
14760TIP3    H244238   5.677   5.355   1.753 -0.7246 -1.1550 -1.0195
14761TIP3   OH244239   3.067   3.409   0.872 -0.7091 -0.2436  0.0151
14761TIP3    H144240   3.006   3.478   0.846  0.4117  1.2668  1.1913
14761TIP3    H244241   3.078   3.422   0.966  0.0016 -1.6682  0.1541
14762TIP3   OH244242   3.038   6.707   1.545 -0.3445 -0.1583  0.0533
14762TIP3    H144243   3.079   6.746   1.622  0.1544  0.2926 -0.4284
14762TIP3    H244244   2.944   6.720   1.558 -0.3111 -0.7611  0.9353
14763TIP3   OH244245   2.781   0.969   0.741 -0.1105  0.4270  0.7664
14763TIP3    H144246   2.734   0.893   0.708  1.3118 -0.4739  0.7360
14763TIP3    H244247   2.850   0.984   0.676  0.2100  1.1534  1.2634
14764TIP3   OH244248   0.311   6.748   4.600 -0.2995 -0.1998  0.1487
14764TIP3    H144249   0.344   6.696   4.673  1.9681  1.2841  0.2840
14764TIP3    H244250   0.378   6.739   4.532 -0.7613  1.0189 -0.5047
14765TIP3   OH244251   0.823   1.849   4.486  0.0685 -0.1256  0.1019
14765TIP3    H144252   0.777   1.867   4.404 -0.6758 -0.4493  0.4355
14765TIP3    H244253   0.760   1.872   4.555  0.4358 -0.5026  0.5741
14766TIP3   OH244254   6.404   0.043   1.130  0.1723  0.5481 -0.3372
14766TIP3    H144255   6.468  -0.019   1.164  0.4573  0.7503 -0.4962
14766TIP3    H244256   6.332  -0.011   1.096 -0.0740  0.3403  0.4915
14767TIP3   OH244257   6.223   1.155   0.507 -0.1885  0.2054  0.2904
14767TIP3    H144258   6.200   1.063   0.505 -2.0191  0.5688  1.7926
14767TIP3    H244259   6.140   1.202   0.503  0.7660  1.9547 -3.2543
14768TIP3   OH244260   6.967   6.447   3.635 -0.2931 -0.1106  0.0770
14768TIP3    H144261   6.986   6.541   3.637 -1.0690  0.3019 -3.7413
14768TIP3    H244262   7.038   6.407   3.684 -0.7890  2.4676  3.2304
14769TIP3   OH244263   2.048   7.792   3.115  0.0999  0.6418  0.0596
14769TIP3    H144264   2.050   7.775   3.209 -0.8688  0.4735  0.0697
14769TIP3    H244265   2.139   7.790   3.087  0.4764  1.7752  1.1754
14770TIP3   OH244266   7.740   1.993   2.131 -0.3707  0.2827  0.3702
14770TIP3    H144267   7.793   2.040   2.195 -0.0954 -0.2007  0.5024
14770TIP3    H244268   7.792   1.996   2.050 -0.9354  1.3168  0.0195
14771TIP3   OH244269   7.923   7.543   5.427  0.2661  0.4493  0.0758
14771TIP3    H144270   7.958   7.483   5.361  0.0528  0.3889  0.0150
14771TIP3    H244271   7.993   7.606   5.442  0.2666  0.5388 -0.3043
14772TIP3   OH244272   0.702   0.586   5.312 -0.4286  0.1138  0.3050
14772TIP3    H144273   0.713   0.680   5.328  2.4735 -0.2649  1.1549
14772TIP3    H244274   0.613   0.567   5.341 -1.4303  2.7226 -0.7512
14773TIP3   OH244275   7.122   2.222   0.597 -0.4786  0.1343 -0.2324
14773TIP3    H144276   7.151   2.248   0.510  0.0398 -1.6911 -0.6322
14773TIP3    H244277   7.027   2.230   0.594 -0.4603  0.1144 -0.9447
14774TIP3   OH244278   0.324   0.786   6.707 -0.2382  0.1484 -0.2878
14774TIP3    H144279   0.262   0.724   6.745 -1.6575  1.1641 -0.8467
14774TIP3    H244280   0.410   0.748   6.725 -1.0482 -2.0781 -0.8046
14775TIP3   OH244281   2.187   5.302   1.282  0.2553  0.4003 -0.9271
14775TIP3    H144282   2.179   5.209   1.261  2.6742 -0.2575  0.6284
14775TIP3    H244283   2.105   5.324   1.326  0.2849 -1.4808  0.1746
14776TIP3   OH244284   0.926   3.777   1.057  0.0284  0.1654 -1.0639
14776TIP3    H144285   0.862   3.789   1.127 -1.1452  1.9336 -2.3469
14776TIP3    H244286   1.006   3.750   1.102 -0.9237  0.3771  0.8471
14777TIP3   OH244287   2.738   1.236   5.937  0.1403  0.3739  0.4825
14777TIP3    H144288   2.784   1.185   6.004  0.9715  1.1063  0.4836
14777TIP3    H244289   2.807   1.273   5.883 -0.5080  0.1976 -0.4990
14778TIP3   OH244290   1.442   5.063   5.787  0.5530  0.2182  0.1625
14778TIP3    H144291   1.393   5.112   5.722  0.0234  1.2427  1.2997
14778TIP3    H244292   1.397   4.979   5.793  0.6419  0.0901 -0.8090
14779TIP3   OH244293   6.629   6.375   5.509 -0.8212  0.6831 -0.3766
14779TIP3    H144294   6.557   6.313   5.515  0.2431 -0.9113 -2.4349
14779TIP3    H244295   6.589   6.455   5.475 -1.9240  0.5134  0.4749
14780TIP3   OH244296   1.005   0.247   5.886 -0.0223  0.6923  0.3732
14780TIP3    H144297   0.918   0.247   5.846  0.7475  1.5694 -1.4229
14780TIP3    H244298   1.032   0.155   5.886 -0.3246  0.5938 -0.5505
14781TIP3   OH244299   0.900   7.691   1.430  0.6566  0.7762 -0.4424
14781TIP3    H144300   0.880   7.784   1.437  0.7275  0.7843 -0.3497
14781TIP3    H244301   0.925   7.664   1.519  0.9002  0.7308 -0.5218
14782TIP3   OH244302   5.769   0.184   2.994 -0.1468  0.3413 -0.1971
14782TIP3    H144303   5.861   0.209   2.984  0.1308  0.1505  1.5590
14782TIP3    H244304   5.746   0.210   3.084 -1.1279 -1.6546  0.1937
14783TIP3   OH244305   4.296   6.662   4.548  0.1826  0.0831 -0.1503
14783TIP3    H144306   4.325   6.753   4.561  0.2959 -0.0025  0.2112
14783TIP3    H244307   4.229   6.649   4.615 -1.9525  0.8089 -2.0334
14784TIP3   OH244308   2.896   4.812   5.534 -0.4526 -0.3605 -1.0080
14784TIP3    H144309   2.956   4.739   5.546  1.0092  0.9688  0.4025
14784TIP3    H244310   2.844   4.815   5.615 -0.7779 -0.0826 -1.2236
14785TIP3   OH244311   8.157   6.079   1.135 -0.3226  0.4366  0.3247
14785TIP3    H144312   8.187   6.169   1.149  2.7761 -0.3124 -0.6775
14785TIP3    H244313   8.142   6.073   1.041  2.8063 -0.8445 -0.2224
14786TIP3   OH244314   2.946   3.144   6.518  0.0724  0.2064  0.1290
14786TIP3    H144315   3.010   3.147   6.590  0.0768  0.0650  0.1322
14786TIP3    H244316   2.913   3.234   6.511  1.8840  0.8044 -1.3486
14787TIP3   OH244317   1.232   3.511   1.058  0.4035  0.0117  0.2003
14787TIP3    H144318   1.281   3.566   1.119 -1.2306  0.8059  0.8636
14787TIP3    H244319   1.160   3.476   1.110  0.2132 -1.0630 -0.7495
14788TIP3   OH244320   1.979   2.504   4.096  0.0737 -0.2933 -0.2009
14788TIP3    H144321   1.913   2.443   4.062  0.3898 -0.4442 -0.5506
14788TIP3    H244322   2.025   2.536   4.018 -0.0956  0.4058 -0.0200
14789TIP3   OH244323   4.849   4.557   1.008 -0.0398  0.5978 -0.2529
14789TIP3    H144324   4.928   4.553   1.062  0.8594 -0.4640 -1.5698
14789TIP3    H244325   4.819   4.466   1.004 -1.0473  0.9201 -0.1824
14790TIP3   OH244326   4.586   7.332   1.210  0.4957  0.4238  0.0309
14790TIP3    H144327   4.674   7.336   1.248  0.6477  1.5958 -0.3974
14790TIP3    H244328   4.528   7.337   1.285  0.7919 -0.3758  0.3196
14791TIP3   OH244329   4.298   4.901   0.701  0.7944  0.5622  0.1364
14791TIP3    H144330   4.300   4.823   0.756  0.2363 -0.2553 -0.9800
14791TIP3    H244331   4.224   4.888   0.642  0.2715  2.2432  0.3676
14792TIP3   OH244332   2.273   1.044   3.154 -0.0709 -0.4033 -0.2875
14792TIP3    H144333   2.217   0.969   3.135  0.0832 -0.5115 -0.3212
14792TIP3    H244334   2.263   1.059   3.247 -0.4453 -0.1860 -0.3625
14793TIP3   OH244335   3.772   3.526   2.133 -0.2626 -0.1065 -0.4157
14793TIP3    H144336   3.798   3.461   2.069 -0.6448  0.0405 -0.7203
14793TIP3    H244337   3.695   3.569   2.095  0.5667  1.1950 -0.6699
14794TIP3   OH244338   2.384   2.677   5.173 -0.4341  0.2209 -0.0154
14794TIP3    H144339   2.421   2.726   5.099 -0.1892  1.1709  0.7181
14794TIP3    H244340   2.407   2.586   5.155 -0.9663  0.3334 -1.4495
14795TIP3   OH244341   7.118   0.087   1.425 -0.8430  0.3068 -0.4020
14795TIP3    H144342   7.083   0.010   1.381 -1.5633  0.2089  0.3249
14795TIP3    H244343   7.104   0.070   1.518 -0.0994  0.8779 -0.1751
14796TIP3   OH244344   3.616   3.443   3.206 -0.6043 -0.2927  0.0790
14796TIP3    H144345   3.595   3.498   3.131 -1.3477 -0.4420  0.1698
14796TIP3    H244346   3.691   3.390   3.178 -1.5086 -1.0815 -0.9254
14797TIP3   OH244347   4.286   7.681   0.087 -0.0655 -0.3051 -0.0599
14797TIP3    H144348   4.363   7.671   0.030  0.9452 -1.0216  1.3798
14797TIP3    H244349   4.268   7.593   0.119  0.6866  0.3393  2.3481
14798TIP3   OH244350   2.783   3.951   6.726 -0.1054  0.0320  0.0031
14798TIP3    H144351   2.731   3.988   6.655  0.5623 -0.8373 -0.9859
14798TIP3    H244352   2.850   3.898   6.681 -1.5823 -3.2071  1.2821
14799TIP3   OH244353   7.871   4.942   4.951 -0.1719  0.3858  0.0366
14799TIP3    H144354   7.939   4.930   4.885 -0.8641  0.0934 -0.6369
14799TIP3    H244355   7.856   4.854   4.987  0.6206  0.6318  1.0285
14800TIP3   OH244356   0.741   6.040   2.668  0.6381 -0.1019 -0.1687
14800TIP3    H144357   0.711   6.095   2.595  1.8447  2.1203  0.8952
14800TIP3    H244358   0.815   5.991   2.631 -1.4333 -2.4137 -1.5910
14801TIP3   OH244359   7.977   5.520   2.886 -0.3468 -0.1743  0.4991
14801TIP3    H144360   7.916   5.447   2.892 -0.4721  0.0130  2.1606
14801TIP3    H244361   8.048   5.489   2.830 -1.7680 -0.5146 -1.1942
14802TIP3   OH244362   5.490   3.195   2.904  0.0012 -0.0418 -0.0912
14802TIP3    H144363   5.499   3.158   2.992 -1.2025  0.8879  0.4368
14802TIP3    H244364   5.452   3.125   2.852 -0.2257 -0.2618  0.3708
14803TIP3   OH244365   5.603   2.164   4.674 -0.1228  0.4403  0.1708
14803TIP3    H144366   5.605   2.202   4.586 -0.5456  0.2037  0.0505
14803TIP3    H244367   5.671   2.210   4.723  0.5287  0.1519 -0.4525
14804TIP3   OH244368   4.404   4.261   2.924  0.2080 -0.4360  0.9366
14804TIP3    H144369   4.441   4.173   2.914  1.7166  0.1326  1.2586
14804TIP3    H244370   4.449   4.314   2.858 -1.0880 -0.0008  0.3669
14805TIP3   OH244371   7.412   5.997   2.272 -0.4983 -0.3859  0.0866
14805TIP3    H144372   7.498   5.997   2.231 -1.4845 -1.8391 -2.1772
14805TIP3    H244373   7.411   6.076   2.327  0.8366  1.9173 -2.9412
14806TIP3   OH244374   4.371   5.191   5.999 -0.5191 -0.0502 -0.2136
14806TIP3    H144375   4.286   5.232   5.981 -0.1007  0.5805 -0.8256
14806TIP3    H244376   4.429   5.226   5.931 -0.0521 -1.4127 -0.5433
14807TIP3   OH244377   2.132   5.246   0.080  0.7285  0.3187 -0.3681
14807TIP3    H144378   2.117   5.203  -0.004 -0.2957  1.2287 -0.6615
14807TIP3    H244379   2.224   5.273   0.077  0.2543  1.9425 -1.9603
14808TIP3   OH244380   4.284   4.609   2.490  0.0873 -0.2428  0.1974
14808TIP3    H144381   4.267   4.696   2.524 -0.8157 -0.3949  0.1679
14808TIP3    H244382   4.279   4.552   2.566  0.3507 -0.3112  0.1654
14809TIP3   OH244383   5.002   0.525   0.354 -0.2013  0.8233  0.2044
14809TIP3    H144384   4.929   0.508   0.415  0.8072  1.4329  1.6383
14809TIP3    H244385   5.057   0.447   0.362  0.5401  1.4146  1.0014
14810TIP3   OH244386   3.254   0.836   3.643 -0.5889  0.3142 -0.0675
14810TIP3    H144387   3.252   0.924   3.680  1.0772  0.6163 -0.6296
14810TIP3    H244388   3.299   0.783   3.708  0.0837  0.2928 -0.5496
14811TIP3   OH244389   0.118   4.368   1.102  0.0941 -0.5439  0.5429
14811TIP3    H144390   0.093   4.356   1.010  0.4701 -1.0176  0.4960
14811TIP3    H244391   0.201   4.414   1.099 -0.1476 -0.0943  0.6644
14812TIP3   OH244392   5.034   3.872   4.669  0.3771 -0.6016  0.4973
14812TIP3    H144393   5.096   3.834   4.730 -0.5502 -2.0122  0.6101
14812TIP3    H244394   4.948   3.840   4.698 -0.2511  0.0539 -0.5417
14813TIP3   OH244395   4.208   0.423   3.898  0.0589  0.4154  0.2000
14813TIP3    H144396   4.203   0.501   3.952  1.2418  1.5916 -1.2810
14813TIP3    H244397   4.297   0.424   3.862  0.1917 -1.7656  0.3291
14814TIP3   OH244398   7.803   7.438   5.091  0.1557  0.1872  0.1511
14814TIP3    H144399   7.817   7.465   5.001 -2.2817 -0.5039 -0.5093
14814TIP3    H244400   7.812   7.518   5.142  0.4182  0.7949 -0.8276
14815TIP3   OH244401   5.418   0.404   1.318 -0.6572  0.2396 -0.3321
14815TIP3    H144402   5.508   0.383   1.342 -1.3767 -1.1565  1.4972
14815TIP3    H244403   5.413   0.389   1.224  0.8315 -0.4304 -0.3238
14816TIP3   OH244404   0.979   7.178   0.103 -0.0104 -0.2734 -0.4466
14816TIP3    H144405   0.959   7.084   0.103  0.8144 -0.4609 -0.6446
14816TIP3    H244406   1.063   7.183   0.148 -0.9079  0.5743  1.2141
14817TIP3   OH244407   0.036   2.417   2.671  0.1626 -0.1551  0.3971
14817TIP3    H144408  -0.014   2.466   2.736 -1.7407 -1.1539 -0.2518
14817TIP3    H244409   0.000   2.329   2.674 -0.1641 -0.1721 -2.1571
14818TIP3   OH244410   7.510   5.243   2.806 -0.2806  0.2812 -0.3799
14818TIP3    H144411   7.583   5.301   2.825 -1.1797  1.6844 -0.9974
14818TIP3    H244412   7.493   5.198   2.889  1.3647 -0.2077 -0.2739
14819TIP3   OH244413   2.649   0.266   2.599  0.1337 -0.5644 -0.0179
14819TIP3    H144414   2.590   0.195   2.627 -0.9614  0.0741 -0.6270
14819TIP3    H244415   2.686   0.300   2.681 -0.1208 -1.1741  0.3578
14820TIP3   OH244416   7.786   1.382   1.929  0.2387 -0.3437  0.1410
14820TIP3    H144417   7.847   1.443   1.887 -0.2393  0.8273  1.1119
14820TIP3    H244418   7.701   1.425   1.924  0.2920  0.3094  3.0879
14821TIP3   OH244419   1.809   3.969   6.604 -0.2157 -0.3884 -0.1507
14821TIP3    H144420   1.853   3.904   6.548 -1.0533 -1.3420  0.2545
14821TIP3    H244421   1.752   3.916   6.660 -0.3239  0.6576  0.7387
14822TIP3   OH244422   4.622   4.417   3.460 -0.2237  0.0502 -0.4861
14822TIP3    H144423   4.587   4.337   3.421 -0.1461 -1.1394  1.7251
14822TIP3    H244424   4.545   4.471   3.480 -0.3475  0.0775 -1.0295
14823TIP3   OH244425   7.604   4.663   1.998  0.0243 -0.7521  0.2216
14823TIP3    H144426   7.591   4.641   1.905  0.4490 -1.5570  0.3453
14823TIP3    H244427   7.696   4.687   2.005  0.0827 -1.0516  0.5032
14824TIP3   OH244428   8.107   0.056   0.342  0.0340 -0.0482 -0.1227
14824TIP3    H144429   8.052   0.015   0.275  0.8010  0.4978 -1.1047
14824TIP3    H244430   8.184   0.086   0.295  0.5077  0.5211  0.9813
14825TIP3   OH244431   3.917   2.507   4.166  0.2262 -0.0892  0.1309
14825TIP3    H144432   3.827   2.538   4.160  0.4337  0.5302  0.1905
14825TIP3    H244433   3.920   2.430   4.109  0.5248  1.8527 -2.7010
14826TIP3   OH244434   1.572   3.290   1.313 -0.3196  0.8009 -0.1820
14826TIP3    H144435   1.664   3.315   1.298 -0.3222 -0.3871 -2.7444
14826TIP3    H244436   1.573   3.246   1.398  1.4227  1.1273  0.0146
14827TIP3   OH244437   3.774   1.062   1.647  0.2400 -1.0168  0.2215
14827TIP3    H144438   3.765   0.995   1.579 -1.1616  0.5410 -1.2431
14827TIP3    H244439   3.867   1.063   1.667  0.8057 -1.2122 -2.0937
14828TIP3   OH244440   0.745   2.609   0.887 -0.3813 -0.0230  0.0505
14828TIP3    H144441   0.700   2.675   0.835 -0.9065  0.5951  1.2484
14828TIP3    H244442   0.791   2.658   0.955  0.0092 -0.8183  0.3807
14829TIP3   OH244443   5.855   5.553   0.813  0.0883  0.0429 -0.1119
14829TIP3    H144444   5.880   5.580   0.725  0.9651 -0.2064  0.0522
14829TIP3    H244445   5.836   5.460   0.806 -0.2116  0.1026 -0.1114
14830TIP3   OH244446   0.799   5.306   0.480 -0.0847 -0.9085  0.3629
14830TIP3    H144447   0.768   5.396   0.487  1.7314 -0.2514  0.2977
14830TIP3    H244448   0.718   5.254   0.471 -1.2717  0.4986  2.1156
14831TIP3   OH244449   4.155   6.494   0.391 -0.1103 -0.2923  0.1283
14831TIP3    H144450   4.204   6.446   0.458  1.0768 -0.5409 -0.8853
14831TIP3    H244451   4.219   6.552   0.351 -0.3216 -1.4580 -2.0226
14832TIP3   OH244452   7.694   6.199   5.330  0.1279 -0.4395  0.2754
14832TIP3    H144453   7.764   6.134   5.338  0.9655  0.4653  0.4194
14832TIP3    H244454   7.739   6.283   5.328 -0.9307  0.1346 -0.1246
14833TIP3   OH244455   1.922   3.738   2.800  0.2940 -0.3885  0.0255
14833TIP3    H144456   1.897   3.645   2.800 -1.6630  0.0878 -1.3477
14833TIP3    H244457   1.957   3.753   2.712 -0.4385  0.4047 -0.1427
14834TIP3   OH244458   4.661   7.139   0.179  0.1911 -0.4414 -0.3684
14834TIP3    H144459   4.748   7.177   0.185 -0.5283  1.5055 -1.4664
14834TIP3    H244460   4.635   7.150   0.088 -1.7443  0.3221  0.2092
14835TIP3   OH244461   4.465   2.459   0.704  0.3332  0.3326  0.4947
14835TIP3    H144462   4.436   2.489   0.618  0.3435  0.7998  0.6567
14835TIP3    H244463   4.471   2.538   0.757 -1.1180 -0.0957  1.3615
14836TIP3   OH244464   4.155   3.145   4.310 -0.0068  0.2080  1.0135
14836TIP3    H144465   4.121   3.233   4.329 -0.9730 -0.3647  2.1414
14836TIP3    H244466   4.232   3.160   4.257 -0.4181  1.7260  0.7832
14837TIP3   OH244467   1.799   5.696   6.096  0.1445 -0.0938 -0.1512
14837TIP3    H144468   1.751   5.746   6.162 -0.6693  0.4310 -1.1161
14837TIP3    H244469   1.856   5.760   6.054  0.1468 -0.2811 -0.4315
14838TIP3   OH244470   1.995   5.076   5.644 -0.0524 -0.2818  0.1078
14838TIP3    H144471   1.976   5.167   5.622  1.2379 -0.0023  0.0618
14838TIP3    H244472   1.953   5.025   5.574 -0.2920  0.3164 -0.1903
14839TIP3   OH244473   0.594   0.592   5.836 -0.0632 -0.2413 -0.0244
14839TIP3    H144474   0.559   0.505   5.857 -1.7799  0.6515  0.9789
14839TIP3    H244475   0.668   0.602   5.896 -0.5944 -0.5445  0.7027
14840TIP3   OH244476   2.851   3.833   4.665  0.2631 -0.5225  0.1180
14840TIP3    H144477   2.783   3.767   4.652 -1.3537  1.0694 -0.0030
14840TIP3    H244478   2.871   3.829   4.759 -0.3817 -0.6662  0.2509
14841TIP3   OH244479   7.662   7.395   3.392  0.2340  0.0081 -0.3231
14841TIP3    H144480   7.705   7.457   3.451  0.7837 -0.7883  0.1272
14841TIP3    H244481   7.625   7.328   3.449 -0.8625  0.2023 -0.7644
14842TIP3   OH244482   3.286   0.897   3.114 -0.4831 -0.1209  0.0019
14842TIP3    H144483   3.332   0.863   3.191  0.3370  1.8753  0.4408
14842TIP3    H244484   3.194   0.873   3.130 -0.0289 -1.7140  0.4662
14843TIP3   OH244485   6.221   4.680   0.657 -0.0040  0.7269 -0.4431
14843TIP3    H144486   6.172   4.602   0.633 -0.2598  0.8020 -0.1711
14843TIP3    H244487   6.183   4.750   0.604 -1.9671  1.3147  1.5783
14844TIP3   OH244488   4.099   4.434   6.420 -0.1870 -0.1424 -0.3682
14844TIP3    H144489   4.091   4.467   6.330  0.1042 -1.2472 -0.8139
14844TIP3    H244490   4.169   4.488   6.458 -2.7327  2.8839  0.4466
14845TIP3   OH244491   4.419   5.147   3.423 -0.4989 -0.1957 -0.1612
14845TIP3    H144492   4.444   5.070   3.474  0.0679  0.8545  1.2103
14845TIP3    H244493   4.338   5.122   3.379 -1.8925 -0.6594  2.4895
14846TIP3   OH244494   1.053   5.642   4.549  0.6255  0.5760  0.1205
14846TIP3    H144495   0.969   5.622   4.508  0.4358  1.0638  0.2638
14846TIP3    H244496   1.091   5.557   4.569 -0.2388  0.3507  0.8732
14847TIP3   OH244497   3.516   4.527   0.363 -0.0796 -0.7233  0.2875
14847TIP3    H144498   3.541   4.588   0.432 -1.3071 -0.3717  0.4544
14847TIP3    H244499   3.456   4.466   0.406 -1.6052  0.0465 -0.6262
14848TIP3   OH244500   2.254   2.821   5.372  0.4264 -0.4454 -0.1157
14848TIP3    H144501   2.317   2.768   5.324  1.5431 -0.8494  1.7400
14848TIP3    H244502   2.216   2.762   5.437 -0.9601  0.1283 -0.3589
   8.29868   7.82408   6.77585   0.00000   0.00000  -2.76622   0.00000  -2.76622  -3.91204
