Generated by CHARMM-GUI FF-Converter
35789
    1GLY      N    1   5.709   4.167   3.412
    1GLY    HT1    2   5.802   4.206   3.437
    1GLY    HT2    3   5.653   4.239   3.361
    1GLY    HT3    4   5.724   4.091   3.339
    1GLY     CA    5   5.632   4.109   3.521
    1GLY    HA1    6   5.620   4.185   3.596
    1GLY    HA2    7   5.686   4.022   3.555
    1GLY      C    8   5.493   4.065   3.479
    1GLY      O    9   5.446   4.101   3.371
    2SER      N   10   5.434   3.993   3.541
    2SER     HN   11   5.469   3.953   3.625
    2SER     CA   12   5.297   3.954   3.509
    2SER     HA   13   5.287   3.933   3.403
    2SER     CB   14   5.259   3.826   3.584
    2SER    HB1   15   5.152   3.799   3.563
    2SER    HB2   16   5.270   3.843   3.693
    2SER     OG   17   5.343   3.719   3.544
    2SER    HG1   18   5.285   3.641   3.541
    2SER      C   19   5.198   4.065   3.545
    2SER      O   20   5.225   4.147   3.632
    3GLY      N   21   5.101   4.076   3.464
    3GLY     HN   22   5.089   4.018   3.384
    3GLY     CA   23   4.993   4.169   3.492
    3GLY    HA1   24   4.916   4.153   3.418
    3GLY    HA2   25   5.033   4.269   3.490
    3GLY      C   26   4.930   4.146   3.628
    3GLY      O   27   4.955   4.045   3.693
    4ASP      N   28   4.856   4.247   3.659
    4ASP     HN   29   4.849   4.332   3.608
    4ASP     CA   30   4.780   4.230   3.782
    4ASP     HA   31   4.856   4.210   3.857
    4ASP     CB   32   4.710   4.361   3.821
    4ASP    HB1   33   4.636   4.349   3.903
    4ASP    HB2   34   4.655   4.401   3.733
    4ASP     CG   35   4.807   4.468   3.867
    4ASP    OD1   36   4.921   4.435   3.907
    4ASP    OD2   37   4.769   4.588   3.863
    4ASP      C   38   4.677   4.118   3.768
    4ASP      O   39   4.621   4.098   3.660
    5PRO      N   40   4.646   4.054   3.859
    5PRO     CD   41   4.704   4.073   3.978
    5PRO    HD1   42   4.676   4.172   4.021
    5PRO    HD2   43   4.816   4.060   3.976
    5PRO     CA   44   4.536   3.958   3.855
    5PRO     HA   45   4.558   3.884   3.779
    5PRO     CB   46   4.532   3.902   3.997
    5PRO    HB1   47   4.542   3.791   3.995
    5PRO    HB2   48   4.438   3.927   4.051
    5PRO     CG   49   4.649   3.964   4.066
    5PRO    HG1   50   4.622   4.002   4.167
    5PRO    HG2   51   4.729   3.887   4.079
    5PRO      C   52   4.402   4.024   3.819
    5PRO      O   53   4.385   4.144   3.839
    6GLY      N   54   4.325   3.934   3.758
    6GLY     HN   55   4.351   3.842   3.732
    6GLY     CA   56   4.193   3.987   3.727
    6GLY    HA1   57   4.137   3.909   3.679
    6GLY    HA2   58   4.204   4.074   3.663
    6GLY      C   59   4.115   4.030   3.850
    6GLY      O   60   4.152   3.995   3.962
    7ASN      N   61   3.999   4.094   3.807
    7ASN     HN   62   3.971   4.102   3.712
    7ASN     CA   63   3.905   4.120   3.916
    7ASN     HA   64   3.958   4.161   4.001
    7ASN     CB   65   3.798   4.220   3.872
    7ASN    HB1   66   3.713   4.220   3.943
    7ASN    HB2   67   3.759   4.190   3.772
    7ASN     CG   68   3.850   4.362   3.867
    7ASN    OD1   69   3.963   4.390   3.908
    7ASN    ND2   70   3.768   4.453   3.816
    7ASN   HD21   71   3.801   4.547   3.813
    7ASN   HD22   72   3.677   4.429   3.785
    7ASN      C   73   3.840   3.991   3.966
    7ASN      O   74   3.832   3.892   3.892
    8GLY      N   75   3.798   3.992   4.090
    8GLY     HN   76   3.809   4.071   4.149
    8GLY     CA   77   3.726   3.876   4.140
    8GLY    HA1   78   3.708   3.886   4.246
    8GLY    HA2   79   3.785   3.787   4.120
    8GLY      C   80   3.592   3.854   4.072
    8GLY      O   81   3.545   3.941   3.999
    9ASP      N   82   3.530   3.749   4.098
    9ASP     HN   83   3.572   3.679   4.154
    9ASP     CA   84   3.397   3.716   4.049
    9ASP     HA   85   3.405   3.727   3.942
    9ASP     CB   86   3.362   3.571   4.083
    9ASP    HB1   87   3.254   3.549   4.066
    9ASP    HB2   88   3.383   3.553   4.190
    9ASP     CG   89   3.439   3.470   4.000
    9ASP    OD1   90   3.490   3.507   3.892
    9ASP    OD2   91   3.448   3.353   4.042
    9ASP      C   92   3.292   3.811   4.108
    9ASP      O   93   3.308   3.861   4.219
   10PRO      N   94   3.191   3.827   4.044
   10PRO     CD   95   3.170   3.786   3.915
   10PRO    HD1   96   3.144   3.677   3.914
   10PRO    HD2   97   3.256   3.806   3.846
   10PRO     CA   98   3.084   3.908   4.103
   10PRO     HA   99   3.124   4.003   4.135
   10PRO     CB  100   2.983   3.923   3.989
   10PRO    HB1  101   2.955   4.029   3.972
   10PRO    HB2  102   2.890   3.863   4.006
   10PRO     CG  103   3.053   3.868   3.868
   10PRO    HG1  104   2.986   3.811   3.802
   10PRO    HG2  105   3.093   3.954   3.809
   10PRO      C  106   3.019   3.841   4.224
   10PRO      O  107   3.025   3.719   4.238
   11GLY      N  108   2.962   3.917   4.326
   11GLY     HN  109   2.968   4.016   4.320
   11GLY     CA  110   2.890   3.866   4.442
   11GLY    HA1  111   2.852   3.952   4.495
   11GLY    HA2  112   2.958   3.804   4.498
   11GLY      C  113   2.770   3.781   4.404
   11GLY      O  114   2.721   3.789   4.291
   12SER      N  115   2.723   3.703   4.475
   12SER     HN  116   2.765   3.689   4.564
   12SER     CA  117   2.602   3.624   4.458
   12SER     HA  118   2.607   3.577   4.361
   12SER     CB  119   2.591   3.518   4.567
   12SER    HB1  120   2.501   3.454   4.549
   12SER    HB2  121   2.578   3.566   4.667
   12SER     OG  122   2.707   3.437   4.570
   12SER    HG1  123   2.741   3.434   4.480
   12SER      C  124   2.477   3.713   4.459
   12SER      O  125   2.473   3.814   4.529
   13GLY      N  126   2.380   3.719   4.366
   13GLY     HN  127   2.393   3.662   4.285
   13GLY     CA  128   2.259   3.798   4.354
   13GLY    HA1  129   2.205   3.764   4.267
   13GLY    HA2  130   2.287   3.902   4.349
   13GLY      C  131   2.166   3.783   4.473
   13GLY    OT1  132   2.201   3.706   4.566
   13GLY    OT2  133   2.057   3.847   4.472
   14LIT    LIT  134   1.549   2.838   2.348
   15LIT    LIT  135   7.148   3.524   5.467
   16LIT    LIT  136   4.111  -0.266   2.641
   17LIT    LIT  137   7.213   0.560   3.822
   18LIT    LIT  138   5.501   6.359   1.307
   19LIT    LIT  139   5.513   2.540   3.000
   20LIT    LIT  140   5.100   7.504   4.358
   21LIT    LIT  141   1.740   3.782   3.308
   22LIT    LIT  142   2.942   4.324   6.452
   23LIT    LIT  143   6.012   0.741   4.642
   24LIT    LIT  144   0.691   6.055   5.780
   25LIT    LIT  145   6.954   5.714   4.800
   26LIT    LIT  146   4.855   1.862   5.607
   27LIT    LIT  147   2.437   0.093   5.036
   28LIT    LIT  148   3.371   3.470   4.811
   29LIT    LIT  149   1.785   0.834   6.413
   30LIT    LIT  150   2.091   2.574   7.383
   31LIT    LIT  151   7.463   5.551   2.947
   32LIT    LIT  152   3.082   2.535   2.297
   33LIT    LIT  153   5.529   5.818   4.377
   34LIT    LIT  154   0.299   5.142   4.064
   35LIT    LIT  155   5.577   3.246   1.328
   36LIT    LIT  156   5.835   5.434   4.664
   37LIT    LIT  157   6.210   4.199   4.431
   38LIT    LIT  158   4.633   3.534   2.051
   39LIT    LIT  159   4.806   2.351  -0.092
   40LIT    LIT  160   2.090   5.321   3.068
   41LIT    LIT  161   3.835   6.903   4.723
   42LIT    LIT  162   4.736   0.712   1.572
   43LIT    LIT  163   3.935   7.728   3.037
   44LIT    LIT  164   4.262   3.361   4.592
   45LIT    LIT  165   0.707   2.379   1.826
   46LIT    LIT  166   6.640   5.586   5.942
   47LIT    LIT  167  -0.078   2.376   3.209
   48LIT    LIT  168   2.049   0.377   5.196
   49LIT    LIT  169   6.632   4.449   7.415
   50CLA    CLA  170   6.006   1.285   0.903
   51CLA    CLA  171   4.195   5.358   1.148
   52CLA    CLA  172   4.482   2.923   1.615
   53CLA    CLA  173   1.492   4.475   1.324
   54CLA    CLA  174   2.988   2.520   1.573
   55CLA    CLA  175   1.191   7.425   4.518
   56CLA    CLA  176   1.840   0.435   5.180
   57CLA    CLA  177   1.621   1.693   4.747
   58CLA    CLA  178   7.540   3.319   3.706
   59CLA    CLA  179   4.464   7.420   4.148
   60CLA    CLA  180   6.142   1.520   5.548
   61CLA    CLA  181   5.189   6.218   7.148
   62CLA    CLA  182   4.274   4.633   2.098
   63CLA    CLA  183   3.420   3.377   6.270
   64CLA    CLA  184   6.505   2.851   3.048
   65CLA    CLA  185   7.937   5.567   3.512
   66CLA    CLA  186   7.942   3.788   5.964
   67CLA    CLA  187   7.616   4.867   2.271
   68CLA    CLA  188   5.751   6.589   4.477
   69CLA    CLA  189   3.014   7.504   5.626
   70CLA    CLA  190   5.145   1.062   2.308
   71CLA    CLA  191   4.712   1.212   6.125
   72CLA    CLA  192   1.502   7.228   3.717
   73CLA    CLA  193   3.490   3.567   5.519
   74CLA    CLA  194   1.041   2.253   1.942
   75CLA    CLA  195   3.255   2.639   2.646
   76CLA    CLA  196   6.706   5.623   5.738
   77CLA    CLA  197   2.297   6.310   2.717
   78CLA    CLA  198   2.851  -0.284   4.017
   79CLA    CLA  199   4.974   3.285   8.117
   80CLA    CLA  200   4.303   1.238   0.166
   81CLA    CLA  201   2.524   4.970   6.859
   82CLA    CLA  202   6.641   5.455   4.916
   83CLA    CLA  203   2.364   3.928   2.573
   84TIP3   OH2  204   3.071   0.156   2.047
   84TIP3    H1  205   3.083   0.097   1.971
   84TIP3    H2  206   3.054   0.242   2.003
   85TIP3   OH2  207   3.312   0.506   2.108
   85TIP3    H1  208   3.309   0.411   2.127
   85TIP3    H2  209   3.230   0.536   2.153
   86TIP3   OH2  210   3.194  -0.368   2.388
   86TIP3    H1  211   3.113  -0.317   2.373
   86TIP3    H2  212   3.170  -0.455   2.350
   87TIP3   OH2  213   3.003   0.858   2.206
   87TIP3    H1  214   2.999   0.885   2.112
   87TIP3    H2  215   3.081   0.907   2.237
   88TIP3   OH2  216   2.690   0.242   2.194
   88TIP3    H1  217   2.618   0.278   2.140
   88TIP3    H2  218   2.704   0.314   2.260
   89TIP3   OH2  219   3.320   0.214   2.146
   89TIP3    H1  220   3.222   0.210   2.141
   89TIP3    H2  221   3.343   0.183   2.055
   90TIP3   OH2  222   2.840   0.558   2.060
   90TIP3    H1  223   2.769   0.498   2.027
   90TIP3    H2  224   2.830   0.630   1.993
   91TIP3   OH2  225   2.863   0.548   1.640
   91TIP3    H1  226   2.844   0.546   1.543
   91TIP3    H2  227   2.959   0.571   1.635
   92TIP3   OH2  228   2.114   0.515   2.684
   92TIP3    H1  229   2.206   0.488   2.674
   92TIP3    H2  230   2.075   0.482   2.602
   93TIP3   OH2  231   2.742   0.419   2.401
   93TIP3    H1  232   2.739   0.351   2.472
   93TIP3    H2  233   2.820   0.472   2.426
   94TIP3   OH2  234   2.868   0.037   2.195
   94TIP3    H1  235   2.946   0.086   2.161
   94TIP3    H2  236   2.800   0.109   2.194
   95TIP3   OH2  237   2.744  -0.017   2.608
   95TIP3    H1  238   2.814  -0.059   2.557
   95TIP3    H2  239   2.737  -0.079   2.683
   96TIP3   OH2  240   2.973  -0.331   2.669
   96TIP3    H1  241   2.962  -0.408   2.609
   96TIP3    H2  242   3.023  -0.270   2.614
   97TIP3   OH2  243   2.994  -0.098   2.396
   97TIP3    H1  244   2.929  -0.062   2.333
   97TIP3    H2  245   3.077  -0.074   2.349
   98TIP3   OH2  246   3.126   0.595   1.601
   98TIP3    H1  247   3.154   0.654   1.673
   98TIP3    H2  248   3.191   0.619   1.532
   99TIP3   OH2  249   3.132   0.637   1.887
   99TIP3    H1  250   3.098   0.546   1.883
   99TIP3    H2  251   3.218   0.622   1.929
  100TIP3   OH2  252   3.180   0.306   2.449
  100TIP3    H1  253   3.109   0.316   2.515
  100TIP3    H2  254   3.223   0.393   2.453
  101TIP3   OH2  255   3.001   0.386   1.916
  101TIP3    H1  256   2.951   0.446   1.974
  101TIP3    H2  257   2.930   0.349   1.861
  102TIP3   OH2  258   3.229  -0.028   2.272
  102TIP3    H1  259   3.296  -0.100   2.263
  102TIP3    H2  260   3.264   0.041   2.214
  103TIP3   OH2  261   3.410  -0.228   2.283
  103TIP3    H1  262   3.353  -0.294   2.328
  103TIP3    H2  263   3.500  -0.257   2.308
  104TIP3   OH2  264   2.396   0.566   2.307
  104TIP3    H1  265   2.437   0.557   2.396
  104TIP3    H2  266   2.474   0.601   2.258
  105TIP3   OH2  267   2.599   0.697   2.180
  105TIP3    H1  268   2.679   0.654   2.146
  105TIP3    H2  269   2.640   0.764   2.240
  106TIP3   OH2  270   2.791   0.717   1.848
  106TIP3    H1  271   2.772   0.800   1.800
  106TIP3    H2  272   2.816   0.658   1.774
  107TIP3   OH2  273   3.070   0.591   2.212
  107TIP3    H1  274   2.987   0.567   2.165
  107TIP3    H2  275   3.057   0.688   2.217
  108TIP3   OH2  276   4.290  -0.012   1.387
  108TIP3    H1  277   4.360  -0.036   1.451
  108TIP3    H2  278   4.303  -0.077   1.316
  109TIP3   OH2  279   3.624  -0.142   1.707
  109TIP3    H1  280   3.655  -0.194   1.782
  109TIP3    H2  281   3.709  -0.124   1.661
  110TIP3   OH2  282   3.614   0.266   1.446
  110TIP3    H1  283   3.627   0.216   1.528
  110TIP3    H2  284   3.707   0.292   1.425
  111TIP3   OH2  285   4.215   0.724   1.052
  111TIP3    H1  286   4.267   0.654   1.008
  111TIP3    H2  287   4.214   0.694   1.143
  112TIP3   OH2  288   4.121   0.200   1.405
  112TIP3    H1  289   4.167   0.114   1.395
  112TIP3    H2  290   4.200   0.256   1.418
  113TIP3   OH2  291   3.987   0.114   1.625
  113TIP3    H1  292   3.924   0.181   1.662
  113TIP3    H2  293   4.024   0.163   1.549
  114TIP3   OH2  294   3.803   0.301   1.722
  114TIP3    H1  295   3.784   0.392   1.690
  114TIP3    H2  296   3.726   0.289   1.782
  115TIP3   OH2  297   4.660   0.524   1.243
  115TIP3    H1  298   4.567   0.498   1.253
  115TIP3    H2  299   4.652   0.604   1.188
  116TIP3   OH2  300   4.345   0.565   0.874
  116TIP3    H1  301   4.424   0.508   0.877
  116TIP3    H2  302   4.384   0.643   0.830
  117TIP3   OH2  303   4.732  -0.059   1.697
  117TIP3    H1  304   4.737   0.023   1.749
  117TIP3    H2  305   4.647  -0.048   1.651
  118TIP3   OH2  306   3.867   0.299   1.347
  118TIP3    H1  307   3.833   0.268   1.261
  118TIP3    H2  308   3.955   0.256   1.353
  119TIP3   OH2  309   3.864  -0.135   1.576
  119TIP3    H1  310   3.861  -0.165   1.483
  119TIP3    H2  311   3.921  -0.056   1.573
  120TIP3   OH2  312   4.392   0.504   1.310
  120TIP3    H1  313   4.388   0.587   1.360
  120TIP3    H2  314   4.381   0.435   1.378
  121TIP3   OH2  315   4.014   0.417   1.868
  121TIP3    H1  316   3.954   0.480   1.915
  121TIP3    H2  317   3.949   0.365   1.817
  122TIP3   OH2  318   3.769  -0.035   1.981
  122TIP3    H1  319   3.776   0.053   2.022
  122TIP3    H2  320   3.672  -0.042   1.971
  123TIP3   OH2  321   4.065   0.467   0.888
  123TIP3    H1  322   4.156   0.493   0.909
  123TIP3    H2  323   4.015   0.548   0.905
  124TIP3   OH2  324   3.810   0.584   1.956
  124TIP3    H1  325   3.776   0.590   1.865
  124TIP3    H2  326   3.728   0.562   2.007
  125TIP3   OH2  327   3.379   0.111   1.900
  125TIP3    H1  328   3.341   0.091   1.812
  125TIP3    H2  329   3.418   0.025   1.924
  126TIP3   OH2  330   3.300   0.316   1.596
  126TIP3    H1  331   3.323   0.308   1.503
  126TIP3    H2  332   3.248   0.398   1.597
  127TIP3   OH2  333   4.212   0.544   1.727
  127TIP3    H1  334   4.210   0.637   1.758
  127TIP3    H2  335   4.139   0.505   1.781
  128TIP3   OH2  336   3.959   0.695   0.674
  128TIP3    H1  337   3.893   0.691   0.603
  128TIP3    H2  338   3.943   0.785   0.711
  129TIP3   OH2  339   4.219   0.650   0.605
  129TIP3    H1  340   4.122   0.641   0.621
  129TIP3    H2  341   4.253   0.588   0.672
  130TIP3   OH2  342   5.005  -0.127   1.821
  130TIP3    H1  343   4.920  -0.087   1.796
  130TIP3    H2  344   4.979  -0.220   1.831
  131TIP3   OH2  345   3.590   0.296   1.892
  131TIP3    H1  346   3.638   0.281   1.976
  131TIP3    H2  347   3.512   0.238   1.902
  132TIP3   OH2  348   4.798  -0.313   1.749
  132TIP3    H1  349   4.748  -0.319   1.832
  132TIP3    H2  350   4.770  -0.223   1.719
  133TIP3   OH2  351   3.882  -0.389   1.680
  133TIP3    H1  352   3.862  -0.365   1.772
  133TIP3    H2  353   3.874  -0.301   1.637
  134TIP3   OH2  354   4.484  -0.078   2.002
  134TIP3    H1  355   4.444  -0.138   2.070
  134TIP3    H2  356   4.577  -0.076   2.032
  135TIP3   OH2  357   3.757  -0.315   1.919
  135TIP3    H1  358   3.790  -0.232   1.957
  135TIP3    H2  359   3.711  -0.356   1.994
  136TIP3   OH2  360   4.461  -0.108   1.593
  136TIP3    H1  361   4.432  -0.191   1.552
  136TIP3    H2  362   4.451  -0.135   1.686
  137TIP3   OH2  363   4.794   1.107   1.694
  137TIP3    H1  364   4.800   1.137   1.603
  137TIP3    H2  365   4.875   1.146   1.734
  138TIP3   OH2  366   3.754   0.219   2.111
  138TIP3    H1  367   3.834   0.251   2.157
  138TIP3    H2  368   3.690   0.223   2.185
  139TIP3   OH2  369   4.163  -0.435   1.782
  139TIP3    H1  370   4.130  -0.411   1.694
  139TIP3    H2  371   4.258  -0.426   1.766
  140TIP3   OH2  372   4.793   0.271   1.468
  140TIP3    H1  373   4.867   0.252   1.408
  140TIP3    H2  374   4.722   0.228   1.419
  141TIP3   OH2  375   4.331   0.287   1.749
  141TIP3    H1  376   4.357   0.266   1.839
  141TIP3    H2  377   4.289   0.375   1.758
  142TIP3   OH2  378   3.495  -0.100   2.041
  142TIP3    H1  379   3.533  -0.085   2.130
  142TIP3    H2  380   3.441  -0.178   2.060
  143TIP3   OH2  381   4.229   0.027   2.065
  143TIP3    H1  382   4.171  -0.033   2.016
  143TIP3    H2  383   4.317   0.002   2.029
  144TIP3   OH2  384   4.517   0.556   1.642
  144TIP3    H1  385   4.421   0.541   1.631
  144TIP3    H2  386   4.518   0.591   1.734
  145TIP3   OH2  387   5.114   0.452   1.651
  145TIP3    H1  388   5.019   0.469   1.646
  145TIP3    H2  389   5.137   0.432   1.558
  146TIP3   OH2  390   3.699   0.285   1.119
  146TIP3    H1  391   3.729   0.361   1.066
  146TIP3    H2  392   3.621   0.258   1.069
  147TIP3   OH2  393   3.993   0.635   1.518
  147TIP3    H1  394   4.035   0.708   1.467
  147TIP3    H2  395   4.070   0.598   1.564
  148TIP3   OH2  396   3.696   0.529   0.959
  148TIP3    H1  397   3.599   0.525   0.949
  148TIP3    H2  398   3.711   0.624   0.942
  149TIP3   OH2  399   4.377   0.282   1.483
  149TIP3    H1  400   4.360   0.276   1.580
  149TIP3    H2  401   4.436   0.206   1.471
  150TIP3   OH2  402   3.446   0.540   1.690
  150TIP3    H1  403   3.439   0.443   1.687
  150TIP3    H2  404   3.508   0.554   1.763
  151TIP3   OH2  405   4.415  -0.263   1.809
  151TIP3    H1  406   4.432  -0.203   1.884
  151TIP3    H2  407   4.451  -0.347   1.841
  152TIP3   OH2  408   4.655   0.779   1.122
  152TIP3    H1  409   4.609   0.827   1.049
  152TIP3    H2  410   4.747   0.804   1.104
  153TIP3   OH2  411   3.424   0.809   2.103
  153TIP3    H1  412   3.510   0.813   2.150
  153TIP3    H2  413   3.408   0.713   2.102
  154TIP3   OH2  414   3.897   0.766   2.150
  154TIP3    H1  415   3.993   0.754   2.154
  154TIP3    H2  416   3.874   0.704   2.077
  155TIP3   OH2  417   4.564   0.672   1.878
  155TIP3    H1  418   4.543   0.608   1.951
  155TIP3    H2  419   4.633   0.727   1.919
  156TIP3   OH2  420   3.551   0.216   2.303
  156TIP3    H1  421   3.570   0.121   2.311
  156TIP3    H2  422   3.464   0.215   2.257
  157TIP3   OH2  423   4.157   0.300   2.077
  157TIP3    H1  424   4.117   0.320   1.989
  157TIP3    H2  425   4.187   0.207   2.066
  158TIP3   OH2  426   4.649   0.308   1.693
  158TIP3    H1  427   4.705   0.299   1.612
  158TIP3    H2  428   4.593   0.384   1.670
  159TIP3   OH2  429   3.656  -0.046   2.284
  159TIP3    H1  430   3.717  -0.118   2.264
  159TIP3    H2  431   3.691  -0.018   2.372
  160TIP3   OH2  432   4.015  -0.159   1.957
  160TIP3    H1  433   3.937  -0.101   1.948
  160TIP3    H2  434   4.068  -0.132   1.878
  161TIP3   OH2  435   4.523   0.237   2.083
  161TIP3    H1  436   4.602   0.206   2.036
  161TIP3    H2  437   4.512   0.169   2.151
  162TIP3   OH2  438   4.113  -0.388   2.056
  162TIP3    H1  439   4.135  -0.430   1.970
  162TIP3    H2  440   4.072  -0.306   2.019
  163TIP3   OH2  441   4.156  -0.051   1.761
  163TIP3    H1  442   4.228  -0.062   1.698
  163TIP3    H2  443   4.098   0.014   1.714
  164TIP3   OH2  444   4.733  -0.064   2.134
  164TIP3    H1  445   4.763  -0.152   2.108
  164TIP3    H2  446   4.810  -0.008   2.115
  165TIP3   OH2  447   4.788   0.159   1.868
  165TIP3    H1  448   4.729   0.218   1.816
  165TIP3    H2  449   4.874   0.179   1.823
  166TIP3   OH2  450   3.982  -0.276   2.291
  166TIP3    H1  451   3.919  -0.345   2.267
  166TIP3    H2  452   4.045  -0.282   2.217
  167TIP3   OH2  453   4.346  -0.252   2.148
  167TIP3    H1  454   4.352  -0.286   2.239
  167TIP3    H2  455   4.274  -0.308   2.114
  168TIP3   OH2  456   4.692  -0.311   1.998
  168TIP3    H1  457   4.609  -0.342   2.041
  168TIP3    H2  458   4.755  -0.365   2.050
  169TIP3   OH2  459   4.911   0.895   1.111
  169TIP3    H1  460   4.941   0.988   1.120
  169TIP3    H2  461   4.958   0.868   1.030
  170TIP3   OH2  462   4.910   0.830   1.400
  170TIP3    H1  463   4.898   0.821   1.304
  170TIP3    H2  464   5.003   0.860   1.401
  171TIP3   OH2  465   4.959   0.567   1.917
  171TIP3    H1  466   4.898   0.576   1.992
  171TIP3    H2  467   5.009   0.652   1.923
  172TIP3   OH2  468   5.026   0.219   1.755
  172TIP3    H1  469   5.100   0.162   1.783
  172TIP3    H2  470   5.071   0.292   1.710
  173TIP3   OH2  471   5.199   0.060   1.889
  173TIP3    H1  472   5.144  -0.018   1.864
  173TIP3    H2  473   5.281   0.047   1.839
  174TIP3   OH2  474   3.651  -0.383   2.302
  174TIP3    H1  475   3.716  -0.454   2.299
  174TIP3    H2  476   3.576  -0.434   2.341
  175TIP3   OH2  477   4.466   0.778   0.723
  175TIP3    H1  478   4.425   0.837   0.656
  175TIP3    H2  479   4.518   0.843   0.775
  176TIP3   OH2  480   3.588   0.536   2.118
  176TIP3    H1  481   3.494   0.513   2.106
  176TIP3    H2  482   3.599   0.525   2.214
  177TIP3   OH2  483   3.770   0.571   1.671
  177TIP3    H1  484   3.716   0.643   1.631
  177TIP3    H2  485   3.854   0.591   1.626
  178TIP3   OH2  486   4.205   0.811   1.807
  178TIP3    H1  487   4.247   0.812   1.896
  178TIP3    H2  488   4.268   0.867   1.756
  179TIP3   OH2  489   4.376   0.972   1.667
  179TIP3    H1  490   4.435   0.939   1.598
  179TIP3    H2  491   4.438   1.022   1.725
  180TIP3   OH2  492   3.445   0.853   1.685
  180TIP3    H1  493   3.350   0.872   1.668
  180TIP3    H2  494   3.453   0.880   1.777
  181TIP3   OH2  495   3.679   0.803   1.552
  181TIP3    H1  496   3.593   0.823   1.596
  181TIP3    H2  497   3.663   0.838   1.463
  182TIP3   OH2  498   4.102   0.835   1.346
  182TIP3    H1  499   4.031   0.853   1.282
  182TIP3    H2  500   4.113   0.922   1.390
  183TIP3   OH2  501   4.374   0.770   1.403
  183TIP3    H1  502   4.283   0.797   1.380
  183TIP3    H2  503   4.428   0.841   1.365
  184TIP3   OH2  504   4.579   0.965   1.319
  184TIP3    H1  505   4.567   1.047   1.267
  184TIP3    H2  506   4.606   0.902   1.248
  185TIP3   OH2  507   3.352   0.630   1.447
  185TIP3    H1  508   3.393   0.618   1.536
  185TIP3    H2  509   3.415   0.579   1.392
  186TIP3   OH2  510   3.542   0.507   1.300
  186TIP3    H1  511   3.570   0.422   1.338
  186TIP3    H2  512   3.628   0.547   1.276
  187TIP3   OH2  513   3.817   0.595   1.297
  187TIP3    H1  514   3.846   0.504   1.280
  187TIP3    H2  515   3.862   0.611   1.383
  188TIP3   OH2  516   5.813   0.693   1.420
  188TIP3    H1  517   5.731   0.742   1.444
  188TIP3    H2  518   5.783   0.648   1.339
  189TIP3   OH2  519   5.592   0.852   1.460
  189TIP3    H1  520   5.561   0.861   1.367
  189TIP3    H2  521   5.508   0.832   1.505
  190TIP3   OH2  522   5.172   0.374   1.403
  190TIP3    H1  523   5.123   0.426   1.334
  190TIP3    H2  524   5.213   0.310   1.341
  191TIP3   OH2  525   5.085   0.495   1.188
  191TIP3    H1  526   5.130   0.521   1.106
  191TIP3    H2  527   5.012   0.557   1.188
  192TIP3   OH2  528   5.919   0.854   1.219
  192TIP3    H1  529   5.940   0.943   1.257
  192TIP3    H2  530   5.879   0.810   1.296
  193TIP3   OH2  531   5.377   0.570   1.378
  193TIP3    H1  532   5.450   0.549   1.441
  193TIP3    H2  533   5.316   0.496   1.394
  194TIP3   OH2  534   6.585   1.378   1.196
  194TIP3    H1  535   6.577   1.357   1.101
  194TIP3    H2  536   6.670   1.423   1.200
  195TIP3   OH2  537   5.535   0.516   1.599
  195TIP3    H1  538   5.622   0.519   1.643
  195TIP3    H2  539   5.478   0.485   1.672
  196TIP3   OH2  540   5.229   0.779   1.198
  196TIP3    H1  541   5.271   0.701   1.236
  196TIP3    H2  542   5.300   0.845   1.209
  197TIP3   OH2  543   5.231   1.075   1.594
  197TIP3    H1  544   5.312   1.097   1.645
  197TIP3    H2  545   5.242   0.978   1.591
  198TIP3   OH2  546   5.697   1.022   1.648
  198TIP3    H1  547   5.793   1.017   1.638
  198TIP3    H2  548   5.668   0.967   1.572
  199TIP3   OH2  549   6.335   0.937   1.387
  199TIP3    H1  550   6.325   0.879   1.466
  199TIP3    H2  551   6.400   1.004   1.414
  200TIP3   OH2  552   5.346   0.461   1.795
  200TIP3    H1  553   5.364   0.365   1.793
  200TIP3    H2  554   5.258   0.465   1.752
  201TIP3   OH2  555   5.453   0.202   1.775
  201TIP3    H1  556   5.530   0.160   1.731
  201TIP3    H2  557   5.495   0.234   1.857
  202TIP3   OH2  558   5.351   0.804   1.615
  202TIP3    H1  559   5.338   0.713   1.585
  202TIP3    H2  560   5.384   0.791   1.705
  203TIP3   OH2  561   5.521   0.853   1.198
  203TIP3    H1  562   5.519   0.931   1.138
  203TIP3    H2  563   5.605   0.809   1.176
  204TIP3   OH2  564   6.002   1.093   1.311
  204TIP3    H1  565   6.049   1.096   1.397
  204TIP3    H2  566   6.076   1.122   1.252
  205TIP3   OH2  567   6.224   1.177   1.184
  205TIP3    H1  568   6.248   1.178   1.090
  205TIP3    H2  569   6.256   1.264   1.215
  206TIP3   OH2  570   5.235   1.093   1.188
  206TIP3    H1  571   5.141   1.116   1.174
  206TIP3    H2  572   5.258   1.146   1.265
  207TIP3   OH2  573   5.467   1.056   1.028
  207TIP3    H1  574   5.381   1.075   1.071
  207TIP3    H2  575   5.455   1.102   0.941
  208TIP3   OH2  576   5.190   0.906   0.941
  208TIP3    H1  577   5.184   0.873   1.033
  208TIP3    H2  578   5.276   0.868   0.917
  209TIP3   OH2  579   1.171   2.087   2.274
  209TIP3    H1  580   1.163   1.990   2.274
  209TIP3    H2  581   1.077   2.112   2.288
  210TIP3   OH2  582   0.841   2.415   2.359
  210TIP3    H1  583   0.834   2.462   2.275
  210TIP3    H2  584   0.925   2.449   2.395
  211TIP3   OH2  585   1.162   1.804   2.296
  211TIP3    H1  586   1.070   1.810   2.327
  211TIP3    H2  587   1.168   1.706   2.281
  212TIP3   OH2  588   0.583   1.984   2.577
  212TIP3    H1  589   0.611   1.890   2.579
  212TIP3    H2  590   0.666   2.032   2.596
  213TIP3   OH2  591   1.022   1.866   2.587
  213TIP3    H1  592   0.949   1.874   2.651
  213TIP3    H2  593   1.065   1.953   2.598
  214TIP3   OH2  594   1.012   1.510   2.504
  214TIP3    H1  595   1.084   1.444   2.500
  214TIP3    H2  596   1.015   1.546   2.414
  215TIP3   OH2  597   1.226   1.337   2.531
  215TIP3    H1  598   1.176   1.278   2.472
  215TIP3    H2  599   1.314   1.296   2.527
  216TIP3   OH2  600   0.431   2.225   2.358
  216TIP3    H1  601   0.509   2.201   2.305
  216TIP3    H2  602   0.466   2.301   2.409
  217TIP3   OH2  603   0.908   2.141   2.353
  217TIP3    H1  604   0.825   2.091   2.351
  217TIP3    H2  605   0.877   2.233   2.345
  218TIP3   OH2  606   2.187   1.484   1.524
  218TIP3    H1  607   2.219   1.515   1.611
  218TIP3    H2  608   2.194   1.389   1.537
  219TIP3   OH2  609   2.413   1.810   1.219
  219TIP3    H1  610   2.419   1.747   1.293
  219TIP3    H2  611   2.439   1.894   1.263
  220TIP3   OH2  612   2.066   2.286   1.202
  220TIP3    H1  613   2.102   2.214   1.145
  220TIP3    H2  614   2.052   2.239   1.285
  221TIP3   OH2  615   1.958   1.780   1.583
  221TIP3    H1  616   1.952   1.715   1.510
  221TIP3    H2  617   2.055   1.790   1.593
  222TIP3   OH2  618   2.978   1.065   1.548
  222TIP3    H1  619   3.011   1.146   1.593
  222TIP3    H2  620   3.000   1.086   1.456
  223TIP3   OH2  621   2.350   1.248   1.573
  223TIP3    H1  622   2.414   1.180   1.602
  223TIP3    H2  623   2.400   1.285   1.495
  224TIP3   OH2  624   3.054   1.266   1.727
  224TIP3    H1  625   2.974   1.319   1.704
  224TIP3    H2  626   3.085   1.313   1.806
  225TIP3   OH2  627   1.848   1.684   1.811
  225TIP3    H1  628   1.770   1.740   1.831
  225TIP3    H2  629   1.884   1.727   1.731
  226TIP3   OH2  630   2.620   1.054   1.389
  226TIP3    H1  631   2.650   1.025   1.475
  226TIP3    H2  632   2.664   1.141   1.382
  227TIP3   OH2  633   1.641   1.846   1.880
  227TIP3    H1  634   1.623   1.935   1.843
  227TIP3    H2  635   1.557   1.829   1.927
  228TIP3   OH2  636   2.469   2.059   1.335
  228TIP3    H1  637   2.382   2.057   1.381
  228TIP3    H2  638   2.468   2.149   1.296
  229TIP3   OH2  639   2.782   0.950   1.712
  229TIP3    H1  640   2.696   0.993   1.693
  229TIP3    H2  641   2.842   0.994   1.648
  230TIP3   OH2  642   2.180   2.107   1.026
  230TIP3    H1  643   2.240   2.030   1.014
  230TIP3    H2  644   2.231   2.175   0.976
  231TIP3   OH2  645   2.333   1.884   0.966
  231TIP3    H1  646   2.339   1.796   0.925
  231TIP3    H2  647   2.373   1.865   1.053
  232TIP3   OH2  648   2.706   1.968   1.707
  232TIP3    H1  649   2.702   1.895   1.642
  232TIP3    H2  650   2.687   2.046   1.648
  233TIP3   OH2  651   2.902   1.611   1.540
  233TIP3    H1  652   2.819   1.664   1.543
  233TIP3    H2  653   2.935   1.638   1.451
  234TIP3   OH2  654   2.586   1.491   1.842
  234TIP3    H1  655   2.584   1.575   1.892
  234TIP3    H2  656   2.497   1.493   1.802
  235TIP3   OH2  657   1.744   1.905   1.452
  235TIP3    H1  658   1.730   1.814   1.421
  235TIP3    H2  659   1.820   1.888   1.512
  236TIP3   OH2  660   2.237   2.057   1.473
  236TIP3    H1  661   2.229   2.141   1.523
  236TIP3    H2  662   2.224   1.989   1.541
  237TIP3   OH2  663   1.855   1.975   2.019
  237TIP3    H1  664   1.793   2.037   2.063
  237TIP3    H2  665   1.792   1.919   1.969
  238TIP3   OH2  666   1.599   1.544   2.105
  238TIP3    H1  667   1.609   1.630   2.149
  238TIP3    H2  668   1.515   1.514   2.143
  239TIP3   OH2  669   1.653   2.144   2.110
  239TIP3    H1  670   1.621   2.143   2.018
  239TIP3    H2  671   1.572   2.122   2.162
  240TIP3   OH2  672   2.052   2.104   1.878
  240TIP3    H1  673   2.049   2.197   1.910
  240TIP3    H2  674   1.979   2.064   1.930
  241TIP3   OH2  675   2.833   1.446   2.022
  241TIP3    H1  676   2.756   1.461   1.966
  241TIP3    H2  677   2.848   1.350   2.011
  242TIP3   OH2  678   1.420   1.853   2.049
  242TIP3    H1  679   1.485   1.849   2.122
  242TIP3    H2  680   1.341   1.817   2.091
  243TIP3   OH2  681   2.373   0.830   2.064
  243TIP3    H1  682   2.435   0.784   2.124
  243TIP3    H2  683   2.295   0.773   2.063
  244TIP3   OH2  684   2.597   1.226   1.936
  244TIP3    H1  685   2.551   1.227   2.023
  244TIP3    H2  686   2.582   1.316   1.903
  245TIP3   OH2  687   2.314   1.449   2.176
  245TIP3    H1  688   2.294   1.375   2.238
  245TIP3    H2  689   2.408   1.463   2.196
  246TIP3   OH2  690   2.322   1.444   1.757
  246TIP3    H1  691   2.334   1.370   1.694
  246TIP3    H2  692   2.287   1.394   1.835
  247TIP3   OH2  693   2.522   1.038   1.658
  247TIP3    H1  694   2.471   1.036   1.742
  247TIP3    H2  695   2.465   0.982   1.602
  248TIP3   OH2  696   2.634   2.677   1.841
  248TIP3    H1  697   2.636   2.700   1.746
  248TIP3    H2  698   2.718   2.717   1.870
  249TIP3   OH2  699   1.595   1.782   2.260
  249TIP3    H1  700   1.674   1.812   2.309
  249TIP3    H2  701   1.530   1.777   2.333
  250TIP3   OH2  702   2.671   1.759   1.528
  250TIP3    H1  703   2.700   1.813   1.450
  250TIP3    H2  704   2.587   1.719   1.496
  251TIP3   OH2  705   2.170   1.839   1.897
  251TIP3    H1  706   2.199   1.825   1.988
  251TIP3    H2  707   2.130   1.928   1.901
  252TIP3   OH2  708   2.073   1.581   2.207
  252TIP3    H1  709   2.018   1.525   2.149
  252TIP3    H2  710   2.162   1.546   2.186
  253TIP3   OH2  711   2.326   2.094   1.798
  253TIP3    H1  712   2.229   2.098   1.812
  253TIP3    H2  713   2.357   2.151   1.871
  254TIP3   OH2  714   2.963   2.009   1.797
  254TIP3    H1  715   2.868   2.030   1.782
  254TIP3    H2  716   2.990   1.996   1.703
  255TIP3   OH2  717   2.436   1.623   1.439
  255TIP3    H1  718   2.345   1.603   1.467
  255TIP3    H2  719   2.465   1.533   1.412
  256TIP3   OH2  720   1.846   2.198   1.681
  256TIP3    H1  721   1.888   2.264   1.626
  256TIP3    H2  722   1.926   2.155   1.723
  257TIP3   OH2  723   2.231   1.812   1.633
  257TIP3    H1  724   2.216   1.821   1.730
  257TIP3    H2  725   2.326   1.793   1.631
  258TIP3   OH2  726   2.471   2.361   1.676
  258TIP3    H1  727   2.394   2.301   1.667
  258TIP3    H2  728   2.454   2.425   1.604
  259TIP3   OH2  729   2.532   2.199   0.348
  259TIP3    H1  730   2.582   2.244   0.278
  259TIP3    H2  731   2.467   2.268   0.372
  260TIP3   OH2  732   1.304   2.007   1.834
  260TIP3    H1  733   1.355   1.977   1.911
  260TIP3    H2  734   1.255   2.084   1.866
  261TIP3   OH2  735   2.387   1.042   1.896
  261TIP3    H1  736   2.465   1.087   1.931
  261TIP3    H2  737   2.372   0.972   1.964
  262TIP3   OH2  738   2.239   1.291   1.960
  262TIP3    H1  739   2.264   1.341   2.041
  262TIP3    H2  740   2.278   1.204   1.976
  263TIP3   OH2  741   2.866   1.181   1.944
  263TIP3    H1  742   2.768   1.176   1.941
  263TIP3    H2  743   2.888   1.164   1.851
  264TIP3   OH2  744   2.493   1.356   1.369
  264TIP3    H1  745   2.490   1.324   1.278
  264TIP3    H2  746   2.585   1.331   1.394
  265TIP3   OH2  747   2.492   2.333   1.272
  265TIP3    H1  748   2.451   2.379   1.196
  265TIP3    H2  749   2.586   2.356   1.258
  266TIP3   OH2  750   1.260   2.370   2.252
  266TIP3    H1  751   1.345   2.346   2.293
  266TIP3    H2  752   1.222   2.281   2.234
  267TIP3   OH2  753   1.740   2.327   2.296
  267TIP3    H1  754   1.835   2.306   2.302
  267TIP3    H2  755   1.713   2.264   2.226
  268TIP3   OH2  756   2.376   2.235   2.032
  268TIP3    H1  757   2.370   2.165   2.100
  268TIP3    H2  758   2.452   2.287   2.062
  269TIP3   OH2  759   1.393   1.769   2.451
  269TIP3    H1  760   1.398   1.672   2.456
  269TIP3    H2  761   1.305   1.782   2.411
  270TIP3   OH2  762   1.997   1.857   2.227
  270TIP3    H1  763   1.957   1.878   2.140
  270TIP3    H2  764   2.029   1.765   2.215
  271TIP3   OH2  765   2.487   1.864   1.830
  271TIP3    H1  766   2.567   1.902   1.789
  271TIP3    H2  767   2.424   1.938   1.817
  272TIP3   OH2  768   1.518   1.502   2.436
  272TIP3    H1  769   1.597   1.450   2.418
  272TIP3    H2  770   1.540   1.541   2.523
  273TIP3   OH2  771   1.824   1.367   2.067
  273TIP3    H1  772   1.755   1.436   2.076
  273TIP3    H2  773   1.888   1.410   2.005
  274TIP3   OH2  774   2.363   1.789   2.229
  274TIP3    H1  775   2.442   1.761   2.181
  274TIP3    H2  776   2.360   1.725   2.302
  275TIP3   OH2  777   1.968   1.185   2.222
  275TIP3    H1  778   1.966   1.100   2.177
  275TIP3    H2  779   1.921   1.244   2.158
  276TIP3   OH2  780   2.000   1.483   1.898
  276TIP3    H1  781   2.086   1.517   1.870
  276TIP3    H2  782   1.941   1.557   1.868
  277TIP3   OH2  783   2.579   1.465   2.280
  277TIP3    H1  784   2.630   1.383   2.293
  277TIP3    H2  785   2.646   1.525   2.244
  278TIP3   OH2  786   2.617   1.719   2.018
  278TIP3    H1  787   2.561   1.773   1.958
  278TIP3    H2  788   2.706   1.739   1.980
  279TIP3   OH2  789   1.847   1.286   2.457
  279TIP3    H1  790   1.779   1.218   2.474
  279TIP3    H2  791   1.880   1.259   2.369
  280TIP3   OH2  792   2.232   1.228   2.315
  280TIP3    H1  793   2.221   1.215   2.411
  280TIP3    H2  794   2.141   1.210   2.284
  281TIP3   OH2  795   2.469   1.180   2.168
  281TIP3    H1  796   2.395   1.180   2.232
  281TIP3    H2  797   2.544   1.150   2.223
  282TIP3   OH2  798   2.695   1.120   2.317
  282TIP3    H1  799   2.709   1.024   2.335
  282TIP3    H2  800   2.694   1.159   2.407
  283TIP3   OH2  801   1.699   1.058   2.514
  283TIP3    H1  802   1.746   0.985   2.472
  283TIP3    H2  803   1.729   1.049   2.606
  284TIP3   OH2  804   2.206   0.762   2.359
  284TIP3    H1  805   2.271   0.692   2.342
  284TIP3    H2  806   2.135   0.744   2.295
  285TIP3   OH2  807   2.268   0.961   2.526
  285TIP3    H1  808   2.250   0.892   2.459
  285TIP3    H2  809   2.188   1.018   2.518
  286TIP3   OH2  810   2.749   2.427   1.248
  286TIP3    H1  811   2.802   2.457   1.323
  286TIP3    H2  812   2.797   2.467   1.174
  287TIP3   OH2  813   2.839   2.131   2.099
  287TIP3    H1  814   2.760   2.139   2.155
  287TIP3    H2  815   2.823   2.193   2.026
  288TIP3   OH2  816   2.649   1.638   0.712
  288TIP3    H1  817   2.684   1.724   0.684
  288TIP3    H2  818   2.694   1.624   0.798
  289TIP3   OH2  819   2.775   1.535   0.924
  289TIP3    H1  820   2.730   1.462   0.970
  289TIP3    H2  821   2.851   1.554   0.983
  290TIP3   OH2  822   2.814   1.891   1.336
  290TIP3    H1  823   2.871   1.827   1.290
  290TIP3    H2  824   2.810   1.965   1.272
  291TIP3   OH2  825   2.637   2.166   1.539
  291TIP3    H1  826   2.590   2.246   1.568
  291TIP3    H2  827   2.586   2.138   1.461
  292TIP3   OH2  828   2.862   1.779   1.914
  292TIP3    H1  829   2.936   1.716   1.902
  292TIP3    H2  830   2.889   1.853   1.856
  293TIP3   OH2  831   3.047   1.583   1.923
  293TIP3    H1  832   2.975   1.533   1.967
  293TIP3    H2  833   3.122   1.523   1.939
  294TIP3   OH2  834   2.746   1.287   1.444
  294TIP3    H1  835   2.835   1.299   1.403
  294TIP3    H2  836   2.767   1.314   1.536
  295TIP3   OH2  837   2.812   1.399   1.687
  295TIP3    H1  838   2.731   1.433   1.731
  295TIP3    H2  839   2.843   1.479   1.639
  296TIP3   OH2  840   1.439   1.150   2.534
  296TIP3    H1  841   1.530   1.115   2.524
  296TIP3    H2  842   1.392   1.073   2.569
  297TIP3   OH2  843   3.254   0.984   2.232
  297TIP3    H1  844   3.316   0.921   2.189
  297TIP3    H2  845   3.223   1.037   2.155
  298TIP3   OH2  846   3.123   1.122   2.039
  298TIP3    H1  847   3.039   1.167   2.061
  298TIP3    H2  848   3.089   1.051   1.981
  299TIP3   OH2  849   2.322   2.291   0.887
  299TIP3    H1  850   2.378   2.283   0.807
  299TIP3    H2  851   2.370   2.356   0.940
  300TIP3   OH2  852   1.440   2.096   2.273
  300TIP3    H1  853   1.343   2.090   2.258
  300TIP3    H2  854   1.446   2.071   2.365
  301TIP3   OH2  855   1.627   2.116   1.832
  301TIP3    H1  856   1.571   2.188   1.798
  301TIP3    H2  857   1.710   2.137   1.785
  302TIP3   OH2  858   2.051   2.371   1.957
  302TIP3    H1  859   2.094   2.372   2.045
  302TIP3    H2  860   2.116   2.422   1.905
  303TIP3   OH2  861   2.230   2.525   1.818
  303TIP3    H1  862   2.300   2.476   1.773
  303TIP3    H2  863   2.283   2.582   1.877
  304TIP3   OH2  864   3.027   0.892   1.919
  304TIP3    H1  865   2.938   0.886   1.882
  304TIP3    H2  866   3.059   0.799   1.909
  305TIP3   OH2  867   1.278   2.417   1.844
  305TIP3    H1  868   1.191   2.381   1.818
  305TIP3    H2  869   1.269   2.398   1.938
  306TIP3   OH2  870   1.512   2.340   1.725
  306TIP3    H1  871   1.431   2.375   1.771
  306TIP3    H2  872   1.475   2.313   1.641
  307TIP3   OH2  873   1.948   2.389   1.503
  307TIP3    H1  874   1.883   2.404   1.432
  307TIP3    H2  875   1.957   2.479   1.541
  308TIP3   OH2  876   2.216   2.326   1.552
  308TIP3    H1  877   2.122   2.346   1.533
  308TIP3    H2  878   2.260   2.399   1.506
  309TIP3   OH2  879   2.419   2.521   1.462
  309TIP3    H1  880   2.407   2.606   1.414
  309TIP3    H2  881   2.448   2.461   1.390
  310TIP3   OH2  882   1.674   2.183   1.455
  310TIP3    H1  883   1.690   2.088   1.437
  310TIP3    H2  884   1.712   2.190   1.544
  311TIP3   OH2  885   2.478   2.255   0.658
  311TIP3    H1  886   2.494   2.167   0.621
  311TIP3    H2  887   2.436   2.301   0.583
  312TIP3   OH2  888   1.920   0.797   2.578
  312TIP3    H1  889   1.999   0.774   2.526
  312TIP3    H2  890   1.902   0.713   2.624
  313TIP3   OH2  891   2.759   0.847   2.347
  313TIP3    H1  892   2.777   0.817   2.438
  313TIP3    H2  893   2.849   0.844   2.307
  314TIP3   OH2  894   2.671   2.394   1.879
  314TIP3    H1  895   2.619   2.364   1.802
  314TIP3    H2  896   2.683   2.488   1.856
  315TIP3   OH2  897   3.966   1.774   0.607
  315TIP3    H1  898   3.934   1.864   0.586
  315TIP3    H2  899   3.894   1.721   0.570
  316TIP3   OH2  900   3.967   1.777   0.990
  316TIP3    H1  901   3.999   1.748   1.077
  316TIP3    H2  902   3.926   1.697   0.955
  317TIP3   OH2  903   3.263   1.668   1.353
  317TIP3    H1  904   3.295   1.599   1.415
  317TIP3    H2  905   3.337   1.730   1.355
  318TIP3   OH2  906   4.212   2.080   0.670
  318TIP3    H1  907   4.191   2.010   0.732
  318TIP3    H2  908   4.240   2.153   0.728
  319TIP3   OH2  909   3.233   2.078   1.068
  319TIP3    H1  910   3.227   1.981   1.071
  319TIP3    H2  911   3.328   2.091   1.077
  320TIP3   OH2  912   2.945   1.303   0.853
  320TIP3    H1  913   2.892   1.384   0.857
  320TIP3    H2  914   2.879   1.237   0.878
  321TIP3   OH2  915   3.012   1.573   1.044
  321TIP3    H1  916   3.059   1.492   1.075
  321TIP3    H2  917   3.073   1.606   0.976
  322TIP3   OH2  918   3.862   2.542   0.689
  322TIP3    H1  919   3.903   2.469   0.638
  322TIP3    H2  920   3.849   2.500   0.775
  323TIP3   OH2  921   3.763   2.001   1.038
  323TIP3    H1  922   3.804   1.925   0.993
  323TIP3    H2  923   3.845   2.048   1.064
  324TIP3   OH2  924   4.782   1.321   1.034
  324TIP3    H1  925   4.810   1.403   1.079
  324TIP3    H2  926   4.800   1.343   0.941
  325TIP3   OH2  927   4.173   1.499   1.068
  325TIP3    H1  928   4.217   1.415   1.087
  325TIP3    H2  929   4.143   1.484   0.976
  326TIP3   OH2  930   3.519   1.171   1.038
  326TIP3    H1  931   3.501   1.244   0.975
  326TIP3    H2  932   3.469   1.099   0.992
  327TIP3   OH2  933   4.213   1.256   0.662
  327TIP3    H1  934   4.292   1.236   0.717
  327TIP3    H2  935   4.256   1.297   0.584
  328TIP3   OH2  936   3.150   1.361   1.139
  328TIP3    H1  937   3.233   1.344   1.187
  328TIP3    H2  938   3.165   1.307   1.059
  329TIP3   OH2  939   3.589   1.560   0.935
  329TIP3    H1  940   3.683   1.537   0.947
  329TIP3    H2  941   3.552   1.476   0.901
  330TIP3   OH2  942   4.850   1.526   1.208
  330TIP3    H1  943   4.767   1.574   1.187
  330TIP3    H2  944   4.869   1.562   1.297
  331TIP3   OH2  945   3.512   1.147   1.468
  331TIP3    H1  946   3.452   1.185   1.401
  331TIP3    H2  947   3.459   1.161   1.549
  332TIP3   OH2  948   3.853   1.995   0.479
  332TIP3    H1  949   3.817   1.980   0.391
  332TIP3    H2  950   3.808   2.078   0.505
  333TIP3   OH2  951   3.619   1.919   1.259
  333TIP3    H1  952   3.559   1.988   1.296
  333TIP3    H2  953   3.662   1.967   1.185
  334TIP3   OH2  954   4.429   1.244   0.836
  334TIP3    H1  955   4.391   1.224   0.923
  334TIP3    H2  956   4.473   1.329   0.853
  335TIP3   OH2  957   3.381   1.262   1.254
  335TIP3    H1  958   3.442   1.335   1.279
  335TIP3    H2  959   3.432   1.224   1.179
  336TIP3   OH2  960   3.451   2.116   1.354
  336TIP3    H1  961   3.423   2.205   1.325
  336TIP3    H2  962   3.374   2.094   1.411
  337TIP3   OH2  963   2.843   1.816   0.593
  337TIP3    H1  964   2.818   1.864   0.513
  337TIP3    H2  965   2.883   1.890   0.644
  338TIP3   OH2  966   4.279   2.322   0.836
  338TIP3    H1  967   4.190   2.312   0.877
  338TIP3    H2  968   4.268   2.409   0.792
  339TIP3   OH2  969   4.571   1.221   1.198
  339TIP3    H1  970   4.484   1.248   1.167
  339TIP3    H2  971   4.630   1.255   1.128
  340TIP3   OH2  972   3.861   0.857   1.179
  340TIP3    H1  973   3.845   0.764   1.205
  340TIP3    H2  974   3.788   0.901   1.227
  341TIP3   OH2  975   3.976   2.365   0.508
  341TIP3    H1  976   4.026   2.282   0.492
  341TIP3    H2  977   4.041   2.429   0.470
  342TIP3   OH2  978   4.123   2.152   0.418
  342TIP3    H1  979   4.095   2.070   0.374
  342TIP3    H2  980   4.160   2.117   0.503
  343TIP3   OH2  981   4.505   2.231   1.181
  343TIP3    H1  982   4.491   2.154   1.121
  343TIP3    H2  983   4.486   2.307   1.121
  344TIP3   OH2  984   3.798   1.629   0.442
  344TIP3    H1  985   3.721   1.683   0.417
  344TIP3    H2  986   3.843   1.618   0.356
  345TIP3   OH2  987   3.759   1.399   0.172
  345TIP3    H1  988   3.829   1.463   0.197
  345TIP3    H2  989   3.808   1.337   0.118
  346TIP3   OH2  990   4.699   1.871   1.026
  346TIP3    H1  991   4.615   1.921   1.031
  346TIP3    H2  992   4.729   1.896   0.936
  347TIP3   OH2  993   4.142   1.710   0.405
  347TIP3    H1  994   4.090   1.731   0.485
  347TIP3    H2  995   4.226   1.678   0.446
  348TIP3   OH2  996   4.378   1.746   1.325
  348TIP3    H1  997   4.376   1.830   1.376
  348TIP3    H2  998   4.292   1.751   1.280
  349TIP3   OH2  999   3.375   1.703   0.828
  349TIP3    H1 1000   3.338   1.645   0.758
  349TIP3    H2 1001   3.453   1.652   0.858
  350TIP3   OH2 1002   3.510   2.123   0.972
  350TIP3    H1 1003   3.488   2.083   0.887
  350TIP3    H2 1004   3.598   2.084   0.991
  351TIP3   OH2 1005   3.513   1.676   1.181
  351TIP3    H1 1006   3.547   1.654   1.091
  351TIP3    H2 1007   3.556   1.763   1.199
  352TIP3   OH2 1008   4.039   2.314   0.958
  352TIP3    H1 1009   4.024   2.395   1.011
  352TIP3    H2 1010   4.021   2.242   1.022
  353TIP3   OH2 1011   3.650   2.233   1.506
  353TIP3    H1 1012   3.587   2.295   1.550
  353TIP3    H2 1013   3.587   2.181   1.452
  354TIP3   OH2 1014   3.969   1.573   0.228
  354TIP3    H1 1015   4.037   1.620   0.281
  354TIP3    H2 1016   3.998   1.596   0.137
  355TIP3   OH2 1017   3.408   1.786   1.612
  355TIP3    H1 1018   3.413   1.875   1.651
  355TIP3    H2 1019   3.312   1.769   1.621
  356TIP3   OH2 1020   3.729   2.244   0.514
  356TIP3    H1 1021   3.811   2.296   0.522
  356TIP3    H2 1022   3.669   2.304   0.467
  357TIP3   OH2 1023   3.444   2.398   1.593
  357TIP3    H1 1024   3.403   2.404   1.505
  357TIP3    H2 1025   3.368   2.367   1.647
  358TIP3   OH2 1026   3.251   1.539   0.626
  358TIP3    H1 1027   3.188   1.592   0.571
  358TIP3    H2 1028   3.193   1.467   0.653
  359TIP3   OH2 1029   4.276   2.186  -0.191
  359TIP3    H1 1030   4.303   2.278  -0.174
  359TIP3    H2 1031   4.361   2.138  -0.181
  360TIP3   OH2 1032   3.017   1.934   1.543
  360TIP3    H1 1033   2.954   1.912   1.473
  360TIP3    H2 1034   3.061   1.849   1.562
  361TIP3   OH2 1035   2.878   2.125   1.170
  361TIP3    H1 1036   2.974   2.118   1.173
  361TIP3    H2 1037   2.859   2.193   1.237
  362TIP3   OH2 1038   4.751   2.579   1.225
  362TIP3    H1 1039   4.747   2.483   1.244
  362TIP3    H2 1040   4.665   2.607   1.264
  363TIP3   OH2 1041   3.846   2.361   1.364
  363TIP3    H1 1042   3.843   2.454   1.396
  363TIP3    H2 1043   3.773   2.321   1.417
  364TIP3   OH2 1044   3.611   2.491   0.311
  364TIP3    H1 1045   3.564   2.474   0.227
  364TIP3    H2 1046   3.576   2.578   0.338
  365TIP3   OH2 1047   3.046   2.340   0.703
  365TIP3    H1 1048   3.096   2.333   0.787
  365TIP3    H2 1049   2.997   2.256   0.704
  366TIP3   OH2 1050   3.802   2.396  -0.033
  366TIP3    H1 1051   3.859   2.334  -0.084
  366TIP3    H2 1052   3.846   2.396   0.054
  367TIP3   OH2 1053   3.867   2.444   0.233
  367TIP3    H1 1054   3.775   2.453   0.267
  367TIP3    H2 1055   3.909   2.399   0.308
  368TIP3   OH2 1056   4.632   1.707   1.503
  368TIP3    H1 1057   4.548   1.718   1.455
  368TIP3    H2 1058   4.646   1.610   1.494
  369TIP3   OH2 1059   3.245   2.091   1.525
  369TIP3    H1 1060   3.275   2.099   1.617
  369TIP3    H2 1061   3.155   2.054   1.535
  370TIP3   OH2 1062   3.635   0.944   1.316
  370TIP3    H1 1063   3.544   0.915   1.298
  370TIP3    H2 1064   3.614   1.027   1.363
  371TIP3   OH2 1065   4.160   1.052   1.506
  371TIP3    H1 1066   4.228   1.028   1.573
  371TIP3    H2 1067   4.076   1.035   1.554
  372TIP3   OH2 1068   4.395   1.483   1.424
  372TIP3    H1 1069   4.346   1.481   1.509
  372TIP3    H2 1070   4.375   1.572   1.389
  373TIP3   OH2 1071   4.055   1.626  -0.024
  373TIP3    H1 1072   4.037   1.581  -0.108
  373TIP3    H2 1073   4.140   1.668  -0.047
  374TIP3   OH2 1074   3.769   1.003   0.279
  374TIP3    H1 1075   3.743   0.991   0.372
  374TIP3    H2 1076   3.756   0.915   0.243
  375TIP3   OH2 1077   3.559   1.456   1.331
  375TIP3    H1 1078   3.509   1.478   1.412
  375TIP3    H2 1079   3.544   1.537   1.277
  376TIP3   OH2 1080   3.448   1.340   0.840
  376TIP3    H1 1081   3.355   1.315   0.860
  376TIP3    H2 1082   3.454   1.309   0.747
  377TIP3   OH2 1083   3.924   1.430   0.589
  377TIP3    H1 1084   3.878   1.500   0.539
  377TIP3    H2 1085   3.993   1.403   0.523
  378TIP3   OH2 1086   4.109   1.701   1.655
  378TIP3    H1 1087   4.087   1.630   1.719
  378TIP3    H2 1088   4.202   1.718   1.679
  379TIP3   OH2 1089   4.088   1.454   0.812
  379TIP3    H1 1090   4.024   1.481   0.742
  379TIP3    H2 1091   4.125   1.375   0.767
  380TIP3   OH2 1092   3.379   1.485   1.538
  380TIP3    H1 1093   3.402   1.553   1.603
  380TIP3    H2 1094   3.371   1.404   1.594
  381TIP3   OH2 1095   2.960   1.071   1.164
  381TIP3    H1 1096   3.039   1.087   1.219
  381TIP3    H2 1097   2.993   1.010   1.098
  382TIP3   OH2 1098   4.100   1.698   1.233
  382TIP3    H1 1099   4.134   1.627   1.173
  382TIP3    H2 1100   4.069   1.644   1.309
  383TIP3   OH2 1101   3.774   1.158   0.909
  383TIP3    H1 1102   3.693   1.164   0.964
  383TIP3    H2 1103   3.844   1.161   0.975
  384TIP3   OH2 1104   3.206   1.230   0.905
  384TIP3    H1 1105   3.113   1.246   0.878
  384TIP3    H2 1106   3.208   1.133   0.892
  385TIP3   OH2 1107   3.484   1.244   0.579
  385TIP3    H1 1108   3.577   1.226   0.604
  385TIP3    H2 1109   3.499   1.296   0.499
  386TIP3   OH2 1110   4.265   1.238   1.103
  386TIP3    H1 1111   4.235   1.252   1.196
  386TIP3    H2 1112   4.194   1.179   1.072
  387TIP3   OH2 1113   4.399   2.937   1.308
  387TIP3    H1 1114   4.455   2.959   1.232
  387TIP3    H2 1115   4.457   2.954   1.386
  388TIP3   OH2 1116   3.395   2.028   1.763
  388TIP3    H1 1117   3.473   2.064   1.809
  388TIP3    H2 1118   3.325   2.049   1.828
  389TIP3   OH2 1119   3.851   1.489   1.000
  389TIP3    H1 1120   3.928   1.458   0.950
  389TIP3    H2 1121   3.863   1.446   1.086
  390TIP3   OH2 1122   3.405   0.980   0.883
  390TIP3    H1 1123   3.396   0.895   0.929
  390TIP3    H2 1124   3.476   0.963   0.820
  391TIP3   OH2 1125   3.829   1.388   1.297
  391TIP3    H1 1126   3.739   1.426   1.307
  391TIP3    H2 1127   3.886   1.453   1.343
  392TIP3   OH2 1128   3.567   1.786   0.385
  392TIP3    H1 1129   3.494   1.721   0.376
  392TIP3    H2 1130   3.550   1.819   0.477
  393TIP3   OH2 1131   4.465   2.014   1.015
  393TIP3    H1 1132   4.487   2.066   0.935
  393TIP3    H2 1133   4.380   1.970   0.989
  394TIP3   OH2 1134   4.041   1.084   0.270
  394TIP3    H1 1135   3.949   1.079   0.238
  394TIP3    H2 1136   4.087   1.142   0.206
  395TIP3   OH2 1137   3.964   2.098   1.385
  395TIP3    H1 1138   3.993   2.081   1.475
  395TIP3    H2 1139   3.925   2.186   1.391
  396TIP3   OH2 1140   4.101   1.369   0.391
  396TIP3    H1 1141   4.178   1.322   0.353
  396TIP3    H2 1142   4.065   1.411   0.312
  397TIP3   OH2 1143   3.258   1.800   1.062
  397TIP3    H1 1144   3.297   1.770   0.978
  397TIP3    H2 1145   3.303   1.743   1.126
  398TIP3   OH2 1146   3.710   1.928   0.201
  398TIP3    H1 1147   3.665   2.015   0.212
  398TIP3    H2 1148   3.660   1.875   0.267
  399TIP3   OH2 1149   3.144   1.718   1.674
  399TIP3    H1 1150   3.162   1.711   1.770
  399TIP3    H2 1151   3.070   1.656   1.663
  400TIP3   OH2 1152   3.867   1.836   1.697
  400TIP3    H1 1153   3.805   1.778   1.650
  400TIP3    H2 1154   3.954   1.801   1.667
  401TIP3   OH2 1155   4.123   2.354   1.284
  401TIP3    H1 1156   4.027   2.354   1.298
  401TIP3    H2 1157   4.153   2.409   1.360
  402TIP3   OH2 1158   4.548   1.424   0.187
  402TIP3    H1 1159   4.466   1.372   0.174
  402TIP3    H2 1160   4.531   1.502   0.130
  403TIP3   OH2 1161   4.755   2.288   1.270
  403TIP3    H1 1162   4.657   2.283   1.262
  403TIP3    H2 1163   4.780   2.257   1.180
  404TIP3   OH2 1164   4.253   2.241   0.096
  404TIP3    H1 1165   4.208   2.187   0.163
  404TIP3    H2 1166   4.228   2.195   0.014
  405TIP3   OH2 1167   4.233   1.877   0.934
  405TIP3    H1 1168   4.138   1.855   0.947
  405TIP3    H2 1169   4.264   1.797   0.888
  406TIP3   OH2 1170   3.362   2.106   0.687
  406TIP3    H1 1171   3.358   2.186   0.632
  406TIP3    H2 1172   3.268   2.087   0.701
  407TIP3   OH2 1173   3.494   1.868   0.631
  407TIP3    H1 1174   3.461   1.958   0.649
  407TIP3    H2 1175   3.458   1.819   0.707
  408TIP3   OH2 1176   3.631   2.451   1.152
  408TIP3    H1 1177   3.676   2.523   1.104
  408TIP3    H2 1178   3.705   2.413   1.202
  409TIP3   OH2 1179   3.276   2.347   0.539
  409TIP3    H1 1180   3.192   2.355   0.588
  409TIP3    H2 1181   3.309   2.439   0.542
  410TIP3   OH2 1182   4.014   2.082   1.117
  410TIP3    H1 1183   4.003   2.081   1.215
  410TIP3    H2 1184   4.094   2.029   1.106
  411TIP3   OH2 1185   3.983   1.998   0.013
  411TIP3    H1 1186   4.047   1.964   0.079
  411TIP3    H2 1187   3.902   1.958   0.045
  412TIP3   OH2 1188   4.261   2.611   1.163
  412TIP3    H1 1189   4.178   2.559   1.153
  412TIP3    H2 1190   4.248   2.679   1.094
  413TIP3   OH2 1191   4.339   2.451  -0.153
  413TIP3    H1 1192   4.381   2.526  -0.200
  413TIP3    H2 1193   4.255   2.494  -0.128
  414TIP3   OH2 1194   3.350   1.224   1.684
  414TIP3    H1 1195   3.254   1.227   1.698
  414TIP3    H2 1196   3.380   1.169   1.758
  415TIP3   OH2 1197   4.154   1.917   0.219
  415TIP3    H1 1198   4.140   1.845   0.285
  415TIP3    H2 1199   4.251   1.907   0.205
  416TIP3   OH2 1200   3.355   1.947  -0.013
  416TIP3    H1 1201   3.435   1.891  -0.014
  416TIP3    H2 1202   3.328   1.945   0.081
  417TIP3   OH2 1203   3.302   1.963   0.264
  417TIP3    H1 1204   3.374   1.932   0.321
  417TIP3    H2 1205   3.308   2.060   0.275
  418TIP3   OH2 1206   3.053   1.672   0.489
  418TIP3    H1 1207   2.986   1.719   0.541
  418TIP3    H2 1208   3.059   1.733   0.412
  419TIP3   OH2 1209   4.193   1.287   1.363
  419TIP3    H1 1210   4.270   1.331   1.405
  419TIP3    H2 1211   4.178   1.209   1.420
  420TIP3   OH2 1212   4.039   1.060   0.544
  420TIP3    H1 1213   4.036   1.072   0.446
  420TIP3    H2 1214   4.092   1.137   0.571
  421TIP3   OH2 1215   3.572   2.158   0.225
  421TIP3    H1 1216   3.485   2.186   0.260
  421TIP3    H2 1217   3.579   2.214   0.147
  422TIP3   OH2 1218   3.747   1.226   0.642
  422TIP3    H1 1219   3.811   1.296   0.617
  422TIP3    H2 1220   3.764   1.218   0.738
  423TIP3   OH2 1221   4.027   1.538   1.440
  423TIP3    H1 1222   4.050   1.593   1.518
  423TIP3    H2 1223   4.081   1.459   1.454
  424TIP3   OH2 1224   3.903   0.950   0.749
  424TIP3    H1 1225   3.893   1.029   0.806
  424TIP3    H2 1226   3.961   0.988   0.678
  425TIP3   OH2 1227   3.317   2.234   0.292
  425TIP3    H1 1228   3.287   2.306   0.231
  425TIP3    H2 1229   3.299   2.275   0.380
  426TIP3   OH2 1230   4.661   1.439   1.425
  426TIP3    H1 1231   4.563   1.437   1.430
  426TIP3    H2 1232   4.674   1.404   1.336
  427TIP3   OH2 1233   4.317   1.634   0.810
  427TIP3    H1 1234   4.240   1.575   0.818
  427TIP3    H2 1235   4.387   1.584   0.859
  428TIP3   OH2 1236   3.035   1.867   0.299
  428TIP3    H1 1237   3.121   1.911   0.289
  428TIP3    H2 1238   3.012   1.843   0.209
  429TIP3   OH2 1239   4.287   2.593   0.758
  429TIP3    H1 1240   4.243   2.640   0.683
  429TIP3    H2 1241   4.381   2.611   0.736
  430TIP3   OH2 1242   3.374   0.867   1.306
  430TIP3    H1 1243   3.379   0.826   1.217
  430TIP3    H2 1244   3.362   0.789   1.364
  431TIP3   OH2 1245   2.903   2.076   0.667
  431TIP3    H1 1246   2.837   2.106   0.731
  431TIP3    H2 1247   2.868   2.116   0.584
  432TIP3   OH2 1248   3.541   2.578   1.785
  432TIP3    H1 1249   3.635   2.555   1.783
  432TIP3    H2 1250   3.506   2.520   1.714
  433TIP3   OH2 1251   3.521   2.159  -0.070
  433TIP3    H1 1252   3.449   2.094  -0.055
  433TIP3    H2 1253   3.590   2.100  -0.102
  434TIP3   OH2 1254   4.182   2.487   1.521
  434TIP3    H1 1255   4.165   2.416   1.588
  434TIP3    H2 1256   4.269   2.519   1.549
  435TIP3   OH2 1257   3.971   2.208  -0.156
  435TIP3    H1 1258   3.963   2.128  -0.098
  435TIP3    H2 1259   4.060   2.194  -0.191
  436TIP3   OH2 1260   3.187   2.030   1.952
  436TIP3    H1 1261   3.204   1.934   1.947
  436TIP3    H2 1262   3.103   2.036   1.901
  437TIP3   OH2 1263   3.793   2.114   1.713
  437TIP3    H1 1264   3.750   2.135   1.628
  437TIP3    H2 1265   3.823   2.021   1.701
  438TIP3   OH2 1266   3.626   1.857  -0.048
  438TIP3    H1 1267   3.662   1.884   0.039
  438TIP3    H2 1268   3.673   1.775  -0.064
  439TIP3   OH2 1269   4.288   2.123   1.320
  439TIP3    H1 1270   4.364   2.166   1.277
  439TIP3    H2 1271   4.218   2.190   1.305
  440TIP3   OH2 1272   3.306   1.754   1.925
  440TIP3    H1 1273   3.390   1.720   1.892
  440TIP3    H2 1274   3.334   1.793   2.011
  441TIP3   OH2 1275   3.381   1.585   0.374
  441TIP3    H1 1276   3.370   1.550   0.464
  441TIP3    H2 1277   3.427   1.514   0.324
  442TIP3   OH2 1278   3.644   1.645   1.583
  442TIP3    H1 1279   3.566   1.703   1.583
  442TIP3    H2 1280   3.696   1.681   1.507
  443TIP3   OH2 1281   3.493   1.383   0.232
  443TIP3    H1 1282   3.462   1.317   0.167
  443TIP3    H2 1283   3.588   1.390   0.208
  444TIP3   OH2 1284   4.160   2.047   1.717
  444TIP3    H1 1285   4.239   2.019   1.669
  444TIP3    H2 1286   4.155   1.981   1.789
  445TIP3   OH2 1287   4.293   1.707  -0.143
  445TIP3    H1 1288   4.319   1.632  -0.199
  445TIP3    H2 1289   4.268   1.773  -0.209
  446TIP3   OH2 1290   3.767   1.435   1.706
  446TIP3    H1 1291   3.767   1.357   1.648
  446TIP3    H2 1292   3.723   1.503   1.650
  447TIP3   OH2 1293   3.770   1.219   1.518
  447TIP3    H1 1294   3.798   1.264   1.435
  447TIP3    H2 1295   3.676   1.199   1.499
  448TIP3   OH2 1296   3.793   1.753   1.390
  448TIP3    H1 1297   3.878   1.770   1.349
  448TIP3    H2 1298   3.735   1.818   1.345
  449TIP3   OH2 1299   4.375   1.721   1.768
  449TIP3    H1 1300   4.427   1.640   1.780
  449TIP3    H2 1301   4.442   1.782   1.734
  450TIP3   OH2 1302   4.417   1.974   1.505
  450TIP3    H1 1303   4.359   2.030   1.447
  450TIP3    H2 1304   4.505   1.997   1.467
  451TIP3   OH2 1305   3.647   1.540   1.943
  451TIP3    H1 1306   3.577   1.473   1.957
  451TIP3    H2 1307   3.678   1.518   1.853
  452TIP3   OH2 1308   3.900   0.981   1.586
  452TIP3    H1 1309   3.850   1.063   1.563
  452TIP3    H2 1310   3.832   0.913   1.575
  453TIP3   OH2 1311   4.028   1.484   1.800
  453TIP3    H1 1312   4.013   1.471   1.896
  453TIP3    H2 1313   3.938   1.462   1.767
  454TIP3   OH2 1314   4.264   1.434   1.654
  454TIP3    H1 1315   4.191   1.438   1.718
  454TIP3    H2 1316   4.339   1.407   1.710
  455TIP3   OH2 1317   4.490   1.376   1.804
  455TIP3    H1 1318   4.505   1.281   1.821
  455TIP3    H2 1319   4.490   1.414   1.894
  456TIP3   OH2 1320   3.481   1.323   1.995
  456TIP3    H1 1321   3.486   1.231   1.963
  456TIP3    H2 1322   3.519   1.313   2.085
  457TIP3   OH2 1323   3.993   0.991   1.844
  457TIP3    H1 1324   4.058   0.919   1.837
  457TIP3    H2 1325   3.954   0.988   1.755
  458TIP3   OH2 1326   4.061   1.207   2.003
  458TIP3    H1 1327   4.040   1.137   1.938
  458TIP3    H2 1328   3.982   1.266   1.995
  459TIP3   OH2 1329   3.276   2.434   0.105
  459TIP3    H1 1330   3.371   2.431   0.080
  459TIP3    H2 1331   3.236   2.467   0.024
  460TIP3   OH2 1332   2.681   2.429   0.734
  460TIP3    H1 1333   2.615   2.366   0.698
  460TIP3    H2 1334   2.726   2.372   0.800
  461TIP3   OH2 1335   2.813   2.276   0.921
  461TIP3    H1 1336   2.806   2.205   0.987
  461TIP3    H2 1337   2.869   2.339   0.970
  462TIP3   OH2 1338   4.543   2.678   0.717
  462TIP3    H1 1339   4.565   2.704   0.809
  462TIP3    H2 1340   4.605   2.732   0.666
  463TIP3   OH2 1341   4.571   2.698   0.994
  463TIP3    H1 1342   4.524   2.612   0.994
  463TIP3    H2 1343   4.634   2.681   1.065
  464TIP3   OH2 1344   4.611   2.379   1.578
  464TIP3    H1 1345   4.535   2.390   1.640
  464TIP3    H2 1346   4.649   2.469   1.579
  465TIP3   OH2 1347   4.434   1.891   0.196
  465TIP3    H1 1348   4.510   1.945   0.171
  465TIP3    H2 1349   4.470   1.845   0.275
  466TIP3   OH2 1350   4.558   1.760   0.398
  466TIP3    H1 1351   4.492   1.714   0.454
  466TIP3    H2 1352   4.623   1.793   0.463
  467TIP3   OH2 1353   4.617   2.153   0.829
  467TIP3    H1 1354   4.668   2.084   0.783
  467TIP3    H2 1355   4.608   2.222   0.761
  468TIP3   OH2 1356   4.443   2.453   1.023
  468TIP3    H1 1357   4.372   2.494   1.077
  468TIP3    H2 1358   4.391   2.407   0.953
  469TIP3   OH2 1359   4.491   1.660   0.045
  469TIP3    H1 1360   4.422   1.661  -0.024
  469TIP3    H2 1361   4.462   1.735   0.100
  470TIP3   OH2 1362   4.373   1.616   0.538
  470TIP3    H1 1363   4.381   1.520   0.522
  470TIP3    H2 1364   4.359   1.622   0.634
  471TIP3   OH2 1365   2.999   1.687   1.293
  471TIP3    H1 1366   2.999   1.656   1.200
  471TIP3    H2 1367   3.096   1.691   1.310
  472TIP3   OH2 1368   4.663   2.041   1.400
  472TIP3    H1 1369   4.734   1.975   1.390
  472TIP3    H2 1370   4.688   2.110   1.336
  473TIP3   OH2 1371   4.847   1.843   1.409
  473TIP3    H1 1372   4.772   1.794   1.450
  473TIP3    H2 1373   4.920   1.780   1.426
  474TIP3   OH2 1374   4.390   1.345   0.462
  474TIP3    H1 1375   4.431   1.256   0.468
  474TIP3    H2 1376   4.382   1.352   0.365
  475TIP3   OH2 1377   4.528   1.499   0.933
  475TIP3    H1 1378   4.612   1.525   0.890
  475TIP3    H2 1379   4.542   1.540   1.021
  476TIP3   OH2 1380   4.601   1.649   1.161
  476TIP3    H1 1381   4.524   1.684   1.210
  476TIP3    H2 1382   4.634   1.731   1.117
  477TIP3   OH2 1383   3.214   1.369   1.955
  477TIP3    H1 1384   3.312   1.368   1.962
  477TIP3    H2 1385   3.193   1.285   1.999
  478TIP3   OH2 1386   5.046   1.246   1.715
  478TIP3    H1 1387   5.111   1.182   1.680
  478TIP3    H2 1388   5.020   1.297   1.636
  479TIP3   OH2 1389   4.492   1.089   0.475
  479TIP3    H1 1390   4.534   1.078   0.562
  479TIP3    H2 1391   4.419   1.025   0.484
  480TIP3   OH2 1392   3.186   1.069   1.316
  480TIP3    H1 1393   3.251   0.997   1.323
  480TIP3    H2 1394   3.245   1.145   1.298
  481TIP3   OH2 1395   3.001   1.344   1.373
  481TIP3    H1 1396   3.041   1.338   1.284
  481TIP3    H2 1397   3.025   1.434   1.398
  482TIP3   OH2 1398   4.920   1.382   1.515
  482TIP3    H1 1399   4.837   1.425   1.544
  482TIP3    H2 1400   4.883   1.307   1.465
  483TIP3   OH2 1401   4.127   2.549   0.376
  483TIP3    H1 1402   4.178   2.539   0.294
  483TIP3    H2 1403   4.178   2.614   0.426
  484TIP3   OH2 1404   3.180   0.915   1.679
  484TIP3    H1 1405   3.132   0.924   1.763
  484TIP3    H2 1406   3.118   0.960   1.617
  485TIP3   OH2 1407   3.223   2.329   1.742
  485TIP3    H1 1408   3.152   2.362   1.684
  485TIP3    H2 1409   3.193   2.360   1.828
  486TIP3   OH2 1410   3.407   2.386   1.302
  486TIP3    H1 1411   3.356   2.463   1.272
  486TIP3    H2 1412   3.491   2.404   1.255
  487TIP3   OH2 1413   3.847   2.628   1.443
  487TIP3    H1 1414   3.888   2.630   1.532
  487TIP3    H2 1415   3.913   2.681   1.392
  488TIP3   OH2 1416   4.029   2.784   1.307
  488TIP3    H1 1417   4.100   2.733   1.266
  488TIP3    H2 1418   4.079   2.836   1.373
  489TIP3   OH2 1419   4.814   1.143   1.408
  489TIP3    H1 1420   4.723   1.150   1.372
  489TIP3    H2 1421   4.826   1.047   1.408
  490TIP3   OH2 1422   3.076   2.641   1.305
  490TIP3    H1 1423   2.993   2.692   1.309
  490TIP3    H2 1424   3.067   2.592   1.390
  491TIP3   OH2 1425   3.321   2.625   1.189
  491TIP3    H1 1426   3.235   2.642   1.235
  491TIP3    H2 1427   3.299   2.655   1.099
  492TIP3   OH2 1428   3.742   2.650   0.985
  492TIP3    H1 1429   3.669   2.667   0.922
  492TIP3    H2 1430   3.751   2.737   1.029
  493TIP3   OH2 1431   4.009   2.585   1.038
  493TIP3    H1 1432   3.915   2.605   1.018
  493TIP3    H2 1433   4.054   2.661   0.997
  494TIP3   OH2 1434   4.216   2.779   0.952
  494TIP3    H1 1435   4.204   2.863   0.904
  494TIP3    H2 1436   4.243   2.718   0.880
  495TIP3   OH2 1437   2.988   2.438   1.073
  495TIP3    H1 1438   3.029   2.458   1.158
  495TIP3    H2 1439   3.061   2.389   1.028
  496TIP3   OH2 1440   3.185   2.309   0.934
  496TIP3    H1 1441   3.199   2.223   0.980
  496TIP3    H2 1442   3.277   2.343   0.930
  497TIP3   OH2 1443   3.452   2.399   0.937
  497TIP3    H1 1444   3.483   2.307   0.929
  497TIP3    H2 1445   3.498   2.424   1.020
  498TIP3   OH2 1446   4.028   1.060   1.025
  498TIP3    H1 1447   3.985   0.986   1.072
  498TIP3    H2 1448   4.102   1.015   0.979
  499TIP3   OH2 1449   4.542   0.946   0.938
  499TIP3    H1 1450   4.582   1.000   0.868
  499TIP3    H2 1451   4.448   0.974   0.935
  500TIP3   OH2 1452   4.646   1.025   0.698
  500TIP3    H1 1453   4.726   0.983   0.665
  500TIP3    H2 1454   4.673   1.120   0.695
  501TIP3   OH2 1455   3.339   0.746   1.061
  501TIP3    H1 1456   3.253   0.791   1.045
  501TIP3    H2 1457   3.311   0.677   1.124
  502TIP3   OH2 1458   3.711   0.806   0.919
  502TIP3    H1 1459   3.768   0.851   0.854
  502TIP3    H2 1460   3.745   0.840   1.002
  503TIP3   OH2 1461   4.260   0.949   0.904
  503TIP3    H1 1462   4.261   0.919   0.812
  503TIP3    H2 1463   4.246   0.865   0.954
  504TIP3   OH2 1464   4.299   0.905   0.554
  504TIP3    H1 1465   4.241   0.935   0.482
  504TIP3    H2 1466   4.257   0.820   0.577
  505TIP3   OH2 1467   2.773   2.211   0.476
  505TIP3    H1 1468   2.697   2.174   0.428
  505TIP3    H2 1469   2.760   2.305   0.456
  506TIP3   OH2 1470   3.710   0.969   0.554
  506TIP3    H1 1471   3.781   0.945   0.615
  506TIP3    H2 1472   3.715   1.067   0.565
  507TIP3   OH2 1473   3.541   2.406   0.040
  507TIP3    H1 1474   3.633   2.424   0.010
  507TIP3    H2 1475   3.526   2.324  -0.013
  508TIP3   OH2 1476   4.273   2.514   0.143
  508TIP3    H1 1477   4.270   2.416   0.132
  508TIP3    H2 1478   4.220   2.542   0.066
  509TIP3   OH2 1479   3.481   1.048   1.931
  509TIP3    H1 1480   3.445   0.977   1.986
  509TIP3    H2 1481   3.575   1.047   1.957
  510TIP3   OH2 1482   3.731   1.044   2.048
  510TIP3    H1 1483   3.817   1.022   2.008
  510TIP3    H2 1484   3.722   0.972   2.113
  511TIP3   OH2 1485   2.837   2.214   0.164
  511TIP3    H1 1486   2.859   2.277   0.234
  511TIP3    H2 1487   2.918   2.210   0.113
  512TIP3   OH2 1488   4.557   1.103   1.834
  512TIP3    H1 1489   4.576   1.075   1.926
  512TIP3    H2 1490   4.647   1.103   1.795
  513TIP3   OH2 1491   4.506   2.663   1.301
  513TIP3    H1 1492   4.419   2.638   1.263
  513TIP3    H2 1493   4.480   2.731   1.365
  514TIP3   OH2 1494   5.772   2.000   0.097
  514TIP3    H1 1495   5.754   2.094   0.077
  514TIP3    H2 1496   5.691   1.961   0.062
  515TIP3   OH2 1497   5.755   2.031   0.483
  515TIP3    H1 1498   5.791   2.009   0.571
  515TIP3    H2 1499   5.723   1.945   0.453
  516TIP3   OH2 1500   5.058   1.924   0.841
  516TIP3    H1 1501   5.085   1.854   0.904
  516TIP3    H2 1502   5.140   1.975   0.835
  517TIP3   OH2 1503   6.021   2.328   0.164
  517TIP3    H1 1504   5.996   2.262   0.230
  517TIP3    H2 1505   6.041   2.406   0.219
  518TIP3   OH2 1506   5.034   2.337   0.557
  518TIP3    H1 1507   5.023   2.240   0.561
  518TIP3    H2 1508   5.130   2.344   0.562
  519TIP3   OH2 1509   4.731   1.536   0.347
  519TIP3    H1 1510   4.672   1.613   0.361
  519TIP3    H2 1511   4.671   1.480   0.293
  520TIP3   OH2 1512   4.797   1.828   0.526
  520TIP3    H1 1513   4.845   1.750   0.561
  520TIP3    H2 1514   4.854   1.855   0.453
  521TIP3   OH2 1515   5.620   2.794   0.191
  521TIP3    H1 1516   5.699   2.741   0.166
  521TIP3    H2 1517   5.616   2.781   0.286
  522TIP3   OH2 1518   5.560   2.262   0.525
  522TIP3    H1 1519   5.597   2.181   0.485
  522TIP3    H2 1520   5.644   2.305   0.550
  523TIP3   OH2 1521   5.957   1.769   0.582
  523TIP3    H1 1522   5.985   1.676   0.594
  523TIP3    H2 1523   5.934   1.770   0.489
  524TIP3   OH2 1524   5.282   1.410   0.523
  524TIP3    H1 1525   5.268   1.476   0.453
  524TIP3    H2 1526   5.273   1.326   0.476
  525TIP3   OH2 1527   4.942   1.622   0.630
  525TIP3    H1 1528   5.026   1.608   0.679
  525TIP3    H2 1529   4.959   1.566   0.551
  526TIP3   OH2 1530   5.386   1.816   0.425
  526TIP3    H1 1531   5.482   1.798   0.435
  526TIP3    H2 1532   5.353   1.728   0.398
  527TIP3   OH2 1533   6.614   1.789   0.712
  527TIP3    H1 1534   6.531   1.834   0.684
  527TIP3    H2 1535   6.642   1.844   0.787
  528TIP3   OH2 1536   5.299   1.414   0.963
  528TIP3    H1 1537   5.241   1.456   0.897
  528TIP3    H2 1538   5.250   1.433   1.046
  529TIP3   OH2 1539   5.662   2.229  -0.018
  529TIP3    H1 1540   5.625   2.223  -0.107
  529TIP3    H2 1541   5.638   2.318   0.011
  530TIP3   OH2 1542   5.413   2.178   0.744
  530TIP3    H1 1543   5.354   2.246   0.782
  530TIP3    H2 1544   5.458   2.227   0.671
  531TIP3   OH2 1545   5.175   1.526   0.743
  531TIP3    H1 1546   5.242   1.594   0.766
  531TIP3    H2 1547   5.221   1.480   0.668
  532TIP3   OH2 1548   5.243   2.375   0.847
  532TIP3    H1 1549   5.216   2.463   0.815
  532TIP3    H2 1550   5.164   2.353   0.902
  533TIP3   OH2 1551   4.643   2.081   0.069
  533TIP3    H1 1552   4.588   2.079  -0.012
  533TIP3    H2 1553   4.594   2.140   0.127
  534TIP3   OH2 1554   6.070   2.578   0.325
  534TIP3    H1 1555   5.982   2.562   0.366
  534TIP3    H2 1556   6.052   2.665   0.283
  535TIP3   OH2 1557   5.834   2.657   0.097
  535TIP3    H1 1558   5.846   2.569   0.058
  535TIP3    H2 1559   5.867   2.713   0.025
  536TIP3   OH2 1560   6.300   2.486   0.671
  536TIP3    H1 1561   6.287   2.408   0.612
  536TIP3    H2 1562   6.282   2.560   0.609
  537TIP3   OH2 1563   6.493   2.128   0.524
  537TIP3    H1 1564   6.412   2.183   0.521
  537TIP3    H2 1565   6.523   2.131   0.432
  538TIP3   OH2 1566   6.161   2.013   0.810
  538TIP3    H1 1567   6.161   2.095   0.863
  538TIP3    H2 1568   6.070   2.015   0.773
  539TIP3   OH2 1569   5.173   1.961   0.319
  539TIP3    H1 1570   5.128   1.901   0.257
  539TIP3    H2 1571   5.249   1.908   0.349
  540TIP3   OH2 1572   5.311   2.377   0.453
  540TIP3    H1 1573   5.294   2.317   0.379
  540TIP3    H2 1574   5.400   2.346   0.482
  541TIP3   OH2 1575   5.305   1.936   0.668
  541TIP3    H1 1576   5.341   1.908   0.582
  541TIP3    H2 1577   5.351   2.020   0.686
  542TIP3   OH2 1578   5.830   2.570   0.448
  542TIP3    H1 1579   5.823   2.650   0.503
  542TIP3    H2 1580   5.818   2.497   0.511
  543TIP3   OH2 1581   5.445   2.495   0.992
  543TIP3    H1 1582   5.383   2.555   1.039
  543TIP3    H2 1583   5.383   2.440   0.941
  544TIP3   OH2 1584   5.201   2.049   1.094
  544TIP3    H1 1585   5.204   2.136   1.138
  544TIP3    H2 1586   5.107   2.025   1.108
  545TIP3   OH2 1587   5.512   2.534   0.054
  545TIP3    H1 1588   5.572   2.564   0.123
  545TIP3    H2 1589   5.451   2.608   0.050
  546TIP3   OH2 1590   5.239   2.667   1.085
  546TIP3    H1 1591   5.204   2.665   0.994
  546TIP3    H2 1592   5.161   2.639   1.138
  547TIP3   OH2 1593   5.032   1.792   0.145
  547TIP3    H1 1594   4.985   1.846   0.078
  547TIP3    H2 1595   4.976   1.713   0.144
  548TIP3   OH2 1596   4.820   2.191   1.025
  548TIP3    H1 1597   4.751   2.170   0.959
  548TIP3    H2 1598   4.857   2.103   1.047
  549TIP3   OH2 1599   4.673   2.385   0.652
  549TIP3    H1 1600   4.770   2.381   0.654
  549TIP3    H2 1601   4.656   2.461   0.710
  550TIP3   OH2 1602   6.541   2.837   0.717
  550TIP3    H1 1603   6.542   2.740   0.732
  550TIP3    H2 1604   6.458   2.861   0.762
  551TIP3   OH2 1605   5.640   2.622   0.849
  551TIP3    H1 1606   5.640   2.713   0.886
  551TIP3    H2 1607   5.569   2.580   0.902
  552TIP3   OH2 1608   6.426   1.966   0.986
  552TIP3    H1 1609   6.344   1.967   0.934
  552TIP3    H2 1610   6.438   1.870   0.998
  553TIP3   OH2 1611   5.023   2.374   1.011
  553TIP3    H1 1612   5.072   2.356   1.094
  553TIP3    H2 1613   4.949   2.311   1.018
  554TIP3   OH2 1614   5.408   1.212   0.821
  554TIP3    H1 1615   5.345   1.187   0.752
  554TIP3    H2 1616   5.363   1.284   0.869
  555TIP3   OH2 1617   6.210   1.756   0.923
  555TIP3    H1 1618   6.148   1.744   0.998
  555TIP3    H2 1619   6.169   1.828   0.873
  556TIP3   OH2 1620   5.354   1.715   0.819
  556TIP3    H1 1621   5.309   1.738   0.903
  556TIP3    H2 1622   5.340   1.796   0.766
  557TIP3   OH2 1623   5.226   1.599   0.329
  557TIP3    H1 1624   5.135   1.574   0.357
  557TIP3    H2 1625   5.210   1.627   0.238
  558TIP3   OH2 1626   5.906   1.966   1.155
  558TIP3    H1 1627   5.882   1.889   1.211
  558TIP3    H2 1628   6.003   1.966   1.166
  559TIP3   OH2 1629   5.171   1.741   1.028
  559TIP3    H1 1630   5.212   1.801   1.092
  559TIP3    H2 1631   5.163   1.658   1.079
  560TIP3   OH2 1632   4.756   1.262   0.644
  560TIP3    H1 1633   4.826   1.311   0.692
  560TIP3    H2 1634   4.778   1.282   0.551
  561TIP3   OH2 1635   5.885   1.974   0.735
  561TIP3    H1 1636   5.920   1.902   0.677
  561TIP3    H2 1637   5.857   1.919   0.810
  562TIP3   OH2 1638   5.543   1.477   0.438
  562TIP3    H1 1639   5.479   1.460   0.509
  562TIP3    H2 1640   5.596   1.394   0.443
  563TIP3   OH2 1641   4.987   1.483   0.398
  563TIP3    H1 1642   4.893   1.504   0.375
  563TIP3    H2 1643   4.988   1.388   0.377
  564TIP3   OH2 1644   6.230   3.185   0.829
  564TIP3    H1 1645   6.224   3.208   0.734
  564TIP3    H2 1646   6.312   3.232   0.853
  565TIP3   OH2 1647   5.186   2.297   1.233
  565TIP3    H1 1648   5.265   2.326   1.283
  565TIP3    H2 1649   5.121   2.292   1.306
  566TIP3   OH2 1650   5.649   1.745   0.489
  566TIP3    H1 1651   5.647   1.654   0.455
  566TIP3    H2 1652   5.653   1.725   0.585
  567TIP3   OH2 1653   5.626   1.673   0.751
  567TIP3    H1 1654   5.537   1.685   0.791
  567TIP3    H2 1655   5.685   1.708   0.820
  568TIP3   OH2 1656   5.308   2.096  -0.123
  568TIP3    H1 1657   5.303   1.999  -0.124
  568TIP3    H2 1658   5.329   2.114  -0.029
  569TIP3   OH2 1659   6.255   2.271   0.508
  569TIP3    H1 1660   6.288   2.309   0.423
  569TIP3    H2 1661   6.170   2.230   0.481
  570TIP3   OH2 1662   5.760   2.355   0.869
  570TIP3    H1 1663   5.790   2.328   0.957
  570TIP3    H2 1664   5.724   2.444   0.884
  571TIP3   OH2 1665   5.056   2.062   0.550
  571TIP3    H1 1666   5.093   2.029   0.466
  571TIP3    H2 1667   5.098   2.003   0.615
  572TIP3   OH2 1668   4.937   1.979   1.163
  572TIP3    H1 1669   4.954   1.964   1.258
  572TIP3    H2 1670   4.868   1.912   1.145
  573TIP3   OH2 1671   5.663   2.095   1.182
  573TIP3    H1 1672   5.605   2.035   1.134
  573TIP3    H2 1673   5.751   2.057   1.158
  574TIP3   OH2 1674   5.920   2.619   0.769
  574TIP3    H1 1675   5.824   2.612   0.782
  574TIP3    H2 1676   5.946   2.671   0.848
  575TIP3   OH2 1677   6.551   2.549   0.755
  575TIP3    H1 1678   6.453   2.541   0.749
  575TIP3    H2 1679   6.576   2.513   0.666
  576TIP3   OH2 1680   6.016   2.146   0.428
  576TIP3    H1 1681   5.923   2.120   0.435
  576TIP3    H2 1682   6.057   2.059   0.408
  577TIP3   OH2 1683   5.142   2.356   0.173
  577TIP3    H1 1684   5.139   2.430   0.111
  577TIP3    H2 1685   5.083   2.384   0.243
  578TIP3   OH2 1686   4.704   1.674  -0.132
  578TIP3    H1 1687   4.765   1.740  -0.096
  578TIP3    H2 1688   4.638   1.667  -0.061
  579TIP3   OH2 1689   5.306   2.135   0.145
  579TIP3    H1 1690   5.248   2.214   0.151
  579TIP3    H2 1691   5.266   2.077   0.212
  580TIP3   OH2 1692   5.427   2.706   0.642
  580TIP3    H1 1693   5.472   2.777   0.592
  580TIP3    H2 1694   5.502   2.665   0.689
  581TIP3   OH2 1695   5.058   2.607   0.039
  581TIP3    H1 1696   5.003   2.639   0.111
  581TIP3    H2 1697   5.111   2.687   0.022
  582TIP3   OH2 1698   5.812   2.338   0.602
  582TIP3    H1 1699   5.802   2.335   0.700
  582TIP3    H2 1700   5.890   2.282   0.589
  583TIP3   OH2 1701   6.062   2.871   0.653
  583TIP3    H1 1702   5.982   2.815   0.646
  583TIP3    H2 1703   6.045   2.937   0.582
  584TIP3   OH2 1704   5.141   1.486   1.175
  584TIP3    H1 1705   5.045   1.489   1.191
  584TIP3    H2 1706   5.173   1.432   1.249
  585TIP3   OH2 1707   4.868   2.564   0.799
  585TIP3    H1 1708   4.919   2.494   0.841
  585TIP3    H2 1709   4.879   2.637   0.861
  586TIP3   OH2 1710   5.088   2.235  -0.177
  586TIP3    H1 1711   5.154   2.175  -0.137
  586TIP3    H2 1712   5.143   2.267  -0.251
  587TIP3   OH2 1713   4.850   1.905  -0.031
  587TIP3    H1 1714   4.789   1.972   0.003
  587TIP3    H2 1715   4.873   1.936  -0.121
  588TIP3   OH2 1716   5.971   1.590   0.871
  588TIP3    H1 1717   6.068   1.588   0.877
  588TIP3    H2 1718   5.954   1.494   0.878
  589TIP3   OH2 1719   5.816   1.800   0.929
  589TIP3    H1 1720   5.852   1.829   1.013
  589TIP3    H2 1721   5.872   1.720   0.910
  590TIP3   OH2 1722   6.468   1.687   0.939
  590TIP3    H1 1723   6.370   1.686   0.943
  590TIP3    H2 1724   6.482   1.694   0.843
  591TIP3   OH2 1725   6.114   1.897   0.362
  591TIP3    H1 1726   6.104   1.853   0.276
  591TIP3    H2 1727   6.175   1.839   0.410
  592TIP3   OH2 1728   4.824   2.194  -0.206
  592TIP3    H1 1729   4.922   2.204  -0.221
  592TIP3    H2 1730   4.820   2.104  -0.248
  593TIP3   OH2 1731   6.070   2.853   0.260
  593TIP3    H1 1732   6.049   2.835   0.166
  593TIP3    H2 1733   6.167   2.867   0.253
  594TIP3   OH2 1734   5.120   1.121   0.786
  594TIP3    H1 1735   5.057   1.064   0.742
  594TIP3    H2 1736   5.152   1.062   0.858
  595TIP3   OH2 1737   4.852   2.874   1.219
  595TIP3    H1 1738   4.937   2.869   1.266
  595TIP3    H2 1739   4.824   2.781   1.221
  596TIP3   OH2 1740   5.368   2.836   1.266
  596TIP3    H1 1741   5.450   2.783   1.262
  596TIP3    H2 1742   5.315   2.789   1.199
  597TIP3   OH2 1743   5.961   2.757   1.012
  597TIP3    H1 1744   5.957   2.683   1.077
  597TIP3    H2 1745   6.045   2.800   1.035
  598TIP3   OH2 1746   4.986   2.284   1.425
  598TIP3    H1 1747   4.999   2.188   1.435
  598TIP3    H2 1748   4.898   2.287   1.381
  599TIP3   OH2 1749   5.590   2.368   1.199
  599TIP3    H1 1750   5.551   2.384   1.111
  599TIP3    H2 1751   5.622   2.275   1.190
  600TIP3   OH2 1752   6.083   2.381   0.810
  600TIP3    H1 1753   6.162   2.420   0.766
  600TIP3    H2 1754   6.015   2.448   0.789
  601TIP3   OH2 1755   5.107   2.020   1.408
  601TIP3    H1 1756   5.181   1.965   1.383
  601TIP3    H2 1757   5.135   2.052   1.496
  602TIP3   OH2 1758   5.434   1.901   1.069
  602TIP3    H1 1759   5.359   1.964   1.066
  602TIP3    H2 1760   5.491   1.936   0.997
  603TIP3   OH2 1761   5.962   2.305   1.203
  603TIP3    H1 1762   6.034   2.269   1.150
  603TIP3    H2 1763   5.951   2.235   1.271
  604TIP3   OH2 1764   5.557   1.693   1.198
  604TIP3    H1 1765   5.565   1.615   1.137
  604TIP3    H2 1766   5.516   1.758   1.137
  605TIP3   OH2 1767   5.561   1.504   0.999
  605TIP3    H1 1768   5.599   1.503   0.910
  605TIP3    H2 1769   5.474   1.462   0.985
  606TIP3   OH2 1770   5.586   2.016   0.886
  606TIP3    H1 1771   5.672   2.012   0.843
  606TIP3    H2 1772   5.536   2.078   0.829
  607TIP3   OH2 1773   6.176   1.980   1.262
  607TIP3    H1 1774   6.204   1.887   1.255
  607TIP3    H2 1775   6.248   2.026   1.217
  608TIP3   OH2 1776   6.211   2.238   1.000
  608TIP3    H1 1777   6.154   2.291   0.939
  608TIP3    H2 1778   6.299   2.254   0.959
  609TIP3   OH2 1779   5.440   1.799   1.430
  609TIP3    H1 1780   5.373   1.729   1.444
  609TIP3    H2 1781   5.475   1.774   1.341
  610TIP3   OH2 1782   5.667   1.237   1.107
  610TIP3    H1 1783   5.687   1.305   1.041
  610TIP3    H2 1784   5.601   1.182   1.062
  611TIP3   OH2 1785   5.816   1.746   1.286
  611TIP3    H1 1786   5.802   1.726   1.381
  611TIP3    H2 1787   5.728   1.719   1.251
  612TIP3   OH2 1788   6.072   1.720   1.153
  612TIP3    H1 1789   5.991   1.691   1.200
  612TIP3    H2 1790   6.142   1.669   1.199
  613TIP3   OH2 1791   6.303   1.645   1.292
  613TIP3    H1 1792   6.314   1.548   1.304
  613TIP3    H2 1793   6.296   1.676   1.385
  614TIP3   OH2 1794   5.279   1.578   1.482
  614TIP3    H1 1795   5.289   1.488   1.447
  614TIP3    H2 1796   5.319   1.567   1.571
  615TIP3   OH2 1797   5.781   1.250   1.349
  615TIP3    H1 1798   5.858   1.193   1.331
  615TIP3    H2 1799   5.740   1.250   1.259
  616TIP3   OH2 1800   5.860   1.467   1.492
  616TIP3    H1 1801   5.841   1.393   1.430
  616TIP3    H2 1802   5.781   1.523   1.481
  617TIP3   OH2 1803   4.548   2.087  -0.191
  617TIP3    H1 1804   4.635   2.124  -0.212
  617TIP3    H2 1805   4.546   2.012  -0.253
  618TIP3   OH2 1806   4.477   2.685   0.210
  618TIP3    H1 1807   4.406   2.624   0.180
  618TIP3    H2 1808   4.518   2.630   0.282
  619TIP3   OH2 1809   4.606   2.548   0.408
  619TIP3    H1 1810   4.592   2.470   0.464
  619TIP3    H2 1811   4.664   2.600   0.467
  620TIP3   OH2 1812   6.336   2.910   0.234
  620TIP3    H1 1813   6.358   2.944   0.323
  620TIP3    H2 1814   6.366   2.983   0.178
  621TIP3   OH2 1815   6.354   2.954   0.507
  621TIP3    H1 1816   6.320   2.862   0.511
  621TIP3    H2 1817   6.439   2.944   0.551
  622TIP3   OH2 1818   6.411   2.635   1.060
  622TIP3    H1 1819   6.340   2.645   1.126
  622TIP3    H2 1820   6.454   2.723   1.064
  623TIP3   OH2 1821   6.423   2.368   0.313
  623TIP3    H1 1822   6.440   2.315   0.234
  623TIP3    H2 1823   6.423   2.459   0.276
  624TIP3   OH2 1824   6.237   2.703   0.511
  624TIP3    H1 1825   6.166   2.747   0.561
  624TIP3    H2 1826   6.188   2.658   0.439
  625TIP3   OH2 1827   4.794   1.946   0.777
  625TIP3    H1 1828   4.792   1.913   0.685
  625TIP3    H2 1829   4.891   1.947   0.794
  626TIP3   OH2 1830   6.453   2.303   0.887
  626TIP3    H1 1831   6.526   2.237   0.878
  626TIP3    H2 1832   6.478   2.369   0.820
  627TIP3   OH2 1833   6.642   2.113   0.911
  627TIP3    H1 1834   6.563   2.061   0.940
  627TIP3    H2 1835   6.710   2.044   0.922
  628TIP3   OH2 1836   6.383   1.918   0.663
  628TIP3    H1 1837   6.299   1.951   0.700
  628TIP3    H2 1838   6.416   1.995   0.612
  629TIP3   OH2 1839   5.014   1.633   1.448
  629TIP3    H1 1840   5.112   1.626   1.454
  629TIP3    H2 1841   4.990   1.546   1.486
  630TIP3   OH2 1842   6.860   1.512   1.209
  630TIP3    H1 1843   6.919   1.458   1.154
  630TIP3    H2 1844   6.807   1.559   1.140
  631TIP3   OH2 1845   4.968   1.350   0.793
  631TIP3    H1 1846   5.027   1.272   0.801
  631TIP3    H2 1847   5.033   1.421   0.779
  632TIP3   OH2 1848   4.773   1.597   0.854
  632TIP3    H1 1849   4.824   1.595   0.771
  632TIP3    H2 1850   4.801   1.680   0.893
  633TIP3   OH2 1851   6.715   1.636   1.025
  633TIP3    H1 1852   6.618   1.655   1.024
  633TIP3    H2 1853   6.725   1.597   0.936
  634TIP3   OH2 1854   4.799   1.188   0.376
  634TIP3    H1 1855   4.710   1.160   0.400
  634TIP3    H2 1856   4.803   1.157   0.284
  635TIP3   OH2 1857   4.965   1.157   1.166
  635TIP3    H1 1858   4.923   1.178   1.251
  635TIP3    H2 1859   4.910   1.212   1.105
  636TIP3   OH2 1860   5.024   2.611   1.253
  636TIP3    H1 1861   4.932   2.589   1.227
  636TIP3    H2 1862   5.024   2.582   1.345
  637TIP3   OH2 1863   5.203   2.646   0.796
  637TIP3    H1 1864   5.152   2.719   0.756
  637TIP3    H2 1865   5.288   2.661   0.751
  638TIP3   OH2 1866   5.647   2.888   0.943
  638TIP3    H1 1867   5.694   2.890   1.028
  638TIP3    H2 1868   5.711   2.935   0.885
  639TIP3   OH2 1869   5.820   3.039   0.793
  639TIP3    H1 1870   5.888   2.990   0.747
  639TIP3    H2 1871   5.874   3.095   0.853
  640TIP3   OH2 1872   4.874   2.900   0.817
  640TIP3    H1 1873   4.785   2.933   0.793
  640TIP3    H2 1874   4.883   2.935   0.906
  641TIP3   OH2 1875   5.112   2.878   0.677
  641TIP3    H1 1876   5.024   2.890   0.721
  641TIP3    H2 1877   5.092   2.910   0.587
  642TIP3   OH2 1878   5.539   2.905   0.466
  642TIP3    H1 1879   5.462   2.926   0.409
  642TIP3    H2 1880   5.551   2.990   0.514
  643TIP3   OH2 1881   5.807   2.843   0.529
  643TIP3    H1 1882   5.714   2.864   0.506
  643TIP3    H2 1883   5.855   2.916   0.487
  644TIP3   OH2 1884   5.997   3.038   0.443
  644TIP3    H1 1885   5.991   3.122   0.393
  644TIP3    H2 1886   6.025   2.975   0.372
  645TIP3   OH2 1887   4.793   2.692   0.557
  645TIP3    H1 1888   4.818   2.662   0.647
  645TIP3    H2 1889   4.861   2.644   0.505
  646TIP3   OH2 1890   4.984   2.560   0.411
  646TIP3    H1 1891   4.995   2.479   0.467
  646TIP3    H2 1892   5.075   2.598   0.415
  647TIP3   OH2 1893   5.252   2.655   0.423
  647TIP3    H1 1894   5.282   2.562   0.417
  647TIP3    H2 1895   5.295   2.680   0.507
  648TIP3   OH2 1896   4.621   2.434  -0.060
  648TIP3    H1 1897   4.529   2.402  -0.071
  648TIP3    H2 1898   4.598   2.527  -0.040
  649TIP3   OH2 1899   5.277   1.300   1.411
  649TIP3    H1 1900   5.244   1.232   1.472
  649TIP3    H2 1901   5.372   1.301   1.436
  650TIP3   OH2 1902   5.528   1.304   1.530
  650TIP3    H1 1903   5.611   1.282   1.484
  650TIP3    H2 1904   5.523   1.234   1.598
  651TIP3   OH2 1905   6.352   1.381   1.334
  651TIP3    H1 1906   6.367   1.338   1.421
  651TIP3    H2 1907   6.439   1.371   1.291
  652TIP3   OH2 1908   6.290   2.915   0.817
  652TIP3    H1 1909   6.213   2.887   0.763
  652TIP3    H2 1910   6.273   3.011   0.825
  653TIP3   OH2 1911   6.794   2.223   0.351
  653TIP3    H1 1912   6.848   2.152   0.385
  653TIP3    H2 1913   6.852   2.267   0.287
  654TIP3   OH2 1914   6.942   2.577   0.285
  654TIP3    H1 1915   6.943   2.674   0.278
  654TIP3    H2 1916   6.889   2.568   0.366
  655TIP3   OH2 1917   6.978   2.328   0.580
  655TIP3    H1 1918   6.980   2.412   0.630
  655TIP3    H2 1919   6.886   2.299   0.599
  656TIP3   OH2 1920   7.054   2.926   0.589
  656TIP3    H1 1921   7.030   2.898   0.499
  656TIP3    H2 1922   6.969   2.904   0.636
  657TIP3   OH2 1923   6.611   2.445   0.512
  657TIP3    H1 1924   6.550   2.417   0.441
  657TIP3    H2 1925   6.657   2.361   0.531
  658TIP3   OH2 1926   6.455   2.613   0.203
  658TIP3    H1 1927   6.549   2.633   0.189
  658TIP3    H2 1928   6.420   2.701   0.222
  659TIP3   OH2 1929   6.802   2.641   0.514
  659TIP3    H1 1930   6.860   2.626   0.592
  659TIP3    H2 1931   6.734   2.572   0.524
  660TIP3   OH2 1932   6.982   2.563   0.727
  660TIP3    H1 1933   7.070   2.552   0.767
  660TIP3    H2 1934   6.924   2.559   0.806
  661TIP3   OH2 1935   6.725   2.239   0.656
  661TIP3    H1 1936   6.738   2.221   0.751
  661TIP3    H2 1937   6.656   2.174   0.632
  662TIP3   OH2 1938   6.667   2.809   0.281
  662TIP3    H1 1939   6.701   2.766   0.361
  662TIP3    H2 1940   6.661   2.902   0.308
  663TIP3   OH2 1941   6.649   3.135   0.716
  663TIP3    H1 1942   6.734   3.137   0.765
  663TIP3    H2 1943   6.633   3.039   0.711
  664TIP3   OH2 1944   7.122   3.113   0.781
  664TIP3    H1 1945   7.187   3.077   0.843
  664TIP3    H2 1946   7.098   3.038   0.723
  665TIP3   OH2 1947   6.777   2.544   0.917
  665TIP3    H1 1948   6.798   2.448   0.915
  665TIP3    H2 1949   6.692   2.545   0.869
  666TIP3   OH2 1950   6.901   2.294   0.888
  666TIP3    H1 1951   6.910   2.199   0.903
  666TIP3    H2 1952   6.937   2.327   0.973
  667TIP3   OH2 1953   6.776   1.879   0.915
  667TIP3    H1 1954   6.871   1.868   0.895
  667TIP3    H2 1955   6.759   1.799   0.968
  668TIP3   OH2 1956   6.825   2.871   0.739
  668TIP3    H1 1957   6.738   2.842   0.707
  668TIP3    H2 1958   6.818   2.850   0.833
  669TIP3   OH2 1959   6.987   2.854   0.306
  669TIP3    H1 1960   6.903   2.892   0.275
  669TIP3    H2 1961   7.040   2.856   0.223
  670TIP3   OH2 1962   6.685   3.095   0.344
  670TIP3    H1 1963   6.634   3.146   0.279
  670TIP3    H2 1964   6.690   3.162   0.414
  671TIP3   OH2 1965  -0.120   3.857   1.338
  671TIP3    H1 1966  -0.060   3.781   1.345
  671TIP3    H2 1967  -0.187   3.828   1.403
  672TIP3   OH2 1968   0.848   2.699   1.677
  672TIP3    H1 1969   0.897   2.745   1.747
  672TIP3    H2 1970   0.879   2.746   1.598
  673TIP3   OH2 1971   0.923   2.858   1.898
  673TIP3    H1 1972   0.841   2.893   1.857
  673TIP3    H2 1973   0.909   2.887   1.989
  674TIP3   OH2 1974   0.332   3.630   1.519
  674TIP3    H1 1975   0.240   3.613   1.545
  674TIP3    H2 1976   0.323   3.712   1.466
  675TIP3   OH2 1977   0.550   3.534   1.850
  675TIP3    H1 1978   0.542   3.459   1.787
  675TIP3    H2 1979   0.532   3.611   1.791
  676TIP3   OH2 1980   0.745   3.173   1.703
  676TIP3    H1 1981   0.660   3.222   1.707
  676TIP3    H2 1982   0.770   3.191   1.610
  677TIP3   OH2 1983   0.460   3.056   2.000
  677TIP3    H1 1984   0.445   3.141   2.047
  677TIP3    H2 1985   0.371   3.044   1.959
  678TIP3   OH2 1986   0.075   3.608   1.610
  678TIP3    H1 1987   0.068   3.691   1.661
  678TIP3    H2 1988   0.072   3.539   1.680
  679TIP3   OH2 1989  -0.306   3.532   2.167
  679TIP3    H1 1990  -0.361   3.592   2.219
  679TIP3    H2 1991  -0.371   3.499   2.102
  680TIP3   OH2 1992   0.788   3.881   1.897
  680TIP3    H1 1993   0.784   3.785   1.907
  680TIP3    H2 1994   0.703   3.907   1.939
  681TIP3   OH2 1995  -0.096   3.658   2.036
  681TIP3    H1 1996  -0.100   3.751   2.068
  681TIP3    H2 1997  -0.175   3.620   2.081
  682TIP3   OH2 1998   0.676   3.004   2.167
  682TIP3    H1 1999   0.599   3.027   2.110
  682TIP3    H2 2000   0.664   2.909   2.175
  683TIP3   OH2 2001   0.466   2.790   2.099
  683TIP3    H1 2002   0.403   2.783   2.174
  683TIP3    H2 2003   0.433   2.869   2.053
  684TIP3   OH2 2004   0.157   3.008   2.334
  684TIP3    H1 2005   0.139   2.928   2.388
  684TIP3    H2 2006   0.253   3.018   2.350
  685TIP3   OH2 2007   0.205   3.007   1.917
  685TIP3    H1 2008   0.140   3.019   1.845
  685TIP3    H2 2009   0.150   2.960   1.984
  686TIP3   OH2 2010   0.480   4.229   1.991
  686TIP3    H1 2011   0.477   4.252   1.897
  686TIP3    H2 2012   0.561   4.276   2.020
  687TIP3   OH2 2013  -0.556   3.328   2.450
  687TIP3    H1 2014  -0.474   3.375   2.476
  687TIP3    H2 2015  -0.590   3.307   2.537
  688TIP3   OH2 2016   0.518   3.324   1.678
  688TIP3    H1 2017   0.551   3.375   1.600
  688TIP3    H2 2018   0.426   3.308   1.654
  689TIP3   OH2 2019  -0.000   3.398   2.045
  689TIP3    H1 2020   0.048   3.386   2.128
  689TIP3    H2 2021  -0.025   3.492   2.049
  690TIP3   OH2 2022  -0.084   3.134   2.361
  690TIP3    H1 2023  -0.128   3.097   2.283
  690TIP3    H2 2024   0.008   3.102   2.346
  691TIP3   OH2 2025   0.173   3.658   1.948
  691TIP3    H1 2026   0.077   3.660   1.960
  691TIP3    H2 2027   0.201   3.712   2.025
  692TIP3   OH2 2028   0.800   3.589   1.934
  692TIP3    H1 2029   0.703   3.585   1.926
  692TIP3    H2 2030   0.826   3.559   1.844
  693TIP3   OH2 2031  -0.295   3.777   1.857
  693TIP3    H1 2032  -0.268   3.841   1.788
  693TIP3    H2 2033  -0.209   3.739   1.883
  694TIP3   OH2 2034   0.095   3.393   1.784
  694TIP3    H1 2035   0.066   3.400   1.877
  694TIP3    H2 2036   0.132   3.304   1.783
  695TIP3   OH2 2037   0.308   3.919   1.829
  695TIP3    H1 2038   0.229   3.862   1.819
  695TIP3    H2 2039   0.295   3.983   1.756
  696TIP3   OH2 2040   0.069   2.862   2.117
  696TIP3    H1 2041   0.105   2.918   2.188
  696TIP3    H2 2042   0.083   2.772   2.153
  697TIP3   OH2 2043   0.720   2.711   2.070
  697TIP3    H1 2044   0.623   2.721   2.083
  697TIP3    H2 2045   0.727   2.736   1.977
  698TIP3   OH2 2046   0.329   3.890   1.422
  698TIP3    H1 2047   0.284   3.932   1.345
  698TIP3    H2 2048   0.423   3.913   1.401
  699TIP3   OH2 2049  -0.386   3.904   2.426
  699TIP3    H1 2050  -0.306   3.854   2.446
  699TIP3    H2 2051  -0.427   3.853   2.356
  700TIP3   OH2 2052   0.221   3.794   2.184
  700TIP3    H1 2053   0.215   3.723   2.253
  700TIP3    H2 2054   0.299   3.844   2.213
  701TIP3   OH2 2055  -0.158   3.415   2.375
  701TIP3    H1 2056  -0.198   3.435   2.288
  701TIP3    H2 2057  -0.126   3.324   2.364
  702TIP3   OH2 2058   0.334   3.427   1.985
  702TIP3    H1 2059   0.413   3.468   1.943
  702TIP3    H2 2060   0.266   3.493   1.960
  703TIP3   OH2 2061   0.203   3.346   2.379
  703TIP3    H1 2062   0.282   3.320   2.330
  703TIP3    H2 2063   0.202   3.282   2.452
  704TIP3   OH2 2064   0.423   3.032   2.438
  704TIP3    H1 2065   0.451   2.940   2.425
  704TIP3    H2 2066   0.495   3.082   2.398
  705TIP3   OH2 2067   0.463   3.285   2.174
  705TIP3    H1 2068   0.404   3.338   2.114
  705TIP3    H2 2069   0.550   3.306   2.135
  706TIP3   OH2 2070  -0.298   2.830   2.586
  706TIP3    H1 2071  -0.375   2.840   2.645
  706TIP3    H2 2072  -0.339   2.832   2.499
  707TIP3   OH2 2073   0.062   2.774   2.466
  707TIP3    H1 2074   0.104   2.770   2.553
  707TIP3    H2 2075  -0.032   2.771   2.492
  708TIP3   OH2 2076   0.329   2.775   2.337
  708TIP3    H1 2077   0.249   2.737   2.376
  708TIP3    H2 2078   0.399   2.716   2.369
  709TIP3   OH2 2079   0.559   2.679   2.469
  709TIP3    H1 2080   0.561   2.582   2.484
  709TIP3    H2 2081   0.545   2.714   2.560
  710TIP3   OH2 2082   0.099   2.497   2.662
  710TIP3    H1 2083   0.062   2.424   2.610
  710TIP3    H2 2084   0.025   2.561   2.664
  711TIP3   OH2 2085   0.582   3.982   1.384
  711TIP3    H1 2086   0.616   4.021   1.466
  711TIP3    H2 2087   0.643   4.019   1.317
  712TIP3   OH2 2088   0.611   4.008   1.668
  712TIP3    H1 2089   0.570   3.919   1.663
  712TIP3    H2 2090   0.694   3.985   1.711
  713TIP3   OH2 2091   0.661   3.677   2.240
  713TIP3    H1 2092   0.588   3.689   2.304
  713TIP3    H2 2093   0.703   3.766   2.241
  714TIP3   OH2 2094   0.654   3.449   1.483
  714TIP3    H1 2095   0.715   3.387   1.439
  714TIP3    H2 2096   0.659   3.528   1.424
  715TIP3   OH2 2097   0.495   3.756   1.696
  715TIP3    H1 2098   0.421   3.801   1.742
  715TIP3    H2 2099   0.448   3.710   1.623
  716TIP3   OH2 2100   0.707   3.342   2.064
  716TIP3    H1 2101   0.778   3.276   2.050
  716TIP3    H2 2102   0.731   3.411   2.000
  717TIP3   OH2 2103   0.891   3.141   2.073
  717TIP3    H1 2104   0.816   3.091   2.112
  717TIP3    H2 2105   0.966   3.090   2.108
  718TIP3   OH2 2106   0.558   2.830   1.606
  718TIP3    H1 2107   0.631   2.856   1.546
  718TIP3    H2 2108   0.599   2.850   1.692
  719TIP3   OH2 2109   0.669   2.945   1.839
  719TIP3    H1 2110   0.593   2.984   1.887
  719TIP3    H2 2111   0.696   3.022   1.784
  720TIP3   OH2 2112   1.102   2.551   2.382
  720TIP3    H1 2113   1.159   2.480   2.344
  720TIP3    H2 2114   1.066   2.592   2.301
  721TIP3   OH2 2115   0.974   2.687   2.178
  721TIP3    H1 2116   0.883   2.713   2.203
  721TIP3    H2 2117   0.956   2.653   2.089
  722TIP3   OH2 2118   0.219   3.887   0.989
  722TIP3    H1 2119   0.281   3.813   1.010
  722TIP3    H2 2120   0.233   3.946   1.065
  723TIP3   OH2 2121  -0.504   3.645   1.969
  723TIP3    H1 2122  -0.549   3.715   2.022
  723TIP3    H2 2123  -0.427   3.698   1.938
  724TIP3   OH2 2124  -0.101   3.923   2.107
  724TIP3    H1 2125  -0.060   3.927   2.196
  724TIP3    H2 2126  -0.039   3.979   2.055
  725TIP3   OH2 2127   0.074   4.083   1.968
  725TIP3    H1 2128   0.145   4.033   1.926
  725TIP3    H2 2129   0.125   4.140   2.029
  726TIP3   OH2 2130  -0.203   3.949   1.649
  726TIP3    H1 2131  -0.252   3.971   1.567
  726TIP3    H2 2132  -0.193   4.038   1.689
  727TIP3   OH2 2133   0.061   3.878   1.701
  727TIP3    H1 2134  -0.033   3.898   1.681
  727TIP3    H2 2135   0.105   3.953   1.657
  728TIP3   OH2 2136   0.255   4.078   1.613
  728TIP3    H1 2137   0.245   4.165   1.568
  728TIP3    H2 2138   0.286   4.021   1.540
  729TIP3   OH2 2139   0.599   2.406   2.502
  729TIP3    H1 2140   0.617   2.372   2.592
  729TIP3    H2 2141   0.686   2.398   2.459
  730TIP3   OH2 2142   0.536   3.959   1.994
  730TIP3    H1 2143   0.460   3.930   1.940
  730TIP3    H2 2144   0.520   4.055   1.997
  731TIP3   OH2 2145   1.807   3.332   0.757
  731TIP3    H1 2146   1.776   3.422   0.735
  731TIP3    H2 2147   1.732   3.280   0.724
  732TIP3   OH2 2148   1.809   3.333   1.140
  732TIP3    H1 2149   1.842   3.311   1.229
  732TIP3    H2 2150   1.767   3.249   1.114
  733TIP3   OH2 2151   1.106   3.230   1.505
  733TIP3    H1 2152   1.138   3.160   1.564
  733TIP3    H2 2153   1.186   3.282   1.492
  734TIP3   OH2 2154   2.053   3.635   0.822
  734TIP3    H1 2155   2.033   3.569   0.889
  734TIP3    H2 2156   2.080   3.711   0.875
  735TIP3   OH2 2157   1.079   3.643   1.228
  735TIP3    H1 2158   1.074   3.545   1.232
  735TIP3    H2 2159   1.175   3.656   1.223
  736TIP3   OH2 2160   0.857   3.172   1.181
  736TIP3    H1 2161   0.878   3.080   1.209
  736TIP3    H2 2162   0.926   3.194   1.119
  737TIP3   OH2 2163   1.700   4.100   0.837
  737TIP3    H1 2164   1.744   4.026   0.790
  737TIP3    H2 2165   1.691   4.064   0.926
  738TIP3   OH2 2166   1.603   3.557   1.189
  738TIP3    H1 2167   1.645   3.482   1.145
  738TIP3    H2 2168   1.685   3.605   1.215
  739TIP3   OH2 2169   2.615   2.879   1.185
  739TIP3    H1 2170   2.648   2.960   1.229
  739TIP3    H2 2171   2.640   2.896   1.093
  740TIP3   OH2 2172   2.018   3.059   1.219
  740TIP3    H1 2173   2.060   2.973   1.238
  740TIP3    H2 2174   1.983   3.043   1.129
  741TIP3   OH2 2175   1.314   2.717   1.178
  741TIP3    H1 2176   1.356   2.794   1.137
  741TIP3    H2 2177   1.376   2.645   1.152
  742TIP3   OH2 2178   2.059   2.820   0.816
  742TIP3    H1 2179   2.134   2.804   0.879
  742TIP3    H2 2180   2.108   2.852   0.738
  743TIP3   OH2 2181   1.007   2.943   1.295
  743TIP3    H1 2182   1.083   2.910   1.347
  743TIP3    H2 2183   1.000   2.877   1.224
  744TIP3   OH2 2184   1.448   3.153   1.092
  744TIP3    H1 2185   1.541   3.125   1.106
  744TIP3    H2 2186   1.405   3.070   1.064
  745TIP3   OH2 2187   2.691   3.086   1.356
  745TIP3    H1 2188   2.607   3.133   1.338
  745TIP3    H2 2189   2.713   3.120   1.445
  746TIP3   OH2 2190   1.353   2.698   1.628
  746TIP3    H1 2191   1.298   2.749   1.565
  746TIP3    H2 2192   1.303   2.712   1.711
  747TIP3   OH2 2193   1.688   3.548   0.628
  747TIP3    H1 2194   1.666   3.545   0.533
  747TIP3    H2 2195   1.649   3.634   0.654
  748TIP3   OH2 2196   1.458   3.479   1.412
  748TIP3    H1 2197   1.399   3.549   1.448
  748TIP3    H2 2198   1.501   3.526   1.338
  749TIP3   OH2 2199   2.266   2.814   0.985
  749TIP3    H1 2200   2.247   2.770   1.068
  749TIP3    H2 2201   2.313   2.895   1.014
  750TIP3   OH2 2202   1.226   2.819   1.416
  750TIP3    H1 2203   1.286   2.893   1.438
  750TIP3    H2 2204   1.269   2.785   1.333
  751TIP3   OH2 2205   1.287   3.672   1.511
  751TIP3    H1 2206   1.266   3.762   1.476
  751TIP3    H2 2207   1.206   3.658   1.565
  752TIP3   OH2 2208   2.121   3.880   0.984
  752TIP3    H1 2209   2.032   3.869   1.027
  752TIP3    H2 2210   2.110   3.967   0.941
  753TIP3   OH2 2211   2.411   2.774   1.349
  753TIP3    H1 2212   2.325   2.806   1.318
  753TIP3    H2 2213   2.472   2.812   1.282
  754TIP3   OH2 2214   1.720   2.431   1.333
  754TIP3    H1 2215   1.700   2.339   1.363
  754TIP3    H2 2216   1.653   2.479   1.385
  755TIP3   OH2 2217   1.818   3.923   0.659
  755TIP3    H1 2218   1.867   3.839   0.641
  755TIP3    H2 2219   1.882   3.987   0.621
  756TIP3   OH2 2220   1.960   3.707   0.572
  756TIP3    H1 2221   1.944   3.626   0.521
  756TIP3    H2 2222   1.999   3.671   0.654
  757TIP3   OH2 2223   2.345   3.789   1.331
  757TIP3    H1 2224   2.332   3.712   1.272
  757TIP3    H2 2225   2.325   3.864   1.272
  758TIP3   OH2 2226   1.635   3.178   0.588
  758TIP3    H1 2227   1.562   3.237   0.563
  758TIP3    H2 2228   1.684   3.167   0.504
  759TIP3   OH2 2229   2.540   3.428   1.176
  759TIP3    H1 2230   2.456   3.479   1.181
  759TIP3    H2 2231   2.571   3.454   1.087
  760TIP3   OH2 2232   1.991   3.272   0.564
  760TIP3    H1 2233   1.935   3.294   0.643
  760TIP3    H2 2234   2.075   3.246   0.608
  761TIP3   OH2 2235   2.219   3.304   1.476
  761TIP3    H1 2236   2.217   3.387   1.528
  761TIP3    H2 2237   2.133   3.310   1.430
  762TIP3   OH2 2238   1.217   3.264   0.988
  762TIP3    H1 2239   1.198   3.202   0.917
  762TIP3    H2 2240   1.303   3.230   1.022
  763TIP3   OH2 2241   1.347   3.674   1.127
  763TIP3    H1 2242   1.330   3.639   1.039
  763TIP3    H2 2243   1.437   3.640   1.147
  764TIP3   OH2 2244   1.359   3.236   1.339
  764TIP3    H1 2245   1.395   3.219   1.249
  764TIP3    H2 2246   1.397   3.325   1.358
  765TIP3   OH2 2247   1.882   3.871   1.108
  765TIP3    H1 2248   1.862   3.955   1.152
  765TIP3    H2 2249   1.861   3.804   1.175
  766TIP3   OH2 2250   1.493   3.790   1.657
  766TIP3    H1 2251   1.432   3.852   1.702
  766TIP3    H2 2252   1.429   3.737   1.605
  767TIP3   OH2 2253   1.835   3.123   0.401
  767TIP3    H1 2254   1.894   3.177   0.459
  767TIP3    H2 2255   1.858   3.165   0.315
  768TIP3   OH2 2256   1.249   3.339   1.767
  768TIP3    H1 2257   1.255   3.431   1.801
  768TIP3    H2 2258   1.153   3.324   1.775
  769TIP3   OH2 2259   1.570   3.801   0.658
  769TIP3    H1 2260   1.652   3.852   0.673
  769TIP3    H2 2261   1.509   3.868   0.625
  770TIP3   OH2 2262   1.286   3.957   1.743
  770TIP3    H1 2263   1.254   3.964   1.651
  770TIP3    H2 2264   1.205   3.934   1.792
  771TIP3   OH2 2265   2.358   2.393   0.451
  771TIP3    H1 2266   2.282   2.423   0.505
  771TIP3    H2 2267   2.365   2.466   0.387
  772TIP3   OH2 2268   2.135   3.739  -0.024
  772TIP3    H1 2269   2.152   3.835  -0.038
  772TIP3    H2 2270   2.226   3.704  -0.028
  773TIP3   OH2 2271   0.861   3.488   1.691
  773TIP3    H1 2272   0.801   3.468   1.617
  773TIP3    H2 2273   0.902   3.402   1.710
  774TIP3   OH2 2274   0.721   3.678   1.335
  774TIP3    H1 2275   0.814   3.678   1.311
  774TIP3    H2 2276   0.714   3.763   1.382
  775TIP3   OH2 2277   2.582   4.137   1.379
  775TIP3    H1 2278   2.581   4.041   1.394
  775TIP3    H2 2279   2.499   4.163   1.425
  776TIP3   OH2 2280   1.691   3.917   1.515
  776TIP3    H1 2281   1.688   4.011   1.544
  776TIP3    H2 2282   1.618   3.879   1.570
  777TIP3   OH2 2283   1.450   4.048   0.460
  777TIP3    H1 2284   1.396   4.043   0.380
  777TIP3    H2 2285   1.422   4.133   0.499
  778TIP3   OH2 2286   0.899   3.920   0.854
  778TIP3    H1 2287   0.941   3.905   0.941
  778TIP3    H2 2288   0.848   3.837   0.843
  779TIP3   OH2 2289   1.662   3.957   0.112
  779TIP3    H1 2290   1.716   3.894   0.060
  779TIP3    H2 2291   1.704   3.953   0.200
  780TIP3   OH2 2292   1.707   4.001   0.384
  780TIP3    H1 2293   1.616   4.011   0.420
  780TIP3    H2 2294   1.753   3.960   0.459
  781TIP3   OH2 2295   2.472   3.264   1.654
  781TIP3    H1 2296   2.389   3.275   1.605
  781TIP3    H2 2297   2.489   3.168   1.644
  782TIP3   OH2 2298   1.068   3.670   1.675
  782TIP3    H1 2299   1.117   3.656   1.758
  782TIP3    H2 2300   0.993   3.609   1.684
  783TIP3   OH2 2301   1.503   2.526   1.465
  783TIP3    H1 2302   1.431   2.467   1.438
  783TIP3    H2 2303   1.458   2.587   1.527
  784TIP3   OH2 2304   2.005   2.612   1.658
  784TIP3    H1 2305   2.075   2.582   1.720
  784TIP3    H2 2306   1.922   2.592   1.706
  785TIP3   OH2 2307   2.238   3.040   1.570
  785TIP3    H1 2308   2.188   3.038   1.656
  785TIP3    H2 2309   2.218   3.129   1.537
  786TIP3   OH2 2310   1.925   3.229   0.170
  786TIP3    H1 2311   1.887   3.152   0.123
  786TIP3    H2 2312   1.995   3.257   0.108
  787TIP3   OH2 2313   1.402   3.014   1.485
  787TIP3    H1 2314   1.356   3.040   1.567
  787TIP3    H2 2315   1.391   3.096   1.432
  788TIP3   OH2 2316   1.283   2.950   1.010
  788TIP3    H1 2317   1.192   2.927   1.036
  788TIP3    H2 2318   1.297   2.887   0.938
  789TIP3   OH2 2319   1.785   2.992   0.727
  789TIP3    H1 2320   1.735   3.061   0.678
  789TIP3    H2 2321   1.838   2.951   0.656
  790TIP3   OH2 2322   1.952   3.255   1.800
  790TIP3    H1 2323   1.938   3.183   1.863
  790TIP3    H2 2324   2.042   3.283   1.825
  791TIP3   OH2 2325   1.929   3.013   0.964
  791TIP3    H1 2326   1.870   3.042   0.891
  791TIP3    H2 2327   1.968   2.935   0.919
  792TIP3   OH2 2328   1.220   3.042   1.690
  792TIP3    H1 2329   1.241   3.112   1.754
  792TIP3    H2 2330   1.206   2.964   1.747
  793TIP3   OH2 2331   1.938   3.256   1.383
  793TIP3    H1 2332   1.973   3.186   1.324
  793TIP3    H2 2333   1.908   3.201   1.458
  794TIP3   OH2 2334   1.629   2.770   1.073
  794TIP3    H1 2335   1.583   2.687   1.096
  794TIP3    H2 2336   1.710   2.759   1.125
  795TIP3   OH2 2337   2.103   2.796   1.258
  795TIP3    H1 2338   2.070   2.811   1.350
  795TIP3    H2 2339   2.036   2.734   1.225
  796TIP3   OH2 2340   2.277   4.484   1.478
  796TIP3    H1 2341   2.273   4.510   1.385
  796TIP3    H2 2342   2.356   4.533   1.509
  797TIP3   OH2 2343   1.231   3.592   1.899
  797TIP3    H1 2344   1.312   3.624   1.945
  797TIP3    H2 2345   1.167   3.597   1.972
  798TIP3   OH2 2346   1.700   3.060   1.158
  798TIP3    H1 2347   1.765   3.015   1.102
  798TIP3    H2 2348   1.704   3.007   1.240
  799TIP3   OH2 2349   1.671   2.946   1.447
  799TIP3    H1 2350   1.583   2.986   1.460
  799TIP3    H2 2351   1.730   3.009   1.493
  800TIP3   OH2 2352   1.391   3.332   0.562
  800TIP3    H1 2353   1.295   3.320   0.569
  800TIP3    H2 2354   1.407   3.373   0.650
  801TIP3   OH2 2355   2.306   3.572   1.165
  801TIP3    H1 2356   2.329   3.624   1.085
  801TIP3    H2 2357   2.221   3.529   1.139
  802TIP3   OH2 2358   1.802   3.654   1.537
  802TIP3    H1 2359   1.840   3.645   1.626
  802TIP3    H2 2360   1.767   3.745   1.538
  803TIP3   OH2 2361   1.931   2.882   0.524
  803TIP3    H1 2362   2.028   2.896   0.521
  803TIP3    H2 2363   1.899   2.945   0.456
  804TIP3   OH2 2364   1.106   3.369   1.218
  804TIP3    H1 2365   1.147   3.339   1.134
  804TIP3    H2 2366   1.132   3.299   1.279
  805TIP3   OH2 2367   1.552   3.496   0.382
  805TIP3    H1 2368   1.511   3.586   0.379
  805TIP3    H2 2369   1.494   3.449   0.445
  806TIP3   OH2 2370   0.982   3.275   1.826
  806TIP3    H1 2371   0.993   3.257   1.922
  806TIP3    H2 2372   0.908   3.216   1.804
  807TIP3   OH2 2373   1.706   3.388   1.845
  807TIP3    H1 2374   1.649   3.335   1.789
  807TIP3    H2 2375   1.796   3.360   1.822
  808TIP3   OH2 2376   1.966   3.910   1.435
  808TIP3    H1 2377   1.870   3.914   1.446
  808TIP3    H2 2378   1.995   3.964   1.511
  809TIP3   OH2 2379   2.373   2.992   0.343
  809TIP3    H1 2380   2.314   2.946   0.279
  809TIP3    H2 2381   2.369   3.081   0.302
  810TIP3   OH2 2382   2.595   3.846   1.420
  810TIP3    H1 2383   2.497   3.840   1.412
  810TIP3    H2 2384   2.621   3.816   1.330
  811TIP3   OH2 2385   2.084   3.804   0.248
  811TIP3    H1 2386   2.043   3.738   0.305
  811TIP3    H2 2387   2.084   3.760   0.161
  812TIP3   OH2 2388   2.073   3.436   1.083
  812TIP3    H1 2389   1.979   3.413   1.096
  812TIP3    H2 2390   2.105   3.355   1.038
  813TIP3   OH2 2391   1.196   3.663   0.830
  813TIP3    H1 2392   1.195   3.749   0.783
  813TIP3    H2 2393   1.105   3.657   0.860
  814TIP3   OH2 2394   1.345   3.435   0.804
  814TIP3    H1 2395   1.302   3.524   0.807
  814TIP3    H2 2396   1.301   3.391   0.878
  815TIP3   OH2 2397   1.471   4.005   1.310
  815TIP3    H1 2398   1.504   4.089   1.271
  815TIP3    H2 2399   1.550   3.972   1.355
  816TIP3   OH2 2400   1.123   3.907   0.697
  816TIP3    H1 2401   1.039   3.921   0.746
  816TIP3    H2 2402   1.156   4.000   0.697
  817TIP3   OH2 2403   1.853   3.638   1.269
  817TIP3    H1 2404   1.843   3.637   1.367
  817TIP3    H2 2405   1.937   3.590   1.258
  818TIP3   OH2 2406   1.828   3.559   0.157
  818TIP3    H1 2407   1.886   3.523   0.228
  818TIP3    H2 2408   1.747   3.510   0.173
  819TIP3   OH2 2409   2.105   4.170   1.314
  819TIP3    H1 2410   2.023   4.117   1.309
  819TIP3    H2 2411   2.090   4.236   1.242
  820TIP3   OH2 2412   2.174   4.012  -0.035
  820TIP3    H1 2413   2.228   4.083  -0.075
  820TIP3    H2 2414   2.098   4.064  -0.002
  821TIP3   OH2 2415   1.186   2.782   1.846
  821TIP3    H1 2416   1.090   2.797   1.863
  821TIP3    H2 2417   1.201   2.701   1.897
  822TIP3   OH2 2418   1.997   3.480   0.376
  822TIP3    H1 2419   1.983   3.405   0.437
  822TIP3    H2 2420   2.092   3.468   0.356
  823TIP3   OH2 2421   0.905   3.871   1.468
  823TIP3    H1 2422   0.963   3.802   1.504
  823TIP3    H2 2423   0.942   3.951   1.509
  824TIP3   OH2 2424   1.228   3.532   0.383
  824TIP3    H1 2425   1.242   3.517   0.478
  824TIP3    H2 2426   1.188   3.622   0.387
  825TIP3   OH2 2427   2.029   2.850   1.518
  825TIP3    H1 2428   2.112   2.889   1.553
  825TIP3    H2 2429   2.019   2.770   1.574
  826TIP3   OH2 2430   1.927   2.633   0.675
  826TIP3    H1 2431   1.910   2.702   0.607
  826TIP3    H2 2432   1.969   2.690   0.742
  827TIP3   OH2 2433   1.434   3.743   0.352
  827TIP3    H1 2434   1.352   3.755   0.404
  827TIP3    H2 2435   1.446   3.832   0.316
  828TIP3   OH2 2436   1.628   2.780   0.797
  828TIP3    H1 2437   1.683   2.859   0.776
  828TIP3    H2 2438   1.616   2.793   0.893
  829TIP3   OH2 2439   1.866   3.094   1.590
  829TIP3    H1 2440   1.894   3.149   1.666
  829TIP3    H2 2441   1.923   3.016   1.598
  830TIP3   OH2 2442   1.767   2.522   0.901
  830TIP3    H1 2443   1.760   2.606   0.945
  830TIP3    H2 2444   1.808   2.547   0.816
  831TIP3   OH2 2445   1.166   3.785   0.455
  831TIP3    H1 2446   1.142   3.859   0.396
  831TIP3    H2 2447   1.145   3.825   0.542
  832TIP3   OH2 2448   2.506   2.999   1.576
  832TIP3    H1 2449   2.407   2.996   1.579
  832TIP3    H2 2450   2.522   2.958   1.491
  833TIP3   OH2 2451   2.158   3.192   0.961
  833TIP3    H1 2452   2.081   3.134   0.975
  833TIP3    H2 2453   2.229   3.145   1.009
  834TIP3   OH2 2454   2.128   4.150   0.908
  834TIP3    H1 2455   2.084   4.196   0.833
  834TIP3    H2 2456   2.222   4.168   0.887
  835TIP3   OH2 2457   0.755   3.687   0.814
  835TIP3    H1 2458   0.689   3.661   0.880
  835TIP3    H2 2459   0.738   3.625   0.743
  836TIP3   OH2 2460   0.900   4.182   1.894
  836TIP3    H1 2461   0.988   4.182   1.938
  836TIP3    H2 2462   0.883   4.086   1.887
  837TIP3   OH2 2463   1.375   4.137   1.938
  837TIP3    H1 2464   1.471   4.125   1.941
  837TIP3    H2 2465   1.352   4.078   1.863
  838TIP3   OH2 2466   1.413   3.741   0.022
  838TIP3    H1 2467   1.351   3.681   0.068
  838TIP3    H2 2468   1.499   3.705   0.050
  839TIP3   OH2 2469   2.023   4.047   1.666
  839TIP3    H1 2470   2.011   3.977   1.735
  839TIP3    H2 2471   2.098   4.099   1.701
  840TIP3   OH2 2472   1.810   3.760  -0.023
  840TIP3    H1 2473   1.812   3.683   0.038
  840TIP3    H2 2474   1.902   3.761  -0.052
  841TIP3   OH2 2475   1.028   3.583   2.092
  841TIP3    H1 2476   1.044   3.486   2.091
  841TIP3    H2 2477   0.942   3.589   2.044
  842TIP3   OH2 2478   1.631   3.670   1.865
  842TIP3    H1 2479   1.595   3.694   1.777
  842TIP3    H2 2480   1.667   3.580   1.853
  843TIP3   OH2 2481   1.521   3.439   0.114
  843TIP3    H1 2482   1.533   3.472   0.206
  843TIP3    H2 2483   1.500   3.347   0.134
  844TIP3   OH2 2484   2.128   3.681   1.469
  844TIP3    H1 2485   2.205   3.723   1.427
  844TIP3    H2 2486   2.060   3.751   1.455
  845TIP3   OH2 2487   1.147   3.318   2.079
  845TIP3    H1 2488   1.227   3.283   2.040
  845TIP3    H2 2489   1.180   3.354   2.164
  846TIP3   OH2 2490   1.485   3.197   1.734
  846TIP3    H1 2491   1.409   3.258   1.736
  846TIP3    H2 2492   1.539   3.235   1.661
  847TIP3   OH2 2493   1.998   3.601   1.865
  847TIP3    H1 2494   2.082   3.579   1.823
  847TIP3    H2 2495   1.993   3.540   1.941
  848TIP3   OH2 2496   2.138   3.259  -0.027
  848TIP3    H1 2497   2.134   3.223  -0.118
  848TIP3    H2 2498   2.132   3.353  -0.044
  849TIP3   OH2 2499   1.611   2.993   1.865
  849TIP3    H1 2500   1.614   2.917   1.804
  849TIP3    H2 2501   1.570   3.061   1.807
  850TIP3   OH2 2502   1.610   2.785   1.675
  850TIP3    H1 2503   1.639   2.824   1.590
  850TIP3    H2 2504   1.518   2.760   1.655
  851TIP3   OH2 2505   1.632   3.312   1.544
  851TIP3    H1 2506   1.718   3.326   1.503
  851TIP3    H2 2507   1.576   3.378   1.498
  852TIP3   OH2 2508   2.218   3.278   1.917
  852TIP3    H1 2509   2.270   3.198   1.927
  852TIP3    H2 2510   2.283   3.343   1.886
  853TIP3   OH2 2511   2.259   3.531   1.653
  853TIP3    H1 2512   2.200   3.587   1.596
  853TIP3    H2 2513   2.346   3.555   1.614
  854TIP3   OH2 2514   1.473   3.090   2.088
  854TIP3    H1 2515   1.410   3.017   2.089
  854TIP3    H2 2516   1.514   3.080   2.001
  855TIP3   OH2 2517   1.741   2.543   1.739
  855TIP3    H1 2518   1.690   2.623   1.714
  855TIP3    H2 2519   1.676   2.473   1.721
  856TIP3   OH2 2520   1.877   3.032   1.950
  856TIP3    H1 2521   1.879   3.058   2.043
  856TIP3    H2 2522   1.782   3.027   1.927
  857TIP3   OH2 2523   2.108   2.992   1.801
  857TIP3    H1 2524   2.035   2.993   1.865
  857TIP3    H2 2525   2.185   2.966   1.857
  858TIP3   OH2 2526   2.328   2.934   1.955
  858TIP3    H1 2527   2.347   2.839   1.971
  858TIP3    H2 2528   2.329   2.972   2.046
  859TIP3   OH2 2529   1.342   2.869   2.150
  859TIP3    H1 2530   1.345   2.794   2.086
  859TIP3    H2 2531   1.294   2.827   2.221
  860TIP3   OH2 2532   1.842   2.547   1.994
  860TIP3    H1 2533   1.907   2.475   1.983
  860TIP3    H2 2534   1.800   2.545   1.905
  861TIP3   OH2 2535   1.868   2.767   2.147
  861TIP3    H1 2536   1.876   2.679   2.103
  861TIP3    H2 2537   1.832   2.817   2.072
  862TIP3   OH2 2538   1.137   3.995   0.285
  862TIP3    H1 2539   1.205   4.001   0.216
  862TIP3    H2 2540   1.052   4.008   0.238
  863TIP3   OH2 2541   0.520   3.982   0.856
  863TIP3    H1 2542   0.433   3.940   0.857
  863TIP3    H2 2543   0.566   3.932   0.928
  864TIP3   OH2 2544   0.638   3.852   1.068
  864TIP3    H1 2545   0.618   3.778   1.127
  864TIP3    H2 2546   0.702   3.903   1.122
  865TIP3   OH2 2547   2.384   4.237   0.869
  865TIP3    H1 2548   2.406   4.267   0.959
  865TIP3    H2 2549   2.447   4.287   0.815
  866TIP3   OH2 2550   2.411   4.258   1.149
  866TIP3    H1 2551   2.364   4.171   1.146
  866TIP3    H2 2552   2.483   4.234   1.209
  867TIP3   OH2 2553   2.455   3.935   1.725
  867TIP3    H1 2554   2.383   3.945   1.789
  867TIP3    H2 2555   2.498   4.023   1.728
  868TIP3   OH2 2556   2.275   3.444   0.339
  868TIP3    H1 2557   2.338   3.513   0.312
  868TIP3    H2 2558   2.318   3.409   0.420
  869TIP3   OH2 2559   2.402   3.315   0.547
  869TIP3    H1 2560   2.334   3.274   0.605
  869TIP3    H2 2561   2.465   3.353   0.611
  870TIP3   OH2 2562   2.458   3.711   0.979
  870TIP3    H1 2563   2.509   3.642   0.931
  870TIP3    H2 2564   2.450   3.782   0.912
  871TIP3   OH2 2565   2.284   4.010   1.172
  871TIP3    H1 2566   2.212   4.052   1.223
  871TIP3    H2 2567   2.234   3.964   1.101
  872TIP3   OH2 2568   2.331   3.221   0.186
  872TIP3    H1 2569   2.260   3.224   0.119
  872TIP3    H2 2570   2.305   3.297   0.243
  873TIP3   OH2 2571   2.221   2.887   0.141
  873TIP3    H1 2572   2.166   2.942   0.083
  873TIP3    H2 2573   2.188   2.799   0.118
  874TIP3   OH2 2574   2.216   3.175   0.693
  874TIP3    H1 2575   2.220   3.078   0.684
  874TIP3    H2 2576   2.200   3.187   0.789
  875TIP3   OH2 2577   0.842   3.247   1.448
  875TIP3    H1 2578   0.844   3.231   1.351
  875TIP3    H2 2579   0.939   3.253   1.466
  876TIP3   OH2 2580   2.504   3.599   1.549
  876TIP3    H1 2581   2.576   3.532   1.539
  876TIP3    H2 2582   2.530   3.667   1.486
  877TIP3   OH2 2583   2.687   3.399   1.558
  877TIP3    H1 2584   2.613   3.351   1.601
  877TIP3    H2 2585   2.760   3.336   1.576
  878TIP3   OH2 2586   2.213   2.894   0.588
  878TIP3    H1 2587   2.254   2.805   0.603
  878TIP3    H2 2588   2.270   2.927   0.517
  879TIP3   OH2 2589   2.370   3.060   1.082
  879TIP3    H1 2590   2.456   3.085   1.041
  879TIP3    H2 2591   2.385   3.099   1.171
  880TIP3   OH2 2592   2.441   3.208   1.312
  880TIP3    H1 2593   2.364   3.242   1.360
  880TIP3    H2 2594   2.475   3.289   1.267
  881TIP3   OH2 2595   1.071   2.950   2.159
  881TIP3    H1 2596   1.157   2.934   2.118
  881TIP3    H2 2597   1.040   2.859   2.178
  882TIP3   OH2 2598   2.886   2.784   1.869
  882TIP3    H1 2599   2.952   2.725   1.828
  882TIP3    H2 2600   2.864   2.844   1.795
  883TIP3   OH2 2601   2.321   2.645   0.627
  883TIP3    H1 2602   2.371   2.631   0.710
  883TIP3    H2 2603   2.256   2.572   0.633
  884TIP3   OH2 2604   1.055   2.605   1.468
  884TIP3    H1 2605   1.115   2.543   1.510
  884TIP3    H2 2606   1.110   2.683   1.451
  885TIP3   OH2 2607   0.836   2.939   1.512
  885TIP3    H1 2608   0.877   2.926   1.424
  885TIP3    H2 2609   0.846   3.034   1.521
  886TIP3   OH2 2610   2.762   2.937   1.676
  886TIP3    H1 2611   2.676   2.979   1.693
  886TIP3    H2 2612   2.733   2.863   1.619
  887TIP3   OH2 2613   2.432   2.566   0.236
  887TIP3    H1 2614   2.514   2.516   0.247
  887TIP3    H2 2615   2.464   2.658   0.247
  888TIP3   OH2 2616   1.967   4.105   0.525
  888TIP3    H1 2617   2.019   4.097   0.442
  888TIP3    H2 2618   2.018   4.172   0.574
  889TIP3   OH2 2619   0.967   2.541   1.881
  889TIP3    H1 2620   0.999   2.454   1.913
  889TIP3    H2 2621   0.937   2.518   1.792
  890TIP3   OH2 2622   1.065   3.908   1.907
  890TIP3    H1 2623   0.972   3.886   1.892
  890TIP3    H2 2624   1.074   3.898   2.002
  891TIP3   OH2 2625   1.248   3.938   1.459
  891TIP3    H1 2626   1.194   4.005   1.412
  891TIP3    H2 2627   1.333   3.957   1.415
  892TIP3   OH2 2628   1.684   4.184   1.590
  892TIP3    H1 2629   1.729   4.192   1.677
  892TIP3    H2 2630   1.745   4.236   1.534
  893TIP3   OH2 2631   1.888   4.318   1.466
  893TIP3    H1 2632   1.967   4.281   1.425
  893TIP3    H2 2633   1.925   4.391   1.520
  894TIP3   OH2 2634   2.659   2.707   1.554
  894TIP3    H1 2635   2.571   2.694   1.517
  894TIP3    H2 2636   2.697   2.618   1.554
  895TIP3   OH2 2637   0.915   4.192   1.493
  895TIP3    H1 2638   0.828   4.227   1.465
  895TIP3    H2 2639   0.934   4.250   1.568
  896TIP3   OH2 2640   1.128   4.134   1.321
  896TIP3    H1 2641   1.053   4.173   1.370
  896TIP3    H2 2642   1.146   4.203   1.254
  897TIP3   OH2 2643   1.570   4.228   1.159
  897TIP3    H1 2644   1.511   4.242   1.084
  897TIP3    H2 2645   1.548   4.308   1.214
  898TIP3   OH2 2646   1.842   4.142   1.177
  898TIP3    H1 2647   1.749   4.173   1.179
  898TIP3    H2 2648   1.888   4.224   1.153
  899TIP3   OH2 2649   2.064   4.338   1.103
  899TIP3    H1 2650   2.044   4.421   1.055
  899TIP3    H2 2651   2.084   4.276   1.030
  900TIP3   OH2 2652   0.828   3.989   1.224
  900TIP3    H1 2653   0.857   3.969   1.315
  900TIP3    H2 2654   0.904   3.951   1.174
  901TIP3   OH2 2655   1.028   3.867   1.086
  901TIP3    H1 2656   1.044   3.785   1.138
  901TIP3    H2 2657   1.119   3.905   1.083
  902TIP3   OH2 2658   1.292   3.956   1.085
  902TIP3    H1 2659   1.328   3.866   1.084
  902TIP3    H2 2660   1.328   3.987   1.170
  903TIP3   OH2 2661   1.861   2.623   1.173
  903TIP3    H1 2662   1.820   2.551   1.225
  903TIP3    H2 2663   1.929   2.575   1.122
  904TIP3   OH2 2664   2.388   2.489   1.073
  904TIP3    H1 2665   2.425   2.545   1.001
  904TIP3    H2 2666   2.294   2.512   1.070
  905TIP3   OH2 2667   2.485   2.595   0.841
  905TIP3    H1 2668   2.560   2.544   0.803
  905TIP3    H2 2669   2.519   2.687   0.827
  906TIP3   OH2 2670   1.523   2.532   1.118
  906TIP3    H1 2671   1.550   2.502   1.029
  906TIP3    H2 2672   1.584   2.483   1.177
  907TIP3   OH2 2673   2.105   2.507   1.053
  907TIP3    H1 2674   2.100   2.462   0.967
  907TIP3    H2 2675   2.094   2.431   1.114
  908TIP3   OH2 2676   2.138   2.430   0.616
  908TIP3    H1 2677   2.057   2.479   0.641
  908TIP3    H2 2678   2.105   2.337   0.619
  909TIP3   OH2 2679   1.399   3.977   0.170
  909TIP3    H1 2680   1.494   3.998   0.157
  909TIP3    H2 2681   1.395   3.900   0.110
  910TIP3   OH2 2682   2.114   4.073   0.291
  910TIP3    H1 2683   2.109   3.975   0.282
  910TIP3    H2 2684   2.066   4.101   0.211
  911TIP3   OH2 2685   1.318   2.609   2.104
  911TIP3    H1 2686   1.282   2.525   2.137
  911TIP3    H2 2687   1.413   2.599   2.124
  912TIP3   OH2 2688   1.580   2.615   2.200
  912TIP3    H1 2689   1.660   2.575   2.159
  912TIP3    H2 2690   1.562   2.549   2.270
  913TIP3   OH2 2691   2.399   2.665   1.986
  913TIP3    H1 2692   2.419   2.635   2.077
  913TIP3    H2 2693   2.487   2.662   1.943
  914TIP3   OH2 2694   2.335   4.215   1.477
  914TIP3    H1 2695   2.256   4.184   1.428
  914TIP3    H2 2696   2.315   4.310   1.484
  915TIP3   OH2 2697   3.600   3.590   0.245
  915TIP3    H1 2698   3.570   3.681   0.221
  915TIP3    H2 2699   3.523   3.539   0.215
  916TIP3   OH2 2700   3.603   3.588   0.628
  916TIP3    H1 2701   3.637   3.566   0.717
  916TIP3    H2 2702   3.560   3.505   0.602
  917TIP3   OH2 2703   2.900   3.481   0.991
  917TIP3    H1 2704   2.928   3.412   1.053
  917TIP3    H2 2705   2.979   3.538   0.990
  918TIP3   OH2 2706   3.847   3.900   0.303
  918TIP3    H1 2707   3.828   3.829   0.366
  918TIP3    H2 2708   3.879   3.971   0.362
  919TIP3   OH2 2709   2.872   3.894   0.710
  919TIP3    H1 2710   2.864   3.797   0.712
  919TIP3    H2 2711   2.969   3.904   0.713
  920TIP3   OH2 2712   2.581   3.094   0.496
  920TIP3    H1 2713   2.535   3.177   0.517
  920TIP3    H2 2714   2.507   3.044   0.457
  921TIP3   OH2 2715   2.637   3.383   0.676
  921TIP3    H1 2716   2.687   3.305   0.710
  921TIP3    H2 2717   2.698   3.418   0.609
  922TIP3   OH2 2718   3.490   4.354   0.327
  922TIP3    H1 2719   3.538   4.282   0.282
  922TIP3    H2 2720   3.486   4.322   0.418
  923TIP3   OH2 2721   3.400   3.816   0.674
  923TIP3    H1 2722   3.441   3.739   0.632
  923TIP3    H2 2723   3.483   3.863   0.700
  924TIP3   OH2 2724   4.416   3.136   0.672
  924TIP3    H1 2725   4.446   3.218   0.718
  924TIP3    H2 2726   4.433   3.159   0.579
  925TIP3   OH2 2727   3.815   3.316   0.703
  925TIP3    H1 2728   3.855   3.230   0.726
  925TIP3    H2 2729   3.780   3.297   0.614
  926TIP3   OH2 2730   3.154   2.975   0.669
  926TIP3    H1 2731   3.133   3.048   0.607
  926TIP3    H2 2732   3.104   2.902   0.626
  927TIP3   OH2 2733   3.848   3.067   0.292
  927TIP3    H1 2734   3.918   3.050   0.359
  927TIP3    H2 2735   3.903   3.102   0.219
  928TIP3   OH2 2736   2.785   3.177   0.777
  928TIP3    H1 2737   2.867   3.159   0.827
  928TIP3    H2 2738   2.801   3.121   0.698
  929TIP3   OH2 2739   3.225   3.375   0.573
  929TIP3    H1 2740   3.319   3.350   0.585
  929TIP3    H2 2741   3.187   3.290   0.541
  930TIP3   OH2 2742   4.490   3.345   0.840
  930TIP3    H1 2743   4.405   3.390   0.820
  930TIP3    H2 2744   4.499   3.366   0.934
  931TIP3   OH2 2745   3.150   2.959   1.104
  931TIP3    H1 2746   3.088   2.997   1.039
  931TIP3    H2 2747   3.099   2.970   1.186
  932TIP3   OH2 2748   3.492   3.807   0.117
  932TIP3    H1 2749   3.459   3.790   0.026
  932TIP3    H2 2750   3.440   3.888   0.139
  933TIP3   OH2 2751   3.255   3.735   0.897
  933TIP3    H1 2752   3.195   3.803   0.935
  933TIP3    H2 2753   3.297   3.785   0.824
  934TIP3   OH2 2754   4.057   3.071   0.467
  934TIP3    H1 2755   4.034   3.027   0.551
  934TIP3    H2 2756   4.103   3.151   0.498
  935TIP3   OH2 2757   3.019   3.074   0.888
  935TIP3    H1 2758   3.081   3.146   0.914
  935TIP3    H2 2759   3.069   3.034   0.814
  936TIP3   OH2 2760   3.083   3.931   0.997
  936TIP3    H1 2761   3.058   4.019   0.963
  936TIP3    H2 2762   3.004   3.912   1.052
  937TIP3   OH2 2763   2.476   3.619   0.239
  937TIP3    H1 2764   2.436   3.642   0.153
  937TIP3    H2 2765   2.507   3.706   0.271
  938TIP3   OH2 2766   3.913   4.133   0.470
  938TIP3    H1 2767   3.824   4.126   0.512
  938TIP3    H2 2768   3.907   4.223   0.430
  939TIP3   OH2 2769   4.207   3.035   0.837
  939TIP3    H1 2770   4.120   3.062   0.805
  939TIP3    H2 2771   4.267   3.068   0.767
  940TIP3   OH2 2772   3.500   2.675   0.820
  940TIP3    H1 2773   3.485   2.581   0.840
  940TIP3    H2 2774   3.424   2.715   0.868
  941TIP3   OH2 2775   3.608   4.179   0.150
  941TIP3    H1 2776   3.648   4.090   0.138
  941TIP3    H2 2777   3.682   4.233   0.112
  942TIP3   OH2 2778   3.748   3.967   0.053
  942TIP3    H1 2779   3.741   3.882   0.007
  942TIP3    H2 2780   3.789   3.938   0.138
  943TIP3   OH2 2781   4.141   4.045   0.819
  943TIP3    H1 2782   4.129   3.968   0.759
  943TIP3    H2 2783   4.123   4.121   0.759
  944TIP3   OH2 2784   3.423   3.442   0.088
  944TIP3    H1 2785   3.347   3.498   0.065
  944TIP3    H2 2786   3.469   3.435   0.001
  945TIP3   OH2 2787   3.380   3.214  -0.194
  945TIP3    H1 2788   3.450   3.272  -0.160
  945TIP3    H2 2789   3.429   3.137  -0.225
  946TIP3   OH2 2790   4.337   3.684   0.662
  946TIP3    H1 2791   4.253   3.735   0.668
  946TIP3    H2 2792   4.367   3.711   0.573
  947TIP3   OH2 2793   3.776   3.505   0.059
  947TIP3    H1 2794   3.724   3.532   0.139
  947TIP3    H2 2795   3.863   3.486   0.099
  948TIP3   OH2 2796   4.015   3.561   0.962
  948TIP3    H1 2797   4.013   3.644   1.013
  948TIP3    H2 2798   3.928   3.566   0.917
  949TIP3   OH2 2799   3.014   3.519   0.464
  949TIP3    H1 2800   2.974   3.461   0.396
  949TIP3    H2 2801   3.090   3.466   0.496
  950TIP3   OH2 2802   3.148   3.937   0.610
  950TIP3    H1 2803   3.125   3.892   0.527
  950TIP3    H2 2804   3.236   3.900   0.629
  951TIP3   OH2 2805   3.149   3.491   0.818
  951TIP3    H1 2806   3.183   3.467   0.730
  951TIP3    H2 2807   3.193   3.577   0.836
  952TIP3   OH2 2808   3.673   4.129   0.593
  952TIP3    H1 2809   3.663   4.210   0.646
  952TIP3    H2 2810   3.657   4.058   0.659
  953TIP3   OH2 2811   3.289   4.048   1.142
  953TIP3    H1 2812   3.228   4.109   1.189
  953TIP3    H2 2813   3.224   3.995   1.092
  954TIP3   OH2 2814   3.599   3.392  -0.116
  954TIP3    H1 2815   3.662   3.432  -0.052
  954TIP3    H2 2816   3.642   3.416  -0.200
  955TIP3   OH2 2817   3.043   3.604   1.245
  955TIP3    H1 2818   3.048   3.692   1.288
  955TIP3    H2 2819   2.949   3.582   1.260
  956TIP3   OH2 2820   3.365   4.051   0.152
  956TIP3    H1 2821   3.444   4.105   0.170
  956TIP3    H2 2822   3.301   4.115   0.121
  957TIP3   OH2 2823   3.081   4.213   1.230
  957TIP3    H1 2824   3.045   4.216   1.140
  957TIP3    H2 2825   3.002   4.192   1.284
  958TIP3   OH2 2826   4.133   2.628  -0.076
  958TIP3    H1 2827   4.051   2.633  -0.024
  958TIP3    H2 2828   4.133   2.715  -0.118
  959TIP3   OH2 2829   2.883   3.363   0.263
  959TIP3    H1 2830   2.812   3.408   0.212
  959TIP3    H2 2831   2.841   3.278   0.283
  960TIP3   OH2 2832   2.660   3.748   1.176
  960TIP3    H1 2833   2.592   3.727   1.109
  960TIP3    H2 2834   2.698   3.660   1.198
  961TIP3   OH2 2835   2.514   3.942   0.804
  961TIP3    H1 2836   2.611   3.937   0.802
  961TIP3    H2 2837   2.501   4.019   0.862
  962TIP3   OH2 2838   4.382   4.393   0.868
  962TIP3    H1 2839   4.378   4.298   0.885
  962TIP3    H2 2840   4.298   4.422   0.912
  963TIP3   OH2 2841   3.483   4.177   0.999
  963TIP3    H1 2842   3.481   4.270   1.032
  963TIP3    H2 2843   3.412   4.137   1.054
  964TIP3   OH2 2844   3.260   4.328  -0.078
  964TIP3    H1 2845   3.178   4.283  -0.101
  964TIP3    H2 2846   3.229   4.405  -0.027
  965TIP3   OH2 2847   2.687   4.154   0.337
  965TIP3    H1 2848   2.730   4.145   0.424
  965TIP3    H2 2849   2.634   4.072   0.334
  966TIP3   OH2 2850   3.505   4.206  -0.109
  966TIP3    H1 2851   3.417   4.250  -0.107
  966TIP3    H2 2852   3.529   4.213  -0.014
  967TIP3   OH2 2853   4.268   3.521   1.141
  967TIP3    H1 2854   4.184   3.533   1.093
  967TIP3    H2 2855   4.284   3.425   1.129
  968TIP3   OH2 2856   2.864   3.930   1.161
  968TIP3    H1 2857   2.913   3.915   1.244
  968TIP3    H2 2858   2.790   3.867   1.170
  969TIP3   OH2 2859   3.264   2.755   0.949
  969TIP3    H1 2860   3.175   2.725   0.921
  969TIP3    H2 2861   3.238   2.834   1.000
  970TIP3   OH2 2862   3.800   2.868   1.145
  970TIP3    H1 2863   3.869   2.840   1.209
  970TIP3    H2 2864   3.717   2.849   1.193
  971TIP3   OH2 2865   4.036   3.298   1.063
  971TIP3    H1 2866   3.985   3.295   1.147
  971TIP3    H2 2867   4.012   3.385   1.027
  972TIP3   OH2 2868   3.429   2.819  -0.072
  972TIP3    H1 2869   3.386   2.809   0.016
  972TIP3    H2 2870   3.374   2.762  -0.126
  973TIP3   OH2 2871   3.196   3.270   0.968
  973TIP3    H1 2872   3.146   3.290   1.050
  973TIP3    H2 2873   3.180   3.351   0.916
  974TIP3   OH2 2874   3.079   3.157   0.482
  974TIP3    H1 2875   2.987   3.130   0.502
  974TIP3    H2 2876   3.092   3.114   0.394
  975TIP3   OH2 2877   3.572   3.240   0.210
  975TIP3    H1 2878   3.518   3.311   0.169
  975TIP3    H2 2879   3.625   3.209   0.135
  976TIP3   OH2 2880   3.745   3.516   1.294
  976TIP3    H1 2881   3.723   3.444   1.357
  976TIP3    H2 2882   3.838   3.532   1.317
  977TIP3   OH2 2883   3.726   3.267   0.447
  977TIP3    H1 2884   3.663   3.295   0.378
  977TIP3    H2 2885   3.761   3.187   0.403
  978TIP3   OH2 2886   3.015   3.296   1.176
  978TIP3    H1 2887   3.045   3.359   1.243
  978TIP3    H2 2888   3.005   3.214   1.227
  979TIP3   OH2 2889   3.081   2.773  -0.111
  979TIP3    H1 2890   3.069   2.781  -0.015
  979TIP3    H2 2891   2.991   2.777  -0.143
  980TIP3   OH2 2892   2.611   2.817   0.755
  980TIP3    H1 2893   2.682   2.852   0.813
  980TIP3    H2 2894   2.658   2.790   0.676
  981TIP3   OH2 2895   2.572   2.805   0.273
  981TIP3    H1 2896   2.626   2.839   0.200
  981TIP3    H2 2897   2.515   2.882   0.292
  982TIP3   OH2 2898   3.737   3.513   0.868
  982TIP3    H1 2899   3.771   3.442   0.809
  982TIP3    H2 2900   3.707   3.459   0.945
  983TIP3   OH2 2901   3.411   2.978   0.542
  983TIP3    H1 2902   3.329   2.977   0.596
  983TIP3    H2 2903   3.480   2.971   0.610
  984TIP3   OH2 2904   2.842   3.035   0.549
  984TIP3    H1 2905   2.748   3.042   0.522
  984TIP3    H2 2906   2.865   2.942   0.528
  985TIP3   OH2 2907   3.110   3.025   0.244
  985TIP3    H1 2908   3.204   3.041   0.224
  985TIP3    H2 2909   3.064   3.049   0.160
  986TIP3   OH2 2910   3.899   3.053   0.742
  986TIP3    H1 2911   3.869   3.066   0.836
  986TIP3    H2 2912   3.830   2.992   0.711
  987TIP3   OH2 2913   2.959   3.067   0.026
  987TIP3    H1 2914   2.868   3.042   0.006
  987TIP3    H2 2915   2.995   3.096  -0.060
  988TIP3   OH2 2916   4.072   4.741   0.966
  988TIP3    H1 2917   4.072   4.772   0.873
  988TIP3    H2 2918   4.138   4.801   1.006
  989TIP3   OH2 2919   3.028   3.853   1.384
  989TIP3    H1 2920   3.107   3.882   1.432
  989TIP3    H2 2921   2.963   3.850   1.457
  990TIP3   OH2 2922   3.488   3.307   0.641
  990TIP3    H1 2923   3.562   3.266   0.594
  990TIP3    H2 2924   3.491   3.264   0.729
  991TIP3   OH2 2925   3.008   2.793   0.522
  991TIP3    H1 2926   2.973   2.716   0.571
  991TIP3    H2 2927   3.060   2.749   0.453
  992TIP3   OH2 2928   3.467   3.209   0.924
  992TIP3    H1 2929   3.376   3.241   0.943
  992TIP3    H2 2930   3.522   3.268   0.978
  993TIP3   OH2 2931   3.193   3.592   0.023
  993TIP3    H1 2932   3.123   3.524   0.015
  993TIP3    H2 2933   3.177   3.625   0.115
  994TIP3   OH2 2934   4.103   3.828   0.651
  994TIP3    H1 2935   4.126   3.881   0.572
  994TIP3    H2 2936   4.018   3.787   0.625
  995TIP3   OH2 2937   3.686   2.903  -0.121
  995TIP3    H1 2938   3.593   2.872  -0.115
  995TIP3    H2 2939   3.680   2.997  -0.094
  996TIP3   OH2 2940   3.600   3.911   1.022
  996TIP3    H1 2941   3.632   3.893   1.111
  996TIP3    H2 2942   3.564   4.001   1.030
  997TIP3   OH2 2943   3.733   3.156  -0.009
  997TIP3    H1 2944   3.828   3.155   0.014
  997TIP3    H2 2945   3.727   3.230  -0.072
  998TIP3   OH2 2946   2.897   3.617   0.699
  998TIP3    H1 2947   2.936   3.586   0.615
  998TIP3    H2 2948   2.939   3.558   0.763
  999TIP3   OH2 2949   3.366   3.756  -0.114
  999TIP3    H1 2950   3.313   3.836  -0.132
  999TIP3    H2 2951   3.301   3.697  -0.072
 1000TIP3   OH2 2952   2.780   3.535   1.314
 1000TIP3    H1 2953   2.797   3.522   1.409
 1000TIP3    H2 2954   2.710   3.469   1.298
 1001TIP3   OH2 2955   3.504   3.651   1.333
 1001TIP3    H1 2956   3.442   3.590   1.289
 1001TIP3    H2 2957   3.590   3.615   1.304
 1002TIP3   OH2 2958   3.760   4.169   0.918
 1002TIP3    H1 2959   3.664   4.171   0.933
 1002TIP3    H2 2960   3.791   4.222   0.995
 1003TIP3   OH2 2961   4.146   3.212  -0.145
 1003TIP3    H1 2962   4.092   3.168  -0.212
 1003TIP3    H2 2963   4.172   3.292  -0.193
 1004TIP3   OH2 2964   4.391   4.101   0.908
 1004TIP3    H1 2965   4.294   4.097   0.900
 1004TIP3    H2 2966   4.417   4.072   0.818
 1005TIP3   OH2 2967   3.869   3.693   0.569
 1005TIP3    H1 2968   3.775   3.670   0.583
 1005TIP3    H2 2969   3.901   3.611   0.526
 1006TIP3   OH2 2970   2.996   3.919   0.322
 1006TIP3    H1 2971   2.988   4.002   0.270
 1006TIP3    H2 2972   2.904   3.900   0.343
 1007TIP3   OH2 2973   2.570   3.223   0.042
 1007TIP3    H1 2974   2.608   3.312   0.057
 1007TIP3    H2 2975   2.487   3.228   0.093
 1008TIP3   OH2 2976   3.130   3.682   0.267
 1008TIP3    H1 2977   3.095   3.772   0.287
 1008TIP3    H2 2978   3.097   3.632   0.344
 1009TIP3   OH2 2979   3.268   4.263   0.793
 1009TIP3    H1 2980   3.312   4.336   0.745
 1009TIP3    H2 2981   3.342   4.225   0.843
 1010TIP3   OH2 2982   2.911   4.160   0.172
 1010TIP3    H1 2983   2.827   4.165   0.223
 1010TIP3    H2 2984   2.942   4.252   0.180
 1011TIP3   OH2 2985   3.651   3.896   0.754
 1011TIP3    H1 2986   3.639   3.896   0.851
 1011TIP3    H2 2987   3.733   3.845   0.745
 1012TIP3   OH2 2988   3.902   4.426   0.801
 1012TIP3    H1 2989   3.821   4.372   0.795
 1012TIP3    H2 2990   3.886   4.492   0.730
 1013TIP3   OH2 2991   2.989   3.039   1.319
 1013TIP3    H1 2992   2.893   3.038   1.335
 1013TIP3    H2 2993   3.021   2.985   1.393
 1014TIP3   OH2 2994   3.768   3.733  -0.101
 1014TIP3    H1 2995   3.746   3.669  -0.031
 1014TIP3    H2 2996   3.823   3.676  -0.158
 1015TIP3   OH2 2997   2.706   4.122   0.951
 1015TIP3    H1 2998   2.760   4.051   0.990
 1015TIP3    H2 2999   2.727   4.196   1.010
 1016TIP3   OH2 3000   2.975   3.787  -0.359
 1016TIP3    H1 3001   3.039   3.717  -0.368
 1016TIP3    H2 3002   2.952   3.782  -0.265
 1017TIP3   OH2 3003   2.943   3.786  -0.084
 1017TIP3    H1 3004   3.013   3.746  -0.030
 1017TIP3    H2 3005   2.959   3.882  -0.073
 1018TIP3   OH2 3006   2.674   3.472   0.115
 1018TIP3    H1 3007   2.608   3.516   0.172
 1018TIP3    H2 3008   2.685   3.540   0.046
 1019TIP3   OH2 3009   3.830   3.103   1.003
 1019TIP3    H1 3010   3.908   3.142   1.044
 1019TIP3    H2 3011   3.814   3.023   1.058
 1020TIP3   OH2 3012   3.704   2.855   0.169
 1020TIP3    H1 3013   3.693   2.875   0.075
 1020TIP3    H2 3014   3.742   2.939   0.204
 1021TIP3   OH2 3015   3.213   3.979  -0.161
 1021TIP3    H1 3016   3.128   4.008  -0.123
 1021TIP3    H2 3017   3.200   3.992  -0.256
 1022TIP3   OH2 3018   3.391   3.038   0.273
 1022TIP3    H1 3019   3.456   3.110   0.256
 1022TIP3    H2 3020   3.397   3.028   0.370
 1023TIP3   OH2 3021   3.665   3.353   1.077
 1023TIP3    H1 3022   3.687   3.407   1.156
 1023TIP3    H2 3023   3.717   3.273   1.091
 1024TIP3   OH2 3024   3.536   2.758   0.371
 1024TIP3    H1 3025   3.532   2.835   0.431
 1024TIP3    H2 3026   3.597   2.792   0.302
 1025TIP3   OH2 3027   2.964   4.062  -0.075
 1025TIP3    H1 3028   2.889   4.101  -0.123
 1025TIP3    H2 3029   2.945   4.091   0.017
 1026TIP3   OH2 3030   3.050   2.763   0.166
 1026TIP3    H1 3031   3.048   2.853   0.205
 1026TIP3    H2 3032   3.146   2.745   0.174
 1027TIP3   OH2 3033   4.304   3.256   1.057
 1027TIP3    H1 3034   4.206   3.255   1.068
 1027TIP3    H2 3035   4.311   3.202   0.977
 1028TIP3   OH2 3036   3.953   3.448   0.449
 1028TIP3    H1 3037   3.876   3.390   0.465
 1028TIP3    H2 3038   4.024   3.402   0.499
 1029TIP3   OH2 3039   2.669   3.679  -0.075
 1029TIP3    H1 3040   2.736   3.749  -0.070
 1029TIP3    H2 3041   2.715   3.620  -0.139
 1030TIP3   OH2 3042   2.630   2.960   0.043
 1030TIP3    H1 3043   2.619   3.058   0.041
 1030TIP3    H2 3044   2.548   2.933   0.002
 1031TIP3   OH2 3045   3.923   4.401   0.396
 1031TIP3    H1 3046   3.879   4.447   0.322
 1031TIP3    H2 3047   4.017   4.425   0.378
 1032TIP3   OH2 3048   2.999   2.675   0.919
 1032TIP3    H1 3049   2.969   2.639   0.833
 1032TIP3    H2 3050   2.988   2.598   0.979
 1033TIP3   OH2 3051   2.538   3.892   0.302
 1033TIP3    H1 3052   2.476   3.918   0.371
 1033TIP3    H2 3053   2.498   3.935   0.222
 1034TIP3   OH2 3054   2.697   4.439   1.376
 1034TIP3    H1 3055   2.783   4.439   1.423
 1034TIP3    H2 3056   2.677   4.344   1.376
 1035TIP3   OH2 3057   3.172   4.396   1.421
 1035TIP3    H1 3058   3.268   4.381   1.428
 1035TIP3    H2 3059   3.149   4.334   1.349
 1036TIP3   OH2 3060   3.817   4.303   1.152
 1036TIP3    H1 3061   3.808   4.236   1.223
 1036TIP3    H2 3062   3.893   4.356   1.183
 1037TIP3   OH2 3063   2.826   3.841   1.575
 1037TIP3    H1 3064   2.840   3.745   1.585
 1037TIP3    H2 3065   2.739   3.844   1.530
 1038TIP3   OH2 3066   2.817   3.505  -0.214
 1038TIP3    H1 3067   2.882   3.462  -0.156
 1038TIP3    H2 3068   2.825   3.459  -0.298
 1039TIP3   OH2 3069   3.432   3.927   1.350
 1039TIP3    H1 3070   3.392   3.948   1.263
 1039TIP3    H2 3071   3.462   3.835   1.339
 1040TIP3   OH2 3072   3.924   3.937   0.956
 1040TIP3    H1 3073   4.001   3.980   0.914
 1040TIP3    H2 3074   3.856   4.006   0.941
 1041TIP3   OH2 3075   2.946   3.576   1.559
 1041TIP3    H1 3076   3.023   3.522   1.535
 1041TIP3    H2 3077   2.974   3.610   1.647
 1042TIP3   OH2 3078   3.005   3.391  -0.013
 1042TIP3    H1 3079   2.978   3.356   0.073
 1042TIP3    H2 3080   3.043   3.313  -0.057
 1043TIP3   OH2 3081   3.280   3.459   1.219
 1043TIP3    H1 3082   3.201   3.519   1.218
 1043TIP3    H2 3083   3.332   3.495   1.144
 1044TIP3   OH2 3084   3.109   3.185  -0.178
 1044TIP3    H1 3085   3.109   3.142  -0.264
 1044TIP3    H2 3086   3.206   3.200  -0.166
 1045TIP3   OH2 3087   3.796   3.861   1.352
 1045TIP3    H1 3088   3.877   3.834   1.307
 1045TIP3    H2 3089   3.790   3.796   1.425
 1046TIP3   OH2 3090   3.405   3.250   1.343
 1046TIP3    H1 3091   3.404   3.170   1.287
 1046TIP3    H2 3092   3.359   3.316   1.286
 1047TIP3   OH2 3093   3.407   3.037   1.154
 1047TIP3    H1 3094   3.435   3.076   1.069
 1047TIP3    H2 3095   3.314   3.013   1.135
 1048TIP3   OH2 3096   3.429   3.567   1.026
 1048TIP3    H1 3097   3.515   3.582   0.986
 1048TIP3    H2 3098   3.373   3.633   0.981
 1049TIP3   OH2 3099   4.016   3.534   1.409
 1049TIP3    H1 3100   4.063   3.449   1.411
 1049TIP3    H2 3101   4.082   3.593   1.371
 1050TIP3   OH2 3102   4.054   3.789   1.141
 1050TIP3    H1 3103   3.996   3.844   1.084
 1050TIP3    H2 3104   4.142   3.811   1.103
 1051TIP3   OH2 3105   3.284   3.356   1.578
 1051TIP3    H1 3106   3.215   3.288   1.594
 1051TIP3    H2 3107   3.316   3.331   1.489
 1052TIP3   OH2 3108   3.539   2.797   1.221
 1052TIP3    H1 3109   3.487   2.877   1.200
 1052TIP3    H2 3110   3.471   2.727   1.212
 1053TIP3   OH2 3111   3.664   3.299   1.438
 1053TIP3    H1 3112   3.648   3.284   1.533
 1053TIP3    H2 3113   3.575   3.276   1.403
 1054TIP3   OH2 3114   3.903   3.252   1.294
 1054TIP3    H1 3115   3.828   3.253   1.356
 1054TIP3    H2 3116   3.977   3.220   1.350
 1055TIP3   OH2 3117   4.129   3.188   1.446
 1055TIP3    H1 3118   4.146   3.093   1.464
 1055TIP3    H2 3119   4.130   3.227   1.535
 1056TIP3   OH2 3120   3.119   3.143   1.635
 1056TIP3    H1 3121   3.119   3.050   1.604
 1056TIP3    H2 3122   3.158   3.131   1.724
 1057TIP3   OH2 3123   3.635   2.808   1.479
 1057TIP3    H1 3124   3.699   2.735   1.473
 1057TIP3    H2 3125   3.592   2.803   1.391
 1058TIP3   OH2 3126   3.701   3.023   1.638
 1058TIP3    H1 3127   3.680   2.951   1.574
 1058TIP3    H2 3128   3.620   3.079   1.632
 1059TIP3   OH2 3129   2.401   3.635  -0.030
 1059TIP3    H1 3130   2.489   3.672  -0.053
 1059TIP3    H2 3131   2.400   3.556  -0.085
 1060TIP3   OH2 3132   2.318   4.245   0.368
 1060TIP3    H1 3133   2.251   4.184   0.330
 1060TIP3    H2 3134   2.361   4.186   0.434
 1061TIP3   OH2 3135   2.451   4.093   0.556
 1061TIP3    H1 3136   2.436   4.022   0.621
 1061TIP3    H2 3137   2.502   4.155   0.611
 1062TIP3   OH2 3138   4.172   4.499   0.358
 1062TIP3    H1 3139   4.194   4.534   0.447
 1062TIP3    H2 3140   4.249   4.526   0.306
 1063TIP3   OH2 3141   4.202   4.514   0.636
 1063TIP3    H1 3142   4.163   4.424   0.636
 1063TIP3    H2 3143   4.280   4.498   0.692
 1064TIP3   OH2 3144   4.253   4.190   1.211
 1064TIP3    H1 3145   4.180   4.202   1.275
 1064TIP3    H2 3146   4.295   4.278   1.213
 1065TIP3   OH2 3147   2.742   2.270   7.444
 1065TIP3    H1 3148   2.674   2.284   7.377
 1065TIP3    H2 3149   2.707   2.198   7.499
 1066TIP3   OH2 3150   4.196   3.565   0.021
 1066TIP3    H1 3151   4.126   3.526   0.078
 1066TIP3    H2 3152   4.259   3.599   0.088
 1067TIP3   OH2 3153   4.252   3.966   0.464
 1067TIP3    H1 3154   4.305   3.899   0.417
 1067TIP3    H2 3155   4.252   4.040   0.400
 1068TIP3   OH2 3156   4.080   4.263   0.660
 1068TIP3    H1 3157   4.010   4.309   0.711
 1068TIP3    H2 3158   4.029   4.219   0.589
 1069TIP3   OH2 3159   4.011   3.426   0.181
 1069TIP3    H1 3160   4.012   3.329   0.176
 1069TIP3    H2 3161   3.995   3.442   0.277
 1070TIP3   OH2 3162   2.635   3.502   0.927
 1070TIP3    H1 3163   2.632   3.469   0.835
 1070TIP3    H2 3164   2.732   3.504   0.943
 1071TIP3   OH2 3165   4.299   3.855   1.036
 1071TIP3    H1 3166   4.372   3.789   1.026
 1071TIP3    H2 3167   4.326   3.925   0.975
 1072TIP3   OH2 3168   4.483   3.655   1.045
 1072TIP3    H1 3169   4.408   3.608   1.087
 1072TIP3    H2 3170   4.555   3.592   1.063
 1073TIP3   OH2 3171   3.945   2.913  -0.364
 1073TIP3    H1 3172   4.026   2.864  -0.340
 1073TIP3    H2 3173   3.876   2.863  -0.318
 1074TIP3   OH2 3174   4.006   3.143   0.078
 1074TIP3    H1 3175   4.048   3.055   0.090
 1074TIP3    H2 3176   4.058   3.176   0.002
 1075TIP3   OH2 3177   4.167   3.315   0.569
 1075TIP3    H1 3178   4.252   3.341   0.528
 1075TIP3    H2 3179   4.180   3.354   0.658
 1076TIP3   OH2 3180   4.237   3.463   0.797
 1076TIP3    H1 3181   4.161   3.497   0.848
 1076TIP3    H2 3182   4.270   3.546   0.754
 1077TIP3   OH2 3183   2.853   3.187   1.598
 1077TIP3    H1 3184   2.951   3.184   1.604
 1077TIP3    H2 3185   2.831   3.101   1.639
 1078TIP3   OH2 3186   4.723   3.075   1.359
 1078TIP3    H1 3187   4.760   2.998   1.313
 1078TIP3    H2 3188   4.666   3.114   1.290
 1079TIP3   OH2 3189   4.122   2.894   0.106
 1079TIP3    H1 3190   4.163   2.880   0.194
 1079TIP3    H2 3191   4.056   2.822   0.107
 1080TIP3   OH2 3192   2.814   2.883   0.930
 1080TIP3    H1 3193   2.875   2.808   0.941
 1080TIP3    H2 3194   2.877   2.957   0.923
 1081TIP3   OH2 3195   2.615   3.154   1.002
 1081TIP3    H1 3196   2.666   3.153   0.918
 1081TIP3    H2 3197   2.643   3.237   1.041
 1082TIP3   OH2 3198   4.559   3.187   1.165
 1082TIP3    H1 3199   4.475   3.230   1.190
 1082TIP3    H2 3200   4.525   3.119   1.103
 1083TIP3   OH2 3201   4.215   2.841  -0.289
 1083TIP3    H1 3202   4.253   2.752  -0.286
 1083TIP3    H2 3203   4.290   2.891  -0.254
 1084TIP3   OH2 3204   2.603   2.658   0.501
 1084TIP3    H1 3205   2.512   2.656   0.537
 1084TIP3    H2 3206   2.594   2.719   0.425
 1085TIP3   OH2 3207   3.787   4.321   0.008
 1085TIP3    H1 3208   3.870   4.281  -0.021
 1085TIP3    H2 3209   3.812   4.415   0.021
 1086TIP3   OH2 3210   2.820   2.741   1.314
 1086TIP3    H1 3211   2.779   2.737   1.401
 1086TIP3    H2 3212   2.748   2.776   1.259
 1087TIP3   OH2 3213   2.861   4.169   1.394
 1087TIP3    H1 3214   2.768   4.143   1.380
 1087TIP3    H2 3215   2.873   4.149   1.488
 1088TIP3   OH2 3216   3.041   4.201   0.942
 1088TIP3    H1 3217   2.993   4.277   0.903
 1088TIP3    H2 3218   3.127   4.215   0.898
 1089TIP3   OH2 3219   3.482   4.444   1.079
 1089TIP3    H1 3220   3.523   4.443   1.168
 1089TIP3    H2 3221   3.549   4.496   1.029
 1090TIP3   OH2 3222   3.664   4.598   0.942
 1090TIP3    H1 3223   3.737   4.547   0.903
 1090TIP3    H2 3224   3.714   4.657   1.003
 1091TIP3   OH2 3225   4.467   2.958   1.028
 1091TIP3    H1 3226   4.372   2.949   1.013
 1091TIP3    H2 3227   4.495   2.863   1.025
 1092TIP3   OH2 3228   2.715   4.458   0.967
 1092TIP3    H1 3229   2.624   4.490   0.947
 1092TIP3    H2 3230   2.729   4.500   1.053
 1093TIP3   OH2 3231   2.951   4.435   0.826
 1093TIP3    H1 3232   2.864   4.447   0.870
 1093TIP3    H2 3233   2.932   4.467   0.736
 1094TIP3   OH2 3234   3.379   4.464   0.621
 1094TIP3    H1 3235   3.305   4.484   0.561
 1094TIP3    H2 3236   3.391   4.550   0.667
 1095TIP3   OH2 3237   3.648   4.399   0.673
 1095TIP3    H1 3238   3.555   4.422   0.655
 1095TIP3    H2 3239   3.695   4.476   0.637
 1096TIP3   OH2 3240   3.846   4.590   0.588
 1096TIP3    H1 3241   3.837   4.676   0.542
 1096TIP3    H2 3242   3.879   4.532   0.516
 1097TIP3   OH2 3243   2.630   4.251   0.711
 1097TIP3    H1 3244   2.654   4.223   0.802
 1097TIP3    H2 3245   2.701   4.205   0.661
 1098TIP3   OH2 3246   2.824   4.121   0.570
 1098TIP3    H1 3247   2.836   4.037   0.621
 1098TIP3    H2 3248   2.916   4.155   0.568
 1099TIP3   OH2 3249   3.092   4.213   0.575
 1099TIP3    H1 3250   3.121   4.120   0.568
 1099TIP3    H2 3251   3.138   4.238   0.657
 1100TIP3   OH2 3252   3.662   2.870   0.658
 1100TIP3    H1 3253   3.619   2.800   0.712
 1100TIP3    H2 3254   3.737   2.823   0.618
 1101TIP3   OH2 3255   4.184   2.751   0.562
 1101TIP3    H1 3256   4.218   2.806   0.488
 1101TIP3    H2 3257   4.088   2.769   0.558
 1102TIP3   OH2 3258   4.282   2.852   0.325
 1102TIP3    H1 3259   4.358   2.801   0.291
 1102TIP3    H2 3260   4.314   2.944   0.314
 1103TIP3   OH2 3261   2.911   2.579   0.671
 1103TIP3    H1 3262   2.818   2.546   0.678
 1103TIP3    H2 3263   2.959   2.494   0.670
 1104TIP3   OH2 3264   2.676   2.460   0.321
 1104TIP3    H1 3265   2.730   2.510   0.256
 1104TIP3    H2 3266   2.668   2.526   0.394
 1105TIP3   OH2 3267   3.355   2.613   0.558
 1105TIP3    H1 3268   3.413   2.659   0.495
 1105TIP3    H2 3269   3.383   2.651   0.642
 1106TIP3   OH2 3270   3.901   2.760   0.537
 1106TIP3    H1 3271   3.901   2.716   0.451
 1106TIP3    H2 3272   3.889   2.683   0.598
 1107TIP3   OH2 3273   3.933   2.684   0.107
 1107TIP3    H1 3274   3.844   2.723   0.112
 1107TIP3    H2 3275   3.918   2.599   0.154
 1108TIP3   OH2 3276   2.414   4.028   0.109
 1108TIP3    H1 3277   2.342   3.981   0.062
 1108TIP3    H2 3278   2.389   4.119   0.090
 1109TIP3   OH2 3279   2.824   2.592   0.136
 1109TIP3    H1 3280   2.846   2.555   0.051
 1109TIP3    H2 3281   2.897   2.656   0.151
 1110TIP3   OH2 3282   3.327   2.786   0.186
 1110TIP3    H1 3283   3.387   2.739   0.245
 1110TIP3    H2 3284   3.348   2.879   0.212
 1111TIP3   OH2 3285   3.120   2.880   1.565
 1111TIP3    H1 3286   3.088   2.788   1.566
 1111TIP3    H2 3287   3.211   2.869   1.600
 1112TIP3   OH2 3288   3.372   2.863   1.684
 1112TIP3    H1 3289   3.454   2.828   1.647
 1112TIP3    H2 3290   3.351   2.794   1.752
 1113TIP3   OH2 3291   2.468   4.026  -0.208
 1113TIP3    H1 3292   2.481   4.097  -0.145
 1113TIP3    H2 3293   2.533   4.044  -0.278
 1114TIP3   OH2 3294   4.201   2.916   1.484
 1114TIP3    H1 3295   4.270   2.905   1.554
 1114TIP3    H2 3296   4.263   2.923   1.408
 1115TIP3   OH2 3297   4.133   4.473   0.962
 1115TIP3    H1 3298   4.053   4.444   0.914
 1115TIP3    H2 3299   4.116   4.569   0.969
 1116TIP3   OH2 3300   5.349   3.837   0.127
 1116TIP3    H1 3301   5.413   3.813   0.197
 1116TIP3    H2 3302   5.310   3.749   0.108
 1117TIP3   OH2 3303   4.693   3.739   0.484
 1117TIP3    H1 3304   4.725   3.669   0.544
 1117TIP3    H2 3305   4.773   3.793   0.474
 1118TIP3   OH2 3306   4.633   4.129   0.234
 1118TIP3    H1 3307   4.639   4.032   0.224
 1118TIP3    H2 3308   4.721   4.157   0.206
 1119TIP3   OH2 3309   4.377   3.336  -0.037
 1119TIP3    H1 3310   4.345   3.423  -0.007
 1119TIP3    H2 3311   4.294   3.286  -0.037
 1120TIP3   OH2 3312   4.431   3.634   0.156
 1120TIP3    H1 3313   4.482   3.561   0.197
 1120TIP3    H2 3314   4.502   3.690   0.120
 1121TIP3   OH2 3315   5.217   4.055   0.215
 1121TIP3    H1 3316   5.260   3.971   0.188
 1121TIP3    H2 3317   5.296   4.109   0.233
 1122TIP3   OH2 3318   5.601   3.550   0.224
 1122TIP3    H1 3319   5.647   3.473   0.262
 1122TIP3    H2 3320   5.567   3.510   0.142
 1123TIP3   OH2 3321   4.949   3.214   0.178
 1123TIP3    H1 3322   4.937   3.293   0.120
 1123TIP3    H2 3323   4.898   3.148   0.127
 1124TIP3   OH2 3324   4.582   3.436   0.268
 1124TIP3    H1 3325   4.664   3.421   0.319
 1124TIP3    H2 3326   4.602   3.380   0.190
 1125TIP3   OH2 3327   5.029   3.642   0.082
 1125TIP3    H1 3328   5.119   3.607   0.097
 1125TIP3    H2 3329   4.986   3.567   0.035
 1126TIP3   OH2 3330   6.305   3.533   0.380
 1126TIP3    H1 3331   6.288   3.569   0.290
 1126TIP3    H2 3332   6.333   3.613   0.427
 1127TIP3   OH2 3333   4.944   3.216   0.593
 1127TIP3    H1 3334   4.884   3.255   0.527
 1127TIP3    H2 3335   4.892   3.231   0.675
 1128TIP3   OH2 3336   5.040   3.984   0.402
 1128TIP3    H1 3337   4.983   4.058   0.434
 1128TIP3    H2 3338   5.098   4.031   0.338
 1129TIP3   OH2 3339   4.813   3.333   0.381
 1129TIP3    H1 3340   4.876   3.406   0.402
 1129TIP3    H2 3341   4.864   3.287   0.311
 1130TIP3   OH2 3342   4.877   4.189   0.483
 1130TIP3    H1 3343   4.851   4.278   0.452
 1130TIP3    H2 3344   4.799   4.168   0.538
 1131TIP3   OH2 3345   5.991   3.280   0.312
 1131TIP3    H1 3346   5.899   3.305   0.292
 1131TIP3    H2 3347   6.040   3.331   0.246
 1132TIP3   OH2 3348   5.294   2.931   0.313
 1132TIP3    H1 3349   5.280   2.836   0.332
 1132TIP3    H2 3350   5.217   2.970   0.360
 1133TIP3   OH2 3351   5.791   3.817   0.464
 1133TIP3    H1 3352   5.797   3.898   0.519
 1133TIP3    H2 3353   5.705   3.831   0.420
 1134TIP3   OH2 3354   4.929   3.752   0.307
 1134TIP3    H1 3355   4.970   3.723   0.222
 1134TIP3    H2 3356   4.980   3.833   0.329
 1135TIP3   OH2 3357   5.081   4.299   0.635
 1135TIP3    H1 3358   5.022   4.365   0.678
 1135TIP3    H2 3359   5.017   4.250   0.581
 1136TIP3   OH2 3360   4.841   3.856   0.736
 1136TIP3    H1 3361   4.845   3.946   0.775
 1136TIP3    H2 3362   4.745   3.838   0.747
 1137TIP3   OH2 3363   4.878   4.470   0.720
 1137TIP3    H1 3364   4.841   4.472   0.629
 1137TIP3    H2 3365   4.798   4.447   0.773
 1138TIP3   OH2 3366   4.456   4.003   0.664
 1138TIP3    H1 3367   4.389   3.983   0.596
 1138TIP3    H2 3368   4.494   3.916   0.684
 1139TIP3   OH2 3369   4.316   4.191   0.296
 1139TIP3    H1 3370   4.413   4.186   0.287
 1139TIP3    H2 3371   4.306   4.270   0.352
 1140TIP3   OH2 3372   5.296   4.411   0.501
 1140TIP3    H1 3373   5.297   4.506   0.526
 1140TIP3    H2 3374   5.212   4.383   0.543
 1141TIP3   OH2 3375   6.062   3.776   0.636
 1141TIP3    H1 3376   5.992   3.785   0.570
 1141TIP3    H2 3377   6.079   3.680   0.633
 1142TIP3   OH2 3378   4.661   4.184   0.647
 1142TIP3    H1 3379   4.708   4.172   0.732
 1142TIP3    H2 3380   4.585   4.123   0.656
 1143TIP3   OH2 3381   5.060   3.009   0.438
 1143TIP3    H1 3382   4.971   2.981   0.410
 1143TIP3    H2 3383   5.036   3.092   0.484
 1144TIP3   OH2 3384   5.597   3.117   0.632
 1144TIP3    H1 3385   5.667   3.092   0.696
 1144TIP3    H2 3386   5.514   3.102   0.683
 1145TIP3   OH2 3387   5.818   3.550   0.539
 1145TIP3    H1 3388   5.777   3.548   0.628
 1145TIP3    H2 3389   5.801   3.643   0.511
 1146TIP3   OH2 3390   4.992   3.530   0.453
 1146TIP3    H1 3391   4.943   3.548   0.536
 1146TIP3    H2 3392   4.972   3.610   0.401
 1147TIP3   OH2 3393   4.893   3.400  -0.004
 1147TIP3    H1 3394   4.797   3.385  -0.000
 1147TIP3    H2 3395   4.913   3.366  -0.093
 1148TIP3   OH2 3396   5.543   3.771   0.780
 1148TIP3    H1 3397   5.523   3.700   0.845
 1148TIP3    H2 3398   5.636   3.789   0.801
 1149TIP3   OH2 3399   4.814   3.553   0.662
 1149TIP3    H1 3400   4.835   3.620   0.729
 1149TIP3    H2 3401   4.801   3.473   0.716
 1150TIP3   OH2 3402   4.408   3.075   0.238
 1150TIP3    H1 3403   4.476   3.111   0.300
 1150TIP3    H2 3404   4.462   3.043   0.166
 1151TIP3   OH2 3405   5.515   3.771   0.356
 1151TIP3    H1 3406   5.550   3.690   0.312
 1151TIP3    H2 3407   5.488   3.731   0.441
 1152TIP3   OH2 3408   5.184   3.209   0.019
 1152TIP3    H1 3409   5.119   3.219   0.091
 1152TIP3    H2 3410   5.267   3.204   0.069
 1153TIP3   OH2 3411   4.636   3.289   0.047
 1153TIP3    H1 3412   4.543   3.291   0.014
 1153TIP3    H2 3413   4.668   3.201   0.020
 1154TIP3   OH2 3414   5.711   3.296   0.250
 1154TIP3    H1 3415   5.661   3.295   0.334
 1154TIP3    H2 3416   5.687   3.212   0.208
 1155TIP3   OH2 3417   4.825   4.107   0.871
 1155TIP3    H1 3418   4.903   4.139   0.919
 1155TIP3    H2 3419   4.758   4.108   0.943
 1156TIP3   OH2 3420   5.280   3.559   0.138
 1156TIP3    H1 3421   5.340   3.526   0.068
 1156TIP3    H2 3422   5.299   3.501   0.214
 1157TIP3   OH2 3423   4.799   3.054   0.008
 1157TIP3    H1 3424   4.772   2.968   0.046
 1157TIP3    H2 3425   4.852   3.027  -0.069
 1158TIP3   OH2 3426   5.263   3.458   0.421
 1158TIP3    H1 3427   5.174   3.497   0.429
 1158TIP3    H2 3428   5.320   3.523   0.467
 1159TIP3   OH2 3429   5.393   4.160   0.519
 1159TIP3    H1 3430   5.421   4.153   0.611
 1159TIP3    H2 3431   5.358   4.252   0.516
 1160TIP3   OH2 3432   4.681   3.849   0.183
 1160TIP3    H1 3433   4.739   3.885   0.113
 1160TIP3    H2 3434   4.744   3.805   0.242
 1161TIP3   OH2 3435   4.576   3.789   0.800
 1161TIP3    H1 3436   4.591   3.777   0.896
 1161TIP3    H2 3437   4.504   3.725   0.785
 1162TIP3   OH2 3438   5.301   3.906   0.822
 1162TIP3    H1 3439   5.239   3.849   0.774
 1162TIP3    H2 3440   5.387   3.872   0.790
 1163TIP3   OH2 3441   5.571   4.403   0.429
 1163TIP3    H1 3442   5.474   4.409   0.430
 1163TIP3    H2 3443   5.593   4.464   0.503
 1164TIP3   OH2 3444   5.055   4.524   0.322
 1164TIP3    H1 3445   5.055   4.574   0.240
 1164TIP3    H2 3446   5.141   4.479   0.314
 1165TIP3   OH2 3447   5.472   4.144   0.262
 1165TIP3    H1 3448   5.441   4.148   0.356
 1165TIP3    H2 3449   5.566   4.164   0.277
 1166TIP3   OH2 3450   4.781   3.296   0.807
 1166TIP3    H1 3451   4.685   3.301   0.819
 1166TIP3    H2 3452   4.808   3.239   0.880
 1167TIP3   OH2 3453   4.503   4.375   0.450
 1167TIP3    H1 3454   4.562   4.306   0.483
 1167TIP3    H2 3455   4.525   4.449   0.508
 1168TIP3   OH2 3456   5.615   3.359   0.498
 1168TIP3    H1 3457   5.697   3.404   0.525
 1168TIP3    H2 3458   5.613   3.280   0.556
 1169TIP3   OH2 3459   5.459   3.611   0.566
 1169TIP3    H1 3460   5.486   3.661   0.646
 1169TIP3    H2 3461   5.514   3.531   0.572
 1170TIP3   OH2 3462   6.094   3.513   0.575
 1170TIP3    H1 3463   6.001   3.499   0.549
 1170TIP3    H2 3464   6.142   3.501   0.491
 1171TIP3   OH2 3465   4.796   2.931   0.410
 1171TIP3    H1 3466   4.763   2.895   0.325
 1171TIP3    H2 3467   4.789   2.853   0.470
 1172TIP3   OH2 3468   4.494   4.694   0.859
 1172TIP3    H1 3469   4.579   4.697   0.908
 1172TIP3    H2 3470   4.473   4.599   0.863
 1173TIP3   OH2 3471   4.973   4.651   0.909
 1173TIP3    H1 3472   5.067   4.631   0.913
 1173TIP3    H2 3473   4.943   4.591   0.838
 1174TIP3   OH2 3474   5.623   4.563   0.643
 1174TIP3    H1 3475   5.609   4.497   0.714
 1174TIP3    H2 3476   5.699   4.614   0.676
 1175TIP3   OH2 3477   4.623   4.097   1.062
 1175TIP3    H1 3478   4.636   4.001   1.069
 1175TIP3    H2 3479   4.535   4.102   1.019
 1176TIP3   OH2 3480   5.230   4.185   0.837
 1176TIP3    H1 3481   5.186   4.208   0.752
 1176TIP3    H2 3482   5.257   4.092   0.823
 1177TIP3   OH2 3483   5.725   4.182   0.424
 1177TIP3    H1 3484   5.795   4.226   0.375
 1177TIP3    H2 3485   5.662   4.256   0.438
 1178TIP3   OH2 3486   4.740   3.833   1.048
 1178TIP3    H1 3487   4.817   3.783   1.021
 1178TIP3    H2 3488   4.769   3.868   1.135
 1179TIP3   OH2 3489   5.078   3.716   0.709
 1179TIP3    H1 3490   4.998   3.773   0.707
 1179TIP3    H2 3491   5.129   3.750   0.633
 1180TIP3   OH2 3492   5.593   4.118   0.839
 1180TIP3    H1 3493   5.677   4.095   0.797
 1180TIP3    H2 3494   5.588   4.054   0.911
 1181TIP3   OH2 3495   5.204   3.506   0.829
 1181TIP3    H1 3496   5.201   3.427   0.771
 1181TIP3    H2 3497   5.158   3.573   0.773
 1182TIP3   OH2 3498   5.203   3.290   0.642
 1182TIP3    H1 3499   5.231   3.334   0.559
 1182TIP3    H2 3500   5.109   3.269   0.622
 1183TIP3   OH2 3501   5.226   3.822   0.515
 1183TIP3    H1 3502   5.307   3.839   0.465
 1183TIP3    H2 3503   5.164   3.888   0.477
 1184TIP3   OH2 3504   5.812   3.790   0.892
 1184TIP3    H1 3505   5.863   3.708   0.896
 1184TIP3    H2 3506   5.878   3.852   0.857
 1185TIP3   OH2 3507   5.851   4.050   0.626
 1185TIP3    H1 3508   5.796   4.101   0.562
 1185TIP3    H2 3509   5.940   4.071   0.591
 1186TIP3   OH2 3510   5.088   3.605   1.069
 1186TIP3    H1 3511   5.014   3.542   1.082
 1186TIP3    H2 3512   5.111   3.589   0.975
 1187TIP3   OH2 3513   5.334   3.054   0.718
 1187TIP3    H1 3514   5.285   3.134   0.690
 1187TIP3    H2 3515   5.266   2.984   0.703
 1188TIP3   OH2 3516   5.461   3.552   0.926
 1188TIP3    H1 3517   5.434   3.549   1.020
 1188TIP3    H2 3518   5.375   3.532   0.884
 1189TIP3   OH2 3519   5.698   3.508   0.777
 1189TIP3    H1 3520   5.626   3.511   0.842
 1189TIP3    H2 3521   5.775   3.480   0.833
 1190TIP3   OH2 3522   5.915   3.446   0.932
 1190TIP3    H1 3523   5.939   3.352   0.945
 1190TIP3    H2 3524   5.928   3.484   1.021
 1191TIP3   OH2 3525   4.916   3.393   1.116
 1191TIP3    H1 3526   4.916   3.301   1.085
 1191TIP3    H2 3527   4.950   3.381   1.207
 1192TIP3   OH2 3528   5.438   3.071   0.975
 1192TIP3    H1 3529   5.499   2.995   0.965
 1192TIP3    H2 3530   5.393   3.069   0.888
 1193TIP3   OH2 3531   5.491   3.264   1.159
 1193TIP3    H1 3532   5.478   3.198   1.086
 1193TIP3    H2 3533   5.416   3.325   1.140
 1194TIP3   OH2 3534   4.243   4.349   0.029
 1194TIP3    H1 3535   4.218   4.278   0.090
 1194TIP3    H2 3536   4.284   4.411   0.091
 1195TIP3   OH2 3537   6.046   4.446   0.698
 1195TIP3    H1 3538   5.978   4.465   0.766
 1195TIP3    H2 3539   6.094   4.530   0.692
 1196TIP3   OH2 3540   4.431   3.759   0.413
 1196TIP3    H1 3541   4.430   3.729   0.320
 1196TIP3    H2 3542   4.528   3.761   0.431
 1197TIP3   OH2 3543   6.095   4.119   0.515
 1197TIP3    H1 3544   6.168   4.053   0.517
 1197TIP3    H2 3545   6.113   4.167   0.433
 1198TIP3   OH2 3546   6.276   3.923   0.558
 1198TIP3    H1 3547   6.202   3.867   0.588
 1198TIP3    H2 3548   6.348   3.857   0.558
 1199TIP3   OH2 3549   6.009   3.766   0.287
 1199TIP3    H1 3550   5.930   3.766   0.345
 1199TIP3    H2 3551   6.010   3.857   0.255
 1200TIP3   OH2 3552   4.649   3.443   1.091
 1200TIP3    H1 3553   4.747   3.438   1.092
 1200TIP3    H2 3554   4.626   3.357   1.130
 1201TIP3   OH2 3555   6.486   3.311   0.846
 1201TIP3    H1 3556   6.546   3.249   0.800
 1201TIP3    H2 3557   6.452   3.364   0.770
 1202TIP3   OH2 3558   4.611   3.138   0.411
 1202TIP3    H1 3559   4.674   3.065   0.427
 1202TIP3    H2 3560   4.671   3.215   0.409
 1203TIP3   OH2 3561   4.412   3.409   0.490
 1203TIP3    H1 3562   4.464   3.413   0.407
 1203TIP3    H2 3563   4.435   3.494   0.531
 1204TIP3   OH2 3564   6.351   3.456   0.662
 1204TIP3    H1 3565   6.260   3.491   0.672
 1204TIP3    H2 3566   6.337   3.401   0.582
 1205TIP3   OH2 3567   4.379   2.927  -0.021
 1205TIP3    H1 3568   4.300   2.910   0.035
 1205TIP3    H2 3569   4.359   3.014  -0.056
 1206TIP3   OH2 3570   4.621   2.997   0.799
 1206TIP3    H1 3571   4.571   2.988   0.882
 1206TIP3    H2 3572   4.553   3.035   0.741
 1207TIP3   OH2 3573   4.659   4.418   0.881
 1207TIP3    H1 3574   4.565   4.399   0.866
 1207TIP3    H2 3575   4.665   4.410   0.977
 1208TIP3   OH2 3576   4.823   4.460   0.441
 1208TIP3    H1 3577   4.782   4.542   0.409
 1208TIP3    H2 3578   4.914   4.474   0.405
 1209TIP3   OH2 3579   5.297   4.669   0.576
 1209TIP3    H1 3580   5.342   4.710   0.652
 1209TIP3    H2 3581   5.274   4.745   0.518
 1210TIP3   OH2 3582   5.526   4.867   0.396
 1210TIP3    H1 3583   5.489   4.777   0.406
 1210TIP3    H2 3584   5.540   4.896   0.488
 1211TIP3   OH2 3585   6.232   3.203   0.550
 1211TIP3    H1 3586   6.144   3.195   0.510
 1211TIP3    H2 3587   6.269   3.113   0.535
 1212TIP3   OH2 3588   4.509   4.701   0.483
 1212TIP3    H1 3589   4.423   4.729   0.446
 1212TIP3    H2 3590   4.513   4.761   0.559
 1213TIP3   OH2 3591   4.742   4.726   0.350
 1213TIP3    H1 3592   4.668   4.713   0.414
 1213TIP3    H2 3593   4.695   4.783   0.287
 1214TIP3   OH2 3594   4.413   4.489   0.216
 1214TIP3    H1 3595   4.436   4.460   0.307
 1214TIP3    H2 3596   4.496   4.465   0.171
 1215TIP3   OH2 3597   5.426   3.121   0.146
 1215TIP3    H1 3598   5.387   3.056   0.208
 1215TIP3    H2 3599   5.517   3.087   0.136
 1216TIP3   OH2 3600   4.709   2.821   0.166
 1216TIP3    H1 3601   4.613   2.800   0.166
 1216TIP3    H2 3602   4.744   2.733   0.185
 1217TIP3   OH2 3603   4.444   2.715  -0.185
 1217TIP3    H1 3604   4.523   2.752  -0.228
 1217TIP3    H2 3605   4.433   2.776  -0.109
 1218TIP3   OH2 3606   5.154   2.865   0.057
 1218TIP3    H1 3607   5.172   2.935  -0.007
 1218TIP3    H2 3608   5.184   2.904   0.140
 1219TIP3   OH2 3609   5.691   3.050   0.089
 1219TIP3    H1 3610   5.774   3.048   0.038
 1219TIP3    H2 3611   5.682   2.957   0.116
 1220TIP3   OH2 3612   4.915   3.122   1.054
 1220TIP3    H1 3613   4.874   3.053   1.109
 1220TIP3    H2 3614   5.008   3.119   1.086
 1221TIP3   OH2 3615   5.169   3.121   1.177
 1221TIP3    H1 3616   5.243   3.082   1.127
 1221TIP3    H2 3617   5.151   3.051   1.243
 1222TIP3   OH2 3618   5.988   3.179   0.962
 1222TIP3    H1 3619   6.004   3.147   1.054
 1222TIP3    H2 3620   6.078   3.174   0.925
 1223TIP3   OH2 3621   5.943   4.754   0.450
 1223TIP3    H1 3622   5.896   4.674   0.425
 1223TIP3    H2 3623   5.872   4.819   0.459
 1224TIP3   OH2 3624   6.583   3.572   0.337
 1224TIP3    H1 3625   6.490   3.549   0.326
 1224TIP3    H2 3626   6.622   3.486   0.355
 1225TIP3   OH2 3627   6.407   4.347   0.567
 1225TIP3    H1 3628   6.432   4.257   0.543
 1225TIP3    H2 3629   6.335   4.369   0.505
 1226TIP3   OH2 3630   6.558   4.087   0.524
 1226TIP3    H1 3631   6.575   3.993   0.533
 1226TIP3    H2 3632   6.579   4.121   0.614
 1227TIP3   OH2 3633   6.891   3.863   0.562
 1227TIP3    H1 3634   6.821   3.795   0.568
 1227TIP3    H2 3635   6.878   3.902   0.474
 1228TIP3   OH2 3636   6.713   3.654   0.604
 1228TIP3    H1 3637   6.705   3.568   0.558
 1228TIP3    H2 3638   6.744   3.626   0.692
 1229TIP3   OH2 3639   7.192   3.472   0.587
 1229TIP3    H1 3640   7.274   3.472   0.536
 1229TIP3    H2 3641   7.177   3.568   0.600
 1230TIP3   OH2 3642   6.442   3.708   0.577
 1230TIP3    H1 3643   6.537   3.695   0.560
 1230TIP3    H2 3644   6.421   3.624   0.622
 1231TIP3   OH2 3645   6.421   3.232   0.344
 1231TIP3    H1 3646   6.356   3.245   0.415
 1231TIP3    H2 3647   6.396   3.298   0.278
 1232TIP3   OH2 3648   6.707   3.367   0.542
 1232TIP3    H1 3649   6.671   3.296   0.598
 1232TIP3    H2 3650   6.799   3.371   0.575
 1233TIP3   OH2 3651   6.951   3.383   0.670
 1233TIP3    H1 3652   7.043   3.408   0.641
 1233TIP3    H2 3653   6.967   3.300   0.717
 1234TIP3   OH2 3654   0.469   4.427   1.344
 1234TIP3    H1 3655   0.498   4.515   1.375
 1234TIP3    H2 3656   0.464   4.440   1.248
 1235TIP3   OH2 3657   0.539   4.643   1.510
 1235TIP3    H1 3658   0.452   4.686   1.495
 1235TIP3    H2 3659   0.559   4.675   1.599
 1236TIP3   OH2 3660   0.153   4.312   1.205
 1236TIP3    H1 3661   0.079   4.344   1.260
 1236TIP3    H2 3662   0.177   4.393   1.159
 1237TIP3   OH2 3663   0.257   4.334   1.503
 1237TIP3    H1 3664   0.170   4.354   1.463
 1237TIP3    H2 3665   0.317   4.364   1.431
 1238TIP3   OH2 3666   0.391   4.971   1.366
 1238TIP3    H1 3667   0.364   5.057   1.330
 1238TIP3    H2 3668   0.370   4.914   1.289
 1239TIP3   OH2 3669   0.044   4.868   1.641
 1239TIP3    H1 3670   0.057   4.936   1.711
 1239TIP3    H2 3671  -0.053   4.879   1.628
 1240TIP3   OH2 3672   0.461   5.690   1.562
 1240TIP3    H1 3673   0.421   5.605   1.540
 1240TIP3    H2 3674   0.388   5.750   1.545
 1241TIP3   OH2 3675   0.310   4.814   1.810
 1241TIP3    H1 3676   0.238   4.824   1.747
 1241TIP3    H2 3677   0.332   4.719   1.800
 1242TIP3   OH2 3678  -0.131   4.168   1.802
 1242TIP3    H1 3679  -0.058   4.140   1.861
 1242TIP3    H2 3680  -0.210   4.145   1.855
 1243TIP3   OH2 3681   0.078   4.593   1.715
 1243TIP3    H1 3682   0.036   4.586   1.804
 1243TIP3    H2 3683   0.054   4.682   1.687
 1244TIP3   OH2 3684  -0.198   4.821   1.947
 1244TIP3    H1 3685  -0.225   4.749   2.007
 1244TIP3    H2 3686  -0.108   4.838   1.980
 1245TIP3   OH2 3687  -0.014   4.349   1.414
 1245TIP3    H1 3688  -0.064   4.365   1.496
 1245TIP3    H2 3689  -0.041   4.259   1.387
 1246TIP3   OH2 3690   0.461   5.358   1.619
 1246TIP3    H1 3691   0.385   5.416   1.597
 1246TIP3    H2 3692   0.499   5.345   1.530
 1247TIP3   OH2 3693  -0.130   4.404   1.661
 1247TIP3    H1 3694  -0.044   4.446   1.682
 1247TIP3    H2 3695  -0.126   4.322   1.716
 1248TIP3   OH2 3696  -0.293   4.611   1.771
 1248TIP3    H1 3697  -0.232   4.666   1.822
 1248TIP3    H2 3698  -0.236   4.537   1.743
 1249TIP3   OH2 3699   0.347   4.552   1.726
 1249TIP3    H1 3700   0.249   4.551   1.726
 1249TIP3    H2 3701   0.364   4.512   1.640
 1250TIP3   OH2 3702  -0.143   5.150   2.059
 1250TIP3    H1 3703  -0.061   5.120   2.017
 1250TIP3    H2 3704  -0.144   5.093   2.139
 1251TIP3   OH2 3705   0.062   4.835   2.066
 1251TIP3    H1 3706   0.103   4.748   2.079
 1251TIP3    H2 3707   0.135   4.886   2.029
 1252TIP3   OH2 3708   0.085   5.088   1.806
 1252TIP3    H1 3709   0.022   5.157   1.777
 1252TIP3    H2 3710   0.168   5.111   1.758
 1253TIP3   OH2 3711  -0.388   4.103   1.886
 1253TIP3    H1 3712  -0.442   4.180   1.862
 1253TIP3    H2 3713  -0.453   4.032   1.868
 1254TIP3   OH2 3714  -0.273   4.595   2.089
 1254TIP3    H1 3715  -0.284   4.623   2.181
 1254TIP3    H2 3716  -0.361   4.560   2.068
 1255TIP3   OH2 3717  -0.038   4.552   1.951
 1255TIP3    H1 3718  -0.117   4.552   2.010
 1255TIP3    H2 3719   0.033   4.522   2.011
 1256TIP3   OH2 3720   0.180   4.492   2.108
 1256TIP3    H1 3721   0.193   4.397   2.125
 1256TIP3    H2 3722   0.173   4.530   2.199
 1257TIP3   OH2 3723  -0.302   4.105   2.148
 1257TIP3    H1 3724  -0.240   4.030   2.141
 1257TIP3    H2 3725  -0.344   4.101   2.060
 1258TIP3   OH2 3726  -0.305   4.328   2.298
 1258TIP3    H1 3727  -0.286   4.241   2.256
 1258TIP3    H2 3728  -0.370   4.360   2.234
 1259TIP3   OH2 3729   0.295   5.491   1.873
 1259TIP3    H1 3730   0.221   5.508   1.934
 1259TIP3    H2 3731   0.347   5.574   1.881
 1260TIP3   OH2 3732   0.326   5.136   1.692
 1260TIP3    H1 3733   0.399   5.070   1.693
 1260TIP3    H2 3734   0.371   5.214   1.654
 1261TIP3   OH2 3735   0.525   4.957   1.729
 1261TIP3    H1 3736   0.453   4.901   1.765
 1261TIP3    H2 3737   0.601   4.896   1.739
 1262TIP3   OH2 3738   0.233   4.613   1.266
 1262TIP3    H1 3739   0.304   4.651   1.212
 1262TIP3    H2 3740   0.248   4.655   1.352
 1263TIP3   OH2 3741   0.284   4.762   1.499
 1263TIP3    H1 3742   0.196   4.788   1.531
 1263TIP3    H2 3743   0.319   4.847   1.465
 1264TIP3   OH2 3744   0.732   4.358   2.019
 1264TIP3    H1 3745   0.794   4.293   1.978
 1264TIP3    H2 3746   0.703   4.410   1.940
 1265TIP3   OH2 3747   0.601   4.494   1.821
 1265TIP3    H1 3748   0.514   4.535   1.835
 1265TIP3    H2 3749   0.575   4.419   1.765
 1266TIP3   OH2 3750   0.501   4.259   1.707
 1266TIP3    H1 3751   0.414   4.252   1.664
 1266TIP3    H2 3752   0.535   4.167   1.696
 1267TIP3   OH2 3753   0.226   4.041   1.224
 1267TIP3    H1 3754   0.293   4.084   1.167
 1267TIP3    H2 3755   0.168   4.119   1.236
 1268TIP3   OH2 3756   0.377   4.151   1.034
 1268TIP3    H1 3757   0.413   4.118   0.950
 1268TIP3    H2 3758   0.352   4.241   1.009
 1269TIP3   OH2 3759  -0.074   4.120   1.272
 1269TIP3    H1 3760  -0.042   4.106   1.180
 1269TIP3    H2 3761  -0.085   4.028   1.301
 1270TIP3   OH2 3762   0.241   4.222   2.136
 1270TIP3    H1 3763   0.259   4.191   2.228
 1270TIP3    H2 3764   0.330   4.218   2.096
 1271TIP3   OH2 3765   1.429   5.146   0.383
 1271TIP3    H1 3766   1.458   5.237   0.398
 1271TIP3    H2 3767   1.341   5.145   0.423
 1272TIP3   OH2 3768   1.444   5.138   0.777
 1272TIP3    H1 3769   1.481   5.123   0.866
 1272TIP3    H2 3770   1.401   5.051   0.761
 1273TIP3   OH2 3771   0.731   5.055   1.127
 1273TIP3    H1 3772   0.749   4.994   1.200
 1273TIP3    H2 3773   0.820   5.062   1.086
 1274TIP3   OH2 3774   1.669   5.429   0.489
 1274TIP3    H1 3775   1.685   5.370   0.564
 1274TIP3    H2 3776   1.711   5.511   0.517
 1275TIP3   OH2 3777   1.256   5.366   0.827
 1275TIP3    H1 3778   1.293   5.284   0.790
 1275TIP3    H2 3779   1.338   5.413   0.851
 1276TIP3   OH2 3780   2.258   4.694   0.823
 1276TIP3    H1 3781   2.288   4.776   0.866
 1276TIP3    H2 3782   2.275   4.714   0.729
 1277TIP3   OH2 3783   1.663   4.876   0.853
 1277TIP3    H1 3784   1.698   4.788   0.878
 1277TIP3    H2 3785   1.626   4.856   0.765
 1278TIP3   OH2 3786   0.991   4.518   0.822
 1278TIP3    H1 3787   0.966   4.589   0.758
 1278TIP3    H2 3788   0.950   4.442   0.776
 1279TIP3   OH2 3789   1.688   4.623   0.439
 1279TIP3    H1 3790   1.756   4.605   0.508
 1279TIP3    H2 3791   1.746   4.656   0.368
 1280TIP3   OH2 3792   0.636   4.726   0.924
 1280TIP3    H1 3793   0.722   4.708   0.967
 1280TIP3    H2 3794   0.628   4.651   0.865
 1281TIP3   OH2 3795   1.061   4.912   0.767
 1281TIP3    H1 3796   1.157   4.893   0.767
 1281TIP3    H2 3797   1.023   4.830   0.731
 1282TIP3   OH2 3798   2.331   4.904   0.989
 1282TIP3    H1 3799   2.245   4.947   0.971
 1282TIP3    H2 3800   2.339   4.923   1.084
 1283TIP3   OH2 3801   0.980   4.499   1.260
 1283TIP3    H1 3802   0.931   4.548   1.191
 1283TIP3    H2 3803   0.938   4.534   1.340
 1284TIP3   OH2 3804   1.107   5.291   1.041
 1284TIP3    H1 3805   1.055   5.364   1.080
 1284TIP3    H2 3806   1.148   5.333   0.962
 1285TIP3   OH2 3807   1.893   4.629   0.618
 1285TIP3    H1 3808   1.870   4.586   0.702
 1285TIP3    H2 3809   1.943   4.707   0.648
 1286TIP3   OH2 3810   0.867   4.628   1.040
 1286TIP3    H1 3811   0.930   4.700   1.067
 1286TIP3    H2 3812   0.920   4.584   0.970
 1287TIP3   OH2 3813   0.948   5.494   1.145
 1287TIP3    H1 3814   0.911   5.569   1.097
 1287TIP3    H2 3815   0.879   5.479   1.213
 1288TIP3   OH2 3816   1.760   5.698   0.628
 1288TIP3    H1 3817   1.672   5.677   0.668
 1288TIP3    H2 3818   1.740   5.781   0.583
 1289TIP3   OH2 3819   2.050   4.593   0.990
 1289TIP3    H1 3820   1.961   4.618   0.960
 1289TIP3    H2 3821   2.107   4.626   0.917
 1290TIP3   OH2 3822   1.342   4.235   0.966
 1290TIP3    H1 3823   1.326   4.142   0.989
 1290TIP3    H2 3824   1.271   4.278   1.020
 1291TIP3   OH2 3825   1.982   5.605   0.967
 1291TIP3    H1 3826   1.969   5.526   0.910
 1291TIP3    H2 3827   1.967   5.678   0.903
 1292TIP3   OH2 3828   2.178   5.244   0.814
 1292TIP3    H1 3829   2.093   5.294   0.819
 1292TIP3    H2 3830   2.207   5.269   0.723
 1293TIP3   OH2 3831   1.618   5.031   0.210
 1293TIP3    H1 3832   1.571   5.072   0.285
 1293TIP3    H2 3833   1.710   5.032   0.243
 1294TIP3   OH2 3834   1.856   5.122   1.107
 1294TIP3    H1 3835   1.850   5.204   1.161
 1294TIP3    H2 3836   1.767   5.122   1.066
 1295TIP3   OH2 3837   0.973   5.051   0.991
 1295TIP3    H1 3838   0.998   5.017   0.903
 1295TIP3    H2 3839   1.024   5.135   0.996
 1296TIP3   OH2 3840   1.520   5.681   0.744
 1296TIP3    H1 3841   1.512   5.761   0.799
 1296TIP3    H2 3842   1.501   5.609   0.807
 1297TIP3   OH2 3843   1.138   5.611   1.301
 1297TIP3    H1 3844   1.072   5.672   1.341
 1297TIP3    H2 3845   1.080   5.557   1.244
 1298TIP3   OH2 3846   0.894   5.165   1.403
 1298TIP3    H1 3847   0.890   5.253   1.445
 1298TIP3    H2 3848   0.800   5.138   1.407
 1299TIP3   OH2 3849   0.920   5.768   1.379
 1299TIP3    H1 3850   0.855   5.791   1.311
 1299TIP3    H2 3851   0.860   5.737   1.450
 1300TIP3   OH2 3852   1.980   4.185   0.070
 1300TIP3    H1 3853   1.897   4.194   0.121
 1300TIP3    H2 3854   1.984   4.270   0.024
 1301TIP3   OH2 3855   0.547   5.313   1.369
 1301TIP3    H1 3856   0.475   5.307   1.304
 1301TIP3    H2 3857   0.578   5.221   1.377
 1302TIP3   OH2 3858   2.219   5.951   1.013
 1302TIP3    H1 3859   2.219   5.855   1.030
 1302TIP3    H2 3860   2.137   5.976   1.062
 1303TIP3   OH2 3861   1.332   5.733   1.155
 1303TIP3    H1 3862   1.330   5.826   1.186
 1303TIP3    H2 3863   1.261   5.694   1.211
 1304TIP3   OH2 3864   2.108   5.080   1.288
 1304TIP3    H1 3865   2.023   5.087   1.243
 1304TIP3    H2 3866   2.125   4.984   1.282
 1305TIP3   OH2 3867   0.743   5.494   1.315
 1305TIP3    H1 3868   0.788   5.486   1.401
 1305TIP3    H2 3869   0.664   5.437   1.331
 1306TIP3   OH2 3870   1.113   4.313   1.103
 1306TIP3    H1 3871   1.022   4.287   1.080
 1306TIP3    H2 3872   1.093   4.391   1.160
 1307TIP3   OH2 3873   1.889   4.868   1.221
 1307TIP3    H1 3874   1.827   4.852   1.296
 1307TIP3    H2 3875   1.849   4.943   1.175
 1308TIP3   OH2 3876   1.254   4.354   0.068
 1308TIP3    H1 3877   1.229   4.352   0.163
 1308TIP3    H2 3878   1.305   4.273   0.059
 1309TIP3   OH2 3879   1.037   4.823   1.125
 1309TIP3    H1 3880   0.985   4.844   1.205
 1309TIP3    H2 3881   1.026   4.906   1.074
 1310TIP3   OH2 3882   0.919   4.698   0.633
 1310TIP3    H1 3883   0.827   4.699   0.606
 1310TIP3    H2 3884   0.964   4.706   0.546
 1311TIP3   OH2 3885   1.414   4.806   0.359
 1311TIP3    H1 3886   1.389   4.894   0.330
 1311TIP3    H2 3887   1.470   4.776   0.284
 1312TIP3   OH2 3888   1.588   5.079   1.452
 1312TIP3    H1 3889   1.565   5.005   1.512
 1312TIP3    H2 3890   1.683   5.088   1.470
 1313TIP3   OH2 3891   1.577   4.825   0.596
 1313TIP3    H1 3892   1.505   4.849   0.534
 1313TIP3    H2 3893   1.608   4.743   0.552
 1314TIP3   OH2 3894   0.848   4.858   1.326
 1314TIP3    H1 3895   0.887   4.919   1.390
 1314TIP3    H2 3896   0.841   4.775   1.377
 1315TIP3   OH2 3897   0.450   4.407   0.915
 1315TIP3    H1 3898   0.528   4.410   0.974
 1315TIP3    H2 3899   0.486   4.370   0.833
 1316TIP3   OH2 3900   1.582   5.073   1.016
 1316TIP3    H1 3901   1.615   5.001   0.958
 1316TIP3    H2 3902   1.554   5.020   1.094
 1317TIP3   OH2 3903   1.247   4.539   0.699
 1317TIP3    H1 3904   1.168   4.530   0.755
 1317TIP3    H2 3905   1.319   4.528   0.763
 1318TIP3   OH2 3906   1.739   4.610   0.894
 1318TIP3    H1 3907   1.713   4.619   0.989
 1318TIP3    H2 3908   1.669   4.551   0.862
 1319TIP3   OH2 3909   1.913   6.300   1.119
 1319TIP3    H1 3910   1.914   6.321   1.024
 1319TIP3    H2 3911   1.993   6.346   1.150
 1320TIP3   OH2 3912   0.877   5.412   1.542
 1320TIP3    H1 3913   0.957   5.440   1.591
 1320TIP3    H2 3914   0.812   5.413   1.615
 1321TIP3   OH2 3915   1.338   4.872   0.783
 1321TIP3    H1 3916   1.406   4.811   0.754
 1321TIP3    H2 3917   1.327   4.844   0.877
 1322TIP3   OH2 3918   0.852   4.344   0.652
 1322TIP3    H1 3919   0.817   4.272   0.709
 1322TIP3    H2 3920   0.885   4.295   0.575
 1323TIP3   OH2 3921   1.310   4.794   1.036
 1323TIP3    H1 3922   1.223   4.783   1.079
 1323TIP3    H2 3923   1.371   4.796   1.111
 1324TIP3   OH2 3924   1.943   5.388   0.802
 1324TIP3    H1 3925   1.966   5.438   0.722
 1324TIP3    H2 3926   1.859   5.344   0.776
 1325TIP3   OH2 3927   1.519   4.470   0.046
 1325TIP3    H1 3928   1.429   4.446   0.018
 1325TIP3    H2 3929   1.517   4.567   0.047
 1326TIP3   OH2 3930   1.455   5.476   1.168
 1326TIP3    H1 3931   1.469   5.442   1.258
 1326TIP3    H2 3932   1.409   5.560   1.183
 1327TIP3   OH2 3933   1.574   4.744   0.125
 1327TIP3    H1 3934   1.659   4.715   0.164
 1327TIP3    H2 3935   1.595   4.837   0.106
 1328TIP3   OH2 3936   0.636   5.075   1.471
 1328TIP3    H1 3937   0.651   5.070   1.567
 1328TIP3    H2 3938   0.562   5.013   1.458
 1329TIP3   OH2 3939   1.345   5.209   1.485
 1329TIP3    H1 3940   1.285   5.154   1.433
 1329TIP3    H2 3941   1.432   5.173   1.458
 1330TIP3   OH2 3942   1.605   5.740   1.062
 1330TIP3    H1 3943   1.510   5.727   1.080
 1330TIP3    H2 3944   1.632   5.786   1.144
 1331TIP3   OH2 3945   2.006   4.789  -0.021
 1331TIP3    H1 3946   1.957   4.748  -0.095
 1331TIP3    H2 3947   2.002   4.882  -0.054
 1332TIP3   OH2 3948   2.233   5.663   1.056
 1332TIP3    H1 3949   2.135   5.655   1.049
 1332TIP3    H2 3950   2.258   5.631   0.966
 1333TIP3   OH2 3951   1.709   5.252   0.712
 1333TIP3    H1 3952   1.618   5.224   0.733
 1333TIP3    H2 3953   1.744   5.169   0.675
 1334TIP3   OH2 3954   1.111   5.852   1.006
 1334TIP3    H1 3955   1.115   5.836   0.909
 1334TIP3    H2 3956   1.193   5.810   1.036
 1335TIP3   OH2 3957   1.502   5.452   0.904
 1335TIP3    H1 3958   1.486   5.455   1.001
 1335TIP3    H2 3959   1.579   5.395   0.898
 1336TIP3   OH2 3960   1.752   5.989   0.960
 1336TIP3    H1 3961   1.674   5.930   0.953
 1336TIP3    H2 3962   1.734   6.052   0.888
 1337TIP3   OH2 3963   0.827   4.607   1.471
 1337TIP3    H1 3964   0.729   4.604   1.479
 1337TIP3    H2 3965   0.854   4.542   1.538
 1338TIP3   OH2 3966   1.665   4.652   1.154
 1338TIP3    H1 3967   1.728   4.664   1.227
 1338TIP3    H2 3968   1.600   4.593   1.199
 1339TIP3   OH2 3969   1.550   4.406   0.318
 1339TIP3    H1 3970   1.539   4.431   0.224
 1339TIP3    H2 3971   1.584   4.489   0.357
 1340TIP3   OH2 3972   1.265   4.576   0.425
 1340TIP3    H1 3973   1.312   4.660   0.411
 1340TIP3    H2 3974   1.249   4.577   0.522
 1341TIP3   OH2 3975   1.518   4.919   1.232
 1341TIP3    H1 3976   1.537   4.971   1.312
 1341TIP3    H2 3977   1.556   4.833   1.254
 1342TIP3   OH2 3978   1.380   4.311   0.526
 1342TIP3    H1 3979   1.375   4.388   0.585
 1342TIP3    H2 3980   1.436   4.348   0.453
 1343TIP3   OH2 3981   0.899   4.269   0.381
 1343TIP3    H1 3982   0.888   4.354   0.335
 1343TIP3    H2 3983   0.992   4.250   0.360
 1344TIP3   OH2 3984   2.149   4.811   1.208
 1344TIP3    H1 3985   2.051   4.817   1.221
 1344TIP3    H2 3986   2.150   4.759   1.126
 1345TIP3   OH2 3987   1.795   5.009   0.601
 1345TIP3    H1 3988   1.720   4.948   0.614
 1345TIP3    H2 3989   1.867   4.961   0.649
 1346TIP3   OH2 3990   1.759   5.984   0.540
 1346TIP3    H1 3991   1.730   5.972   0.449
 1346TIP3    H2 3992   1.854   6.005   0.526
 1347TIP3   OH2 3993   0.841   4.229   1.073
 1347TIP3    H1 3994   0.810   4.194   0.987
 1347TIP3    H2 3995   0.832   4.151   1.131
 1348TIP3   OH2 3996   0.596   5.972   1.516
 1348TIP3    H1 3997   0.674   5.969   1.574
 1348TIP3    H2 3998   0.573   5.879   1.508
 1349TIP3   OH2 3999   1.018   5.945   1.577
 1349TIP3    H1 4000   1.113   5.928   1.580
 1349TIP3    H2 4001   0.991   5.889   1.502
 1350TIP3   OH2 4002   1.658   5.862   1.303
 1350TIP3    H1 4003   1.648   5.793   1.372
 1350TIP3    H2 4004   1.734   5.913   1.336
 1351TIP3   OH2 4005   0.695   5.394   1.749
 1351TIP3    H1 4006   0.719   5.299   1.751
 1351TIP3    H2 4007   0.604   5.387   1.712
 1352TIP3   OH2 4008   1.276   5.483   1.504
 1352TIP3    H1 4009   1.236   5.505   1.418
 1352TIP3    H2 4010   1.304   5.389   1.493
 1353TIP3   OH2 4011   1.768   5.493   1.107
 1353TIP3    H1 4012   1.841   5.541   1.065
 1353TIP3    H2 4013   1.694   5.554   1.093
 1354TIP3   OH2 4014   0.790   5.130   1.716
 1354TIP3    H1 4015   0.868   5.086   1.679
 1354TIP3    H2 4016   0.823   5.157   1.804
 1355TIP3   OH2 4017   1.118   5.012   1.370
 1355TIP3    H1 4018   1.042   5.075   1.370
 1355TIP3    H2 4019   1.174   5.050   1.299
 1356TIP3   OH2 4020   1.641   5.421   1.504
 1356TIP3    H1 4021   1.716   5.387   1.455
 1356TIP3    H2 4022   1.630   5.354   1.574
 1357TIP3   OH2 4023   1.246   4.806   1.500
 1357TIP3    H1 4024   1.252   4.723   1.451
 1357TIP3    H2 4025   1.200   4.865   1.436
 1358TIP3   OH2 4026   1.274   5.135   1.194
 1358TIP3    H1 4027   1.351   5.116   1.139
 1358TIP3    H2 4028   1.220   5.193   1.136
 1359TIP3   OH2 4029   1.854   5.093   1.558
 1359TIP3    H1 4030   1.897   5.006   1.564
 1359TIP3    H2 4031   1.924   5.148   1.520
 1360TIP3   OH2 4032   1.896   5.349   1.296
 1360TIP3    H1 4033   1.839   5.402   1.236
 1360TIP3    H2 4034   1.984   5.368   1.256
 1361TIP3   OH2 4035   1.122   4.915   1.731
 1361TIP3    H1 4036   1.056   4.844   1.743
 1361TIP3    H2 4037   1.156   4.895   1.642
 1362TIP3   OH2 4038   1.505   4.861   1.589
 1362TIP3    H1 4039   1.489   4.842   1.683
 1362TIP3    H2 4040   1.417   4.834   1.553
 1363TIP3   OH2 4041   1.743   4.811   1.442
 1363TIP3    H1 4042   1.667   4.803   1.502
 1363TIP3    H2 4043   1.817   4.776   1.496
 1364TIP3   OH2 4044   1.978   4.754   1.592
 1364TIP3    H1 4045   1.989   4.658   1.605
 1364TIP3    H2 4046   1.972   4.788   1.683
 1365TIP3   OH2 4047   0.961   4.695   1.783
 1365TIP3    H1 4048   0.964   4.604   1.747
 1365TIP3    H2 4049   1.000   4.680   1.872
 1366TIP3   OH2 4050   1.462   4.371   1.621
 1366TIP3    H1 4051   1.523   4.295   1.609
 1366TIP3    H2 4052   1.458   4.403   1.528
 1367TIP3   OH2 4053   1.539   4.577   1.788
 1367TIP3    H1 4054   1.520   4.507   1.722
 1367TIP3    H2 4055   1.461   4.635   1.777
 1368TIP3   OH2 4056   2.016   6.065   0.506
 1368TIP3    H1 4057   2.048   6.088   0.595
 1368TIP3    H2 4058   2.089   6.095   0.450
 1369TIP3   OH2 4059   2.052   6.074   0.789
 1369TIP3    H1 4060   2.002   5.989   0.787
 1369TIP3    H2 4061   2.125   6.047   0.846
 1370TIP3   OH2 4062   2.092   5.751   1.360
 1370TIP3    H1 4063   2.021   5.760   1.426
 1370TIP3    H2 4064   2.135   5.838   1.365
 1371TIP3   OH2 4065   1.932   5.241  -0.025
 1371TIP3    H1 4066   2.001   5.307  -0.044
 1371TIP3    H2 4067   1.961   5.209   0.062
 1372TIP3   OH2 4068   2.046   5.120   0.191
 1372TIP3    H1 4069   1.977   5.083   0.250
 1372TIP3    H2 4070   2.104   5.167   0.254
 1373TIP3   OH2 4071   2.094   5.525   0.614
 1373TIP3    H1 4072   2.147   5.456   0.570
 1373TIP3    H2 4073   2.088   5.595   0.546
 1374TIP3   OH2 4074   1.924   5.828   0.808
 1374TIP3    H1 4075   1.852   5.862   0.865
 1374TIP3    H2 4076   1.873   5.778   0.740
 1375TIP3   OH2 4077   1.985   5.017  -0.165
 1375TIP3    H1 4078   1.918   5.032  -0.233
 1375TIP3    H2 4079   1.965   5.096  -0.109
 1376TIP3   OH2 4080   1.866   4.711  -0.253
 1376TIP3    H1 4081   1.786   4.768  -0.244
 1376TIP3    H2 4082   1.828   4.621  -0.245
 1377TIP3   OH2 4083   1.860   4.985   0.337
 1377TIP3    H1 4084   1.863   4.888   0.334
 1377TIP3    H2 4085   1.842   5.002   0.432
 1378TIP3   OH2 4086   2.142   5.414   1.187
 1378TIP3    H1 4087   2.212   5.346   1.177
 1378TIP3    H2 4088   2.169   5.481   1.122
 1379TIP3   OH2 4089   2.325   5.215   1.196
 1379TIP3    H1 4090   2.249   5.165   1.235
 1379TIP3    H2 4091   2.397   5.151   1.214
 1380TIP3   OH2 4092   1.776   4.453  -0.223
 1380TIP3    H1 4093   1.864   4.419  -0.195
 1380TIP3    H2 4094   1.718   4.413  -0.157
 1381TIP3   OH2 4095   1.841   4.699   0.222
 1381TIP3    H1 4096   1.882   4.610   0.234
 1381TIP3    H2 4097   1.900   4.735   0.154
 1382TIP3   OH2 4098   2.008   4.874   0.718
 1382TIP3    H1 4099   2.094   4.900   0.678
 1382TIP3    H2 4100   2.020   4.911   0.808
 1383TIP3   OH2 4101   2.079   5.021   0.947
 1383TIP3    H1 4102   2.002   5.053   0.999
 1383TIP3    H2 4103   2.111   5.104   0.906
 1384TIP3   OH2 4104   0.695   4.748   1.757
 1384TIP3    H1 4105   0.792   4.742   1.754
 1384TIP3    H2 4106   0.673   4.660   1.793
 1385TIP3   OH2 4107   2.530   4.616   1.505
 1385TIP3    H1 4108   2.590   4.550   1.464
 1385TIP3    H2 4109   2.499   4.667   1.427
 1386TIP3   OH2 4110   1.958   4.453   0.258
 1386TIP3    H1 4111   2.003   4.440   0.344
 1386TIP3    H2 4112   1.896   4.377   0.259
 1387TIP3   OH2 4113   0.664   4.441   1.080
 1387TIP3    H1 4114   0.722   4.363   1.092
 1387TIP3    H2 4115   0.731   4.512   1.080
 1388TIP3   OH2 4116   0.473   4.731   1.155
 1388TIP3    H1 4117   0.512   4.702   1.071
 1388TIP3    H2 4118   0.525   4.811   1.167
 1389TIP3   OH2 4119   2.399   4.750   1.308
 1389TIP3    H1 4120   2.315   4.794   1.328
 1389TIP3    H2 4121   2.366   4.677   1.252
 1390TIP3   OH2 4122   2.040   4.393  -0.130
 1390TIP3    H1 4123   2.108   4.326  -0.149
 1390TIP3    H2 4124   2.097   4.470  -0.109
 1391TIP3   OH2 4125   0.667   4.296   1.475
 1391TIP3    H1 4126   0.611   4.293   1.555
 1391TIP3    H2 4127   0.604   4.334   1.411
 1392TIP3   OH2 4128   0.733   5.705   1.564
 1392TIP3    H1 4129   0.638   5.688   1.547
 1392TIP3    H2 4130   0.736   5.697   1.660
 1393TIP3   OH2 4131   1.327   5.999   1.229
 1393TIP3    H1 4132   1.373   5.999   1.316
 1393TIP3    H2 4133   1.391   6.050   1.175
 1394TIP3   OH2 4134   1.508   6.154   1.089
 1394TIP3    H1 4135   1.580   6.097   1.059
 1394TIP3    H2 4136   1.556   6.213   1.152
 1395TIP3   OH2 4137   2.300   4.514   1.189
 1395TIP3    H1 4138   2.209   4.504   1.157
 1395TIP3    H2 4139   2.333   4.421   1.181
 1396TIP3   OH2 4140   1.517   5.959   0.820
 1396TIP3    H1 4141   1.423   5.974   0.796
 1396TIP3    H2 4142   1.554   6.045   0.797
 1397TIP3   OH2 4143   1.706   6.169   0.737
 1397TIP3    H1 4144   1.648   6.225   0.684
 1397TIP3    H2 4145   1.731   6.100   0.671
 1398TIP3   OH2 4146   1.498   4.428   0.804
 1398TIP3    H1 4147   1.457   4.364   0.865
 1398TIP3    H2 4148   1.575   4.379   0.770
 1399TIP3   OH2 4149   2.026   4.308   0.711
 1399TIP3    H1 4150   2.060   4.363   0.637
 1399TIP3    H2 4151   1.930   4.326   0.708
 1400TIP3   OH2 4152   2.121   4.411   0.475
 1400TIP3    H1 4153   2.196   4.359   0.439
 1400TIP3    H2 4154   2.155   4.503   0.463
 1401TIP3   OH2 4155   0.746   4.143   0.819
 1401TIP3    H1 4156   0.659   4.097   0.824
 1401TIP3    H2 4157   0.806   4.065   0.819
 1402TIP3   OH2 4158   1.200   4.169   0.710
 1402TIP3    H1 4159   1.259   4.219   0.651
 1402TIP3    H2 4160   1.222   4.209   0.796
 1403TIP3   OH2 4161   1.745   4.318   0.687
 1403TIP3    H1 4162   1.740   4.275   0.601
 1403TIP3    H2 4163   1.731   4.241   0.748
 1404TIP3   OH2 4164   1.776   4.240   0.254
 1404TIP3    H1 4165   1.688   4.282   0.266
 1404TIP3    H2 4166   1.761   4.155   0.300
 1405TIP3   OH2 4167   1.179   4.337   0.330
 1405TIP3    H1 4168   1.226   4.290   0.401
 1405TIP3    H2 4169   1.199   4.429   0.359
 1406TIP3   OH2 4170   0.959   4.419   1.719
 1406TIP3    H1 4171   0.926   4.347   1.775
 1406TIP3    H2 4172   1.054   4.418   1.743
 1407TIP3   OH2 4173   1.212   4.418   1.834
 1407TIP3    H1 4174   1.292   4.397   1.782
 1407TIP3    H2 4175   1.208   4.343   1.896
 1408TIP3   OH2 4176   2.040   4.487   1.626
 1408TIP3    H1 4177   2.054   4.450   1.716
 1408TIP3    H2 4178   2.128   4.475   1.586
 1409TIP3   OH2 4179   1.975   6.031   1.118
 1409TIP3    H1 4180   1.897   6.000   1.068
 1409TIP3    H2 4181   1.953   6.126   1.127
 1410TIP3   OH2 4182   3.220   5.397   0.270
 1410TIP3    H1 4183   3.273   5.390   0.352
 1410TIP3    H2 4184   3.187   5.306   0.262
 1411TIP3   OH2 4185   2.538   5.296   0.626
 1411TIP3    H1 4186   2.564   5.225   0.688
 1411TIP3    H2 4187   2.615   5.354   0.632
 1412TIP3   OH2 4188   2.509   5.713   0.349
 1412TIP3    H1 4189   2.501   5.615   0.353
 1412TIP3    H2 4190   2.606   5.721   0.349
 1413TIP3   OH2 4191   2.220   4.908   0.127
 1413TIP3    H1 4192   2.175   4.991   0.152
 1413TIP3    H2 4193   2.144   4.854   0.100
 1414TIP3   OH2 4194   2.280   5.203   0.313
 1414TIP3    H1 4195   2.330   5.123   0.345
 1414TIP3    H2 4196   2.327   5.224   0.231
 1415TIP3   OH2 4197   3.039   5.630   0.310
 1415TIP3    H1 4198   3.081   5.548   0.278
 1415TIP3    H2 4199   3.121   5.677   0.337
 1416TIP3   OH2 4200   4.073   4.943   0.307
 1416TIP3    H1 4201   4.096   5.021   0.361
 1416TIP3    H2 4202   4.012   4.982   0.242
 1417TIP3   OH2 4203   3.420   5.115   0.371
 1417TIP3    H1 4204   3.473   5.035   0.382
 1417TIP3    H2 4205   3.432   5.134   0.277
 1418TIP3   OH2 4206   2.788   4.787   0.309
 1418TIP3    H1 4207   2.767   4.861   0.250
 1418TIP3    H2 4208   2.740   4.714   0.264
 1419TIP3   OH2 4209   2.423   4.991   0.413
 1419TIP3    H1 4210   2.504   4.972   0.464
 1419TIP3    H2 4211   2.437   4.933   0.335
 1420TIP3   OH2 4212   2.866   5.190   0.207
 1420TIP3    H1 4213   2.959   5.165   0.226
 1420TIP3    H2 4214   2.827   5.104   0.181
 1421TIP3   OH2 4215   4.116   5.152   0.483
 1421TIP3    H1 4216   4.036   5.206   0.470
 1421TIP3    H2 4217   4.156   5.196   0.560
 1422TIP3   OH2 4218   2.785   4.772   0.742
 1422TIP3    H1 4219   2.724   4.811   0.677
 1422TIP3    H2 4220   2.734   4.788   0.824
 1423TIP3   OH2 4221   2.891   5.550   0.534
 1423TIP3    H1 4222   2.830   5.617   0.573
 1423TIP3    H2 4223   2.935   5.601   0.463
 1424TIP3   OH2 4224   3.762   4.865   0.126
 1424TIP3    H1 4225   3.683   4.833   0.171
 1424TIP3    H2 4226   3.778   4.948   0.175
 1425TIP3   OH2 4227   2.656   4.889   0.527
 1425TIP3    H1 4228   2.717   4.961   0.552
 1425TIP3    H2 4229   2.707   4.847   0.454
 1426TIP3   OH2 4230   2.719   5.746   0.634
 1426TIP3    H1 4231   2.694   5.834   0.601
 1426TIP3    H2 4232   2.640   5.728   0.691
 1427TIP3   OH2 4233   2.156   5.395  -0.079
 1427TIP3    H1 4234   2.091   5.419  -0.148
 1427TIP3    H2 4235   2.193   5.483  -0.059
 1428TIP3   OH2 4236   3.845   4.841   0.469
 1428TIP3    H1 4237   3.761   4.882   0.443
 1428TIP3    H2 4238   3.906   4.875   0.401
 1429TIP3   OH2 4239   3.136   4.490   0.458
 1429TIP3    H1 4240   3.123   4.395   0.480
 1429TIP3    H2 4241   3.061   4.530   0.506
 1430TIP3   OH2 4242   3.776   5.853   0.466
 1430TIP3    H1 4243   3.776   5.786   0.394
 1430TIP3    H2 4244   3.766   5.937   0.417
 1431TIP3   OH2 4245   3.971   5.505   0.360
 1431TIP3    H1 4246   3.896   5.566   0.340
 1431TIP3    H2 4247   3.991   5.473   0.269
 1432TIP3   OH2 4248   3.649   5.375   0.604
 1432TIP3    H1 4249   3.654   5.454   0.662
 1432TIP3    H2 4250   3.564   5.390   0.559
 1433TIP3   OH2 4251   2.651   5.332   0.105
 1433TIP3    H1 4252   2.588   5.265   0.072
 1433TIP3    H2 4253   2.724   5.276   0.140
 1434TIP3   OH2 4254   2.788   5.745   0.246
 1434TIP3    H1 4255   2.765   5.689   0.171
 1434TIP3    H2 4256   2.877   5.712   0.269
 1435TIP3   OH2 4257   2.791   5.306   0.455
 1435TIP3    H1 4258   2.826   5.286   0.366
 1435TIP3    H2 4259   2.831   5.393   0.476
 1436TIP3   OH2 4260   3.308   5.941   0.237
 1436TIP3    H1 4261   3.300   6.011   0.302
 1436TIP3    H2 4262   3.303   5.860   0.292
 1437TIP3   OH2 4263   2.926   5.865   0.778
 1437TIP3    H1 4264   2.865   5.925   0.826
 1437TIP3    H2 4265   2.861   5.810   0.729
 1438TIP3   OH2 4266   2.679   5.419   0.880
 1438TIP3    H1 4267   2.685   5.506   0.924
 1438TIP3    H2 4268   2.585   5.396   0.899
 1439TIP3   OH2 4269   2.717   6.030   0.867
 1439TIP3    H1 4270   2.682   6.031   0.776
 1439TIP3    H2 4271   2.637   6.009   0.920
 1440TIP3   OH2 4272   2.450   5.174  -0.017
 1440TIP3    H1 4273   2.384   5.220  -0.071
 1440TIP3    H2 4274   2.442   5.083  -0.049
 1441TIP3   OH2 4275   2.298   5.562   0.813
 1441TIP3    H1 4276   2.230   5.539   0.746
 1441TIP3    H2 4277   2.335   5.475   0.837
 1442TIP3   OH2 4278   2.152   5.759   0.442
 1442TIP3    H1 4279   2.246   5.741   0.431
 1442TIP3    H2 4280   2.154   5.831   0.507
 1443TIP3   OH2 4281   4.022   6.201   0.519
 1443TIP3    H1 4282   4.018   6.104   0.528
 1443TIP3    H2 4283   3.934   6.227   0.554
 1444TIP3   OH2 4284   3.122   5.992   0.637
 1444TIP3    H1 4285   3.119   6.085   0.670
 1444TIP3    H2 4286   3.050   5.951   0.691
 1445TIP3   OH2 4287   2.293   5.920  -0.006
 1445TIP3    H1 4288   2.371   5.936   0.051
 1445TIP3    H2 4289   2.224   5.914   0.064
 1446TIP3   OH2 4290   3.893   5.329   0.782
 1446TIP3    H1 4291   3.822   5.336   0.717
 1446TIP3    H2 4292   3.921   5.235   0.772
 1447TIP3   OH2 4293   2.501   5.746   0.800
 1447TIP3    H1 4294   2.551   5.728   0.882
 1447TIP3    H2 4295   2.427   5.682   0.808
 1448TIP3   OH2 4296   2.901   4.569   0.586
 1448TIP3    H1 4297   2.811   4.538   0.559
 1448TIP3    H2 4298   2.875   4.648   0.637
 1449TIP3   OH2 4299   3.438   4.679   0.782
 1449TIP3    H1 4300   3.508   4.655   0.846
 1449TIP3    H2 4301   3.356   4.663   0.832
 1450TIP3   OH2 4302   3.663   5.107   0.692
 1450TIP3    H1 4303   3.619   5.106   0.780
 1450TIP3    H2 4304   3.649   5.199   0.663
 1451TIP3   OH2 4305   2.832   5.084   0.605
 1451TIP3    H1 4306   2.784   5.106   0.687
 1451TIP3    H2 4307   2.818   5.166   0.552
 1452TIP3   OH2 4308   2.715   4.972   0.125
 1452TIP3    H1 4309   2.622   4.949   0.147
 1452TIP3    H2 4310   2.724   4.928   0.038
 1453TIP3   OH2 4311   3.383   5.332   0.930
 1453TIP3    H1 4312   3.364   5.260   0.994
 1453TIP3    H2 4313   3.476   5.349   0.951
 1454TIP3   OH2 4314   3.341   5.068   0.089
 1454TIP3    H1 4315   3.293   5.104   0.014
 1454TIP3    H2 4316   3.401   5.003   0.046
 1455TIP3   OH2 4317   2.651   5.111   0.813
 1455TIP3    H1 4318   2.684   5.173   0.880
 1455TIP3    H2 4319   2.640   5.029   0.865
 1456TIP3   OH2 4320   2.246   4.636   0.390
 1456TIP3    H1 4321   2.319   4.666   0.448
 1456TIP3    H2 4322   2.291   4.596   0.315
 1457TIP3   OH2 4323   2.210   4.607  -0.074
 1457TIP3    H1 4324   2.258   4.639  -0.154
 1457TIP3    H2 4325   2.154   4.685  -0.054
 1458TIP3   OH2 4326   3.360   5.335   0.509
 1458TIP3    H1 4327   3.393   5.260   0.454
 1458TIP3    H2 4328   3.337   5.285   0.589
 1459TIP3   OH2 4329   3.042   4.784   0.194
 1459TIP3    H1 4330   2.962   4.786   0.250
 1459TIP3    H2 4331   3.113   4.789   0.260
 1460TIP3   OH2 4332   2.479   4.848   0.185
 1460TIP3    H1 4333   2.385   4.860   0.158
 1460TIP3    H2 4334   2.495   4.754   0.167
 1461TIP3   OH2 4335   2.759   4.865  -0.128
 1461TIP3    H1 4336   2.857   4.862  -0.115
 1461TIP3    H2 4337   2.748   4.949  -0.175
 1462TIP3   OH2 4338   3.538   4.863   0.373
 1462TIP3    H1 4339   3.514   4.875   0.468
 1462TIP3    H2 4340   3.466   4.805   0.345
 1463TIP3   OH2 4341   3.713   6.559   0.603
 1463TIP3    H1 4342   3.719   6.584   0.510
 1463TIP3    H2 4343   3.795   6.598   0.638
 1464TIP3   OH2 4344   2.664   5.669   1.021
 1464TIP3    H1 4345   2.744   5.696   1.069
 1464TIP3    H2 4346   2.600   5.663   1.094
 1465TIP3   OH2 4347   3.126   5.120   0.278
 1465TIP3    H1 4348   3.206   5.087   0.233
 1465TIP3    H2 4349   3.136   5.081   0.367
 1466TIP3   OH2 4350   2.649   4.602   0.157
 1466TIP3    H1 4351   2.606   4.532   0.211
 1466TIP3    H2 4352   2.696   4.547   0.092
 1467TIP3   OH2 4353   3.104   5.020   0.565
 1467TIP3    H1 4354   3.015   5.057   0.583
 1467TIP3    H2 4355   3.164   5.079   0.614
 1468TIP3   OH2 4356   3.747   5.648   0.275
 1468TIP3    H1 4357   3.733   5.714   0.205
 1468TIP3    H2 4358   3.662   5.598   0.272
 1469TIP3   OH2 4359   3.232   5.725   0.658
 1469TIP3    H1 4360   3.275   5.707   0.743
 1469TIP3    H2 4361   3.200   5.816   0.669
 1470TIP3   OH2 4362   2.533   5.438   0.346
 1470TIP3    H1 4363   2.569   5.401   0.263
 1470TIP3    H2 4364   2.564   5.374   0.412
 1471TIP3   OH2 4365   2.415   5.350   0.951
 1471TIP3    H1 4366   2.433   5.336   1.046
 1471TIP3    H2 4367   2.347   5.283   0.934
 1472TIP3   OH2 4368   3.143   5.466   0.970
 1472TIP3    H1 4369   3.083   5.404   0.925
 1472TIP3    H2 4370   3.230   5.431   0.943
 1473TIP3   OH2 4371   3.398   5.992   0.555
 1473TIP3    H1 4372   3.302   5.989   0.569
 1473TIP3    H2 4373   3.426   6.039   0.637
 1474TIP3   OH2 4374   4.029   5.912   0.546
 1474TIP3    H1 4375   3.931   5.905   0.546
 1474TIP3    H2 4376   4.049   5.886   0.454
 1475TIP3   OH2 4377   3.498   5.520   0.236
 1475TIP3    H1 4378   3.401   5.515   0.236
 1475TIP3    H2 4379   3.518   5.430   0.203
 1476TIP3   OH2 4380   2.633   5.726  -0.033
 1476TIP3    H1 4381   2.663   5.788  -0.104
 1476TIP3    H2 4382   2.546   5.761  -0.014
 1477TIP3   OH2 4383   2.811   5.526  -0.015
 1477TIP3    H1 4384   2.738   5.591  -0.021
 1477TIP3    H2 4385   2.768   5.454   0.035
 1478TIP3   OH2 4386   2.903   6.075   0.430
 1478TIP3    H1 4387   2.944   6.148   0.378
 1478TIP3    H2 4388   2.981   6.041   0.477
 1479TIP3   OH2 4389   3.294   5.703   0.392
 1479TIP3    H1 4390   3.275   5.704   0.489
 1479TIP3    H2 4391   3.384   5.668   0.392
 1480TIP3   OH2 4392   3.517   6.255   0.450
 1480TIP3    H1 4393   3.442   6.194   0.462
 1480TIP3    H2 4394   3.502   6.282   0.358
 1481TIP3   OH2 4395   2.623   4.855   0.956
 1481TIP3    H1 4396   2.527   4.858   0.970
 1481TIP3    H2 4397   2.652   4.799   1.031
 1482TIP3   OH2 4398   2.340   5.936   0.591
 1482TIP3    H1 4399   2.394   5.863   0.625
 1482TIP3    H2 4400   2.370   6.009   0.648
 1483TIP3   OH2 4401   3.471   4.909   0.631
 1483TIP3    H1 4402   3.542   4.961   0.673
 1483TIP3    H2 4403   3.459   4.835   0.694
 1484TIP3   OH2 4404   3.026   4.836  -0.073
 1484TIP3    H1 4405   3.106   4.886  -0.095
 1484TIP3    H2 4406   3.036   4.822   0.025
 1485TIP3   OH2 4407   3.302   5.170   0.717
 1485TIP3    H1 4408   3.325   5.224   0.796
 1485TIP3    H2 4409   3.358   5.092   0.730
 1486TIP3   OH2 4410   3.179   4.584   0.027
 1486TIP3    H1 4411   3.168   4.640   0.107
 1486TIP3    H2 4412   3.257   4.626  -0.012
 1487TIP3   OH2 4413   2.682   4.558  -0.168
 1487TIP3    H1 4414   2.677   4.641  -0.117
 1487TIP3    H2 4415   2.779   4.546  -0.177
 1488TIP3   OH2 4416   3.933   5.066   0.700
 1488TIP3    H1 4417   3.835   5.060   0.697
 1488TIP3    H2 4418   3.957   5.042   0.611
 1489TIP3   OH2 4419   3.526   5.263   0.148
 1489TIP3    H1 4420   3.471   5.195   0.108
 1489TIP3    H2 4421   3.614   5.247   0.109
 1490TIP3   OH2 4422   2.247   4.740  -0.312
 1490TIP3    H1 4423   2.273   4.825  -0.350
 1490TIP3    H2 4424   2.153   4.736  -0.333
 1491TIP3   OH2 4425   2.637   4.487   0.558
 1491TIP3    H1 4426   2.605   4.450   0.473
 1491TIP3    H2 4427   2.628   4.410   0.618
 1492TIP3   OH2 4428   2.218   5.667  -0.069
 1492TIP3    H1 4429   2.126   5.694  -0.050
 1492TIP3    H2 4430   2.265   5.745  -0.036
 1493TIP3   OH2 4431   2.334   6.253   1.012
 1493TIP3    H1 4432   2.420   6.251   1.059
 1493TIP3    H2 4433   2.313   6.158   1.012
 1494TIP3   OH2 4434   2.811   6.212   1.055
 1494TIP3    H1 4435   2.904   6.191   1.065
 1494TIP3    H2 4436   2.785   6.150   0.984
 1495TIP3   OH2 4437   3.451   6.120   0.793
 1495TIP3    H1 4438   3.443   6.049   0.862
 1495TIP3    H2 4439   3.531   6.168   0.822
 1496TIP3   OH2 4440   2.463   5.656   1.212
 1496TIP3    H1 4441   2.478   5.560   1.222
 1496TIP3    H2 4442   2.376   5.658   1.167
 1497TIP3   OH2 4443   3.067   5.741   0.988
 1497TIP3    H1 4444   3.031   5.760   0.899
 1497TIP3    H2 4445   3.101   5.650   0.978
 1498TIP3   OH2 4446   3.555   5.750   0.588
 1498TIP3    H1 4447   3.638   5.784   0.550
 1498TIP3    H2 4448   3.495   5.825   0.573
 1499TIP3   OH2 4449   2.585   5.393   1.195
 1499TIP3    H1 4450   2.659   5.336   1.172
 1499TIP3    H2 4451   2.612   5.425   1.284
 1500TIP3   OH2 4452   2.915   5.272   0.854
 1500TIP3    H1 4453   2.839   5.333   0.853
 1500TIP3    H2 4454   2.970   5.307   0.780
 1501TIP3   OH2 4455   3.436   5.676   0.988
 1501TIP3    H1 4456   3.519   5.651   0.945
 1501TIP3    H2 4457   3.432   5.612   1.061
 1502TIP3   OH2 4458   3.039   5.064   0.982
 1502TIP3    H1 4459   3.042   4.984   0.925
 1502TIP3    H2 4460   2.995   5.130   0.924
 1503TIP3   OH2 4461   3.043   4.850   0.791
 1503TIP3    H1 4462   3.072   4.891   0.708
 1503TIP3    H2 4463   2.950   4.828   0.772
 1504TIP3   OH2 4464   3.065   5.380   0.662
 1504TIP3    H1 4465   3.153   5.394   0.624
 1504TIP3    H2 4466   3.011   5.448   0.616
 1505TIP3   OH2 4467   3.652   5.351   1.040
 1505TIP3    H1 4468   3.699   5.268   1.057
 1505TIP3    H2 4469   3.723   5.405   1.003
 1506TIP3   OH2 4470   3.688   5.603   0.777
 1506TIP3    H1 4471   3.633   5.658   0.716
 1506TIP3    H2 4472   3.778   5.622   0.741
 1507TIP3   OH2 4473   2.917   5.171   1.215
 1507TIP3    H1 4474   2.851   5.101   1.231
 1507TIP3    H2 4475   2.952   5.144   1.128
 1508TIP3   OH2 4476   3.174   4.609   0.858
 1508TIP3    H1 4477   3.124   4.691   0.837
 1508TIP3    H2 4478   3.104   4.541   0.849
 1509TIP3   OH2 4479   3.301   5.115   1.075
 1509TIP3    H1 4480   3.294   5.100   1.171
 1509TIP3    H2 4481   3.211   5.091   1.047
 1510TIP3   OH2 4482   3.531   5.063   0.922
 1510TIP3    H1 4483   3.460   5.067   0.989
 1510TIP3    H2 4484   3.607   5.034   0.978
 1511TIP3   OH2 4485   3.744   5.001   1.080
 1511TIP3    H1 4486   3.773   4.909   1.093
 1511TIP3    H2 4487   3.753   5.039   1.170
 1512TIP3   OH2 4488   2.758   4.950   1.269
 1512TIP3    H1 4489   2.762   4.858   1.237
 1512TIP3    H2 4490   2.797   4.940   1.359
 1513TIP3   OH2 4491   3.268   4.621   1.116
 1513TIP3    H1 4492   3.336   4.550   1.111
 1513TIP3    H2 4493   3.229   4.615   1.027
 1514TIP3   OH2 4494   3.335   4.836   1.276
 1514TIP3    H1 4495   3.314   4.765   1.212
 1514TIP3    H2 4496   3.256   4.894   1.269
 1515TIP3   OH2 4497   2.112   5.905   0.185
 1515TIP3    H1 4498   2.088   5.837   0.249
 1515TIP3    H2 4499   2.149   5.973   0.244
 1516TIP3   OH2 4500   3.881   6.011   0.841
 1516TIP3    H1 4501   3.815   6.020   0.913
 1516TIP3    H2 4502   3.929   6.096   0.848
 1517TIP3   OH2 4503   3.722   6.089   0.333
 1517TIP3    H1 4504   3.640   6.117   0.377
 1517TIP3    H2 4505   3.690   6.030   0.262
 1518TIP3   OH2 4506   2.272   5.320   0.564
 1518TIP3    H1 4507   2.270   5.285   0.472
 1518TIP3    H2 4508   2.369   5.319   0.581
 1519TIP3   OH2 4509   3.934   5.667   0.673
 1519TIP3    H1 4510   4.001   5.596   0.663
 1519TIP3    H2 4511   3.969   5.735   0.613
 1520TIP3   OH2 4512   4.114   5.467   0.685
 1520TIP3    H1 4513   4.048   5.424   0.744
 1520TIP3    H2 4514   4.190   5.406   0.697
 1521TIP3   OH2 4515   3.837   5.091   0.244
 1521TIP3    H1 4516   3.814   5.152   0.170
 1521TIP3    H2 4517   3.843   5.155   0.319
 1522TIP3   OH2 4518   3.863   5.274   0.446
 1522TIP3    H1 4519   3.782   5.306   0.492
 1522TIP3    H2 4520   3.905   5.361   0.424
 1523TIP3   OH2 4521   2.493   5.005   1.241
 1523TIP3    H1 4522   2.590   4.997   1.243
 1523TIP3    H2 4523   2.468   4.917   1.277
 1524TIP3   OH2 4524   4.333   4.873   0.992
 1524TIP3    H1 4525   4.389   4.807   0.948
 1524TIP3    H2 4526   4.297   4.924   0.916
 1525TIP3   OH2 4527   2.452   4.695   0.562
 1525TIP3    H1 4528   2.514   4.620   0.576
 1525TIP3    H2 4529   2.515   4.770   0.559
 1526TIP3   OH2 4530   2.254   4.968   0.639
 1526TIP3    H1 4531   2.304   4.969   0.555
 1526TIP3    H2 4532   2.282   5.050   0.680
 1527TIP3   OH2 4533   4.199   5.009   0.802
 1527TIP3    H1 4534   4.133   5.043   0.868
 1527TIP3    H2 4535   4.142   4.953   0.746
 1528TIP3   OH2 4536   2.241   4.465   0.152
 1528TIP3    H1 4537   2.150   4.460   0.184
 1528TIP3    H2 4538   2.232   4.525   0.075
 1529TIP3   OH2 4539   2.459   4.553   0.954
 1529TIP3    H1 4540   2.409   4.547   1.037
 1529TIP3    H2 4541   2.392   4.591   0.895
 1530TIP3   OH2 4542   2.497   5.988   1.033
 1530TIP3    H1 4543   2.405   5.958   1.017
 1530TIP3    H2 4544   2.511   5.960   1.124
 1531TIP3   OH2 4545   2.678   6.016   0.580
 1531TIP3    H1 4546   2.632   6.093   0.540
 1531TIP3    H2 4547   2.765   6.027   0.536
 1532TIP3   OH2 4548   3.119   6.260   0.719
 1532TIP3    H1 4549   3.163   6.256   0.807
 1532TIP3    H2 4550   3.182   6.315   0.669
 1533TIP3   OH2 4551   3.293   6.424   0.582
 1533TIP3    H1 4552   3.357   6.366   0.538
 1533TIP3    H2 4553   3.352   6.473   0.644
 1534TIP3   OH2 4554   4.094   4.772   0.676
 1534TIP3    H1 4555   4.003   4.766   0.641
 1534TIP3    H2 4556   4.125   4.679   0.667
 1535TIP3   OH2 4557   2.356   6.267   0.604
 1535TIP3    H1 4558   2.266   6.302   0.585
 1535TIP3    H2 4559   2.368   6.302   0.693
 1536TIP3   OH2 4560   2.593   6.249   0.463
 1536TIP3    H1 4561   2.505   6.262   0.504
 1536TIP3    H2 4562   2.577   6.283   0.372
 1537TIP3   OH2 4563   3.005   6.274   0.269
 1537TIP3    H1 4564   2.935   6.282   0.201
 1537TIP3    H2 4565   3.010   6.366   0.302
 1538TIP3   OH2 4566   3.262   6.207   0.351
 1538TIP3    H1 4567   3.170   6.229   0.324
 1538TIP3    H2 4568   3.308   6.215   0.264
 1539TIP3   OH2 4569   2.267   6.065   0.352
 1539TIP3    H1 4570   2.293   6.040   0.443
 1539TIP3    H2 4571   2.339   6.019   0.303
 1540TIP3   OH2 4572   2.460   5.937   0.206
 1540TIP3    H1 4573   2.475   5.855   0.259
 1540TIP3    H2 4574   2.551   5.975   0.205
 1541TIP3   OH2 4575   2.722   6.022   0.217
 1541TIP3    H1 4576   2.755   5.931   0.209
 1541TIP3    H2 4577   2.774   6.052   0.295
 1542TIP3   OH2 4578   3.291   4.675   0.285
 1542TIP3    H1 4579   3.257   4.608   0.347
 1542TIP3    H2 4580   3.376   4.636   0.255
 1543TIP3   OH2 4581   3.811   4.556   0.207
 1543TIP3    H1 4582   3.835   4.604   0.125
 1543TIP3    H2 4583   3.720   4.588   0.220
 1544TIP3   OH2 4584   2.548   4.394   0.308
 1544TIP3    H1 4585   2.455   4.361   0.315
 1544TIP3    H2 4586   2.596   4.308   0.306
 1545TIP3   OH2 4587   2.316   4.271  -0.044
 1545TIP3    H1 4588   2.364   4.324  -0.111
 1545TIP3    H2 4589   2.306   4.335   0.029
 1546TIP3   OH2 4590   2.995   4.422   0.194
 1546TIP3    H1 4591   3.050   4.482   0.142
 1546TIP3    H2 4592   3.009   4.456   0.284
 1547TIP3   OH2 4593   3.527   4.575   0.180
 1547TIP3    H1 4594   3.561   4.539   0.097
 1547TIP3    H2 4595   3.516   4.494   0.234
 1548TIP3   OH2 4596   2.461   4.405  -0.236
 1548TIP3    H1 4597   2.485   4.378  -0.325
 1548TIP3    H2 4598   2.537   4.462  -0.212
 1549TIP3   OH2 4599   2.956   4.583  -0.154
 1549TIP3    H1 4600   3.023   4.549  -0.092
 1549TIP3    H2 4601   2.972   4.679  -0.144
 1550TIP3   OH2 4602   2.756   4.677   1.203
 1550TIP3    H1 4603   2.719   4.607   1.259
 1550TIP3    H2 4604   2.850   4.675   1.232
 1551TIP3   OH2 4605   3.006   4.673   1.323
 1551TIP3    H1 4606   3.092   4.649   1.286
 1551TIP3    H2 4607   2.993   4.603   1.390
 1552TIP3   OH2 4608   3.833   4.736   1.109
 1552TIP3    H1 4609   3.851   4.706   1.201
 1552TIP3    H2 4610   3.923   4.733   1.070
 1553TIP3   OH2 4611   3.764   6.287   0.607
 1553TIP3    H1 4612   3.687   6.258   0.556
 1553TIP3    H2 4613   3.749   6.383   0.609
 1554TIP3   OH2 4614   4.601   5.002   0.259
 1554TIP3    H1 4615   4.590   5.060   0.180
 1554TIP3    H2 4616   4.534   5.040   0.320
 1555TIP3   OH2 4617   4.472   5.637   0.414
 1555TIP3    H1 4618   4.487   5.731   0.436
 1555TIP3    H2 4619   4.374   5.636   0.414
 1556TIP3   OH2 4620   4.090   5.810   0.294
 1556TIP3    H1 4621   4.110   5.780   0.204
 1556TIP3    H2 4622   4.132   5.739   0.347
 1557TIP3   OH2 4623   4.291   6.011   0.307
 1557TIP3    H1 4624   4.361   5.981   0.368
 1557TIP3    H2 4625   4.232   5.935   0.302
 1558TIP3   OH2 4626   5.227   4.861   0.408
 1558TIP3    H1 4627   5.290   4.906   0.351
 1558TIP3    H2 4628   5.139   4.877   0.365
 1559TIP3   OH2 4629   5.211   5.592   0.470
 1559TIP3    H1 4630   5.176   5.513   0.516
 1559TIP3    H2 4631   5.303   5.595   0.502
 1560TIP3   OH2 4632   4.439   5.371   0.333
 1560TIP3    H1 4633   4.465   5.462   0.359
 1560TIP3    H2 4634   4.456   5.319   0.412
 1561TIP3   OH2 4635   4.463   5.910   0.512
 1561TIP3    H1 4636   4.534   5.953   0.562
 1561TIP3    H2 4637   4.391   5.914   0.579
 1562TIP3   OH2 4638   4.201   5.624   0.456
 1562TIP3    H1 4639   4.224   5.603   0.549
 1562TIP3    H2 4640   4.129   5.560   0.439
 1563TIP3   OH2 4641   4.889   5.699   0.502
 1563TIP3    H1 4642   4.862   5.623   0.448
 1563TIP3    H2 4643   4.968   5.728   0.452
 1564TIP3   OH2 4644   4.429   5.102   0.459
 1564TIP3    H1 4645   4.336   5.122   0.474
 1564TIP3    H2 4646   4.451   5.045   0.534
 1565TIP3   OH2 4647   4.114   6.487   0.526
 1565TIP3    H1 4648   4.200   6.484   0.571
 1565TIP3    H2 4649   4.099   6.393   0.507
 1566TIP3   OH2 4650   4.650   6.432   0.551
 1566TIP3    H1 4651   4.745   6.408   0.555
 1566TIP3    H2 4652   4.614   6.351   0.512
 1567TIP3   OH2 4653   4.259   5.913   0.703
 1567TIP3    H1 4654   4.276   5.817   0.710
 1567TIP3    H2 4655   4.174   5.914   0.655
 1568TIP3   OH2 4656   4.829   5.984   0.483
 1568TIP3    H1 4657   4.755   5.972   0.420
 1568TIP3    H2 4658   4.857   5.891   0.497
 1569TIP3   OH2 4659   4.365   5.654   0.693
 1569TIP3    H1 4660   4.437   5.601   0.656
 1569TIP3    H2 4661   4.401   5.675   0.782
 1570TIP3   OH2 4662   4.834   5.330   0.453
 1570TIP3    H1 4663   4.795   5.242   0.444
 1570TIP3    H2 4664   4.800   5.376   0.375
 1571TIP3   OH2 4665   5.463   5.603   0.564
 1571TIP3    H1 4666   5.496   5.521   0.605
 1571TIP3    H2 4667   5.519   5.607   0.484
 1572TIP3   OH2 4668   4.726   5.424   0.709
 1572TIP3    H1 4669   4.649   5.365   0.724
 1572TIP3    H2 4670   4.747   5.407   0.616
 1573TIP3   OH2 4671   4.964   4.895   0.325
 1573TIP3    H1 4672   4.901   4.968   0.325
 1573TIP3    H2 4673   4.904   4.818   0.330
 1574TIP3   OH2 4674   5.097   5.364   0.569
 1574TIP3    H1 4675   5.070   5.345   0.661
 1574TIP3    H2 4676   5.011   5.356   0.524
 1575TIP3   OH2 4677   5.346   5.314   0.435
 1575TIP3    H1 4678   5.267   5.305   0.491
 1575TIP3    H2 4679   5.417   5.274   0.488
 1576TIP3   OH2 4680   5.586   5.261   0.577
 1576TIP3    H1 4681   5.582   5.166   0.597
 1576TIP3    H2 4682   5.575   5.303   0.665
 1577TIP3   OH2 4683   4.554   5.207   0.750
 1577TIP3    H1 4684   4.553   5.113   0.726
 1577TIP3    H2 4685   4.583   5.202   0.843
 1578TIP3   OH2 4686   5.032   4.871   0.627
 1578TIP3    H1 4687   5.102   4.803   0.627
 1578TIP3    H2 4688   5.012   4.875   0.532
 1579TIP3   OH2 4689   5.131   5.093   0.761
 1579TIP3    H1 4690   5.099   5.020   0.704
 1579TIP3    H2 4691   5.054   5.154   0.760
 1580TIP3   OH2 4692   4.284   5.250   0.696
 1580TIP3    H1 4693   4.380   5.257   0.717
 1580TIP3    H2 4694   4.260   5.172   0.751
 1581TIP3   OH2 4695   4.260   4.798   0.446
 1581TIP3    H1 4696   4.211   4.805   0.529
 1581TIP3    H2 4697   4.198   4.842   0.384
 1582TIP3   OH2 4698   4.296   6.249   0.529
 1582TIP3    H1 4699   4.210   6.212   0.502
 1582TIP3    H2 4700   4.297   6.227   0.623
 1583TIP3   OH2 4701   4.554   4.930   0.688
 1583TIP3    H1 4702   4.514   4.865   0.749
 1583TIP3    H2 4703   4.647   4.929   0.720
 1584TIP3   OH2 4704   4.806   4.927   0.807
 1584TIP3    H1 4705   4.888   4.896   0.764
 1584TIP3    H2 4706   4.792   4.858   0.875
 1585TIP3   OH2 4707   5.630   4.993   0.621
 1585TIP3    H1 4708   5.642   4.958   0.712
 1585TIP3    H2 4709   5.721   5.011   0.596
 1586TIP3   OH2 4710   1.980   6.684   0.639
 1586TIP3    H1 4711   1.938   6.725   0.561
 1586TIP3    H2 4712   1.968   6.750   0.708
 1587TIP3   OH2 4713   1.753   6.895   0.972
 1587TIP3    H1 4714   1.659   6.915   0.960
 1587TIP3    H2 4715   1.754   6.798   0.956
 1588TIP3   OH2 4716   1.255   6.218   0.956
 1588TIP3    H1 4717   1.342   6.230   0.998
 1588TIP3    H2 4718   1.196   6.222   1.031
 1589TIP3   OH2 4719   1.753   6.643   0.839
 1589TIP3    H1 4720   1.680   6.580   0.852
 1589TIP3    H2 4721   1.796   6.607   0.760
 1590TIP3   OH2 4722   1.512   6.866   1.172
 1590TIP3    H1 4723   1.560   6.794   1.213
 1590TIP3    H2 4724   1.551   6.944   1.214
 1591TIP3   OH2 4725   1.403   6.557   1.089
 1591TIP3    H1 4726   1.370   6.647   1.092
 1591TIP3    H2 4727   1.486   6.563   1.139
 1592TIP3   OH2 4728   1.650   6.566   1.244
 1592TIP3    H1 4729   1.648   6.469   1.260
 1592TIP3    H2 4730   1.632   6.603   1.333
 1593TIP3   OH2 4731   1.117   6.163   1.307
 1593TIP3    H1 4732   1.179   6.092   1.279
 1593TIP3    H2 4733   1.074   6.189   1.224
 1594TIP3   OH2 4734   1.179   6.399   1.426
 1594TIP3    H1 4735   1.180   6.309   1.387
 1594TIP3    H2 4736   1.095   6.430   1.388
 1595TIP3   OH2 4737   1.966   7.032   0.879
 1595TIP3    H1 4738   1.882   6.992   0.911
 1595TIP3    H2 4739   2.025   6.953   0.886
 1596TIP3   OH2 4740   2.166   6.431   1.140
 1596TIP3    H1 4741   2.227   6.363   1.103
 1596TIP3    H2 4742   2.141   6.480   1.059
 1597TIP3   OH2 4743   2.034   6.568   0.944
 1597TIP3    H1 4744   1.961   6.606   0.997
 1597TIP3    H2 4745   1.989   6.500   0.891
 1598TIP3   OH2 4746   1.928   6.319   0.833
 1598TIP3    H1 4747   1.844   6.277   0.805
 1598TIP3    H2 4748   1.988   6.242   0.822
 1599TIP3   OH2 4749   0.890   6.205   1.510
 1599TIP3    H1 4750   0.972   6.170   1.472
 1599TIP3    H2 4751   0.866   6.134   1.572
 1600TIP3   OH2 4752   1.673   6.288   1.262
 1600TIP3    H1 4753   1.689   6.255   1.353
 1600TIP3    H2 4754   1.763   6.283   1.223
 1601TIP3   OH2 4755   2.422   6.571   0.396
 1601TIP3    H1 4756   2.384   6.615   0.317
 1601TIP3    H2 4757   2.358   6.595   0.466
 1602TIP3   OH2 4758   2.373   6.697   0.152
 1602TIP3    H1 4759   2.410   6.782   0.186
 1602TIP3    H2 4760   2.393   6.707   0.058
 1603TIP3   OH2 4761   2.784   6.284   0.103
 1603TIP3    H1 4762   2.745   6.197   0.121
 1603TIP3    H2 4763   2.707   6.342   0.118
 1604TIP3   OH2 4764   2.538   6.382   0.226
 1604TIP3    H1 4765   2.453   6.348   0.192
 1604TIP3    H2 4766   2.506   6.456   0.283
 1605TIP3   OH2 4767   3.080   6.500   0.415
 1605TIP3    H1 4768   3.148   6.469   0.478
 1605TIP3    H2 4769   2.997   6.475   0.461
 1606TIP3   OH2 4770   3.300   6.936   0.339
 1606TIP3    H1 4771   3.260   6.920   0.427
 1606TIP3    H2 4772   3.365   7.006   0.359
 1607TIP3   OH2 4773   2.449   6.946   0.233
 1607TIP3    H1 4774   2.393   6.950   0.313
 1607TIP3    H2 4775   2.464   7.041   0.215
 1608TIP3   OH2 4776   3.023   7.112   0.618
 1608TIP3    H1 4777   2.976   7.041   0.663
 1608TIP3    H2 4778   3.116   7.083   0.629
 1609TIP3   OH2 4779   2.308   6.920   0.468
 1609TIP3    H1 4780   2.323   6.968   0.550
 1609TIP3    H2 4781   2.287   6.830   0.502
 1610TIP3   OH2 4782   2.702   6.825   0.266
 1610TIP3    H1 4783   2.626   6.880   0.236
 1610TIP3    H2 4784   2.764   6.894   0.297
 1611TIP3   OH2 4785   2.254   6.670   0.599
 1611TIP3    H1 4786   2.156   6.665   0.609
 1611TIP3    H2 4787   2.281   6.608   0.669
 1612TIP3   OH2 4788   3.078   6.742   0.285
 1612TIP3    H1 4789   3.166   6.779   0.301
 1612TIP3    H2 4790   3.079   6.660   0.340
 1613TIP3   OH2 4791   2.896   6.938   0.428
 1613TIP3    H1 4792   2.955   7.000   0.473
 1613TIP3    H2 4793   2.960   6.878   0.385
 1614TIP3   OH2 4794   2.285   6.284   0.176
 1614TIP3    H1 4795   2.249   6.245   0.094
 1614TIP3    H2 4796   2.277   6.209   0.239
 1615TIP3   OH2 4797   2.669   6.869   0.629
 1615TIP3    H1 4798   2.668   6.777   0.595
 1615TIP3    H2 4799   2.690   6.917   0.547
 1616TIP3   OH2 4800   2.674   6.647   0.471
 1616TIP3    H1 4801   2.693   6.705   0.393
 1616TIP3    H2 4802   2.584   6.617   0.448
 1617TIP3   OH2 4803   3.309   7.138   0.656
 1617TIP3    H1 4804   3.354   7.055   0.679
 1617TIP3    H2 4805   3.350   7.200   0.719
 1618TIP3   OH2 4806   2.542   6.989   0.847
 1618TIP3    H1 4807   2.477   6.917   0.860
 1618TIP3    H2 4808   2.582   6.960   0.762
 1619TIP3   OH2 4809   2.822   6.416   0.495
 1619TIP3    H1 4810   2.766   6.496   0.484
 1619TIP3    H2 4811   2.756   6.345   0.482
 1620TIP3   OH2 4812   2.934   6.885   0.727
 1620TIP3    H1 4813   2.897   6.888   0.818
 1620TIP3    H2 4814   2.853   6.865   0.677
 1621TIP3   OH2 4815   3.178   6.870   0.576
 1621TIP3    H1 4816   3.103   6.853   0.636
 1621TIP3    H2 4817   3.255   6.842   0.631
 1622TIP3   OH2 4818   3.407   6.819   0.717
 1622TIP3    H1 4819   3.426   6.724   0.736
 1622TIP3    H2 4820   3.408   6.859   0.806
 1623TIP3   OH2 4821   2.398   6.764   0.909
 1623TIP3    H1 4822   2.395   6.673   0.871
 1623TIP3    H2 4823   2.441   6.743   0.995
 1624TIP3   OH2 4824   2.908   6.437   0.755
 1624TIP3    H1 4825   2.974   6.365   0.752
 1624TIP3    H2 4826   2.871   6.429   0.664
 1625TIP3   OH2 4827   2.971   6.648   0.916
 1625TIP3    H1 4828   2.955   6.574   0.853
 1625TIP3    H2 4829   2.897   6.708   0.895
 1626TIP3   OH2 4830   2.133   6.819   0.882
 1626TIP3    H1 4831   2.230   6.804   0.876
 1626TIP3    H2 4832   2.103   6.729   0.906
 1627TIP3   OH2 4833   3.960   6.681   0.634
 1627TIP3    H1 4834   4.019   6.612   0.594
 1627TIP3    H2 4835   3.936   6.733   0.555
 1628TIP3   OH2 4836   2.092   6.444   0.314
 1628TIP3    H1 4837   2.166   6.396   0.273
 1628TIP3    H2 4838   2.095   6.529   0.264
 1629TIP3   OH2 4839   3.835   6.843   0.447
 1629TIP3    H1 4840   3.744   6.870   0.428
 1629TIP3    H2 4841   3.853   6.783   0.372
 1630TIP3   OH2 4842   2.108   6.373   0.602
 1630TIP3    H1 4843   2.032   6.381   0.661
 1630TIP3    H2 4844   2.077   6.411   0.518
 1631TIP3   OH2 4845   2.393   6.495   0.846
 1631TIP3    H1 4846   2.356   6.420   0.896
 1631TIP3    H2 4847   2.488   6.489   0.873
 1632TIP3   OH2 4848   2.646   6.491   0.962
 1632TIP3    H1 4849   2.730   6.462   0.922
 1632TIP3    H2 4850   2.632   6.421   1.029
 1633TIP3   OH2 4851   3.475   6.551   0.751
 1633TIP3    H1 4852   3.492   6.518   0.841
 1633TIP3    H2 4853   3.565   6.545   0.711
 1634TIP3   OH2 4854   1.423   0.200   3.840
 1634TIP3    H1 4855   1.421   0.133   3.909
 1634TIP3    H2 4856   1.452   0.279   3.889
 1635TIP3   OH2 4857   1.068   0.653   3.859
 1635TIP3    H1 4858   1.115   0.584   3.807
 1635TIP3    H2 4859   1.070   0.615   3.948
 1636TIP3   OH2 4860   2.029  -0.384   4.399
 1636TIP3    H1 4861   1.979  -0.317   4.349
 1636TIP3    H2 4862   2.102  -0.332   4.435
 1637TIP3   OH2 4863   1.492   0.437   3.998
 1637TIP3    H1 4864   1.404   0.430   4.041
 1637TIP3    H2 4865   1.486   0.525   3.957
 1638TIP3   OH2 4866   1.204   0.479   3.691
 1638TIP3    H1 4867   1.251   0.395   3.669
 1638TIP3    H2 4868   1.271   0.542   3.657
 1639TIP3   OH2 4869   1.333   0.256   3.588
 1639TIP3    H1 4870   1.321   0.170   3.548
 1639TIP3    H2 4871   1.374   0.233   3.674
 1640TIP3   OH2 4872   1.719   0.347   4.351
 1640TIP3    H1 4873   1.709   0.272   4.289
 1640TIP3    H2 4874   1.700   0.424   4.293
 1641TIP3   OH2 4875   1.916  -0.012   4.193
 1641TIP3    H1 4876   1.833   0.040   4.197
 1641TIP3    H2 4877   1.947   0.012   4.103
 1642TIP3   OH2 4878   1.639  -0.098   4.489
 1642TIP3    H1 4879   1.625  -0.030   4.558
 1642TIP3    H2 4880   1.581  -0.064   4.419
 1643TIP3   OH2 4881   1.253   0.433   4.121
 1643TIP3    H1 4882   1.237   0.514   4.174
 1643TIP3    H2 4883   1.233   0.361   4.183
 1644TIP3   OH2 4884   0.934   0.381   3.666
 1644TIP3    H1 4885   1.026   0.403   3.684
 1644TIP3    H2 4886   0.891   0.467   3.667
 1645TIP3   OH2 4887   1.957   0.697   4.397
 1645TIP3    H1 4888   1.956   0.600   4.412
 1645TIP3    H2 4889   1.874   0.723   4.443
 1646TIP3   OH2 4890   1.052   0.485   4.537
 1646TIP3    H1 4891   1.069   0.582   4.551
 1646TIP3    H2 4892   0.977   0.475   4.596
 1647TIP3   OH2 4893   1.049   0.632   3.478
 1647TIP3    H1 4894   1.026   0.577   3.400
 1647TIP3    H2 4895   1.112   0.576   3.527
 1648TIP3   OH2 4896   1.855  -0.155   4.681
 1648TIP3    H1 4897   1.771  -0.122   4.643
 1648TIP3    H2 4898   1.846  -0.250   4.665
 1649TIP3   OH2 4899   1.651   1.042   4.494
 1649TIP3    H1 4900   1.648   1.072   4.402
 1649TIP3    H2 4901   1.725   1.095   4.530
 1650TIP3   OH2 4902   1.682   0.134   4.181
 1650TIP3    H1 4903   1.711   0.186   4.103
 1650TIP3    H2 4904   1.600   0.091   4.149
 1651TIP3   OH2 4905   1.203   0.257   4.565
 1651TIP3    H1 4906   1.147   0.202   4.622
 1651TIP3    H2 4907   1.147   0.335   4.546
 1652TIP3   OH2 4908   1.355   0.483   4.441
 1652TIP3    H1 4909   1.259   0.478   4.451
 1652TIP3    H2 4910   1.379   0.536   4.520
 1653TIP3   OH2 4911   1.971   0.406   4.437
 1653TIP3    H1 4912   1.873   0.401   4.429
 1653TIP3    H2 4913   1.996   0.376   4.347
 1654TIP3   OH2 4914   1.454   0.352   3.246
 1654TIP3    H1 4915   1.425   0.314   3.330
 1654TIP3    H2 4916   1.500   0.278   3.204
 1655TIP3   OH2 4917   1.458  -0.010   4.103
 1655TIP3    H1 4918   1.390  -0.050   4.157
 1655TIP3    H2 4919   1.488  -0.087   4.050
 1656TIP3   OH2 4920   0.901   0.519   4.265
 1656TIP3    H1 4921   0.932   0.608   4.238
 1656TIP3    H2 4922   0.926   0.517   4.358
 1657TIP3   OH2 4923   1.246   0.207   4.288
 1657TIP3    H1 4924   1.240   0.215   4.385
 1657TIP3    H2 4925   1.332   0.166   4.276
 1658TIP3   OH2 4926   1.482   0.732   4.330
 1658TIP3    H1 4927   1.401   0.677   4.324
 1658TIP3    H2 4928   1.466   0.798   4.258
 1659TIP3   OH2 4929   1.552   0.581   2.990
 1659TIP3    H1 4930   1.599   0.649   2.939
 1659TIP3    H2 4931   1.475   0.632   3.022
 1660TIP3   OH2 4932   1.808  -0.409   4.582
 1660TIP3    H1 4933   1.738  -0.398   4.517
 1660TIP3    H2 4934   1.889  -0.409   4.525
 1661TIP3   OH2 4935   1.516  -0.253   3.982
 1661TIP3    H1 4936   1.452  -0.314   4.021
 1661TIP3    H2 4937   1.601  -0.289   4.017
 1662TIP3   OH2 4938   1.502   0.707   3.925
 1662TIP3    H1 4939   1.459   0.755   3.850
 1662TIP3    H2 4940   1.596   0.727   3.904
 1663TIP3   OH2 4941   1.391   0.621   4.677
 1663TIP3    H1 4942   1.387   0.552   4.747
 1663TIP3    H2 4943   1.470   0.672   4.705
 1664TIP3   OH2 4944   1.498   0.236   4.473
 1664TIP3    H1 4945   1.577   0.280   4.436
 1664TIP3    H2 4946   1.435   0.311   4.472
 1665TIP3   OH2 4947   1.415   0.196   4.900
 1665TIP3    H1 4948   1.497   0.165   4.860
 1665TIP3    H2 4949   1.377   0.110   4.928
 1666TIP3   OH2 4950   1.633   0.107   4.671
 1666TIP3    H1 4951   1.572   0.160   4.615
 1666TIP3    H2 4952   1.720   0.136   4.638
 1667TIP3   OH2 4953   1.757   0.795   3.885
 1667TIP3    H1 4954   1.780   0.828   3.974
 1667TIP3    H2 4955   1.818   0.845   3.829
 1668TIP3   OH2 4956   1.782   0.817   4.166
 1668TIP3    H1 4957   1.739   0.728   4.165
 1668TIP3    H2 4958   1.858   0.798   4.222
 1669TIP3   OH2 4959   1.829   0.495   4.741
 1669TIP3    H1 4960   1.761   0.504   4.811
 1669TIP3    H2 4961   1.872   0.583   4.744
 1670TIP3   OH2 4962   1.639   0.051   3.379
 1670TIP3    H1 4963   1.714   0.109   3.358
 1670TIP3    H2 4964   1.670   0.004   3.458
 1671TIP3   OH2 4965   1.777  -0.123   3.547
 1671TIP3    H1 4966   1.714  -0.168   3.609
 1671TIP3    H2 4967   1.845  -0.091   3.610
 1672TIP3   OH2 4968   1.829   0.267   3.993
 1672TIP3    H1 4969   1.883   0.200   3.948
 1672TIP3    H2 4970   1.828   0.341   3.929
 1673TIP3   OH2 4971   1.658   0.566   4.191
 1673TIP3    H1 4972   1.587   0.611   4.240
 1673TIP3    H2 4973   1.608   0.522   4.118
 1674TIP3   OH2 4974   1.620  -0.265   3.719
 1674TIP3    H1 4975   1.606  -0.360   3.707
 1674TIP3    H2 4976   1.581  -0.249   3.807
 1675TIP3   OH2 4977   1.880   0.166   4.577
 1675TIP3    H1 4978   1.949   0.097   4.560
 1675TIP3    H2 4979   1.905   0.235   4.514
 1676TIP3   OH2 4980   2.070  -0.028   4.569
 1676TIP3    H1 4981   2.006  -0.080   4.622
 1676TIP3    H2 4982   2.154  -0.071   4.595
 1677TIP3   OH2 4983   1.742  -0.352   4.093
 1677TIP3    H1 4984   1.830  -0.347   4.051
 1677TIP3    H2 4985   1.764  -0.318   4.181
 1678TIP3   OH2 4986   1.817  -0.228   4.325
 1678TIP3    H1 4987   1.759  -0.181   4.388
 1678TIP3    H2 4988   1.856  -0.152   4.276
 1679TIP3   OH2 4989   1.356   0.649   3.551
 1679TIP3    H1 4990   1.407   0.648   3.468
 1679TIP3    H2 4991   1.390   0.727   3.596
 1680TIP3   OH2 4992   1.061   0.748   4.609
 1680TIP3    H1 4993   1.101   0.746   4.699
 1680TIP3    H2 4994   1.126   0.804   4.560
 1681TIP3   OH2 4995   1.240   0.901   4.472
 1681TIP3    H1 4996   1.312   0.854   4.427
 1681TIP3    H2 4997   1.293   0.959   4.532
 1682TIP3   OH2 4998   0.959   0.770   4.151
 1682TIP3    H1 4999   0.893   0.791   4.082
 1682TIP3    H2 5000   0.971   0.857   4.193
 1683TIP3   OH2 5001   1.223   0.702   4.207
 1683TIP3    H1 5002   1.131   0.726   4.188
 1683TIP3    H2 5003   1.271   0.775   4.165
 1684TIP3   OH2 5004   1.428   0.893   4.118
 1684TIP3    H1 5005   1.416   0.979   4.072
 1684TIP3    H2 5006   1.457   0.835   4.044
 1685TIP3   OH2 5007   0.689   0.552   4.100
 1685TIP3    H1 5008   0.707   0.476   4.044
 1685TIP3    H2 5009   0.761   0.542   4.168
 1686TIP3   OH2 5010   1.493   0.624   3.308
 1686TIP3    H1 5011   1.481   0.529   3.285
 1686TIP3    H2 5012   1.450   0.666   3.231
 1687TIP3   OH2 5013   1.708   0.774   4.495
 1687TIP3    H1 5014   1.630   0.746   4.443
 1687TIP3    H2 5015   1.691   0.871   4.500
 1688TIP3   OH2 5016   2.981   0.149   3.256
 1688TIP3    H1 5017   2.950   0.240   3.237
 1688TIP3    H2 5018   2.901   0.098   3.234
 1689TIP3   OH2 5019   2.971   0.145   3.648
 1689TIP3    H1 5020   3.013   0.129   3.735
 1689TIP3    H2 5021   2.935   0.057   3.628
 1690TIP3   OH2 5022   2.272   0.052   4.009
 1690TIP3    H1 5023   2.295  -0.018   4.074
 1690TIP3    H2 5024   2.360   0.082   3.983
 1691TIP3   OH2 5025   3.222   0.451   3.326
 1691TIP3    H1 5026   3.204   0.382   3.392
 1691TIP3    H2 5027   3.251   0.526   3.382
 1692TIP3   OH2 5028   2.246   0.451   3.727
 1692TIP3    H1 5029   2.237   0.353   3.729
 1692TIP3    H2 5030   2.342   0.461   3.729
 1693TIP3   OH2 5031   1.951  -0.350   3.504
 1693TIP3    H1 5032   1.889  -0.278   3.525
 1693TIP3    H2 5033   1.892  -0.427   3.493
 1694TIP3   OH2 5034   2.008  -0.059   3.689
 1694TIP3    H1 5035   2.055  -0.138   3.725
 1694TIP3    H2 5036   2.079  -0.017   3.639
 1695TIP3   OH2 5037   2.870   0.912   3.341
 1695TIP3    H1 5038   2.914   0.840   3.292
 1695TIP3    H2 5039   2.863   0.874   3.429
 1696TIP3   OH2 5040   2.775   0.375   3.690
 1696TIP3    H1 5041   2.816   0.294   3.653
 1696TIP3    H2 5042   2.858   0.422   3.714
 1697TIP3   OH2 5043   3.197  -0.131   3.728
 1697TIP3    H1 5044   3.217  -0.218   3.764
 1697TIP3    H2 5045   3.160  -0.152   3.640
 1698TIP3   OH2 5046   2.517  -0.444   3.705
 1698TIP3    H1 5047   2.498  -0.372   3.642
 1698TIP3    H2 5048   2.512  -0.522   3.646
 1699TIP3   OH2 5049   3.206  -0.352   3.311
 1699TIP3    H1 5050   3.283  -0.363   3.371
 1699TIP3    H2 5051   3.247  -0.352   3.223
 1700TIP3   OH2 5052   2.154  -0.267   3.789
 1700TIP3    H1 5053   2.227  -0.294   3.849
 1700TIP3    H2 5054   2.178  -0.321   3.711
 1701TIP3   OH2 5055   2.600  -0.066   3.592
 1701TIP3    H1 5056   2.693  -0.089   3.610
 1701TIP3    H2 5057   2.565  -0.151   3.560
 1702TIP3   OH2 5058   3.857  -0.097   3.840
 1702TIP3    H1 5059   3.774  -0.048   3.826
 1702TIP3    H2 5060   3.877  -0.076   3.931
 1703TIP3   OH2 5061   2.867   0.372   3.129
 1703TIP3    H1 5062   2.823   0.356   3.044
 1703TIP3    H2 5063   2.823   0.455   3.157
 1704TIP3   OH2 5064   2.637   0.297   3.917
 1704TIP3    H1 5065   2.574   0.363   3.953
 1704TIP3    H2 5066   2.676   0.345   3.842
 1705TIP3   OH2 5067   2.363  -0.374   3.922
 1705TIP3    H1 5068   2.419  -0.300   3.955
 1705TIP3    H2 5069   2.425  -0.411   3.856
 1706TIP3   OH2 5070   2.458   0.490   4.013
 1706TIP3    H1 5071   2.432   0.579   3.979
 1706TIP3    H2 5072   2.379   0.471   4.068
 1707TIP3   OH2 5073   1.855   0.184   3.250
 1707TIP3    H1 5074   1.820   0.231   3.173
 1707TIP3    H2 5075   1.896   0.259   3.297
 1708TIP3   OH2 5076   3.289   0.695   3.489
 1708TIP3    H1 5077   3.200   0.686   3.530
 1708TIP3    H2 5078   3.279   0.782   3.445
 1709TIP3   OH2 5079   2.989   0.737   3.161
 1709TIP3    H1 5080   3.040   0.655   3.144
 1709TIP3    H2 5081   3.051   0.802   3.123
 1710TIP3   OH2 5082   3.136   0.522   3.075
 1710TIP3    H1 5083   3.089   0.444   3.044
 1710TIP3    H2 5084   3.175   0.490   3.159
 1711TIP3   OH2 5085   3.516   0.605   3.834
 1711TIP3    H1 5086   3.502   0.527   3.776
 1711TIP3    H2 5087   3.497   0.679   3.773
 1712TIP3   OH2 5088   2.803  -0.001   3.091
 1712TIP3    H1 5089   2.728   0.057   3.067
 1712TIP3    H2 5090   2.855  -0.005   3.008
 1713TIP3   OH2 5091   2.770  -0.211   2.806
 1713TIP3    H1 5092   2.836  -0.159   2.856
 1713TIP3    H2 5093   2.830  -0.280   2.770
 1714TIP3   OH2 5094   3.712   0.250   3.682
 1714TIP3    H1 5095   3.626   0.297   3.686
 1714TIP3    H2 5096   3.740   0.272   3.590
 1715TIP3   OH2 5097   3.159   0.083   3.061
 1715TIP3    H1 5098   3.103   0.105   3.139
 1715TIP3    H2 5099   3.242   0.055   3.105
 1716TIP3   OH2 5100   3.386   0.129   3.966
 1716TIP3    H1 5101   3.379   0.205   4.026
 1716TIP3    H2 5102   3.297   0.131   3.925
 1717TIP3   OH2 5103   2.392   0.077   3.478
 1717TIP3    H1 5104   2.357   0.015   3.411
 1717TIP3    H2 5105   2.467   0.026   3.516
 1718TIP3   OH2 5106   2.520   0.492   3.629
 1718TIP3    H1 5107   2.500   0.451   3.544
 1718TIP3    H2 5108   2.610   0.457   3.647
 1719TIP3   OH2 5109   2.510   0.070   3.826
 1719TIP3    H1 5110   2.553   0.033   3.746
 1719TIP3    H2 5111   2.566   0.147   3.848
 1720TIP3   OH2 5112   3.049   0.688   3.611
 1720TIP3    H1 5113   3.038   0.768   3.666
 1720TIP3    H2 5114   3.033   0.616   3.675
 1721TIP3   OH2 5115   2.663   0.607   4.158
 1721TIP3    H1 5116   2.602   0.669   4.204
 1721TIP3    H2 5117   2.598   0.554   4.107
 1722TIP3   OH2 5118   2.986  -0.046   2.890
 1722TIP3    H1 5119   3.050   0.011   2.938
 1722TIP3    H2 5120   3.016  -0.031   2.797
 1723TIP3   OH2 5121   2.424   0.170   4.269
 1723TIP3    H1 5122   2.417   0.258   4.310
 1723TIP3    H2 5123   2.330   0.143   4.266
 1724TIP3   OH2 5124   2.740   0.618   3.160
 1724TIP3    H1 5125   2.822   0.668   3.173
 1724TIP3    H2 5126   2.679   0.686   3.128
 1725TIP3   OH2 5127   2.456   0.772   4.246
 1725TIP3    H1 5128   2.419   0.777   4.156
 1725TIP3    H2 5129   2.376   0.750   4.300
 1726TIP3   OH2 5130   2.267  -0.086   3.268
 1726TIP3    H1 5131   2.197  -0.037   3.218
 1726TIP3    H2 5132   2.216  -0.155   3.310
 1727TIP3   OH2 5133   3.310   0.545   2.486
 1727TIP3    H1 5134   3.318   0.642   2.473
 1727TIP3    H2 5135   3.404   0.517   2.475
 1728TIP3   OH2 5136   2.032   0.310   4.192
 1728TIP3    H1 5137   1.968   0.285   4.123
 1728TIP3    H2 5138   2.074   0.224   4.216
 1729TIP3   OH2 5139   1.888   0.499   3.824
 1729TIP3    H1 5140   1.985   0.494   3.818
 1729TIP3    H2 5141   1.877   0.578   3.880
 1730TIP3   OH2 5142   3.754   0.953   3.883
 1730TIP3    H1 5143   3.752   0.857   3.898
 1730TIP3    H2 5144   3.670   0.979   3.929
 1731TIP3   OH2 5145   2.856   0.737   4.015
 1731TIP3    H1 5146   2.855   0.829   4.049
 1731TIP3    H2 5147   2.785   0.696   4.070
 1732TIP3   OH2 5148   2.621   0.864   2.969
 1732TIP3    H1 5149   2.574   0.852   2.884
 1732TIP3    H2 5150   2.590   0.952   2.998
 1733TIP3   OH2 5151   2.058   0.713   3.356
 1733TIP3    H1 5152   2.109   0.706   3.440
 1733TIP3    H2 5153   2.001   0.635   3.363
 1734TIP3   OH2 5154   2.820   0.766   2.605
 1734TIP3    H1 5155   2.881   0.697   2.570
 1734TIP3    H2 5156   2.856   0.779   2.696
 1735TIP3   OH2 5157   2.872   0.814   2.875
 1735TIP3    H1 5158   2.784   0.824   2.918
 1735TIP3    H2 5159   2.925   0.780   2.949
 1736TIP3   OH2 5160   3.643   0.106   4.179
 1736TIP3    H1 5161   3.558   0.128   4.139
 1736TIP3    H2 5162   3.656   0.015   4.146
 1737TIP3   OH2 5163   2.238   0.490   4.177
 1737TIP3    H1 5164   2.287   0.476   4.261
 1737TIP3    H2 5165   2.164   0.427   4.186
 1738TIP3   OH2 5166   3.407  -0.149   4.030
 1738TIP3    H1 5167   3.367  -0.138   4.119
 1738TIP3    H2 5168   3.372  -0.069   3.987
 1739TIP3   OH2 5169   3.079  -0.011   2.640
 1739TIP3    H1 5170   3.041  -0.036   2.554
 1739TIP3    H2 5171   3.160   0.035   2.611
 1740TIP3   OH2 5172   2.512  -0.158   3.982
 1740TIP3    H1 5173   2.554  -0.123   4.062
 1740TIP3    H2 5174   2.533  -0.088   3.917
 1741TIP3   OH2 5175   2.450  -0.285   3.491
 1741TIP3    H1 5176   2.359  -0.317   3.512
 1741TIP3    H2 5177   2.467  -0.329   3.406
 1742TIP3   OH2 5178   2.939  -0.192   3.235
 1742TIP3    H1 5179   2.891  -0.123   3.185
 1742TIP3    H2 5180   2.999  -0.228   3.167
 1743TIP3   OH2 5181   3.129   0.121   4.314
 1743TIP3    H1 5182   3.092   0.053   4.375
 1743TIP3    H2 5183   3.225   0.108   4.327
 1744TIP3   OH2 5184   3.098  -0.161   3.470
 1744TIP3    H1 5185   3.030  -0.129   3.408
 1744TIP3    H2 5186   3.130  -0.237   3.416
 1745TIP3   OH2 5187   2.350  -0.127   4.220
 1745TIP3    H1 5188   2.427  -0.085   4.260
 1745TIP3    H2 5189   2.379  -0.219   4.207
 1746TIP3   OH2 5190   3.120   0.080   3.875
 1746TIP3    H1 5191   3.150   0.006   3.817
 1746TIP3    H2 5192   3.106   0.029   3.958
 1747TIP3   OH2 5193   2.752  -0.433   3.547
 1747TIP3    H1 5194   2.683  -0.438   3.616
 1747TIP3    H2 5195   2.829  -0.459   3.603
 1748TIP3   OH2 5196   2.209  -0.407   3.552
 1748TIP3    H1 5197   2.116  -0.384   3.529
 1748TIP3    H2 5198   2.203  -0.502   3.563
 1749TIP3   OH2 5199   2.499  -0.402   3.232
 1749TIP3    H1 5200   2.591  -0.425   3.256
 1749TIP3    H2 5201   2.517  -0.333   3.168
 1750TIP3   OH2 5202   3.447   1.301   3.982
 1750TIP3    H1 5203   3.443   1.326   3.888
 1750TIP3    H2 5204   3.525   1.350   4.013
 1751TIP3   OH2 5205   2.399   0.416   4.403
 1751TIP3    H1 5206   2.481   0.443   4.449
 1751TIP3    H2 5207   2.336   0.415   4.478
 1752TIP3   OH2 5208   2.856  -0.134   3.672
 1752TIP3    H1 5209   2.919  -0.191   3.626
 1752TIP3    H2 5210   2.851  -0.176   3.759
 1753TIP3   OH2 5211   2.580   0.159   3.038
 1753TIP3    H1 5212   2.504   0.098   3.029
 1753TIP3    H2 5213   2.564   0.193   3.130
 1754TIP3   OH2 5214   3.476   0.388   3.669
 1754TIP3    H1 5215   3.498   0.440   3.588
 1754TIP3    H2 5216   3.392   0.344   3.643
 1755TIP3   OH2 5217   3.106  -0.506   2.865
 1755TIP3    H1 5218   3.010  -0.513   2.848
 1755TIP3    H2 5219   3.107  -0.419   2.909
 1756TIP3   OH2 5220   2.982   0.476   4.035
 1756TIP3    H1 5221   3.003   0.444   4.124
 1756TIP3    H2 5222   2.939   0.561   4.051
 1757TIP3   OH2 5223   3.100  -0.272   3.015
 1757TIP3    H1 5224   3.197  -0.263   3.020
 1757TIP3    H2 5225   3.073  -0.193   2.964
 1758TIP3   OH2 5226   2.264   0.170   3.710
 1758TIP3    H1 5227   2.306   0.144   3.626
 1758TIP3    H2 5228   2.322   0.125   3.774
 1759TIP3   OH2 5229   2.722   0.303   2.855
 1759TIP3    H1 5230   2.673   0.389   2.860
 1759TIP3    H2 5231   2.671   0.249   2.920
 1760TIP3   OH2 5232   2.147   0.102   4.332
 1760TIP3    H1 5233   2.157   0.079   4.426
 1760TIP3    H2 5234   2.085   0.033   4.303
 1761TIP3   OH2 5235   2.875   0.217   4.352
 1761TIP3    H1 5236   2.826   0.162   4.288
 1761TIP3    H2 5237   2.967   0.192   4.329
 1762TIP3   OH2 5238   3.136   0.737   3.931
 1762TIP3    H1 5239   3.040   0.729   3.947
 1762TIP3    H2 5240   3.164   0.785   4.011
 1763TIP3   OH2 5241   3.547  -0.202   2.840
 1763TIP3    H1 5242   3.495  -0.250   2.771
 1763TIP3    H2 5243   3.546  -0.113   2.798
 1764TIP3   OH2 5244   3.766   0.663   3.922
 1764TIP3    H1 5245   3.668   0.658   3.914
 1764TIP3    H2 5246   3.792   0.632   3.833
 1765TIP3   OH2 5247   3.244   0.622   2.752
 1765TIP3    H1 5248   3.220   0.554   2.816
 1765TIP3    H2 5249   3.260   0.572   2.670
 1766TIP3   OH2 5250   3.243   0.252   3.583
 1766TIP3    H1 5251   3.150   0.226   3.600
 1766TIP3    H2 5252   3.276   0.170   3.541
 1767TIP3   OH2 5253   2.371   0.478   3.337
 1767TIP3    H1 5254   2.367   0.561   3.285
 1767TIP3    H2 5255   2.278   0.465   3.359
 1768TIP3   OH2 5256   2.504   0.242   3.280
 1768TIP3    H1 5257   2.469   0.331   3.301
 1768TIP3    H2 5258   2.473   0.191   3.358
 1769TIP3   OH2 5259   2.641   0.822   3.810
 1769TIP3    H1 5260   2.685   0.895   3.761
 1769TIP3    H2 5261   2.717   0.784   3.858
 1770TIP3   OH2 5262   2.289   0.718   3.192
 1770TIP3    H1 5263   2.204   0.729   3.240
 1770TIP3    H2 5264   2.323   0.811   3.195
 1771TIP3   OH2 5265   3.026   0.455   3.768
 1771TIP3    H1 5266   3.014   0.457   3.866
 1771TIP3    H2 5267   3.104   0.398   3.760
 1772TIP3   OH2 5268   3.004   0.346   2.656
 1772TIP3    H1 5269   3.063   0.321   2.730
 1772TIP3    H2 5270   2.918   0.324   2.696
 1773TIP3   OH2 5271   3.277   0.987   3.820
 1773TIP3    H1 5272   3.198   0.930   3.817
 1773TIP3    H2 5273   3.258   1.050   3.747
 1774TIP3   OH2 5274   3.342   0.821   2.472
 1774TIP3    H1 5275   3.380   0.895   2.421
 1774TIP3    H2 5276   3.262   0.867   2.507
 1775TIP3   OH2 5277   3.167   0.279   2.864
 1775TIP3    H1 5278   3.156   0.216   2.939
 1775TIP3    H2 5279   3.265   0.277   2.855
 1776TIP3   OH2 5280   2.079   0.681   3.968
 1776TIP3    H1 5281   2.135   0.612   4.008
 1776TIP3    H2 5282   2.103   0.758   4.022
 1777TIP3   OH2 5283   2.379   0.327   2.647
 1777TIP3    H1 5284   2.458   0.271   2.636
 1777TIP3    H2 5285   2.363   0.321   2.744
 1778TIP3   OH2 5286   2.335   0.329   2.915
 1778TIP3    H1 5287   2.392   0.309   2.990
 1778TIP3    H2 5288   2.323   0.427   2.926
 1779TIP3   OH2 5289   2.067   0.044   3.128
 1779TIP3    H1 5290   1.995   0.073   3.188
 1779TIP3    H2 5291   2.066   0.118   3.064
 1780TIP3   OH2 5292   2.578   0.532   2.864
 1780TIP3    H1 5293   2.492   0.551   2.905
 1780TIP3    H2 5294   2.597   0.619   2.823
 1781TIP3   OH2 5295   2.764  -0.398   3.283
 1781TIP3    H1 5296   2.819  -0.317   3.277
 1781TIP3    H2 5297   2.763  -0.412   3.380
 1782TIP3   OH2 5298   3.086  -0.077   4.092
 1782TIP3    H1 5299   3.066  -0.039   4.178
 1782TIP3    H2 5300   3.015  -0.145   4.078
 1783TIP3   OH2 5301   2.322   0.600   2.944
 1783TIP3    H1 5302   2.293   0.670   2.881
 1783TIP3    H2 5303   2.308   0.645   3.030
 1784TIP3   OH2 5304   3.671  -0.141   4.064
 1784TIP3    H1 5305   3.575  -0.144   4.045
 1784TIP3    H2 5306   3.703  -0.207   4.000
 1785TIP3   OH2 5307   3.328   0.010   3.466
 1785TIP3    H1 5308   3.252  -0.049   3.483
 1785TIP3    H2 5309   3.401  -0.037   3.513
 1786TIP3   OH2 5310   2.044   0.245   2.944
 1786TIP3    H1 5311   2.086   0.330   2.961
 1786TIP3    H2 5312   2.058   0.238   2.848
 1787TIP3   OH2 5313   3.297   0.966   3.412
 1787TIP3    H1 5314   3.255   1.012   3.336
 1787TIP3    H2 5315   3.392   0.984   3.391
 1788TIP3   OH2 5316   1.907   0.443   3.319
 1788TIP3    H1 5317   1.848   0.478   3.386
 1788TIP3    H2 5318   1.873   0.487   3.237
 1789TIP3   OH2 5319   2.072   0.997   4.391
 1789TIP3    H1 5320   2.158   0.999   4.439
 1789TIP3    H2 5321   2.053   0.902   4.391
 1790TIP3   OH2 5322   2.547   0.954   4.439
 1790TIP3    H1 5323   2.642   0.938   4.444
 1790TIP3    H2 5324   2.522   0.894   4.366
 1791TIP3   OH2 5325   2.523   0.539   2.549
 1791TIP3    H1 5326   2.472   0.469   2.595
 1791TIP3    H2 5327   2.603   0.489   2.523
 1792TIP3   OH2 5328   3.190   0.863   4.170
 1792TIP3    H1 5329   3.180   0.794   4.240
 1792TIP3    H2 5330   3.266   0.915   4.202
 1793TIP3   OH2 5331   2.967   0.569   2.477
 1793TIP3    H1 5332   3.013   0.510   2.539
 1793TIP3    H2 5333   3.026   0.570   2.400
 1794TIP3   OH2 5334   2.201   0.395   4.597
 1794TIP3    H1 5335   2.224   0.300   4.592
 1794TIP3    H2 5336   2.114   0.398   4.552
 1795TIP3   OH2 5337   2.195   0.029   2.800
 1795TIP3    H1 5338   2.264   0.044   2.868
 1795TIP3    H2 5339   2.217   0.098   2.736
 1796TIP3   OH2 5340   2.804   0.487   4.368
 1796TIP3    H1 5341   2.765   0.505   4.280
 1796TIP3    H2 5342   2.834   0.394   4.360
 1797TIP3   OH2 5343   2.657   0.243   2.599
 1797TIP3    H1 5344   2.685   0.260   2.691
 1797TIP3    H2 5345   2.681   0.148   2.592
 1798TIP3   OH2 5346   3.299   0.496   3.975
 1798TIP3    H1 5347   3.374   0.541   3.932
 1798TIP3    H2 5348   3.227   0.558   3.959
 1799TIP3   OH2 5349   2.324   0.148   4.597
 1799TIP3    H1 5350   2.378   0.089   4.542
 1799TIP3    H2 5351   2.359   0.129   4.684
 1800TIP3   OH2 5352   2.380  -0.033   3.013
 1800TIP3    H1 5353   2.373  -0.060   3.106
 1800TIP3    H2 5354   2.438  -0.103   2.973
 1801TIP3   OH2 5355   2.638   0.007   4.230
 1801TIP3    H1 5356   2.571   0.078   4.238
 1801TIP3    H2 5357   2.703   0.048   4.169
 1802TIP3   OH2 5358   2.505  -0.235   2.883
 1802TIP3    H1 5359   2.469  -0.306   2.826
 1802TIP3    H2 5360   2.598  -0.229   2.852
 1803TIP3   OH2 5361   3.176   0.424   4.373
 1803TIP3    H1 5362   3.244   0.382   4.319
 1803TIP3    H2 5363   3.159   0.355   4.439
 1804TIP3   OH2 5364   3.308   0.077   2.511
 1804TIP3    H1 5365   3.285   0.034   2.426
 1804TIP3    H2 5366   3.274   0.167   2.492
 1805TIP3   OH2 5367   2.762  -0.206   4.341
 1805TIP3    H1 5368   2.791  -0.250   4.258
 1805TIP3    H2 5369   2.716  -0.129   4.302
 1806TIP3   OH2 5370   2.806   0.133   4.067
 1806TIP3    H1 5371   2.881   0.112   4.009
 1806TIP3    H2 5372   2.754   0.195   4.012
 1807TIP3   OH2 5373   3.389   0.126   4.428
 1807TIP3    H1 5374   3.393   0.036   4.391
 1807TIP3    H2 5375   3.466   0.168   4.387
 1808TIP3   OH2 5376   3.429   0.348   4.160
 1808TIP3    H1 5377   3.369   0.401   4.104
 1808TIP3    H2 5378   3.516   0.373   4.121
 1809TIP3   OH2 5379   2.633  -0.086   4.591
 1809TIP3    H1 5380   2.607  -0.177   4.575
 1809TIP3    H2 5381   2.694  -0.072   4.516
 1810TIP3   OH2 5382   2.991  -0.068   4.441
 1810TIP3    H1 5383   2.993  -0.101   4.534
 1810TIP3    H2 5384   2.928  -0.132   4.404
 1811TIP3   OH2 5385   3.349  -0.107   4.298
 1811TIP3    H1 5386   3.260  -0.146   4.310
 1811TIP3    H2 5387   3.401  -0.170   4.353
 1812TIP3   OH2 5388   2.295   0.805   2.759
 1812TIP3    H1 5389   2.390   0.803   2.736
 1812TIP3    H2 5390   2.262   0.860   2.685
 1813TIP3   OH2 5391   1.694   0.802   3.384
 1813TIP3    H1 5392   1.627   0.740   3.348
 1813TIP3    H2 5393   1.738   0.745   3.451
 1814TIP3   OH2 5394   1.828   0.648   3.571
 1814TIP3    H1 5395   1.812   0.582   3.640
 1814TIP3    H2 5396   1.879   0.713   3.622
 1815TIP3   OH2 5397   3.553   1.052   3.372
 1815TIP3    H1 5398   3.577   1.085   3.461
 1815TIP3    H2 5399   3.616   1.099   3.315
 1816TIP3   OH2 5400   3.579   1.074   3.654
 1816TIP3    H1 5401   3.534   0.987   3.650
 1816TIP3    H2 5402   3.654   1.051   3.711
 1817TIP3   OH2 5403   3.627   0.750   4.229
 1817TIP3    H1 5404   3.555   0.760   4.293
 1817TIP3    H2 5405   3.669   0.839   4.232
 1818TIP3   OH2 5406   3.445   0.262   2.845
 1818TIP3    H1 5407   3.510   0.328   2.815
 1818TIP3    H2 5408   3.489   0.226   2.925
 1819TIP3   OH2 5409   3.572   0.127   3.049
 1819TIP3    H1 5410   3.504   0.088   3.109
 1819TIP3    H2 5411   3.636   0.166   3.112
 1820TIP3   OH2 5412   3.629   0.527   3.483
 1820TIP3    H1 5413   3.679   0.458   3.434
 1820TIP3    H2 5414   3.623   0.599   3.417
 1821TIP3   OH2 5415   3.454   0.825   3.675
 1821TIP3    H1 5416   3.383   0.867   3.727
 1821TIP3    H2 5417   3.404   0.780   3.604
 1822TIP3   OH2 5418   3.509   0.035   2.694
 1822TIP3    H1 5419   3.440   0.044   2.625
 1822TIP3    H2 5420   3.483   0.110   2.752
 1823TIP3   OH2 5421   3.387  -0.300   2.643
 1823TIP3    H1 5422   3.350  -0.226   2.593
 1823TIP3    H2 5423   3.322  -0.369   2.626
 1824TIP3   OH2 5424   3.386  -0.007   3.200
 1824TIP3    H1 5425   3.396  -0.103   3.200
 1824TIP3    H2 5426   3.367   0.011   3.295
 1825TIP3   OH2 5427   2.008   0.062   3.944
 1825TIP3    H1 5428   2.008   0.029   3.853
 1825TIP3    H2 5429   2.105   0.068   3.961
 1826TIP3   OH2 5430   3.672   0.418   4.053
 1826TIP3    H1 5431   3.741   0.350   4.039
 1826TIP3    H2 5432   3.696   0.486   3.988
 1827TIP3   OH2 5433   3.860   0.223   4.054
 1827TIP3    H1 5434   3.796   0.175   4.110
 1827TIP3    H2 5435   3.944   0.178   4.074
 1828TIP3   OH2 5436   3.374  -0.285   3.050
 1828TIP3    H1 5437   3.435  -0.322   3.117
 1828TIP3    H2 5438   3.435  -0.260   2.978
 1829TIP3   OH2 5439   3.549  -0.103   3.587
 1829TIP3    H1 5440   3.637  -0.085   3.548
 1829TIP3    H2 5441   3.559  -0.061   3.675
 1830TIP3   OH2 5442   3.610   0.032   3.817
 1830TIP3    H1 5443   3.532   0.066   3.867
 1830TIP3    H2 5444   3.643   0.114   3.775
 1831TIP3   OH2 5445   2.285  -0.199   4.603
 1831TIP3    H1 5446   2.356  -0.260   4.584
 1831TIP3    H2 5447   2.220  -0.258   4.647
 1832TIP3   OH2 5448   1.999  -0.285   4.022
 1832TIP3    H1 5449   2.044  -0.293   3.935
 1832TIP3    H2 5450   2.032  -0.199   4.051
 1833TIP3   OH2 5451   3.133   0.922   3.027
 1833TIP3    H1 5452   3.187   0.914   2.945
 1833TIP3    H2 5453   3.184   0.989   3.077
 1834TIP3   OH2 5454   2.236   0.726   4.410
 1834TIP3    H1 5455   2.143   0.701   4.396
 1834TIP3    H2 5456   2.246   0.715   4.505
 1835TIP3   OH2 5457   2.414   0.761   3.959
 1835TIP3    H1 5458   2.368   0.838   3.920
 1835TIP3    H2 5459   2.501   0.774   3.915
 1836TIP3   OH2 5460   2.856   1.003   4.098
 1836TIP3    H1 5461   2.898   1.002   4.186
 1836TIP3    H2 5462   2.922   1.055   4.047
 1837TIP3   OH2 5463   3.036   1.156   3.959
 1837TIP3    H1 5464   3.106   1.105   3.917
 1837TIP3    H2 5465   3.088   1.213   4.020
 1838TIP3   OH2 5466   2.088   1.014   3.986
 1838TIP3    H1 5467   1.997   1.046   3.964
 1838TIP3    H2 5468   2.104   1.063   4.068
 1839TIP3   OH2 5469   2.325   0.994   3.843
 1839TIP3    H1 5470   2.238   1.006   3.887
 1839TIP3    H2 5471   2.307   1.027   3.753
 1840TIP3   OH2 5472   2.752   1.021   3.640
 1840TIP3    H1 5473   2.681   1.041   3.576
 1840TIP3    H2 5474   2.763   1.109   3.683
 1841TIP3   OH2 5475   3.021   0.960   3.692
 1841TIP3    H1 5476   2.927   0.979   3.672
 1841TIP3    H2 5477   3.066   1.036   3.650
 1842TIP3   OH2 5478   3.226   1.151   3.605
 1842TIP3    H1 5479   3.213   1.236   3.558
 1842TIP3    H2 5480   3.254   1.091   3.533
 1843TIP3   OH2 5481   2.002   0.808   3.726
 1843TIP3    H1 5482   2.026   0.782   3.817
 1843TIP3    H2 5483   2.075   0.763   3.677
 1844TIP3   OH2 5484   2.198   0.679   3.586
 1844TIP3    H1 5485   2.212   0.596   3.637
 1844TIP3    H2 5486   2.289   0.715   3.584
 1845TIP3   OH2 5487   2.463   0.771   3.593
 1845TIP3    H1 5488   2.494   0.679   3.585
 1845TIP3    H2 5489   2.511   0.797   3.675
 1846TIP3   OH2 5490   1.790   0.579   3.121
 1846TIP3    H1 5491   1.706   0.546   3.082
 1846TIP3    H2 5492   1.775   0.674   3.113
 1847TIP3   OH2 5493   2.563   0.766   2.702
 1847TIP3    H1 5494   2.651   0.789   2.666
 1847TIP3    H2 5495   2.538   0.695   2.639
 1848TIP3   OH2 5496   3.281   0.889   2.795
 1848TIP3    H1 5497   3.272   0.791   2.785
 1848TIP3    H2 5498   3.235   0.920   2.715
 1849TIP3   OH2 5499   1.879   0.601   2.790
 1849TIP3    H1 5500   1.885   0.638   2.878
 1849TIP3    H2 5501   1.972   0.576   2.770
 1850TIP3   OH2 5502   3.506   1.031   3.981
 1850TIP3    H1 5503   3.427   1.001   3.931
 1850TIP3    H2 5504   3.486   1.127   3.988
 1851TIP3   OH2 5505   4.772   0.401   2.748
 1851TIP3    H1 5506   4.743   0.492   2.728
 1851TIP3    H2 5507   4.696   0.352   2.714
 1852TIP3   OH2 5508   4.774   0.404   3.131
 1852TIP3    H1 5509   4.805   0.376   3.219
 1852TIP3    H2 5510   4.733   0.322   3.098
 1853TIP3   OH2 5511   4.070   0.303   3.491
 1853TIP3    H1 5512   4.104   0.232   3.550
 1853TIP3    H2 5513   4.149   0.359   3.486
 1854TIP3   OH2 5514   5.024   0.698   2.815
 1854TIP3    H1 5515   5.002   0.638   2.886
 1854TIP3    H2 5516   5.050   0.779   2.863
 1855TIP3   OH2 5517   4.044   0.709   3.216
 1855TIP3    H1 5518   4.035   0.612   3.218
 1855TIP3    H2 5519   4.141   0.719   3.210
 1856TIP3   OH2 5520   3.745  -0.099   3.004
 1856TIP3    H1 5521   3.696  -0.019   3.029
 1856TIP3    H2 5522   3.678  -0.144   2.948
 1857TIP3   OH2 5523   3.809   0.198   3.178
 1857TIP3    H1 5524   3.859   0.120   3.211
 1857TIP3    H2 5525   3.874   0.242   3.122
 1858TIP3   OH2 5526   4.667   1.172   2.832
 1858TIP3    H1 5527   4.707   1.103   2.775
 1858TIP3    H2 5528   4.659   1.125   2.916
 1859TIP3   OH2 5529   4.570   0.630   3.180
 1859TIP3    H1 5530   4.610   0.555   3.133
 1859TIP3    H2 5531   4.652   0.678   3.204
 1860TIP3   OH2 5532   4.985   0.120   3.220
 1860TIP3    H1 5533   5.018   0.032   3.243
 1860TIP3    H2 5534   4.953   0.108   3.129
 1861TIP3   OH2 5535   4.320  -0.185   3.197
 1861TIP3    H1 5536   4.298  -0.115   3.132
 1861TIP3    H2 5537   4.310  -0.265   3.141
 1862TIP3   OH2 5538   5.002  -0.097   2.799
 1862TIP3    H1 5539   5.082  -0.103   2.854
 1862TIP3    H2 5540   5.038  -0.093   2.709
 1863TIP3   OH2 5541   3.956  -0.011   3.275
 1863TIP3    H1 5542   4.030  -0.032   3.337
 1863TIP3    H2 5543   3.979  -0.071   3.202
 1864TIP3   OH2 5544   4.396   0.190   3.077
 1864TIP3    H1 5545   4.491   0.168   3.092
 1864TIP3    H2 5546   4.361   0.105   3.044
 1865TIP3   OH2 5547   5.644   0.147   3.339
 1865TIP3    H1 5548   5.572   0.205   3.309
 1865TIP3    H2 5549   5.688   0.202   3.405
 1866TIP3   OH2 5550   4.643   0.613   2.625
 1866TIP3    H1 5551   4.627   0.615   2.530
 1866TIP3    H2 5552   4.614   0.703   2.650
 1867TIP3   OH2 5553   4.425   0.549   3.402
 1867TIP3    H1 5554   4.365   0.619   3.439
 1867TIP3    H2 5555   4.467   0.597   3.327
 1868TIP3   OH2 5556   4.177  -0.090   3.409
 1868TIP3    H1 5557   4.245  -0.028   3.440
 1868TIP3    H2 5558   4.225  -0.137   3.339
 1869TIP3   OH2 5559   4.254   0.746   3.502
 1869TIP3    H1 5560   4.229   0.833   3.465
 1869TIP3    H2 5561   4.175   0.729   3.556
 1870TIP3   OH2 5562   3.645   0.436   2.738
 1870TIP3    H1 5563   3.605   0.466   2.654
 1870TIP3    H2 5564   3.678   0.520   2.774
 1871TIP3   OH2 5565   5.087   0.952   2.980
 1871TIP3    H1 5566   4.997   0.943   3.018
 1871TIP3    H2 5567   5.078   1.036   2.931
 1872TIP3   OH2 5568   4.781   1.001   2.651
 1872TIP3    H1 5569   4.826   0.915   2.632
 1872TIP3    H2 5570   4.845   1.062   2.609
 1873TIP3   OH2 5571   4.906   0.774   2.574
 1873TIP3    H1 5572   4.921   0.710   2.503
 1873TIP3    H2 5573   4.955   0.735   2.649
 1874TIP3   OH2 5574   5.312   0.860   3.322
 1874TIP3    H1 5575   5.298   0.784   3.261
 1874TIP3    H2 5576   5.292   0.936   3.263
 1875TIP3   OH2 5577   4.601   0.256   2.580
 1875TIP3    H1 5578   4.525   0.315   2.559
 1875TIP3    H2 5579   4.650   0.256   2.495
 1876TIP3   OH2 5580   4.551   0.044   2.304
 1876TIP3    H1 5581   4.617   0.101   2.346
 1876TIP3    H2 5582   4.610  -0.016   2.254
 1877TIP3   OH2 5583   5.508   0.505   3.171
 1877TIP3    H1 5584   5.422   0.554   3.172
 1877TIP3    H2 5585   5.538   0.526   3.080
 1878TIP3   OH2 5586   4.953   0.335   2.551
 1878TIP3    H1 5587   4.899   0.361   2.629
 1878TIP3    H2 5588   5.038   0.313   2.594
 1879TIP3   OH2 5589   5.180   0.383   3.456
 1879TIP3    H1 5590   5.176   0.466   3.508
 1879TIP3    H2 5591   5.091   0.384   3.416
 1880TIP3   OH2 5592   4.182   0.331   2.969
 1880TIP3    H1 5593   4.150   0.274   2.897
 1880TIP3    H2 5594   4.262   0.282   3.001
 1881TIP3   OH2 5595   4.312   0.745   3.117
 1881TIP3    H1 5596   4.294   0.715   3.027
 1881TIP3    H2 5597   4.402   0.710   3.133
 1882TIP3   OH2 5598   4.322   0.303   3.325
 1882TIP3    H1 5599   4.354   0.280   3.235
 1882TIP3    H2 5600   4.364   0.390   3.341
 1883TIP3   OH2 5601   4.845   0.946   3.100
 1883TIP3    H1 5602   4.832   1.026   3.152
 1883TIP3    H2 5603   4.827   0.874   3.163
 1884TIP3   OH2 5604   4.459   0.863   3.647
 1884TIP3    H1 5605   4.397   0.925   3.692
 1884TIP3    H2 5606   4.394   0.810   3.595
 1885TIP3   OH2 5607   4.784   0.205   2.376
 1885TIP3    H1 5608   4.846   0.265   2.424
 1885TIP3    H2 5609   4.811   0.222   2.282
 1886TIP3   OH2 5610   4.215   0.417   3.752
 1886TIP3    H1 5611   4.220   0.506   3.793
 1886TIP3    H2 5612   4.120   0.398   3.764
 1887TIP3   OH2 5613   4.536   0.878   2.655
 1887TIP3    H1 5614   4.621   0.927   2.659
 1887TIP3    H2 5615   4.478   0.941   2.611
 1888TIP3   OH2 5616   4.252   1.029   3.734
 1888TIP3    H1 5617   4.216   1.034   3.643
 1888TIP3    H2 5618   4.172   1.008   3.787
 1889TIP3   OH2 5619   4.056   0.169   2.756
 1889TIP3    H1 5620   3.990   0.222   2.706
 1889TIP3    H2 5621   3.998   0.108   2.802
 1890TIP3   OH2 5622   5.097   0.803   1.944
 1890TIP3    H1 5623   5.110   0.900   1.954
 1890TIP3    H2 5624   5.189   0.773   1.955
 1891TIP3   OH2 5625   3.831   0.562   3.680
 1891TIP3    H1 5626   3.761   0.543   3.613
 1891TIP3    H2 5627   3.868   0.473   3.697
 1892TIP3   OH2 5628   3.685   0.757   3.309
 1892TIP3    H1 5629   3.781   0.753   3.304
 1892TIP3    H2 5630   3.672   0.835   3.366
 1893TIP3   OH2 5631   5.550   1.211   3.372
 1893TIP3    H1 5632   5.546   1.114   3.383
 1893TIP3    H2 5633   5.466   1.237   3.416
 1894TIP3   OH2 5634   4.655   0.990   3.505
 1894TIP3    H1 5635   4.652   1.083   3.536
 1894TIP3    H2 5636   4.582   0.951   3.558
 1895TIP3   OH2 5637   4.416   1.118   2.459
 1895TIP3    H1 5638   4.374   1.104   2.373
 1895TIP3    H2 5639   4.385   1.207   2.484
 1896TIP3   OH2 5640   3.854   0.970   2.842
 1896TIP3    H1 5641   3.903   0.962   2.927
 1896TIP3    H2 5642   3.798   0.890   2.846
 1897TIP3   OH2 5643   4.615   1.018   2.092
 1897TIP3    H1 5644   4.679   0.952   2.060
 1897TIP3    H2 5645   4.650   1.037   2.182
 1898TIP3   OH2 5646   4.667   1.073   2.358
 1898TIP3    H1 5647   4.582   1.079   2.407
 1898TIP3    H2 5648   4.727   1.040   2.426
 1899TIP3   OH2 5649   5.438   0.358   3.669
 1899TIP3    H1 5650   5.359   0.389   3.623
 1899TIP3    H2 5651   5.448   0.267   3.633
 1900TIP3   OH2 5652   4.035   0.745   3.664
 1900TIP3    H1 5653   4.083   0.730   3.748
 1900TIP3    H2 5654   3.960   0.682   3.673
 1901TIP3   OH2 5655   5.206   0.113   3.520
 1901TIP3    H1 5656   5.170   0.126   3.610
 1901TIP3    H2 5657   5.181   0.197   3.478
 1902TIP3   OH2 5658   4.866   0.237   2.120
 1902TIP3    H1 5659   4.836   0.215   2.030
 1902TIP3    H2 5660   4.948   0.287   2.100
 1903TIP3   OH2 5661   4.378   0.084   3.482
 1903TIP3    H1 5662   4.322   0.110   3.559
 1903TIP3    H2 5663   4.362   0.161   3.423
 1904TIP3   OH2 5664   4.247  -0.032   2.982
 1904TIP3    H1 5665   4.155  -0.063   2.999
 1904TIP3    H2 5666   4.265  -0.075   2.897
 1905TIP3   OH2 5667   4.734   0.059   2.718
 1905TIP3    H1 5668   4.688   0.132   2.671
 1905TIP3    H2 5669   4.795   0.026   2.649
 1906TIP3   OH2 5670   4.918   0.353   3.775
 1906TIP3    H1 5671   4.881   0.297   3.848
 1906TIP3    H2 5672   5.010   0.361   3.803
 1907TIP3   OH2 5673   4.893   0.096   2.958
 1907TIP3    H1 5674   4.829   0.133   2.894
 1907TIP3    H2 5675   4.926   0.021   2.904
 1908TIP3   OH2 5676   4.184   0.124   3.672
 1908TIP3    H1 5677   4.192   0.185   3.747
 1908TIP3    H2 5678   4.129   0.053   3.706
 1909TIP3   OH2 5679   4.267  -0.387   2.372
 1909TIP3    H1 5680   4.248  -0.413   2.463
 1909TIP3    H2 5681   4.197  -0.433   2.325
 1910TIP3   OH2 5682   4.911   0.328   3.374
 1910TIP3    H1 5683   4.943   0.256   3.314
 1910TIP3    H2 5684   4.878   0.273   3.449
 1911TIP3   OH2 5685   4.555  -0.180   3.033
 1911TIP3    H1 5686   4.482  -0.190   3.095
 1911TIP3    H2 5687   4.630  -0.199   3.094
 1912TIP3   OH2 5688   4.004  -0.161   3.037
 1912TIP3    H1 5689   3.911  -0.133   3.019
 1912TIP3    H2 5690   3.989  -0.252   3.064
 1913TIP3   OH2 5691   4.286  -0.180   2.719
 1913TIP3    H1 5692   4.381  -0.174   2.746
 1913TIP3    H2 5693   4.287  -0.104   2.658
 1914TIP3   OH2 5694   4.099  -0.141   2.497
 1914TIP3    H1 5695   4.044  -0.167   2.419
 1914TIP3    H2 5696   4.165  -0.085   2.447
 1915TIP3   OH2 5697   5.243   1.557   3.469
 1915TIP3    H1 5698   5.239   1.581   3.374
 1915TIP3    H2 5699   5.323   1.605   3.498
 1916TIP3   OH2 5700   4.198   0.668   3.887
 1916TIP3    H1 5701   4.277   0.698   3.936
 1916TIP3    H2 5702   4.133   0.666   3.960
 1917TIP3   OH2 5703   4.654   0.121   3.150
 1917TIP3    H1 5704   4.724   0.075   3.101
 1917TIP3    H2 5705   4.655   0.075   3.236
 1918TIP3   OH2 5706   4.643   0.031   3.419
 1918TIP3    H1 5707   4.552   0.052   3.446
 1918TIP3    H2 5708   4.697   0.083   3.480
 1919TIP3   OH2 5709   4.374   0.410   2.526
 1919TIP3    H1 5710   4.299   0.348   2.514
 1919TIP3    H2 5711   4.355   0.445   2.617
 1920TIP3   OH2 5712   5.272   0.643   3.156
 1920TIP3    H1 5713   5.296   0.695   3.077
 1920TIP3    H2 5714   5.187   0.600   3.129
 1921TIP3   OH2 5715   4.892  -0.244   2.337
 1921TIP3    H1 5716   4.795  -0.256   2.345
 1921TIP3    H2 5717   4.902  -0.159   2.385
 1922TIP3   OH2 5718   4.774   0.728   3.526
 1922TIP3    H1 5719   4.796   0.710   3.617
 1922TIP3    H2 5720   4.735   0.817   3.530
 1923TIP3   OH2 5721   4.896  -0.019   2.500
 1923TIP3    H1 5722   4.993  -0.008   2.506
 1923TIP3    H2 5723   4.867   0.061   2.451
 1924TIP3   OH2 5724   4.064   0.428   3.202
 1924TIP3    H1 5725   4.105   0.401   3.118
 1924TIP3    H2 5726   4.110   0.371   3.266
 1925TIP3   OH2 5727   4.517   0.558   2.345
 1925TIP3    H1 5728   4.469   0.644   2.351
 1925TIP3    H2 5729   4.467   0.504   2.411
 1926TIP3   OH2 5730   3.952   0.344   3.812
 1926TIP3    H1 5731   3.960   0.337   3.909
 1926TIP3    H2 5732   3.875   0.288   3.796
 1927TIP3   OH2 5733   4.671   0.471   3.834
 1927TIP3    H1 5734   4.609   0.409   3.794
 1927TIP3    H2 5735   4.756   0.441   3.796
 1928TIP3   OH2 5736   4.933   0.984   3.424
 1928TIP3    H1 5737   4.836   0.984   3.436
 1928TIP3    H2 5738   4.961   1.039   3.501
 1929TIP3   OH2 5739   5.337   0.066   2.330
 1929TIP3    H1 5740   5.273   0.021   2.269
 1929TIP3    H2 5741   5.331   0.155   2.288
 1930TIP3   OH2 5742   5.562   0.918   3.410
 1930TIP3    H1 5743   5.464   0.914   3.400
 1930TIP3    H2 5744   5.589   0.888   3.320
 1931TIP3   OH2 5745   5.039   0.506   3.076
 1931TIP3    H1 5746   4.945   0.482   3.088
 1931TIP3    H2 5747   5.072   0.427   3.029
 1932TIP3   OH2 5748   4.170   0.737   2.830
 1932TIP3    H1 5749   4.168   0.817   2.774
 1932TIP3    H2 5750   4.075   0.721   2.842
 1933TIP3   OH2 5751   3.733   0.040   2.530
 1933TIP3    H1 5752   3.776   0.124   2.555
 1933TIP3    H2 5753   3.660   0.035   2.594
 1934TIP3   OH2 5754   4.296   0.496   2.770
 1934TIP3    H1 5755   4.268   0.588   2.787
 1934TIP3    H2 5756   4.264   0.450   2.849
 1935TIP3   OH2 5757   4.437   1.079   3.296
 1935TIP3    H1 5758   4.479   1.152   3.246
 1935TIP3    H2 5759   4.514   1.042   3.343
 1936TIP3   OH2 5760   4.086   0.974   2.680
 1936TIP3    H1 5761   4.001   0.985   2.727
 1936TIP3    H2 5762   4.119   1.067   2.682
 1937TIP3   OH2 5763   4.821   0.711   3.257
 1937TIP3    H1 5764   4.812   0.710   3.355
 1937TIP3    H2 5765   4.901   0.658   3.244
 1938TIP3   OH2 5766   4.799   0.603   2.138
 1938TIP3    H1 5767   4.857   0.585   2.216
 1938TIP3    H2 5768   4.714   0.576   2.174
 1939TIP3   OH2 5769   5.072   1.245   3.305
 1939TIP3    H1 5770   4.991   1.191   3.298
 1939TIP3    H2 5771   5.057   1.310   3.233
 1940TIP3   OH2 5772   5.132   1.075   1.957
 1940TIP3    H1 5773   5.170   1.156   1.919
 1940TIP3    H2 5774   5.064   1.114   2.015
 1941TIP3   OH2 5775   4.957   0.539   2.360
 1941TIP3    H1 5776   4.954   0.470   2.429
 1941TIP3    H2 5777   5.053   0.542   2.342
 1942TIP3   OH2 5778   3.875   0.938   3.455
 1942TIP3    H1 5779   3.931   0.868   3.493
 1942TIP3    H2 5780   3.899   1.013   3.511
 1943TIP3   OH2 5781   4.162   0.587   2.141
 1943TIP3    H1 5782   4.179   0.494   2.115
 1943TIP3    H2 5783   4.144   0.577   2.236
 1944TIP3   OH2 5784   4.109   0.591   2.413
 1944TIP3    H1 5785   4.186   0.568   2.467
 1944TIP3    H2 5786   4.110   0.689   2.419
 1945TIP3   OH2 5787   3.845   0.286   2.620
 1945TIP3    H1 5788   3.777   0.331   2.674
 1945TIP3    H2 5789   3.856   0.352   2.548
 1946TIP3   OH2 5790   4.375   0.787   2.359
 1946TIP3    H1 5791   4.288   0.812   2.396
 1946TIP3    H2 5792   4.395   0.867   2.307
 1947TIP3   OH2 5793   4.549  -0.138   2.769
 1947TIP3    H1 5794   4.610  -0.062   2.757
 1947TIP3    H2 5795   4.561  -0.155   2.866
 1948TIP3   OH2 5796   4.836   0.168   3.583
 1948TIP3    H1 5797   4.855   0.234   3.654
 1948TIP3    H2 5798   4.876   0.088   3.617
 1949TIP3   OH2 5799   4.120   0.862   2.429
 1949TIP3    H1 5800   4.091   0.933   2.367
 1949TIP3    H2 5801   4.105   0.906   2.516
 1950TIP3   OH2 5802   5.471   0.106   3.563
 1950TIP3    H1 5803   5.376   0.104   3.536
 1950TIP3    H2 5804   5.512   0.069   3.482
 1951TIP3   OH2 5805   5.125   0.265   2.955
 1951TIP3    H1 5806   5.049   0.205   2.968
 1951TIP3    H2 5807   5.198   0.218   3.001
 1952TIP3   OH2 5808   3.837   0.489   2.420
 1952TIP3    H1 5809   3.905   0.559   2.431
 1952TIP3    H2 5810   3.883   0.434   2.353
 1953TIP3   OH2 5811   5.093   1.224   2.900
 1953TIP3    H1 5812   5.050   1.273   2.826
 1953TIP3    H2 5813   5.188   1.240   2.877
 1954TIP3   OH2 5814   3.703   0.700   2.803
 1954TIP3    H1 5815   3.643   0.734   2.870
 1954TIP3    H2 5816   3.670   0.746   2.722
 1955TIP3   OH2 5817   3.867   1.254   3.879
 1955TIP3    H1 5818   3.953   1.253   3.926
 1955TIP3    H2 5819   3.846   1.159   3.879
 1956TIP3   OH2 5820   4.344   1.210   3.926
 1956TIP3    H1 5821   4.439   1.194   3.929
 1956TIP3    H2 5822   4.317   1.150   3.854
 1957TIP3   OH2 5823   4.326   0.787   2.049
 1957TIP3    H1 5824   4.267   0.719   2.089
 1957TIP3    H2 5825   4.404   0.733   2.030
 1958TIP3   OH2 5826   4.985   1.122   3.658
 1958TIP3    H1 5827   4.978   1.052   3.728
 1958TIP3    H2 5828   5.062   1.174   3.689
 1959TIP3   OH2 5829   4.781   0.833   1.959
 1959TIP3    H1 5830   4.815   0.767   2.023
 1959TIP3    H2 5831   4.861   0.884   1.939
 1960TIP3   OH2 5832   3.996   0.658   4.079
 1960TIP3    H1 5833   4.012   0.562   4.085
 1960TIP3    H2 5834   3.909   0.661   4.034
 1961TIP3   OH2 5835   3.974   0.305   2.276
 1961TIP3    H1 5836   4.033   0.281   2.350
 1961TIP3    H2 5837   4.040   0.310   2.203
 1962TIP3   OH2 5838   4.603   0.745   3.853
 1962TIP3    H1 5839   4.560   0.765   3.768
 1962TIP3    H2 5840   4.631   0.651   3.843
 1963TIP3   OH2 5841   4.483   0.510   2.078
 1963TIP3    H1 5842   4.488   0.521   2.175
 1963TIP3    H2 5843   4.486   0.412   2.072
 1964TIP3   OH2 5844   5.096   0.752   3.464
 1964TIP3    H1 5845   5.171   0.795   3.418
 1964TIP3    H2 5846   5.025   0.817   3.448
 1965TIP3   OH2 5847   4.110   0.399   4.065
 1965TIP3    H1 5848   4.175   0.331   4.043
 1965TIP3    H2 5849   4.145   0.431   4.151
 1966TIP3   OH2 5850   4.173   0.220   2.491
 1966TIP3    H1 5851   4.149   0.185   2.579
 1966TIP3    H2 5852   4.215   0.144   2.447
 1967TIP3   OH2 5853   4.457   0.282   3.728
 1967TIP3    H1 5854   4.374   0.334   3.725
 1967TIP3    H2 5855   4.505   0.316   3.649
 1968TIP3   OH2 5856   4.280   0.000   2.353
 1968TIP3    H1 5857   4.257   0.003   2.258
 1968TIP3    H2 5858   4.378   0.003   2.346
 1969TIP3   OH2 5859   4.968   0.680   3.860
 1969TIP3    H1 5860   5.040   0.645   3.807
 1969TIP3    H2 5861   4.960   0.613   3.930
 1970TIP3   OH2 5862   5.095   0.345   2.005
 1970TIP3    H1 5863   5.091   0.289   1.926
 1970TIP3    H2 5864   5.058   0.429   1.971
 1971TIP3   OH2 5865   4.561   0.067   3.845
 1971TIP3    H1 5866   4.565   0.003   3.773
 1971TIP3    H2 5867   4.522   0.144   3.799
 1972TIP3   OH2 5868   4.602   0.385   3.530
 1972TIP3    H1 5869   4.685   0.398   3.482
 1972TIP3    H2 5870   4.543   0.450   3.486
 1973TIP3   OH2 5871   5.210   0.361   3.935
 1973TIP3    H1 5872   5.195   0.287   3.873
 1973TIP3    H2 5873   5.265   0.421   3.883
 1974TIP3   OH2 5874   5.225   0.603   3.648
 1974TIP3    H1 5875   5.164   0.657   3.591
 1974TIP3    H2 5876   5.311   0.630   3.609
 1975TIP3   OH2 5877   4.448   0.184   4.080
 1975TIP3    H1 5878   4.384   0.117   4.104
 1975TIP3    H2 5879   4.483   0.153   3.995
 1976TIP3   OH2 5880   4.798   0.183   3.936
 1976TIP3    H1 5881   4.795   0.155   4.030
 1976TIP3    H2 5882   4.718   0.137   3.903
 1977TIP3   OH2 5883   5.142   0.147   3.787
 1977TIP3    H1 5884   5.055   0.112   3.813
 1977TIP3    H2 5885   5.198   0.088   3.843
 1978TIP3   OH2 5886   4.090   1.064   2.241
 1978TIP3    H1 5887   4.186   1.058   2.224
 1978TIP3    H2 5888   4.063   1.117   2.164
 1979TIP3   OH2 5889   3.569   0.450   2.457
 1979TIP3    H1 5890   3.664   0.472   2.442
 1979TIP3    H2 5891   3.563   0.361   2.415
 1980TIP3   OH2 5892   3.487   1.059   2.872
 1980TIP3    H1 5893   3.420   0.999   2.833
 1980TIP3    H2 5894   3.531   1.000   2.937
 1981TIP3   OH2 5895   3.622   0.905   3.058
 1981TIP3    H1 5896   3.608   0.837   3.126
 1981TIP3    H2 5897   3.674   0.970   3.109
 1982TIP3   OH2 5898   5.350   1.307   2.859
 1982TIP3    H1 5899   5.378   1.343   2.945
 1982TIP3    H2 5900   5.411   1.350   2.798
 1983TIP3   OH2 5901   5.375   1.333   3.143
 1983TIP3    H1 5902   5.330   1.246   3.135
 1983TIP3    H2 5903   5.452   1.307   3.195
 1984TIP3   OH2 5904   5.426   1.005   3.719
 1984TIP3    H1 5905   5.351   1.017   3.780
 1984TIP3    H2 5906   5.466   1.094   3.718
 1985TIP3   OH2 5907   5.239   0.516   2.332
 1985TIP3    H1 5908   5.298   0.588   2.302
 1985TIP3    H2 5909   5.288   0.483   2.411
 1986TIP3   OH2 5910   5.371   0.384   2.538
 1986TIP3    H1 5911   5.300   0.347   2.595
 1986TIP3    H2 5912   5.431   0.426   2.602
 1987TIP3   OH2 5913   5.426   0.781   2.973
 1987TIP3    H1 5914   5.471   0.714   2.919
 1987TIP3    H2 5915   5.424   0.858   2.912
 1988TIP3   OH2 5916   5.251   1.082   3.165
 1988TIP3    H1 5917   5.178   1.125   3.213
 1988TIP3    H2 5918   5.204   1.037   3.092
 1989TIP3   OH2 5919   5.302   0.295   2.180
 1989TIP3    H1 5920   5.230   0.301   2.113
 1989TIP3    H2 5921   5.276   0.371   2.236
 1990TIP3   OH2 5922   5.170  -0.028   2.145
 1990TIP3    H1 5923   5.181   0.027   2.065
 1990TIP3    H2 5924   5.156  -0.115   2.106
 1991TIP3   OH2 5925   5.183   0.252   2.688
 1991TIP3    H1 5926   5.192   0.156   2.681
 1991TIP3    H2 5927   5.164   0.265   2.783
 1992TIP3   OH2 5928   3.805   0.317   3.431
 1992TIP3    H1 5929   3.802   0.285   3.338
 1992TIP3    H2 5930   3.902   0.321   3.446
 1993TIP3   OH2 5931   5.467   0.674   3.542
 1993TIP3    H1 5932   5.538   0.608   3.526
 1993TIP3    H2 5933   5.486   0.742   3.476
 1994TIP3   OH2 5934   5.654   0.478   3.544
 1994TIP3    H1 5935   5.592   0.430   3.602
 1994TIP3    H2 5936   5.739   0.435   3.564
 1995TIP3   OH2 5937   5.167  -0.024   2.542
 1995TIP3    H1 5938   5.231  -0.063   2.605
 1995TIP3    H2 5939   5.225  -0.004   2.466
 1996TIP3   OH2 5940   5.346   0.155   3.078
 1996TIP3    H1 5941   5.433   0.171   3.036
 1996TIP3    H2 5942   5.359   0.199   3.164
 1997TIP3   OH2 5943   5.408   0.292   3.309
 1997TIP3    H1 5944   5.328   0.327   3.352
 1997TIP3    H2 5945   5.441   0.371   3.262
 1998TIP3   OH2 5946   4.082   0.058   4.088
 1998TIP3    H1 5947   4.163   0.010   4.104
 1998TIP3    H2 5948   4.017  -0.004   4.129
 1999TIP3   OH2 5949   3.798  -0.025   3.506
 1999TIP3    H1 5950   3.846  -0.026   3.421
 1999TIP3    H2 5951   3.821   0.061   3.541
 2000TIP3   OH2 5952   4.929   1.175   2.504
 2000TIP3    H1 5953   4.979   1.128   2.434
 2000TIP3    H2 5954   4.996   1.238   2.532
 2001TIP3   OH2 5955   4.032   0.983   3.898
 2001TIP3    H1 5956   3.939   0.959   3.882
 2001TIP3    H2 5957   4.041   0.964   3.993
 2002TIP3   OH2 5958   4.212   1.017   3.447
 2002TIP3    H1 5959   4.163   1.093   3.407
 2002TIP3    H2 5960   4.298   1.032   3.401
 2003TIP3   OH2 5961   4.652   1.258   3.584
 2003TIP3    H1 5962   4.694   1.259   3.673
 2003TIP3    H2 5963   4.717   1.310   3.532
 2004TIP3   OH2 5964   4.831   1.413   3.446
 2004TIP3    H1 5965   4.900   1.364   3.401
 2004TIP3    H2 5966   4.885   1.469   3.507
 2005TIP3   OH2 5967   3.884   1.271   3.472
 2005TIP3    H1 5968   3.795   1.303   3.449
 2005TIP3    H2 5969   3.897   1.316   3.556
 2006TIP3   OH2 5970   4.122   1.251   3.331
 2006TIP3    H1 5971   4.034   1.263   3.373
 2006TIP3    H2 5972   4.104   1.283   3.240
 2007TIP3   OH2 5973   4.547   1.277   3.130
 2007TIP3    H1 5974   4.480   1.294   3.061
 2007TIP3    H2 5975   4.558   1.366   3.169
 2008TIP3   OH2 5976   4.817   1.217   3.182
 2008TIP3    H1 5977   4.723   1.234   3.161
 2008TIP3    H2 5978   4.862   1.288   3.133
 2009TIP3   OH2 5979   5.025   1.410   3.092
 2009TIP3    H1 5980   5.008   1.493   3.043
 2009TIP3    H2 5981   5.051   1.349   3.019
 2010TIP3   OH2 5982   3.797   1.065   3.214
 2010TIP3    H1 5983   3.823   1.038   3.305
 2010TIP3    H2 5984   3.869   1.021   3.163
 2011TIP3   OH2 5985   3.992   0.937   3.074
 2011TIP3    H1 5986   4.008   0.853   3.125
 2011TIP3    H2 5987   4.083   0.973   3.070
 2012TIP3   OH2 5988   4.258   1.030   3.079
 2012TIP3    H1 5989   4.291   0.939   3.067
 2012TIP3    H2 5990   4.306   1.053   3.161
 2013TIP3   OH2 5991   3.585   0.841   2.606
 2013TIP3    H1 5992   3.499   0.809   2.573
 2013TIP3    H2 5993   3.578   0.935   2.583
 2014TIP3   OH2 5994   4.358   1.022   2.191
 2014TIP3    H1 5995   4.447   1.045   2.155
 2014TIP3    H2 5996   4.336   0.949   2.130
 2015TIP3   OH2 5997   3.659   0.857   2.242
 2015TIP3    H1 5998   3.664   0.886   2.334
 2015TIP3    H2 5999   3.747   0.817   2.228
 2016TIP3   OH2 6000   5.300   1.287   3.470
 2016TIP3    H1 6001   5.223   1.257   3.417
 2016TIP3    H2 6002   5.281   1.383   3.474
 2017TIP3   OH2 6003   6.569   0.657   2.226
 2017TIP3    H1 6004   6.545   0.751   2.210
 2017TIP3    H2 6005   6.487   0.614   2.201
 2018TIP3   OH2 6006   6.567   0.659   2.615
 2018TIP3    H1 6007   6.601   0.642   2.705
 2018TIP3    H2 6008   6.527   0.573   2.594
 2019TIP3   OH2 6009   5.868   0.563   2.981
 2019TIP3    H1 6010   5.904   0.492   3.037
 2019TIP3    H2 6011   5.949   0.613   2.961
 2020TIP3   OH2 6012   6.813   0.962   2.299
 2020TIP3    H1 6013   6.796   0.899   2.370
 2020TIP3    H2 6014   6.844   1.040   2.349
 2021TIP3   OH2 6015   5.842   0.967   2.706
 2021TIP3    H1 6016   5.833   0.869   2.707
 2021TIP3    H2 6017   5.938   0.976   2.695
 2022TIP3   OH2 6018   5.537   0.158   2.495
 2022TIP3    H1 6019   5.495   0.242   2.519
 2022TIP3    H2 6020   5.467   0.120   2.439
 2023TIP3   OH2 6021   5.606   0.455   2.669
 2023TIP3    H1 6022   5.658   0.376   2.698
 2023TIP3    H2 6023   5.665   0.494   2.603
 2024TIP3   OH2 6024   6.465   1.427   2.317
 2024TIP3    H1 6025   6.506   1.356   2.263
 2024TIP3    H2 6026   6.457   1.383   2.403
 2025TIP3   OH2 6027   6.366   0.886   2.667
 2025TIP3    H1 6028   6.408   0.811   2.621
 2025TIP3    H2 6029   6.448   0.934   2.692
 2026TIP3   OH2 6030   6.780   0.378   2.710
 2026TIP3    H1 6031   6.822   0.294   2.732
 2026TIP3    H2 6032   6.754   0.365   2.616
 2027TIP3   OH2 6033   6.119   0.081   2.688
 2027TIP3    H1 6034   6.094   0.147   2.620
 2027TIP3    H2 6035   6.107  -0.002   2.638
 2028TIP3   OH2 6036   5.751   0.243   2.765
 2028TIP3    H1 6037   5.826   0.221   2.825
 2028TIP3    H2 6038   5.773   0.186   2.689
 2029TIP3   OH2 6039   6.190   0.445   2.565
 2029TIP3    H1 6040   6.285   0.423   2.579
 2029TIP3    H2 6041   6.155   0.361   2.529
 2030TIP3   OH2 6042   6.456   0.880   2.102
 2030TIP3    H1 6043   6.421   0.874   2.012
 2030TIP3    H2 6044   6.412   0.962   2.133
 2031TIP3   OH2 6045   6.221   0.805   2.889
 2031TIP3    H1 6046   6.162   0.876   2.925
 2031TIP3    H2 6047   6.264   0.852   2.814
 2032TIP3   OH2 6048   5.973   0.167   2.901
 2032TIP3    H1 6049   6.041   0.229   2.929
 2032TIP3    H2 6050   6.019   0.121   2.828
 2033TIP3   OH2 6051   6.051   1.003   2.989
 2033TIP3    H1 6052   6.026   1.089   2.949
 2033TIP3    H2 6053   5.971   0.987   3.043
 2034TIP3   OH2 6054   5.441   0.694   2.226
 2034TIP3    H1 6055   5.395   0.721   2.144
 2034TIP3    H2 6056   5.466   0.781   2.263
 2035TIP3   OH2 6057   6.880   1.204   2.462
 2035TIP3    H1 6058   6.791   1.198   2.502
 2035TIP3    H2 6059   6.876   1.291   2.418
 2036TIP3   OH2 6060   6.578   1.252   2.136
 2036TIP3    H1 6061   6.629   1.170   2.119
 2036TIP3    H2 6062   6.642   1.317   2.099
 2037TIP3   OH2 6063   6.724   1.042   2.050
 2037TIP3    H1 6064   6.692   0.963   2.004
 2037TIP3    H2 6065   6.761   1.003   2.132
 2038TIP3   OH2 6066   7.105   1.113   2.818
 2038TIP3    H1 6067   7.099   1.043   2.750
 2038TIP3    H2 6068   7.102   1.194   2.763
 2039TIP3   OH2 6069   6.400   0.501   2.051
 2039TIP3    H1 6070   6.318   0.553   2.044
 2039TIP3    H2 6071   6.449   0.536   1.976
 2040TIP3   OH2 6072   6.762   0.613   2.029
 2040TIP3    H1 6073   6.698   0.626   2.102
 2040TIP3    H2 6074   6.834   0.568   2.079
 2041TIP3   OH2 6075   6.960   0.623   2.955
 2041TIP3    H1 6076   6.974   0.711   2.991
 2041TIP3    H2 6077   6.881   0.635   2.900
 2042TIP3   OH2 6078   5.978   0.589   2.456
 2042TIP3    H1 6079   5.942   0.533   2.384
 2042TIP3    H2 6080   6.056   0.538   2.486
 2043TIP3   OH2 6081   6.107   1.000   2.605
 2043TIP3    H1 6082   6.089   0.972   2.514
 2043TIP3    H2 6083   6.197   0.964   2.620
 2044TIP3   OH2 6084   6.115   0.560   2.813
 2044TIP3    H1 6085   6.147   0.536   2.724
 2044TIP3    H2 6086   6.159   0.647   2.828
 2045TIP3   OH2 6087   6.639   1.203   2.585
 2045TIP3    H1 6088   6.629   1.284   2.637
 2045TIP3    H2 6089   6.624   1.132   2.650
 2046TIP3   OH2 6090   6.255   1.119   3.136
 2046TIP3    H1 6091   6.193   1.181   3.179
 2046TIP3    H2 6092   6.192   1.067   3.082
 2047TIP3   OH2 6093   6.013   0.671   3.246
 2047TIP3    H1 6094   6.017   0.762   3.281
 2047TIP3    H2 6095   5.917   0.655   3.246
 2048TIP3   OH2 6096   6.332   1.130   2.145
 2048TIP3    H1 6097   6.414   1.183   2.149
 2048TIP3    H2 6098   6.273   1.186   2.094
 2049TIP3   OH2 6099   6.048   1.286   3.220
 2049TIP3    H1 6100   6.014   1.291   3.129
 2049TIP3    H2 6101   5.968   1.263   3.271
 2050TIP3   OH2 6102   5.851   0.434   2.243
 2050TIP3    H1 6103   5.778   0.483   2.198
 2050TIP3    H2 6104   5.804   0.355   2.273
 2051TIP3   OH2 6105   5.626   0.819   3.167
 2051TIP3    H1 6106   5.558   0.804   3.098
 2051TIP3    H2 6107   5.664   0.730   3.179
 2052TIP3   OH2 6108   5.482   1.005   2.814
 2052TIP3    H1 6109   5.575   1.010   2.787
 2052TIP3    H2 6110   5.469   1.093   2.853
 2053TIP3   OH2 6111   7.299   1.447   2.834
 2053TIP3    H1 6112   7.337   1.367   2.875
 2053TIP3    H2 6113   7.228   1.470   2.898
 2054TIP3   OH2 6114   6.451   1.247   2.992
 2054TIP3    H1 6115   6.448   1.341   3.023
 2054TIP3    H2 6116   6.379   1.208   3.046
 2055TIP3   OH2 6117   6.216   1.376   1.944
 2055TIP3    H1 6118   6.172   1.358   1.858
 2055TIP3    H2 6119   6.180   1.464   1.967
 2056TIP3   OH2 6120   5.650   1.224   2.326
 2056TIP3    H1 6121   5.692   1.215   2.414
 2056TIP3    H2 6122   5.591   1.147   2.326
 2057TIP3   OH2 6123   6.410   1.281   1.587
 2057TIP3    H1 6124   6.468   1.214   1.543
 2057TIP3    H2 6125   6.448   1.285   1.677
 2058TIP3   OH2 6126   6.467   1.327   1.854
 2058TIP3    H1 6127   6.376   1.337   1.891
 2058TIP3    H2 6128   6.513   1.289   1.930
 2059TIP3   OH2 6129   5.831   1.002   3.152
 2059TIP3    H1 6130   5.879   0.985   3.236
 2059TIP3    H2 6131   5.755   0.940   3.160
 2060TIP3   OH2 6132   7.024   0.361   3.030
 2060TIP3    H1 6133   6.987   0.399   3.111
 2060TIP3    H2 6134   7.023   0.440   2.973
 2061TIP3   OH2 6135   6.176   0.341   2.968
 2061TIP3    H1 6136   6.120   0.367   3.044
 2061TIP3    H2 6137   6.161   0.418   2.908
 2062TIP3   OH2 6138   6.043   0.223   2.467
 2062TIP3    H1 6139   5.951   0.194   2.484
 2062TIP3    H2 6140   6.061   0.176   2.383
 2063TIP3   OH2 6141   6.550   0.321   2.213
 2063TIP3    H1 6142   6.492   0.393   2.183
 2063TIP3    H2 6143   6.585   0.294   2.125
 2064TIP3   OH2 6144   6.711   0.614   3.262
 2064TIP3    H1 6145   6.677   0.558   3.335
 2064TIP3    H2 6146   6.805   0.593   3.262
 2065TIP3   OH2 6147   6.701   0.349   2.445
 2065TIP3    H1 6148   6.638   0.375   2.375
 2065TIP3    H2 6149   6.748   0.278   2.400
 2066TIP3   OH2 6150   5.984   0.382   3.157
 2066TIP3    H1 6151   5.989   0.444   3.231
 2066TIP3    H2 6152   5.930   0.310   3.190
 2067TIP3   OH2 6153   5.543  -0.109   2.264
 2067TIP3    H1 6154   5.580  -0.055   2.191
 2067TIP3    H2 6155   5.479  -0.045   2.300
 2068TIP3   OH2 6156   6.682   0.584   2.855
 2068TIP3    H1 6157   6.723   0.513   2.799
 2068TIP3    H2 6158   6.661   0.531   2.934
 2069TIP3   OH2 6159   6.356   0.070   2.519
 2069TIP3    H1 6160   6.277   0.068   2.575
 2069TIP3    H2 6161   6.425   0.053   2.588
 2070TIP3   OH2 6162   5.798   0.102   2.530
 2070TIP3    H1 6163   5.705   0.127   2.510
 2070TIP3    H2 6164   5.790   0.006   2.532
 2071TIP3   OH2 6165   6.092   0.077   2.216
 2071TIP3    H1 6166   6.187   0.103   2.217
 2071TIP3    H2 6167   6.053   0.136   2.149
 2072TIP3   OH2 6168   5.928   0.145   1.971
 2072TIP3    H1 6169   5.838   0.129   2.002
 2072TIP3    H2 6170   5.944   0.066   1.917
 2073TIP3   OH2 6171   7.034   1.818   2.959
 2073TIP3    H1 6172   7.030   1.839   2.863
 2073TIP3    H2 6173   7.108   1.875   2.987
 2074TIP3   OH2 6174   5.993   0.922   3.376
 2074TIP3    H1 6175   6.073   0.955   3.422
 2074TIP3    H2 6176   5.928   0.926   3.449
 2075TIP3   OH2 6177   6.450   0.378   2.636
 2075TIP3    H1 6178   6.521   0.332   2.590
 2075TIP3    H2 6179   6.452   0.334   2.724
 2076TIP3   OH2 6180   6.440   0.282   2.909
 2076TIP3    H1 6181   6.349   0.307   2.934
 2076TIP3    H2 6182   6.495   0.336   2.970
 2077TIP3   OH2 6183   6.176   0.659   2.021
 2077TIP3    H1 6184   6.101   0.597   2.007
 2077TIP3    H2 6185   6.153   0.698   2.109
 2078TIP3   OH2 6186   7.062   0.910   2.638
 2078TIP3    H1 6187   7.086   0.920   2.545
 2078TIP3    H2 6188   6.980   0.857   2.631
 2079TIP3   OH2 6189   6.564   0.983   3.013
 2079TIP3    H1 6190   6.595   0.971   3.104
 2079TIP3    H2 6191   6.531   1.074   3.014
 2080TIP3   OH2 6192   5.863   0.687   2.689
 2080TIP3    H1 6193   5.899   0.661   2.602
 2080TIP3    H2 6194   5.909   0.626   2.749
 2081TIP3   OH2 6195   6.319   0.821   1.853
 2081TIP3    H1 6196   6.267   0.905   1.853
 2081TIP3    H2 6197   6.263   0.764   1.909
 2082TIP3   OH2 6198   5.748   0.600   3.300
 2082TIP3    H1 6199   5.755   0.593   3.397
 2082TIP3    H2 6200   5.668   0.547   3.283
 2083TIP3   OH2 6201   6.465   0.727   3.324
 2083TIP3    H1 6202   6.404   0.668   3.277
 2083TIP3    H2 6203   6.551   0.701   3.285
 2084TIP3   OH2 6204   6.727   1.238   2.913
 2084TIP3    H1 6205   6.631   1.243   2.924
 2084TIP3    H2 6206   6.757   1.294   2.988
 2085TIP3   OH2 6207   6.840   1.126   1.716
 2085TIP3    H1 6208   6.793   1.089   1.792
 2085TIP3    H2 6209   6.815   1.064   1.646
 2086TIP3   OH2 6210   6.833   0.762   2.565
 2086TIP3    H1 6211   6.739   0.737   2.572
 2086TIP3    H2 6212   6.870   0.683   2.520
 2087TIP3   OH2 6213   5.965   0.994   2.318
 2087TIP3    H1 6214   5.963   1.074   2.262
 2087TIP3    H2 6215   5.870   0.975   2.326
 2088TIP3   OH2 6216   5.530   0.299   2.022
 2088TIP3    H1 6217   5.569   0.387   2.039
 2088TIP3    H2 6218   5.449   0.304   2.077
 2089TIP3   OH2 6219   6.095   0.755   2.259
 2089TIP3    H1 6220   6.064   0.846   2.276
 2089TIP3    H2 6221   6.059   0.708   2.336
 2090TIP3   OH2 6222   6.234   1.335   2.783
 2090TIP3    H1 6223   6.275   1.408   2.732
 2090TIP3    H2 6224   6.311   1.299   2.829
 2091TIP3   OH2 6225   5.883   1.230   2.168
 2091TIP3    H1 6226   5.797   1.239   2.214
 2091TIP3    H2 6227   5.915   1.323   2.170
 2092TIP3   OH2 6228   6.616   0.967   2.744
 2092TIP3    H1 6229   6.608   0.965   2.842
 2092TIP3    H2 6230   6.700   0.920   2.731
 2093TIP3   OH2 6231   6.581   0.934   1.656
 2093TIP3    H1 6232   6.636   0.880   1.717
 2093TIP3    H2 6233   6.494   0.894   1.673
 2094TIP3   OH2 6234   6.867   1.502   2.794
 2094TIP3    H1 6235   6.787   1.447   2.783
 2094TIP3    H2 6236   6.855   1.566   2.720
 2095TIP3   OH2 6237   6.908   1.345   1.455
 2095TIP3    H1 6238   6.941   1.436   1.445
 2095TIP3    H2 6239   6.815   1.365   1.472
 2096TIP3   OH2 6240   6.739   0.827   1.860
 2096TIP3    H1 6241   6.724   0.749   1.918
 2096TIP3    H2 6242   6.834   0.818   1.843
 2097TIP3   OH2 6243   5.672   1.199   2.943
 2097TIP3    H1 6244   5.724   1.123   2.973
 2097TIP3    H2 6245   5.705   1.269   3.001
 2098TIP3   OH2 6246   5.957   0.863   1.623
 2098TIP3    H1 6247   5.938   0.784   1.569
 2098TIP3    H2 6248   5.941   0.833   1.715
 2099TIP3   OH2 6249   5.910   0.844   1.900
 2099TIP3    H1 6250   5.981   0.829   1.963
 2099TIP3    H2 6251   5.906   0.942   1.898
 2100TIP3   OH2 6252   5.641   0.546   2.106
 2100TIP3    H1 6253   5.572   0.592   2.160
 2100TIP3    H2 6254   5.650   0.612   2.034
 2101TIP3   OH2 6255   6.174   1.046   1.854
 2101TIP3    H1 6256   6.085   1.073   1.885
 2101TIP3    H2 6257   6.184   1.103   1.777
 2102TIP3   OH2 6258   6.358   0.110   2.253
 2102TIP3    H1 6259   6.428   0.178   2.243
 2102TIP3    H2 6260   6.360   0.095   2.351
 2103TIP3   OH2 6261   6.628   0.425   3.072
 2103TIP3    H1 6262   6.647   0.492   3.141
 2103TIP3    H2 6263   6.694   0.357   3.089
 2104TIP3   OH2 6264   5.917   1.117   1.915
 2104TIP3    H1 6265   5.887   1.186   1.852
 2104TIP3    H2 6266   5.900   1.161   2.001
 2105TIP3   OH2 6267   6.928   0.521   2.446
 2105TIP3    H1 6268   6.846   0.467   2.449
 2105TIP3    H2 6269   6.989   0.465   2.495
 2106TIP3   OH2 6270   5.631   0.744   1.907
 2106TIP3    H1 6271   5.689   0.822   1.915
 2106TIP3    H2 6272   5.680   0.694   1.838
 2107TIP3   OH2 6273   5.616   0.037   2.046
 2107TIP3    H1 6274   5.578   0.127   2.034
 2107TIP3    H2 6275   5.592  -0.008   1.962
 2108TIP3   OH2 6276   6.885   1.473   2.387
 2108TIP3    H1 6277   6.844   1.521   2.312
 2108TIP3    H2 6278   6.979   1.499   2.372
 2109TIP3   OH2 6279   5.486   0.967   2.294
 2109TIP3    H1 6280   5.405   0.989   2.344
 2109TIP3    H2 6281   5.462   1.007   2.207
 2110TIP3   OH2 6282   5.663   1.511   3.367
 2110TIP3    H1 6283   5.750   1.511   3.413
 2110TIP3    H2 6284   5.643   1.416   3.365
 2111TIP3   OH2 6285   6.138   1.465   3.415
 2111TIP3    H1 6286   6.234   1.456   3.416
 2111TIP3    H2 6287   6.114   1.405   3.341
 2112TIP3   OH2 6288   6.134   1.056   1.549
 2112TIP3    H1 6289   6.078   0.981   1.579
 2112TIP3    H2 6290   6.197   1.010   1.490
 2113TIP3   OH2 6291   6.779   1.380   3.147
 2113TIP3    H1 6292   6.773   1.310   3.215
 2113TIP3    H2 6293   6.858   1.430   3.176
 2114TIP3   OH2 6294   6.555   1.099   1.447
 2114TIP3    H1 6295   6.581   1.031   1.514
 2114TIP3    H2 6296   6.630   1.102   1.387
 2115TIP3   OH2 6297   5.791   0.912   3.568
 2115TIP3    H1 6298   5.806   0.816   3.569
 2115TIP3    H2 6299   5.704   0.918   3.521
 2116TIP3   OH2 6300   5.772   0.564   1.752
 2116TIP3    H1 6301   5.838   0.541   1.819
 2116TIP3    H2 6302   5.825   0.570   1.671
 2117TIP3   OH2 6303   6.397   1.001   3.341
 2117TIP3    H1 6304   6.357   1.023   3.254
 2117TIP3    H2 6305   6.425   0.908   3.329
 2118TIP3   OH2 6306   6.274   0.774   1.590
 2118TIP3    H1 6307   6.288   0.784   1.686
 2118TIP3    H2 6308   6.265   0.679   1.581
 2119TIP3   OH2 6309   6.893   1.009   2.954
 2119TIP3    H1 6310   6.970   1.048   2.908
 2119TIP3    H2 6311   6.826   1.077   2.934
 2120TIP3   OH2 6312   5.905   0.651   3.555
 2120TIP3    H1 6313   5.982   0.605   3.519
 2120TIP3    H2 6314   5.941   0.686   3.639
 2121TIP3   OH2 6315   5.978   0.462   1.991
 2121TIP3    H1 6316   5.937   0.455   2.080
 2121TIP3    H2 6317   5.988   0.369   1.968
 2122TIP3   OH2 6318   6.254   0.538   3.215
 2122TIP3    H1 6319   6.171   0.590   3.212
 2122TIP3    H2 6320   6.302   0.571   3.136
 2123TIP3   OH2 6321   6.764   0.938   3.348
 2123TIP3    H1 6322   6.831   0.905   3.287
 2123TIP3    H2 6323   6.757   0.865   3.412
 2124TIP3   OH2 6324   6.359   0.323   3.332
 2124TIP3    H1 6325   6.369   0.262   3.258
 2124TIP3    H2 6326   6.318   0.400   3.286
 2125TIP3   OH2 6327   6.400   0.643   3.019
 2125TIP3    H1 6328   6.482   0.651   2.969
 2125TIP3    H2 6329   6.342   0.708   2.973
 2126TIP3   OH2 6330   7.046   0.609   3.441
 2126TIP3    H1 6331   7.005   0.545   3.379
 2126TIP3    H2 6332   7.067   0.682   3.382
 2127TIP3   OH2 6333   7.033   0.869   3.136
 2127TIP3    H1 6334   6.969   0.920   3.081
 2127TIP3    H2 6335   7.113   0.882   3.083
 2128TIP3   OH2 6336   6.241   0.440   3.568
 2128TIP3    H1 6337   6.185   0.364   3.583
 2128TIP3    H2 6338   6.281   0.419   3.482
 2129TIP3   OH2 6339   6.597   0.440   3.424
 2129TIP3    H1 6340   6.586   0.412   3.517
 2129TIP3    H2 6341   6.519   0.395   3.385
 2130TIP3   OH2 6342   6.926   0.421   3.287
 2130TIP3    H1 6343   6.843   0.372   3.306
 2130TIP3    H2 6344   6.989   0.356   3.324
 2131TIP3   OH2 6345   5.887   1.321   1.729
 2131TIP3    H1 6346   5.982   1.318   1.711
 2131TIP3    H2 6347   5.857   1.371   1.651
 2132TIP3   OH2 6348   5.363   0.700   1.948
 2132TIP3    H1 6349   5.457   0.724   1.932
 2132TIP3    H2 6350   5.359   0.612   1.905
 2133TIP3   OH2 6351   5.282   1.327   2.356
 2133TIP3    H1 6352   5.229   1.254   2.316
 2133TIP3    H2 6353   5.331   1.271   2.422
 2134TIP3   OH2 6354   5.422   1.181   2.540
 2134TIP3    H1 6355   5.389   1.103   2.586
 2134TIP3    H2 6356   5.474   1.226   2.608
 2135TIP3   OH2 6357   7.126   1.590   2.343
 2135TIP3    H1 6358   7.199   1.618   2.400
 2135TIP3    H2 6359   7.163   1.597   2.253
 2136TIP3   OH2 6360   7.170   1.591   2.646
 2136TIP3    H1 6361   7.129   1.509   2.612
 2136TIP3    H2 6362   7.219   1.553   2.721
 2137TIP3   OH2 6363   7.214   1.242   3.213
 2137TIP3    H1 6364   7.140   1.265   3.272
 2137TIP3    H2 6365   7.261   1.327   3.205
 2138TIP3   OH2 6366   7.050   1.335   2.649
 2138TIP3    H1 6367   6.978   1.377   2.700
 2138TIP3    H2 6368   7.001   1.288   2.579
 2139TIP3   OH2 6369   6.958   0.490   2.172
 2139TIP3    H1 6370   7.004   0.405   2.182
 2139TIP3    H2 6371   6.957   0.522   2.265
 2140TIP3   OH2 6372   5.602   0.565   2.922
 2140TIP3    H1 6373   5.599   0.538   2.828
 2140TIP3    H2 6374   5.699   0.575   2.935
 2141TIP3   OH2 6375   5.870   0.308   3.578
 2141TIP3    H1 6376   5.954   0.262   3.580
 2141TIP3    H2 6377   5.813   0.246   3.629
 2142TIP3   OH2 6378   5.597   0.232   2.998
 2142TIP3    H1 6379   5.640   0.222   2.910
 2142TIP3    H2 6380   5.613   0.325   3.016
 2143TIP3   OH2 6381   6.726   1.435   2.006
 2143TIP3    H1 6382   6.774   1.427   1.921
 2143TIP3    H2 6383   6.777   1.502   2.054
 2144TIP3   OH2 6384   5.828   1.238   3.385
 2144TIP3    H1 6385   5.735   1.215   3.368
 2144TIP3    H2 6386   5.836   1.226   3.480
 2145TIP3   OH2 6387   6.008   1.275   2.934
 2145TIP3    H1 6388   5.960   1.350   2.893
 2145TIP3    H2 6389   6.094   1.289   2.889
 2146TIP3   OH2 6390   6.448   1.515   3.071
 2146TIP3    H1 6391   6.491   1.517   3.159
 2146TIP3    H2 6392   6.513   1.567   3.018
 2147TIP3   OH2 6393   6.627   1.669   2.933
 2147TIP3    H1 6394   6.697   1.621   2.886
 2147TIP3    H2 6395   6.680   1.726   2.993
 2148TIP3   OH2 6396   5.681   1.530   2.958
 2148TIP3    H1 6397   5.591   1.562   2.934
 2148TIP3    H2 6398   5.691   1.572   3.045
 2149TIP3   OH2 6399   5.919   1.507   2.817
 2149TIP3    H1 6400   5.831   1.520   2.859
 2149TIP3    H2 6401   5.901   1.537   2.726
 2150TIP3   OH2 6402   6.343   1.533   2.616
 2150TIP3    H1 6403   6.275   1.551   2.548
 2150TIP3    H2 6404   6.356   1.621   2.656
 2151TIP3   OH2 6405   6.614   1.471   2.669
 2151TIP3    H1 6406   6.521   1.492   2.647
 2151TIP3    H2 6407   6.661   1.543   2.622
 2152TIP3   OH2 6408   6.817   1.661   2.578
 2152TIP3    H1 6409   6.803   1.746   2.531
 2152TIP3    H2 6410   6.846   1.602   2.505
 2153TIP3   OH2 6411   5.595   1.324   2.707
 2153TIP3    H1 6412   5.624   1.296   2.796
 2153TIP3    H2 6413   5.665   1.281   2.653
 2154TIP3   OH2 6414   5.787   1.195   2.564
 2154TIP3    H1 6415   5.804   1.111   2.613
 2154TIP3    H2 6416   5.878   1.231   2.556
 2155TIP3   OH2 6417   6.055   1.288   2.566
 2155TIP3    H1 6418   6.087   1.197   2.550
 2155TIP3    H2 6419   6.103   1.309   2.648
 2156TIP3   OH2 6420   5.393   1.089   2.074
 2156TIP3    H1 6421   5.303   1.053   2.086
 2156TIP3    H2 6422   5.371   1.183   2.061
 2157TIP3   OH2 6423   6.154   1.292   1.680
 2157TIP3    H1 6424   6.242   1.314   1.642
 2157TIP3    H2 6425   6.133   1.216   1.621
 2158TIP3   OH2 6426   6.859   1.396   1.769
 2158TIP3    H1 6427   6.855   1.299   1.752
 2158TIP3    H2 6428   6.813   1.431   1.690
 2159TIP3   OH2 6429   5.458   1.123   1.730
 2159TIP3    H1 6430   5.449   1.130   1.826
 2159TIP3    H2 6431   5.546   1.079   1.720
 2160TIP3   OH2 6432   7.081   1.546   2.969
 2160TIP3    H1 6433   7.007   1.518   2.910
 2160TIP3    H2 6434   7.067   1.643   2.968
 2161TIP3   OH2 6435   7.054   1.568   1.847
 2161TIP3    H1 6436   6.988   1.500   1.820
 2161TIP3    H2 6437   7.077   1.543   1.938
 2162TIP3   OH2 6438   0.815   1.704   3.411
 2162TIP3    H1 6439   0.782   1.793   3.389
 2162TIP3    H2 6440   0.745   1.649   3.371
 2163TIP3   OH2 6441   0.812   1.709   3.798
 2163TIP3    H1 6442   0.849   1.684   3.885
 2163TIP3    H2 6443   0.780   1.624   3.765
 2164TIP3   OH2 6444   0.120   1.610   4.158
 2164TIP3    H1 6445   0.153   1.538   4.216
 2164TIP3    H2 6446   0.201   1.661   4.145
 2165TIP3   OH2 6447   1.062   2.011   3.476
 2165TIP3    H1 6448   1.047   1.940   3.540
 2165TIP3    H2 6449   1.094   2.084   3.532
 2166TIP3   OH2 6450   0.088   2.009   3.878
 2166TIP3    H1 6451   0.081   1.911   3.881
 2166TIP3    H2 6452   0.185   2.020   3.877
 2167TIP3   OH2 6453  -0.138   1.503   3.839
 2167TIP3    H1 6454  -0.093   1.424   3.875
 2167TIP3    H2 6455  -0.071   1.544   3.783
 2168TIP3   OH2 6456   0.713   2.471   3.494
 2168TIP3    H1 6457   0.751   2.399   3.441
 2168TIP3    H2 6458   0.706   2.430   3.581
 2169TIP3   OH2 6459   0.616   1.931   3.842
 2169TIP3    H1 6460   0.660   1.853   3.804
 2169TIP3    H2 6461   0.697   1.981   3.867
 2170TIP3   OH2 6462   1.632   1.251   3.841
 2170TIP3    H1 6463   1.659   1.334   3.885
 2170TIP3    H2 6464   1.650   1.272   3.748
 2171TIP3   OH2 6465   1.026   1.432   3.871
 2171TIP3    H1 6466   1.068   1.347   3.893
 2171TIP3    H2 6467   0.994   1.414   3.781
 2172TIP3   OH2 6468   0.356   1.085   3.840
 2172TIP3    H1 6469   0.338   1.146   3.765
 2172TIP3    H2 6470   0.338   0.998   3.801
 2173TIP3   OH2 6471   1.066   1.191   3.464
 2173TIP3    H1 6472   1.141   1.174   3.526
 2173TIP3    H2 6473   1.115   1.224   3.387
 2174TIP3   OH2 6474  -0.012   1.278   3.954
 2174TIP3    H1 6475   0.074   1.266   3.999
 2174TIP3    H2 6476  -0.009   1.204   3.891
 2175TIP3   OH2 6477   0.442   1.487   3.739
 2175TIP3    H1 6478   0.538   1.471   3.753
 2175TIP3    H2 6479   0.411   1.398   3.715
 2176TIP3   OH2 6480   1.701   1.460   4.014
 2176TIP3    H1 6481   1.617   1.507   3.995
 2176TIP3    H2 6482   1.728   1.504   4.096
 2177TIP3   OH2 6483   0.359   1.080   4.268
 2177TIP3    H1 6484   0.303   1.124   4.199
 2177TIP3    H2 6485   0.298   1.079   4.343
 2178TIP3   OH2 6486   0.697   1.920   3.282
 2178TIP3    H1 6487   0.675   1.913   3.188
 2178TIP3    H2 6488   0.655   2.005   3.306
 2179TIP3   OH2 6489   0.468   1.853   4.063
 2179TIP3    H1 6490   0.409   1.922   4.101
 2179TIP3    H2 6491   0.513   1.901   3.991
 2180TIP3   OH2 6492   1.276   1.186   3.636
 2180TIP3    H1 6493   1.253   1.144   3.720
 2180TIP3    H2 6494   1.322   1.267   3.665
 2181TIP3   OH2 6495   0.231   1.200   4.056
 2181TIP3    H1 6496   0.298   1.269   4.075
 2181TIP3    H2 6497   0.276   1.150   3.984
 2182TIP3   OH2 6498   0.295   2.048   4.165
 2182TIP3    H1 6499   0.273   2.137   4.129
 2182TIP3    H2 6500   0.216   2.034   4.221
 2183TIP3   OH2 6501   1.128   2.254   3.640
 2183TIP3    H1 6502   1.039   2.244   3.680
 2183TIP3    H2 6503   1.120   2.340   3.596
 2184TIP3   OH2 6504   1.423   1.146   4.003
 2184TIP3    H1 6505   1.336   1.177   3.973
 2184TIP3    H2 6506   1.484   1.182   3.935
 2185TIP3   OH2 6507   0.721   0.798   3.979
 2185TIP3    H1 6508   0.710   0.708   4.015
 2185TIP3    H2 6509   0.647   0.843   4.025
 2186TIP3   OH2 6510   0.823   2.296   3.308
 2186TIP3    H1 6511   0.873   2.212   3.292
 2186TIP3    H2 6512   0.888   2.360   3.272
 2187TIP3   OH2 6513   0.968   2.080   3.225
 2187TIP3    H1 6514   0.962   1.999   3.172
 2187TIP3    H2 6515   1.006   2.047   3.309
 2188TIP3   OH2 6516   1.355   2.163   3.984
 2188TIP3    H1 6517   1.344   2.085   3.926
 2188TIP3    H2 6518   1.339   2.237   3.923
 2189TIP3   OH2 6519   0.653   1.552   3.241
 2189TIP3    H1 6520   0.580   1.612   3.212
 2189TIP3    H2 6521   0.699   1.535   3.156
 2190TIP3   OH2 6522   1.551   1.801   3.829
 2190TIP3    H1 6523   1.468   1.852   3.835
 2190TIP3    H2 6524   1.582   1.828   3.740
 2191TIP3   OH2 6525   1.002   1.651   3.217
 2191TIP3    H1 6526   0.946   1.668   3.296
 2191TIP3    H2 6527   1.085   1.621   3.260
 2192TIP3   OH2 6528   1.230   1.676   4.132
 2192TIP3    H1 6529   1.231   1.757   4.187
 2192TIP3    H2 6530   1.145   1.688   4.085
 2193TIP3   OH2 6531   0.235   1.636   3.642
 2193TIP3    H1 6532   0.212   1.582   3.566
 2193TIP3    H2 6533   0.314   1.588   3.678
 2194TIP3   OH2 6534   0.362   2.051   3.780
 2194TIP3    H1 6535   0.341   2.012   3.694
 2194TIP3    H2 6536   0.451   2.014   3.798
 2195TIP3   OH2 6537   0.360   1.613   3.982
 2195TIP3    H1 6538   0.402   1.586   3.898
 2195TIP3    H2 6539   0.407   1.696   4.004
 2196TIP3   OH2 6540   0.887   2.246   3.762
 2196TIP3    H1 6541   0.877   2.327   3.816
 2196TIP3    H2 6542   0.872   2.174   3.826
 2197TIP3   OH2 6543   0.504   2.166   4.308
 2197TIP3    H1 6544   0.444   2.227   4.355
 2197TIP3    H2 6545   0.440   2.112   4.258
 2198TIP3   OH2 6546   0.851   1.493   3.053
 2198TIP3    H1 6547   0.905   1.555   3.106
 2198TIP3    H2 6548   0.874   1.521   2.962
 2199TIP3   OH2 6549   0.262   1.722   4.416
 2199TIP3    H1 6550   0.263   1.810   4.457
 2199TIP3    H2 6551   0.166   1.704   4.410
 2200TIP3   OH2 6552   0.572   2.184   3.323
 2200TIP3    H1 6553   0.662   2.224   3.328
 2200TIP3    H2 6554   0.526   2.247   3.265
 2201TIP3   OH2 6555   0.297   2.330   4.396
 2201TIP3    H1 6556   0.262   2.337   4.306
 2201TIP3    H2 6557   0.216   2.315   4.449
 2202TIP3   OH2 6558   1.364   0.760   3.101
 2202TIP3    H1 6559   1.293   0.791   3.162
 2202TIP3    H2 6560   1.372   0.835   3.039
 2203TIP3   OH2 6561   1.150   2.102   2.640
 2203TIP3    H1 6562   1.159   2.198   2.622
 2203TIP3    H2 6563   1.242   2.072   2.623
 2204TIP3   OH2 6564  -0.107   1.855   4.339
 2204TIP3    H1 6565  -0.163   1.819   4.268
 2204TIP3    H2 6566  -0.080   1.773   4.386
 2205TIP3   OH2 6567  -0.267   2.078   3.955
 2205TIP3    H1 6568  -0.179   2.038   3.951
 2205TIP3    H2 6569  -0.257   2.135   4.032
 2206TIP3   OH2 6570   1.593   2.509   4.032
 2206TIP3    H1 6571   1.593   2.413   4.050
 2206TIP3    H2 6572   1.511   2.535   4.079
 2207TIP3   OH2 6573   0.698   2.295   4.165
 2207TIP3    H1 6574   0.696   2.387   4.199
 2207TIP3    H2 6575   0.628   2.253   4.220
 2208TIP3   OH2 6576   0.456   2.416   3.121
 2208TIP3    H1 6577   0.417   2.402   3.032
 2208TIP3    H2 6578   0.430   2.508   3.141
 2209TIP3   OH2 6579  -0.094   2.272   3.507
 2209TIP3    H1 6580  -0.058   2.264   3.599
 2209TIP3    H2 6581  -0.152   2.192   3.504
 2210TIP3   OH2 6582   0.658   2.321   2.758
 2210TIP3    H1 6583   0.721   2.254   2.722
 2210TIP3    H2 6584   0.693   2.333   2.849
 2211TIP3   OH2 6585   0.710   2.375   3.028
 2211TIP3    H1 6586   0.623   2.379   3.072
 2211TIP3    H2 6587   0.765   2.335   3.097
 2212TIP3   OH2 6588   1.482   1.638   4.285
 2212TIP3    H1 6589   1.391   1.647   4.252
 2212TIP3    H2 6590   1.492   1.541   4.289
 2213TIP3   OH2 6591   0.077   2.055   4.336
 2213TIP3    H1 6592   0.132   2.028   4.412
 2213TIP3    H2 6593   0.006   1.986   4.338
 2214TIP3   OH2 6594   0.499   0.876   4.121
 2214TIP3    H1 6595   0.428   0.811   4.115
 2214TIP3    H2 6596   0.453   0.950   4.166
 2215TIP3   OH2 6597   1.022   0.986   4.310
 2215TIP3    H1 6598   1.090   0.960   4.375
 2215TIP3    H2 6599   0.938   0.972   4.360
 2216TIP3   OH2 6600   1.250   1.414   4.228
 2216TIP3    H1 6601   1.199   1.411   4.312
 2216TIP3    H2 6602   1.228   1.502   4.193
 2217TIP3   OH2 6603   0.931   1.602   2.816
 2217TIP3    H1 6604   0.869   1.647   2.757
 2217TIP3    H2 6605   1.018   1.623   2.777
 2218TIP3   OH2 6606   0.415   1.390   4.129
 2218TIP3    H1 6607   0.367   1.410   4.212
 2218TIP3    H2 6608   0.397   1.471   4.077
 2219TIP3   OH2 6609   0.294   1.255   3.630
 2219TIP3    H1 6610   0.203   1.241   3.601
 2219TIP3    H2 6611   0.344   1.236   3.549
 2220TIP3   OH2 6612   0.790   1.361   3.383
 2220TIP3    H1 6613   0.741   1.429   3.332
 2220TIP3    H2 6614   0.843   1.319   3.312
 2221TIP3   OH2 6615   0.963   1.634   4.460
 2221TIP3    H1 6616   0.943   1.562   4.524
 2221TIP3    H2 6617   1.056   1.653   4.481
 2222TIP3   OH2 6618   0.938   1.386   3.615
 2222TIP3    H1 6619   0.878   1.412   3.541
 2222TIP3    H2 6620   0.978   1.307   3.572
 2223TIP3   OH2 6621   0.234   1.430   4.330
 2223TIP3    H1 6622   0.269   1.469   4.411
 2223TIP3    H2 6623   0.170   1.363   4.362
 2224TIP3   OH2 6624   0.944   1.629   4.035
 2224TIP3    H1 6625   0.981   1.559   3.977
 2224TIP3    H2 6626   0.919   1.575   4.113
 2225TIP3   OH2 6627   0.632   1.107   3.720
 2225TIP3    H1 6628   0.557   1.086   3.778
 2225TIP3    H2 6629   0.708   1.090   3.779
 2226TIP3   OH2 6630   1.113   1.169   3.910
 2226TIP3    H1 6631   1.083   1.184   4.003
 2226TIP3    H2 6632   1.043   1.108   3.880
 2227TIP3   OH2 6633   1.287   2.860   4.133
 2227TIP3    H1 6634   1.286   2.885   4.039
 2227TIP3    H2 6635   1.368   2.904   4.165
 2228TIP3   OH2 6636   0.242   1.971   4.551
 2228TIP3    H1 6637   0.325   1.997   4.595
 2228TIP3    H2 6638   0.181   1.972   4.627
 2229TIP3   OH2 6639   0.703   1.426   3.804
 2229TIP3    H1 6640   0.775   1.388   3.752
 2229TIP3    H2 6641   0.713   1.379   3.889
 2230TIP3   OH2 6642   0.684   1.322   4.099
 2230TIP3    H1 6643   0.595   1.360   4.111
 2230TIP3    H2 6644   0.742   1.385   4.148
 2231TIP3   OH2 6645   0.424   1.704   3.191
 2231TIP3    H1 6646   0.336   1.685   3.156
 2231TIP3    H2 6647   0.402   1.738   3.281
 2232TIP3   OH2 6648   1.318   1.946   3.818
 2232TIP3    H1 6649   1.341   1.998   3.738
 2232TIP3    H2 6650   1.234   1.903   3.792
 2233TIP3   OH2 6651   0.810   2.025   4.190
 2233TIP3    H1 6652   0.855   2.009   4.274
 2233TIP3    H2 6653   0.779   2.117   4.198
 2234TIP3   OH2 6654   0.940   1.256   3.176
 2234TIP3    H1 6655   1.036   1.270   3.171
 2234TIP3    H2 6656   0.906   1.322   3.111
 2235TIP3   OH2 6657   0.108   1.731   3.869
 2235TIP3    H1 6658   0.151   1.703   3.785
 2235TIP3    H2 6659   0.157   1.678   3.934
 2236TIP3   OH2 6660   0.572   1.864   3.023
 2236TIP3    H1 6661   0.522   1.949   3.025
 2236TIP3    H2 6662   0.518   1.808   3.083
 2237TIP3   OH2 6663  -0.016   1.648   4.499
 2237TIP3    H1 6664   0.036   1.658   4.581
 2237TIP3    H2 6665  -0.092   1.595   4.529
 2238TIP3   OH2 6666   0.722   1.769   4.500
 2238TIP3    H1 6667   0.662   1.705   4.458
 2238TIP3    H2 6668   0.809   1.734   4.472
 2239TIP3   OH2 6669   0.975   2.288   4.086
 2239TIP3    H1 6670   0.878   2.289   4.100
 2239TIP3    H2 6671   1.005   2.340   4.164
 2240TIP3   OH2 6672   1.384   1.362   2.997
 2240TIP3    H1 6673   1.323   1.318   2.934
 2240TIP3    H2 6674   1.381   1.452   2.957
 2241TIP3   OH2 6675   1.606   2.219   4.074
 2241TIP3    H1 6676   1.508   2.213   4.068
 2241TIP3    H2 6677   1.631   2.188   3.984
 2242TIP3   OH2 6678   1.088   2.179   2.904
 2242TIP3    H1 6679   1.060   2.107   2.963
 2242TIP3    H2 6680   1.101   2.133   2.819
 2243TIP3   OH2 6681   1.084   1.810   3.735
 2243TIP3    H1 6682   0.990   1.787   3.749
 2243TIP3    H2 6683   1.117   1.728   3.692
 2244TIP3   OH2 6684   0.216   2.028   3.500
 2244TIP3    H1 6685   0.231   2.103   3.441
 2244TIP3    H2 6686   0.120   2.023   3.505
 2245TIP3   OH2 6687   0.340   1.794   3.432
 2245TIP3    H1 6688   0.311   1.885   3.451
 2245TIP3    H2 6689   0.318   1.751   3.516
 2246TIP3   OH2 6690   0.482   2.379   3.960
 2246TIP3    H1 6691   0.526   2.452   3.911
 2246TIP3    H2 6692   0.558   2.342   4.009
 2247TIP3   OH2 6693   0.076   2.324   3.303
 2247TIP3    H1 6694   0.044   2.297   3.392
 2247TIP3    H2 6695   0.142   2.394   3.328
 2248TIP3   OH2 6696   0.866   2.014   3.922
 2248TIP3    H1 6697   0.854   2.010   4.019
 2248TIP3    H2 6698   0.948   1.964   3.911
 2249TIP3   OH2 6699   0.856   1.917   2.800
 2249TIP3    H1 6700   0.901   1.901   2.886
 2249TIP3    H2 6701   0.773   1.868   2.814
 2250TIP3   OH2 6702   1.116   2.545   3.970
 2250TIP3    H1 6703   1.036   2.489   3.964
 2250TIP3    H2 6704   1.100   2.609   3.898
 2251TIP3   OH2 6705   1.180   2.377   2.623
 2251TIP3    H1 6706   1.219   2.450   2.573
 2251TIP3    H2 6707   1.101   2.422   2.659
 2252TIP3   OH2 6708   1.008   1.859   3.030
 2252TIP3    H1 6709   0.992   1.784   3.091
 2252TIP3    H2 6710   1.103   1.844   3.011
 2253TIP3   OH2 6711  -0.082   2.236   4.122
 2253TIP3    H1 6712  -0.021   2.172   4.162
 2253TIP3    H2 6713  -0.058   2.317   4.169
 2254TIP3   OH2 6714   0.184   1.865   3.081
 2254TIP3    H1 6715   0.242   1.905   3.146
 2254TIP3    H2 6716   0.139   1.942   3.043
 2255TIP3   OH2 6717   1.043   1.223   4.170
 2255TIP3    H1 6718   1.121   1.265   4.210
 2255TIP3    H2 6719   1.032   1.143   4.226
 2256TIP3   OH2 6720   0.924   0.991   3.332
 2256TIP3    H1 6721   0.899   1.042   3.254
 2256TIP3    H2 6722   0.962   1.064   3.387
 2257TIP3   OH2 6723   0.428   2.091   3.024
 2257TIP3    H1 6724   0.336   2.104   3.055
 2257TIP3    H2 6725   0.436   2.163   2.960
 2258TIP3   OH2 6726   0.625   1.149   3.446
 2258TIP3    H1 6727   0.678   1.230   3.431
 2258TIP3    H2 6728   0.620   1.145   3.543
 2259TIP3   OH2 6729   0.880   1.470   4.246
 2259TIP3    H1 6730   0.905   1.524   4.325
 2259TIP3    H2 6731   0.935   1.390   4.258
 2260TIP3   OH2 6732   0.770   0.892   3.563
 2260TIP3    H1 6733   0.735   0.979   3.590
 2260TIP3    H2 6734   0.819   0.915   3.482
 2261TIP3   OH2 6735   0.176   2.159   3.093
 2261TIP3    H1 6736   0.145   2.213   3.018
 2261TIP3    H2 6737   0.161   2.218   3.168
 2262TIP3   OH2 6738   1.517   1.364   4.235
 2262TIP3    H1 6739   1.418   1.363   4.238
 2262TIP3    H2 6740   1.533   1.337   4.144
 2263TIP3   OH2 6741   1.168   1.566   3.615
 2263TIP3    H1 6742   1.092   1.506   3.627
 2263TIP3    H2 6743   1.240   1.518   3.663
 2264TIP3   OH2 6744   1.138   2.524   3.562
 2264TIP3    H1 6745   1.096   2.571   3.487
 2264TIP3    H2 6746   1.232   2.543   3.542
 2265TIP3   OH2 6747  -0.246   2.047   3.463
 2265TIP3    H1 6748  -0.326   2.047   3.517
 2265TIP3    H2 6749  -0.271   1.990   3.388
 2266TIP3   OH2 6750  -0.058   2.570   4.513
 2266TIP3    H1 6751   0.017   2.573   4.576
 2266TIP3    H2 6752  -0.099   2.486   4.537
 2267TIP3   OH2 6753   0.387   2.512   4.590
 2267TIP3    H1 6754   0.482   2.499   4.597
 2267TIP3    H2 6755   0.365   2.452   4.516
 2268TIP3   OH2 6756   0.369   2.081   2.715
 2268TIP3    H1 6757   0.354   1.996   2.761
 2268TIP3    H2 6758   0.449   2.055   2.663
 2269TIP3   OH2 6759   1.029   2.421   4.322
 2269TIP3    H1 6760   1.021   2.352   4.391
 2269TIP3    H2 6761   1.108   2.471   4.352
 2270TIP3   OH2 6762   0.819   2.132   2.637
 2270TIP3    H1 6763   0.847   2.064   2.702
 2270TIP3    H2 6764   0.893   2.130   2.573
 2271TIP3   OH2 6765   0.035   1.950   4.740
 2271TIP3    H1 6766   0.071   1.858   4.743
 2271TIP3    H2 6767  -0.053   1.934   4.705
 2272TIP3   OH2 6768   0.643   2.043   4.519
 2272TIP3    H1 6769   0.611   2.064   4.429
 2272TIP3    H2 6770   0.679   1.952   4.508
 2273TIP3   OH2 6771   0.431   1.805   2.781
 2273TIP3    H1 6772   0.486   1.812   2.862
 2273TIP3    H2 6773   0.493   1.758   2.721
 2274TIP3   OH2 6774   1.137   2.057   4.121
 2274TIP3    H1 6775   1.218   2.095   4.080
 2274TIP3    H2 6776   1.073   2.128   4.104
 2275TIP3   OH2 6777   0.146   1.698   4.724
 2275TIP3    H1 6778   0.218   1.640   4.696
 2275TIP3    H2 6779   0.178   1.722   4.814
 2276TIP3   OH2 6780   0.501   1.577   4.387
 2276TIP3    H1 6781   0.423   1.636   4.385
 2276TIP3    H2 6782   0.554   1.611   4.310
 2277TIP3   OH2 6783   1.013   1.978   4.518
 2277TIP3    H1 6784   1.098   1.955   4.478
 2277TIP3    H2 6785   1.009   1.914   4.591
 2278TIP3   OH2 6786   1.170   1.655   2.669
 2278TIP3    H1 6787   1.126   1.593   2.607
 2278TIP3    H2 6788   1.130   1.739   2.637
 2279TIP3   OH2 6789   0.621   1.367   4.510
 2279TIP3    H1 6790   0.622   1.288   4.453
 2279TIP3    H2 6791   0.577   1.433   4.453
 2280TIP3   OH2 6792   0.618   1.159   4.320
 2280TIP3    H1 6793   0.651   1.200   4.238
 2280TIP3    H2 6794   0.526   1.137   4.296
 2281TIP3   OH2 6795   0.644   1.681   4.187
 2281TIP3    H1 6796   0.733   1.696   4.152
 2281TIP3    H2 6797   0.592   1.751   4.143
 2282TIP3   OH2 6798   1.239   1.652   4.580
 2282TIP3    H1 6799   1.288   1.569   4.591
 2282TIP3    H2 6800   1.313   1.713   4.565
 2283TIP3   OH2 6801   1.267   1.903   4.304
 2283TIP3    H1 6802   1.212   1.960   4.247
 2283TIP3    H2 6803   1.357   1.924   4.269
 2284TIP3   OH2 6804   0.514   1.518   4.728
 2284TIP3    H1 6805   0.444   1.453   4.744
 2284TIP3    H2 6806   0.549   1.486   4.642
 2285TIP3   OH2 6807   0.762   0.935   4.390
 2285TIP3    H1 6808   0.708   1.013   4.366
 2285TIP3    H2 6809   0.707   0.861   4.359
 2286TIP3   OH2 6810   0.881   1.418   4.605
 2286TIP3    H1 6811   0.875   1.405   4.701
 2286TIP3    H2 6812   0.790   1.393   4.578
 2287TIP3   OH2 6813   1.107   1.365   4.450
 2287TIP3    H1 6814   1.036   1.371   4.516
 2287TIP3    H2 6815   1.183   1.338   4.507
 2288TIP3   OH2 6816   1.317   1.303   4.609
 2288TIP3    H1 6817   1.350   1.212   4.624
 2288TIP3    H2 6818   1.342   1.347   4.693
 2289TIP3   OH2 6819   0.353   1.311   4.784
 2289TIP3    H1 6820   0.326   1.219   4.763
 2289TIP3    H2 6821   0.400   1.294   4.868
 2290TIP3   OH2 6822   0.842   0.922   4.652
 2290TIP3    H1 6823   0.911   0.853   4.641
 2290TIP3    H2 6824   0.805   0.922   4.561
 2291TIP3   OH2 6825   0.916   1.140   4.806
 2291TIP3    H1 6826   0.895   1.070   4.740
 2291TIP3    H2 6827   0.837   1.198   4.801
 2292TIP3   OH2 6828   0.128   2.373   2.923
 2292TIP3    H1 6829   0.222   2.367   2.898
 2292TIP3    H2 6830   0.092   2.402   2.838
 2293TIP3   OH2 6831  -0.452   2.352   3.518
 2293TIP3    H1 6832  -0.544   2.326   3.520
 2293TIP3    H2 6833  -0.416   2.304   3.595
 2294TIP3   OH2 6834  -0.339   2.225   3.732
 2294TIP3    H1 6835  -0.338   2.152   3.796
 2294TIP3    H2 6836  -0.287   2.290   3.784
 2295TIP3   OH2 6837   1.392   2.616   3.523
 2295TIP3    H1 6838   1.419   2.643   3.612
 2295TIP3    H2 6839   1.462   2.654   3.468
 2296TIP3   OH2 6840   1.421   2.632   3.804
 2296TIP3    H1 6841   1.376   2.545   3.801
 2296TIP3    H2 6842   1.495   2.610   3.862
 2297TIP3   OH2 6843   1.462   2.313   4.371
 2297TIP3    H1 6844   1.394   2.320   4.441
 2297TIP3    H2 6845   1.508   2.399   4.380
 2298TIP3   OH2 6846   1.284   1.822   2.997
 2298TIP3    H1 6847   1.351   1.885   2.965
 2298TIP3    H2 6848   1.329   1.785   3.077
 2299TIP3   OH2 6849   1.412   1.689   3.201
 2299TIP3    H1 6850   1.346   1.647   3.259
 2299TIP3    H2 6851   1.477   1.726   3.265
 2300TIP3   OH2 6852   1.467   2.084   3.630
 2300TIP3    H1 6853   1.520   2.015   3.585
 2300TIP3    H2 6854   1.463   2.155   3.564
 2301TIP3   OH2 6855   1.296   2.384   3.825
 2301TIP3    H1 6856   1.224   2.424   3.878
 2301TIP3    H2 6857   1.245   2.337   3.754
 2302TIP3   OH2 6858   1.356   1.595   2.853
 2302TIP3    H1 6859   1.291   1.605   2.780
 2302TIP3    H2 6860   1.326   1.669   2.910
 2303TIP3   OH2 6861   1.229   1.261   2.798
 2303TIP3    H1 6862   1.216   1.320   2.721
 2303TIP3    H2 6863   1.185   1.182   2.764
 2304TIP3   OH2 6864   1.227   1.548   3.346
 2304TIP3    H1 6865   1.230   1.451   3.336
 2304TIP3    H2 6866   1.212   1.558   3.443
 2305TIP3   OH2 6867  -0.149   1.583   4.109
 2305TIP3    H1 6868  -0.156   1.586   4.012
 2305TIP3    H2 6869  -0.054   1.605   4.122
 2306TIP3   OH2 6870   1.513   1.971   4.201
 2306TIP3    H1 6871   1.584   1.904   4.194
 2306TIP3    H2 6872   1.546   2.042   4.143
 2307TIP3   OH2 6873   1.701   1.776   4.208
 2307TIP3    H1 6874   1.626   1.731   4.254
 2307TIP3    H2 6875   1.772   1.711   4.227
 2308TIP3   OH2 6876   1.227   1.268   3.243
 2308TIP3    H1 6877   1.267   1.179   3.257
 2308TIP3    H2 6878   1.281   1.299   3.168
 2309TIP3   OH2 6879   1.381   1.432   3.735
 2309TIP3    H1 6880   1.467   1.458   3.693
 2309TIP3    H2 6881   1.394   1.472   3.823
 2310TIP3   OH2 6882   1.451   1.579   3.962
 2310TIP3    H1 6883   1.378   1.613   4.017
 2310TIP3    H2 6884   1.485   1.661   3.921
 2311TIP3   OH2 6885   1.903   1.173   4.519
 2311TIP3    H1 6886   1.964   1.109   4.476
 2311TIP3    H2 6887   1.870   1.225   4.442
 2312TIP3   OH2 6888   1.334   1.016   3.279
 2312TIP3    H1 6889   1.381   1.003   3.364
 2312TIP3    H2 6890   1.265   0.947   3.286
 2313TIP3   OH2 6891  -0.159   1.327   4.199
 2313TIP3    H1 6892  -0.119   1.294   4.117
 2313TIP3    H2 6893  -0.159   1.424   4.178
 2314TIP3   OH2 6894   1.768   1.309   4.326
 2314TIP3    H1 6895   1.679   1.351   4.332
 2314TIP3    H2 6896   1.744   1.233   4.269
 2315TIP3   OH2 6897   1.446   0.936   2.883
 2315TIP3    H1 6898   1.530   0.892   2.906
 2315TIP3    H2 6899   1.471   1.030   2.896
 2316TIP3   OH2 6900   0.973   2.481   3.177
 2316TIP3    H1 6901   1.027   2.471   3.096
 2316TIP3    H2 6902   1.027   2.543   3.229
 2317TIP3   OH2 6903   0.075   2.285   4.564
 2317TIP3    H1 6904   0.018   2.211   4.542
 2317TIP3    H2 6905   0.090   2.275   4.659
 2318TIP3   OH2 6906   0.256   2.317   4.108
 2318TIP3    H1 6907   0.210   2.394   4.069
 2318TIP3    H2 6908   0.343   2.331   4.065
 2319TIP3   OH2 6909   0.697   2.561   4.247
 2319TIP3    H1 6910   0.739   2.560   4.336
 2319TIP3    H2 6911   0.763   2.613   4.197
 2320TIP3   OH2 6912   0.878   2.714   4.109
 2320TIP3    H1 6913   0.950   2.663   4.068
 2320TIP3    H2 6914   0.929   2.771   4.170
 2321TIP3   OH2 6915   1.676   1.074   4.205
 2321TIP3    H1 6916   1.584   1.070   4.172
 2321TIP3    H2 6917   1.704   0.980   4.196
 2322TIP3   OH2 6918  -0.059   2.567   4.143
 2322TIP3    H1 6919  -0.140   2.602   4.104
 2322TIP3    H2 6920  -0.057   2.614   4.229
 2323TIP3   OH2 6921   0.171   2.550   3.991
 2323TIP3    H1 6922   0.086   2.561   4.039
 2323TIP3    H2 6923   0.149   2.584   3.902
 2324TIP3   OH2 6924   0.592   2.579   3.791
 2324TIP3    H1 6925   0.524   2.601   3.725
 2324TIP3    H2 6926   0.604   2.666   3.835
 2325TIP3   OH2 6927   0.862   2.517   3.843
 2325TIP3    H1 6928   0.768   2.537   3.823
 2325TIP3    H2 6929   0.907   2.592   3.802
 2326TIP3   OH2 6930   1.066   2.709   3.756
 2326TIP3    H1 6931   1.053   2.793   3.708
 2326TIP3    H2 6932   1.095   2.649   3.684
 2327TIP3   OH2 6933  -0.152   2.367   3.880
 2327TIP3    H1 6934  -0.139   2.334   3.971
 2327TIP3    H2 6935  -0.081   2.318   3.834
 2328TIP3   OH2 6936   0.041   2.237   3.740
 2328TIP3    H1 6937   0.054   2.152   3.790
 2328TIP3    H2 6938   0.132   2.272   3.739
 2329TIP3   OH2 6939   0.306   2.328   3.742
 2329TIP3    H1 6940   0.338   2.236   3.739
 2329TIP3    H2 6941   0.351   2.357   3.823
 2330TIP3   OH2 6942   0.881   0.996   3.838
 2330TIP3    H1 6943   0.833   0.923   3.882
 2330TIP3    H2 6944   0.934   0.948   3.772
 2331TIP3   OH2 6945   1.398   0.864   3.729
 2331TIP3    H1 6946   1.433   0.921   3.657
 2331TIP3    H2 6947   1.302   0.882   3.723
 2332TIP3   OH2 6948   1.496   0.966   3.494
 2332TIP3    H1 6949   1.572   0.917   3.456
 2332TIP3    H2 6950   1.528   1.059   3.482
 2333TIP3   OH2 6951   0.569   0.775   3.716
 2333TIP3    H1 6952   0.637   0.801   3.651
 2333TIP3    H2 6953   0.619   0.773   3.798
 2334TIP3   OH2 6954   1.121   0.866   3.698
 2334TIP3    H1 6955   1.098   0.821   3.614
 2334TIP3    H2 6956   1.099   0.795   3.763
 2335TIP3   OH2 6957   1.150   0.806   3.273
 2335TIP3    H1 6958   1.066   0.855   3.276
 2335TIP3    H2 6959   1.129   0.734   3.335
 2336TIP3   OH2 6960   0.395   2.323   2.851
 2336TIP3    H1 6961   0.484   2.343   2.815
 2336TIP3    H2 6962   0.370   2.250   2.790
 2337TIP3   OH2 6963   1.124   2.446   2.946
 2337TIP3    H1 6964   1.116   2.348   2.937
 2337TIP3    H2 6965   1.076   2.475   2.866
 2338TIP3   OH2 6966   0.623   1.011   4.863
 2338TIP3    H1 6967   0.693   0.993   4.799
 2338TIP3    H2 6968   0.569   0.930   4.859
 2339TIP3   OH2 6969   1.412   1.036   4.638
 2339TIP3    H1 6970   1.430   1.010   4.731
 2339TIP3    H2 6971   1.502   1.035   4.599
 2340TIP3   OH2 6972   1.347   2.591   4.130
 2340TIP3    H1 6973   1.267   2.560   4.082
 2340TIP3    H2 6974   1.327   2.686   4.139
 2341TIP3   OH2 6975   2.614   1.961   2.896
 2341TIP3    H1 6976   2.586   2.053   2.877
 2341TIP3    H2 6977   2.537   1.912   2.864
 2342TIP3   OH2 6978   2.614   1.962   3.282
 2342TIP3    H1 6979   2.648   1.939   3.370
 2342TIP3    H2 6980   2.572   1.879   3.254
 2343TIP3   OH2 6981   1.911   1.855   3.644
 2343TIP3    H1 6982   1.939   1.786   3.706
 2343TIP3    H2 6983   1.988   1.913   3.644
 2344TIP3   OH2 6984   2.857   2.269   2.959
 2344TIP3    H1 6985   2.840   2.201   3.026
 2344TIP3    H2 6986   2.887   2.344   3.013
 2345TIP3   OH2 6987   1.883   2.268   3.365
 2345TIP3    H1 6988   1.876   2.170   3.367
 2345TIP3    H2 6989   1.980   2.278   3.363
 2346TIP3   OH2 6990   1.591   1.467   3.150
 2346TIP3    H1 6991   1.545   1.550   3.170
 2346TIP3    H2 6992   1.519   1.417   3.108
 2347TIP3   OH2 6993   1.648   1.756   3.330
 2347TIP3    H1 6994   1.698   1.678   3.363
 2347TIP3    H2 6995   1.709   1.792   3.264
 2348TIP3   OH2 6996   2.507   2.725   2.979
 2348TIP3    H1 6997   2.551   2.655   2.927
 2348TIP3    H2 6998   2.505   2.686   3.067
 2349TIP3   OH2 6999   2.411   2.189   3.329
 2349TIP3    H1 7000   2.452   2.113   3.286
 2349TIP3    H2 7001   2.493   2.237   3.355
 2350TIP3   OH2 7002   3.428   1.508   3.327
 2350TIP3    H1 7003   3.457   1.591   3.368
 2350TIP3    H2 7004   3.448   1.525   3.233
 2351TIP3   OH2 7005   2.824   1.688   3.358
 2351TIP3    H1 7006   2.867   1.603   3.379
 2351TIP3    H2 7007   2.793   1.671   3.267
 2352TIP3   OH2 7008   2.165   1.348   3.323
 2352TIP3    H1 7009   2.145   1.422   3.262
 2352TIP3    H2 7010   2.115   1.276   3.280
 2353TIP3   OH2 7011   2.859   1.441   2.944
 2353TIP3    H1 7012   2.930   1.425   3.011
 2353TIP3    H2 7013   2.913   1.475   2.871
 2354TIP3   OH2 7014   1.796   1.550   3.431
 2354TIP3    H1 7015   1.879   1.533   3.481
 2354TIP3    H2 7016   1.812   1.494   3.352
 2355TIP3   OH2 7017   2.236   1.748   3.226
 2355TIP3    H1 7018   2.331   1.723   3.238
 2355TIP3    H2 7019   2.198   1.663   3.194
 2356TIP3   OH2 7020   3.500   1.717   3.497
 2356TIP3    H1 7021   3.417   1.763   3.475
 2356TIP3    H2 7022   3.516   1.749   3.587
 2357TIP3   OH2 7023   2.159   1.332   3.759
 2357TIP3    H1 7024   2.099   1.370   3.692
 2357TIP3    H2 7025   2.106   1.348   3.840
 2358TIP3   OH2 7026   2.503   2.183   2.765
 2358TIP3    H1 7027   2.461   2.169   2.679
 2358TIP3    H2 7028   2.459   2.266   2.795
 2359TIP3   OH2 7029   2.266   2.108   3.551
 2359TIP3    H1 7030   2.206   2.177   3.589
 2359TIP3    H2 7031   2.308   2.157   3.478
 2360TIP3   OH2 7032   3.064   1.444   3.123
 2360TIP3    H1 7033   3.046   1.404   3.209
 2360TIP3    H2 7034   3.116   1.523   3.148
 2361TIP3   OH2 7035   2.031   1.447   3.543
 2361TIP3    H1 7036   2.092   1.520   3.568
 2361TIP3    H2 7037   2.081   1.408   3.468
 2362TIP3   OH2 7038   2.094   2.304   3.652
 2362TIP3    H1 7039   2.069   2.392   3.616
 2362TIP3    H2 7040   2.015   2.286   3.707
 2363TIP3   OH2 7041   1.486   1.993   2.887
 2363TIP3    H1 7042   1.445   2.021   2.803
 2363TIP3    H2 7043   1.520   2.077   2.923
 2364TIP3   OH2 7044   2.927   2.506   3.122
 2364TIP3    H1 7045   2.838   2.500   3.164
 2364TIP3    H2 7046   2.922   2.594   3.079
 2365TIP3   OH2 7047   3.220   1.406   3.490
 2365TIP3    H1 7048   3.132   1.435   3.459
 2365TIP3    H2 7049   3.280   1.441   3.422
 2366TIP3   OH2 7050   2.512   1.049   3.474
 2366TIP3    H1 7051   2.496   0.954   3.493
 2366TIP3    H2 7052   2.436   1.089   3.522
 2367TIP3   OH2 7053   2.624   2.553   2.794
 2367TIP3    H1 7054   2.675   2.471   2.777
 2367TIP3    H2 7055   2.690   2.618   2.759
 2368TIP3   OH2 7056   2.773   2.340   2.707
 2368TIP3    H1 7057   2.730   2.260   2.673
 2368TIP3    H2 7058   2.812   2.307   2.791
 2369TIP3   OH2 7059   3.153   2.417   3.475
 2369TIP3    H1 7060   3.141   2.342   3.413
 2369TIP3    H2 7061   3.133   2.494   3.416
 2370TIP3   OH2 7062   2.444   1.813   2.730
 2370TIP3    H1 7063   2.365   1.867   2.710
 2370TIP3    H2 7064   2.490   1.813   2.645
 2371TIP3   OH2 7065   2.403   1.600   2.442
 2371TIP3    H1 7066   2.468   1.653   2.492
 2371TIP3    H2 7067   2.463   1.539   2.395
 2372TIP3   OH2 7068   3.348   2.058   3.318
 2372TIP3    H1 7069   3.264   2.109   3.322
 2372TIP3    H2 7070   3.379   2.083   3.228
 2373TIP3   OH2 7071   2.792   1.896   2.699
 2373TIP3    H1 7072   2.738   1.920   2.778
 2373TIP3    H2 7073   2.877   1.873   2.742
 2374TIP3   OH2 7074   3.026   1.934   3.616
 2374TIP3    H1 7075   3.024   2.018   3.667
 2374TIP3    H2 7076   2.940   1.939   3.570
 2375TIP3   OH2 7077   2.024   1.893   3.119
 2375TIP3    H1 7078   1.984   1.835   3.051
 2375TIP3    H2 7079   2.101   1.840   3.149
 2376TIP3   OH2 7080   2.155   2.307   3.266
 2376TIP3    H1 7081   2.135   2.269   3.179
 2376TIP3    H2 7082   2.244   2.270   3.284
 2377TIP3   OH2 7083   2.161   1.865   3.472
 2377TIP3    H1 7084   2.195   1.841   3.383
 2377TIP3    H2 7085   2.205   1.951   3.490
 2378TIP3   OH2 7086   2.687   2.503   3.248
 2378TIP3    H1 7087   2.674   2.585   3.300
 2378TIP3    H2 7088   2.669   2.433   3.313
 2379TIP3   OH2 7089   2.300   2.422   3.797
 2379TIP3    H1 7090   2.238   2.483   3.843
 2379TIP3    H2 7091   2.236   2.368   3.746
 2380TIP3   OH2 7092   2.631   1.756   2.526
 2380TIP3    H1 7093   2.690   1.816   2.576
 2380TIP3    H2 7094   2.657   1.777   2.433
 2381TIP3   OH2 7095   2.054   1.975   3.899
 2381TIP3    H1 7096   2.060   2.064   3.941
 2381TIP3    H2 7097   1.960   1.955   3.916
 2382TIP3   OH2 7098   2.378   2.432   2.803
 2382TIP3    H1 7099   2.460   2.483   2.811
 2382TIP3    H2 7100   2.318   2.496   2.763
 2383TIP3   OH2 7101   2.092   2.587   3.884
 2383TIP3    H1 7102   2.056   2.591   3.794
 2383TIP3    H2 7103   2.012   2.567   3.938
 2384TIP3   OH2 7104   3.147   0.993   2.576
 2384TIP3    H1 7105   3.066   1.017   2.625
 2384TIP3    H2 7106   3.164   1.076   2.526
 2385TIP3   OH2 7107   1.892   1.736   2.920
 2385TIP3    H1 7108   1.823   1.781   2.866
 2385TIP3    H2 7109   1.852   1.650   2.935
 2386TIP3   OH2 7110   1.671   2.120   3.831
 2386TIP3    H1 7111   1.605   2.097   3.763
 2386TIP3    H2 7112   1.710   2.033   3.854
 2387TIP3   OH2 7113   1.527   2.316   3.458
 2387TIP3    H1 7114   1.623   2.305   3.452
 2387TIP3    H2 7115   1.520   2.391   3.519
 2388TIP3   OH2 7116   3.393   2.769   3.524
 2388TIP3    H1 7117   3.388   2.672   3.536
 2388TIP3    H2 7118   3.309   2.796   3.566
 2389TIP3   OH2 7119   2.494   2.550   3.653
 2389TIP3    H1 7120   2.492   2.643   3.686
 2389TIP3    H2 7121   2.424   2.509   3.708
 2390TIP3   OH2 7122   2.258   2.678   2.604
 2390TIP3    H1 7123   2.212   2.664   2.520
 2390TIP3    H2 7124   2.227   2.767   2.632
 2391TIP3   OH2 7125   1.695   2.527   2.992
 2391TIP3    H1 7126   1.743   2.520   3.078
 2391TIP3    H2 7127   1.648   2.442   2.991
 2392TIP3   OH2 7128   2.453   2.586   2.249
 2392TIP3    H1 7129   2.515   2.517   2.214
 2392TIP3    H2 7130   2.487   2.596   2.340
 2393TIP3   OH2 7131   2.511   2.628   2.517
 2393TIP3    H1 7132   2.421   2.638   2.556
 2393TIP3    H2 7133   2.561   2.596   2.594
 2394TIP3   OH2 7134   3.279   1.894   3.795
 2394TIP3    H1 7135   3.196   1.906   3.746
 2394TIP3    H2 7136   3.295   1.798   3.784
 2395TIP3   OH2 7137   1.875   2.304   3.815
 2395TIP3    H1 7138   1.925   2.288   3.898
 2395TIP3    H2 7139   1.801   2.241   3.825
 2396TIP3   OH2 7140   2.276   1.127   3.605
 2396TIP3    H1 7141   2.187   1.097   3.576
 2396TIP3    H2 7142   2.250   1.208   3.653
 2397TIP3   OH2 7143   2.811   1.240   3.798
 2397TIP3    H1 7144   2.880   1.213   3.862
 2397TIP3    H2 7145   2.728   1.222   3.846
 2398TIP3   OH2 7146   3.046   1.671   3.716
 2398TIP3    H1 7147   2.995   1.669   3.800
 2398TIP3    H2 7148   3.024   1.759   3.680
 2399TIP3   OH2 7149   2.707   1.798   2.271
 2399TIP3    H1 7150   2.672   1.777   2.182
 2399TIP3    H2 7151   2.793   1.838   2.247
 2400TIP3   OH2 7152   2.421   1.179   2.577
 2400TIP3    H1 7153   2.388   1.173   2.669
 2400TIP3    H2 7154   2.382   1.097   2.541
 2401TIP3   OH2 7155   2.207   1.643   3.622
 2401TIP3    H1 7156   2.157   1.665   3.704
 2401TIP3    H2 7157   2.192   1.725   3.569
 2402TIP3   OH2 7158   2.091   1.529   3.135
 2402TIP3    H1 7159   1.999   1.503   3.154
 2402TIP3    H2 7160   2.103   1.487   3.047
 2403TIP3   OH2 7161   2.582   1.613   2.864
 2403TIP3    H1 7162   2.531   1.685   2.820
 2403TIP3    H2 7163   2.637   1.580   2.791
 2404TIP3   OH2 7164   2.756   1.889   3.947
 2404TIP3    H1 7165   2.735   1.818   4.011
 2404TIP3    H2 7166   2.850   1.906   3.970
 2405TIP3   OH2 7167   2.737   1.640   3.102
 2405TIP3    H1 7168   2.676   1.671   3.032
 2405TIP3    H2 7169   2.772   1.561   3.056
 2406TIP3   OH2 7170   2.026   1.671   3.830
 2406TIP3    H1 7171   2.052   1.736   3.896
 2406TIP3    H2 7172   2.016   1.589   3.883
 2407TIP3   OH2 7173   2.072   1.152   2.541
 2407TIP3    H1 7174   2.064   1.150   2.638
 2407TIP3    H2 7175   1.998   1.210   2.518
 2408TIP3   OH2 7176   1.622   1.188   3.410
 2408TIP3    H1 7177   1.692   1.225   3.468
 2408TIP3    H2 7178   1.670   1.166   3.329
 2409TIP3   OH2 7179   1.584   1.176   2.931
 2409TIP3    H1 7180   1.630   1.210   2.851
 2409TIP3    H2 7181   1.525   1.252   2.948
 2410TIP3   OH2 7182   2.747   1.886   3.523
 2410TIP3    H1 7183   2.781   1.815   3.464
 2410TIP3    H2 7184   2.717   1.832   3.599
 2411TIP3   OH2 7185   2.421   1.348   3.195
 2411TIP3    H1 7186   2.340   1.349   3.249
 2411TIP3    H2 7187   2.490   1.347   3.263
 2412TIP3   OH2 7188   1.853   1.409   3.203
 2412TIP3    H1 7189   1.758   1.417   3.175
 2412TIP3    H2 7190   1.875   1.317   3.180
 2413TIP3   OH2 7191   2.119   1.400   2.895
 2413TIP3    H1 7192   2.212   1.417   2.873
 2413TIP3    H2 7193   2.071   1.422   2.811
 2414TIP3   OH2 7194   2.911   1.426   3.397
 2414TIP3    H1 7195   2.881   1.440   3.490
 2414TIP3    H2 7196   2.841   1.367   3.364
 2415TIP3   OH2 7197   1.969   1.436   2.672
 2415TIP3    H1 7198   1.895   1.394   2.624
 2415TIP3    H2 7199   2.019   1.474   2.597
 2416TIP3   OH2 7200   3.075   3.111   3.615
 2416TIP3    H1 7201   3.074   3.139   3.522
 2416TIP3    H2 7202   3.160   3.151   3.645
 2417TIP3   OH2 7203   2.039   2.226   4.036
 2417TIP3    H1 7204   2.118   2.256   4.086
 2417TIP3    H2 7205   1.974   2.222   4.109
 2418TIP3   OH2 7206   2.500   1.679   3.293
 2418TIP3    H1 7207   2.576   1.643   3.246
 2418TIP3    H2 7208   2.506   1.636   3.380
 2419TIP3   OH2 7209   2.020   1.167   3.175
 2419TIP3    H1 7210   1.985   1.089   3.225
 2419TIP3    H2 7211   2.068   1.124   3.103
 2420TIP3   OH2 7212   2.477   1.579   3.583
 2420TIP3    H1 7213   2.387   1.615   3.598
 2420TIP3    H2 7214   2.534   1.641   3.633
 2421TIP3   OH2 7215   2.214   1.966   2.678
 2421TIP3    H1 7216   2.142   1.900   2.667
 2421TIP3    H2 7217   2.194   2.000   2.768
 2422TIP3   OH2 7218   3.114   2.201   3.307
 2422TIP3    H1 7219   3.139   2.253   3.228
 2422TIP3    H2 7220   3.029   2.160   3.278
 2423TIP3   OH2 7221   2.673   1.277   2.543
 2423TIP3    H1 7222   2.576   1.259   2.552
 2423TIP3    H2 7223   2.681   1.371   2.568
 2424TIP3   OH2 7224   2.609   2.283   3.677
 2424TIP3    H1 7225   2.643   2.268   3.766
 2424TIP3    H2 7226   2.575   2.374   3.682
 2425TIP3   OH2 7227   2.740   1.527   2.646
 2425TIP3    H1 7228   2.837   1.533   2.662
 2425TIP3    H2 7229   2.722   1.608   2.595
 2426TIP3   OH2 7230   1.907   1.990   3.353
 2426TIP3    H1 7231   1.946   1.960   3.269
 2426TIP3    H2 7232   1.950   1.932   3.417
 2427TIP3   OH2 7233   2.359   2.115   2.501
 2427TIP3    H1 7234   2.310   2.200   2.504
 2427TIP3    H2 7235   2.305   2.060   2.563
 2428TIP3   OH2 7236   1.791   1.907   3.966
 2428TIP3    H1 7237   1.806   1.897   4.062
 2428TIP3    H2 7238   1.719   1.843   3.952
 2429TIP3   OH2 7239   2.516   2.025   3.986
 2429TIP3    H1 7240   2.454   1.964   3.943
 2429TIP3    H2 7241   2.602   1.988   3.957
 2430TIP3   OH2 7242   2.772   2.539   3.576
 2430TIP3    H1 7243   2.675   2.543   3.588
 2430TIP3    H2 7244   2.802   2.595   3.651
 2431TIP3   OH2 7245   3.181   1.621   2.482
 2431TIP3    H1 7246   3.119   1.577   2.418
 2431TIP3    H2 7247   3.179   1.710   2.442
 2432TIP3   OH2 7248   3.403   2.475   3.562
 2432TIP3    H1 7249   3.305   2.470   3.553
 2432TIP3    H2 7250   3.430   2.446   3.472
 2433TIP3   OH2 7251   2.938   2.427   2.362
 2433TIP3    H1 7252   2.931   2.383   2.449
 2433TIP3    H2 7253   2.876   2.374   2.309
 2434TIP3   OH2 7254   2.880   2.066   3.223
 2434TIP3    H1 7255   2.786   2.043   3.237
 2434TIP3    H2 7256   2.912   1.985   3.178
 2435TIP3   OH2 7257   2.010   2.294   2.978
 2435TIP3    H1 7258   2.007   2.374   2.924
 2435TIP3    H2 7259   1.916   2.276   2.992
 2436TIP3   OH2 7260   1.575   1.595   2.687
 2436TIP3    H1 7261   1.618   1.680   2.707
 2436TIP3    H2 7262   1.499   1.597   2.749
 2437TIP3   OH2 7263   2.141   2.056   2.920
 2437TIP3    H1 7264   2.109   2.146   2.940
 2437TIP3    H2 7265   2.108   2.006   2.997
 2438TIP3   OH2 7266   2.278   2.637   3.446
 2438TIP3    H1 7267   2.322   2.709   3.397
 2438TIP3    H2 7268   2.354   2.599   3.494
 2439TIP3   OH2 7269   1.924   2.536   2.829
 2439TIP3    H1 7270   1.841   2.542   2.879
 2439TIP3    H2 7271   1.957   2.628   2.834
 2440TIP3   OH2 7272   2.662   2.269   3.408
 2440TIP3    H1 7273   2.651   2.268   3.506
 2440TIP3    H2 7274   2.744   2.221   3.397
 2441TIP3   OH2 7275   2.640   2.166   2.287
 2441TIP3    H1 7276   2.695   2.140   2.364
 2441TIP3    H2 7277   2.552   2.139   2.319
 2442TIP3   OH2 7278   2.913   2.802   3.454
 2442TIP3    H1 7279   2.831   2.750   3.446
 2442TIP3    H2 7280   2.900   2.869   3.383
 2443TIP3   OH2 7281   3.018   2.636   2.154
 2443TIP3    H1 7282   3.064   2.704   2.100
 2443TIP3    H2 7283   2.928   2.673   2.153
 2444TIP3   OH2 7284   1.998   1.413   3.974
 2444TIP3    H1 7285   1.902   1.417   3.990
 2444TIP3    H2 7286   2.029   1.360   4.049
 2445TIP3   OH2 7287   2.801   2.093   2.501
 2445TIP3    H1 7288   2.790   2.030   2.574
 2445TIP3    H2 7289   2.898   2.091   2.490
 2446TIP3   OH2 7290   1.715   2.496   3.606
 2446TIP3    H1 7291   1.770   2.425   3.642
 2446TIP3    H2 7292   1.739   2.570   3.663
 2447TIP3   OH2 7293   2.005   2.145   2.291
 2447TIP3    H1 7294   2.017   2.052   2.264
 2447TIP3    H2 7295   1.984   2.134   2.386
 2448TIP3   OH2 7296   1.949   2.150   2.564
 2448TIP3    H1 7297   2.024   2.122   2.618
 2448TIP3    H2 7298   1.954   2.248   2.571
 2449TIP3   OH2 7299   1.685   1.842   2.766
 2449TIP3    H1 7300   1.618   1.886   2.823
 2449TIP3    H2 7301   1.697   1.910   2.698
 2450TIP3   OH2 7302   2.841   1.476   3.657
 2450TIP3    H1 7303   2.918   1.517   3.698
 2450TIP3    H2 7304   2.826   1.396   3.712
 2451TIP3   OH2 7305   2.721   1.226   2.826
 2451TIP3    H1 7306   2.706   1.249   2.732
 2451TIP3    H2 7307   2.759   1.309   2.862
 2452TIP3   OH2 7308   2.217   2.344   2.510
 2452TIP3    H1 7309   2.131   2.370   2.547
 2452TIP3    H2 7310   2.234   2.419   2.451
 2453TIP3   OH2 7311   2.403   1.411   2.926
 2453TIP3    H1 7312   2.467   1.484   2.909
 2453TIP3    H2 7313   2.409   1.402   3.023
 2454TIP3   OH2 7314   2.675   1.727   3.732
 2454TIP3    H1 7315   2.698   1.781   3.810
 2454TIP3    H2 7316   2.728   1.647   3.746
 2455TIP3   OH2 7317   2.547   1.131   3.025
 2455TIP3    H1 7318   2.540   1.208   3.085
 2455TIP3    H2 7319   2.610   1.166   2.957
 2456TIP3   OH2 7320   1.963   2.422   2.580
 2456TIP3    H1 7321   1.932   2.491   2.519
 2456TIP3    H2 7322   1.947   2.464   2.667
 2457TIP3   OH2 7323   2.062   1.137   2.817
 2457TIP3    H1 7324   2.059   1.227   2.854
 2457TIP3    H2 7325   2.158   1.119   2.824
 2458TIP3   OH2 7326   3.314   1.628   3.715
 2458TIP3    H1 7327   3.215   1.626   3.722
 2458TIP3    H2 7328   3.325   1.587   3.629
 2459TIP3   OH2 7329   2.965   1.822   3.102
 2459TIP3    H1 7330   2.889   1.762   3.115
 2459TIP3    H2 7331   3.037   1.775   3.150
 2460TIP3   OH2 7332   1.680   2.048   2.570
 2460TIP3    H1 7333   1.753   2.112   2.580
 2460TIP3    H2 7334   1.721   1.990   2.502
 2461TIP3   OH2 7335   1.618   1.323   2.702
 2461TIP3    H1 7336   1.618   1.421   2.701
 2461TIP3    H2 7337   1.538   1.302   2.653
 2462TIP3   OH2 7338   2.935   2.777   3.048
 2462TIP3    H1 7339   2.891   2.822   2.973
 2462TIP3    H2 7340   3.028   2.805   3.030
 2463TIP3   OH2 7341   2.011   1.047   3.575
 2463TIP3    H1 7342   1.980   1.012   3.489
 2463TIP3    H2 7343   2.001   0.969   3.634
 2464TIP3   OH2 7344   1.548   2.267   2.954
 2464TIP3    H1 7345   1.484   2.295   3.020
 2464TIP3    H2 7346   1.512   2.309   2.872
 2465TIP3   OH2 7347   1.709   2.812   4.028
 2465TIP3    H1 7348   1.795   2.814   4.076
 2465TIP3    H2 7349   1.690   2.716   4.030
 2466TIP3   OH2 7350   2.186   2.770   4.074
 2466TIP3    H1 7351   2.281   2.750   4.080
 2466TIP3    H2 7352   2.159   2.709   4.003
 2467TIP3   OH2 7353   2.168   2.347   2.201
 2467TIP3    H1 7354   2.113   2.275   2.239
 2467TIP3    H2 7355   2.243   2.296   2.166
 2468TIP3   OH2 7356   2.824   2.680   3.809
 2468TIP3    H1 7357   2.818   2.610   3.878
 2468TIP3    H2 7358   2.902   2.731   3.838
 2469TIP3   OH2 7359   2.605   2.391   2.140
 2469TIP3    H1 7360   2.630   2.306   2.181
 2469TIP3    H2 7361   2.643   2.388   2.049
 2470TIP3   OH2 7362   1.838   2.216   4.228
 2470TIP3    H1 7363   1.851   2.121   4.242
 2470TIP3    H2 7364   1.750   2.217   4.185
 2471TIP3   OH2 7365   1.814   1.863   2.426
 2471TIP3    H1 7366   1.871   1.833   2.499
 2471TIP3    H2 7367   1.881   1.868   2.353
 2472TIP3   OH2 7368   2.443   2.301   4.004
 2472TIP3    H1 7369   2.403   2.321   3.917
 2472TIP3    H2 7370   2.474   2.209   3.993
 2473TIP3   OH2 7371   2.330   2.063   2.232
 2473TIP3    H1 7372   2.331   2.074   2.330
 2473TIP3    H2 7373   2.329   1.965   2.225
 2474TIP3   OH2 7374   2.935   2.311   3.611
 2474TIP3    H1 7375   3.013   2.352   3.568
 2474TIP3    H2 7376   2.868   2.380   3.595
 2475TIP3   OH2 7377   1.959   1.953   4.212
 2475TIP3    H1 7378   2.030   1.892   4.192
 2475TIP3    H2 7379   1.987   1.986   4.300
 2476TIP3   OH2 7380   2.020   1.770   2.644
 2476TIP3    H1 7381   1.993   1.730   2.728
 2476TIP3    H2 7382   2.058   1.693   2.596
 2477TIP3   OH2 7383   2.292   1.833   3.873
 2477TIP3    H1 7384   2.213   1.892   3.872
 2477TIP3    H2 7385   2.344   1.868   3.797
 2478TIP3   OH2 7386   2.124   1.563   2.485
 2478TIP3    H1 7387   2.099   1.572   2.391
 2478TIP3    H2 7388   2.222   1.565   2.478
 2479TIP3   OH2 7389   2.808   2.235   4.008
 2479TIP3    H1 7390   2.886   2.205   3.959
 2479TIP3    H2 7391   2.803   2.170   4.080
 2480TIP3   OH2 7392   2.941   1.886   2.155
 2480TIP3    H1 7393   2.924   1.848   2.066
 2480TIP3    H2 7394   2.920   1.980   2.138
 2481TIP3   OH2 7395   2.416   1.623   3.996
 2481TIP3    H1 7396   2.415   1.544   3.939
 2481TIP3    H2 7397   2.371   1.690   3.940
 2482TIP3   OH2 7398   2.417   1.408   3.807
 2482TIP3    H1 7399   2.445   1.450   3.724
 2482TIP3    H2 7400   2.324   1.386   3.788
 2483TIP3   OH2 7401   2.441   1.940   3.679
 2483TIP3    H1 7402   2.527   1.957   3.640
 2483TIP3    H2 7403   2.384   2.007   3.634
 2484TIP3   OH2 7404   3.023   1.908   4.059
 2484TIP3    H1 7405   3.073   1.826   4.072
 2484TIP3    H2 7406   3.090   1.968   4.023
 2485TIP3   OH2 7407   3.065   2.163   3.796
 2485TIP3    H1 7408   3.007   2.218   3.738
 2485TIP3    H2 7409   3.153   2.185   3.758
 2486TIP3   OH2 7410   2.296   1.728   4.233
 2486TIP3    H1 7411   2.226   1.662   4.249
 2486TIP3    H2 7412   2.327   1.702   4.144
 2487TIP3   OH2 7413   2.549   1.169   3.876
 2487TIP3    H1 7414   2.499   1.251   3.853
 2487TIP3    H2 7415   2.480   1.100   3.865
 2488TIP3   OH2 7416   2.676   1.672   4.092
 2488TIP3    H1 7417   2.660   1.658   4.187
 2488TIP3    H2 7418   2.586   1.650   4.058
 2489TIP3   OH2 7419   2.913   1.622   3.945
 2489TIP3    H1 7420   2.839   1.626   4.009
 2489TIP3    H2 7421   2.988   1.594   4.002
 2490TIP3   OH2 7422   3.144   1.566   4.094
 2490TIP3    H1 7423   3.156   1.470   4.111
 2490TIP3    H2 7424   3.139   1.603   4.185
 2491TIP3   OH2 7425   2.131   1.510   4.284
 2491TIP3    H1 7426   2.136   1.417   4.255
 2491TIP3    H2 7427   2.167   1.502   4.375
 2492TIP3   OH2 7428   2.642   1.180   4.134
 2492TIP3    H1 7429   2.709   1.109   4.128
 2492TIP3    H2 7430   2.603   1.176   4.045
 2493TIP3   OH2 7431   2.710   1.396   4.292
 2493TIP3    H1 7432   2.689   1.325   4.228
 2493TIP3    H2 7433   2.631   1.454   4.286
 2494TIP3   OH2 7434   1.926   2.627   2.392
 2494TIP3    H1 7435   2.022   2.617   2.372
 2494TIP3    H2 7436   1.898   2.681   2.316
 2495TIP3   OH2 7437   1.410   2.007   2.605
 2495TIP3    H1 7438   1.505   2.028   2.591
 2495TIP3    H2 7439   1.405   1.917   2.566
 2496TIP3   OH2 7440   1.328   2.619   3.022
 2496TIP3    H1 7441   1.261   2.557   2.984
 2496TIP3    H2 7442   1.371   2.561   3.088
 2497TIP3   OH2 7443   1.460   2.467   3.210
 2497TIP3    H1 7444   1.449   2.396   3.276
 2497TIP3    H2 7445   1.513   2.529   3.263
 2498TIP3   OH2 7446   3.177   2.889   3.004
 2498TIP3    H1 7447   3.230   2.922   3.078
 2498TIP3    H2 7448   3.244   2.879   2.935
 2499TIP3   OH2 7449   3.215   2.892   3.301
 2499TIP3    H1 7450   3.176   2.804   3.282
 2499TIP3    H2 7451   3.296   2.865   3.346
 2500TIP3   OH2 7452   3.265   2.564   3.867
 2500TIP3    H1 7453   3.192   2.576   3.930
 2500TIP3    H2 7454   3.305   2.654   3.866
 2501TIP3   OH2 7455   3.078   2.079   2.485
 2501TIP3    H1 7456   3.148   2.140   2.452
 2501TIP3    H2 7457   3.124   2.040   2.563
 2502TIP3   OH2 7458   3.208   1.944   2.687
 2502TIP3    H1 7459   3.142   1.905   2.747
 2502TIP3    H2 7460   3.273   1.982   2.749
 2503TIP3   OH2 7461   3.261   2.340   3.121
 2503TIP3    H1 7462   3.315   2.281   3.066
 2503TIP3    H2 7463   3.229   2.405   3.057
 2504TIP3   OH2 7464   3.091   2.635   3.317
 2504TIP3    H1 7465   3.022   2.686   3.364
 2504TIP3    H2 7466   3.041   2.595   3.242
 2505TIP3   OH2 7467   3.146   1.854   2.334
 2505TIP3    H1 7468   3.075   1.854   2.266
 2505TIP3    H2 7469   3.117   1.930   2.387
 2506TIP3   OH2 7470   3.016   1.527   2.288
 2506TIP3    H1 7471   2.975   1.566   2.210
 2506TIP3    H2 7472   2.991   1.432   2.276
 2507TIP3   OH2 7473   3.019   1.806   2.833
 2507TIP3    H1 7474   3.029   1.709   2.825
 2507TIP3    H2 7475   3.005   1.818   2.929
 2508TIP3   OH2 7476   1.646   1.878   3.580
 2508TIP3    H1 7477   1.644   1.844   3.489
 2508TIP3    H2 7478   1.743   1.879   3.597
 2509TIP3   OH2 7479   3.311   2.229   3.691
 2509TIP3    H1 7480   3.383   2.163   3.679
 2509TIP3    H2 7481   3.334   2.297   3.627
 2510TIP3   OH2 7482   3.494   2.029   3.699
 2510TIP3    H1 7483   3.420   1.981   3.741
 2510TIP3    H2 7484   3.567   1.966   3.717
 2511TIP3   OH2 7485   2.961   1.259   2.268
 2511TIP3    H1 7486   3.034   1.230   2.326
 2511TIP3    H2 7487   2.887   1.201   2.292
 2512TIP3   OH2 7488   3.018   1.520   2.725
 2512TIP3    H1 7489   3.059   1.432   2.740
 2512TIP3    H2 7490   3.076   1.554   2.655
 2513TIP3   OH2 7491   3.178   1.689   3.223
 2513TIP3    H1 7492   3.264   1.715   3.181
 2513TIP3    H2 7493   3.192   1.729   3.311
 2514TIP3   OH2 7494   3.249   1.837   3.452
 2514TIP3    H1 7495   3.172   1.872   3.501
 2514TIP3    H2 7496   3.282   1.918   3.408
 2515TIP3   OH2 7497   1.864   1.558   4.242
 2515TIP3    H1 7498   1.961   1.557   4.253
 2515TIP3    H2 7499   1.840   1.476   4.291
 2516TIP3   OH2 7500   3.701   1.431   4.009
 2516TIP3    H1 7501   3.761   1.366   3.967
 2516TIP3    H2 7502   3.669   1.482   3.931
 2517TIP3   OH2 7503   3.127   1.270   2.764
 2517TIP3    H1 7504   3.175   1.255   2.848
 2517TIP3    H2 7505   3.066   1.194   2.764
 2518TIP3   OH2 7506   1.826   1.256   3.582
 2518TIP3    H1 7507   1.888   1.181   3.593
 2518TIP3    H2 7508   1.888   1.330   3.576
 2519TIP3   OH2 7509   1.627   1.526   3.656
 2519TIP3    H1 7510   1.678   1.528   3.573
 2519TIP3    H2 7511   1.653   1.610   3.697
 2520TIP3   OH2 7512   3.568   1.565   3.813
 2520TIP3    H1 7513   3.484   1.610   3.835
 2520TIP3    H2 7514   3.534   1.494   3.756
 2521TIP3   OH2 7515   3.205   1.202   2.400
 2521TIP3    H1 7516   3.246   1.133   2.344
 2521TIP3    H2 7517   3.271   1.274   2.398
 2522TIP3   OH2 7518   1.613   1.025   3.154
 2522TIP3    H1 7519   1.523   1.028   3.192
 2522TIP3    H2 7520   1.606   1.090   3.080
 2523TIP3   OH2 7521   2.777   2.735   2.663
 2523TIP3    H1 7522   2.838   2.733   2.587
 2523TIP3    H2 7523   2.822   2.797   2.723
 2524TIP3   OH2 7524   1.833   1.108   3.969
 2524TIP3    H1 7525   1.783   1.107   4.053
 2524TIP3    H2 7526   1.767   1.150   3.910
 2525TIP3   OH2 7527   1.872   2.542   4.048
 2525TIP3    H1 7528   1.779   2.516   4.033
 2525TIP3    H2 7529   1.884   2.520   4.141
 2526TIP3   OH2 7530   2.052   2.575   3.596
 2526TIP3    H1 7531   2.006   2.652   3.557
 2526TIP3    H2 7532   2.139   2.588   3.552
 2527TIP3   OH2 7533   2.494   2.817   3.735
 2527TIP3    H1 7534   2.536   2.817   3.823
 2527TIP3    H2 7535   2.560   2.869   3.683
 2528TIP3   OH2 7536   2.673   2.971   3.596
 2528TIP3    H1 7537   2.745   2.923   3.552
 2528TIP3    H2 7538   2.725   3.029   3.657
 2529TIP3   OH2 7539   3.469   1.330   3.694
 2529TIP3    H1 7540   3.379   1.321   3.659
 2529TIP3    H2 7541   3.502   1.237   3.684
 2530TIP3   OH2 7542   1.725   2.831   3.621
 2530TIP3    H1 7543   1.634   2.863   3.602
 2530TIP3    H2 7544   1.742   2.874   3.705
 2531TIP3   OH2 7545   1.963   2.808   3.481
 2531TIP3    H1 7546   1.875   2.821   3.523
 2531TIP3    H2 7547   1.945   2.840   3.390
 2532TIP3   OH2 7548   2.389   2.836   3.278
 2532TIP3    H1 7549   2.321   2.856   3.211
 2532TIP3    H2 7550   2.401   2.923   3.320
 2533TIP3   OH2 7551   2.659   2.772   3.330
 2533TIP3    H1 7552   2.567   2.795   3.310
 2533TIP3    H2 7553   2.708   2.844   3.286
 2534TIP3   OH2 7554   2.858   2.962   3.240
 2534TIP3    H1 7555   2.848   3.049   3.195
 2534TIP3    H2 7556   2.892   2.906   3.168
 2535TIP3   OH2 7557   1.638   2.623   3.366
 2535TIP3    H1 7558   1.665   2.596   3.456
 2535TIP3    H2 7559   1.710   2.578   3.315
 2536TIP3   OH2 7560   1.834   2.495   3.225
 2536TIP3    H1 7561   1.848   2.411   3.275
 2536TIP3    H2 7562   1.925   2.530   3.222
 2537TIP3   OH2 7563   2.100   2.587   3.230
 2537TIP3    H1 7564   2.131   2.495   3.220
 2537TIP3    H2 7565   2.148   2.611   3.312
 2538TIP3   OH2 7566   2.674   1.245   3.313
 2538TIP3    H1 7567   2.631   1.174   3.365
 2538TIP3    H2 7568   2.750   1.198   3.273
 2539TIP3   OH2 7569   3.194   1.122   3.215
 2539TIP3    H1 7570   3.231   1.176   3.142
 2539TIP3    H2 7571   3.100   1.146   3.212
 2540TIP3   OH2 7572   3.291   1.223   2.981
 2540TIP3    H1 7573   3.365   1.173   2.942
 2540TIP3    H2 7574   3.324   1.315   2.967
 2541TIP3   OH2 7575   1.923   0.953   3.326
 2541TIP3    H1 7576   1.830   0.921   3.333
 2541TIP3    H2 7577   1.971   0.868   3.324
 2542TIP3   OH2 7578   1.687   0.838   2.964
 2542TIP3    H1 7579   1.739   0.892   2.901
 2542TIP3    H2 7580   1.678   0.899   3.041
 2543TIP3   OH2 7581   2.369   0.983   3.212
 2543TIP3    H1 7582   2.423   1.033   3.149
 2543TIP3    H2 7583   2.393   1.025   3.296
 2544TIP3   OH2 7584   2.909   1.134   3.194
 2544TIP3    H1 7585   2.912   1.094   3.106
 2544TIP3    H2 7586   2.898   1.054   3.251
 2545TIP3   OH2 7587   2.942   1.058   2.756
 2545TIP3    H1 7588   2.858   1.103   2.774
 2545TIP3    H2 7589   2.927   0.972   2.802
 2546TIP3   OH2 7590   1.427   2.394   2.751
 2546TIP3    H1 7591   1.341   2.359   2.722
 2546TIP3    H2 7592   1.412   2.489   2.732
 2547TIP3   OH2 7593   1.826   0.985   2.754
 2547TIP3    H1 7594   1.866   0.918   2.695
 2547TIP3    H2 7595   1.904   1.038   2.779
 2548TIP3   OH2 7596   2.339   1.160   2.840
 2548TIP3    H1 7597   2.400   1.114   2.900
 2548TIP3    H2 7598   2.359   1.253   2.864
 2549TIP3   OH2 7599   2.193   2.584   2.336
 2549TIP3    H1 7600   2.283   2.606   2.302
 2549TIP3    H2 7601   2.175   2.506   2.278
 2550TIP3   OH2 7602   2.921   2.699   2.425
 2550TIP3    H1 7603   2.885   2.609   2.418
 2550TIP3    H2 7604   2.873   2.745   2.353
 2551TIP3   OH2 7605   2.131   1.234   4.218
 2551TIP3    H1 7606   2.094   1.165   4.276
 2551TIP3    H2 7607   2.224   1.234   4.248
 2552TIP3   OH2 7608   2.380   1.230   4.338
 2552TIP3    H1 7609   2.466   1.205   4.301
 2552TIP3    H2 7610   2.368   1.159   4.405
 2553TIP3   OH2 7611   1.516   2.439   2.400
 2553TIP3    H1 7612   1.513   2.421   2.495
 2553TIP3    H2 7613   1.596   2.388   2.373
 2554TIP3   OH2 7614   3.207   1.295   4.126
 2554TIP3    H1 7615   3.224   1.264   4.218
 2554TIP3    H2 7616   3.296   1.289   4.087
 2555TIP3   OH2 7617   3.142   2.845   3.620
 2555TIP3    H1 7618   3.066   2.816   3.566
 2555TIP3    H2 7619   3.124   2.942   3.623
 2556TIP3   OH2 7620   4.410   2.220   2.383
 2556TIP3    H1 7621   4.378   2.310   2.361
 2556TIP3    H2 7622   4.335   2.167   2.350
 2557TIP3   OH2 7623   4.415   2.220   2.767
 2557TIP3    H1 7624   4.444   2.190   2.855
 2557TIP3    H2 7625   4.371   2.141   2.732
 2558TIP3   OH2 7626   3.708   2.112   3.132
 2558TIP3    H1 7627   3.739   2.043   3.193
 2558TIP3    H2 7628   3.785   2.170   3.128
 2559TIP3   OH2 7629   4.660   2.518   2.449
 2559TIP3    H1 7630   4.633   2.452   2.514
 2559TIP3    H2 7631   4.682   2.595   2.504
 2560TIP3   OH2 7632   3.693   2.529   2.855
 2560TIP3    H1 7633   3.677   2.432   2.857
 2560TIP3    H2 7634   3.789   2.533   2.841
 2561TIP3   OH2 7635   3.387   1.722   2.638
 2561TIP3    H1 7636   3.342   1.806   2.657
 2561TIP3    H2 7637   3.315   1.674   2.593
 2562TIP3   OH2 7638   3.443   2.012   2.815
 2562TIP3    H1 7639   3.494   1.935   2.848
 2562TIP3    H2 7640   3.504   2.051   2.751
 2563TIP3   OH2 7641   4.312   2.994   2.466
 2563TIP3    H1 7642   4.350   2.921   2.414
 2563TIP3    H2 7643   4.288   2.948   2.548
 2564TIP3   OH2 7644   4.208   2.445   2.816
 2564TIP3    H1 7645   4.247   2.370   2.769
 2564TIP3    H2 7646   4.291   2.491   2.841
 2565TIP3   OH2 7647   5.225   1.764   2.814
 2565TIP3    H1 7648   5.255   1.850   2.849
 2565TIP3    H2 7649   5.246   1.774   2.719
 2566TIP3   OH2 7650   4.621   1.944   2.845
 2566TIP3    H1 7651   4.664   1.859   2.865
 2566TIP3    H2 7652   4.589   1.928   2.754
 2567TIP3   OH2 7653   3.962   1.605   2.811
 2567TIP3    H1 7654   3.941   1.678   2.748
 2567TIP3    H2 7655   3.913   1.532   2.767
 2568TIP3   OH2 7656   4.653   1.699   2.430
 2568TIP3    H1 7657   4.723   1.683   2.497
 2568TIP3    H2 7658   4.708   1.731   2.356
 2569TIP3   OH2 7659   3.592   1.806   2.919
 2569TIP3    H1 7660   3.675   1.789   2.967
 2569TIP3    H2 7661   3.607   1.751   2.839
 2570TIP3   OH2 7662   4.032   2.004   2.715
 2570TIP3    H1 7663   4.127   1.979   2.726
 2570TIP3    H2 7664   3.994   1.920   2.681
 2571TIP3   OH2 7665   5.299   1.978   2.981
 2571TIP3    H1 7666   5.214   2.021   2.957
 2571TIP3    H2 7667   5.298   1.989   3.077
 2572TIP3   OH2 7668   3.955   1.589   3.247
 2572TIP3    H1 7669   3.896   1.626   3.179
 2572TIP3    H2 7670   3.902   1.607   3.327
 2573TIP3   OH2 7671   4.296   2.438   2.255
 2573TIP3    H1 7672   4.259   2.427   2.167
 2573TIP3    H2 7673   4.252   2.522   2.283
 2574TIP3   OH2 7674   4.063   2.366   3.039
 2574TIP3    H1 7675   4.001   2.433   3.075
 2574TIP3    H2 7676   4.102   2.413   2.963
 2575TIP3   OH2 7677   4.857   1.704   2.607
 2575TIP3    H1 7678   4.856   1.647   2.685
 2575TIP3    H2 7679   4.912   1.779   2.636
 2576TIP3   OH2 7680   3.827   1.703   3.030
 2576TIP3    H1 7681   3.889   1.776   3.054
 2576TIP3    H2 7682   3.876   1.664   2.954
 2577TIP3   OH2 7683   3.893   2.560   3.140
 2577TIP3    H1 7684   3.866   2.645   3.100
 2577TIP3    H2 7685   3.812   2.543   3.194
 2578TIP3   OH2 7686   3.284   2.235   2.379
 2578TIP3    H1 7687   3.250   2.246   2.287
 2578TIP3    H2 7688   3.294   2.328   2.405
 2579TIP3   OH2 7689   4.727   2.767   2.616
 2579TIP3    H1 7690   4.637   2.756   2.657
 2579TIP3    H2 7691   4.714   2.851   2.568
 2580TIP3   OH2 7692   5.015   1.668   2.982
 2580TIP3    H1 7693   4.927   1.687   2.946
 2580TIP3    H2 7694   5.074   1.697   2.909
 2581TIP3   OH2 7695   4.309   1.305   2.962
 2581TIP3    H1 7696   4.292   1.211   2.978
 2581TIP3    H2 7697   4.232   1.345   3.009
 2582TIP3   OH2 7698   4.423   2.810   2.293
 2582TIP3    H1 7699   4.470   2.726   2.272
 2582TIP3    H2 7700   4.485   2.873   2.249
 2583TIP3   OH2 7701   4.564   2.595   2.200
 2583TIP3    H1 7702   4.538   2.515   2.151
 2583TIP3    H2 7703   4.603   2.557   2.281
 2584TIP3   OH2 7704   4.949   2.674   2.957
 2584TIP3    H1 7705   4.932   2.597   2.898
 2584TIP3    H2 7706   4.926   2.749   2.898
 2585TIP3   OH2 7707   4.242   2.071   2.218
 2585TIP3    H1 7708   4.162   2.125   2.199
 2585TIP3    H2 7709   4.286   2.069   2.132
 2586TIP3   OH2 7710   4.199   1.856   1.929
 2586TIP3    H1 7711   4.264   1.910   1.978
 2586TIP3    H2 7712   4.259   1.794   1.882
 2587TIP3   OH2 7713   5.159   2.336   2.814
 2587TIP3    H1 7714   5.069   2.376   2.816
 2587TIP3    H2 7715   5.180   2.346   2.718
 2588TIP3   OH2 7716   4.589   2.153   2.186
 2588TIP3    H1 7717   4.534   2.177   2.265
 2588TIP3    H2 7718   4.674   2.129   2.230
 2589TIP3   OH2 7719   4.823   2.192   3.101
 2589TIP3    H1 7720   4.816   2.276   3.151
 2589TIP3    H2 7721   4.736   2.191   3.056
 2590TIP3   OH2 7722   3.820   2.149   2.606
 2590TIP3    H1 7723   3.779   2.092   2.538
 2590TIP3    H2 7724   3.897   2.095   2.635
 2591TIP3   OH2 7725   3.955   2.561   2.751
 2591TIP3    H1 7726   3.933   2.529   2.662
 2591TIP3    H2 7727   4.044   2.523   2.766
 2592TIP3   OH2 7728   3.959   2.120   2.960
 2592TIP3    H1 7729   3.989   2.097   2.870
 2592TIP3    H2 7730   4.000   2.208   2.976
 2593TIP3   OH2 7731   4.488   2.759   2.738
 2593TIP3    H1 7732   4.469   2.840   2.789
 2593TIP3    H2 7733   4.466   2.687   2.800
 2594TIP3   OH2 7734   4.095   2.677   3.285
 2594TIP3    H1 7735   4.033   2.740   3.328
 2594TIP3    H2 7736   4.031   2.625   3.231
 2595TIP3   OH2 7737   4.426   2.011   2.014
 2595TIP3    H1 7738   4.485   2.073   2.063
 2595TIP3    H2 7739   4.454   2.030   1.920
 2596TIP3   OH2 7740   3.852   2.230   3.389
 2596TIP3    H1 7741   3.856   2.319   3.428
 2596TIP3    H2 7742   3.756   2.211   3.401
 2597TIP3   OH2 7743   4.175   2.689   2.290
 2597TIP3    H1 7744   4.256   2.743   2.297
 2597TIP3    H2 7745   4.113   2.749   2.247
 2598TIP3   OH2 7746   3.890   2.846   3.373
 2598TIP3    H1 7747   3.856   2.850   3.281
 2598TIP3    H2 7748   3.810   2.821   3.424
 2599TIP3   OH2 7749   4.923   1.245   2.035
 2599TIP3    H1 7750   4.872   1.262   2.116
 2599TIP3    H2 7751   4.945   1.335   2.005
 2600TIP3   OH2 7752   3.688   1.992   2.410
 2600TIP3    H1 7753   3.622   2.038   2.353
 2600TIP3    H2 7754   3.647   1.905   2.420
 2601TIP3   OH2 7755   4.745   2.617   1.611
 2601TIP3    H1 7756   4.748   2.712   1.590
 2601TIP3    H2 7757   4.839   2.591   1.600
 2602TIP3   OH2 7758   3.467   2.378   3.318
 2602TIP3    H1 7759   3.401   2.361   3.248
 2602TIP3    H2 7760   3.504   2.289   3.335
 2603TIP3   OH2 7761   5.185   3.022   3.011
 2603TIP3    H1 7762   5.180   2.926   3.025
 2603TIP3    H2 7763   5.101   3.050   3.053
 2604TIP3   OH2 7764   4.293   2.803   3.143
 2604TIP3    H1 7765   4.289   2.896   3.174
 2604TIP3    H2 7766   4.218   2.764   3.195
 2605TIP3   OH2 7767   4.045   2.928   2.101
 2605TIP3    H1 7768   4.005   2.913   2.013
 2605TIP3    H2 7769   4.016   3.018   2.123
 2606TIP3   OH2 7770   3.469   2.771   2.486
 2606TIP3    H1 7771   3.533   2.760   2.559
 2606TIP3    H2 7772   3.391   2.736   2.537
 2607TIP3   OH2 7773   4.302   2.905   2.014
 2607TIP3    H1 7774   4.212   2.904   2.051
 2607TIP3    H2 7775   4.345   2.833   2.061
 2608TIP3   OH2 7776   5.084   2.159   3.271
 2608TIP3    H1 7777   4.996   2.167   3.232
 2608TIP3    H2 7778   5.098   2.063   3.266
 2609TIP3   OH2 7779   3.675   2.557   3.305
 2609TIP3    H1 7780   3.721   2.540   3.389
 2609TIP3    H2 7781   3.598   2.498   3.311
 2610TIP3   OH2 7782   4.072   1.383   3.092
 2610TIP3    H1 7783   3.984   1.353   3.062
 2610TIP3    H2 7784   4.046   1.464   3.139
 2611TIP3   OH2 7785   4.607   1.498   3.285
 2611TIP3    H1 7786   4.675   1.469   3.349
 2611TIP3    H2 7787   4.523   1.479   3.332
 2612TIP3   OH2 7788   4.847   1.931   3.208
 2612TIP3    H1 7789   4.792   1.926   3.289
 2612TIP3    H2 7790   4.818   2.015   3.168
 2613TIP3   OH2 7791   4.505   2.049   1.758
 2613TIP3    H1 7792   4.470   2.029   1.669
 2613TIP3    H2 7793   4.580   2.107   1.736
 2614TIP3   OH2 7794   4.215   1.431   2.062
 2614TIP3    H1 7795   4.181   1.426   2.154
 2614TIP3    H2 7796   4.176   1.349   2.026
 2615TIP3   OH2 7797   4.005   1.899   3.110
 2615TIP3    H1 7798   3.953   1.920   3.190
 2615TIP3    H2 7799   3.989   1.980   3.056
 2616TIP3   OH2 7800   3.888   1.785   2.623
 2616TIP3    H1 7801   3.795   1.761   2.641
 2616TIP3    H2 7802   3.899   1.745   2.534
 2617TIP3   OH2 7803   4.379   1.871   2.352
 2617TIP3    H1 7804   4.328   1.942   2.307
 2617TIP3    H2 7805   4.434   1.836   2.279
 2618TIP3   OH2 7806   4.553   2.147   3.435
 2618TIP3    H1 7807   4.530   2.075   3.498
 2618TIP3    H2 7808   4.647   2.160   3.458
 2619TIP3   OH2 7809   4.534   1.899   2.587
 2619TIP3    H1 7810   4.471   1.925   2.517
 2619TIP3    H2 7811   4.570   1.819   2.543
 2620TIP3   OH2 7812   3.825   1.927   3.316
 2620TIP3    H1 7813   3.846   1.994   3.384
 2620TIP3    H2 7814   3.813   1.846   3.370
 2621TIP3   OH2 7815   3.872   1.405   2.027
 2621TIP3    H1 7816   3.861   1.406   2.124
 2621TIP3    H2 7817   3.796   1.461   2.000
 2622TIP3   OH2 7818   3.417   1.446   2.899
 2622TIP3    H1 7819   3.490   1.482   2.953
 2622TIP3    H2 7820   3.460   1.422   2.816
 2623TIP3   OH2 7821   3.382   1.430   2.417
 2623TIP3    H1 7822   3.427   1.466   2.338
 2623TIP3    H2 7823   3.322   1.504   2.437
 2624TIP3   OH2 7824   4.551   2.143   3.012
 2624TIP3    H1 7825   4.581   2.071   2.951
 2624TIP3    H2 7826   4.516   2.088   3.086
 2625TIP3   OH2 7827   4.219   1.606   2.683
 2625TIP3    H1 7828   4.136   1.606   2.736
 2625TIP3    H2 7829   4.287   1.602   2.751
 2626TIP3   OH2 7830   3.649   1.665   2.691
 2626TIP3    H1 7831   3.554   1.673   2.662
 2626TIP3    H2 7832   3.671   1.573   2.666
 2627TIP3   OH2 7833   3.915   1.657   2.381
 2627TIP3    H1 7834   4.008   1.674   2.359
 2627TIP3    H2 7835   3.867   1.679   2.298
 2628TIP3   OH2 7836   4.709   1.684   2.890
 2628TIP3    H1 7837   4.672   1.697   2.980
 2628TIP3    H2 7838   4.644   1.624   2.851
 2629TIP3   OH2 7839   3.765   1.692   2.158
 2629TIP3    H1 7840   3.694   1.648   2.109
 2629TIP3    H2 7841   3.816   1.731   2.084
 2630TIP3   OH2 7842   4.878   3.371   3.104
 2630TIP3    H1 7843   4.872   3.396   3.010
 2630TIP3    H2 7844   4.951   3.428   3.134
 2631TIP3   OH2 7845   3.836   2.479   3.527
 2631TIP3    H1 7846   3.914   2.512   3.575
 2631TIP3    H2 7847   3.769   2.480   3.599
 2632TIP3   OH2 7848   4.297   1.937   2.781
 2632TIP3    H1 7849   4.370   1.898   2.731
 2632TIP3    H2 7850   4.303   1.890   2.867
 2633TIP3   OH2 7851   3.818   1.423   2.662
 2633TIP3    H1 7852   3.782   1.346   2.710
 2633TIP3    H2 7853   3.863   1.382   2.588
 2634TIP3   OH2 7854   4.273   1.834   3.071
 2634TIP3    H1 7855   4.183   1.869   3.084
 2634TIP3    H2 7856   4.329   1.898   3.120
 2635TIP3   OH2 7857   4.011   2.222   2.165
 2635TIP3    H1 7858   3.939   2.157   2.154
 2635TIP3    H2 7859   3.991   2.257   2.256
 2636TIP3   OH2 7860   4.911   2.455   2.793
 2636TIP3    H1 7861   4.930   2.508   2.713
 2636TIP3    H2 7862   4.825   2.411   2.769
 2637TIP3   OH2 7863   4.468   1.533   2.031
 2637TIP3    H1 7864   4.372   1.515   2.039
 2637TIP3    H2 7865   4.476   1.627   2.056
 2638TIP3   OH2 7866   4.416   2.546   3.162
 2638TIP3    H1 7867   4.431   2.522   3.254
 2638TIP3    H2 7868   4.371   2.632   3.168
 2639TIP3   OH2 7869   4.536   1.784   2.134
 2639TIP3    H1 7870   4.633   1.790   2.148
 2639TIP3    H2 7871   4.517   1.864   2.082
 2640TIP3   OH2 7872   3.704   2.244   2.841
 2640TIP3    H1 7873   3.741   2.217   2.755
 2640TIP3    H2 7874   3.748   2.184   2.902
 2641TIP3   OH2 7875   4.157   2.372   1.987
 2641TIP3    H1 7876   4.107   2.457   1.990
 2641TIP3    H2 7877   4.103   2.317   2.049
 2642TIP3   OH2 7878   3.588   2.161   3.453
 2642TIP3    H1 7879   3.601   2.149   3.549
 2642TIP3    H2 7880   3.515   2.099   3.436
 2643TIP3   OH2 7881   4.311   2.282   3.473
 2643TIP3    H1 7882   4.248   2.222   3.430
 2643TIP3    H2 7883   4.396   2.244   3.443
 2644TIP3   OH2 7884   4.571   2.803   3.060
 2644TIP3    H1 7885   4.475   2.798   3.072
 2644TIP3    H2 7886   4.597   2.856   3.139
 2645TIP3   OH2 7887   4.980   1.877   1.968
 2645TIP3    H1 7888   4.918   1.832   1.905
 2645TIP3    H2 7889   4.976   1.966   1.927
 2646TIP3   OH2 7890   5.200   2.726   3.041
 2646TIP3    H1 7891   5.102   2.722   3.031
 2646TIP3    H2 7892   5.226   2.702   2.949
 2647TIP3   OH2 7893   4.708   2.690   1.884
 2647TIP3    H1 7894   4.653   2.631   1.937
 2647TIP3    H2 7895   4.695   2.654   1.794
 2648TIP3   OH2 7896   4.677   2.321   2.713
 2648TIP3    H1 7897   4.583   2.297   2.726
 2648TIP3    H2 7898   4.709   2.241   2.666
 2649TIP3   OH2 7899   3.810   2.550   2.464
 2649TIP3    H1 7900   3.806   2.631   2.409
 2649TIP3    H2 7901   3.719   2.543   2.494
 2650TIP3   OH2 7902   3.372   1.852   2.172
 2650TIP3    H1 7903   3.415   1.938   2.190
 2650TIP3    H2 7904   3.294   1.858   2.232
 2651TIP3   OH2 7905   3.940   2.312   2.409
 2651TIP3    H1 7906   3.905   2.402   2.426
 2651TIP3    H2 7907   3.903   2.263   2.485
 2652TIP3   OH2 7908   4.074   2.894   2.935
 2652TIP3    H1 7909   4.115   2.967   2.883
 2652TIP3    H2 7910   4.151   2.857   2.980
 2653TIP3   OH2 7911   3.718   2.788   2.320
 2653TIP3    H1 7912   3.633   2.798   2.366
 2653TIP3    H2 7913   3.752   2.880   2.322
 2654TIP3   OH2 7914   4.459   2.526   2.894
 2654TIP3    H1 7915   4.449   2.526   2.992
 2654TIP3    H2 7916   4.536   2.469   2.882
 2655TIP3   OH2 7917   4.427   2.397   1.780
 2655TIP3    H1 7918   4.484   2.384   1.859
 2655TIP3    H2 7919   4.339   2.386   1.819
 2656TIP3   OH2 7920   4.711   3.057   2.943
 2656TIP3    H1 7921   4.630   3.003   2.938
 2656TIP3    H2 7922   4.693   3.122   2.871
 2657TIP3   OH2 7923   4.780   2.891   1.585
 2657TIP3    H1 7924   4.778   2.972   1.531
 2657TIP3    H2 7925   4.684   2.889   1.608
 2658TIP3   OH2 7926   3.793   1.670   3.461
 2658TIP3    H1 7927   3.696   1.673   3.473
 2658TIP3    H2 7928   3.820   1.613   3.534
 2659TIP3   OH2 7929   4.597   2.359   1.999
 2659TIP3    H1 7930   4.589   2.290   2.067
 2659TIP3    H2 7931   4.693   2.355   1.981
 2660TIP3   OH2 7932   3.512   2.768   3.098
 2660TIP3    H1 7933   3.550   2.679   3.106
 2660TIP3    H2 7934   3.557   2.816   3.168
 2661TIP3   OH2 7935   3.801   2.403   1.778
 2661TIP3    H1 7936   3.814   2.311   1.750
 2661TIP3    H2 7937   3.780   2.392   1.872
 2662TIP3   OH2 7938   3.747   2.407   2.050
 2662TIP3    H1 7939   3.823   2.382   2.105
 2662TIP3    H2 7940   3.749   2.506   2.057
 2663TIP3   OH2 7941   3.486   2.097   2.251
 2663TIP3    H1 7942   3.421   2.140   2.310
 2663TIP3    H2 7943   3.495   2.166   2.183
 2664TIP3   OH2 7944   4.633   1.737   3.149
 2664TIP3    H1 7945   4.716   1.771   3.187
 2664TIP3    H2 7946   4.619   1.655   3.201
 2665TIP3   OH2 7947   4.510   1.484   2.314
 2665TIP3    H1 7948   4.500   1.504   2.219
 2665TIP3    H2 7949   4.551   1.567   2.348
 2666TIP3   OH2 7950   4.014   2.601   1.999
 2666TIP3    H1 7951   3.926   2.626   2.035
 2666TIP3    H2 7952   4.031   2.677   1.941
 2667TIP3   OH2 7953   4.199   1.668   2.412
 2667TIP3    H1 7954   4.263   1.740   2.395
 2667TIP3    H2 7955   4.206   1.659   2.510
 2668TIP3   OH2 7956   4.470   1.983   3.217
 2668TIP3    H1 7957   4.495   2.035   3.297
 2668TIP3    H2 7958   4.522   1.902   3.228
 2669TIP3   OH2 7959   4.342   1.387   2.512
 2669TIP3    H1 7960   4.335   1.466   2.570
 2669TIP3    H2 7961   4.404   1.421   2.443
 2670TIP3   OH2 7962   3.760   2.679   2.068
 2670TIP3    H1 7963   3.729   2.748   2.005
 2670TIP3    H2 7964   3.743   2.722   2.154
 2671TIP3   OH2 7965   3.857   1.394   2.304
 2671TIP3    H1 7966   3.855   1.484   2.340
 2671TIP3    H2 7967   3.953   1.376   2.311
 2672TIP3   OH2 7968   5.112   1.886   3.195
 2672TIP3    H1 7969   5.015   1.889   3.209
 2672TIP3    H2 7970   5.114   1.830   3.116
 2673TIP3   OH2 7971   4.762   2.078   2.589
 2673TIP3    H1 7972   4.685   2.019   2.598
 2673TIP3    H2 7973   4.832   2.029   2.636
 2674TIP3   OH2 7974   3.481   2.307   2.060
 2674TIP3    H1 7975   3.557   2.369   2.064
 2674TIP3    H2 7976   3.515   2.248   1.989
 2675TIP3   OH2 7977   3.416   1.582   2.193
 2675TIP3    H1 7978   3.422   1.679   2.191
 2675TIP3    H2 7979   3.337   1.567   2.139
 2676TIP3   OH2 7980   4.732   3.037   2.538
 2676TIP3    H1 7981   4.687   3.085   2.465
 2676TIP3    H2 7982   4.826   3.054   2.514
 2677TIP3   OH2 7983   3.807   1.304   3.062
 2677TIP3    H1 7984   3.777   1.270   2.976
 2677TIP3    H2 7985   3.796   1.226   3.120
 2678TIP3   OH2 7986   3.251   2.515   2.376
 2678TIP3    H1 7987   3.238   2.539   2.471
 2678TIP3    H2 7988   3.339   2.553   2.363
 2679TIP3   OH2 7989   3.509   3.067   3.511
 2679TIP3    H1 7990   3.594   3.066   3.559
 2679TIP3    H2 7991   3.485   2.973   3.512
 2680TIP3   OH2 7992   3.988   3.022   3.563
 2680TIP3    H1 7993   4.081   2.997   3.561
 2680TIP3    H2 7994   3.953   2.965   3.491
 2681TIP3   OH2 7995   3.968   2.605   1.687
 2681TIP3    H1 7996   3.911   2.534   1.726
 2681TIP3    H2 7997   4.042   2.552   1.653
 2682TIP3   OH2 7998   4.621   2.937   3.297
 2682TIP3    H1 7999   4.613   2.867   3.365
 2682TIP3    H2 8000   4.699   2.988   3.328
 2683TIP3   OH2 8001   3.633   2.471   3.718
 2683TIP3    H1 8002   3.647   2.375   3.723
 2683TIP3    H2 8003   3.546   2.475   3.671
 2684TIP3   OH2 8004   3.613   2.122   1.914
 2684TIP3    H1 8005   3.671   2.094   1.987
 2684TIP3    H2 8006   3.678   2.127   1.841
 2685TIP3   OH2 8007   4.239   2.559   3.490
 2685TIP3    H1 8008   4.195   2.579   3.405
 2685TIP3    H2 8009   4.267   2.465   3.479
 2686TIP3   OH2 8010   4.116   2.318   1.719
 2686TIP3    H1 8011   4.123   2.330   1.815
 2686TIP3    H2 8012   4.121   2.220   1.712
 2687TIP3   OH2 8013   4.734   2.566   3.100
 2687TIP3    H1 8014   4.806   2.613   3.054
 2687TIP3    H2 8015   4.660   2.628   3.085
 2688TIP3   OH2 8016   3.752   2.207   3.702
 2688TIP3    H1 8017   3.829   2.156   3.674
 2688TIP3    H2 8018   3.781   2.241   3.789
 2689TIP3   OH2 8019   3.819   2.026   2.132
 2689TIP3    H1 8020   3.789   1.984   2.214
 2689TIP3    H2 8021   3.855   1.950   2.082
 2690TIP3   OH2 8022   4.090   2.092   3.363
 2690TIP3    H1 8023   4.009   2.147   3.361
 2690TIP3    H2 8024   4.141   2.127   3.286
 2691TIP3   OH2 8025   3.920   1.820   1.972
 2691TIP3    H1 8026   3.895   1.829   1.878
 2691TIP3    H2 8027   4.018   1.822   1.965
 2692TIP3   OH2 8028   4.607   2.493   3.496
 2692TIP3    H1 8029   4.680   2.457   3.444
 2692TIP3    H2 8030   4.598   2.426   3.566
 2693TIP3   OH2 8031   4.742   2.152   1.637
 2693TIP3    H1 8032   4.719   2.108   1.553
 2693TIP3    H2 8033   4.705   2.242   1.619
 2694TIP3   OH2 8034   4.213   1.880   3.483
 2694TIP3    H1 8035   4.211   1.801   3.425
 2694TIP3    H2 8036   4.167   1.947   3.427
 2695TIP3   OH2 8037   4.214   1.665   3.295
 2695TIP3    H1 8038   4.241   1.707   3.211
 2695TIP3    H2 8039   4.120   1.643   3.276
 2696TIP3   OH2 8040   4.237   2.201   3.169
 2696TIP3    H1 8041   4.321   2.212   3.123
 2696TIP3    H2 8042   4.179   2.264   3.123
 2697TIP3   OH2 8043   4.819   2.164   3.546
 2697TIP3    H1 8044   4.867   2.081   3.559
 2697TIP3    H2 8045   4.888   2.223   3.512
 2698TIP3   OH2 8046   4.862   2.421   3.288
 2698TIP3    H1 8047   4.803   2.474   3.228
 2698TIP3    H2 8048   4.949   2.441   3.246
 2699TIP3   OH2 8049   4.092   1.984   3.721
 2699TIP3    H1 8050   4.023   1.917   3.735
 2699TIP3    H2 8051   4.123   1.962   3.631
 2700TIP3   OH2 8052   4.345   1.427   3.364
 2700TIP3    H1 8053   4.295   1.508   3.340
 2700TIP3    H2 8054   4.277   1.357   3.352
 2701TIP3   OH2 8055   4.471   1.929   3.578
 2701TIP3    H1 8056   4.454   1.914   3.673
 2701TIP3    H2 8057   4.382   1.906   3.543
 2702TIP3   OH2 8058   4.710   1.882   3.434
 2702TIP3    H1 8059   4.635   1.883   3.497
 2702TIP3    H2 8060   4.784   1.851   3.490
 2703TIP3   OH2 8061   4.943   1.824   3.581
 2703TIP3    H1 8062   4.954   1.727   3.597
 2703TIP3    H2 8063   4.937   1.860   3.672
 2704TIP3   OH2 8064   3.928   1.766   3.772
 2704TIP3    H1 8065   3.931   1.674   3.740
 2704TIP3    H2 8066   3.965   1.755   3.862
 2705TIP3   OH2 8067   4.439   1.437   3.621
 2705TIP3    H1 8068   4.505   1.364   3.614
 2705TIP3    H2 8069   4.399   1.433   3.532
 2706TIP3   OH2 8070   4.507   1.653   3.779
 2706TIP3    H1 8071   4.485   1.581   3.715
 2706TIP3    H2 8072   4.428   1.710   3.772
 2707TIP3   OH2 8073   3.730   2.882   1.880
 2707TIP3    H1 8074   3.825   2.873   1.859
 2707TIP3    H2 8075   3.699   2.931   1.802
 2708TIP3   OH2 8076   3.215   2.264   2.122
 2708TIP3    H1 8077   3.303   2.288   2.085
 2708TIP3    H2 8078   3.193   2.186   2.067
 2709TIP3   OH2 8079   3.118   2.880   2.518
 2709TIP3    H1 8080   3.055   2.822   2.472
 2709TIP3    H2 8081   3.161   2.814   2.576
 2710TIP3   OH2 8082   4.990   3.119   2.495
 2710TIP3    H1 8083   5.011   3.154   2.584
 2710TIP3    H2 8084   5.047   3.172   2.439
 2711TIP3   OH2 8085   5.011   3.145   2.777
 2711TIP3    H1 8086   4.965   3.058   2.772
 2711TIP3    H2 8087   5.084   3.122   2.836
 2712TIP3   OH2 8088   5.062   2.823   3.351
 2712TIP3    H1 8089   4.988   2.832   3.416
 2712TIP3    H2 8090   5.103   2.912   3.355
 2713TIP3   OH2 8091   4.875   2.332   1.971
 2713TIP3    H1 8092   4.938   2.399   1.939
 2713TIP3    H2 8093   4.922   2.296   2.049
 2714TIP3   OH2 8094   5.006   2.204   2.177
 2714TIP3    H1 8095   4.936   2.160   2.232
 2714TIP3    H2 8096   5.065   2.241   2.245
 2715TIP3   OH2 8097   5.069   2.601   2.612
 2715TIP3    H1 8098   5.109   2.530   2.558
 2715TIP3    H2 8099   5.057   2.672   2.546
 2716TIP3   OH2 8100   4.888   2.896   2.801
 2716TIP3    H1 8101   4.816   2.940   2.851
 2716TIP3    H2 8102   4.839   2.852   2.729
 2717TIP3   OH2 8103   4.942   2.111   1.818
 2717TIP3    H1 8104   4.871   2.112   1.750
 2717TIP3    H2 8105   4.911   2.186   1.874
 2718TIP3   OH2 8106   4.814   1.784   1.774
 2718TIP3    H1 8107   4.766   1.819   1.698
 2718TIP3    H2 8108   4.791   1.688   1.766
 2719TIP3   OH2 8109   4.818   2.061   2.319
 2719TIP3    H1 8110   4.824   1.965   2.309
 2719TIP3    H2 8111   4.803   2.071   2.416
 2720TIP3   OH2 8112   3.442   2.127   3.070
 2720TIP3    H1 8113   3.439   2.098   2.976
 2720TIP3    H2 8114   3.540   2.131   3.084
 2721TIP3   OH2 8115   5.107   2.484   3.179
 2721TIP3    H1 8116   5.178   2.419   3.162
 2721TIP3    H2 8117   5.124   2.552   3.111
 2722TIP3   OH2 8118   5.305   2.291   3.184
 2722TIP3    H1 8119   5.224   2.247   3.219
 2722TIP3    H2 8120   5.371   2.220   3.204
 2723TIP3   OH2 8121   4.756   1.518   1.756
 2723TIP3    H1 8122   4.832   1.489   1.811
 2723TIP3    H2 8123   4.686   1.456   1.782
 2724TIP3   OH2 8124   4.816   1.777   2.213
 2724TIP3    H1 8125   4.855   1.688   2.229
 2724TIP3    H2 8126   4.873   1.807   2.141
 2725TIP3   OH2 8127   4.975   1.947   2.711
 2725TIP3    H1 8128   5.060   1.972   2.669
 2725TIP3    H2 8129   4.989   1.985   2.799
 2726TIP3   OH2 8130   5.049   2.099   2.938
 2726TIP3    H1 8131   4.969   2.128   2.987
 2726TIP3    H2 8132   5.079   2.183   2.899
 2727TIP3   OH2 8133   3.661   1.818   3.741
 2727TIP3    H1 8134   3.759   1.812   3.744
 2727TIP3    H2 8135   3.638   1.731   3.780
 2728TIP3   OH2 8136   5.495   1.687   3.494
 2728TIP3    H1 8137   5.556   1.623   3.454
 2728TIP3    H2 8138   5.466   1.740   3.416
 2729TIP3   OH2 8139   4.923   1.528   2.252
 2729TIP3    H1 8140   4.971   1.508   2.336
 2729TIP3    H2 8141   4.863   1.451   2.248
 2730TIP3   OH2 8142   3.622   1.512   3.072
 2730TIP3    H1 8143   3.684   1.437   3.080
 2730TIP3    H2 8144   3.684   1.587   3.063
 2731TIP3   OH2 8145   3.424   1.784   3.144
 2731TIP3    H1 8146   3.474   1.783   3.060
 2731TIP3    H2 8147   3.447   1.871   3.179
 2732TIP3   OH2 8148   5.365   1.825   3.297
 2732TIP3    H1 8149   5.280   1.867   3.318
 2732TIP3    H2 8150   5.333   1.750   3.242
 2733TIP3   OH2 8151   5.002   1.467   1.881
 2733TIP3    H1 8152   5.038   1.389   1.834
 2733TIP3    H2 8153   5.077   1.530   1.877
 2734TIP3   OH2 8154   3.409   1.284   2.643
 2734TIP3    H1 8155   3.317   1.283   2.673
 2734TIP3    H2 8156   3.405   1.346   2.567
 2735TIP3   OH2 8157   4.581   2.986   2.157
 2735TIP3    H1 8158   4.609   2.976   2.064
 2735TIP3    H2 8159   4.636   3.058   2.188
 2736TIP3   OH2 8160   3.630   1.368   3.458
 2736TIP3    H1 8161   3.578   1.364   3.541
 2736TIP3    H2 8162   3.564   1.407   3.397
 2737TIP3   OH2 8163   3.671   2.794   3.537
 2737TIP3    H1 8164   3.578   2.773   3.517
 2737TIP3    H2 8165   3.673   2.780   3.633
 2738TIP3   OH2 8166   3.850   2.832   3.088
 2738TIP3    H1 8167   3.795   2.903   3.047
 2738TIP3    H2 8168   3.933   2.851   3.040
 2739TIP3   OH2 8169   4.292   3.070   3.223
 2739TIP3    H1 8170   4.333   3.075   3.312
 2739TIP3    H2 8171   4.355   3.124   3.170
 2740TIP3   OH2 8172   4.468   3.227   3.085
 2740TIP3    H1 8173   4.537   3.178   3.039
 2740TIP3    H2 8174   4.521   3.285   3.144
 2741TIP3   OH2 8175   5.264   1.587   3.182
 2741TIP3    H1 8176   5.175   1.576   3.145
 2741TIP3    H2 8177   5.299   1.495   3.172
 2742TIP3   OH2 8178   3.531   3.098   3.111
 2742TIP3    H1 8179   3.440   3.120   3.082
 2742TIP3    H2 8180   3.531   3.140   3.198
 2743TIP3   OH2 8181   3.762   3.066   2.967
 2743TIP3    H1 8182   3.676   3.078   3.013
 2743TIP3    H2 8183   3.739   3.094   2.877
 2744TIP3   OH2 8184   4.185   3.091   2.765
 2744TIP3    H1 8185   4.114   3.108   2.700
 2744TIP3    H2 8186   4.195   3.180   2.805
 2745TIP3   OH2 8187   4.454   3.032   2.819
 2745TIP3    H1 8188   4.359   3.048   2.799
 2745TIP3    H2 8189   4.496   3.105   2.772
 2746TIP3   OH2 8190   4.664   3.223   2.730
 2746TIP3    H1 8191   4.647   3.307   2.682
 2746TIP3    H2 8192   4.688   3.162   2.657
 2747TIP3   OH2 8193   3.442   2.897   2.863
 2747TIP3    H1 8194   3.468   2.859   2.950
 2747TIP3    H2 8195   3.475   2.827   2.804
 2748TIP3   OH2 8196   3.630   2.745   2.700
 2748TIP3    H1 8197   3.638   2.668   2.761
 2748TIP3    H2 8198   3.718   2.787   2.709
 2749TIP3   OH2 8199   3.899   2.847   2.714
 2749TIP3    H1 8200   3.926   2.754   2.704
 2749TIP3    H2 8201   3.941   2.867   2.799
 2750TIP3   OH2 8202   4.472   1.502   2.802
 2750TIP3    H1 8203   4.429   1.430   2.851
 2750TIP3    H2 8204   4.545   1.456   2.757
 2751TIP3   OH2 8205   4.991   1.395   2.715
 2751TIP3    H1 8206   5.028   1.434   2.634
 2751TIP3    H2 8207   4.895   1.399   2.698
 2752TIP3   OH2 8208   5.086   1.480   2.473
 2752TIP3    H1 8209   5.157   1.427   2.429
 2752TIP3    H2 8210   5.121   1.571   2.455
 2753TIP3   OH2 8211   3.718   1.210   2.814
 2753TIP3    H1 8212   3.626   1.178   2.819
 2753TIP3    H2 8213   3.766   1.125   2.810
 2754TIP3   OH2 8214   3.507   1.081   2.464
 2754TIP3    H1 8215   3.536   1.138   2.391
 2754TIP3    H2 8216   3.479   1.148   2.531
 2755TIP3   OH2 8217   4.165   1.240   2.698
 2755TIP3    H1 8218   4.219   1.287   2.633
 2755TIP3    H2 8219   4.190   1.284   2.781
 2756TIP3   OH2 8220   4.707   1.390   2.677
 2756TIP3    H1 8221   4.716   1.348   2.591
 2756TIP3    H2 8222   4.694   1.311   2.736
 2757TIP3   OH2 8223   4.745   1.317   2.248
 2757TIP3    H1 8224   4.655   1.353   2.259
 2757TIP3    H2 8225   4.735   1.230   2.291
 2758TIP3   OH2 8226   3.625   1.236   2.229
 2758TIP3    H1 8227   3.672   1.176   2.169
 2758TIP3    H2 8228   3.698   1.292   2.263
 2759TIP3   OH2 8229   4.134   1.417   2.326
 2759TIP3    H1 8230   4.196   1.371   2.386
 2759TIP3    H2 8231   4.156   1.509   2.350
 2760TIP3   OH2 8232   4.001   2.838   1.828
 2760TIP3    H1 8233   4.079   2.878   1.788
 2760TIP3    H2 8234   3.984   2.764   1.766
 2761TIP3   OH2 8235   4.695   2.961   1.903
 2761TIP3    H1 8236   4.710   2.864   1.903
 2761TIP3    H2 8237   4.628   2.966   1.832
 2762TIP3   OH2 8238   3.926   1.492   3.707
 2762TIP3    H1 8239   3.889   1.422   3.763
 2762TIP3    H2 8240   4.020   1.491   3.737
 2763TIP3   OH2 8241   4.176   1.489   3.827
 2763TIP3    H1 8242   4.261   1.463   3.787
 2763TIP3    H2 8243   4.163   1.419   3.894
 2764TIP3   OH2 8244   3.313   2.696   1.887
 2764TIP3    H1 8245   3.318   2.722   1.979
 2764TIP3    H2 8246   3.395   2.645   1.872
 2765TIP3   OH2 8247   5.003   1.552   3.613
 2765TIP3    H1 8248   5.020   1.521   3.705
 2765TIP3    H2 8249   5.093   1.546   3.573
 2766TIP3   OH2 8250   4.938   3.102   3.105
 2766TIP3    H1 8251   4.860   3.071   3.054
 2766TIP3    H2 8252   4.918   3.197   3.110
 2767TIP3   OH2 8253   6.207   2.473   1.872
 2767TIP3    H1 8254   6.176   2.564   1.853
 2767TIP3    H2 8255   6.133   2.422   1.835
 2768TIP3   OH2 8256   6.197   2.479   2.259
 2768TIP3    H1 8257   6.236   2.456   2.345
 2768TIP3    H2 8258   6.165   2.392   2.228
 2769TIP3   OH2 8259   5.523   2.391   2.640
 2769TIP3    H1 8260   5.546   2.315   2.698
 2769TIP3    H2 8261   5.602   2.396   2.582
 2770TIP3   OH2 8262   6.450   2.780   1.937
 2770TIP3    H1 8263   6.437   2.709   2.002
 2770TIP3    H2 8264   6.483   2.853   1.993
 2771TIP3   OH2 8265   5.484   2.783   2.350
 2771TIP3    H1 8266   5.474   2.685   2.347
 2771TIP3    H2 8267   5.579   2.791   2.330
 2772TIP3   OH2 8268   5.183   1.985   2.126
 2772TIP3    H1 8269   5.130   2.065   2.141
 2772TIP3    H2 8270   5.117   1.927   2.084
 2773TIP3   OH2 8271   5.245   2.273   2.306
 2773TIP3    H1 8272   5.293   2.192   2.336
 2773TIP3    H2 8273   5.290   2.292   2.223
 2774TIP3   OH2 8274   6.092   3.236   1.950
 2774TIP3    H1 8275   6.142   3.167   1.901
 2774TIP3    H2 8276   6.096   3.201   2.040
 2775TIP3   OH2 8277   6.003   2.701   2.307
 2775TIP3    H1 8278   6.045   2.622   2.268
 2775TIP3    H2 8279   6.086   2.748   2.332
 2776TIP3   OH2 8280   7.008   2.015   2.314
 2776TIP3    H1 8281   7.034   2.104   2.346
 2776TIP3    H2 8282   7.036   2.018   2.220
 2777TIP3   OH2 8283   6.414   2.203   2.332
 2777TIP3    H1 8284   6.460   2.119   2.354
 2777TIP3    H2 8285   6.384   2.183   2.241
 2778TIP3   OH2 8286   5.756   1.862   2.297
 2778TIP3    H1 8287   5.737   1.934   2.233
 2778TIP3    H2 8288   5.710   1.787   2.253
 2779TIP3   OH2 8289   6.452   1.957   1.920
 2779TIP3    H1 8290   6.523   1.940   1.985
 2779TIP3    H2 8291   6.505   1.989   1.844
 2780TIP3   OH2 8292   5.390   2.062   2.406
 2780TIP3    H1 8293   5.472   2.039   2.452
 2780TIP3    H2 8294   5.401   2.007   2.325
 2781TIP3   OH2 8295   5.823   2.259   2.215
 2781TIP3    H1 8296   5.919   2.238   2.219
 2781TIP3    H2 8297   5.787   2.177   2.175
 2782TIP3   OH2 8298   7.077   2.230   2.470
 2782TIP3    H1 8299   6.994   2.279   2.454
 2782TIP3    H2 8300   7.109   2.274   2.552
 2783TIP3   OH2 8301   5.752   1.846   2.733
 2783TIP3    H1 8302   5.691   1.879   2.664
 2783TIP3    H2 8303   5.698   1.860   2.813
 2784TIP3   OH2 8304   6.090   2.691   1.746
 2784TIP3    H1 8305   6.062   2.676   1.655
 2784TIP3    H2 8306   6.050   2.778   1.765
 2785TIP3   OH2 8307   5.854   2.622   2.527
 2785TIP3    H1 8308   5.797   2.691   2.565
 2785TIP3    H2 8309   5.900   2.670   2.455
 2786TIP3   OH2 8310   6.659   1.959   2.096
 2786TIP3    H1 8311   6.645   1.914   2.180
 2786TIP3    H2 8312   6.709   2.038   2.123
 2787TIP3   OH2 8313   5.623   1.959   2.516
 2787TIP3    H1 8314   5.688   2.029   2.541
 2787TIP3    H2 8315   5.671   1.918   2.440
 2788TIP3   OH2 8316   5.670   2.817   2.641
 2788TIP3    H1 8317   5.657   2.905   2.598
 2788TIP3    H2 8318   5.579   2.792   2.662
 2789TIP3   OH2 8319   5.076   2.505   1.859
 2789TIP3    H1 8320   5.031   2.531   1.777
 2789TIP3    H2 8321   5.106   2.591   1.894
 2790TIP3   OH2 8322   6.516   3.024   2.101
 2790TIP3    H1 8323   6.427   3.013   2.140
 2790TIP3    H2 8324   6.507   3.110   2.056
 2791TIP3   OH2 8325   6.805   1.913   2.468
 2791TIP3    H1 8326   6.721   1.947   2.433
 2791TIP3    H2 8327   6.870   1.949   2.404
 2792TIP3   OH2 8328   6.105   1.562   2.448
 2792TIP3    H1 8329   6.089   1.467   2.465
 2792TIP3    H2 8330   6.028   1.601   2.495
 2793TIP3   OH2 8331   6.221   3.066   1.778
 2793TIP3    H1 8332   6.269   2.982   1.757
 2793TIP3    H2 8333   6.283   3.130   1.737
 2794TIP3   OH2 8334   6.358   2.850   1.687
 2794TIP3    H1 8335   6.344   2.768   1.637
 2794TIP3    H2 8336   6.396   2.816   1.771
 2795TIP3   OH2 8337   6.744   2.934   2.445
 2795TIP3    H1 8338   6.732   2.854   2.390
 2795TIP3    H2 8339   6.728   3.005   2.381
 2796TIP3   OH2 8340   6.037   2.330   1.703
 2796TIP3    H1 8341   5.958   2.380   1.675
 2796TIP3    H2 8342   6.085   2.319   1.619
 2797TIP3   OH2 8343   5.995   2.113   1.421
 2797TIP3    H1 8344   6.065   2.166   1.462
 2797TIP3    H2 8345   6.050   2.049   1.371
 2798TIP3   OH2 8346   6.936   2.568   2.286
 2798TIP3    H1 8347   6.855   2.622   2.298
 2798TIP3    H2 8348   6.961   2.593   2.195
 2799TIP3   OH2 8349   6.386   2.412   1.673
 2799TIP3    H1 8350   6.332   2.432   1.752
 2799TIP3    H2 8351   6.470   2.385   1.715
 2800TIP3   OH2 8352   6.613   2.431   2.574
 2800TIP3    H1 8353   6.628   2.508   2.635
 2800TIP3    H2 8354   6.529   2.458   2.533
 2801TIP3   OH2 8355   5.618   2.409   2.092
 2801TIP3    H1 8356   5.574   2.350   2.026
 2801TIP3    H2 8357   5.691   2.352   2.124
 2802TIP3   OH2 8358   5.745   2.812   2.243
 2802TIP3    H1 8359   5.729   2.778   2.154
 2802TIP3    H2 8360   5.835   2.778   2.262
 2803TIP3   OH2 8361   5.735   2.380   2.454
 2803TIP3    H1 8362   5.772   2.349   2.368
 2803TIP3    H2 8363   5.785   2.464   2.469
 2804TIP3   OH2 8364   6.275   3.016   2.223
 2804TIP3    H1 8365   6.265   3.096   2.278
 2804TIP3    H2 8366   6.260   2.943   2.286
 2805TIP3   OH2 8367   5.891   2.941   2.761
 2805TIP3    H1 8368   5.836   3.002   2.815
 2805TIP3    H2 8369   5.823   2.883   2.725
 2806TIP3   OH2 8370   6.219   2.273   1.500
 2806TIP3    H1 8371   6.282   2.330   1.549
 2806TIP3    H2 8372   6.247   2.291   1.407
 2807TIP3   OH2 8373   5.977   2.943   1.771
 2807TIP3    H1 8374   6.060   2.992   1.784
 2807TIP3    H2 8375   5.909   3.007   1.792
 2808TIP3   OH2 8376   5.686   3.105   2.857
 2808TIP3    H1 8377   5.654   3.111   2.765
 2808TIP3    H2 8378   5.604   3.083   2.907
 2809TIP3   OH2 8379   6.725   1.523   1.560
 2809TIP3    H1 8380   6.643   1.545   1.609
 2809TIP3    H2 8381   6.740   1.605   1.509
 2810TIP3   OH2 8382   5.480   2.253   1.902
 2810TIP3    H1 8383   5.412   2.293   1.844
 2810TIP3    H2 8384   5.451   2.161   1.905
 2811TIP3   OH2 8385   6.541   2.875   1.101
 2811TIP3    H1 8386   6.550   2.971   1.083
 2811TIP3    H2 8387   6.633   2.844   1.088
 2812TIP3   OH2 8388   5.270   2.631   2.797
 2812TIP3    H1 8389   5.200   2.640   2.729
 2812TIP3    H2 8390   5.279   2.535   2.797
 2813TIP3   OH2 8391   5.115   2.827   2.438
 2813TIP3    H1 8392   5.210   2.831   2.422
 2813TIP3    H2 8393   5.099   2.911   2.484
 2814TIP3   OH2 8394   6.984   3.281   2.490
 2814TIP3    H1 8395   6.985   3.185   2.506
 2814TIP3    H2 8396   6.901   3.305   2.537
 2815TIP3   OH2 8397   6.089   3.067   2.624
 2815TIP3    H1 8398   6.084   3.158   2.661
 2815TIP3    H2 8399   6.018   3.022   2.676
 2816TIP3   OH2 8400   5.288   3.040   1.962
 2816TIP3    H1 8401   5.334   3.030   2.049
 2816TIP3    H2 8402   5.239   2.956   1.958
 2817TIP3   OH2 8403   6.049   3.095   1.213
 2817TIP3    H1 8404   6.108   3.023   1.182
 2817TIP3    H2 8405   6.072   3.102   1.307
 2818TIP3   OH2 8406   6.096   3.144   1.496
 2818TIP3    H1 8407   6.025   3.100   1.544
 2818TIP3    H2 8408   6.174   3.117   1.547
 2819TIP3   OH2 8409   6.883   2.409   2.769
 2819TIP3    H1 8410   6.794   2.434   2.742
 2819TIP3    H2 8411   6.886   2.313   2.751
 2820TIP3   OH2 8412   5.868   1.638   2.578
 2820TIP3    H1 8413   5.780   1.608   2.547
 2820TIP3    H2 8414   5.841   1.719   2.625
 2821TIP3   OH2 8415   6.403   1.754   2.770
 2821TIP3    H1 8416   6.473   1.727   2.834
 2821TIP3    H2 8417   6.321   1.735   2.819
 2822TIP3   OH2 8418   6.638   2.180   2.688
 2822TIP3    H1 8419   6.587   2.183   2.772
 2822TIP3    H2 8420   6.619   2.268   2.649
 2823TIP3   OH2 8421   6.303   2.318   1.249
 2823TIP3    H1 8422   6.264   2.291   1.164
 2823TIP3    H2 8423   6.389   2.355   1.219
 2824TIP3   OH2 8424   6.011   1.688   1.550
 2824TIP3    H1 8425   5.974   1.680   1.640
 2824TIP3    H2 8426   5.974   1.607   1.510
 2825TIP3   OH2 8427   5.801   2.157   2.598
 2825TIP3    H1 8428   5.763   2.187   2.683
 2825TIP3    H2 8429   5.784   2.235   2.542
 2826TIP3   OH2 8430   5.682   2.044   2.110
 2826TIP3    H1 8431   5.590   2.015   2.127
 2826TIP3    H2 8432   5.696   2.004   2.021
 2827TIP3   OH2 8433   6.175   2.128   1.839
 2827TIP3    H1 8434   6.125   2.199   1.793
 2827TIP3    H2 8435   6.230   2.093   1.767
 2828TIP3   OH2 8436   6.348   2.408   2.919
 2828TIP3    H1 8437   6.339   2.335   2.984
 2828TIP3    H2 8438   6.436   2.441   2.943
 2829TIP3   OH2 8439   6.328   2.154   2.075
 2829TIP3    H1 8440   6.267   2.181   2.003
 2829TIP3    H2 8441   6.366   2.075   2.031
 2830TIP3   OH2 8442   5.610   2.184   2.813
 2830TIP3    H1 8443   5.682   2.211   2.872
 2830TIP3    H2 8444   5.589   2.095   2.846
 2831TIP3   OH2 8445   5.668   1.665   1.513
 2831TIP3    H1 8446   5.657   1.662   1.610
 2831TIP3    H2 8447   5.589   1.716   1.487
 2832TIP3   OH2 8448   5.209   1.706   2.389
 2832TIP3    H1 8449   5.290   1.734   2.435
 2832TIP3    H2 8450   5.241   1.672   2.303
 2833TIP3   OH2 8451   5.184   1.687   1.905
 2833TIP3    H1 8452   5.228   1.723   1.825
 2833TIP3    H2 8453   5.120   1.759   1.921
 2834TIP3   OH2 8454   6.320   2.398   2.493
 2834TIP3    H1 8455   6.364   2.330   2.436
 2834TIP3    H2 8456   6.305   2.344   2.574
 2835TIP3   OH2 8457   6.015   1.866   2.170
 2835TIP3    H1 8458   5.934   1.863   2.225
 2835TIP3    H2 8459   6.085   1.858   2.237
 2836TIP3   OH2 8460   5.445   1.920   2.178
 2836TIP3    H1 8461   5.351   1.927   2.149
 2836TIP3    H2 8462   5.467   1.828   2.156
 2837TIP3   OH2 8463   5.710   1.918   1.868
 2837TIP3    H1 8464   5.805   1.928   1.845
 2837TIP3    H2 8465   5.664   1.938   1.783
 2838TIP3   OH2 8466   6.502   1.941   2.373
 2838TIP3    H1 8467   6.470   1.954   2.465
 2838TIP3    H2 8468   6.435   1.880   2.339
 2839TIP3   OH2 8469   5.558   1.955   1.645
 2839TIP3    H1 8470   5.489   1.906   1.598
 2839TIP3    H2 8471   5.611   1.989   1.569
 2840TIP3   OH2 8472   6.675   3.631   2.593
 2840TIP3    H1 8473   6.674   3.654   2.498
 2840TIP3    H2 8474   6.756   3.676   2.623
 2841TIP3   OH2 8475   6.092   2.193   2.266
 2841TIP3    H1 8476   6.165   2.157   2.213
 2841TIP3    H2 8477   6.104   2.147   2.351
 2842TIP3   OH2 8478   5.616   1.678   2.149
 2842TIP3    H1 8479   5.578   1.601   2.197
 2842TIP3    H2 8480   5.658   1.635   2.073
 2843TIP3   OH2 8481   6.072   2.087   2.560
 2843TIP3    H1 8482   5.983   2.126   2.571
 2843TIP3    H2 8483   6.131   2.150   2.607
 2844TIP3   OH2 8484   5.796   2.488   1.647
 2844TIP3    H1 8485   5.735   2.412   1.642
 2844TIP3    H2 8486   5.784   2.516   1.741
 2845TIP3   OH2 8487   6.705   2.717   2.281
 2845TIP3    H1 8488   6.728   2.769   2.200
 2845TIP3    H2 8489   6.622   2.673   2.254
 2846TIP3   OH2 8490   6.264   1.786   1.530
 2846TIP3    H1 8491   6.168   1.766   1.529
 2846TIP3    H2 8492   6.267   1.883   1.541
 2847TIP3   OH2 8493   6.192   2.790   2.658
 2847TIP3    H1 8494   6.262   2.782   2.725
 2847TIP3    H2 8495   6.170   2.884   2.661
 2848TIP3   OH2 8496   6.332   2.045   1.624
 2848TIP3    H1 8497   6.429   2.047   1.636
 2848TIP3    H2 8498   6.315   2.121   1.566
 2849TIP3   OH2 8499   5.501   2.507   2.321
 2849TIP3    H1 8500   5.532   2.483   2.231
 2849TIP3    H2 8501   5.550   2.444   2.374
 2850TIP3   OH2 8502   5.948   2.639   1.476
 2850TIP3    H1 8503   5.914   2.729   1.492
 2850TIP3    H2 8504   5.892   2.584   1.535
 2851TIP3   OH2 8505   5.379   2.410   2.963
 2851TIP3    H1 8506   5.356   2.362   3.046
 2851TIP3    H2 8507   5.320   2.362   2.902
 2852TIP3   OH2 8508   6.108   2.529   2.948
 2852TIP3    H1 8509   6.086   2.492   2.860
 2852TIP3    H2 8510   6.203   2.507   2.948
 2853TIP3   OH2 8511   6.362   3.067   2.552
 2853TIP3    H1 8512   6.265   3.064   2.562
 2853TIP3    H2 8513   6.388   3.111   2.635
 2854TIP3   OH2 8514   6.776   2.132   1.450
 2854TIP3    H1 8515   6.711   2.089   1.390
 2854TIP3    H2 8516   6.771   2.222   1.412
 2855TIP3   OH2 8517   6.994   2.998   2.530
 2855TIP3    H1 8518   6.896   2.987   2.526
 2855TIP3    H2 8519   7.018   2.963   2.441
 2856TIP3   OH2 8520   6.475   2.949   1.364
 2856TIP3    H1 8521   6.452   2.874   1.420
 2856TIP3    H2 8522   6.490   2.907   1.277
 2857TIP3   OH2 8523   6.472   2.581   2.194
 2857TIP3    H1 8524   6.378   2.557   2.208
 2857TIP3    H2 8525   6.505   2.499   2.152
 2858TIP3   OH2 8526   5.599   2.808   1.952
 2858TIP3    H1 8527   5.590   2.891   1.901
 2858TIP3    H2 8528   5.506   2.787   1.969
 2859TIP3   OH2 8529   5.165   2.110   1.658
 2859TIP3    H1 8530   5.209   2.195   1.681
 2859TIP3    H2 8531   5.087   2.112   1.718
 2860TIP3   OH2 8532   5.732   2.571   1.894
 2860TIP3    H1 8533   5.698   2.660   1.917
 2860TIP3    H2 8534   5.701   2.518   1.970
 2861TIP3   OH2 8535   5.871   3.149   2.422
 2861TIP3    H1 8536   5.914   3.222   2.372
 2861TIP3    H2 8537   5.947   3.112   2.469
 2862TIP3   OH2 8538   5.528   3.041   1.817
 2862TIP3    H1 8539   5.438   3.053   1.852
 2862TIP3    H2 8540   5.557   3.133   1.806
 2863TIP3   OH2 8541   6.254   2.784   2.386
 2863TIP3    H1 8542   6.243   2.776   2.483
 2863TIP3    H2 8543   6.339   2.740   2.373
 2864TIP3   OH2 8544   6.237   2.679   1.266
 2864TIP3    H1 8545   6.290   2.653   1.345
 2864TIP3    H2 8546   6.150   2.644   1.291
 2865TIP3   OH2 8547   6.503   3.317   2.433
 2865TIP3    H1 8548   6.424   3.260   2.425
 2865TIP3    H2 8549   6.489   3.380   2.359
 2866TIP3   OH2 8550   6.571   3.149   1.083
 2866TIP3    H1 8551   6.605   3.216   1.022
 2866TIP3    H2 8552   6.493   3.196   1.117
 2867TIP3   OH2 8553   5.586   1.929   2.943
 2867TIP3    H1 8554   5.489   1.930   2.958
 2867TIP3    H2 8555   5.615   1.872   3.017
 2868TIP3   OH2 8556   6.395   2.618   1.487
 2868TIP3    H1 8557   6.384   2.546   1.553
 2868TIP3    H2 8558   6.491   2.610   1.469
 2869TIP3   OH2 8559   5.298   3.021   2.572
 2869TIP3    H1 8560   5.348   2.945   2.603
 2869TIP3    H2 8561   5.329   3.092   2.629
 2870TIP3   OH2 8562   5.588   2.655   1.262
 2870TIP3    H1 8563   5.605   2.564   1.232
 2870TIP3    H2 8564   5.576   2.643   1.358
 2871TIP3   OH2 8565   5.565   2.677   1.546
 2871TIP3    H1 8566   5.618   2.604   1.583
 2871TIP3    H2 8567   5.558   2.737   1.621
 2872TIP3   OH2 8568   5.277   2.355   1.740
 2872TIP3    H1 8569   5.208   2.398   1.796
 2872TIP3    H2 8570   5.287   2.423   1.671
 2873TIP3   OH2 8571   6.427   1.994   2.633
 2873TIP3    H1 8572   6.509   2.034   2.669
 2873TIP3    H2 8573   6.418   1.913   2.688
 2874TIP3   OH2 8574   6.306   1.741   1.803
 2874TIP3    H1 8575   6.292   1.759   1.708
 2874TIP3    H2 8576   6.346   1.825   1.834
 2875TIP3   OH2 8577   5.816   2.891   1.465
 2875TIP3    H1 8578   5.728   2.856   1.483
 2875TIP3    H2 8579   5.816   2.896   1.367
 2876TIP3   OH2 8580   5.995   1.926   1.900
 2876TIP3    H1 8581   6.060   1.997   1.882
 2876TIP3    H2 8582   6.002   1.916   1.997
 2877TIP3   OH2 8583   6.265   2.240   2.708
 2877TIP3    H1 8584   6.295   2.292   2.786
 2877TIP3    H2 8585   6.321   2.160   2.715
 2878TIP3   OH2 8586   6.138   1.645   2.000
 2878TIP3    H1 8587   6.133   1.723   2.057
 2878TIP3    H2 8588   6.200   1.677   1.930
 2879TIP3   OH2 8589   5.652   1.650   1.791
 2879TIP3    H1 8590   5.652   1.740   1.829
 2879TIP3    H2 8591   5.748   1.630   1.797
 2880TIP3   OH2 8592   6.904   2.137   2.692
 2880TIP3    H1 8593   6.806   2.132   2.695
 2880TIP3    H2 8594   6.921   2.110   2.600
 2881TIP3   OH2 8595   6.557   2.337   2.075
 2881TIP3    H1 8596   6.482   2.276   2.087
 2881TIP3    H2 8597   6.629   2.290   2.123
 2882TIP3   OH2 8598   5.277   2.559   1.544
 2882TIP3    H1 8599   5.340   2.632   1.542
 2882TIP3    H2 8600   5.318   2.498   1.478
 2883TIP3   OH2 8601   5.213   1.840   1.680
 2883TIP3    H1 8602   5.213   1.938   1.677
 2883TIP3    H2 8603   5.135   1.818   1.629
 2884TIP3   OH2 8604   6.526   3.294   2.023
 2884TIP3    H1 8605   6.484   3.342   1.947
 2884TIP3    H2 8606   6.621   3.310   2.002
 2885TIP3   OH2 8607   5.601   1.560   2.549
 2885TIP3    H1 8608   5.572   1.525   2.462
 2885TIP3    H2 8609   5.591   1.482   2.607
 2886TIP3   OH2 8610   5.140   2.785   1.927
 2886TIP3    H1 8611   5.073   2.806   1.994
 2886TIP3    H2 8612   5.099   2.825   1.846
 2887TIP3   OH2 8613   5.301   3.321   3.007
 2887TIP3    H1 8614   5.389   3.320   3.051
 2887TIP3    H2 8615   5.282   3.226   3.002
 2888TIP3   OH2 8616   5.777   3.285   3.047
 2888TIP3    H1 8617   5.871   3.268   3.061
 2888TIP3    H2 8618   5.757   3.221   2.975
 2889TIP3   OH2 8619   5.765   2.858   1.198
 2889TIP3    H1 8620   5.710   2.778   1.212
 2889TIP3    H2 8621   5.843   2.821   1.152
 2890TIP3   OH2 8622   6.419   3.175   2.810
 2890TIP3    H1 8623   6.454   3.098   2.858
 2890TIP3    H2 8624   6.491   3.239   2.821
 2891TIP3   OH2 8625   6.195   2.895   1.086
 2891TIP3    H1 8626   6.241   2.834   1.146
 2891TIP3    H2 8627   6.251   2.895   1.006
 2892TIP3   OH2 8628   5.436   2.731   3.181
 2892TIP3    H1 8629   5.436   2.658   3.243
 2892TIP3    H2 8630   5.343   2.735   3.149
 2893TIP3   OH2 8631   5.410   2.378   1.399
 2893TIP3    H1 8632   5.463   2.334   1.467
 2893TIP3    H2 8633   5.475   2.380   1.325
 2894TIP3   OH2 8634   6.025   2.812   2.978
 2894TIP3    H1 8635   6.007   2.832   2.885
 2894TIP3    H2 8636   6.072   2.726   2.972
 2895TIP3   OH2 8637   5.913   2.575   1.207
 2895TIP3    H1 8638   5.921   2.586   1.303
 2895TIP3    H2 8639   5.921   2.478   1.198
 2896TIP3   OH2 8640   6.513   2.825   2.571
 2896TIP3    H1 8641   6.602   2.852   2.544
 2896TIP3    H2 8642   6.463   2.907   2.558
 2897TIP3   OH2 8643   5.596   2.475   3.154
 2897TIP3    H1 8644   5.640   2.390   3.170
 2897TIP3    H2 8645   5.604   2.516   3.244
 2898TIP3   OH2 8646   5.617   2.282   1.620
 2898TIP3    H1 8647   5.587   2.235   1.699
 2898TIP3    H2 8648   5.655   2.209   1.567
 2899TIP3   OH2 8649   5.870   2.335   2.837
 2899TIP3    H1 8650   5.889   2.410   2.895
 2899TIP3    H2 8651   5.927   2.359   2.760
 2900TIP3   OH2 8652   5.716   2.081   1.458
 2900TIP3    H1 8653   5.693   2.082   1.363
 2900TIP3    H2 8654   5.814   2.077   1.453
 2901TIP3   OH2 8655   6.534   2.405   1.127
 2901TIP3    H1 8656   6.517   2.360   1.041
 2901TIP3    H2 8657   6.501   2.495   1.104
 2902TIP3   OH2 8658   6.001   2.132   2.974
 2902TIP3    H1 8659   6.012   2.050   2.921
 2902TIP3    H2 8660   5.962   2.192   2.908
 2903TIP3   OH2 8661   6.010   1.923   2.785
 2903TIP3    H1 8662   6.041   1.961   2.701
 2903TIP3    H2 8663   5.918   1.899   2.762
 2904TIP3   OH2 8664   6.037   2.456   2.666
 2904TIP3    H1 8665   6.122   2.455   2.620
 2904TIP3    H2 8666   5.987   2.522   2.613
 2905TIP3   OH2 8667   6.607   2.424   3.030
 2905TIP3    H1 8668   6.676   2.356   3.035
 2905TIP3    H2 8669   6.653   2.498   2.989
 2906TIP3   OH2 8670   6.668   2.630   2.744
 2906TIP3    H1 8671   6.601   2.700   2.751
 2906TIP3    H2 8672   6.747   2.683   2.720
 2907TIP3   OH2 8673   5.867   2.250   3.191
 2907TIP3    H1 8674   5.811   2.173   3.215
 2907TIP3    H2 8675   5.915   2.214   3.113
 2908TIP3   OH2 8676   6.141   1.683   2.851
 2908TIP3    H1 8677   6.091   1.764   2.827
 2908TIP3    H2 8678   6.073   1.614   2.838
 2909TIP3   OH2 8679   6.273   2.185   3.065
 2909TIP3    H1 8680   6.269   2.176   3.161
 2909TIP3    H2 8681   6.181   2.161   3.040
 2910TIP3   OH2 8682   6.505   2.132   2.917
 2910TIP3    H1 8683   6.432   2.140   2.982
 2910TIP3    H2 8684   6.581   2.109   2.973
 2911TIP3   OH2 8685   6.736   2.081   3.070
 2911TIP3    H1 8686   6.747   1.985   3.087
 2911TIP3    H2 8687   6.730   2.118   3.160
 2912TIP3   OH2 8688   5.727   2.022   3.260
 2912TIP3    H1 8689   5.730   1.930   3.227
 2912TIP3    H2 8690   5.765   2.011   3.349
 2913TIP3   OH2 8691   6.233   1.691   3.109
 2913TIP3    H1 8692   6.301   1.621   3.101
 2913TIP3    H2 8693   6.194   1.688   3.019
 2914TIP3   OH2 8694   6.298   1.905   3.269
 2914TIP3    H1 8695   6.280   1.835   3.203
 2914TIP3    H2 8696   6.221   1.964   3.259
 2915TIP3   OH2 8697   5.005   2.521   1.578
 2915TIP3    H1 8698   5.101   2.537   1.564
 2915TIP3    H2 8699   4.995   2.431   1.539
 2916TIP3   OH2 8700   4.910   3.128   1.991
 2916TIP3    H1 8701   4.847   3.066   1.948
 2916TIP3    H2 8702   4.957   3.068   2.053
 2917TIP3   OH2 8703   5.050   2.982   2.180
 2917TIP3    H1 8704   5.033   2.911   2.244
 2917TIP3    H2 8705   5.104   3.042   2.234
 2918TIP3   OH2 8706   6.783   3.378   1.985
 2918TIP3    H1 8707   6.806   3.412   2.073
 2918TIP3    H2 8708   6.842   3.428   1.926
 2919TIP3   OH2 8709   6.810   3.402   2.265
 2919TIP3    H1 8710   6.764   3.315   2.260
 2919TIP3    H2 8711   6.881   3.378   2.328
 2920TIP3   OH2 8712   6.853   3.079   2.837
 2920TIP3    H1 8713   6.783   3.081   2.905
 2920TIP3    H2 8714   6.895   3.167   2.848
 2921TIP3   OH2 8715   6.670   2.594   1.457
 2921TIP3    H1 8716   6.738   2.657   1.425
 2921TIP3    H2 8717   6.715   2.555   1.535
 2922TIP3   OH2 8718   6.795   2.460   1.660
 2922TIP3    H1 8719   6.730   2.417   1.720
 2922TIP3    H2 8720   6.859   2.499   1.722
 2923TIP3   OH2 8721   6.850   2.858   2.091
 2923TIP3    H1 8722   6.901   2.785   2.049
 2923TIP3    H2 8723   6.850   2.926   2.022
 2924TIP3   OH2 8724   6.684   3.155   2.283
 2924TIP3    H1 8725   6.612   3.190   2.338
 2924TIP3    H2 8726   6.635   3.106   2.213
 2925TIP3   OH2 8727   6.735   2.366   1.310
 2925TIP3    H1 8728   6.666   2.367   1.240
 2925TIP3    H2 8729   6.705   2.443   1.362
 2926TIP3   OH2 8730   6.612   2.042   1.257
 2926TIP3    H1 8731   6.568   2.074   1.178
 2926TIP3    H2 8732   6.584   1.947   1.255
 2927TIP3   OH2 8733   6.612   2.317   1.806
 2927TIP3    H1 8734   6.620   2.221   1.798
 2927TIP3    H2 8735   6.598   2.329   1.903
 2928TIP3   OH2 8736   5.249   2.384   2.560
 2928TIP3    H1 8737   5.244   2.352   2.467
 2928TIP3    H2 8738   5.345   2.402   2.568
 2929TIP3   OH2 8739   6.901   2.750   2.660
 2929TIP3    H1 8740   6.975   2.686   2.655
 2929TIP3    H2 8741   6.934   2.823   2.605
 2930TIP3   OH2 8742   7.091   2.560   2.690
 2930TIP3    H1 8743   7.013   2.511   2.722
 2930TIP3    H2 8744   7.157   2.488   2.697
 2931TIP3   OH2 8745   6.545   1.782   1.250
 2931TIP3    H1 8746   6.614   1.738   1.302
 2931TIP3    H2 8747   6.470   1.719   1.255
 2932TIP3   OH2 8748   6.612   2.033   1.700
 2932TIP3    H1 8749   6.652   1.945   1.715
 2932TIP3    H2 8750   6.669   2.065   1.628
 2933TIP3   OH2 8751   6.767   2.204   2.196
 2933TIP3    H1 8752   6.853   2.230   2.156
 2933TIP3    H2 8753   6.781   2.242   2.285
 2934TIP3   OH2 8754   6.840   2.350   2.425
 2934TIP3    H1 8755   6.762   2.382   2.474
 2934TIP3    H2 8756   6.872   2.432   2.382
 2935TIP3   OH2 8757   5.463   2.080   3.238
 2935TIP3    H1 8758   5.560   2.069   3.238
 2935TIP3    H2 8759   5.436   1.992   3.269
 2936TIP3   OH2 8760   7.299   1.944   2.974
 2936TIP3    H1 8761   7.348   1.882   2.919
 2936TIP3    H2 8762   7.256   2.001   2.907
 2937TIP3   OH2 8763   6.719   1.784   1.739
 2937TIP3    H1 8764   6.764   1.770   1.825
 2937TIP3    H2 8765   6.655   1.710   1.741
 2938TIP3   OH2 8766   5.419   1.769   2.564
 2938TIP3    H1 8767   5.478   1.691   2.568
 2938TIP3    H2 8768   5.484   1.841   2.551
 2939TIP3   OH2 8769   5.220   2.044   2.631
 2939TIP3    H1 8770   5.267   2.029   2.547
 2939TIP3    H2 8771   5.253   2.132   2.655
 2940TIP3   OH2 8772   7.157   2.078   2.792
 2940TIP3    H1 8773   7.074   2.124   2.817
 2940TIP3    H2 8774   7.119   2.014   2.728
 2941TIP3   OH2 8775   6.794   1.721   1.380
 2941TIP3    H1 8776   6.829   1.649   1.323
 2941TIP3    H2 8777   6.857   1.793   1.364
 2942TIP3   OH2 8778   5.207   1.561   2.142
 2942TIP3    H1 8779   5.114   1.541   2.161
 2942TIP3    H2 8780   5.201   1.611   2.058
 2943TIP3   OH2 8781   6.362   3.250   1.637
 2943TIP3    H1 8782   6.415   3.240   1.555
 2943TIP3    H2 8783   6.415   3.315   1.686
 2944TIP3   OH2 8784   5.427   1.628   2.948
 2944TIP3    H1 8785   5.373   1.621   3.029
 2944TIP3    H2 8786   5.361   1.664   2.885
 2945TIP3   OH2 8787   5.462   3.047   3.008
 2945TIP3    H1 8788   5.367   3.028   3.010
 2945TIP3    H2 8789   5.491   3.021   3.096
 2946TIP3   OH2 8790   5.643   3.085   2.569
 2946TIP3    H1 8791   5.596   3.161   2.528
 2946TIP3    H2 8792   5.730   3.100   2.528
 2947TIP3   OH2 8793   6.085   3.333   2.710
 2947TIP3    H1 8794   6.128   3.330   2.798
 2947TIP3    H2 8795   6.151   3.383   2.658
 2948TIP3   OH2 8796   6.266   3.483   2.570
 2948TIP3    H1 8797   6.337   3.435   2.525
 2948TIP3    H2 8798   6.319   3.540   2.630
 2949TIP3   OH2 8799   7.049   1.837   2.676
 2949TIP3    H1 8800   6.961   1.828   2.637
 2949TIP3    H2 8801   7.085   1.745   2.663
 2950TIP3   OH2 8802   5.318   3.342   2.600
 2950TIP3    H1 8803   5.228   3.371   2.575
 2950TIP3    H2 8804   5.332   3.398   2.678
 2951TIP3   OH2 8805   5.554   3.318   2.454
 2951TIP3    H1 8806   5.467   3.333   2.498
 2951TIP3    H2 8807   5.536   3.352   2.364
 2952TIP3   OH2 8808   5.980   3.348   2.252
 2952TIP3    H1 8809   5.911   3.368   2.186
 2952TIP3    H2 8810   5.993   3.436   2.293
 2953TIP3   OH2 8811   6.251   3.287   2.303
 2953TIP3    H1 8812   6.157   3.307   2.283
 2953TIP3    H2 8813   6.297   3.361   2.261
 2954TIP3   OH2 8814   6.454   3.478   2.216
 2954TIP3    H1 8815   6.442   3.562   2.168
 2954TIP3    H2 8816   6.483   3.418   2.144
 2955TIP3   OH2 8817   5.231   3.140   2.333
 2955TIP3    H1 8818   5.254   3.114   2.424
 2955TIP3    H2 8819   5.303   3.095   2.284
 2956TIP3   OH2 8820   5.426   3.006   2.199
 2956TIP3    H1 8821   5.444   2.925   2.252
 2956TIP3    H2 8822   5.517   3.044   2.193
 2957TIP3   OH2 8823   5.693   3.100   2.204
 2957TIP3    H1 8824   5.725   3.009   2.192
 2957TIP3    H2 8825   5.741   3.124   2.285
 2958TIP3   OH2 8826   6.264   1.758   2.288
 2958TIP3    H1 8827   6.224   1.686   2.338
 2958TIP3    H2 8828   6.340   1.714   2.244
 2959TIP3   OH2 8829   6.785   1.635   2.191
 2959TIP3    H1 8830   6.823   1.691   2.120
 2959TIP3    H2 8831   6.691   1.657   2.187
 2960TIP3   OH2 8832   6.878   1.745   1.960
 2960TIP3    H1 8833   6.951   1.696   1.916
 2960TIP3    H2 8834   6.906   1.837   1.941
 2961TIP3   OH2 8835   5.514   1.467   2.302
 2961TIP3    H1 8836   5.420   1.436   2.306
 2961TIP3    H2 8837   5.559   1.380   2.297
 2962TIP3   OH2 8838   5.295   1.339   1.946
 2962TIP3    H1 8839   5.330   1.396   1.875
 2962TIP3    H2 8840   5.275   1.404   2.016
 2963TIP3   OH2 8841   5.962   1.497   2.185
 2963TIP3    H1 8842   6.016   1.543   2.119
 2963TIP3    H2 8843   5.989   1.540   2.267
 2964TIP3   OH2 8844   6.500   1.648   2.166
 2964TIP3    H1 8845   6.503   1.608   2.078
 2964TIP3    H2 8846   6.489   1.568   2.223
 2965TIP3   OH2 8847   6.528   1.577   1.742
 2965TIP3    H1 8848   6.439   1.617   1.752
 2965TIP3    H2 8849   6.513   1.488   1.781
 2966TIP3   OH2 8850   5.019   2.913   1.723
 2966TIP3    H1 8851   4.932   2.881   1.690
 2966TIP3    H2 8852   5.014   3.005   1.692
 2967TIP3   OH2 8853   5.421   1.497   1.711
 2967TIP3    H1 8854   5.467   1.431   1.655
 2967TIP3    H2 8855   5.496   1.548   1.746
 2968TIP3   OH2 8856   5.928   1.674   1.814
 2968TIP3    H1 8857   5.990   1.624   1.871
 2968TIP3    H2 8858   5.954   1.766   1.838
 2969TIP3   OH2 8859   6.509   3.216   1.407
 2969TIP3    H1 8860   6.502   3.118   1.395
 2969TIP3    H2 8861   6.466   3.247   1.325
 2970TIP3   OH2 8862   5.722   1.751   3.195
 2970TIP3    H1 8863   5.685   1.679   3.250
 2970TIP3    H2 8864   5.816   1.748   3.223
 2971TIP3   OH2 8865   5.972   1.745   3.313
 2971TIP3    H1 8866   6.058   1.723   3.273
 2971TIP3    H2 8867   5.962   1.673   3.378
 2972TIP3   OH2 8868   5.100   2.940   1.367
 2972TIP3    H1 8869   5.069   2.958   1.457
 2972TIP3    H2 8870   5.179   2.886   1.381
 2973TIP3   OH2 8871   6.796   1.807   3.101
 2973TIP3    H1 8872   6.816   1.777   3.193
 2973TIP3    H2 8873   6.885   1.805   3.060
 2974TIP3   OH2 8874   6.737   3.361   2.588
 2974TIP3    H1 8875   6.657   3.330   2.541
 2974TIP3    H2 8876   6.715   3.456   2.599
 2975TIP3   OH2 8877   7.289   2.639   2.074
 2975TIP3    H1 8878   7.294   2.561   2.133
 2975TIP3    H2 8879   7.347   2.699   2.122
 2976TIP3   OH2 8880   7.275   3.035   1.817
 2976TIP3    H1 8881   7.271   2.938   1.802
 2976TIP3    H2 8882   7.308   3.039   1.909
 2977TIP3   OH2 8883   6.974   2.239   1.611
 2977TIP3    H1 8884   6.924   2.321   1.625
 2977TIP3    H2 8885   6.906   2.186   1.565
 2978TIP3   OH2 8886   7.025   2.536   1.784
 2978TIP3    H1 8887   7.069   2.456   1.819
 2978TIP3    H2 8888   7.081   2.558   1.708
 2979TIP3   OH2 8889   7.163   2.328   1.891
 2979TIP3    H1 8890   7.243   2.324   1.948
 2979TIP3    H2 8891   7.190   2.269   1.818
 2980TIP3   OH2 8892   7.392   3.067   2.055
 2980TIP3    H1 8893   7.401   3.164   2.064
 2980TIP3    H2 8894   7.342   3.048   2.138
 2981TIP3   OH2 8895   6.873   2.764   1.349
 2981TIP3    H1 8896   6.834   2.789   1.263
 2981TIP3    H2 8897   6.906   2.850   1.382
 2982TIP3   OH2 8898   7.397   2.788   2.330
 2982TIP3    H1 8899   7.416   2.863   2.391
 2982TIP3    H2 8900   7.317   2.752   2.374
 2983TIP3   OH2 8901   7.491   3.369   2.371
 2983TIP3    H1 8902   7.471   3.356   2.276
 2983TIP3    H2 8903   7.406   3.339   2.412
 2984TIP3   OH2 8904   7.055   2.901   2.282
 2984TIP3    H1 8905   6.984   2.873   2.221
 2984TIP3    H2 8906   7.084   2.816   2.323
 2985TIP3   OH2 8907   6.910   3.087   1.918
 2985TIP3    H1 8908   7.007   3.085   1.918
 2985TIP3    H2 8909   6.892   3.164   1.974
 2986TIP3   OH2 8910   7.072   3.299   1.462
 2986TIP3    H1 8911   7.125   3.287   1.544
 2986TIP3    H2 8912   7.021   3.216   1.461
 2987TIP3   OH2 8913   7.256   3.084   2.286
 2987TIP3    H1 8914   7.311   3.067   2.365
 2987TIP3    H2 8915   7.186   3.017   2.295
 2988TIP3   OH2 8916   7.292   2.480   2.323
 2988TIP3    H1 8917   7.386   2.505   2.324
 2988TIP3    H2 8918   7.295   2.391   2.364
 2989TIP3   OH2 8919   6.993   1.966   1.855
 2989TIP3    H1 8920   7.049   1.993   1.930
 2989TIP3    H2 8921   7.055   1.931   1.791
 2990TIP3   OH2 8922   6.975   1.947   1.380
 2990TIP3    H1 8923   7.050   1.998   1.341
 2990TIP3    H2 8924   6.912   2.019   1.399
 2991TIP3   OH2 8925   7.235   2.184   1.665
 2991TIP3    H1 8926   7.141   2.200   1.639
 2991TIP3    H2 8927   7.247   2.092   1.642
 2992TIP3   OH2 8928   7.432   3.000   2.503
 2992TIP3    H1 8929   7.516   2.983   2.549
 2992TIP3    H2 8930   7.369   2.999   2.578
 2993TIP3   OH2 8931   7.295   2.758   1.812
 2993TIP3    H1 8932   7.372   2.710   1.776
 2993TIP3    H2 8933   7.285   2.714   1.898
 2994TIP3   OH2 8934   7.153   2.706   2.442
 2994TIP3    H1 8935   7.180   2.682   2.533
 2994TIP3    H2 8936   7.130   2.618   2.407
 2995TIP3   OH2 8937   7.310   3.043   1.439
 2995TIP3    H1 8938   7.349   3.104   1.374
 2995TIP3    H2 8939   7.217   3.042   1.412
 2996TIP3   OH2 8940   6.960   2.353   1.148
 2996TIP3    H1 8941   7.013   2.434   1.167
 2996TIP3    H2 8942   6.887   2.363   1.212
 2997TIP3   OH2 8943   7.287   3.319   1.286
 2997TIP3    H1 8944   7.206   3.322   1.341
 2997TIP3    H2 8945   7.318   3.413   1.292
 2998TIP3   OH2 8946   7.342   2.221   2.408
 2998TIP3    H1 8947   7.247   2.200   2.422
 2998TIP3    H2 8948   7.382   2.178   2.484
 2999TIP3   OH2 8949   7.113   3.264   2.067
 2999TIP3    H1 8950   7.152   3.193   2.121
 2999TIP3    H2 8951   7.119   3.339   2.127
 3000TIP3   OH2 8952   7.070   2.600   1.231
 3000TIP3    H1 8953   7.004   2.652   1.281
 3000TIP3    H2 8954   7.102   2.666   1.167
 3001TIP3   OH2 8955   7.285   3.215   1.022
 3001TIP3    H1 8956   7.322   3.283   0.965
 3001TIP3    H2 8957   7.294   3.254   1.111
 3002TIP3   OH2 8958   7.073   2.830   1.033
 3002TIP3    H1 8959   7.115   2.912   1.061
 3002TIP3    H2 8960   7.141   2.792   0.976
 3003TIP3   OH2 8961   6.946   2.086   1.070
 3003TIP3    H1 8962   6.964   2.174   1.108
 3003TIP3    H2 8963   6.889   2.047   1.137
 3004TIP3   OH2 8964   6.938   3.038   1.412
 3004TIP3    H1 8965   6.873   3.060   1.480
 3004TIP3    H2 8966   6.900   3.081   1.332
 3005TIP3   OH2 8967   7.094   3.579   2.491
 3005TIP3    H1 8968   7.179   3.580   2.539
 3005TIP3    H2 8969   7.073   3.484   2.491
 3006TIP3   OH2 8970   7.574   3.552   2.552
 3006TIP3    H1 8971   7.609   3.499   2.625
 3006TIP3    H2 8972   7.531   3.484   2.495
 3007TIP3   OH2 8973   7.225   2.991   2.688
 3007TIP3    H1 8974   7.234   2.896   2.706
 3007TIP3    H2 8975   7.136   2.993   2.647
 3008TIP3   OH2 8976   7.358   2.727   2.657
 3008TIP3    H1 8977   7.351   2.636   2.689
 3008TIP3    H2 8978   7.387   2.771   2.740
 3009TIP3   OH2 8979   6.801   2.777   1.070
 3009TIP3    H1 8980   6.895   2.796   1.053
 3009TIP3    H2 8981   6.792   2.688   1.030
 3010TIP3   OH2 8982   6.714   3.388   1.485
 3010TIP3    H1 8983   6.649   3.327   1.443
 3010TIP3    H2 8984   6.759   3.327   1.547
 3011TIP3   OH2 8985   6.848   3.233   1.671
 3011TIP3    H1 8986   6.835   3.163   1.738
 3011TIP3    H2 8987   6.900   3.297   1.723
 3012TIP3   OH2 8988   7.019   2.652   2.033
 3012TIP3    H1 8989   7.012   2.617   1.941
 3012TIP3    H2 8990   7.116   2.651   2.045
 3013TIP3   OH2 8991   7.223   2.322   2.684
 3013TIP3    H1 8992   7.320   2.326   2.681
 3013TIP3    H2 8993   7.208   2.241   2.736
 3014TIP3   OH2 8994   7.153   2.005   2.079
 3014TIP3    H1 8995   7.211   1.942   2.126
 3014TIP3    H2 8996   7.217   2.074   2.059
 3015TIP3   OH2 8997   7.010   2.302   2.121
 3015TIP3    H1 8998   7.052   2.306   2.033
 3015TIP3    H2 8999   7.054   2.373   2.168
 3016TIP3   OH2 9000   7.007   1.795   1.603
 3016TIP3    H1 9001   6.922   1.790   1.651
 3016TIP3    H2 9002   6.985   1.858   1.531
 3017TIP3   OH2 9003   7.230   1.937   2.488
 3017TIP3    H1 9004   7.166   1.896   2.550
 3017TIP3    H2 9005   7.173   1.950   2.410
 3018TIP3   OH2 9006   7.263   3.315   2.518
 3018TIP3    H1 9007   7.174   3.285   2.493
 3018TIP3    H2 9008   7.267   3.286   2.611
 3019TIP3   OH2 9009   7.438   3.335   2.086
 3019TIP3    H1 9010   7.379   3.406   2.058
 3019TIP3    H2 9011   7.506   3.344   2.016
 3020TIP3   OH2 9012   7.115   3.597   2.089
 3020TIP3    H1 9013   7.025   3.628   2.063
 3020TIP3    H2 9014   7.128   3.651   2.168
 3021TIP3   OH2 9015   7.347   3.567   1.942
 3021TIP3    H1 9016   7.262   3.578   1.990
 3021TIP3    H2 9017   7.325   3.614   1.858
 3022TIP3   OH2 9018   7.028   3.391   1.825
 3022TIP3    H1 9019   7.055   3.364   1.915
 3022TIP3    H2 9020   7.099   3.347   1.773
 3023TIP3   OH2 9021   7.226   3.266   1.688
 3023TIP3    H1 9022   7.239   3.174   1.724
 3023TIP3    H2 9023   7.314   3.303   1.700
 3024TIP3   OH2 9024   7.075   1.586   1.430
 3024TIP3    H1 9025   7.115   1.657   1.378
 3024TIP3    H2 9026   7.038   1.638   1.505
 3025TIP3   OH2 9027   6.813   3.170   1.216
 3025TIP3    H1 9028   6.728   3.137   1.182
 3025TIP3    H2 9029   6.806   3.263   1.187
 3026TIP3   OH2 9030   6.874   3.184   0.867
 3026TIP3    H1 9031   6.879   3.226   0.954
 3026TIP3    H2 9032   6.967   3.157   0.852
 3027TIP3   OH2 9033   0.456   3.522   3.046
 3027TIP3    H1 9034   0.424   3.612   3.024
 3027TIP3    H2 9035   0.380   3.470   3.015
 3028TIP3   OH2 9036   0.457   3.520   3.432
 3028TIP3    H1 9037   0.491   3.495   3.520
 3028TIP3    H2 9038   0.414   3.438   3.403
 3029TIP3   OH2 9039  -0.239   3.416   3.749
 3029TIP3    H1 9040  -0.238   3.352   3.822
 3029TIP3    H2 9041  -0.169   3.477   3.777
 3030TIP3   OH2 9042   0.703   3.820   3.113
 3030TIP3    H1 9043   0.679   3.754   3.180
 3030TIP3    H2 9044   0.726   3.897   3.168
 3031TIP3   OH2 9045  -0.217   3.814   3.563
 3031TIP3    H1 9046  -0.195   3.719   3.551
 3031TIP3    H2 9047  -0.139   3.854   3.520
 3032TIP3   OH2 9048   0.352   4.287   3.130
 3032TIP3    H1 9049   0.395   4.216   3.077
 3032TIP3    H2 9050   0.339   4.242   3.214
 3033TIP3   OH2 9051   0.256   3.748   3.472
 3033TIP3    H1 9052   0.298   3.671   3.430
 3033TIP3    H2 9053   0.338   3.794   3.501
 3034TIP3   OH2 9054   1.267   3.065   3.477
 3034TIP3    H1 9055   1.297   3.148   3.520
 3034TIP3    H2 9056   1.293   3.080   3.385
 3035TIP3   OH2 9057   0.666   3.247   3.507
 3035TIP3    H1 9058   0.708   3.162   3.530
 3035TIP3    H2 9059   0.634   3.229   3.417
 3036TIP3   OH2 9060   0.010   2.914   3.476
 3036TIP3    H1 9061  -0.012   2.986   3.414
 3036TIP3    H2 9062  -0.041   2.840   3.436
 3037TIP3   OH2 9063   0.700   2.998   3.095
 3037TIP3    H1 9064   0.770   2.982   3.162
 3037TIP3    H2 9065   0.754   3.033   3.022
 3038TIP3   OH2 9066  -0.358   3.100   3.590
 3038TIP3    H1 9067  -0.276   3.082   3.638
 3038TIP3    H2 9068  -0.332   3.068   3.501
 3039TIP3   OH2 9069   0.081   3.307   3.363
 3039TIP3    H1 9070   0.174   3.279   3.380
 3039TIP3    H2 9071   0.040   3.222   3.336
 3040TIP3   OH2 9072   1.340   3.277   3.642
 3040TIP3    H1 9073   1.252   3.319   3.631
 3040TIP3    H2 9074   1.359   3.301   3.735
 3041TIP3   OH2 9075   0.005   2.880   3.901
 3041TIP3    H1 9076  -0.054   2.922   3.834
 3041TIP3    H2 9077  -0.047   2.901   3.982
 3042TIP3   OH2 9078   0.342   3.741   2.916
 3042TIP3    H1 9079   0.302   3.728   2.830
 3042TIP3    H2 9080   0.299   3.824   2.945
 3043TIP3   OH2 9081   0.127   3.655   3.689
 3043TIP3    H1 9082   0.075   3.725   3.734
 3043TIP3    H2 9083   0.164   3.703   3.612
 3044TIP3   OH2 9084   0.905   3.002   3.272
 3044TIP3    H1 9085   0.888   2.959   3.357
 3044TIP3    H2 9086   0.955   3.081   3.300
 3045TIP3   OH2 9087  -0.125   3.005   3.696
 3045TIP3    H1 9088  -0.062   3.077   3.722
 3045TIP3    H2 9089  -0.076   2.967   3.620
 3046TIP3   OH2 9090  -0.033   3.836   3.810
 3046TIP3    H1 9091  -0.062   3.913   3.757
 3046TIP3    H2 9092  -0.119   3.795   3.834
 3047TIP3   OH2 9093   0.770   4.066   3.276
 3047TIP3    H1 9094   0.681   4.057   3.318
 3047TIP3    H2 9095   0.759   4.152   3.230
 3048TIP3   OH2 9096   1.060   2.965   3.642
 3048TIP3    H1 9097   0.972   2.993   3.610
 3048TIP3    H2 9098   1.120   2.999   3.573
 3049TIP3   OH2 9099   0.352   2.607   3.620
 3049TIP3    H1 9100   0.339   2.513   3.643
 3049TIP3    H2 9101   0.277   2.647   3.669
 3050TIP3   OH2 9102   0.469   4.111   2.952
 3050TIP3    H1 9103   0.517   4.028   2.932
 3050TIP3    H2 9104   0.532   4.176   2.912
 3051TIP3   OH2 9105   0.612   3.896   2.864
 3051TIP3    H1 9106   0.574   3.817   2.823
 3051TIP3    H2 9107   0.651   3.859   2.946
 3052TIP3   OH2 9108   0.992   3.977   3.621
 3052TIP3    H1 9109   0.976   3.900   3.563
 3052TIP3    H2 9110   0.972   4.053   3.562
 3053TIP3   OH2 9111   0.287   3.370   2.882
 3053TIP3    H1 9112   0.207   3.423   2.863
 3053TIP3    H2 9113   0.332   3.370   2.796
 3054TIP3   OH2 9114   0.243   3.159   2.597
 3054TIP3    H1 9115   0.307   3.213   2.646
 3054TIP3    H2 9116   0.305   3.102   2.546
 3055TIP3   OH2 9117   1.182   3.618   3.475
 3055TIP3    H1 9118   1.104   3.677   3.483
 3055TIP3    H2 9119   1.176   3.594   3.381
 3056TIP3   OH2 9120   0.634   3.454   2.850
 3056TIP3    H1 9121   0.579   3.478   2.928
 3056TIP3    H2 9122   0.719   3.431   2.894
 3057TIP3   OH2 9123   0.866   3.492   3.767
 3057TIP3    H1 9124   0.865   3.574   3.820
 3057TIP3    H2 9125   0.780   3.498   3.722
 3058TIP3   OH2 9126  -0.130   3.442   3.248
 3058TIP3    H1 9127  -0.168   3.378   3.185
 3058TIP3    H2 9128  -0.052   3.393   3.282
 3059TIP3   OH2 9129   0.005   3.869   3.413
 3059TIP3    H1 9130  -0.019   3.839   3.323
 3059TIP3    H2 9131   0.092   3.826   3.427
 3060TIP3   OH2 9132   0.039   3.407   3.618
 3060TIP3    H1 9133   0.062   3.390   3.525
 3060TIP3    H2 9134   0.075   3.497   3.634
 3061TIP3   OH2 9135   0.532   4.060   3.401
 3061TIP3    H1 9136   0.518   4.140   3.455
 3061TIP3    H2 9137   0.512   3.988   3.464
 3062TIP3   OH2 9138   0.155   3.981   3.946
 3062TIP3    H1 9139   0.094   4.038   3.995
 3062TIP3    H2 9140   0.092   3.929   3.892
 3063TIP3   OH2 9141   0.472   3.313   2.677
 3063TIP3    H1 9142   0.531   3.374   2.727
 3063TIP3    H2 9143   0.499   3.333   2.584
 3064TIP3   OH2 9144  -0.111   3.502   4.070
 3064TIP3    H1 9145  -0.111   3.575   4.135
 3064TIP3    H2 9146  -0.207   3.488   4.053
 3065TIP3   OH2 9147   0.220   3.988   2.954
 3065TIP3    H1 9148   0.300   4.044   2.963
 3065TIP3    H2 9149   0.157   4.047   2.910
 3066TIP3   OH2 9150   0.988   2.551   2.728
 3066TIP3    H1 9151   0.906   2.572   2.777
 3066TIP3    H2 9152   1.002   2.634   2.678
 3067TIP3   OH2 9153  -0.274   3.288   3.058
 3067TIP3    H1 9154  -0.347   3.347   3.035
 3067TIP3    H2 9155  -0.321   3.216   3.103
 3068TIP3   OH2 9156   0.789   3.918   2.277
 3068TIP3    H1 9157   0.797   4.014   2.259
 3068TIP3    H2 9158   0.882   3.889   2.264
 3069TIP3   OH2 9159   1.231   4.323   3.672
 3069TIP3    H1 9160   1.229   4.227   3.691
 3069TIP3    H2 9161   1.147   4.351   3.717
 3070TIP3   OH2 9162   0.342   4.110   3.797
 3070TIP3    H1 9163   0.340   4.202   3.832
 3070TIP3    H2 9164   0.271   4.068   3.851
 3071TIP3   OH2 9165   0.100   4.236   2.756
 3071TIP3    H1 9166   0.052   4.225   2.672
 3071TIP3    H2 9167   0.075   4.327   2.783
 3072TIP3   OH2 9168   0.297   4.139   2.394
 3072TIP3    H1 9169   0.356   4.069   2.358
 3072TIP3    H2 9170   0.333   4.150   2.484
 3073TIP3   OH2 9171   0.351   4.187   2.663
 3073TIP3    H1 9172   0.262   4.197   2.703
 3073TIP3    H2 9173   0.400   4.147   2.736
 3074TIP3   OH2 9174   1.122   3.453   3.943
 3074TIP3    H1 9175   1.035   3.461   3.900
 3074TIP3    H2 9176   1.139   3.357   3.936
 3075TIP3   OH2 9177   0.122   2.681   3.751
 3075TIP3    H1 9178   0.033   2.649   3.724
 3075TIP3    H2 9179   0.093   2.762   3.800
 3076TIP3   OH2 9180   0.653   2.797   3.948
 3076TIP3    H1 9181   0.722   2.771   4.012
 3076TIP3    H2 9182   0.570   2.780   3.998
 3077TIP3   OH2 9183   0.886   3.229   3.867
 3077TIP3    H1 9184   0.836   3.225   3.951
 3077TIP3    H2 9185   0.862   3.317   3.832
 3078TIP3   OH2 9186   0.551   3.357   2.424
 3078TIP3    H1 9187   0.514   3.335   2.337
 3078TIP3    H2 9188   0.633   3.403   2.398
 3079TIP3   OH2 9189   0.245   2.733   2.714
 3079TIP3    H1 9190   0.225   2.729   2.810
 3079TIP3    H2 9191   0.220   2.642   2.688
 3080TIP3   OH2 9192   0.055   3.193   3.778
 3080TIP3    H1 9193  -0.002   3.217   3.854
 3080TIP3    H2 9194   0.048   3.274   3.723
 3081TIP3   OH2 9195  -0.065   3.089   3.282
 3081TIP3    H1 9196  -0.156   3.060   3.305
 3081TIP3    H2 9197  -0.055   3.045   3.195
 3082TIP3   OH2 9198   0.424   3.170   3.015
 3082TIP3    H1 9199   0.373   3.242   2.971
 3082TIP3    H2 9200   0.479   3.137   2.941
 3083TIP3   OH2 9201   0.598   3.448   4.097
 3083TIP3    H1 9202   0.576   3.376   4.161
 3083TIP3    H2 9203   0.691   3.464   4.121
 3084TIP3   OH2 9204   0.579   3.199   3.251
 3084TIP3    H1 9205   0.516   3.227   3.181
 3084TIP3    H2 9206   0.614   3.119   3.207
 3085TIP3   OH2 9207  -0.133   3.219   3.975
 3085TIP3    H1 9208  -0.113   3.289   4.039
 3085TIP3    H2 9209  -0.136   3.140   4.032
 3086TIP3   OH2 9210  -0.089   2.691   2.698
 3086TIP3    H1 9211  -0.093   2.713   2.793
 3086TIP3    H2 9212  -0.165   2.742   2.663
 3087TIP3   OH2 9213  -0.480   2.728   3.117
 3087TIP3    H1 9214  -0.469   2.750   3.024
 3087TIP3    H2 9215  -0.573   2.754   3.129
 3088TIP3   OH2 9216   0.590   3.445   3.673
 3088TIP3    H1 9217   0.624   3.374   3.614
 3088TIP3    H2 9218   0.561   3.390   3.750
 3089TIP3   OH2 9219   0.261   2.904   3.345
 3089TIP3    H1 9220   0.180   2.909   3.400
 3089TIP3    H2 9221   0.331   2.904   3.413
 3090TIP3   OH2 9222  -0.291   2.961   3.348
 3090TIP3    H1 9223  -0.380   2.960   3.310
 3090TIP3    H2 9224  -0.263   2.868   3.340
 3091TIP3   OH2 9225  -0.038   2.956   3.046
 3091TIP3    H1 9226   0.054   2.979   3.024
 3091TIP3    H2 9227  -0.088   2.981   2.964
 3092TIP3   OH2 9228   0.752   2.985   3.546
 3092TIP3    H1 9229   0.723   2.998   3.640
 3092TIP3    H2 9230   0.682   2.925   3.514
 3093TIP3   OH2 9231  -0.190   2.988   2.826
 3093TIP3    H1 9232  -0.270   2.948   2.790
 3093TIP3    H2 9233  -0.147   3.026   2.746
 3094TIP3   OH2 9234   0.924   4.675   3.768
 3094TIP3    H1 9235   0.925   4.697   3.673
 3094TIP3    H2 9236   1.008   4.718   3.798
 3095TIP3   OH2 9237  -0.113   3.742   4.229
 3095TIP3    H1 9238  -0.028   3.790   4.240
 3095TIP3    H2 9239  -0.142   3.744   4.321
 3096TIP3   OH2 9240   0.338   3.238   3.445
 3096TIP3    H1 9241   0.415   3.200   3.400
 3096TIP3    H2 9242   0.343   3.196   3.533
 3097TIP3   OH2 9243  -0.134   2.731   3.333
 3097TIP3    H1 9244  -0.179   2.652   3.373
 3097TIP3    H2 9245  -0.098   2.696   3.251
 3098TIP3   OH2 9246   0.322   3.139   3.729
 3098TIP3    H1 9247   0.231   3.168   3.749
 3098TIP3    H2 9248   0.377   3.199   3.782
 3099TIP3   OH2 9249   0.059   3.517   2.827
 3099TIP3    H1 9250  -0.017   3.457   2.815
 3099TIP3    H2 9251   0.039   3.555   2.916
 3100TIP3   OH2 9252   0.951   3.762   3.454
 3100TIP3    H1 9253   0.972   3.805   3.369
 3100TIP3    H2 9254   0.866   3.716   3.433
 3101TIP3   OH2 9255   0.509   2.830   2.699
 3101TIP3    H1 9256   0.411   2.819   2.698
 3101TIP3    H2 9257   0.520   2.926   2.715
 3102TIP3   OH2 9258   0.458   3.845   3.825
 3102TIP3    H1 9259   0.484   3.820   3.914
 3102TIP3    H2 9260   0.419   3.933   3.837
 3103TIP3   OH2 9261   0.581   3.084   2.796
 3103TIP3    H1 9262   0.677   3.092   2.812
 3103TIP3    H2 9263   0.561   3.164   2.744
 3104TIP3   OH2 9264  -0.180   3.555   3.497
 3104TIP3    H1 9265  -0.168   3.516   3.408
 3104TIP3    H2 9266  -0.155   3.481   3.555
 3105TIP3   OH2 9267   0.199   3.674   2.651
 3105TIP3    H1 9268   0.152   3.760   2.654
 3105TIP3    H2 9269   0.144   3.620   2.712
 3106TIP3   OH2 9270   0.357   3.582   4.137
 3106TIP3    H1 9271   0.295   3.518   4.096
 3106TIP3    H2 9272   0.443   3.546   4.108
 3107TIP3   OH2 9273   0.615   4.105   3.720
 3107TIP3    H1 9274   0.519   4.102   3.735
 3107TIP3    H2 9275   0.644   4.156   3.799
 3108TIP3   OH2 9276   1.027   3.173   2.629
 3108TIP3    H1 9277   0.963   3.131   2.567
 3108TIP3    H2 9278   1.023   3.264   2.591
 3109TIP3   OH2 9279   1.244   4.031   3.708
 3109TIP3    H1 9280   1.146   4.025   3.699
 3109TIP3    H2 9281   1.270   4.001   3.618
 3110TIP3   OH2 9282   0.728   3.993   2.541
 3110TIP3    H1 9283   0.698   3.922   2.598
 3110TIP3    H2 9284   0.740   3.949   2.455
 3111TIP3   OH2 9285   0.721   3.623   3.374
 3111TIP3    H1 9286   0.628   3.600   3.389
 3111TIP3    H2 9287   0.753   3.542   3.329
 3112TIP3   OH2 9288  -0.135   3.852   3.144
 3112TIP3    H1 9289  -0.162   3.925   3.085
 3112TIP3    H2 9290  -0.220   3.806   3.158
 3113TIP3   OH2 9291  -0.013   3.616   3.065
 3113TIP3    H1 9292  -0.037   3.708   3.090
 3113TIP3    H2 9293  -0.049   3.565   3.139
 3114TIP3   OH2 9294   0.141   4.204   3.586
 3114TIP3    H1 9295   0.181   4.275   3.532
 3114TIP3    H2 9296   0.218   4.170   3.634
 3115TIP3   OH2 9297  -0.235   4.073   2.988
 3115TIP3    H1 9298  -0.322   4.114   2.985
 3115TIP3    H2 9299  -0.179   4.152   3.004
 3116TIP3   OH2 9300   0.505   3.827   3.558
 3116TIP3    H1 9301   0.492   3.828   3.655
 3116TIP3    H2 9302   0.585   3.773   3.550
 3117TIP3   OH2 9303   0.483   3.722   2.442
 3117TIP3    H1 9304   0.536   3.696   2.520
 3117TIP3    H2 9305   0.394   3.697   2.471
 3118TIP3   OH2 9306   0.755   4.360   3.607
 3118TIP3    H1 9307   0.675   4.304   3.602
 3118TIP3    H2 9308   0.737   4.424   3.534
 3119TIP3   OH2 9309   0.820   4.193   2.260
 3119TIP3    H1 9310   0.857   4.264   2.204
 3119TIP3    H2 9311   0.740   4.240   2.293
 3120TIP3   OH2 9312  -0.137   2.960   4.121
 3120TIP3    H1 9313  -0.224   2.969   4.163
 3120TIP3    H2 9314  -0.087   2.923   4.196
 3121TIP3   OH2 9315   0.644   3.655   2.657
 3121TIP3    H1 9316   0.633   3.589   2.728
 3121TIP3    H2 9317   0.741   3.651   2.644
 3122TIP3   OH2 9318  -0.160   3.701   2.426
 3122TIP3    H1 9319  -0.139   3.608   2.406
 3122TIP3    H2 9320  -0.163   3.698   2.524
 3123TIP3   OH2 9321  -0.172   3.710   2.695
 3123TIP3    H1 9322  -0.131   3.681   2.778
 3123TIP3    H2 9323  -0.178   3.807   2.708
 3124TIP3   OH2 9324   0.683   3.032   3.806
 3124TIP3    H1 9325   0.759   3.074   3.849
 3124TIP3    H2 9326   0.668   2.953   3.862
 3125TIP3   OH2 9327   0.558   2.784   2.977
 3125TIP3    H1 9328   0.545   2.806   2.883
 3125TIP3    H2 9329   0.598   2.867   3.012
 3126TIP3   OH2 9330   0.067   3.910   2.660
 3126TIP3    H1 9331  -0.021   3.931   2.697
 3126TIP3    H2 9332   0.078   3.986   2.601
 3127TIP3   OH2 9333   0.243   2.971   3.076
 3127TIP3    H1 9334   0.308   3.043   3.060
 3127TIP3    H2 9335   0.250   2.961   3.174
 3128TIP3   OH2 9336   0.518   3.285   3.881
 3128TIP3    H1 9337   0.538   3.340   3.960
 3128TIP3    H2 9338   0.570   3.205   3.899
 3129TIP3   OH2 9339   0.389   2.688   3.175
 3129TIP3    H1 9340   0.386   2.763   3.238
 3129TIP3    H2 9341   0.452   2.724   3.108
 3130TIP3   OH2 9342  -0.192   3.978   2.726
 3130TIP3    H1 9343  -0.235   4.041   2.664
 3130TIP3    H2 9344  -0.217   4.015   2.813
 3131TIP3   OH2 9345  -0.083   2.695   2.986
 3131TIP3    H1 9346  -0.087   2.789   3.016
 3131TIP3    H2 9347   0.015   2.686   2.980
 3132TIP3   OH2 9348   1.153   3.186   3.862
 3132TIP3    H1 9349   1.055   3.187   3.871
 3132TIP3    H2 9350   1.162   3.133   3.782
 3133TIP3   OH2 9351   0.806   3.380   3.252
 3133TIP3    H1 9352   0.728   3.322   3.264
 3133TIP3    H2 9353   0.876   3.332   3.301
 3134TIP3   OH2 9354  -0.433   3.617   2.787
 3134TIP3    H1 9355  -0.397   3.705   2.769
 3134TIP3    H2 9356  -0.409   3.571   2.704
 3135TIP3   OH2 9357  -0.475   2.880   2.792
 3135TIP3    H1 9358  -0.487   2.961   2.846
 3135TIP3    H2 9359  -0.557   2.834   2.818
 3136TIP3   OH2 9360   0.776   4.337   3.200
 3136TIP3    H1 9361   0.732   4.385   3.125
 3136TIP3    H2 9362   0.870   4.356   3.178
 3137TIP3   OH2 9363  -0.137   2.596   3.721
 3137TIP3    H1 9364  -0.190   2.573   3.643
 3137TIP3    H2 9365  -0.155   2.521   3.782
 3138TIP3   OH2 9366   0.060   4.358   4.186
 3138TIP3    H1 9367   0.137   4.314   4.225
 3138TIP3    H2 9368   0.011   4.285   4.147
 3139TIP3   OH2 9369   0.011   3.905   2.351
 3139TIP3    H1 9370  -0.046   3.832   2.384
 3139TIP3    H2 9371   0.088   3.854   2.318
 3140TIP3   OH2 9372   0.670   4.234   3.957
 3140TIP3    H1 9373   0.659   4.166   4.027
 3140TIP3    H2 9374   0.746   4.286   3.990
 3141TIP3   OH2 9375   0.444   3.944   2.264
 3141TIP3    H1 9376   0.491   3.881   2.323
 3141TIP3    H2 9377   0.498   3.941   2.183
 3142TIP3   OH2 9378  -0.329   3.423   2.588
 3142TIP3    H1 9379  -0.268   3.401   2.661
 3142TIP3    H2 9380  -0.266   3.428   2.513
 3143TIP3   OH2 9381   0.289   3.857   4.155
 3143TIP3    H1 9382   0.252   3.877   4.067
 3143TIP3    H2 9383   0.319   3.764   4.145
 3144TIP3   OH2 9384   0.167   3.620   2.384
 3144TIP3    H1 9385   0.170   3.632   2.481
 3144TIP3    H2 9386   0.166   3.522   2.378
 3145TIP3   OH2 9387   0.777   3.867   3.760
 3145TIP3    H1 9388   0.852   3.914   3.720
 3145TIP3    H2 9389   0.705   3.932   3.746
 3146TIP3   OH2 9390  -0.143   3.326   2.794
 3146TIP3    H1 9391  -0.169   3.288   2.880
 3146TIP3    H2 9392  -0.104   3.249   2.748
 3147TIP3   OH2 9393   0.143   3.384   4.025
 3147TIP3    H1 9394   0.060   3.436   4.027
 3147TIP3    H2 9395   0.192   3.424   3.949
 3148TIP3   OH2 9396  -0.035   3.118   2.637
 3148TIP3    H1 9397  -0.060   3.129   2.543
 3148TIP3    H2 9398   0.062   3.123   2.631
 3149TIP3   OH2 9399   0.650   3.794   4.157
 3149TIP3    H1 9400   0.731   3.764   4.114
 3149TIP3    H2 9401   0.642   3.730   4.230
 3150TIP3   OH2 9402   0.784   3.448   2.303
 3150TIP3    H1 9403   0.765   3.406   2.217
 3150TIP3    H2 9404   0.752   3.539   2.284
 3151TIP3   OH2 9405   0.265   3.174   4.143
 3151TIP3    H1 9406   0.259   3.095   4.085
 3151TIP3    H2 9407   0.219   3.243   4.090
 3152TIP3   OH2 9408   0.259   2.964   3.954
 3152TIP3    H1 9409   0.288   3.008   3.872
 3152TIP3    H2 9410   0.166   2.942   3.934
 3153TIP3   OH2 9411   0.291   3.498   3.834
 3153TIP3    H1 9412   0.376   3.507   3.790
 3153TIP3    H2 9413   0.234   3.560   3.783
 3154TIP3   OH2 9414   0.864   3.465   4.209
 3154TIP3    H1 9415   0.913   3.383   4.228
 3154TIP3    H2 9416   0.934   3.524   4.178
 3155TIP3   OH2 9417   0.907   3.720   3.945
 3155TIP3    H1 9418   0.849   3.774   3.887
 3155TIP3    H2 9419   0.995   3.742   3.906
 3156TIP3   OH2 9420   0.156   3.293   4.374
 3156TIP3    H1 9421   0.081   3.234   4.397
 3156TIP3    H2 9422   0.180   3.259   4.286
 3157TIP3   OH2 9423   0.390   2.728   4.026
 3157TIP3    H1 9424   0.340   2.809   4.003
 3157TIP3    H2 9425   0.322   2.658   4.014
 3158TIP3   OH2 9426   0.518   3.231   4.242
 3158TIP3    H1 9427   0.502   3.216   4.337
 3158TIP3    H2 9428   0.429   3.206   4.207
 3159TIP3   OH2 9429   0.752   3.178   4.094
 3159TIP3    H1 9430   0.679   3.183   4.159
 3159TIP3    H2 9431   0.828   3.151   4.150
 3160TIP3   OH2 9432   0.979   3.122   4.243
 3160TIP3    H1 9433   0.995   3.027   4.261
 3160TIP3    H2 9434   0.977   3.160   4.334
 3161TIP3   OH2 9435  -0.004   3.070   4.424
 3161TIP3    H1 9436  -0.032   2.980   4.402
 3161TIP3    H2 9437   0.024   3.061   4.516
 3162TIP3   OH2 9438   0.482   2.737   4.285
 3162TIP3    H1 9439   0.550   2.667   4.279
 3162TIP3    H2 9440   0.443   2.733   4.195
 3163TIP3   OH2 9441   0.551   2.953   4.443
 3163TIP3    H1 9442   0.529   2.882   4.379
 3163TIP3    H2 9443   0.473   3.012   4.437
 3164TIP3   OH2 9444  -0.235   4.186   2.538
 3164TIP3    H1 9445  -0.138   4.177   2.528
 3164TIP3    H2 9446  -0.256   4.238   2.459
 3165TIP3   OH2 9447   1.033   4.420   3.161
 3165TIP3    H1 9448   1.057   4.458   3.248
 3165TIP3    H2 9449   1.092   4.467   3.101
 3166TIP3   OH2 9450   1.058   4.448   3.443
 3166TIP3    H1 9451   1.013   4.361   3.438
 3166TIP3    H2 9452   1.132   4.424   3.500
 3167TIP3   OH2 9453   1.102   4.124   4.012
 3167TIP3    H1 9454   1.031   4.134   4.079
 3167TIP3    H2 9455   1.147   4.211   4.018
 3168TIP3   OH2 9456   0.922   3.634   2.633
 3168TIP3    H1 9457   0.985   3.701   2.600
 3168TIP3    H2 9458   0.968   3.599   2.712
 3169TIP3   OH2 9459   1.050   3.503   2.838
 3169TIP3    H1 9460   0.983   3.463   2.898
 3169TIP3    H2 9461   1.115   3.541   2.901
 3170TIP3   OH2 9462   1.114   3.886   3.258
 3170TIP3    H1 9463   1.133   3.850   3.170
 3170TIP3    H2 9464   1.092   3.978   3.234
 3171TIP3   OH2 9465   0.931   4.198   3.463
 3171TIP3    H1 9466   0.862   4.242   3.516
 3171TIP3    H2 9467   0.878   4.155   3.392
 3172TIP3   OH2 9468   0.987   3.409   2.483
 3172TIP3    H1 9469   0.917   3.413   2.414
 3172TIP3    H2 9470   0.959   3.486   2.537
 3173TIP3   OH2 9471   0.859   3.082   2.437
 3173TIP3    H1 9472   0.814   3.124   2.363
 3173TIP3    H2 9473   0.834   2.988   2.424
 3174TIP3   OH2 9474   0.862   3.363   2.983
 3174TIP3    H1 9475   0.868   3.266   2.975
 3174TIP3    H2 9476   0.847   3.375   3.079
 3175TIP3   OH2 9477   1.153   3.787   3.839
 3175TIP3    H1 9478   1.224   3.720   3.830
 3175TIP3    H2 9479   1.183   3.858   3.779
 3176TIP3   OH2 9480   1.336   3.588   3.847
 3176TIP3    H1 9481   1.262   3.539   3.889
 3176TIP3    H2 9482   1.410   3.526   3.864
 3177TIP3   OH2 9483   0.800   2.816   2.412
 3177TIP3    H1 9484   0.868   2.785   2.475
 3177TIP3    H2 9485   0.722   2.761   2.434
 3178TIP3   OH2 9486   0.859   3.078   2.877
 3178TIP3    H1 9487   0.899   2.989   2.892
 3178TIP3    H2 9488   0.917   3.110   2.806
 3179TIP3   OH2 9489   1.017   3.247   3.373
 3179TIP3    H1 9490   1.102   3.276   3.332
 3179TIP3    H2 9491   1.030   3.284   3.463
 3180TIP3   OH2 9492   1.087   3.394   3.604
 3180TIP3    H1 9493   1.010   3.425   3.656
 3180TIP3    H2 9494   1.121   3.478   3.567
 3181TIP3   OH2 9495   1.536   2.983   4.158
 3181TIP3    H1 9496   1.600   2.921   4.118
 3181TIP3    H2 9497   1.511   3.039   4.081
 3182TIP3   OH2 9498   0.970   2.828   2.913
 3182TIP3    H1 9499   1.016   2.813   2.998
 3182TIP3    H2 9500   0.908   2.752   2.913
 3183TIP3   OH2 9501  -0.327   2.801   3.735
 3183TIP3    H1 9502  -0.255   2.737   3.744
 3183TIP3    H2 9503  -0.281   2.885   3.727
 3184TIP3   OH2 9504   1.411   3.125   3.961
 3184TIP3    H1 9505   1.328   3.168   3.988
 3184TIP3    H2 9506   1.375   3.052   3.907
 3185TIP3   OH2 9507   1.042   2.759   2.552
 3185TIP3    H1 9508   1.076   2.687   2.494
 3185TIP3    H2 9509   1.108   2.829   2.543
 3186TIP3   OH2 9510   0.616   4.294   2.817
 3186TIP3    H1 9511   0.663   4.283   2.732
 3186TIP3    H2 9512   0.668   4.364   2.859
 3187TIP3   OH2 9513  -0.055   4.105   3.754
 3187TIP3    H1 9514  -0.092   4.189   3.790
 3187TIP3    H2 9515   0.011   4.139   3.691
 3188TIP3   OH2 9516   0.342   4.368   3.884
 3188TIP3    H1 9517   0.382   4.368   3.973
 3188TIP3    H2 9518   0.405   4.425   3.835
 3189TIP3   OH2 9519   0.520   4.529   3.748
 3189TIP3    H1 9520   0.589   4.475   3.706
 3189TIP3    H2 9521   0.573   4.586   3.807
 3190TIP3   OH2 9522   1.311   2.886   3.844
 3190TIP3    H1 9523   1.220   2.874   3.811
 3190TIP3    H2 9524   1.346   2.795   3.836
 3191TIP3   OH2 9525   0.244   4.402   3.425
 3191TIP3    H1 9526   0.169   4.414   3.363
 3191TIP3    H2 9527   0.255   4.492   3.460
 3192TIP3   OH2 9528   0.504   4.332   3.482
 3192TIP3    H1 9529   0.411   4.352   3.460
 3192TIP3    H2 9530   0.550   4.403   3.434
 3193TIP3   OH2 9531   0.705   4.524   3.392
 3193TIP3    H1 9532   0.690   4.608   3.344
 3193TIP3    H2 9533   0.732   4.464   3.319
 3194TIP3   OH2 9534  -0.042   4.154   3.364
 3194TIP3    H1 9535  -0.040   4.058   3.352
 3194TIP3    H2 9536   0.015   4.162   3.443
 3195TIP3   OH2 9537   0.514   2.801   3.459
 3195TIP3    H1 9538   0.473   2.730   3.512
 3195TIP3    H2 9539   0.592   2.756   3.421
 3196TIP3   OH2 9540   1.035   2.681   3.365
 3196TIP3    H1 9541   1.071   2.735   3.292
 3196TIP3    H2 9542   0.940   2.704   3.361
 3197TIP3   OH2 9543   1.132   2.784   3.131
 3197TIP3    H1 9544   1.206   2.731   3.094
 3197TIP3    H2 9545   1.166   2.875   3.117
 3198TIP3   OH2 9546  -0.231   2.502   3.445
 3198TIP3    H1 9547  -0.327   2.483   3.457
 3198TIP3    H2 9548  -0.195   2.419   3.481
 3199TIP3   OH2 9549  -0.414   2.453   3.155
 3199TIP3    H1 9550  -0.388   2.480   3.065
 3199TIP3    H2 9551  -0.459   2.534   3.183
 3200TIP3   OH2 9552   0.206   2.552   3.359
 3200TIP3    H1 9553   0.266   2.599   3.298
 3200TIP3    H2 9554   0.231   2.592   3.444
 3201TIP3   OH2 9555   0.749   2.691   3.343
 3201TIP3    H1 9556   0.758   2.648   3.257
 3201TIP3    H2 9557   0.738   2.612   3.402
 3202TIP3   OH2 9558   0.784   2.616   2.908
 3202TIP3    H1 9559   0.698   2.659   2.922
 3202TIP3    H2 9560   0.769   2.531   2.953
 3203TIP3   OH2 9561  -0.298   2.536   2.905
 3203TIP3    H1 9562  -0.245   2.509   2.829
 3203TIP3    H2 9563  -0.241   2.606   2.943
 3204TIP3   OH2 9564   0.191   2.720   2.988
 3204TIP3    H1 9565   0.256   2.680   3.048
 3204TIP3    H2 9566   0.205   2.814   3.011
 3205TIP3   OH2 9567   0.037   4.141   2.488
 3205TIP3    H1 9568   0.126   4.162   2.452
 3205TIP3    H2 9569   0.015   4.065   2.429
 3206TIP3   OH2 9570   0.758   4.261   2.583
 3206TIP3    H1 9571   0.751   4.163   2.572
 3206TIP3    H2 9572   0.713   4.291   2.502
 3207TIP3   OH2 9573  -0.037   2.793   4.371
 3207TIP3    H1 9574  -0.065   2.714   4.423
 3207TIP3    H2 9575   0.057   2.796   4.401
 3208TIP3   OH2 9576   0.217   2.789   4.491
 3208TIP3    H1 9577   0.303   2.770   4.449
 3208TIP3    H2 9578   0.209   2.713   4.553
 3209TIP3   OH2 9579   1.048   2.852   4.277
 3209TIP3    H1 9580   1.065   2.821   4.368
 3209TIP3    H2 9581   1.137   2.848   4.237
 3210TIP3   OH2 9582   0.984   4.406   3.767
 3210TIP3    H1 9583   0.904   4.375   3.718
 3210TIP3    H2 9584   0.963   4.501   3.775
 3211TIP3   OH2 9585   2.210   3.777   2.945
 3211TIP3    H1 9586   2.285   3.758   3.005
 3211TIP3    H2 9587   2.211   3.700   2.887
 3212TIP3   OH2 9588   1.529   4.076   3.005
 3212TIP3    H1 9589   1.518   3.991   2.960
 3212TIP3    H2 9590   1.626   4.089   2.998
 3213TIP3   OH2 9591   1.228   3.281   2.787
 3213TIP3    H1 9592   1.183   3.365   2.807
 3213TIP3    H2 9593   1.155   3.231   2.747
 3214TIP3   OH2 9594   1.284   3.572   2.962
 3214TIP3    H1 9595   1.335   3.504   3.009
 3214TIP3    H2 9596   1.346   3.601   2.894
 3215TIP3   OH2 9597   2.153   4.541   2.623
 3215TIP3    H1 9598   2.179   4.473   2.557
 3215TIP3    H2 9599   2.145   4.486   2.702
 3216TIP3   OH2 9600   2.043   4.006   2.974
 3216TIP3    H1 9601   2.085   3.930   2.929
 3216TIP3    H2 9602   2.125   4.056   2.992
 3217TIP3   OH2 9603   3.060   3.322   2.966
 3217TIP3    H1 9604   3.093   3.403   3.009
 3217TIP3    H2 9605   3.085   3.339   2.873
 3218TIP3   OH2 9606   2.453   3.502   2.997
 3218TIP3    H1 9607   2.502   3.420   3.018
 3218TIP3    H2 9608   2.427   3.485   2.905
 3219TIP3   OH2 9609   1.796   3.161   2.962
 3219TIP3    H1 9610   1.783   3.235   2.900
 3219TIP3    H2 9611   1.746   3.091   2.916
 3220TIP3   OH2 9612   2.496   3.254   2.582
 3220TIP3    H1 9613   2.567   3.241   2.650
 3220TIP3    H2 9614   2.549   3.291   2.509
 3221TIP3   OH2 9615   1.435   3.367   3.071
 3221TIP3    H1 9616   1.518   3.343   3.117
 3221TIP3    H2 9617   1.447   3.315   2.989
 3222TIP3   OH2 9618   1.859   3.560   2.896
 3222TIP3    H1 9619   1.956   3.547   2.894
 3222TIP3    H2 9620   1.829   3.480   2.848
 3223TIP3   OH2 9621   3.136   3.530   3.135
 3223TIP3    H1 9622   3.052   3.578   3.119
 3223TIP3    H2 9623   3.163   3.568   3.221
 3224TIP3   OH2 9624   1.797   3.146   3.396
 3224TIP3    H1 9625   1.735   3.182   3.329
 3224TIP3    H2 9626   1.745   3.161   3.478
 3225TIP3   OH2 9627   1.896   3.929   3.191
 3225TIP3    H1 9628   1.853   4.013   3.218
 3225TIP3    H2 9629   1.951   3.961   3.115
 3226TIP3   OH2 9630   2.700   3.260   2.760
 3226TIP3    H1 9631   2.693   3.217   2.847
 3226TIP3    H2 9632   2.753   3.339   2.782
 3227TIP3   OH2 9633   1.667   3.261   3.180
 3227TIP3    H1 9634   1.732   3.331   3.205
 3227TIP3    H2 9635   1.716   3.220   3.105
 3228TIP3   OH2 9636   1.726   4.117   3.292
 3228TIP3    H1 9637   1.707   4.202   3.247
 3228TIP3    H2 9638   1.646   4.111   3.349
 3229TIP3   OH2 9639   1.121   3.807   2.524
 3229TIP3    H1 9640   1.083   3.833   2.438
 3229TIP3    H2 9641   1.153   3.893   2.559
 3230TIP3   OH2 9642   2.573   4.336   2.787
 3230TIP3    H1 9643   2.485   4.296   2.799
 3230TIP3    H2 9644   2.552   4.409   2.727
 3231TIP3   OH2 9645   2.857   3.216   3.128
 3231TIP3    H1 9646   2.772   3.251   3.095
 3231TIP3    H2 9647   2.920   3.253   3.062
 3232TIP3   OH2 9648   2.146   2.861   3.108
 3232TIP3    H1 9649   2.134   2.767   3.131
 3232TIP3    H2 9650   2.071   2.901   3.157
 3233TIP3   OH2 9651   2.250   4.371   2.426
 3233TIP3    H1 9652   2.300   4.286   2.424
 3233TIP3    H2 9653   2.320   4.431   2.391
 3234TIP3   OH2 9654   2.394   4.151   2.362
 3234TIP3    H1 9655   2.374   4.081   2.299
 3234TIP3    H2 9656   2.394   4.097   2.444
 3235TIP3   OH2 9657   2.788   4.234   3.109
 3235TIP3    H1 9658   2.777   4.156   3.049
 3235TIP3    H2 9659   2.774   4.308   3.047
 3236TIP3   OH2 9660   2.066   3.599   2.351
 3236TIP3    H1 9661   2.000   3.671   2.346
 3236TIP3    H2 9662   2.130   3.627   2.283
 3237TIP3   OH2 9663   2.053   3.400   2.084
 3237TIP3    H1 9664   2.097   3.464   2.141
 3237TIP3    H2 9665   2.119   3.355   2.031
 3238TIP3   OH2 9666   2.985   3.873   2.954
 3238TIP3    H1 9667   2.901   3.924   2.959
 3238TIP3    H2 9668   3.015   3.898   2.864
 3239TIP3   OH2 9669   2.414   3.726   2.352
 3239TIP3    H1 9670   2.383   3.786   2.425
 3239TIP3    H2 9671   2.498   3.697   2.392
 3240TIP3   OH2 9672   2.664   3.746   3.253
 3240TIP3    H1 9673   2.664   3.827   3.308
 3240TIP3    H2 9674   2.582   3.759   3.201
 3241TIP3   OH2 9675   1.661   3.708   2.753
 3241TIP3    H1 9676   1.626   3.647   2.685
 3241TIP3    H2 9677   1.733   3.656   2.793
 3242TIP3   OH2 9678   1.783   4.101   2.911
 3242TIP3    H1 9679   1.770   4.089   2.816
 3242TIP3    H2 9680   1.876   4.072   2.923
 3243TIP3   OH2 9681   1.771   3.698   3.140
 3243TIP3    H1 9682   1.764   3.654   3.052
 3243TIP3    H2 9683   1.835   3.769   3.117
 3244TIP3   OH2 9684   2.308   4.324   2.886
 3244TIP3    H1 9685   2.320   4.392   2.953
 3244TIP3    H2 9686   2.301   4.242   2.938
 3245TIP3   OH2 9687   1.936   4.237   3.433
 3245TIP3    H1 9688   1.878   4.299   3.482
 3245TIP3    H2 9689   1.869   4.186   3.384
 3246TIP3   OH2 9690   2.280   3.567   2.166
 3246TIP3    H1 9691   2.329   3.635   2.218
 3246TIP3    H2 9692   2.302   3.592   2.073
 3247TIP3   OH2 9693   1.651   3.817   3.471
 3247TIP3    H1 9694   1.665   3.894   3.530
 3247TIP3    H2 9695   1.573   3.776   3.517
 3248TIP3   OH2 9696   1.972   4.293   2.462
 3248TIP3    H1 9697   2.067   4.277   2.451
 3248TIP3    H2 9698   1.952   4.354   2.390
 3249TIP3   OH2 9699   1.729   4.401   3.521
 3249TIP3    H1 9700   1.693   4.407   3.431
 3249TIP3    H2 9701   1.648   4.382   3.574
 3250TIP3   OH2 9702   2.787   2.806   2.215
 3250TIP3    H1 9703   2.703   2.831   2.258
 3250TIP3    H2 9704   2.804   2.884   2.159
 3251TIP3   OH2 9705   1.531   3.543   2.549
 3251TIP3    H1 9706   1.467   3.595   2.496
 3251TIP3    H2 9707   1.476   3.469   2.578
 3252TIP3   OH2 9708   2.585   4.175   1.761
 3252TIP3    H1 9709   2.593   4.271   1.746
 3252TIP3    H2 9710   2.678   4.145   1.749
 3253TIP3   OH2 9711   1.306   3.929   3.466
 3253TIP3    H1 9712   1.242   3.906   3.396
 3253TIP3    H2 9713   1.337   3.841   3.496
 3254TIP3   OH2 9714   1.164   4.132   3.104
 3254TIP3    H1 9715   1.261   4.137   3.100
 3254TIP3    H2 9716   1.143   4.213   3.153
 3255TIP3   OH2 9717   3.026   4.581   3.156
 3255TIP3    H1 9718   3.026   4.485   3.169
 3255TIP3    H2 9719   2.943   4.605   3.202
 3256TIP3   OH2 9720   2.132   4.365   3.290
 3256TIP3    H1 9721   2.129   4.458   3.323
 3256TIP3    H2 9722   2.062   4.323   3.345
 3257TIP3   OH2 9723   1.897   4.495   2.243
 3257TIP3    H1 9724   1.851   4.473   2.160
 3257TIP3    H2 9725   1.861   4.582   2.266
 3258TIP3   OH2 9726   1.330   4.344   2.630
 3258TIP3    H1 9727   1.380   4.334   2.714
 3258TIP3    H2 9728   1.278   4.261   2.630
 3259TIP3   OH2 9729   2.096   4.397   1.883
 3259TIP3    H1 9730   2.154   4.326   1.846
 3259TIP3    H2 9731   2.130   4.404   1.974
 3260TIP3   OH2 9732   2.147   4.442   2.153
 3260TIP3    H1 9733   2.057   4.453   2.191
 3260TIP3    H2 9734   2.194   4.402   2.229
 3261TIP3   OH2 9735   2.909   3.710   3.427
 3261TIP3    H1 9736   2.833   3.714   3.368
 3261TIP3    H2 9737   2.934   3.615   3.422
 3262TIP3   OH2 9738   1.511   4.115   3.455
 3262TIP3    H1 9739   1.557   4.107   3.541
 3262TIP3    H2 9740   1.435   4.054   3.466
 3263TIP3   OH2 9741   1.911   2.940   3.242
 3263TIP3    H1 9742   1.822   2.911   3.213
 3263TIP3    H2 9743   1.887   3.021   3.291
 3264TIP3   OH2 9744   2.450   3.055   3.435
 3264TIP3    H1 9745   2.520   3.027   3.498
 3264TIP3    H2 9746   2.367   3.036   3.484
 3265TIP3   OH2 9747   2.676   3.481   3.347
 3265TIP3    H1 9748   2.631   3.483   3.435
 3265TIP3    H2 9749   2.661   3.571   3.314
 3266TIP3   OH2 9750   2.344   3.612   1.906
 3266TIP3    H1 9751   2.311   3.590   1.817
 3266TIP3    H2 9752   2.426   3.659   1.884
 3267TIP3   OH2 9753   2.036   2.998   2.204
 3267TIP3    H1 9754   2.017   2.994   2.300
 3267TIP3    H2 9755   2.014   2.908   2.177
 3268TIP3   OH2 9756   1.844   3.457   3.256
 3268TIP3    H1 9757   1.799   3.475   3.341
 3268TIP3    H2 9758   1.828   3.539   3.207
 3269TIP3   OH2 9759   1.728   3.346   2.777
 3269TIP3    H1 9760   1.635   3.319   2.793
 3269TIP3    H2 9761   1.742   3.309   2.687
 3270TIP3   OH2 9762   2.217   3.428   2.502
 3270TIP3    H1 9763   2.163   3.497   2.457
 3270TIP3    H2 9764   2.275   3.399   2.429
 3271TIP3   OH2 9765   2.392   3.703   3.584
 3271TIP3    H1 9766   2.374   3.632   3.649
 3271TIP3    H2 9767   2.485   3.722   3.602
 3272TIP3   OH2 9768   2.368   3.451   2.741
 3272TIP3    H1 9769   2.310   3.479   2.667
 3272TIP3    H2 9770   2.410   3.374   2.697
 3273TIP3   OH2 9771   1.666   3.481   3.466
 3273TIP3    H1 9772   1.705   3.532   3.538
 3273TIP3    H2 9773   1.646   3.397   3.510
 3274TIP3   OH2 9774   1.260   3.005   3.046
 3274TIP3    H1 9775   1.332   3.039   3.103
 3274TIP3    H2 9776   1.307   2.974   2.968
 3275TIP3   OH2 9777   1.227   2.989   2.560
 3275TIP3    H1 9778   1.257   3.038   2.481
 3275TIP3    H2 9779   1.161   3.055   2.592
 3276TIP3   OH2 9780   2.378   3.698   3.166
 3276TIP3    H1 9781   2.414   3.631   3.103
 3276TIP3    H2 9782   2.353   3.639   3.240
 3277TIP3   OH2 9783   2.056   3.161   2.832
 3277TIP3    H1 9784   1.980   3.164   2.893
 3277TIP3    H2 9785   2.131   3.161   2.893
 3278TIP3   OH2 9786   1.489   3.222   2.842
 3278TIP3    H1 9787   1.394   3.229   2.815
 3278TIP3    H2 9788   1.512   3.130   2.821
 3279TIP3   OH2 9789   1.761   3.227   2.530
 3279TIP3    H1 9790   1.859   3.229   2.536
 3279TIP3    H2 9791   1.750   3.251   2.439
 3280TIP3   OH2 9792   2.548   3.242   3.038
 3280TIP3    H1 9793   2.514   3.255   3.129
 3280TIP3    H2 9794   2.482   3.183   3.001
 3281TIP3   OH2 9795   1.585   3.329   2.263
 3281TIP3    H1 9796   1.580   3.229   2.201
 3281TIP3    H2 9797   1.604   3.239   2.322
 3282TIP3   OH2 9798   2.720   4.933   3.256
 3282TIP3    H1 9799   2.723   4.950   3.160
 3282TIP3    H2 9800   2.803   4.976   3.286
 3283TIP3   OH2 9801   1.679   4.033   3.668
 3283TIP3    H1 9802   1.757   4.065   3.718
 3283TIP3    H2 9803   1.615   4.029   3.742
 3284TIP3   OH2 9804   2.133   3.481   2.925
 3284TIP3    H1 9805   2.213   3.459   2.874
 3284TIP3    H2 9806   2.153   3.445   3.013
 3285TIP3   OH2 9807   1.656   2.979   2.807
 3285TIP3    H1 9808   1.622   2.902   2.858
 3285TIP3    H2 9809   1.732   2.941   2.761
 3286TIP3   OH2 9810   2.116   3.387   3.228
 3286TIP3    H1 9811   2.029   3.428   3.235
 3286TIP3    H2 9812   2.176   3.449   3.273
 3287TIP3   OH2 9813   1.854   3.783   2.314
 3287TIP3    H1 9814   1.779   3.721   2.299
 3287TIP3    H2 9815   1.832   3.818   2.404
 3288TIP3   OH2 9816   2.750   4.016   2.946
 3288TIP3    H1 9817   2.766   4.066   2.864
 3288TIP3    H2 9818   2.667   3.968   2.926
 3289TIP3   OH2 9819   2.303   3.089   2.185
 3289TIP3    H1 9820   2.205   3.085   2.186
 3289TIP3    H2 9821   2.321   3.184   2.204
 3290TIP3   OH2 9822   2.235   4.090   3.324
 3290TIP3    H1 9823   2.293   4.085   3.402
 3290TIP3    H2 9824   2.213   4.184   3.319
 3291TIP3   OH2 9825   2.379   3.337   2.281
 3291TIP3    H1 9826   2.474   3.348   2.299
 3291TIP3    H2 9827   2.357   3.420   2.233
 3292TIP3   OH2 9828   1.994   3.927   2.122
 3292TIP3    H1 9829   1.951   4.014   2.136
 3292TIP3    H2 9830   1.956   3.875   2.195
 3293TIP3   OH2 9831   1.429   3.721   3.608
 3293TIP3    H1 9832   1.453   3.712   3.703
 3293TIP3    H2 9833   1.359   3.653   3.601
 3294TIP3   OH2 9834   2.155   3.838   3.619
 3294TIP3    H1 9835   2.111   3.776   3.560
 3294TIP3    H2 9836   2.248   3.812   3.602
 3295TIP3   OH2 9837   2.408   4.364   3.210
 3295TIP3    H1 9838   2.312   4.363   3.222
 3295TIP3    H2 9839   2.436   4.414   3.289
 3296TIP3   OH2 9840   2.819   3.434   2.119
 3296TIP3    H1 9841   2.757   3.391   2.055
 3296TIP3    H2 9842   2.816   3.525   2.080
 3297TIP3   OH2 9843   3.039   4.292   3.197
 3297TIP3    H1 9844   2.942   4.284   3.189
 3297TIP3    H2 9845   3.066   4.260   3.107
 3298TIP3   OH2 9846   2.523   4.251   2.028
 3298TIP3    H1 9847   2.496   4.181   2.090
 3298TIP3    H2 9848   2.534   4.202   1.944
 3299TIP3   OH2 9849   2.520   3.869   2.887
 3299TIP3    H1 9850   2.439   3.894   2.839
 3299TIP3    H2 9851   2.554   3.802   2.824
 3300TIP3   OH2 9852   1.647   4.115   2.633
 3300TIP3    H1 9853   1.661   4.190   2.572
 3300TIP3    H2 9854   1.557   4.090   2.610
 3301TIP3   OH2 9855   1.217   3.405   2.329
 3301TIP3    H1 9856   1.257   3.494   2.343
 3301TIP3    H2 9857   1.137   3.412   2.384
 3302TIP3   OH2 9858   1.767   3.871   2.552
 3302TIP3    H1 9859   1.751   3.963   2.579
 3302TIP3    H2 9860   1.736   3.821   2.630
 3303TIP3   OH2 9861   1.917   4.448   3.084
 3303TIP3    H1 9862   1.959   4.521   3.034
 3303TIP3    H2 9863   1.994   4.411   3.130
 3304TIP3   OH2 9864   1.560   4.349   2.465
 3304TIP3    H1 9865   1.477   4.359   2.513
 3304TIP3    H2 9866   1.596   4.441   2.468
 3305TIP3   OH2 9867   2.298   4.090   3.045
 3305TIP3    H1 9868   2.293   4.075   3.141
 3305TIP3    H2 9869   2.371   4.031   3.020
 3306TIP3   OH2 9870   2.277   3.980   1.928
 3306TIP3    H1 9871   2.332   3.951   2.004
 3306TIP3    H2 9872   2.189   3.954   1.959
 3307TIP3   OH2 9873   2.550   4.620   3.098
 3307TIP3    H1 9874   2.471   4.563   3.092
 3307TIP3    H2 9875   2.533   4.683   3.024
 3308TIP3   OH2 9876   2.617   4.451   1.746
 3308TIP3    H1 9877   2.654   4.525   1.695
 3308TIP3    H2 9878   2.536   4.494   1.780
 3309TIP3   OH2 9879   1.635   3.228   3.608
 3309TIP3    H1 9880   1.540   3.231   3.628
 3309TIP3    H2 9881   1.669   3.178   3.684
 3310TIP3   OH2 9882   2.440   3.908   2.139
 3310TIP3    H1 9883   2.424   3.851   2.217
 3310TIP3    H2 9884   2.537   3.902   2.131
 3311TIP3   OH2 9885   1.356   4.313   3.243
 3311TIP3    H1 9886   1.412   4.244   3.283
 3311TIP3    H2 9887   1.378   4.390   3.297
 3312TIP3   OH2 9888   1.641   3.961   1.930
 3312TIP3    H1 9889   1.659   3.870   1.901
 3312TIP3    H2 9890   1.623   3.949   2.025
 3313TIP3   OH2 9891   1.589   3.963   2.204
 3313TIP3    H1 9892   1.673   3.941   2.247
 3313TIP3    H2 9893   1.590   4.062   2.207
 3314TIP3   OH2 9894   1.320   3.655   2.404
 3314TIP3    H1 9895   1.253   3.703   2.458
 3314TIP3    H2 9896   1.337   3.721   2.334
 3315TIP3   OH2 9897   2.471   3.295   3.297
 3315TIP3    H1 9898   2.555   3.335   3.326
 3315TIP3    H2 9899   2.465   3.214   3.352
 3316TIP3   OH2 9900   2.356   3.041   2.464
 3316TIP3    H1 9901   2.343   3.065   2.370
 3316TIP3    H2 9902   2.396   3.123   2.500
 3317TIP3   OH2 9903   1.853   4.158   2.147
 3317TIP3    H1 9904   1.769   4.185   2.187
 3317TIP3    H2 9905   1.867   4.230   2.084
 3318TIP3   OH2 9906   2.035   3.229   2.566
 3318TIP3    H1 9907   2.100   3.300   2.546
 3318TIP3    H2 9908   2.048   3.218   2.662
 3319TIP3   OH2 9909   2.307   3.536   3.374
 3319TIP3    H1 9910   2.340   3.589   3.451
 3319TIP3    H2 9911   2.365   3.458   3.378
 3320TIP3   OH2 9912   2.183   2.944   2.661
 3320TIP3    H1 9913   2.185   3.017   2.726
 3320TIP3    H2 9914   2.245   2.979   2.593
 3321TIP3   OH2 9915   1.596   4.235   2.216
 3321TIP3    H1 9916   1.567   4.306   2.154
 3321TIP3    H2 9917   1.582   4.279   2.303
 3322TIP3   OH2 9918   2.947   3.444   3.354
 3322TIP3    H1 9919   2.849   3.439   3.353
 3322TIP3    H2 9920   2.969   3.405   3.268
 3323TIP3   OH2 9921   2.606   3.633   2.734
 3323TIP3    H1 9922   2.528   3.578   2.752
 3323TIP3    H2 9923   2.677   3.588   2.784
 3324TIP3   OH2 9924   1.316   3.862   2.208
 3324TIP3    H1 9925   1.387   3.928   2.217
 3324TIP3    H2 9926   1.360   3.805   2.141
 3325TIP3   OH2 9927   1.267   3.136   2.339
 3325TIP3    H1 9928   1.260   3.234   2.338
 3325TIP3    H2 9929   1.192   3.113   2.282
 3326TIP3   OH2 9930   2.569   4.607   2.688
 3326TIP3    H1 9931   2.527   4.656   2.614
 3326TIP3    H2 9932   2.664   4.620   2.667
 3327TIP3   OH2 9933   1.644   2.862   3.214
 3327TIP3    H1 9934   1.617   2.825   3.128
 3327TIP3    H2 9935   1.636   2.784   3.273
 3328TIP3   OH2 9936   1.184   4.076   2.593
 3328TIP3    H1 9937   1.114   4.110   2.651
 3328TIP3    H2 9938   1.158   4.119   2.508
 3329TIP3   OH2 9939   1.347   4.627   3.667
 3329TIP3    H1 9940   1.433   4.629   3.715
 3329TIP3    H2 9941   1.329   4.532   3.667
 3330TIP3   OH2 9942   1.821   4.586   3.710
 3330TIP3    H1 9943   1.916   4.567   3.720
 3330TIP3    H2 9944   1.798   4.522   3.639
 3331TIP3   OH2 9945   1.807   4.163   1.838
 3331TIP3    H1 9946   1.750   4.092   1.875
 3331TIP3    H2 9947   1.880   4.110   1.802
 3332TIP3   OH2 9948   2.459   4.496   3.449
 3332TIP3    H1 9949   2.453   4.424   3.517
 3332TIP3    H2 9950   2.540   4.543   3.477
 3333TIP3   OH2 9951   2.243   4.202   1.754
 3333TIP3    H1 9952   2.281   4.134   1.813
 3333TIP3    H2 9953   2.299   4.195   1.674
 3334TIP3   OH2 9954   1.477   4.033   3.862
 3334TIP3    H1 9955   1.489   3.940   3.888
 3334TIP3    H2 9956   1.389   4.031   3.820
 3335TIP3   OH2 9957   1.452   3.676   2.067
 3335TIP3    H1 9958   1.514   3.651   2.138
 3335TIP3    H2 9959   1.516   3.680   1.992
 3336TIP3   OH2 9960   2.079   4.114   3.643
 3336TIP3    H1 9961   2.048   4.137   3.553
 3336TIP3    H2 9962   2.116   4.024   3.631
 3337TIP3   OH2 9963   1.959   3.873   1.860
 3337TIP3    H1 9964   1.963   3.889   1.957
 3337TIP3    H2 9965   1.958   3.775   1.859
 3338TIP3   OH2 9966   2.571   4.132   3.249
 3338TIP3    H1 9967   2.652   4.166   3.206
 3338TIP3    H2 9968   2.507   4.202   3.224
 3339TIP3   OH2 9969   1.605   3.756   3.842
 3339TIP3    H1 9970   1.676   3.690   3.840
 3339TIP3    H2 9971   1.622   3.795   3.930
 3340TIP3   OH2 9972   1.646   3.588   2.277
 3340TIP3    H1 9973   1.639   3.553   2.366
 3340TIP3    H2 9974   1.695   3.518   2.229
 3341TIP3   OH2 9975   1.913   3.637   3.487
 3341TIP3    H1 9976   1.888   3.719   3.532
 3341TIP3    H2 9977   1.986   3.668   3.426
 3342TIP3   OH2 9978   1.809   3.464   2.072
 3342TIP3    H1 9979   1.742   3.401   2.045
 3342TIP3    H2 9980   1.869   3.395   2.112
 3343TIP3   OH2 9981   2.444   4.047   3.641
 3343TIP3    H1 9982   2.532   4.031   3.604
 3343TIP3    H2 9983   2.445   3.987   3.718
 3344TIP3   OH2 9984   2.580   3.706   1.789
 3344TIP3    H1 9985   2.560   3.662   1.704
 3344TIP3    H2 9986   2.546   3.796   1.769
 3345TIP3   OH2 9987   2.050   3.436   3.631
 3345TIP3    H1 9988   2.056   3.353   3.580
 3345TIP3    H2 9989   2.004   3.495   3.569
 3346TIP3   OH2 9990   2.054   3.222   3.449
 3346TIP3    H1 9991   2.085   3.263   3.365
 3346TIP3    H2 9992   1.962   3.199   3.427
 3347TIP3   OH2 9993   2.076   3.756   3.318
 3347TIP3    H1 9994   2.167   3.752   3.283
 3347TIP3    H2 9995   2.040   3.832   3.267
 3348TIP3   OH2 9996   2.673   3.722   3.708
 3348TIP3    H1 9997   2.719   3.639   3.687
 3348TIP3    H2 9998   2.731   3.788   3.666
 3349TIP3   OH2 9999   2.700   3.971   3.426
 3349TIP3    H110000   2.645   4.031   3.370
 3349TIP3    H210001   2.790   3.992   3.391
 3350TIP3   OH210002   1.914   3.550   3.848
 3350TIP3    H110003   1.855   3.478   3.880
 3350TIP3    H210004   1.960   3.506   3.774
 3351TIP3   OH210005   2.186   2.983   3.514
 3351TIP3    H110006   2.136   3.065   3.492
 3351TIP3    H210007   2.118   2.914   3.503
 3352TIP3   OH210008   2.312   3.487   3.729
 3352TIP3    H110009   2.298   3.473   3.825
 3352TIP3    H210010   2.223   3.463   3.697
 3353TIP3   OH210011   2.552   3.445   3.586
 3353TIP3    H110012   2.477   3.442   3.648
 3353TIP3    H210013   2.626   3.414   3.642
 3354TIP3   OH210014   2.769   3.382   3.745
 3354TIP3    H110015   2.788   3.286   3.754
 3354TIP3    H210016   2.775   3.414   3.837
 3355TIP3   OH210017   1.769   3.324   3.920
 3355TIP3    H110018   1.774   3.230   3.894
 3355TIP3    H210019   1.805   3.318   4.012
 3356TIP3   OH210020   2.280   2.995   3.772
 3356TIP3    H110021   2.347   2.923   3.766
 3356TIP3    H210022   2.241   2.990   3.683
 3357TIP3   OH210023   2.346   3.211   3.930
 3357TIP3    H110024   2.326   3.139   3.866
 3357TIP3    H210025   2.266   3.268   3.922
 3358TIP3   OH210026   1.569   4.441   2.030
 3358TIP3    H110027   1.664   4.431   2.010
 3358TIP3    H210028   1.540   4.488   1.949
 3359TIP3   OH210029   1.048   3.819   2.248
 3359TIP3    H110030   1.142   3.842   2.230
 3359TIP3    H210031   1.041   3.731   2.205
 3360TIP3   OH210032   0.962   4.434   2.659
 3360TIP3    H110033   0.898   4.372   2.619
 3360TIP3    H210034   1.008   4.374   2.723
 3361TIP3   OH210035   1.098   4.282   2.845
 3361TIP3    H110036   1.084   4.211   2.910
 3361TIP3    H210037   1.152   4.344   2.898
 3362TIP3   OH210038   2.826   4.690   2.646
 3362TIP3    H110039   2.857   4.715   2.735
 3362TIP3    H210040   2.898   4.720   2.589
 3363TIP3   OH210041   2.858   4.708   2.930
 3363TIP3    H110042   2.809   4.623   2.926
 3363TIP3    H210043   2.932   4.679   2.985
 3364TIP3   OH210044   2.896   4.384   3.497
 3364TIP3    H110045   2.827   4.392   3.566
 3364TIP3    H210046   2.942   4.470   3.505
 3365TIP3   OH210047   2.718   3.892   2.120
 3365TIP3    H110048   2.784   3.957   2.090
 3365TIP3    H210049   2.763   3.855   2.200
 3366TIP3   OH210050   2.847   3.760   2.324
 3366TIP3    H110051   2.777   3.721   2.381
 3366TIP3    H210052   2.909   3.797   2.389
 3367TIP3   OH210053   2.906   4.157   2.760
 3367TIP3    H110054   2.954   4.087   2.712
 3367TIP3    H210055   2.889   4.223   2.690
 3368TIP3   OH210056   2.737   4.463   2.957
 3368TIP3    H110057   2.662   4.498   3.010
 3368TIP3    H210058   2.688   4.414   2.886
 3369TIP3   OH210059   2.783   3.669   1.969
 3369TIP3    H110060   2.711   3.671   1.902
 3369TIP3    H210061   2.754   3.744   2.026
 3370TIP3   OH210062   2.654   3.342   1.923
 3370TIP3    H110063   2.608   3.378   1.846
 3370TIP3    H210064   2.630   3.247   1.916
 3371TIP3   OH210065   2.655   3.621   2.464
 3371TIP3    H110066   2.663   3.525   2.459
 3371TIP3    H210067   2.639   3.636   2.560
 3372TIP3   OH210068   2.946   4.043   3.326
 3372TIP3    H110069   3.017   3.974   3.318
 3372TIP3    H210070   2.976   4.110   3.263
 3373TIP3   OH210071   3.130   3.846   3.336
 3373TIP3    H110072   3.059   3.800   3.387
 3373TIP3    H210073   3.203   3.782   3.352
 3374TIP3   OH210074   2.596   3.077   1.910
 3374TIP3    H110075   2.674   3.045   1.961
 3374TIP3    H210076   2.527   3.012   1.931
 3375TIP3   OH210077   2.655   3.334   2.363
 3375TIP3    H110078   2.696   3.245   2.377
 3375TIP3    H210079   2.713   3.368   2.293
 3376TIP3   OH210080   2.815   3.504   2.861
 3376TIP3    H110081   2.900   3.529   2.818
 3376TIP3    H210082   2.830   3.543   2.949
 3377TIP3   OH210083   2.885   3.652   3.089
 3377TIP3    H110084   2.807   3.688   3.136
 3377TIP3    H210085   2.919   3.733   3.045
 3378TIP3   OH210086   1.503   3.376   3.885
 3378TIP3    H110087   1.601   3.375   3.895
 3378TIP3    H210088   1.481   3.291   3.928
 3379TIP3   OH210089   3.325   3.214   3.650
 3379TIP3    H110090   3.390   3.168   3.593
 3379TIP3    H210091   3.310   3.297   3.602
 3380TIP3   OH210092   2.764   3.084   2.401
 3380TIP3    H110093   2.813   3.070   2.485
 3380TIP3    H210094   2.703   3.008   2.402
 3381TIP3   OH210095   1.461   3.072   3.224
 3381TIP3    H110096   1.520   2.995   3.234
 3381TIP3    H210097   1.527   3.143   3.214
 3382TIP3   OH210098   1.260   3.354   3.292
 3382TIP3    H110099   1.305   3.344   3.206
 3382TIP3    H210100   1.327   3.399   3.344
 3383TIP3   OH210101   3.208   3.384   3.458
 3383TIP3    H110102   3.123   3.428   3.480
 3383TIP3    H210103   3.175   3.311   3.403
 3384TIP3   OH210104   2.842   3.013   2.035
 3384TIP3    H110105   2.890   2.943   1.985
 3384TIP3    H210106   2.908   3.085   2.036
 3385TIP3   OH210107   1.247   2.843   2.791
 3385TIP3    H110108   1.156   2.840   2.825
 3385TIP3    H210109   1.240   2.906   2.717
 3386TIP3   OH210110   2.412   4.558   2.303
 3386TIP3    H110111   2.457   4.540   2.217
 3386TIP3    H210112   2.477   4.615   2.346
 3387TIP3   OH210113   1.470   2.927   3.609
 3387TIP3    H110114   1.421   2.921   3.693
 3387TIP3    H210115   1.402   2.963   3.550
 3388TIP3   OH210116   1.509   4.355   3.684
 3388TIP3    H110117   1.415   4.331   3.675
 3388TIP3    H210118   1.526   4.336   3.777
 3389TIP3   OH210119   1.690   4.387   3.232
 3389TIP3    H110120   1.643   4.464   3.193
 3389TIP3    H210121   1.777   4.402   3.189
 3390TIP3   OH210122   2.130   4.634   3.372
 3390TIP3    H110123   2.174   4.631   3.460
 3390TIP3    H210124   2.195   4.686   3.321
 3391TIP3   OH210125   2.305   4.793   3.230
 3391TIP3    H110126   2.369   4.736   3.184
 3391TIP3    H210127   2.365   4.841   3.292
 3392TIP3   OH210128   3.106   3.145   3.332
 3392TIP3    H110129   3.018   3.136   3.292
 3392TIP3    H210130   3.141   3.053   3.323
 3393TIP3   OH210131   1.362   4.642   3.261
 3393TIP3    H110132   1.272   4.674   3.238
 3393TIP3    H210133   1.377   4.690   3.343
 3394TIP3   OH210134   1.601   4.623   3.120
 3394TIP3    H110135   1.512   4.635   3.161
 3394TIP3    H210136   1.583   4.653   3.028
 3395TIP3   OH210137   2.022   4.650   2.921
 3395TIP3    H110138   1.959   4.665   2.848
 3395TIP3    H210139   2.035   4.740   2.955
 3396TIP3   OH210140   2.296   4.602   2.981
 3396TIP3    H110141   2.203   4.604   2.950
 3396TIP3    H210142   2.340   4.659   2.916
 3397TIP3   OH210143   2.507   4.789   2.880
 3397TIP3    H110144   2.487   4.868   2.825
 3397TIP3    H210145   2.532   4.723   2.811
 3398TIP3   OH210146   1.275   4.438   3.002
 3398TIP3    H110147   1.302   4.411   3.093
 3398TIP3    H210148   1.347   4.395   2.951
 3399TIP3   OH210149   1.472   4.312   2.863
 3399TIP3    H110150   1.495   4.228   2.909
 3399TIP3    H210151   1.561   4.353   2.854
 3400TIP3   OH210152   1.736   4.409   2.867
 3400TIP3    H110153   1.774   4.324   2.838
 3400TIP3    H210154   1.787   4.423   2.949
 3401TIP3   OH210155   2.305   3.057   2.943
 3401TIP3    H110156   2.268   2.985   2.997
 3401TIP3    H210157   2.386   3.017   2.905
 3402TIP3   OH210158   2.826   2.931   2.851
 3402TIP3    H110159   2.870   2.987   2.782
 3402TIP3    H210160   2.735   2.965   2.849
 3403TIP3   OH210161   2.925   3.042   2.622
 3403TIP3    H110162   3.001   2.989   2.591
 3403TIP3    H210163   2.960   3.132   2.606
 3404TIP3   OH210164   1.559   2.767   2.962
 3404TIP3    H110165   1.468   2.733   2.971
 3404TIP3    H210166   1.609   2.682   2.962
 3405TIP3   OH210167   1.339   2.632   2.642
 3405TIP3    H110168   1.367   2.687   2.569
 3405TIP3    H210169   1.308   2.699   2.708
 3406TIP3   OH210170   2.000   2.805   2.850
 3406TIP3    H110171   2.057   2.850   2.785
 3406TIP3    H210172   2.037   2.839   2.933
 3407TIP3   OH210173   2.538   2.949   2.832
 3407TIP3    H110174   2.553   2.909   2.745
 3407TIP3    H210175   2.529   2.869   2.888
 3408TIP3   OH210176   2.579   2.871   2.394
 3408TIP3    H110177   2.494   2.917   2.410
 3408TIP3    H210178   2.564   2.786   2.441
 3409TIP3   OH210179   1.062   4.214   2.396
 3409TIP3    H110180   0.976   4.181   2.363
 3409TIP3    H210181   1.055   4.307   2.367
 3410TIP3   OH210182   1.979   2.981   2.469
 3410TIP3    H110183   2.032   2.929   2.531
 3410TIP3    H210184   2.002   3.072   2.499
 3411TIP3   OH210185   1.836   4.397   1.978
 3411TIP3    H110186   1.924   4.420   1.940
 3411TIP3    H210187   1.813   4.323   1.916
 3412TIP3   OH210188   2.556   4.517   2.070
 3412TIP3    H110189   2.549   4.419   2.059
 3412TIP3    H210190   2.509   4.547   1.989
 3413TIP3   OH210191   1.768   3.049   3.855
 3413TIP3    H110192   1.731   2.980   3.912
 3413TIP3    H210193   1.862   3.048   3.885
 3414TIP3   OH210194   2.017   3.044   3.974
 3414TIP3    H110195   2.104   3.019   3.937
 3414TIP3    H210196   2.004   2.976   4.043
 3415TIP3   OH210197   1.138   4.228   2.029
 3415TIP3    H110198   1.148   4.258   2.121
 3415TIP3    H210199   1.226   4.186   2.012
 3416TIP3   OH210200   2.842   3.113   3.764
 3416TIP3    H110201   2.862   3.081   3.854
 3416TIP3    H210202   2.931   3.109   3.721
 3417TIP3   OH210203   2.779   4.662   3.257
 3417TIP3    H110204   2.701   4.631   3.206
 3417TIP3    H210205   2.757   4.757   3.264
 3418TIP3   OH210206   4.039   4.032   2.024
 3418TIP3    H110207   4.018   4.125   2.006
 3418TIP3    H210208   3.959   3.988   1.990
 3419TIP3   OH210209   4.051   4.029   2.403
 3419TIP3    H110210   4.082   4.010   2.493
 3419TIP3    H210211   4.005   3.947   2.379
 3420TIP3   OH210212   3.345   3.926   2.767
 3420TIP3    H110213   3.374   3.856   2.829
 3420TIP3    H210214   3.422   3.985   2.771
 3421TIP3   OH210215   4.300   4.314   2.084
 3421TIP3    H110216   4.263   4.297   2.170
 3421TIP3    H210217   4.301   4.412   2.082
 3422TIP3   OH210218   3.318   4.340   2.491
 3422TIP3    H110219   3.310   4.242   2.492
 3422TIP3    H210220   3.414   4.349   2.485
 3423TIP3   OH210221   3.025   3.539   2.274
 3423TIP3    H110222   2.978   3.622   2.294
 3423TIP3    H210223   2.954   3.487   2.233
 3424TIP3   OH210224   3.082   3.828   2.453
 3424TIP3    H110225   3.131   3.749   2.487
 3424TIP3    H210226   3.143   3.861   2.385
 3425TIP3   OH210227   3.976   4.746   2.081
 3425TIP3    H110228   4.067   4.707   2.081
 3425TIP3    H210229   3.951   4.730   2.173
 3426TIP3   OH210230   3.844   4.262   2.454
 3426TIP3    H110231   3.887   4.188   2.407
 3426TIP3    H210232   3.925   4.313   2.477
 3427TIP3   OH210233   4.866   3.578   2.448
 3427TIP3    H110234   4.888   3.660   2.498
 3427TIP3    H210235   4.893   3.603   2.358
 3428TIP3   OH210236   4.267   3.763   2.481
 3428TIP3    H110237   4.299   3.673   2.500
 3428TIP3    H210238   4.225   3.749   2.394
 3429TIP3   OH210239   3.601   3.420   2.446
 3429TIP3    H110240   3.577   3.493   2.384
 3429TIP3    H210241   3.551   3.346   2.405
 3430TIP3   OH210242   4.273   3.508   2.073
 3430TIP3    H110243   4.347   3.468   2.121
 3430TIP3    H210244   4.310   3.524   1.986
 3431TIP3   OH210245   3.230   3.621   2.555
 3431TIP3    H110246   3.312   3.603   2.604
 3431TIP3    H210247   3.244   3.565   2.476
 3432TIP3   OH210248   3.669   3.819   2.349
 3432TIP3    H110249   3.762   3.794   2.363
 3432TIP3    H210250   3.630   3.735   2.317
 3433TIP3   OH210251   4.930   3.787   2.620
 3433TIP3    H110252   4.846   3.834   2.602
 3433TIP3    H210253   4.954   3.826   2.706
 3434TIP3   OH210254   3.594   3.403   2.883
 3434TIP3    H110255   3.532   3.439   2.816
 3434TIP3    H210256   3.541   3.417   2.964
 3435TIP3   OH210257   3.947   4.262   1.884
 3435TIP3    H110258   3.899   4.247   1.801
 3435TIP3    H210259   3.907   4.346   1.914
 3436TIP3   OH210260   3.700   4.180   2.676
 3436TIP3    H110261   3.640   4.248   2.713
 3436TIP3    H210262   3.742   4.227   2.601
 3437TIP3   OH210263   4.542   3.536   2.218
 3437TIP3    H110264   4.504   3.471   2.279
 3437TIP3    H210265   4.550   3.614   2.279
 3438TIP3   OH210266   3.465   3.518   2.666
 3438TIP3    H110267   3.527   3.590   2.692
 3438TIP3    H210268   3.515   3.478   2.591
 3439TIP3   OH210269   3.528   4.375   2.777
 3439TIP3    H110270   3.502   4.462   2.740
 3439TIP3    H210271   3.449   4.357   2.832
 3440TIP3   OH210272   2.919   4.064   2.011
 3440TIP3    H110273   2.878   4.094   1.928
 3440TIP3    H210274   2.953   4.149   2.048
 3441TIP3   OH210275   4.655   3.478   2.617
 3441TIP3    H110276   4.566   3.503   2.587
 3441TIP3    H210277   4.712   3.511   2.545
 3442TIP3   OH210278   3.947   3.120   2.601
 3442TIP3    H110279   3.928   3.026   2.618
 3442TIP3    H210280   3.869   3.161   2.646
 3443TIP3   OH210281   4.217   4.390   1.785
 3443TIP3    H110282   4.145   4.338   1.822
 3443TIP3    H210283   4.253   4.431   1.865
 3444TIP3   OH210284   4.586   4.493   2.593
 3444TIP3    H110285   4.573   4.414   2.536
 3444TIP3    H210286   4.561   4.565   2.531
 3445TIP3   OH210287   3.875   3.883   1.853
 3445TIP3    H110288   3.795   3.937   1.835
 3445TIP3    H210289   3.920   3.884   1.767
 3446TIP3   OH210290   3.836   3.672   1.564
 3446TIP3    H110291   3.900   3.725   1.614
 3446TIP3    H210292   3.897   3.609   1.519
 3447TIP3   OH210293   4.781   4.127   2.440
 3447TIP3    H110294   4.697   4.178   2.445
 3447TIP3    H210295   4.812   4.154   2.351
 3448TIP3   OH210296   4.221   3.964   1.837
 3448TIP3    H110297   4.154   3.993   1.903
 3448TIP3    H210298   4.298   3.957   1.895
 3449TIP3   OH210299   4.460   4.005   2.739
 3449TIP3    H110300   4.457   4.089   2.789
 3449TIP3    H210301   4.373   4.010   2.693
 3450TIP3   OH210302   3.457   3.964   2.242
 3450TIP3    H110303   3.417   3.906   2.175
 3450TIP3    H210304   3.534   3.911   2.272
 3451TIP3   OH210305   3.587   4.377   2.391
 3451TIP3    H110306   3.568   4.340   2.303
 3451TIP3    H210307   3.677   4.343   2.409
 3452TIP3   OH210308   3.597   3.935   2.597
 3452TIP3    H110309   3.628   3.913   2.507
 3452TIP3    H210310   3.639   4.022   2.614
 3453TIP3   OH210311   4.033   4.584   2.405
 3453TIP3    H110312   4.104   4.649   2.416
 3453TIP3    H210313   4.076   4.501   2.432
 3454TIP3   OH210314   3.732   4.492   2.923
 3454TIP3    H110315   3.670   4.554   2.967
 3454TIP3    H210316   3.669   4.439   2.870
 3455TIP3   OH210317   4.069   3.820   1.653
 3455TIP3    H110318   4.126   3.885   1.701
 3455TIP3    H210319   4.093   3.841   1.559
 3456TIP3   OH210320   3.487   4.047   3.021
 3456TIP3    H110321   3.493   4.134   3.066
 3456TIP3    H210322   3.393   4.025   3.039
 3457TIP3   OH210323   3.827   4.518   1.925
 3457TIP3    H110324   3.864   4.588   1.982
 3457TIP3    H210325   3.759   4.566   1.876
 3458TIP3   OH210326   3.526   4.660   3.008
 3458TIP3    H110327   3.490   4.662   2.917
 3458TIP3    H210328   3.445   4.639   3.061
 3459TIP3   OH210329   3.325   3.808   2.044
 3459TIP3    H110330   3.256   3.851   1.990
 3459TIP3    H210331   3.287   3.721   2.059
 3460TIP3   OH210332   4.379   4.430   1.243
 3460TIP3    H110333   4.387   4.528   1.235
 3460TIP3    H210334   4.473   4.404   1.236
 3461TIP3   OH210335   3.105   4.192   2.955
 3461TIP3    H110336   3.037   4.172   2.887
 3461TIP3    H210337   3.142   4.104   2.975
 3462TIP3   OH210338   2.960   4.391   2.576
 3462TIP3    H110339   3.055   4.376   2.574
 3462TIP3    H210340   2.953   4.462   2.641
 3463TIP3   OH210341   4.823   4.839   2.644
 3463TIP3    H110342   4.821   4.743   2.658
 3463TIP3    H210343   4.740   4.864   2.690
 3464TIP3   OH210344   3.931   4.618   2.783
 3464TIP3    H110345   3.926   4.711   2.811
 3464TIP3    H210346   3.857   4.579   2.834
 3465TIP3   OH210347   3.690   4.745   1.732
 3465TIP3    H110348   3.649   4.733   1.645
 3465TIP3    H210349   3.661   4.835   1.756
 3466TIP3   OH210350   3.128   4.598   2.116
 3466TIP3    H110351   3.176   4.590   2.202
 3466TIP3    H210352   3.079   4.514   2.115
 3467TIP3   OH210353   3.888   4.651   1.367
 3467TIP3    H110354   3.949   4.583   1.332
 3467TIP3    H210355   3.925   4.665   1.457
 3468TIP3   OH210356   3.945   4.702   1.636
 3468TIP3    H110357   3.859   4.706   1.684
 3468TIP3    H210358   4.006   4.678   1.707
 3469TIP3   OH210359   4.714   3.965   2.917
 3469TIP3    H110360   4.629   3.979   2.873
 3469TIP3    H210361   4.727   3.869   2.906
 3470TIP3   OH210362   3.308   4.376   2.940
 3470TIP3    H110363   3.358   4.358   3.022
 3470TIP3    H210364   3.234   4.312   2.947
 3471TIP3   OH210365   3.710   3.199   2.726
 3471TIP3    H110366   3.621   3.167   2.698
 3471TIP3    H210367   3.681   3.277   2.778
 3472TIP3   OH210368   4.241   3.313   2.922
 3472TIP3    H110369   4.308   3.285   2.988
 3472TIP3    H210370   4.157   3.294   2.968
 3473TIP3   OH210371   4.484   3.745   2.843
 3473TIP3    H110372   4.429   3.741   2.925
 3473TIP3    H210373   4.457   3.831   2.804
 3474TIP3   OH210374   4.139   3.863   1.396
 3474TIP3    H110375   4.109   3.844   1.305
 3474TIP3    H210376   4.217   3.919   1.379
 3475TIP3   OH210377   3.856   3.244   1.698
 3475TIP3    H110378   3.820   3.240   1.789
 3475TIP3    H210379   3.813   3.164   1.661
 3476TIP3   OH210380   3.642   3.714   2.747
 3476TIP3    H110381   3.590   3.734   2.828
 3476TIP3    H210382   3.626   3.795   2.694
 3477TIP3   OH210383   3.524   3.600   2.259
 3477TIP3    H110384   3.432   3.574   2.278
 3477TIP3    H210385   3.535   3.559   2.170
 3478TIP3   OH210386   4.015   3.684   1.988
 3478TIP3    H110387   3.964   3.757   1.945
 3478TIP3    H210388   4.079   3.661   1.919
 3479TIP3   OH210389   4.189   3.958   3.071
 3479TIP3    H110390   4.167   3.889   3.137
 3479TIP3    H210391   4.281   3.979   3.097
 3480TIP3   OH210392   4.162   3.714   2.232
 3480TIP3    H110393   4.102   3.751   2.164
 3480TIP3    H210394   4.192   3.634   2.183
 3481TIP3   OH210395   3.461   3.740   2.954
 3481TIP3    H110396   3.482   3.804   3.024
 3481TIP3    H210397   3.450   3.657   3.004
 3482TIP3   OH210398   3.511   3.222   1.664
 3482TIP3    H110399   3.500   3.219   1.761
 3482TIP3    H210400   3.432   3.275   1.638
 3483TIP3   OH210401   3.052   3.262   2.534
 3483TIP3    H110402   3.126   3.295   2.590
 3483TIP3    H210403   3.096   3.231   2.454
 3484TIP3   OH210404   3.019   3.243   2.054
 3484TIP3    H110405   3.066   3.279   1.976
 3484TIP3    H210406   2.960   3.318   2.073
 3485TIP3   OH210407   4.183   3.957   2.647
 3485TIP3    H110408   4.219   3.888   2.587
 3485TIP3    H210409   4.151   3.901   2.721
 3486TIP3   OH210410   3.857   3.420   2.321
 3486TIP3    H110411   3.771   3.420   2.369
 3486TIP3    H210412   3.920   3.421   2.394
 3487TIP3   OH210413   3.287   3.479   2.327
 3487TIP3    H110414   3.192   3.487   2.299
 3487TIP3    H210415   3.308   3.387   2.306
 3488TIP3   OH210416   3.551   3.472   2.018
 3488TIP3    H110417   3.645   3.487   1.994
 3488TIP3    H210418   3.503   3.493   1.935
 3489TIP3   OH210419   4.339   3.496   2.514
 3489TIP3    H110420   4.315   3.510   2.608
 3489TIP3    H210421   4.268   3.435   2.487
 3490TIP3   OH210422   3.401   3.508   1.796
 3490TIP3    H110423   3.328   3.463   1.749
 3490TIP3    H210424   3.451   3.544   1.720
 3491TIP3   OH210425   4.517   5.186   2.742
 3491TIP3    H110426   4.513   5.209   2.648
 3491TIP3    H210427   4.596   5.235   2.771
 3492TIP3   OH210428   3.471   4.299   3.160
 3492TIP3    H110429   3.550   4.328   3.210
 3492TIP3    H210430   3.407   4.291   3.233
 3493TIP3   OH210431   3.930   3.751   2.422
 3493TIP3    H110432   4.004   3.711   2.374
 3493TIP3    H210433   3.934   3.707   2.509
 3494TIP3   OH210434   3.454   3.236   2.301
 3494TIP3    H110435   3.417   3.160   2.350
 3494TIP3    H210436   3.499   3.192   2.228
 3495TIP3   OH210437   3.911   3.653   2.702
 3495TIP3    H110438   3.820   3.685   2.719
 3495TIP3    H210439   3.966   3.714   2.755
 3496TIP3   OH210440   3.648   4.036   1.803
 3496TIP3    H110441   3.575   3.971   1.791
 3496TIP3    H210442   3.627   4.071   1.893
 3497TIP3   OH210443   4.548   4.270   2.433
 3497TIP3    H110444   4.570   4.321   2.352
 3497TIP3    H210445   4.463   4.228   2.407
 3498TIP3   OH210446   4.103   3.349   1.672
 3498TIP3    H110447   4.008   3.322   1.676
 3498TIP3    H210448   4.100   3.445   1.687
 3499TIP3   OH210449   4.048   4.356   2.800
 3499TIP3    H110450   4.073   4.341   2.892
 3499TIP3    H210451   4.010   4.446   2.803
 3500TIP3   OH210452   4.199   3.607   1.768
 3500TIP3    H110453   4.277   3.596   1.712
 3500TIP3    H210454   4.158   3.686   1.728
 3501TIP3   OH210455   3.341   4.062   2.478
 3501TIP3    H110456   3.380   4.031   2.393
 3501TIP3    H210457   3.381   4.002   2.542
 3502TIP3   OH210458   3.791   4.185   1.623
 3502TIP3    H110459   3.743   4.271   1.627
 3502TIP3    H210460   3.738   4.132   1.687
 3503TIP3   OH210461   3.224   3.978   3.090
 3503TIP3    H110462   3.241   3.966   3.186
 3503TIP3    H210463   3.153   3.913   3.075
 3504TIP3   OH210464   3.948   4.096   3.110
 3504TIP3    H110465   3.884   4.034   3.071
 3504TIP3    H210466   4.032   4.059   3.078
 3505TIP3   OH210467   4.211   4.612   2.698
 3505TIP3    H110468   4.113   4.612   2.702
 3505TIP3    H210469   4.232   4.668   2.776
 3506TIP3   OH210470   4.635   3.695   1.585
 3506TIP3    H110471   4.563   3.648   1.538
 3506TIP3    H210472   4.618   3.785   1.547
 3507TIP3   OH210473   4.836   4.547   2.684
 3507TIP3    H110474   4.739   4.543   2.675
 3507TIP3    H210475   4.863   4.517   2.594
 3508TIP3   OH210476   4.317   4.507   1.520
 3508TIP3    H110477   4.280   4.452   1.592
 3508TIP3    H210478   4.322   4.446   1.444
 3509TIP3   OH210479   4.316   4.131   2.359
 3509TIP3    H110480   4.221   4.110   2.368
 3509TIP3    H210481   4.342   4.067   2.291
 3510TIP3   OH210482   3.443   4.366   2.101
 3510TIP3    H110483   3.437   4.447   2.047
 3510TIP3    H210484   3.350   4.346   2.116
 3511TIP3   OH210485   3.006   3.668   1.808
 3511TIP3    H110486   3.050   3.753   1.830
 3511TIP3    H210487   2.929   3.671   1.870
 3512TIP3   OH210488   3.575   4.128   2.045
 3512TIP3    H110489   3.541   4.217   2.065
 3512TIP3    H210490   3.540   4.077   2.121
 3513TIP3   OH210491   3.712   4.709   2.571
 3513TIP3    H110492   3.757   4.777   2.517
 3513TIP3    H210493   3.789   4.664   2.609
 3514TIP3   OH210494   3.359   4.604   1.954
 3514TIP3    H110495   3.275   4.614   2.002
 3514TIP3    H210496   3.392   4.697   1.957
 3515TIP3   OH210497   4.104   4.331   2.531
 3515TIP3    H110498   4.090   4.335   2.628
 3515TIP3    H210499   4.187   4.281   2.527
 3516TIP3   OH210500   4.073   4.234   1.412
 3516TIP3    H110501   4.129   4.199   1.485
 3516TIP3    H210502   3.985   4.213   1.445
 3517TIP3   OH210503   4.351   4.878   2.574
 3517TIP3    H110504   4.266   4.828   2.572
 3517TIP3    H210505   4.334   4.939   2.500
 3518TIP3   OH210506   4.413   4.707   1.232
 3518TIP3    H110507   4.442   4.780   1.175
 3518TIP3    H210508   4.333   4.749   1.271
 3519TIP3   OH210509   3.431   3.484   3.095
 3519TIP3    H110510   3.335   3.486   3.111
 3519TIP3    H210511   3.463   3.432   3.170
 3520TIP3   OH210512   4.234   4.130   1.607
 3520TIP3    H110513   4.224   4.093   1.696
 3520TIP3    H210514   4.328   4.158   1.610
 3521TIP3   OH210515   3.148   4.567   2.731
 3521TIP3    H110516   3.202   4.493   2.763
 3521TIP3    H210517   3.178   4.638   2.789
 3522TIP3   OH210518   3.437   4.215   1.414
 3522TIP3    H110519   3.453   4.122   1.389
 3522TIP3    H210520   3.417   4.205   1.509
 3523TIP3   OH210521   3.383   4.221   1.686
 3523TIP3    H110522   3.457   4.194   1.742
 3523TIP3    H210523   3.386   4.319   1.694
 3524TIP3   OH210524   3.117   3.912   1.890
 3524TIP3    H110525   3.051   3.957   1.947
 3524TIP3    H210526   3.130   3.981   1.822
 3525TIP3   OH210527   4.281   3.543   2.775
 3525TIP3    H110528   4.352   3.586   2.826
 3525TIP3    H210529   4.260   3.465   2.831
 3526TIP3   OH210530   4.123   3.300   1.950
 3526TIP3    H110531   4.124   3.315   1.853
 3526TIP3    H210532   4.160   3.384   1.984
 3527TIP3   OH210533   3.650   4.415   1.635
 3527TIP3    H110534   3.562   4.441   1.669
 3527TIP3    H210535   3.671   4.494   1.581
 3528TIP3   OH210536   3.837   3.481   2.051
 3528TIP3    H110537   3.900   3.555   2.034
 3528TIP3    H210538   3.842   3.475   2.149
 3529TIP3   OH210539   4.109   3.798   2.856
 3529TIP3    H110540   4.129   3.856   2.932
 3529TIP3    H210541   4.161   3.718   2.876
 3530TIP3   OH210542   3.976   3.201   2.157
 3530TIP3    H110543   3.962   3.284   2.207
 3530TIP3    H210544   4.033   3.235   2.084
 3531TIP3   OH210545   3.395   4.492   1.704
 3531TIP3    H110546   3.366   4.563   1.642
 3531TIP3    H210547   3.380   4.535   1.791
 3532TIP3   OH210548   3.495   3.207   1.940
 3532TIP3    H110549   3.492   3.297   1.978
 3532TIP3    H210550   3.591   3.190   1.947
 3533TIP3   OH210551   4.749   3.695   2.841
 3533TIP3    H110552   4.651   3.696   2.849
 3533TIP3    H210553   4.758   3.658   2.753
 3534TIP3   OH210554   4.404   3.882   2.203
 3534TIP3    H110555   4.322   3.833   2.221
 3534TIP3    H210556   4.468   3.841   2.264
 3535TIP3   OH210557   3.113   4.118   1.694
 3535TIP3    H110558   3.182   4.186   1.704
 3535TIP3    H210559   3.157   4.061   1.627
 3536TIP3   OH210560   3.055   3.398   1.831
 3536TIP3    H110561   3.055   3.496   1.828
 3536TIP3    H210562   2.974   3.377   1.782
 3537TIP3   OH210563   3.445   3.120   2.699
 3537TIP3    H110564   3.414   3.079   2.617
 3537TIP3    H210565   3.437   3.046   2.763
 3538TIP3   OH210566   2.980   4.336   2.077
 3538TIP3    H110567   2.917   4.364   2.144
 3538TIP3    H210568   2.944   4.379   1.996
 3539TIP3   OH210569   3.141   4.882   3.155
 3539TIP3    H110570   3.228   4.881   3.200
 3539TIP3    H210571   3.121   4.787   3.152
 3540TIP3   OH210572   3.619   4.842   3.196
 3540TIP3    H110573   3.713   4.820   3.203
 3540TIP3    H210574   3.591   4.780   3.125
 3541TIP3   OH210575   3.600   4.417   1.322
 3541TIP3    H110576   3.545   4.346   1.362
 3541TIP3    H210577   3.678   4.367   1.294
 3542TIP3   OH210578   4.257   4.753   2.933
 3542TIP3    H110579   4.249   4.681   3.000
 3542TIP3    H210580   4.336   4.801   2.965
 3543TIP3   OH210581   4.036   4.457   1.237
 3543TIP3    H110582   4.080   4.395   1.299
 3543TIP3    H210583   4.096   4.456   1.160
 3544TIP3   OH210584   3.271   4.286   3.354
 3544TIP3    H110585   3.288   4.190   3.361
 3544TIP3    H210586   3.184   4.287   3.308
 3545TIP3   OH210587   3.248   3.934   1.549
 3545TIP3    H110588   3.304   3.903   1.623
 3545TIP3    H210589   3.315   3.939   1.477
 3546TIP3   OH210590   3.875   4.372   3.129
 3546TIP3    H110591   3.835   4.393   3.042
 3546TIP3    H210592   3.905   4.279   3.117
 3547TIP3   OH210593   3.759   4.135   1.355
 3547TIP3    H110594   3.763   4.146   1.452
 3547TIP3    H210595   3.760   4.037   1.349
 3548TIP3   OH210596   4.371   4.381   2.736
 3548TIP3    H110597   4.445   4.426   2.691
 3548TIP3    H210598   4.300   4.447   2.721
 3549TIP3   OH210599   3.391   4.025   3.335
 3549TIP3    H110600   3.442   3.943   3.330
 3549TIP3    H210601   3.417   4.053   3.426
 3550TIP3   OH210602   3.453   3.841   1.769
 3550TIP3    H110603   3.426   3.800   1.852
 3550TIP3    H210604   3.491   3.764   1.720
 3551TIP3   OH210605   3.728   3.907   3.000
 3551TIP3    H110606   3.647   3.961   2.998
 3551TIP3    H210607   3.778   3.941   2.922
 3552TIP3   OH210608   3.557   3.635   1.609
 3552TIP3    H110609   3.531   3.643   1.514
 3552TIP3    H210610   3.654   3.636   1.601
 3553TIP3   OH210611   4.241   4.305   3.133
 3553TIP3    H110612   4.319   4.277   3.085
 3553TIP3    H210613   4.237   4.241   3.207
 3554TIP3   OH210614   4.378   3.961   1.274
 3554TIP3    H110615   4.355   3.919   1.189
 3554TIP3    H210616   4.344   4.052   1.256
 3555TIP3   OH210617   3.857   3.693   3.114
 3555TIP3    H110618   3.849   3.613   3.057
 3555TIP3    H210619   3.808   3.760   3.062
 3556TIP3   OH210620   3.852   3.479   2.929
 3556TIP3    H110621   3.877   3.520   2.844
 3556TIP3    H210622   3.758   3.455   2.913
 3557TIP3   OH210623   3.876   4.013   2.803
 3557TIP3    H110624   3.961   4.031   2.760
 3557TIP3    H210625   3.817   4.078   2.759
 3558TIP3   OH210626   4.457   3.980   3.184
 3558TIP3    H110627   4.509   3.899   3.190
 3558TIP3    H210628   4.522   4.045   3.154
 3559TIP3   OH210629   4.500   4.233   2.921
 3559TIP3    H110630   4.441   4.288   2.863
 3559TIP3    H210631   4.587   4.255   2.881
 3560TIP3   OH210632   3.746   3.796   3.356
 3560TIP3    H110633   3.662   3.753   3.379
 3560TIP3    H210634   3.760   3.766   3.265
 3561TIP3   OH210635   3.982   3.241   3.002
 3561TIP3    H110636   3.931   3.322   2.977
 3561TIP3    H210637   3.913   3.172   2.990
 3562TIP3   OH210638   4.109   3.741   3.219
 3562TIP3    H110639   4.083   3.733   3.312
 3562TIP3    H210640   4.022   3.720   3.177
 3563TIP3   OH210641   4.345   3.690   3.069
 3563TIP3    H110642   4.270   3.697   3.131
 3563TIP3    H210643   4.419   3.666   3.128
 3564TIP3   OH210644   4.580   3.642   3.224
 3564TIP3    H110645   4.588   3.547   3.242
 3564TIP3    H210646   4.573   3.681   3.314
 3565TIP3   OH210647   3.558   3.586   3.387
 3565TIP3    H110648   3.560   3.490   3.366
 3565TIP3    H210649   3.610   3.586   3.470
 3566TIP3   OH210650   4.079   3.251   3.258
 3566TIP3    H110651   4.142   3.177   3.248
 3566TIP3    H210652   4.035   3.249   3.171
 3567TIP3   OH210653   4.144   3.467   3.417
 3567TIP3    H110654   4.121   3.397   3.352
 3567TIP3    H210655   4.066   3.526   3.412
 3568TIP3   OH210656   3.364   4.695   1.515
 3568TIP3    H110657   3.460   4.686   1.499
 3568TIP3    H210658   3.339   4.747   1.437
 3569TIP3   OH210659   2.843   4.079   1.729
 3569TIP3    H110660   2.938   4.099   1.715
 3569TIP3    H210661   2.837   3.989   1.689
 3570TIP3   OH210662   2.759   4.690   2.148
 3570TIP3    H110663   2.694   4.628   2.108
 3570TIP3    H210664   2.804   4.630   2.212
 3571TIP3   OH210665   2.893   4.536   2.334
 3571TIP3    H110666   2.884   4.465   2.400
 3571TIP3    H210667   2.947   4.599   2.385
 3572TIP3   OH210668   4.648   4.916   2.133
 3572TIP3    H110669   4.643   4.960   2.219
 3572TIP3    H210670   4.669   4.990   2.074
 3573TIP3   OH210671   4.645   4.961   2.417
 3573TIP3    H110672   4.601   4.875   2.404
 3573TIP3    H210673   4.720   4.933   2.471
 3574TIP3   OH210674   4.695   4.639   2.987
 3574TIP3    H110675   4.623   4.648   3.053
 3574TIP3    H210676   4.738   4.727   2.992
 3575TIP3   OH210677   4.519   4.147   1.607
 3575TIP3    H110678   4.582   4.216   1.578
 3575TIP3    H210679   4.563   4.113   1.688
 3576TIP3   OH210680   4.640   4.020   1.828
 3576TIP3    H110681   4.576   4.039   1.897
 3576TIP3    H210682   4.723   4.057   1.866
 3577TIP3   OH210683   4.699   4.411   2.248
 3577TIP3    H110684   4.743   4.346   2.190
 3577TIP3    H210685   4.695   4.490   2.190
 3578TIP3   OH210686   4.514   4.709   2.424
 3578TIP3    H110687   4.445   4.752   2.478
 3578TIP3    H210688   4.466   4.688   2.341
 3579TIP3   OH210689   4.579   3.927   1.453
 3579TIP3    H110690   4.506   3.928   1.386
 3579TIP3    H210691   4.549   4.002   1.509
 3580TIP3   OH210692   4.444   3.597   1.420
 3580TIP3    H110693   4.403   3.632   1.340
 3580TIP3    H210694   4.425   3.501   1.410
 3581TIP3   OH210695   3.080   3.946   2.704
 3581TIP3    H110696   3.077   3.913   2.612
 3581TIP3    H210697   3.177   3.947   2.720
 3582TIP3   OH210698   4.744   4.299   2.812
 3582TIP3    H110699   4.817   4.233   2.801
 3582TIP3    H210700   4.768   4.368   2.748
 3583TIP3   OH210701   4.929   4.100   2.819
 3583TIP3    H110702   4.855   4.054   2.864
 3583TIP3    H210703   5.001   4.038   2.839
 3584TIP3   OH210704   4.395   3.330   1.401
 3584TIP3    H110705   4.470   3.301   1.457
 3584TIP3    H210706   4.326   3.265   1.422
 3585TIP3   OH210707   4.617   3.758   2.351
 3585TIP3    H110708   4.702   3.790   2.313
 3585TIP3    H210709   4.624   3.798   2.440
 3586TIP3   OH210710   4.680   3.907   2.575
 3586TIP3    H110711   4.603   3.941   2.624
 3586TIP3    H210712   4.711   3.989   2.531
 3587TIP3   OH210713   3.292   3.630   3.364
 3587TIP3    H110714   3.390   3.635   3.374
 3587TIP3    H210715   3.274   3.548   3.413
 3588TIP3   OH210716   5.144   3.498   3.138
 3588TIP3    H110717   5.201   3.436   3.087
 3588TIP3    H210718   5.105   3.551   3.064
 3589TIP3   OH210719   4.548   3.381   1.940
 3589TIP3    H110720   4.604   3.315   1.984
 3589TIP3    H210721   4.486   3.316   1.898
 3590TIP3   OH210722   3.258   3.327   2.707
 3590TIP3    H110723   3.318   3.251   2.717
 3590TIP3    H210724   3.322   3.400   2.700
 3591TIP3   OH210725   3.059   3.599   2.779
 3591TIP3    H110726   3.110   3.598   2.696
 3591TIP3    H210727   3.087   3.682   2.819
 3592TIP3   OH210728   5.001   3.631   2.950
 3592TIP3    H110729   4.920   3.681   2.971
 3592TIP3    H210730   4.965   3.567   2.885
 3593TIP3   OH210731   4.649   3.290   1.519
 3593TIP3    H110732   4.675   3.206   1.475
 3593TIP3    H210733   4.724   3.349   1.500
 3594TIP3   OH210734   3.047   3.101   2.283
 3594TIP3    H110735   2.955   3.099   2.311
 3594TIP3    H210736   3.043   3.160   2.204
 3595TIP3   OH210737   4.185   4.833   1.796
 3595TIP3    H110738   4.239   4.814   1.717
 3595TIP3    H210739   4.235   4.789   1.867
 3596TIP3   OH210740   3.272   3.189   3.102
 3596TIP3    H110741   3.218   3.184   3.182
 3596TIP3    H210742   3.205   3.217   3.036
 3597TIP3   OH210743   3.305   4.618   3.172
 3597TIP3    H110744   3.213   4.587   3.158
 3597TIP3    H210745   3.322   4.591   3.263
 3598TIP3   OH210746   3.486   4.647   2.721
 3598TIP3    H110747   3.439   4.723   2.681
 3598TIP3    H210748   3.573   4.660   2.678
 3599TIP3   OH210749   3.925   4.888   2.861
 3599TIP3    H110750   3.969   4.887   2.948
 3599TIP3    H210751   3.990   4.940   2.808
 3600TIP3   OH210752   4.101   5.045   2.722
 3600TIP3    H110753   4.164   4.993   2.671
 3600TIP3    H210754   4.160   5.097   2.781
 3601TIP3   OH210755   4.902   3.401   2.817
 3601TIP3    H110756   4.811   3.395   2.781
 3601TIP3    H210757   4.932   3.308   2.806
 3602TIP3   OH210758   3.159   4.902   2.744
 3602TIP3    H110759   3.069   4.937   2.723
 3602TIP3    H210760   3.171   4.940   2.832
 3603TIP3   OH210761   3.397   4.881   2.605
 3603TIP3    H110762   3.309   4.893   2.647
 3603TIP3    H210763   3.379   4.911   2.513
 3604TIP3   OH210764   3.823   4.906   2.400
 3604TIP3    H110765   3.751   4.926   2.337
 3604TIP3    H210766   3.838   4.993   2.442
 3605TIP3   OH210767   4.101   4.861   2.465
 3605TIP3    H110768   4.007   4.853   2.440
 3605TIP3    H210769   4.135   4.922   2.398
 3606TIP3   OH210770   4.305   5.038   2.346
 3606TIP3    H110771   4.283   5.128   2.315
 3606TIP3    H210772   4.322   4.994   2.261
 3607TIP3   OH210773   3.071   4.694   2.491
 3607TIP3    H110774   3.099   4.666   2.581
 3607TIP3    H210775   3.142   4.650   2.439
 3608TIP3   OH210776   3.266   4.567   2.349
 3608TIP3    H110777   3.281   4.483   2.399
 3608TIP3    H210778   3.358   4.601   2.345
 3609TIP3   OH210779   3.533   4.659   2.354
 3609TIP3    H110780   3.565   4.568   2.342
 3609TIP3    H210781   3.582   4.682   2.436
 3610TIP3   OH210782   4.116   3.316   2.447
 3610TIP3    H110783   4.065   3.249   2.495
 3610TIP3    H210784   4.174   3.262   2.391
 3611TIP3   OH210785   4.632   3.204   2.351
 3611TIP3    H110786   4.667   3.247   2.271
 3611TIP3    H210787   4.535   3.207   2.336
 3612TIP3   OH210788   4.736   3.293   2.113
 3612TIP3    H110789   4.795   3.227   2.071
 3612TIP3    H210790   4.791   3.372   2.101
 3613TIP3   OH210791   3.356   3.020   2.447
 3613TIP3    H110792   3.264   2.991   2.461
 3613TIP3    H210793   3.401   2.933   2.444
 3614TIP3   OH210794   3.135   2.894   2.087
 3614TIP3    H110795   3.170   2.953   2.018
 3614TIP3    H210796   3.123   2.955   2.162
 3615TIP3   OH210797   3.801   3.053   2.335
 3615TIP3    H110798   3.859   3.100   2.273
 3615TIP3    H210799   3.821   3.097   2.418
 3616TIP3   OH210800   4.359   3.201   2.298
 3616TIP3    H110801   4.345   3.151   2.216
 3616TIP3    H210802   4.341   3.132   2.366
 3617TIP3   OH210803   4.387   3.152   1.911
 3617TIP3    H110804   4.297   3.160   1.876
 3617TIP3    H210805   4.386   3.057   1.933
 3618TIP3   OH210806   2.860   4.469   1.878
 3618TIP3    H110807   2.774   4.436   1.846
 3618TIP3    H210808   2.850   4.563   1.854
 3619TIP3   OH210809   3.262   3.055   1.864
 3619TIP3    H110810   3.306   2.990   1.805
 3619TIP3    H210811   3.339   3.106   1.897
 3620TIP3   OH210812   3.772   3.231   1.961
 3620TIP3    H110813   3.828   3.181   2.022
 3620TIP3    H210814   3.796   3.323   1.988
 3621TIP3   OH210815   3.632   4.652   1.465
 3621TIP3    H110816   3.720   4.675   1.429
 3621TIP3    H210817   3.610   4.578   1.404
 3622TIP3   OH210818   4.355   4.774   1.559
 3622TIP3    H110819   4.349   4.676   1.546
 3622TIP3    H210820   4.307   4.805   1.479
 3623TIP3   OH210821   3.566   3.310   3.343
 3623TIP3    H110822   3.527   3.240   3.399
 3623TIP3    H210823   3.659   3.308   3.374
 3624TIP3   OH210824   3.818   3.293   3.462
 3624TIP3    H110825   3.900   3.262   3.420
 3624TIP3    H210826   3.801   3.222   3.528
 3625TIP3   OH210827   2.935   4.490   1.517
 3625TIP3    H110828   2.938   4.510   1.611
 3625TIP3    H210829   3.023   4.448   1.502
 3626TIP3   OH210830   4.640   3.368   3.251
 3626TIP3    H110831   4.658   3.336   3.342
 3626TIP3    H210832   4.728   3.361   3.210
 3627TIP3   OH210833   4.575   4.916   2.743
 3627TIP3    H110834   4.498   4.885   2.690
 3627TIP3    H210835   4.554   5.011   2.749
 3628TIP3   OH210836   5.843   4.288   1.508
 3628TIP3    H110837   5.813   4.380   1.488
 3628TIP3    H210838   5.767   4.239   1.473
 3629TIP3   OH210839   5.845   4.291   1.892
 3629TIP3    H110840   5.877   4.264   1.980
 3629TIP3    H210841   5.803   4.210   1.860
 3630TIP3   OH210842   5.143   4.182   2.254
 3630TIP3    H110843   5.173   4.114   2.318
 3630TIP3    H210844   5.218   4.243   2.255
 3631TIP3   OH210845   6.088   4.592   1.574
 3631TIP3    H110846   6.071   4.525   1.641
 3631TIP3    H210847   6.119   4.667   1.628
 3632TIP3   OH210848   5.117   4.595   1.978
 3632TIP3    H110849   5.105   4.498   1.981
 3632TIP3    H210850   5.214   4.601   1.970
 3633TIP3   OH210851   4.809   3.781   1.775
 3633TIP3    H110852   4.761   3.864   1.796
 3633TIP3    H210853   4.747   3.743   1.709
 3634TIP3   OH210854   4.882   4.085   1.930
 3634TIP3    H110855   4.931   4.008   1.966
 3634TIP3    H210856   4.950   4.131   1.879
 3635TIP3   OH210857   5.741   5.058   1.592
 3635TIP3    H110858   5.781   4.987   1.538
 3635TIP3    H210859   5.726   5.013   1.675
 3636TIP3   OH210860   5.641   4.516   1.940
 3636TIP3    H110861   5.681   4.441   1.894
 3636TIP3    H210862   5.723   4.563   1.966
 3637TIP3   OH210863   6.657   3.834   1.937
 3637TIP3    H110864   6.686   3.918   1.978
 3637TIP3    H210865   6.680   3.850   1.844
 3638TIP3   OH210866   6.051   4.015   1.970
 3638TIP3    H110867   6.096   3.931   1.990
 3638TIP3    H210868   6.022   3.998   1.878
 3639TIP3   OH210869   5.394   3.676   1.935
 3639TIP3    H110870   5.375   3.749   1.873
 3639TIP3    H210871   5.344   3.604   1.892
 3640TIP3   OH210872   6.088   3.768   1.555
 3640TIP3    H110873   6.159   3.753   1.622
 3640TIP3    H210874   6.141   3.802   1.481
 3641TIP3   OH210875   5.026   3.878   2.040
 3641TIP3    H110876   5.109   3.862   2.089
 3641TIP3    H210877   5.043   3.825   1.960
 3642TIP3   OH210878   5.466   4.074   1.837
 3642TIP3    H110879   5.560   4.050   1.849
 3642TIP3    H210880   5.428   3.990   1.804
 3643TIP3   OH210881   6.729   4.043   2.110
 3643TIP3    H110882   6.646   4.090   2.088
 3643TIP3    H210883   6.751   4.082   2.196
 3644TIP3   OH210884   5.388   3.659   2.370
 3644TIP3    H110885   5.329   3.697   2.302
 3644TIP3    H210886   5.335   3.677   2.451
 3645TIP3   OH210887   5.728   4.508   1.379
 3645TIP3    H110888   5.692   4.498   1.290
 3645TIP3    H210889   5.686   4.592   1.408
 3646TIP3   OH210890   5.495   4.436   2.162
 3646TIP3    H110891   5.435   4.504   2.199
 3646TIP3    H210892   5.536   4.484   2.087
 3647TIP3   OH210893   6.293   3.772   1.733
 3647TIP3    H110894   6.281   3.731   1.820
 3647TIP3    H210895   6.346   3.851   1.756
 3648TIP3   OH210896   5.258   3.774   2.154
 3648TIP3    H110897   5.319   3.847   2.180
 3648TIP3    H210898   5.309   3.735   2.080
 3649TIP3   OH210899   5.325   4.631   2.264
 3649TIP3    H110900   5.299   4.718   2.226
 3649TIP3    H210901   5.245   4.615   2.318
 3650TIP3   OH210902   4.717   4.321   1.498
 3650TIP3    H110903   4.674   4.349   1.416
 3650TIP3    H210904   4.747   4.407   1.534
 3651TIP3   OH210905   6.156   4.838   1.739
 3651TIP3    H110906   6.066   4.828   1.778
 3651TIP3    H210907   6.147   4.923   1.692
 3652TIP3   OH210908   6.449   3.732   2.101
 3652TIP3    H110909   6.362   3.762   2.069
 3652TIP3    H210910   6.510   3.767   2.033
 3653TIP3   OH210911   5.742   3.377   2.086
 3653TIP3    H110912   5.726   3.283   2.103
 3653TIP3    H210913   5.665   3.417   2.132
 3654TIP3   OH210914   5.854   4.882   1.410
 3654TIP3    H110915   5.903   4.798   1.393
 3654TIP3    H210916   5.918   4.946   1.371
 3655TIP3   OH210917   5.997   4.667   1.324
 3655TIP3    H110918   5.972   4.586   1.277
 3655TIP3    H210919   6.035   4.630   1.407
 3656TIP3   OH210920   6.381   4.747   2.083
 3656TIP3    H110921   6.369   4.670   2.023
 3656TIP3    H210922   6.364   4.822   2.022
 3657TIP3   OH210923   5.674   4.140   1.342
 3657TIP3    H110924   5.596   4.196   1.323
 3657TIP3    H210925   5.720   4.140   1.257
 3658TIP3   OH210926   5.634   3.925   1.053
 3658TIP3    H110927   5.697   3.981   1.102
 3658TIP3    H210928   5.696   3.866   1.006
 3659TIP3   OH210929   6.576   4.385   1.928
 3659TIP3    H110930   6.493   4.436   1.932
 3659TIP3    H210931   6.608   4.410   1.839
 3660TIP3   OH210932   6.021   4.224   1.310
 3660TIP3    H110933   5.967   4.247   1.389
 3660TIP3    H210934   6.107   4.201   1.352
 3661TIP3   OH210935   6.255   4.261   2.227
 3661TIP3    H110936   6.253   4.346   2.277
 3661TIP3    H210937   6.169   4.266   2.181
 3662TIP3   OH210938   5.253   4.219   1.730
 3662TIP3    H110939   5.213   4.163   1.661
 3662TIP3    H210940   5.331   4.167   1.759
 3663TIP3   OH210941   5.384   4.632   1.877
 3663TIP3    H110942   5.363   4.600   1.787
 3663TIP3    H210943   5.473   4.594   1.892
 3664TIP3   OH210944   5.392   4.192   2.082
 3664TIP3    H110945   5.425   4.169   1.993
 3664TIP3    H210946   5.434   4.279   2.100
 3665TIP3   OH210947   5.916   4.831   1.861
 3665TIP3    H110948   5.902   4.911   1.914
 3665TIP3    H210949   5.898   4.758   1.924
 3666TIP3   OH210950   5.529   4.749   2.409
 3666TIP3    H110951   5.467   4.811   2.453
 3666TIP3    H210952   5.465   4.696   2.356
 3667TIP3   OH210953   5.859   4.083   1.137
 3667TIP3    H110954   5.919   4.144   1.187
 3667TIP3    H210955   5.885   4.104   1.044
 3668TIP3   OH210956   5.284   4.301   2.510
 3668TIP3    H110957   5.289   4.390   2.552
 3668TIP3    H210958   5.189   4.281   2.526
 3669TIP3   OH210959   5.608   4.758   1.417
 3669TIP3    H110960   5.689   4.813   1.422
 3669TIP3    H210961   5.547   4.817   1.370
 3670TIP3   OH210962   5.323   4.916   2.496
 3670TIP3    H110963   5.289   4.919   2.404
 3670TIP3    H210964   5.242   4.893   2.547
 3671TIP3   OH210965   6.380   3.322   1.188
 3671TIP3    H110966   6.297   3.346   1.234
 3671TIP3    H210967   6.396   3.403   1.135
 3672TIP3   OH210968   5.122   4.063   1.529
 3672TIP3    H110969   5.055   4.113   1.477
 3672TIP3    H210970   5.076   3.979   1.542
 3673TIP3   OH210971   6.175   4.689   0.732
 3673TIP3    H110972   6.188   4.784   0.709
 3673TIP3    H210973   6.267   4.656   0.720
 3674TIP3   OH210974   4.901   4.449   2.440
 3674TIP3    H110975   4.831   4.433   2.373
 3674TIP3    H210976   4.936   4.360   2.457
 3675TIP3   OH210977   4.756   4.638   2.089
 3675TIP3    H110978   4.847   4.663   2.073
 3675TIP3    H210979   4.716   4.723   2.116
 3676TIP3   OH210980   6.617   5.094   2.130
 3676TIP3    H110981   6.617   4.997   2.144
 3676TIP3    H210982   6.534   5.119   2.177
 3677TIP3   OH210983   5.725   4.876   2.267
 3677TIP3    H110984   5.722   4.969   2.298
 3677TIP3    H210985   5.652   4.836   2.319
 3678TIP3   OH210986   5.491   5.008   1.217
 3678TIP3    H110987   5.442   4.989   1.135
 3678TIP3    H210988   5.454   5.093   1.245
 3679TIP3   OH210989   4.926   4.857   1.602
 3679TIP3    H110990   4.972   4.846   1.688
 3679TIP3    H210991   4.863   4.783   1.605
 3680TIP3   OH210992   5.694   4.901   0.864
 3680TIP3    H110993   5.756   4.834   0.830
 3680TIP3    H210994   5.727   4.914   0.956
 3681TIP3   OH210995   5.741   4.959   1.126
 3681TIP3    H110996   5.652   4.968   1.165
 3681TIP3    H210997   5.789   4.916   1.198
 3682TIP3   OH210998   6.506   4.220   2.407
 3682TIP3    H110999   6.426   4.232   2.354
 3682TIP3    H211000   6.523   4.124   2.396
 3683TIP3   OH211001   5.106   4.631   2.428
 3683TIP3    H111002   5.154   4.613   2.511
 3683TIP3    H211003   5.030   4.569   2.434
 3684TIP3   OH211004   5.504   3.452   2.217
 3684TIP3    H111005   5.415   3.425   2.187
 3684TIP3    H211006   5.480   3.534   2.264
 3685TIP3   OH211007   6.041   3.568   2.409
 3685TIP3    H111008   6.111   3.539   2.472
 3685TIP3    H211009   5.958   3.549   2.458
 3686TIP3   OH211010   6.274   3.997   2.325
 3686TIP3    H111011   6.224   3.996   2.409
 3686TIP3    H211012   6.253   4.086   2.289
 3687TIP3   OH211013   5.931   4.124   0.881
 3687TIP3    H111014   5.900   4.104   0.791
 3687TIP3    H211015   6.018   4.165   0.860
 3688TIP3   OH211016   5.654   3.507   1.183
 3688TIP3    H111017   5.618   3.507   1.273
 3688TIP3    H211018   5.602   3.440   1.137
 3689TIP3   OH211019   5.436   3.970   2.232
 3689TIP3    H111020   5.386   3.992   2.314
 3689TIP3    H211021   5.421   4.052   2.179
 3690TIP3   OH211022   5.320   3.853   1.745
 3690TIP3    H111023   5.226   3.832   1.762
 3690TIP3    H211024   5.332   3.812   1.657
 3691TIP3   OH211025   5.807   3.935   1.473
 3691TIP3    H111026   5.760   4.010   1.431
 3691TIP3    H211027   5.867   3.906   1.401
 3692TIP3   OH211028   5.986   4.217   2.558
 3692TIP3    H111029   5.965   4.145   2.621
 3692TIP3    H211030   6.080   4.232   2.580
 3693TIP3   OH211031   5.966   3.968   1.712
 3693TIP3    H111032   5.905   3.999   1.642
 3693TIP3    H211033   6.001   3.889   1.666
 3694TIP3   OH211034   5.258   3.998   2.441
 3694TIP3    H111035   5.278   4.065   2.508
 3694TIP3    H211036   5.247   3.918   2.495
 3695TIP3   OH211037   5.316   3.473   1.155
 3695TIP3    H111038   5.292   3.479   1.250
 3695TIP3    H211039   5.241   3.521   1.116
 3696TIP3   OH211040   4.821   3.539   2.030
 3696TIP3    H111041   4.906   3.568   2.073
 3696TIP3    H211042   4.850   3.510   1.941
 3697TIP3   OH211043   4.836   3.505   1.543
 3697TIP3    H111044   4.872   3.543   1.460
 3697TIP3    H211045   4.766   3.572   1.560
 3698TIP3   OH211046   5.977   4.214   2.135
 3698TIP3    H111047   6.010   4.143   2.075
 3698TIP3    H211048   5.946   4.159   2.210
 3699TIP3   OH211049   5.648   3.678   1.805
 3699TIP3    H111050   5.568   3.678   1.861
 3699TIP3    H211051   5.718   3.677   1.872
 3700TIP3   OH211052   5.077   3.735   1.813
 3700TIP3    H111053   4.982   3.739   1.787
 3700TIP3    H211054   5.102   3.643   1.791
 3701TIP3   OH211055   5.350   3.723   1.504
 3701TIP3    H111056   5.442   3.749   1.485
 3701TIP3    H211057   5.301   3.749   1.423
 3702TIP3   OH211058   6.141   3.755   2.010
 3702TIP3    H111059   6.108   3.768   2.102
 3702TIP3    H211060   6.073   3.696   1.974
 3703TIP3   OH211061   5.201   3.758   1.283
 3703TIP3    H111062   5.127   3.717   1.235
 3703TIP3    H211063   5.249   3.800   1.209
 3704TIP3   OH211064   6.313   5.444   2.229
 3704TIP3    H111065   6.311   5.467   2.135
 3704TIP3    H211066   6.393   5.491   2.259
 3705TIP3   OH211067   5.268   4.552   2.648
 3705TIP3    H111068   5.347   4.583   2.697
 3705TIP3    H211069   5.203   4.548   2.721
 3706TIP3   OH211070   5.730   4.005   1.903
 3706TIP3    H111071   5.807   3.972   1.854
 3706TIP3    H211072   5.739   3.962   1.989
 3707TIP3   OH211073   5.248   3.494   1.787
 3707TIP3    H111074   5.211   3.418   1.837
 3707TIP3    H211075   5.290   3.451   1.713
 3708TIP3   OH211076   5.707   3.904   2.197
 3708TIP3    H111077   5.617   3.942   2.209
 3708TIP3    H211078   5.764   3.968   2.245
 3709TIP3   OH211079   5.446   4.293   1.290
 3709TIP3    H111080   5.372   4.229   1.278
 3709TIP3    H211081   5.425   4.328   1.380
 3710TIP3   OH211082   6.343   4.530   1.917
 3710TIP3    H111083   6.367   4.581   1.837
 3710TIP3    H211084   6.259   4.487   1.889
 3711TIP3   OH211085   5.908   3.603   1.161
 3711TIP3    H111086   5.811   3.592   1.160
 3711TIP3    H211087   5.920   3.698   1.178
 3712TIP3   OH211088   5.842   4.613   2.286
 3712TIP3    H111089   5.870   4.596   2.377
 3712TIP3    H211090   5.804   4.702   2.292
 3713TIP3   OH211091   5.971   3.856   1.257
 3713TIP3    H111092   6.067   3.862   1.272
 3713TIP3    H211093   5.952   3.936   1.205
 3714TIP3   OH211094   5.134   4.311   1.965
 3714TIP3    H111095   5.174   4.286   1.879
 3714TIP3    H211096   5.184   4.257   2.027
 3715TIP3   OH211097   5.587   4.442   1.110
 3715TIP3    H111098   5.541   4.529   1.117
 3715TIP3    H211099   5.534   4.388   1.173
 3716TIP3   OH211100   5.022   4.232   2.576
 3716TIP3    H111101   5.035   4.221   2.673
 3716TIP3    H211102   4.948   4.170   2.560
 3717TIP3   OH211103   5.744   4.352   2.601
 3717TIP3    H111104   5.682   4.293   2.554
 3717TIP3    H211105   5.830   4.316   2.570
 3718TIP3   OH211106   6.002   4.872   2.185
 3718TIP3    H111107   5.906   4.871   2.198
 3718TIP3    H211108   6.030   4.925   2.262
 3719TIP3   OH211109   6.411   3.950   1.093
 3719TIP3    H111110   6.348   3.906   1.030
 3719TIP3    H211111   6.408   4.039   1.052
 3720TIP3   OH211112   6.632   4.804   2.171
 3720TIP3    H111113   6.534   4.797   2.162
 3720TIP3    H211114   6.659   4.774   2.081
 3721TIP3   OH211115   6.110   4.765   0.997
 3721TIP3    H111116   6.093   4.689   1.054
 3721TIP3    H211117   6.131   4.723   0.911
 3722TIP3   OH211118   6.109   4.393   1.835
 3722TIP3    H111119   6.016   4.370   1.848
 3722TIP3    H211120   6.142   4.313   1.790
 3723TIP3   OH211121   5.239   4.622   1.590
 3723TIP3    H111122   5.234   4.703   1.535
 3723TIP3    H211123   5.145   4.604   1.605
 3724TIP3   OH211124   4.805   3.924   1.298
 3724TIP3    H111125   4.846   4.011   1.316
 3724TIP3    H211126   4.725   3.928   1.355
 3725TIP3   OH211127   5.370   4.384   1.532
 3725TIP3    H111128   5.337   4.475   1.550
 3725TIP3    H211129   5.334   4.335   1.609
 3726TIP3   OH211130   5.508   4.965   2.057
 3726TIP3    H111131   5.550   5.037   2.007
 3726TIP3    H211132   5.584   4.927   2.104
 3727TIP3   OH211133   5.156   4.858   1.441
 3727TIP3    H111134   5.071   4.867   1.488
 3727TIP3    H211135   5.188   4.951   1.443
 3728TIP3   OH211136   5.892   4.597   2.018
 3728TIP3    H111137   5.882   4.595   2.116
 3728TIP3    H211138   5.973   4.545   2.006
 3729TIP3   OH211139   5.871   4.500   0.904
 3729TIP3    H111140   5.925   4.473   0.981
 3729TIP3    H211141   5.784   4.465   0.930
 3730TIP3   OH211142   6.142   5.130   2.068
 3730TIP3    H111143   6.061   5.075   2.061
 3730TIP3    H211144   6.127   5.195   1.995
 3731TIP3   OH211145   6.199   4.965   0.714
 3731TIP3    H111146   6.255   5.033   0.675
 3731TIP3    H211147   6.127   5.018   0.751
 3732TIP3   OH211148   5.226   3.739   2.583
 3732TIP3    H111149   5.130   3.747   2.600
 3732TIP3    H211150   5.256   3.688   2.660
 3733TIP3   OH211151   6.031   4.427   1.119
 3733TIP3    H111152   6.021   4.359   1.188
 3733TIP3    H211153   6.128   4.422   1.104
 3734TIP3   OH211154   4.958   4.829   2.210
 3734TIP3    H111155   4.996   4.748   2.248
 3734TIP3    H211156   4.978   4.894   2.278
 3735TIP3   OH211157   5.235   4.475   0.902
 3735TIP3    H111158   5.247   4.383   0.873
 3735TIP3    H211159   5.215   4.462   0.997
 3736TIP3   OH211160   5.182   4.477   1.173
 3736TIP3    H111161   5.254   4.453   1.232
 3736TIP3    H211162   5.182   4.575   1.179
 3737TIP3   OH211163   4.915   4.171   1.378
 3737TIP3    H111164   4.848   4.216   1.434
 3737TIP3    H211165   4.925   4.239   1.308
 3738TIP3   OH211166   6.067   3.805   2.269
 3738TIP3    H111167   6.148   3.845   2.305
 3738TIP3    H211168   6.056   3.725   2.325
 3739TIP3   OH211169   5.944   3.554   1.438
 3739TIP3    H111170   5.936   3.576   1.343
 3739TIP3    H211171   5.985   3.636   1.474
 3740TIP3   OH211172   5.450   4.673   1.129
 3740TIP3    H111173   5.362   4.699   1.163
 3740TIP3    H211174   5.459   4.734   1.055
 3741TIP3   OH211175   5.628   3.727   1.528
 3741TIP3    H111176   5.691   3.800   1.510
 3741TIP3    H211177   5.636   3.721   1.626
 3742TIP3   OH211178   5.904   4.054   2.342
 3742TIP3    H111179   5.928   4.107   2.421
 3742TIP3    H211180   5.958   3.974   2.353
 3743TIP3   OH211181   5.774   3.469   1.643
 3743TIP3    H111182   5.777   3.545   1.703
 3743TIP3    H211183   5.843   3.495   1.578
 3744TIP3   OH211184   5.193   4.748   1.190
 3744TIP3    H111185   5.162   4.818   1.128
 3744TIP3    H211186   5.175   4.790   1.277
 3745TIP3   OH211187   5.299   3.461   1.432
 3745TIP3    H111188   5.278   3.552   1.462
 3745TIP3    H211189   5.393   3.459   1.453
 3746TIP3   OH211190   6.542   3.956   2.329
 3746TIP3    H111191   6.444   3.952   2.331
 3746TIP3    H211192   6.559   3.919   2.241
 3747TIP3   OH211193   6.195   4.150   1.713
 3747TIP3    H111194   6.119   4.089   1.725
 3747TIP3    H211195   6.267   4.103   1.761
 3748TIP3   OH211196   4.908   4.373   1.182
 3748TIP3    H111197   4.971   4.446   1.191
 3748TIP3    H211198   4.954   4.320   1.114
 3749TIP3   OH211199   4.852   3.653   1.313
 3749TIP3    H111200   4.850   3.751   1.315
 3749TIP3    H211201   4.769   3.633   1.267
 3750TIP3   OH211202   6.163   5.109   1.661
 3750TIP3    H111203   6.121   5.157   1.586
 3750TIP3    H211204   6.258   5.128   1.640
 3751TIP3   OH211205   5.237   3.377   2.185
 3751TIP3    H111206   5.209   3.341   2.098
 3751TIP3    H211207   5.229   3.298   2.243
 3752TIP3   OH211208   4.771   4.583   1.563
 3752TIP3    H111209   4.717   4.617   1.635
 3752TIP3    H211210   4.734   4.631   1.485
 3753TIP3   OH211211   4.936   5.139   2.640
 3753TIP3    H111212   5.023   5.136   2.686
 3753TIP3    H211213   4.913   5.044   2.639
 3754TIP3   OH211214   5.416   5.095   2.687
 3754TIP3    H111215   5.511   5.076   2.688
 3754TIP3    H211216   5.386   5.035   2.615
 3755TIP3   OH211217   5.409   4.676   0.830
 3755TIP3    H111218   5.345   4.607   0.857
 3755TIP3    H211219   5.476   4.620   0.788
 3756TIP3   OH211220   6.054   5.008   2.421
 3756TIP3    H111221   6.047   4.937   2.489
 3756TIP3    H211222   6.132   5.058   2.450
 3757TIP3   OH211223   5.848   4.712   0.727
 3757TIP3    H111224   5.874   4.646   0.795
 3757TIP3    H211225   5.927   4.715   0.671
 3758TIP3   OH211226   5.067   4.544   2.841
 3758TIP3    H111227   5.083   4.447   2.849
 3758TIP3    H211228   4.980   4.545   2.795
 3759TIP3   OH211229   5.045   4.190   1.035
 3759TIP3    H111230   5.102   4.164   1.109
 3759TIP3    H211231   5.111   4.196   0.963
 3760TIP3   OH211232   5.672   4.629   2.615
 3760TIP3    H111233   5.631   4.649   2.528
 3760TIP3    H211234   5.701   4.536   2.603
 3761TIP3   OH211235   5.561   4.393   0.841
 3761TIP3    H111236   5.560   4.404   0.938
 3761TIP3    H211237   5.557   4.296   0.833
 3762TIP3   OH211238   6.166   4.639   2.223
 3762TIP3    H111239   6.242   4.680   2.178
 3762TIP3    H211240   6.097   4.706   2.206
 3763TIP3   OH211241   5.186   4.284   2.827
 3763TIP3    H111242   5.250   4.213   2.812
 3763TIP3    H211243   5.213   4.312   2.917
 3764TIP3   OH211244   5.251   4.097   1.255
 3764TIP3    H111245   5.221   4.058   1.338
 3764TIP3    H211246   5.288   4.020   1.207
 3765TIP3   OH211247   5.523   4.161   2.486
 3765TIP3    H111248   5.443   4.218   2.484
 3765TIP3    H211249   5.574   4.197   2.409
 3766TIP3   OH211250   5.354   3.888   1.097
 3766TIP3    H111251   5.328   3.900   1.003
 3766TIP3    H211252   5.452   3.893   1.088
 3767TIP3   OH211253   6.039   4.563   2.619
 3767TIP3    H111254   6.115   4.533   2.568
 3767TIP3    H211255   6.033   4.496   2.689
 3768TIP3   OH211256   6.165   4.214   0.768
 3768TIP3    H111257   6.156   4.175   0.679
 3768TIP3    H211258   6.137   4.306   0.747
 3769TIP3   OH211259   5.647   3.949   2.605
 3769TIP3    H111260   5.645   3.871   2.546
 3769TIP3    H211261   5.602   4.017   2.550
 3770TIP3   OH211262   5.647   3.734   2.419
 3770TIP3    H111263   5.675   3.778   2.336
 3770TIP3    H211264   5.553   3.714   2.399
 3771TIP3   OH211265   5.671   4.270   2.292
 3771TIP3    H111266   5.756   4.285   2.249
 3771TIP3    H211267   5.613   4.335   2.246
 3772TIP3   OH211268   6.255   4.236   2.671
 3772TIP3    H111269   6.304   4.153   2.677
 3772TIP3    H211270   6.321   4.296   2.633
 3773TIP3   OH211271   6.295   4.492   2.409
 3773TIP3    H111272   6.238   4.546   2.350
 3773TIP3    H211273   6.383   4.513   2.370
 3774TIP3   OH211274   5.536   4.053   2.846
 3774TIP3    H111275   5.454   4.002   2.864
 3774TIP3    H211276   5.555   4.028   2.754
 3775TIP3   OH211277   5.778   3.497   2.488
 3775TIP3    H111278   5.729   3.578   2.464
 3775TIP3    H211279   5.710   3.428   2.475
 3776TIP3   OH211280   5.905   4.000   2.702
 3776TIP3    H111281   5.887   3.989   2.797
 3776TIP3    H211282   5.816   3.978   2.666
 3777TIP3   OH211283   6.143   3.954   2.557
 3777TIP3    H111284   6.069   3.954   2.621
 3777TIP3    H211285   6.218   3.923   2.613
 3778TIP3   OH211286   6.369   3.893   2.707
 3778TIP3    H111287   6.384   3.797   2.722
 3778TIP3    H211288   6.369   3.929   2.798
 3779TIP3   OH211289   5.356   3.838   2.884
 3779TIP3    H111290   5.364   3.745   2.859
 3779TIP3    H211291   5.399   3.837   2.973
 3780TIP3   OH211292   5.870   3.507   2.746
 3780TIP3    H111293   5.938   3.437   2.739
 3780TIP3    H211294   5.832   3.503   2.656
 3781TIP3   OH211295   5.939   3.721   2.902
 3781TIP3    H111296   5.919   3.650   2.838
 3781TIP3    H211297   5.864   3.783   2.889
 3782TIP3   OH211298   5.161   4.951   1.003
 3782TIP3    H111299   5.257   4.948   0.982
 3782TIP3    H211300   5.129   5.002   0.927
 3783TIP3   OH211301   4.639   4.333   1.218
 3783TIP3    H111302   4.734   4.354   1.204
 3783TIP3    H211303   4.633   4.245   1.177
 3784TIP3   OH211304   4.559   4.947   1.631
 3784TIP3    H111305   4.491   4.888   1.594
 3784TIP3    H211306   4.602   4.887   1.696
 3785TIP3   OH211307   4.692   4.791   1.817
 3785TIP3    H111308   4.650   4.732   1.881
 3785TIP3    H211309   4.740   4.852   1.876
 3786TIP3   OH211310   6.418   5.200   1.621
 3786TIP3    H111311   6.448   5.229   1.708
 3786TIP3    H211312   6.487   5.234   1.562
 3787TIP3   OH211313   6.447   5.217   1.903
 3787TIP3    H111314   6.401   5.131   1.898
 3787TIP3    H211315   6.523   5.191   1.958
 3788TIP3   OH211316   6.493   4.893   2.476
 3788TIP3    H111317   6.421   4.904   2.541
 3788TIP3    H211318   6.536   4.981   2.479
 3789TIP3   OH211319   6.306   4.406   1.094
 3789TIP3    H111320   6.371   4.470   1.059
 3789TIP3    H211321   6.356   4.370   1.171
 3790TIP3   OH211322   6.439   4.273   1.298
 3790TIP3    H111323   6.371   4.233   1.356
 3790TIP3    H211324   6.503   4.311   1.361
 3791TIP3   OH211325   6.494   4.667   1.730
 3791TIP3    H111326   6.545   4.599   1.682
 3791TIP3    H211327   6.491   4.740   1.664
 3792TIP3   OH211328   6.321   4.968   1.924
 3792TIP3    H111329   6.248   5.009   1.974
 3792TIP3    H211330   6.273   4.921   1.852
 3793TIP3   OH211331   6.373   4.181   0.945
 3793TIP3    H111332   6.302   4.181   0.877
 3793TIP3    H211333   6.345   4.259   0.997
 3794TIP3   OH211334   6.243   3.859   0.901
 3794TIP3    H111335   6.210   3.892   0.816
 3794TIP3    H211336   6.218   3.765   0.896
 3795TIP3   OH211337   6.249   4.134   1.443
 3795TIP3    H111338   6.259   4.038   1.434
 3795TIP3    H211339   6.235   4.145   1.540
 3796TIP3   OH211340   4.878   4.193   2.192
 3796TIP3    H111341   4.875   4.171   2.097
 3796TIP3    H211342   4.975   4.199   2.207
 3797TIP3   OH211343   6.540   4.557   2.302
 3797TIP3    H111344   6.612   4.490   2.291
 3797TIP3    H211345   6.566   4.625   2.237
 3798TIP3   OH211346   6.721   4.357   2.313
 3798TIP3    H111347   6.648   4.307   2.354
 3798TIP3    H211348   6.796   4.295   2.329
 3799TIP3   OH211349   6.184   3.595   0.896
 3799TIP3    H111350   6.264   3.558   0.939
 3799TIP3    H211351   6.120   3.523   0.900
 3800TIP3   OH211352   6.248   3.849   1.336
 3800TIP3    H111353   6.289   3.760   1.351
 3800TIP3    H211354   6.305   3.882   1.265
 3801TIP3   OH211355   6.407   4.018   1.834
 3801TIP3    H111356   6.493   4.043   1.791
 3801TIP3    H211357   6.423   4.056   1.922
 3802TIP3   OH211358   6.479   4.165   2.064
 3802TIP3    H111359   6.402   4.200   2.111
 3802TIP3    H211360   6.512   4.245   2.018
 3803TIP3   OH211361   5.089   3.881   2.854
 3803TIP3    H111362   5.186   3.886   2.863
 3803TIP3    H211363   5.070   3.798   2.903
 3804TIP3   OH211364   6.929   3.758   2.620
 3804TIP3    H111365   6.989   3.692   2.579
 3804TIP3    H211366   6.898   3.809   2.542
 3805TIP3   OH211367   6.355   3.599   1.377
 3805TIP3    H111368   6.405   3.583   1.459
 3805TIP3    H211369   6.296   3.522   1.374
 3806TIP3   OH211370   5.045   3.581   2.185
 3806TIP3    H111371   5.108   3.507   2.197
 3806TIP3    H211372   5.106   3.656   2.183
 3807TIP3   OH211373   4.858   3.856   2.263
 3807TIP3    H111374   4.912   3.865   2.182
 3807TIP3    H211375   4.872   3.942   2.305
 3808TIP3   OH211376   6.797   3.892   2.424
 3808TIP3    H111377   6.712   3.937   2.441
 3808TIP3    H211378   6.765   3.820   2.366
 3809TIP3   OH211379   6.436   3.528   1.010
 3809TIP3    H111380   6.474   3.459   0.951
 3809TIP3    H211381   6.502   3.599   1.004
 3810TIP3   OH211382   4.825   3.398   1.793
 3810TIP3    H111383   4.739   3.356   1.779
 3810TIP3    H211384   4.843   3.435   1.704
 3811TIP3   OH211385   6.002   5.067   1.276
 3811TIP3    H111386   6.050   5.052   1.192
 3811TIP3    H211387   6.060   5.129   1.322
 3812TIP3   OH211388   5.062   3.434   2.581
 3812TIP3    H111389   5.012   3.434   2.665
 3812TIP3    H211390   4.996   3.477   2.522
 3813TIP3   OH211391   5.102   4.870   2.661
 3813TIP3    H111392   5.010   4.845   2.642
 3813TIP3    H211393   5.109   4.847   2.755
 3814TIP3   OH211394   5.285   4.903   2.211
 3814TIP3    H111395   5.231   4.974   2.170
 3814TIP3    H211396   5.369   4.921   2.163
 3815TIP3   OH211397   5.723   5.144   2.346
 3815TIP3    H111398   5.765   5.145   2.434
 3815TIP3    H211399   5.788   5.196   2.294
 3816TIP3   OH211400   5.902   5.299   2.207
 3816TIP3    H111401   5.971   5.248   2.163
 3816TIP3    H211402   5.955   5.355   2.267
 3817TIP3   OH211403   6.700   3.657   2.304
 3817TIP3    H111404   6.609   3.648   2.269
 3817TIP3    H211405   6.733   3.565   2.295
 3818TIP3   OH211406   4.959   5.165   2.231
 3818TIP3    H111407   4.868   5.193   2.204
 3818TIP3    H211408   4.960   5.194   2.322
 3819TIP3   OH211409   5.195   5.138   2.091
 3819TIP3    H111410   5.108   5.150   2.135
 3819TIP3    H211411   5.174   5.166   2.000
 3820TIP3   OH211412   5.619   5.163   1.889
 3820TIP3    H111413   5.547   5.179   1.824
 3820TIP3    H211414   5.628   5.252   1.929
 3821TIP3   OH211415   5.888   5.102   1.943
 3821TIP3    H111416   5.794   5.120   1.922
 3821TIP3    H211417   5.932   5.174   1.895
 3822TIP3   OH211418   6.095   5.295   1.853
 3822TIP3    H111419   6.080   5.378   1.804
 3822TIP3    H211420   6.122   5.234   1.781
 3823TIP3   OH211421   4.880   4.960   1.969
 3823TIP3    H111422   4.896   4.930   2.061
 3823TIP3    H211423   4.950   4.908   1.922
 3824TIP3   OH211424   5.067   4.818   1.832
 3824TIP3    H111425   5.081   4.736   1.886
 3824TIP3    H211426   5.157   4.855   1.829
 3825TIP3   OH211427   5.332   4.917   1.839
 3825TIP3    H111428   5.362   4.825   1.826
 3825TIP3    H211429   5.377   4.938   1.923
 3826TIP3   OH211430   5.904   3.573   1.922
 3826TIP3    H111431   5.862   3.501   1.973
 3826TIP3    H211432   5.981   3.528   1.882
 3827TIP3   OH211433   6.423   3.452   1.828
 3827TIP3    H111434   6.461   3.504   1.753
 3827TIP3    H211435   6.329   3.476   1.823
 3828TIP3   OH211436   6.519   3.550   1.594
 3828TIP3    H111437   6.593   3.499   1.554
 3828TIP3    H211438   6.553   3.642   1.579
 3829TIP3   OH211439   5.150   3.279   1.938
 3829TIP3    H111440   5.058   3.248   1.939
 3829TIP3    H211441   5.198   3.194   1.934
 3830TIP3   OH211442   4.969   3.156   1.593
 3830TIP3    H111443   4.974   3.209   1.511
 3830TIP3    H211444   4.911   3.210   1.647
 3831TIP3   OH211445   5.601   3.312   1.810
 3831TIP3    H111446   5.664   3.361   1.754
 3831TIP3    H211447   5.617   3.353   1.896
 3832TIP3   OH211448   6.137   3.460   1.805
 3832TIP3    H111449   6.147   3.423   1.717
 3832TIP3    H211450   6.123   3.379   1.860
 3833TIP3   OH211451   6.172   3.385   1.368
 3833TIP3    H111452   6.086   3.429   1.379
 3833TIP3    H211453   6.154   3.300   1.413
 3834TIP3   OH211454   4.657   4.727   1.366
 3834TIP3    H111455   4.570   4.696   1.335
 3834TIP3    H211456   4.651   4.820   1.338
 3835TIP3   OH211457   5.054   3.312   1.348
 3835TIP3    H111458   5.100   3.249   1.289
 3835TIP3    H211459   5.127   3.362   1.386
 3836TIP3   OH211460   5.583   3.456   1.450
 3836TIP3    H111461   5.647   3.439   1.523
 3836TIP3    H211462   5.582   3.554   1.464
 3837TIP3   OH211463   5.429   4.918   0.950
 3837TIP3    H111464   5.519   4.937   0.917
 3837TIP3    H211465   5.410   4.838   0.895
 3838TIP3   OH211466   6.145   5.031   1.043
 3838TIP3    H111467   6.139   4.933   1.033
 3838TIP3    H211468   6.101   5.060   0.961
 3839TIP3   OH211469   5.362   3.559   2.828
 3839TIP3    H111470   5.324   3.492   2.888
 3839TIP3    H211471   5.455   3.560   2.859
 3840TIP3   OH211472   5.613   3.558   2.952
 3840TIP3    H111473   5.696   3.532   2.909
 3840TIP3    H211474   5.602   3.487   3.018
 3841TIP3   OH211475   4.729   4.746   1.001
 3841TIP3    H111476   4.725   4.775   1.093
 3841TIP3    H211477   4.819   4.706   0.995
 3842TIP3   OH211478   6.437   3.623   2.738
 3842TIP3    H111479   6.455   3.591   2.829
 3842TIP3    H211480   6.526   3.618   2.697
 3843TIP3   OH211481   6.369   5.173   2.231
 3843TIP3    H111482   6.292   5.143   2.179
 3843TIP3    H211483   6.351   5.269   2.236
 3844TIP3   OH211484   7.596   4.543   1.376
 3844TIP3    H111485   7.654   4.486   1.429
 3844TIP3    H211486   7.590   4.493   1.293
 3845TIP3   OH211487   6.936   4.440   1.743
 3845TIP3    H111488   6.965   4.371   1.806
 3845TIP3    H211489   7.015   4.496   1.739
 3846TIP3   OH211490   6.908   4.852   1.466
 3846TIP3    H111491   6.901   4.754   1.465
 3846TIP3    H211492   7.004   4.863   1.461
 3847TIP3   OH211493   6.615   4.050   1.249
 3847TIP3    H111494   6.569   4.134   1.266
 3847TIP3    H211495   6.545   4.001   1.202
 3848TIP3   OH211496   6.673   4.342   1.428
 3848TIP3    H111497   6.724   4.263   1.460
 3848TIP3    H211498   6.731   4.376   1.359
 3849TIP3   OH211499   7.427   4.764   1.430
 3849TIP3    H111500   7.470   4.682   1.400
 3849TIP3    H211501   7.504   4.817   1.452
 3850TIP3   OH211502   7.184   3.932   1.424
 3850TIP3    H111503   7.166   4.005   1.361
 3850TIP3    H211504   7.138   3.858   1.378
 3851TIP3   OH211505   6.820   4.134   1.530
 3851TIP3    H111506   6.903   4.116   1.578
 3851TIP3    H211507   6.835   4.078   1.450
 3852TIP3   OH211508   7.260   4.330   1.323
 3852TIP3    H111509   7.354   4.301   1.334
 3852TIP3    H211510   7.218   4.247   1.293
 3853TIP3   OH211511   7.177   3.924   1.864
 3853TIP3    H111512   7.121   3.964   1.795
 3853TIP3    H211513   7.124   3.945   1.944
 3854TIP3   OH211514   7.291   4.689   1.660
 3854TIP3    H111515   7.229   4.756   1.697
 3854TIP3    H211516   7.329   4.739   1.585
 3855TIP3   OH211517   7.053   4.031   1.642
 3855TIP3    H111518   7.114   4.106   1.664
 3855TIP3    H211519   7.103   3.991   1.567
 3856TIP3   OH211520   7.113   4.884   1.746
 3856TIP3    H111521   7.091   4.972   1.711
 3856TIP3    H211522   7.035   4.869   1.804
 3857TIP3   OH211523   6.509   4.570   0.991
 3857TIP3    H111524   6.477   4.584   0.899
 3857TIP3    H211525   6.543   4.659   1.014
 3858TIP3   OH211526   7.478   3.696   1.527
 3858TIP3    H111527   7.523   3.612   1.555
 3858TIP3    H211528   7.410   3.706   1.596
 3859TIP3   OH211529   7.396   4.298   0.778
 3859TIP3    H111530   7.338   4.374   0.798
 3859TIP3    H211531   7.482   4.339   0.788
 3860TIP3   OH211532   7.048   4.477   1.216
 3860TIP3    H111533   7.008   4.420   1.148
 3860TIP3    H211534   7.125   4.424   1.245
 3861TIP3   OH211535   7.176   4.891   1.362
 3861TIP3    H111536   7.154   4.858   1.273
 3861TIP3    H211537   7.263   4.849   1.379
 3862TIP3   OH211538   7.186   4.451   1.568
 3862TIP3    H111539   7.220   4.427   1.479
 3862TIP3    H211540   7.230   4.536   1.587
 3863TIP3   OH211541   7.317   5.030   1.867
 3863TIP3    H111542   7.261   5.076   1.932
 3863TIP3    H211543   7.257   4.961   1.835
 3864TIP3   OH211544   7.080   4.559   2.000
 3864TIP3    H111545   7.088   4.649   2.038
 3864TIP3    H211546   6.985   4.542   2.014
 3865TIP3   OH211547   7.384   5.044   0.938
 3865TIP3    H111548   7.476   5.066   0.927
 3865TIP3    H211549   7.340   5.090   0.867
 3866TIP3   OH211550   7.111   5.182   1.984
 3866TIP3    H111551   7.081   5.176   1.891
 3866TIP3    H211552   7.032   5.156   2.034
 3867TIP3   OH211553   6.918   4.322   1.017
 3867TIP3    H111554   6.849   4.369   0.965
 3867TIP3    H211555   6.878   4.235   1.026
 3868TIP3   OH211556   6.696   4.706   1.927
 3868TIP3    H111557   6.630   4.684   1.859
 3868TIP3    H211558   6.735   4.619   1.950
 3869TIP3   OH211559   6.553   4.897   1.561
 3869TIP3    H111560   6.648   4.888   1.548
 3869TIP3    H211561   6.547   4.975   1.617
 3870TIP3   OH211562   7.513   5.148   1.730
 3870TIP3    H111563   7.513   5.232   1.778
 3870TIP3    H211564   7.446   5.097   1.781
 3871TIP3   OH211565   6.720   5.114   1.090
 3871TIP3    H111566   6.766   5.103   1.176
 3871TIP3    H211567   6.674   5.028   1.082
 3872TIP3   OH211568   6.900   4.890   1.916
 3872TIP3    H111569   6.951   4.870   1.997
 3872TIP3    H211570   6.826   4.826   1.923
 3873TIP3   OH211571   7.279   3.712   1.722
 3873TIP3    H111572   7.190   3.684   1.690
 3873TIP3    H211573   7.253   3.793   1.772
 3874TIP3   OH211574   7.224   4.229   1.717
 3874TIP3    H111575   7.179   4.253   1.801
 3874TIP3    H211576   7.210   4.312   1.665
 3875TIP3   OH211577   7.112   4.114   1.236
 3875TIP3    H111578   7.020   4.091   1.261
 3875TIP3    H211579   7.114   4.073   1.147
 3876TIP3   OH211580   7.047   4.255   1.929
 3876TIP3    H111581   7.088   4.320   1.989
 3876TIP3    H211582   7.040   4.176   1.985
 3877TIP3   OH211583   7.119   3.738   0.641
 3877TIP3    H111584   7.088   3.734   0.733
 3877TIP3    H211585   7.048   3.792   0.601
 3878TIP3   OH211586   6.643   3.774   1.512
 3878TIP3    H111587   6.718   3.811   1.563
 3878TIP3    H211588   6.683   3.750   1.427
 3879TIP3   OH211589   6.613   3.759   1.029
 3879TIP3    H111590   6.659   3.794   0.950
 3879TIP3    H211591   6.552   3.833   1.046
 3880TIP3   OH211592   7.420   3.936   1.278
 3880TIP3    H111593   7.346   3.929   1.342
 3880TIP3    H211594   7.496   3.938   1.339
 3881TIP3   OH211595   6.876   3.992   1.303
 3881TIP3    H111596   6.782   4.001   1.274
 3881TIP3    H211597   6.898   3.901   1.277
 3882TIP3   OH211598   7.110   3.983   0.996
 3882TIP3    H111599   7.202   3.993   0.966
 3882TIP3    H211600   7.060   4.010   0.916
 3883TIP3   OH211601   6.985   4.035   0.766
 3883TIP3    H111602   6.918   3.981   0.721
 3883TIP3    H211603   7.053   4.041   0.696
 3884TIP3   OH211604   7.060   4.809   2.133
 3884TIP3    H111605   7.146   4.833   2.172
 3884TIP3    H211606   7.004   4.810   2.213
 3885TIP3   OH211607   7.514   4.236   1.377
 3885TIP3    H111608   7.604   4.225   1.342
 3885TIP3    H211609   7.524   4.210   1.469
 3886TIP3   OH211610   7.045   3.750   1.273
 3886TIP3    H111611   7.008   3.675   1.324
 3886TIP3    H211612   7.075   3.705   1.193
 3887TIP3   OH211613   7.482   4.149   1.680
 3887TIP3    H111614   7.389   4.181   1.686
 3887TIP3    H211615   7.532   4.225   1.711
 3888TIP3   OH211616   7.264   4.532   0.798
 3888TIP3    H111617   7.179   4.489   0.774
 3888TIP3    H211618   7.236   4.586   0.875
 3889TIP3   OH211619   7.614   4.857   1.803
 3889TIP3    H111620   7.688   4.864   1.865
 3889TIP3    H211621   7.603   4.948   1.771
 3890TIP3   OH211622   6.933   4.575   1.451
 3890TIP3    H111623   6.970   4.546   1.365
 3890TIP3    H211624   6.977   4.515   1.513
 3891TIP3   OH211625   6.814   4.495   2.067
 3891TIP3    H111626   6.835   4.481   2.161
 3891TIP3    H211627   6.747   4.427   2.051
 3892TIP3   OH211628   7.544   4.544   2.100
 3892TIP3    H111629   7.487   4.541   2.023
 3892TIP3    H211630   7.619   4.597   2.068
 3893TIP3   OH211631   7.033   4.879   1.080
 3893TIP3    H111632   7.032   4.959   1.024
 3893TIP3    H211633   6.939   4.857   1.084
 3894TIP3   OH211634   6.598   4.176   0.782
 3894TIP3    H111635   6.642   4.262   0.796
 3894TIP3    H211636   6.520   4.186   0.840
 3895TIP3   OH211637   7.170   4.645   1.025
 3895TIP3    H111638   7.136   4.735   1.043
 3895TIP3    H211639   7.130   4.594   1.097
 3896TIP3   OH211640   7.301   5.216   1.546
 3896TIP3    H111641   7.344   5.285   1.490
 3896TIP3    H211642   7.378   5.183   1.596
 3897TIP3   OH211643   6.953   5.122   0.935
 3897TIP3    H111644   6.867   5.129   0.980
 3897TIP3    H211645   6.984   5.215   0.938
 3898TIP3   OH211646   7.021   3.999   2.077
 3898TIP3    H111647   6.924   4.000   2.088
 3898TIP3    H211648   7.049   3.942   2.150
 3899TIP3   OH211649   6.740   5.082   1.704
 3899TIP3    H111650   6.795   5.007   1.733
 3899TIP3    H211651   6.773   5.152   1.762
 3900TIP3   OH211652   7.020   4.727   0.681
 3900TIP3    H111653   7.023   4.708   0.775
 3900TIP3    H211654   6.993   4.822   0.681
 3901TIP3   OH211655   6.713   4.424   0.867
 3901TIP3    H111656   6.643   4.470   0.918
 3901TIP3    H211657   6.724   4.489   0.793
 3902TIP3   OH211658   7.390   3.998   1.013
 3902TIP3    H111659   7.387   4.095   1.008
 3902TIP3    H211660   7.401   3.981   1.109
 3903TIP3   OH211661   6.981   4.992   0.694
 3903TIP3    H111662   6.939   5.046   0.626
 3903TIP3    H211663   6.971   5.045   0.775
 3904TIP3   OH211664   7.042   3.723   0.910
 3904TIP3    H111665   7.035   3.812   0.948
 3904TIP3    H211666   7.139   3.709   0.917
 3905TIP3   OH211667   6.722   4.621   0.673
 3905TIP3    H111668   6.730   4.717   0.680
 3905TIP3    H211669   6.709   4.613   0.578
 3906TIP3   OH211670   6.650   3.909   0.805
 3906TIP3    H111671   6.646   4.007   0.803
 3906TIP3    H211672   6.572   3.884   0.756
 3907TIP3   OH211673   7.021   3.629   1.674
 3907TIP3    H111674   6.995   3.596   1.586
 3907TIP3    H211675   7.014   3.548   1.729
 3908TIP3   OH211676   6.584   4.859   1.055
 3908TIP3    H111677   6.509   4.880   1.112
 3908TIP3    H211678   6.550   4.892   0.969
 3909TIP3   OH211679   6.733   5.395   2.129
 3909TIP3    H111680   6.821   5.394   2.173
 3909TIP3    H211681   6.714   5.299   2.125
 3910TIP3   OH211682   7.215   5.353   2.172
 3910TIP3    H111683   7.304   5.314   2.179
 3910TIP3    H211684   7.179   5.298   2.100
 3911TIP3   OH211685   6.861   4.799   2.330
 3911TIP3    H111686   6.878   4.703   2.335
 3911TIP3    H211687   6.776   4.802   2.282
 3912TIP3   OH211688   7.395   4.834   2.068
 3912TIP3    H111689   7.428   4.869   1.985
 3912TIP3    H211690   7.477   4.832   2.123
 3913TIP3   OH211691   6.982   4.531   2.311
 3913TIP3    H111692   7.064   4.491   2.279
 3913TIP3    H211693   7.010   4.566   2.398
 3914TIP3   OH211694   7.075   4.340   0.753
 3914TIP3    H111695   7.017   4.323   0.829
 3914TIP3    H211696   7.090   4.250   0.719
 3915TIP3   OH211697   7.304   4.405   1.954
 3915TIP3    H111698   7.238   4.476   1.968
 3915TIP3    H211699   7.365   4.445   1.889
 3916TIP3   OH211700   7.197   4.082   0.591
 3916TIP3    H111701   7.134   4.088   0.516
 3916TIP3    H211702   7.278   4.119   0.552
 3917TIP3   OH211703   7.410   4.199   2.094
 3917TIP3    H111704   7.419   4.122   2.034
 3917TIP3    H211705   7.372   4.267   2.035
 3918TIP3   OH211706   7.438   3.992   1.908
 3918TIP3    H111707   7.461   4.034   1.823
 3918TIP3    H211708   7.344   3.970   1.894
 3919TIP3   OH211709   7.472   4.518   1.771
 3919TIP3    H111710   7.545   4.540   1.712
 3919TIP3    H211711   7.407   4.587   1.745
 3920TIP3   OH211712   7.318   4.312   2.333
 3920TIP3    H111713   7.250   4.243   2.347
 3920TIP3    H211714   7.346   4.292   2.242
 3921TIP3   OH211715   7.585   3.751   1.931
 3921TIP3    H111716   7.549   3.842   1.936
 3921TIP3    H211717   7.509   3.700   1.963
 3922TIP3   OH211718   7.668   4.271   2.172
 3922TIP3    H111719   7.646   4.243   2.262
 3922TIP3    H211720   7.582   4.255   2.128
 3923TIP3   OH211721   7.153   4.093   2.383
 3923TIP3    H111722   7.162   4.003   2.347
 3923TIP3    H211723   7.187   4.081   2.474
 3924TIP3   OH211724   7.656   3.918   2.381
 3924TIP3    H111725   7.702   3.909   2.296
 3924TIP3    H211726   7.630   4.012   2.382
 3925TIP3   OH211727   6.429   4.577   0.731
 3925TIP3    H111728   6.478   4.636   0.669
 3925TIP3    H211729   6.425   4.494   0.680
 3926TIP3   OH211730   6.350   5.204   1.121
 3926TIP3    H111731   6.287   5.140   1.081
 3926TIP3    H211732   6.396   5.146   1.185
 3927TIP3   OH211733   6.483   5.056   1.309
 3927TIP3    H111734   6.474   4.979   1.368
 3927TIP3    H211735   6.539   5.114   1.364
 3928TIP3   OH211736   6.671   4.459   1.680
 3928TIP3    H111737   6.669   4.427   1.588
 3928TIP3    H211738   6.769   4.462   1.695
 3929TIP3   OH211739   6.887   4.144   2.349
 3929TIP3    H111740   6.985   4.141   2.353
 3929TIP3    H211741   6.866   4.058   2.390
 3930TIP3   OH211742   6.848   3.844   1.686
 3930TIP3    H111743   6.907   3.766   1.692
 3930TIP3    H211744   6.913   3.916   1.675
 3931TIP3   OH211745   6.652   4.112   1.755
 3931TIP3    H111746   6.702   4.109   1.671
 3931TIP3    H211747   6.680   4.197   1.790
 3932TIP3   OH211748   6.639   3.619   1.258
 3932TIP3    H111749   6.546   3.612   1.282
 3932TIP3    H211750   6.635   3.677   1.179
 3933TIP3   OH211751   6.859   3.693   2.068
 3933TIP3    H111752   6.809   3.692   2.151
 3933TIP3    H211753   6.794   3.734   2.007
 3934TIP3   OH211754   6.894   5.132   2.147
 3934TIP3    H111755   6.804   5.100   2.132
 3934TIP3    H211756   6.913   5.102   2.237
 3935TIP3   OH211757   7.074   5.159   1.695
 3935TIP3    H111758   7.032   5.236   1.653
 3935TIP3    H211759   7.163   5.167   1.654
 3936TIP3   OH211760   7.536   5.417   1.836
 3936TIP3    H111761   7.561   5.403   1.930
 3936TIP3    H211762   7.623   5.429   1.797
 3937TIP3   OH211763   6.751   5.417   1.716
 3937TIP3    H111764   6.660   5.450   1.697
 3937TIP3    H211765   6.764   5.453   1.804
 3938TIP3   OH211766   6.990   5.395   1.579
 3938TIP3    H111767   6.901   5.406   1.621
 3938TIP3    H211768   6.971   5.422   1.487
 3939TIP3   OH211769   7.402   5.407   1.382
 3939TIP3    H111770   7.341   5.440   1.313
 3939TIP3    H211771   7.437   5.488   1.421
 3940TIP3   OH211772   6.664   5.207   1.465
 3940TIP3    H111773   6.692   5.180   1.555
 3940TIP3    H211774   6.735   5.163   1.413
 3941TIP3   OH211775   6.858   5.080   1.324
 3941TIP3    H111776   6.873   4.995   1.372
 3941TIP3    H211777   6.950   5.114   1.318
 3942TIP3   OH211778   7.126   5.175   1.328
 3942TIP3    H111779   7.156   5.083   1.314
 3942TIP3    H211780   7.177   5.195   1.409
 3943TIP3   OH211781   6.942   3.540   1.423
 3943TIP3    H111782   6.849   3.511   1.424
 3943TIP3    H211783   6.987   3.453   1.423
 3944TIP3   OH211784   6.746   3.408   1.079
 3944TIP3    H111785   6.766   3.461   1.000
 3944TIP3    H211786   6.713   3.477   1.141
 3945TIP3   OH211787   7.379   3.580   1.299
 3945TIP3    H111788   7.452   3.621   1.251
 3945TIP3    H211789   7.396   3.618   1.388
 3946TIP3   OH211790   6.444   4.977   0.862
 3946TIP3    H111791   6.379   4.927   0.811
 3946TIP3    H211792   6.433   5.065   0.824
 3947TIP3   OH211793   6.832   3.553   0.845
 3947TIP3    H111794   6.878   3.492   0.783
 3947TIP3    H211795   6.904   3.614   0.870
 3948TIP3   OH211796   7.309   3.737   0.955
 3948TIP3    H111797   7.323   3.714   1.048
 3948TIP3    H211798   7.341   3.829   0.952
 3949TIP3   OH211799   7.152   3.814   2.313
 3949TIP3    H111800   7.115   3.747   2.373
 3949TIP3    H211801   7.245   3.816   2.344
 3950TIP3   OH211802   7.399   3.828   2.440
 3950TIP3    H111803   7.494   3.845   2.426
 3950TIP3    H211804   7.400   3.749   2.498
 3951TIP3   OH211805   0.108   5.320   2.705
 3951TIP3    H111806   0.101   5.415   2.684
 3951TIP3    H211807   0.041   5.283   2.645
 3952TIP3   OH211808   0.128   5.347   3.065
 3952TIP3    H111809   0.136   5.322   3.157
 3952TIP3    H211810   0.042   5.306   3.040
 3953TIP3   OH211811   0.331   5.647   2.757
 3953TIP3    H111812   0.332   5.571   2.818
 3953TIP3    H211813   0.370   5.718   2.812
 3954TIP3   OH211814   0.906   4.878   3.114
 3954TIP3    H111815   0.935   4.963   3.154
 3954TIP3    H211816   0.927   4.893   3.021
 3955TIP3   OH211817   0.307   5.061   3.159
 3955TIP3    H111818   0.353   4.975   3.166
 3955TIP3    H211819   0.277   5.058   3.066
 3956TIP3   OH211820   0.339   4.810   2.730
 3956TIP3    H111821   0.409   4.795   2.798
 3956TIP3    H211822   0.394   4.843   2.657
 3957TIP3   OH211823   0.979   5.088   3.287
 3957TIP3    H111824   0.895   5.134   3.266
 3957TIP3    H211825   1.002   5.129   3.372
 3958TIP3   OH211826   0.064   5.554   2.569
 3958TIP3    H111827  -0.015   5.534   2.516
 3958TIP3    H211828   0.061   5.650   2.579
 3959TIP3   OH211829   0.544   4.817   2.908
 3959TIP3    H111830   0.530   4.769   2.990
 3959TIP3    H211831   0.595   4.895   2.937
 3960TIP3   OH211832   0.394   5.881   2.914
 3960TIP3    H111833   0.307   5.885   2.959
 3960TIP3    H211834   0.395   5.968   2.868
 3961TIP3   OH211835   0.696   4.779   3.279
 3961TIP3    H111836   0.609   4.804   3.243
 3961TIP3    H211837   0.757   4.813   3.210
 3962TIP3   OH211838   0.016   4.425   3.274
 3962TIP3    H111839   0.001   4.330   3.259
 3962TIP3    H211840  -0.072   4.452   3.302
 3963TIP3   OH211841   0.113   5.911   2.595
 3963TIP3    H111842   0.173   5.842   2.560
 3963TIP3    H211843   0.168   5.989   2.576
 3964TIP3   OH211844   0.280   5.721   2.495
 3964TIP3    H111845   0.240   5.640   2.460
 3964TIP3    H211846   0.312   5.689   2.582
 3965TIP3   OH211847   0.629   5.791   3.262
 3965TIP3    H111848   0.619   5.715   3.200
 3965TIP3    H211849   0.614   5.867   3.201
 3966TIP3   OH211850  -0.033   5.183   2.510
 3966TIP3    H111851  -0.118   5.193   2.463
 3966TIP3    H211852   0.028   5.169   2.434
 3967TIP3   OH211853  -0.084   4.968   2.256
 3967TIP3    H111854  -0.006   5.016   2.287
 3967TIP3    H211855  -0.044   4.899   2.201
 3968TIP3   OH211856   0.827   5.430   3.105
 3968TIP3    H111857   0.743   5.481   3.110
 3968TIP3    H211858   0.857   5.455   3.015
 3969TIP3   OH211859   0.278   5.275   2.490
 3969TIP3    H111860   0.228   5.291   2.572
 3969TIP3    H211861   0.364   5.245   2.528
 3970TIP3   OH211862   0.514   5.306   3.408
 3970TIP3    H111863   0.508   5.391   3.455
 3970TIP3    H211864   0.424   5.302   3.368
 3971TIP3   OH211865   0.165   5.893   3.074
 3971TIP3    H111866   0.200   5.932   3.156
 3971TIP3    H211867   0.165   5.798   3.102
 3972TIP3   OH211868   0.141   5.124   2.307
 3972TIP3    H111869   0.201   5.189   2.351
 3972TIP3    H211870   0.156   5.147   2.212
 3973TIP3   OH211871   0.627   4.366   2.364
 3973TIP3    H111872   0.545   4.389   2.412
 3973TIP3    H211873   0.642   4.448   2.312
 3974TIP3   OH211874   0.432   5.724   1.915
 3974TIP3    H111875   0.446   5.820   1.903
 3974TIP3    H211876   0.524   5.692   1.900
 3975TIP3   OH211877   0.869   6.140   3.308
 3975TIP3    H111878   0.865   6.044   3.324
 3975TIP3    H211879   0.787   6.169   3.355
 3976TIP3   OH211880  -0.009   6.023   2.350
 3976TIP3    H111881  -0.070   6.050   2.420
 3976TIP3    H211882   0.072   6.006   2.401
 3977TIP3   OH211883   0.754   5.264   3.585
 3977TIP3    H111884   0.676   5.281   3.530
 3977TIP3    H211885   0.771   5.169   3.567
 3978TIP3   OH211886   0.313   4.619   3.586
 3978TIP3    H111887   0.387   4.587   3.643
 3978TIP3    H211888   0.235   4.589   3.637
 3979TIP3   OH211889   0.524   5.041   3.491
 3979TIP3    H111890   0.479   5.041   3.579
 3979TIP3    H211891   0.508   5.132   3.459
 3980TIP3   OH211892   0.186   5.174   2.049
 3980TIP3    H111893   0.154   5.147   1.961
 3980TIP3    H211894   0.273   5.214   2.025
 3981TIP3   OH211895  -0.118   4.552   2.353
 3981TIP3    H111896  -0.135   4.542   2.449
 3981TIP3    H211897  -0.153   4.467   2.321
 3982TIP3   OH211898   0.085   4.986   2.657
 3982TIP3    H111899   0.039   5.058   2.609
 3982TIP3    H211900   0.136   4.945   2.585
 3983TIP3   OH211901   0.257   5.292   3.735
 3983TIP3    H111902   0.220   5.213   3.778
 3983TIP3    H211903   0.352   5.271   3.736
 3984TIP3   OH211904   0.229   5.011   2.896
 3984TIP3    H111905   0.164   5.042   2.829
 3984TIP3    H211906   0.262   4.932   2.846
 3985TIP3   OH211907   0.247   5.267   3.330
 3985TIP3    H111908   0.260   5.188   3.273
 3985TIP3    H211909   0.154   5.260   3.360
 3986TIP3   OH211910  -0.059   4.728   2.979
 3986TIP3    H111911  -0.137   4.715   3.035
 3986TIP3    H211912   0.012   4.737   3.045
 3987TIP3   OH211913   0.391   4.795   3.183
 3987TIP3    H111914   0.358   4.810   3.274
 3987TIP3    H211915   0.325   4.730   3.152
 3988TIP3   OH211916   0.568   6.486   3.404
 3988TIP3    H111917   0.567   6.511   3.310
 3988TIP3    H211918   0.645   6.535   3.438
 3989TIP3   OH211919   0.022   4.996   3.104
 3989TIP3    H111920   0.091   4.979   3.038
 3989TIP3    H211921   0.059   4.959   3.186
 3990TIP3   OH211922  -0.023   4.944   3.386
 3990TIP3    H111923  -0.095   5.009   3.389
 3990TIP3    H211924   0.043   4.983   3.447
 3991TIP3   OH211925   0.596   5.577   3.093
 3991TIP3    H111926   0.621   5.628   3.014
 3991TIP3    H211927   0.513   5.533   3.064
 3992TIP3   OH211928   0.140   4.650   2.332
 3992TIP3    H111929   0.043   4.637   2.339
 3992TIP3    H211930   0.153   4.744   2.359
 3993TIP3   OH211931   0.223   4.895   2.436
 3993TIP3    H111932   0.320   4.896   2.452
 3993TIP3    H211933   0.210   4.975   2.381
 3994TIP3   OH211934   0.234   5.936   3.350
 3994TIP3    H111935   0.155   5.909   3.400
 3994TIP3    H211936   0.287   5.971   3.425
 3995TIP3   OH211937   0.658   4.993   2.270
 3995TIP3    H111938   0.595   4.949   2.207
 3995TIP3    H211939   0.657   5.082   2.228
 3996TIP3   OH211940   0.880   5.846   3.349
 3996TIP3    H111941   0.782   5.843   3.341
 3996TIP3    H211942   0.906   5.817   3.259
 3997TIP3   OH211943   0.364   5.803   2.178
 3997TIP3    H111944   0.342   5.732   2.240
 3997TIP3    H211945   0.384   5.756   2.095
 3998TIP3   OH211946   0.373   5.445   2.997
 3998TIP3    H111947   0.282   5.412   3.016
 3998TIP3    H211948   0.410   5.363   2.956
 3999TIP3   OH211949   0.194   5.648   3.192
 3999TIP3    H111950   0.181   5.613   3.281
 3999TIP3    H211951   0.246   5.579   3.151
 4000TIP3   OH211952   0.103   5.536   2.067
 4000TIP3    H111953   0.153   5.514   2.149
 4000TIP3    H211954   0.021   5.483   2.081
 4001TIP3   OH211955   0.409   6.167   3.237
 4001TIP3    H111956   0.327   6.145   3.284
 4001TIP3    H211957   0.381   6.239   3.178
 4002TIP3   OH211958   0.462   5.994   1.908
 4002TIP3    H111959   0.470   6.051   1.828
 4002TIP3    H211960   0.387   6.039   1.951
 4003TIP3   OH211961   0.276   5.470   2.289
 4003TIP3    H111962   0.266   5.408   2.364
 4003TIP3    H211963   0.372   5.465   2.275
 4004TIP3   OH211964   0.321   4.856   3.442
 4004TIP3    H111965   0.407   4.894   3.467
 4004TIP3    H211966   0.317   4.775   3.498
 4005TIP3   OH211967   0.209   4.589   2.610
 4005TIP3    H111968   0.184   4.615   2.519
 4005TIP3    H211969   0.239   4.675   2.647
 4006TIP3   OH211970  -0.057   4.757   2.701
 4006TIP3    H111971  -0.003   4.837   2.690
 4006TIP3    H211972  -0.097   4.774   2.788
 4007TIP3   OH211973   0.144   5.051   3.585
 4007TIP3    H111974   0.145   5.147   3.571
 4007TIP3    H211975   0.217   5.019   3.530
 4008TIP3   OH211976   0.038   4.502   2.818
 4008TIP3    H111977   0.016   4.583   2.867
 4008TIP3    H211978   0.093   4.540   2.745
 4009TIP3   OH211979   0.790   5.000   3.505
 4009TIP3    H111980   0.692   4.996   3.502
 4009TIP3    H211981   0.811   4.963   3.418
 4010TIP3   OH211982   0.448   5.196   2.889
 4010TIP3    H111983   0.370   5.138   2.899
 4010TIP3    H211984   0.517   5.146   2.937
 4011TIP3   OH211985   0.410   6.147   2.835
 4011TIP3    H111986   0.365   6.200   2.765
 4011TIP3    H211987   0.504   6.170   2.815
 4012TIP3   OH211988   0.324   6.029   3.587
 4012TIP3    H111989   0.306   5.986   3.673
 4012TIP3    H211990   0.379   6.104   3.615
 4013TIP3   OH211991   0.132   5.772   1.879
 4013TIP3    H111992   0.157   5.730   1.963
 4013TIP3    H211993   0.204   5.742   1.821
 4014TIP3   OH211994  -0.170   5.432   2.123
 4014TIP3    H111995  -0.262   5.463   2.136
 4014TIP3    H211996  -0.182   5.336   2.114
 4015TIP3   OH211997   0.416   5.686   3.402
 4015TIP3    H111998   0.496   5.722   3.359
 4015TIP3    H211999   0.351   5.755   3.380
 4016TIP3   OH212000   0.315   5.620   3.804
 4016TIP3    H112001   0.378   5.589   3.738
 4016TIP3    H212002   0.283   5.539   3.843
 4017TIP3   OH212003   0.420   5.261   1.934
 4017TIP3    H112004   0.413   5.215   1.849
 4017TIP3    H212005   0.383   5.349   1.910
 4018TIP3   OH212006   0.516   5.269   3.830
 4018TIP3    H112007   0.575   5.194   3.812
 4018TIP3    H212008   0.575   5.344   3.814
 4019TIP3   OH212009   0.543   5.534   3.583
 4019TIP3    H112010   0.484   5.590   3.528
 4019TIP3    H212011   0.630   5.557   3.543
 4020TIP3   OH212012   0.056   4.542   3.665
 4020TIP3    H112013   0.004   4.616   3.632
 4020TIP3    H212014  -0.004   4.469   3.645
 4021TIP3   OH212015   0.186   5.073   3.901
 4021TIP3    H112016   0.100   5.088   3.948
 4021TIP3    H212017   0.151   5.020   3.827
 4022TIP3   OH212018   0.415   4.997   3.735
 4022TIP3    H112019   0.330   4.992   3.780
 4022TIP3    H212020   0.477   4.967   3.805
 4023TIP3   OH212021   0.591   4.934   3.942
 4023TIP3    H112022   0.608   4.839   3.923
 4023TIP3    H212023   0.640   4.943   4.025
 4024TIP3   OH212024   0.150   4.558   3.922
 4024TIP3    H112025   0.206   4.478   3.924
 4024TIP3    H212026   0.105   4.547   3.836
 4025TIP3   OH212027   0.131   4.781   4.069
 4025TIP3    H112028   0.161   4.698   4.027
 4025TIP3    H212029   0.055   4.799   4.012
 4026TIP3   OH212030   0.664   6.242   2.798
 4026TIP3    H112031   0.691   6.273   2.886
 4026TIP3    H212032   0.731   6.282   2.741
 4027TIP3   OH212033   0.700   6.263   3.079
 4027TIP3    H112034   0.654   6.177   3.074
 4027TIP3    H212035   0.774   6.239   3.136
 4028TIP3   OH212036   0.749   5.937   3.646
 4028TIP3    H112037   0.676   5.946   3.711
 4028TIP3    H212038   0.789   6.026   3.649
 4029TIP3   OH212039   0.555   5.452   2.270
 4029TIP3    H112040   0.621   5.516   2.238
 4029TIP3    H212041   0.601   5.415   2.349
 4030TIP3   OH212042   0.685   5.320   2.474
 4030TIP3    H112043   0.620   5.277   2.534
 4030TIP3    H212044   0.752   5.355   2.537
 4031TIP3   OH212045   0.741   5.712   2.903
 4031TIP3    H112046   0.793   5.645   2.856
 4031TIP3    H212047   0.742   5.787   2.840
 4032TIP3   OH212048   0.578   6.006   3.095
 4032TIP3    H112049   0.510   6.056   3.145
 4032TIP3    H212050   0.525   5.963   3.025
 4033TIP3   OH212051   0.622   5.228   2.120
 4033TIP3    H112052   0.551   5.228   2.052
 4033TIP3    H212053   0.593   5.304   2.174
 4034TIP3   OH212054   0.488   4.903   2.078
 4034TIP3    H112055   0.459   4.932   1.991
 4034TIP3    H212056   0.466   4.807   2.073
 4035TIP3   OH212057   0.500   5.176   2.619
 4035TIP3    H112058   0.507   5.079   2.611
 4035TIP3    H212059   0.485   5.187   2.716
 4036TIP3   OH212060   0.788   5.601   3.478
 4036TIP3    H112061   0.860   5.535   3.466
 4036TIP3    H212062   0.814   5.671   3.416
 4037TIP3   OH212063   0.969   5.400   3.488
 4037TIP3    H112064   0.896   5.351   3.532
 4037TIP3    H212065   1.044   5.339   3.505
 4038TIP3   OH212066   0.436   4.637   2.063
 4038TIP3    H112067   0.511   4.602   2.114
 4038TIP3    H212068   0.365   4.573   2.079
 4039TIP3   OH212069   0.497   4.892   2.511
 4039TIP3    H112070   0.537   4.803   2.527
 4039TIP3    H212071   0.556   4.924   2.440
 4040TIP3   OH212072   0.657   5.062   3.012
 4040TIP3    H112073   0.742   5.087   2.970
 4040TIP3    H212074   0.672   5.100   3.100
 4041TIP3   OH212075   0.731   5.210   3.241
 4041TIP3    H112076   0.653   5.245   3.289
 4041TIP3    H212077   0.763   5.290   3.195
 4042TIP3   OH212078   1.173   4.799   3.795
 4042TIP3    H112079   1.237   4.736   3.756
 4042TIP3    H212080   1.146   4.853   3.718
 4043TIP3   OH212081   0.603   4.643   2.553
 4043TIP3    H112082   0.652   4.626   2.636
 4043TIP3    H212083   0.543   4.566   2.551
 4044TIP3   OH212084   1.045   4.938   3.597
 4044TIP3    H112085   0.958   4.981   3.610
 4044TIP3    H212086   1.017   4.862   3.542
 4045TIP3   OH212087   0.684   4.573   2.187
 4045TIP3    H112088   0.722   4.503   2.129
 4045TIP3    H212089   0.752   4.644   2.182
 4046TIP3   OH212090   0.261   6.099   2.467
 4046TIP3    H112091   0.317   6.081   2.388
 4046TIP3    H212092   0.311   6.171   2.509
 4047TIP3   OH212093   0.948   4.701   3.481
 4047TIP3    H112094   0.858   4.692   3.445
 4047TIP3    H212095   0.981   4.609   3.472
 4048TIP3   OH212096   0.366   6.352   3.033
 4048TIP3    H112097   0.334   6.428   2.982
 4048TIP3    H212098   0.371   6.282   2.965
 4049TIP3   OH212099   0.168   4.622   3.120
 4049TIP3    H112100   0.117   4.550   3.162
 4049TIP3    H212101   0.226   4.572   3.059
 4050TIP3   OH212102   0.674   4.500   3.008
 4050TIP3    H112103   0.709   4.551   2.932
 4050TIP3    H212104   0.578   4.514   2.999
 4051TIP3   OH212105   0.768   4.596   2.770
 4051TIP3    H112106   0.842   4.545   2.730
 4051TIP3    H212107   0.801   4.687   2.755
 4052TIP3   OH212108  -0.135   4.327   3.021
 4052TIP3    H112109  -0.081   4.359   2.948
 4052TIP3    H212110  -0.192   4.405   3.037
 4053TIP3   OH212111   0.393   4.507   2.978
 4053TIP3    H112112   0.385   4.466   2.891
 4053TIP3    H212113   0.379   4.429   3.037
 4054TIP3   OH212114   0.423   4.430   2.544
 4054TIP3    H112115   0.340   4.478   2.564
 4054TIP3    H212116   0.405   4.344   2.587
 4055TIP3   OH212117  -0.156   4.502   2.619
 4055TIP3    H112118  -0.094   4.489   2.693
 4055TIP3    H212119  -0.171   4.599   2.625
 4056TIP3   OH212120   0.412   6.063   2.238
 4056TIP3    H112121   0.404   5.965   2.227
 4056TIP3    H212122   0.363   6.092   2.159
 4057TIP3   OH212123   0.685   4.678   3.912
 4057TIP3    H112124   0.702   4.642   4.002
 4057TIP3    H212125   0.774   4.670   3.872
 4058TIP3   OH212126   0.625   6.219   3.407
 4058TIP3    H112127   0.550   6.190   3.352
 4058TIP3    H212128   0.603   6.315   3.416
 4059TIP3   OH212129   1.884   5.590   2.177
 4059TIP3    H112130   1.858   5.681   2.153
 4059TIP3    H212131   1.812   5.540   2.133
 4060TIP3   OH212132   1.893   5.578   2.551
 4060TIP3    H112133   1.900   5.504   2.613
 4060TIP3    H212134   1.849   5.537   2.476
 4061TIP3   OH212135   1.185   5.485   2.920
 4061TIP3    H112136   1.218   5.416   2.980
 4061TIP3    H212137   1.262   5.544   2.915
 4062TIP3   OH212138   2.132   5.892   2.230
 4062TIP3    H112139   2.115   5.835   2.306
 4062TIP3    H212140   2.157   5.976   2.276
 4063TIP3   OH212141   1.158   5.896   2.641
 4063TIP3    H112142   1.151   5.798   2.642
 4063TIP3    H212143   1.254   5.907   2.633
 4064TIP3   OH212144   0.865   5.096   2.426
 4064TIP3    H112145   0.817   5.179   2.442
 4064TIP3    H212146   0.794   5.044   2.382
 4065TIP3   OH212147   0.921   5.385   2.604
 4065TIP3    H112148   0.971   5.307   2.636
 4065TIP3    H212149   0.981   5.421   2.536
 4066TIP3   OH212150   1.783   6.355   2.255
 4066TIP3    H112151   1.825   6.282   2.206
 4066TIP3    H212152   1.791   6.325   2.347
 4067TIP3   OH212153   1.683   5.817   2.609
 4067TIP3    H112154   1.725   5.746   2.557
 4067TIP3    H212155   1.765   5.865   2.634
 4068TIP3   OH212156   2.698   5.134   2.601
 4068TIP3    H112157   2.729   5.217   2.642
 4068TIP3    H212158   2.726   5.147   2.509
 4069TIP3   OH212159   2.084   5.314   2.661
 4069TIP3    H112160   2.140   5.234   2.663
 4069TIP3    H212161   2.063   5.320   2.567
 4070TIP3   OH212162   1.440   4.978   2.599
 4070TIP3    H112163   1.419   5.050   2.535
 4070TIP3    H212164   1.393   4.904   2.555
 4071TIP3   OH212165   2.130   5.075   2.220
 4071TIP3    H112166   2.201   5.059   2.286
 4071TIP3    H212167   2.185   5.105   2.144
 4072TIP3   OH212168   1.069   5.178   2.706
 4072TIP3    H112169   1.152   5.160   2.754
 4072TIP3    H212170   1.084   5.123   2.626
 4073TIP3   OH212171   1.510   5.376   2.503
 4073TIP3    H112172   1.604   5.351   2.513
 4073TIP3    H212173   1.471   5.293   2.468
 4074TIP3   OH212174   2.769   5.342   2.779
 4074TIP3    H112175   2.688   5.394   2.759
 4074TIP3    H212176   2.803   5.387   2.858
 4075TIP3   OH212177   1.432   4.962   3.035
 4075TIP3    H112178   1.373   4.997   2.966
 4075TIP3    H212179   1.378   4.979   3.115
 4076TIP3   OH212180   1.778   5.811   2.040
 4076TIP3    H112181   1.736   5.798   1.954
 4076TIP3    H212182   1.735   5.893   2.070
 4077TIP3   OH212183   1.542   5.735   2.835
 4077TIP3    H112184   1.482   5.805   2.868
 4077TIP3    H212185   1.585   5.782   2.760
 4078TIP3   OH212186   2.336   5.076   2.395
 4078TIP3    H112187   2.355   5.010   2.463
 4078TIP3    H212188   2.392   5.151   2.422
 4079TIP3   OH212189   1.304   5.075   2.817
 4079TIP3    H112190   1.366   5.147   2.840
 4079TIP3    H212191   1.352   5.035   2.741
 4080TIP3   OH212192   1.369   5.932   2.925
 4080TIP3    H112193   1.346   6.019   2.886
 4080TIP3    H212194   1.288   5.917   2.979
 4081TIP3   OH212195   0.758   5.622   2.163
 4081TIP3    H112196   0.722   5.649   2.076
 4081TIP3    H212197   0.792   5.706   2.198
 4082TIP3   OH212198   2.186   6.117   2.373
 4082TIP3    H112199   2.105   6.117   2.429
 4082TIP3    H212200   2.206   6.212   2.372
 4083TIP3   OH212201   2.482   5.049   2.767
 4083TIP3    H112202   2.398   5.059   2.719
 4083TIP3    H212203   2.549   5.077   2.700
 4084TIP3   OH212204   1.785   4.680   2.746
 4084TIP3    H112205   1.773   4.585   2.763
 4084TIP3    H212206   1.708   4.716   2.795
 4085TIP3   OH212207   1.896   6.181   2.066
 4085TIP3    H112208   1.949   6.099   2.053
 4085TIP3    H212209   1.960   6.247   2.032
 4086TIP3   OH212210   2.047   5.967   1.983
 4086TIP3    H112211   2.004   5.887   1.951
 4086TIP3    H212212   2.087   5.936   2.067
 4087TIP3   OH212213   2.431   6.037   2.756
 4087TIP3    H112214   2.410   5.984   2.678
 4087TIP3    H212215   2.385   6.123   2.736
 4088TIP3   OH212216   1.721   5.445   2.006
 4088TIP3    H112217   1.641   5.497   1.984
 4088TIP3    H212218   1.764   5.438   1.919
 4089TIP3   OH212219   1.677   5.229   1.719
 4089TIP3    H112220   1.745   5.282   1.764
 4089TIP3    H212221   1.734   5.165   1.671
 4090TIP3   OH212222   2.625   5.687   2.590
 4090TIP3    H112223   2.540   5.737   2.593
 4090TIP3    H212224   2.656   5.712   2.500
 4091TIP3   OH212225   2.065   5.527   1.976
 4091TIP3    H112226   2.012   5.550   2.055
 4091TIP3    H212227   2.151   5.503   2.017
 4092TIP3   OH212228   1.297   5.522   2.395
 4092TIP3    H112229   1.255   5.465   2.326
 4092TIP3    H212230   1.374   5.468   2.422
 4093TIP3   OH212231   1.425   5.930   2.543
 4093TIP3    H112232   1.410   5.898   2.453
 4093TIP3    H212233   1.515   5.898   2.562
 4094TIP3   OH212234   1.438   5.493   2.749
 4094TIP3    H112235   1.468   5.470   2.658
 4094TIP3    H212236   1.479   5.580   2.764
 4095TIP3   OH212237   1.958   6.127   2.519
 4095TIP3    H112238   1.953   6.219   2.553
 4095TIP3    H212239   1.937   6.073   2.596
 4096TIP3   OH212240   1.568   6.041   3.086
 4096TIP3    H112241   1.506   6.106   3.125
 4096TIP3    H212242   1.506   5.993   3.026
 4097TIP3   OH212243   1.904   5.385   1.801
 4097TIP3    H112244   1.963   5.446   1.851
 4097TIP3    H212245   1.931   5.405   1.708
 4098TIP3   OH212246   1.331   5.601   3.178
 4098TIP3    H112247   1.336   5.691   3.216
 4098TIP3    H212248   1.235   5.583   3.189
 4099TIP3   OH212249   1.651   6.059   2.077
 4099TIP3    H112250   1.734   6.109   2.085
 4099TIP3    H212251   1.592   6.125   2.039
 4100TIP3   OH212252   1.366   6.215   3.157
 4100TIP3    H112253   1.332   6.221   3.066
 4100TIP3    H212254   1.285   6.194   3.209
 4101TIP3   OH212255   2.422   4.622   1.851
 4101TIP3    H112256   2.340   4.644   1.899
 4101TIP3    H212257   2.437   4.705   1.800
 4102TIP3   OH212258   1.163   5.366   2.199
 4102TIP3    H112259   1.097   5.410   2.143
 4102TIP3    H212260   1.128   5.277   2.204
 4103TIP3   OH212261   2.222   5.989   1.397
 4103TIP3    H112262   2.231   6.086   1.383
 4103TIP3    H212263   2.315   5.960   1.385
 4104TIP3   OH212264   0.944   5.749   3.105
 4104TIP3    H112265   0.879   5.728   3.036
 4104TIP3    H212266   0.983   5.661   3.125
 4105TIP3   OH212267   0.801   5.941   2.740
 4105TIP3    H112268   0.897   5.937   2.727
 4105TIP3    H212269   0.793   6.020   2.795
 4106TIP3   OH212270   2.668   6.398   2.791
 4106TIP3    H112271   2.660   6.301   2.803
 4106TIP3    H212272   2.590   6.428   2.843
 4107TIP3   OH212273   1.751   6.170   2.925
 4107TIP3    H112274   1.770   6.261   2.954
 4107TIP3    H212275   1.687   6.140   2.992
 4108TIP3   OH212276   1.533   6.308   1.879
 4108TIP3    H112277   1.485   6.293   1.795
 4108TIP3    H212278   1.500   6.395   1.908
 4109TIP3   OH212279   0.969   6.159   2.267
 4109TIP3    H112280   1.018   6.150   2.352
 4109TIP3    H212281   0.918   6.076   2.267
 4110TIP3   OH212282   1.732   6.210   1.519
 4110TIP3    H112283   1.792   6.140   1.484
 4110TIP3    H212284   1.766   6.221   1.611
 4111TIP3   OH212285   1.784   6.259   1.788
 4111TIP3    H112286   1.695   6.268   1.829
 4111TIP3    H212287   1.835   6.223   1.863
 4112TIP3   OH212288   2.564   5.526   3.084
 4112TIP3    H112289   2.487   5.558   3.036
 4112TIP3    H212290   2.567   5.431   3.059
 4113TIP3   OH212291   1.150   5.931   3.088
 4113TIP3    H112292   1.199   5.918   3.172
 4113TIP3    H212293   1.075   5.869   3.099
 4114TIP3   OH212294   1.549   4.755   2.881
 4114TIP3    H112295   1.463   4.724   2.848
 4114TIP3    H212296   1.520   4.835   2.929
 4115TIP3   OH212297   2.081   4.887   3.063
 4115TIP3    H112298   2.153   4.851   3.120
 4115TIP3    H212299   2.001   4.857   3.112
 4116TIP3   OH212300   1.984   5.429   1.547
 4116TIP3    H112301   1.948   5.405   1.460
 4116TIP3    H212302   2.068   5.472   1.521
 4117TIP3   OH212303   1.694   4.801   1.850
 4117TIP3    H112304   1.656   4.795   1.940
 4117TIP3    H212305   1.655   4.720   1.811
 4118TIP3   OH212306   1.482   5.270   2.894
 4118TIP3    H112307   1.430   5.290   2.975
 4118TIP3    H212308   1.467   5.353   2.842
 4119TIP3   OH212309   1.366   5.158   2.410
 4119TIP3    H112310   1.273   5.132   2.428
 4119TIP3    H212311   1.378   5.118   2.321
 4120TIP3   OH212312   1.857   5.244   2.141
 4120TIP3    H112313   1.807   5.315   2.095
 4120TIP3    H212314   1.912   5.209   2.069
 4121TIP3   OH212315   2.050   5.480   3.171
 4121TIP3    H112316   2.009   5.441   3.252
 4121TIP3    H212317   2.119   5.536   3.213
 4122TIP3   OH212318   2.011   5.274   2.382
 4122TIP3    H112319   1.951   5.301   2.309
 4122TIP3    H212320   2.048   5.194   2.340
 4123TIP3   OH212321   1.305   5.299   3.103
 4123TIP3    H112322   1.321   5.366   3.171
 4123TIP3    H212323   1.292   5.218   3.156
 4124TIP3   OH212324   1.352   4.780   1.813
 4124TIP3    H112325   1.340   4.778   1.910
 4124TIP3    H212326   1.274   4.832   1.787
 4125TIP3   OH212327   0.893   4.820   2.688
 4125TIP3    H112328   0.969   4.853   2.739
 4125TIP3    H212329   0.931   4.791   2.604
 4126TIP3   OH212330   0.861   4.801   2.207
 4126TIP3    H112331   0.906   4.836   2.127
 4126TIP3    H212332   0.800   4.875   2.224
 4127TIP3   OH212333   1.699   4.981   2.471
 4127TIP3    H112334   1.616   4.979   2.522
 4127TIP3    H212335   1.766   4.971   2.540
 4128TIP3   OH212336   1.126   5.036   2.479
 4128TIP3    H112337   1.032   5.043   2.450
 4128TIP3    H212338   1.150   4.945   2.454
 4129TIP3   OH212339   1.392   5.032   2.168
 4129TIP3    H112340   1.486   5.045   2.144
 4129TIP3    H212341   1.345   5.052   2.084
 4130TIP3   OH212342   2.193   5.051   2.683
 4130TIP3    H112343   2.139   5.056   2.763
 4130TIP3    H212344   2.140   4.992   2.627
 4131TIP3   OH212345   1.241   5.067   1.945
 4131TIP3    H112346   1.172   5.020   1.895
 4131TIP3    H212347   1.294   5.104   1.871
 4132TIP3   OH212348   2.349   6.747   2.891
 4132TIP3    H112349   2.348   6.766   2.796
 4132TIP3    H212350   2.431   6.791   2.920
 4133TIP3   OH212351   1.313   5.851   3.312
 4133TIP3    H112352   1.393   5.884   3.359
 4133TIP3    H212353   1.248   5.854   3.385
 4134TIP3   OH212354   1.772   5.302   2.569
 4134TIP3    H112355   1.847   5.269   2.517
 4134TIP3    H212356   1.783   5.256   2.653
 4135TIP3   OH212357   1.298   4.796   2.449
 4135TIP3    H112358   1.262   4.718   2.497
 4135TIP3    H212359   1.341   4.754   2.373
 4136TIP3   OH212360   1.743   5.203   2.857
 4136TIP3    H112361   1.647   5.221   2.848
 4136TIP3    H212362   1.769   5.275   2.915
 4137TIP3   OH212363   1.488   5.595   1.952
 4137TIP3    H112364   1.416   5.529   1.941
 4137TIP3    H212365   1.468   5.629   2.043
 4138TIP3   OH212366   2.388   5.822   2.575
 4138TIP3    H112367   2.410   5.880   2.499
 4138TIP3    H212368   2.300   5.786   2.548
 4139TIP3   OH212369   1.946   4.904   1.824
 4139TIP3    H112370   1.849   4.884   1.828
 4139TIP3    H212371   1.951   4.999   1.844
 4140TIP3   OH212372   1.892   5.925   2.951
 4140TIP3    H112373   1.917   5.924   3.044
 4140TIP3    H212374   1.848   6.012   2.942
 4141TIP3   OH212375   2.014   5.158   1.924
 4141TIP3    H112376   2.110   5.163   1.936
 4141TIP3    H212377   1.995   5.237   1.870
 4142TIP3   OH212378   1.181   5.617   2.628
 4142TIP3    H112379   1.219   5.590   2.542
 4142TIP3    H212380   1.224   5.556   2.689
 4143TIP3   OH212381   1.633   5.745   1.775
 4143TIP3    H112382   1.584   5.830   1.778
 4143TIP3    H212383   1.579   5.690   1.836
 4144TIP3   OH212384   1.066   5.535   3.241
 4144TIP3    H112385   1.083   5.524   3.337
 4144TIP3    H212386   0.994   5.472   3.227
 4145TIP3   OH212387   1.796   5.642   3.262
 4145TIP3    H112388   1.729   5.584   3.223
 4145TIP3    H212389   1.874   5.624   3.207
 4146TIP3   OH212390   2.455   5.249   1.755
 4146TIP3    H112391   2.394   5.205   1.692
 4146TIP3    H212392   2.453   5.339   1.716
 4147TIP3   OH212393   2.682   6.109   2.832
 4147TIP3    H112394   2.585   6.100   2.823
 4147TIP3    H212395   2.709   6.076   2.743
 4148TIP3   OH212396   2.161   6.066   1.665
 4148TIP3    H112397   2.130   6.001   1.729
 4148TIP3    H212398   2.170   6.015   1.583
 4149TIP3   OH212399   2.152   5.692   2.501
 4149TIP3    H112400   2.059   5.668   2.520
 4149TIP3    H212401   2.182   5.612   2.454
 4150TIP3   OH212402   1.285   5.922   2.253
 4150TIP3    H112403   1.283   6.003   2.198
 4150TIP3    H212404   1.191   5.906   2.266
 4151TIP3   OH212405   0.851   5.224   1.963
 4151TIP3    H112406   0.893   5.310   1.981
 4151TIP3    H212407   0.772   5.229   2.022
 4152TIP3   OH212408   1.416   5.684   2.196
 4152TIP3    H112409   1.383   5.774   2.214
 4152TIP3    H212410   1.380   5.635   2.272
 4153TIP3   OH212411   1.554   6.263   2.721
 4153TIP3    H112412   1.598   6.335   2.672
 4153TIP3    H212413   1.629   6.226   2.771
 4154TIP3   OH212414   1.200   6.163   2.105
 4154TIP3    H112415   1.115   6.173   2.152
 4154TIP3    H212416   1.233   6.256   2.108
 4155TIP3   OH212417   1.935   5.892   2.686
 4155TIP3    H112418   1.929   5.894   2.784
 4155TIP3    H212419   2.026   5.864   2.671
 4156TIP3   OH212420   1.917   5.797   1.564
 4156TIP3    H112421   1.971   5.769   1.642
 4156TIP3    H212422   1.829   5.765   1.592
 4157TIP3   OH212423   2.254   6.267   1.382
 4157TIP3    H112424   2.294   6.345   1.340
 4157TIP3    H212425   2.172   6.308   1.418
 4158TIP3   OH212426   1.272   5.042   3.249
 4158TIP3    H112427   1.175   5.042   3.261
 4158TIP3    H212428   1.301   4.986   3.323
 4159TIP3   OH212429   2.077   5.723   1.777
 4159TIP3    H112430   2.065   5.660   1.850
 4159TIP3    H212431   2.174   5.721   1.767
 4160TIP3   OH212432   0.989   6.126   2.880
 4160TIP3    H112433   1.047   6.057   2.917
 4160TIP3    H212434   1.015   6.202   2.933
 4161TIP3   OH212435   1.277   5.774   1.565
 4161TIP3    H112436   1.292   5.681   1.538
 4161TIP3    H212437   1.258   5.762   1.660
 4162TIP3   OH212438   1.224   5.778   1.837
 4162TIP3    H112439   1.299   5.751   1.891
 4162TIP3    H212440   1.228   5.876   1.845
 4163TIP3   OH212441   0.958   5.471   2.041
 4163TIP3    H112442   0.892   5.516   2.097
 4163TIP3    H212443   0.972   5.539   1.972
 4164TIP3   OH212444   2.107   5.150   2.971
 4164TIP3    H112445   2.187   5.110   3.008
 4164TIP3    H212446   2.051   5.071   2.974
 4165TIP3   OH212447   1.990   4.857   2.102
 4165TIP3    H112448   1.977   4.875   2.007
 4165TIP3    H212449   2.028   4.941   2.134
 4166TIP3   OH212450   1.490   5.974   1.783
 4166TIP3    H112451   1.404   5.998   1.821
 4166TIP3    H212452   1.508   6.053   1.729
 4167TIP3   OH212453   1.677   5.041   2.201
 4167TIP3    H112454   1.742   5.113   2.182
 4167TIP3    H212455   1.684   5.034   2.298
 4168TIP3   OH212456   1.820   4.763   2.300
 4168TIP3    H112457   1.810   4.843   2.353
 4168TIP3    H212458   1.883   4.794   2.231
 4169TIP3   OH212459   1.237   6.050   1.856
 4169TIP3    H112460   1.208   6.121   1.794
 4169TIP3    H212461   1.221   6.093   1.943
 4170TIP3   OH212462   1.333   4.766   2.091
 4170TIP3    H112463   1.333   4.856   2.128
 4170TIP3    H212464   1.429   4.746   2.097
 4171TIP3   OH212465   2.563   5.264   2.988
 4171TIP3    H112466   2.497   5.195   3.003
 4171TIP3    H212467   2.599   5.238   2.902
 4172TIP3   OH212468   2.237   5.448   2.377
 4172TIP3    H112469   2.164   5.385   2.385
 4172TIP3    H212470   2.311   5.401   2.422
 4173TIP3   OH212471   0.957   5.678   1.844
 4173TIP3    H112472   1.029   5.743   1.854
 4173TIP3    H212473   0.999   5.619   1.777
 4174TIP3   OH212474   0.894   4.953   1.984
 4174TIP3    H112475   0.896   5.051   1.981
 4174TIP3    H212476   0.824   4.933   1.921
 4175TIP3   OH212477   2.210   6.411   2.324
 4175TIP3    H112478   2.167   6.456   2.249
 4175TIP3    H212479   2.305   6.426   2.303
 4176TIP3   OH212480   1.284   4.677   2.850
 4176TIP3    H112481   1.255   4.643   2.763
 4176TIP3    H212482   1.273   4.598   2.907
 4177TIP3   OH212483   0.821   5.890   2.230
 4177TIP3    H112484   0.757   5.921   2.295
 4177TIP3    H212485   0.789   5.934   2.148
 4178TIP3   OH212486   0.984   6.442   3.303
 4178TIP3    H112487   1.069   6.443   3.351
 4178TIP3    H212488   0.964   6.347   3.304
 4179TIP3   OH212489   1.456   6.397   3.352
 4179TIP3    H112490   1.553   6.389   3.355
 4179TIP3    H212491   1.435   6.335   3.279
 4180TIP3   OH212492   1.443   5.974   1.473
 4180TIP3    H112493   1.385   5.904   1.513
 4180TIP3    H212494   1.519   5.920   1.447
 4181TIP3   OH212495   2.075   6.334   3.109
 4181TIP3    H112496   2.081   6.248   3.154
 4181TIP3    H212497   2.168   6.359   3.095
 4182TIP3   OH212498   1.879   6.014   1.391
 4182TIP3    H112499   1.916   5.947   1.452
 4182TIP3    H212500   1.939   6.007   1.314
 4183TIP3   OH212501   1.111   5.843   3.504
 4183TIP3    H112502   1.124   5.746   3.511
 4183TIP3    H212503   1.024   5.847   3.459
 4184TIP3   OH212504   1.092   5.493   1.702
 4184TIP3    H112505   1.149   5.461   1.774
 4184TIP3    H212506   1.158   5.496   1.629
 4185TIP3   OH212507   1.720   5.928   3.282
 4185TIP3    H112508   1.675   5.954   3.198
 4185TIP3    H212509   1.750   5.837   3.264
 4186TIP3   OH212510   1.602   5.694   1.506
 4186TIP3    H112511   1.604   5.704   1.603
 4186TIP3    H212512   1.604   5.596   1.498
 4187TIP3   OH212513   2.211   5.934   2.888
 4187TIP3    H112514   2.288   5.976   2.845
 4187TIP3    H212515   2.145   6.004   2.881
 4188TIP3   OH212516   1.230   5.574   3.489
 4188TIP3    H112517   1.311   5.529   3.462
 4188TIP3    H212518   1.257   5.611   3.576
 4189TIP3   OH212519   1.295   5.398   1.918
 4189TIP3    H112520   1.269   5.354   2.000
 4189TIP3    H212521   1.334   5.324   1.867
 4190TIP3   OH212522   1.572   5.466   3.146
 4190TIP3    H112523   1.489   5.519   3.149
 4190TIP3    H212524   1.614   5.498   3.064
 4191TIP3   OH212525   1.398   5.194   1.760
 4191TIP3    H112526   1.373   5.199   1.665
 4191TIP3    H212527   1.496   5.193   1.753
 4192TIP3   OH212528   2.076   5.845   3.279
 4192TIP3    H112529   2.162   5.839   3.237
 4192TIP3    H212530   2.087   5.791   3.360
 4193TIP3   OH212531   2.217   5.521   1.426
 4193TIP3    H112532   2.197   5.476   1.341
 4193TIP3    H212533   2.182   5.611   1.404
 4194TIP3   OH212534   1.690   5.253   3.270
 4194TIP3    H112535   1.683   5.173   3.215
 4194TIP3    H212536   1.641   5.320   3.216
 4195TIP3   OH212537   1.689   5.037   3.080
 4195TIP3    H112538   1.711   5.071   2.991
 4195TIP3    H212539   1.595   5.012   3.068
 4196TIP3   OH212540   1.725   5.564   2.938
 4196TIP3    H112541   1.799   5.597   2.886
 4196TIP3    H212542   1.656   5.628   2.911
 4197TIP3   OH212543   2.297   5.535   3.332
 4197TIP3    H112544   2.355   5.461   3.356
 4197TIP3    H212545   2.361   5.600   3.298
 4198TIP3   OH212546   2.343   5.789   3.076
 4198TIP3    H112547   2.280   5.829   3.011
 4198TIP3    H212548   2.427   5.813   3.033
 4199TIP3   OH212549   1.566   5.358   3.506
 4199TIP3    H112550   1.499   5.289   3.522
 4199TIP3    H212551   1.601   5.332   3.419
 4200TIP3   OH212552   1.825   4.800   3.148
 4200TIP3    H112553   1.770   4.879   3.127
 4200TIP3    H212554   1.759   4.728   3.138
 4201TIP3   OH212555   1.952   5.306   3.356
 4201TIP3    H112556   1.951   5.295   3.453
 4201TIP3    H212557   1.859   5.282   3.337
 4202TIP3   OH212558   2.192   5.248   3.212
 4202TIP3    H112559   2.130   5.252   3.288
 4202TIP3    H212560   2.277   5.229   3.257
 4203TIP3   OH212561   2.405   5.194   3.357
 4203TIP3    H112562   2.423   5.099   3.376
 4203TIP3    H212563   2.403   5.234   3.447
 4204TIP3   OH212564   1.405   5.138   3.560
 4204TIP3    H112565   1.410   5.046   3.529
 4204TIP3    H212566   1.443   5.129   3.650
 4205TIP3   OH212567   1.916   4.810   3.408
 4205TIP3    H112568   1.984   4.739   3.404
 4205TIP3    H212569   1.879   4.803   3.318
 4206TIP3   OH212570   1.985   5.026   3.564
 4206TIP3    H112571   1.963   4.953   3.502
 4206TIP3    H212572   1.904   5.082   3.559
 4207TIP3   OH212573   1.204   6.252   1.670
 4207TIP3    H112574   1.299   6.247   1.646
 4207TIP3    H212575   1.171   6.307   1.596
 4208TIP3   OH212576   0.691   5.634   1.884
 4208TIP3    H112577   0.785   5.659   1.869
 4208TIP3    H212578   0.690   5.544   1.846
 4209TIP3   OH212579   0.603   6.254   2.297
 4209TIP3    H112580   0.539   6.188   2.261
 4209TIP3    H212581   0.650   6.196   2.361
 4210TIP3   OH212582   0.735   6.098   2.482
 4210TIP3    H112583   0.721   6.027   2.546
 4210TIP3    H212584   0.791   6.158   2.536
 4211TIP3   OH212585   2.469   6.493   2.283
 4211TIP3    H112586   2.484   6.517   2.377
 4211TIP3    H212587   2.532   6.550   2.236
 4212TIP3   OH212588   2.481   6.516   2.569
 4212TIP3    H112589   2.405   6.456   2.591
 4212TIP3    H212590   2.549   6.473   2.622
 4213TIP3   OH212591   2.542   6.192   3.142
 4213TIP3    H112592   2.468   6.203   3.204
 4213TIP3    H212593   2.581   6.282   3.142
 4214TIP3   OH212594   2.355   5.707   1.757
 4214TIP3    H112595   2.421   5.772   1.727
 4214TIP3    H212596   2.399   5.670   1.837
 4215TIP3   OH212597   2.482   5.575   1.961
 4215TIP3    H112598   2.415   5.534   2.021
 4215TIP3    H212599   2.547   5.612   2.025
 4216TIP3   OH212600   2.542   5.970   2.398
 4216TIP3    H112601   2.590   5.903   2.345
 4216TIP3    H212602   2.523   6.039   2.332
 4217TIP3   OH212603   2.420   5.484   1.607
 4217TIP3    H112604   2.348   5.485   1.539
 4217TIP3    H212605   2.390   5.559   1.662
 4218TIP3   OH212606   2.291   5.156   1.560
 4218TIP3    H112607   2.245   5.190   1.482
 4218TIP3    H212608   2.269   5.061   1.554
 4219TIP3   OH212609   2.294   5.434   2.106
 4219TIP3    H112610   2.302   5.338   2.097
 4219TIP3    H212611   2.280   5.446   2.203
 4220TIP3   OH212612   0.920   5.503   2.856
 4220TIP3    H112613   0.917   5.471   2.763
 4220TIP3    H212614   1.017   5.506   2.871
 4221TIP3   OH212615   2.585   5.855   2.966
 4221TIP3    H112616   2.661   5.795   2.949
 4221TIP3    H212617   2.594   5.921   2.895
 4222TIP3   OH212618   2.772   5.659   2.971
 4222TIP3    H112619   2.702   5.614   3.022
 4222TIP3    H212620   2.846   5.596   2.987
 4223TIP3   OH212621   2.233   4.891   1.544
 4223TIP3    H112622   2.304   4.856   1.602
 4223TIP3    H212623   2.158   4.832   1.563
 4224TIP3   OH212624   2.293   5.150   2.000
 4224TIP3    H112625   2.332   5.060   2.015
 4224TIP3    H212626   2.351   5.181   1.929
 4225TIP3   OH212627   2.453   5.322   2.498
 4225TIP3    H112628   2.538   5.346   2.455
 4225TIP3    H212629   2.470   5.359   2.586
 4226TIP3   OH212630   2.522   5.477   2.725
 4226TIP3    H112631   2.439   5.522   2.746
 4226TIP3    H212632   2.569   5.549   2.676
 4227TIP3   OH212633   1.138   5.189   3.525
 4227TIP3    H112634   1.236   5.186   3.530
 4227TIP3    H212635   1.116   5.103   3.565
 4228TIP3   OH212636   2.971   5.058   3.281
 4228TIP3    H112637   3.034   4.992   3.244
 4228TIP3    H212638   2.947   5.110   3.202
 4229TIP3   OH212639   2.399   4.899   2.040
 4229TIP3    H112640   2.449   4.881   2.122
 4229TIP3    H212641   2.339   4.822   2.038
 4230TIP3   OH212642   1.100   4.885   2.863
 4230TIP3    H112643   1.161   4.809   2.868
 4230TIP3    H212644   1.163   4.958   2.851
 4231TIP3   OH212645   0.902   5.157   2.932
 4231TIP3    H112646   0.951   5.153   2.848
 4231TIP3    H212647   0.927   5.244   2.965
 4232TIP3   OH212648   2.840   5.196   3.084
 4232TIP3    H112649   2.761   5.237   3.124
 4232TIP3    H212650   2.801   5.125   3.031
 4233TIP3   OH212651   2.480   4.830   1.675
 4233TIP3    H112652   2.518   4.760   1.618
 4233TIP3    H212653   2.547   4.901   1.670
 4234TIP3   OH212654   0.888   4.664   2.437
 4234TIP3    H112655   0.794   4.655   2.461
 4234TIP3    H212656   0.883   4.720   2.357
 4235TIP3   OH212657   2.044   6.368   1.936
 4235TIP3    H112658   2.102   6.360   1.858
 4235TIP3    H212659   2.095   6.428   1.994
 4236TIP3   OH212660   1.108   4.740   3.246
 4236TIP3    H112661   1.055   4.737   3.328
 4236TIP3    H212662   1.042   4.778   3.185
 4237TIP3   OH212663   1.147   6.167   3.321
 4237TIP3    H112664   1.053   6.145   3.308
 4237TIP3    H212665   1.157   6.155   3.417
 4238TIP3   OH212666   1.328   6.203   2.869
 4238TIP3    H112667   1.281   6.280   2.829
 4238TIP3    H212668   1.415   6.216   2.826
 4239TIP3   OH212669   1.766   6.444   3.009
 4239TIP3    H112670   1.810   6.446   3.097
 4239TIP3    H212671   1.834   6.491   2.955
 4240TIP3   OH212672   1.945   6.590   2.859
 4240TIP3    H112673   2.012   6.532   2.819
 4240TIP3    H212674   2.002   6.645   2.918
 4241TIP3   OH212675   2.740   4.954   2.971
 4241TIP3    H112676   2.652   4.929   2.936
 4241TIP3    H212677   2.786   4.867   2.962
 4242TIP3   OH212678   0.998   6.455   2.898
 4242TIP3    H112679   0.909   6.489   2.876
 4242TIP3    H212680   1.015   6.502   2.980
 4243TIP3   OH212681   1.236   6.435   2.754
 4243TIP3    H112682   1.148   6.448   2.796
 4243TIP3    H212683   1.220   6.469   2.664
 4244TIP3   OH212684   1.650   6.471   2.554
 4244TIP3    H112685   1.584   6.492   2.486
 4244TIP3    H212686   1.663   6.558   2.597
 4245TIP3   OH212687   1.917   6.391   2.575
 4245TIP3    H112688   1.831   6.435   2.568
 4245TIP3    H212689   1.981   6.463   2.583
 4246TIP3   OH212690   2.156   6.618   2.520
 4246TIP3    H112691   2.129   6.682   2.452
 4246TIP3    H212692   2.170   6.536   2.469
 4247TIP3   OH212693   0.911   6.250   2.639
 4247TIP3    H112694   0.939   6.225   2.730
 4247TIP3    H212695   0.985   6.207   2.589
 4248TIP3   OH212696   1.108   6.124   2.499
 4248TIP3    H112697   1.123   6.040   2.549
 4248TIP3    H212698   1.199   6.161   2.496
 4249TIP3   OH212699   1.373   6.217   2.506
 4249TIP3    H112700   1.407   6.126   2.494
 4249TIP3    H212701   1.423   6.243   2.586
 4250TIP3   OH212702   1.951   4.875   2.597
 4250TIP3    H112703   1.905   4.800   2.640
 4250TIP3    H212704   2.020   4.829   2.545
 4251TIP3   OH212705   2.466   4.772   2.498
 4251TIP3    H112706   2.503   4.810   2.415
 4251TIP3    H212707   2.370   4.771   2.479
 4252TIP3   OH212708   2.564   4.853   2.257
 4252TIP3    H112709   2.637   4.800   2.218
 4252TIP3    H212710   2.599   4.944   2.241
 4253TIP3   OH212711   1.195   4.584   2.603
 4253TIP3    H112712   1.102   4.552   2.605
 4253TIP3    H212713   1.242   4.498   2.598
 4254TIP3   OH212714   0.988   4.453   2.254
 4254TIP3    H112715   1.017   4.508   2.178
 4254TIP3    H212716   0.961   4.521   2.319
 4255TIP3   OH212717   1.642   4.615   2.487
 4255TIP3    H112718   1.697   4.658   2.419
 4255TIP3    H212719   1.675   4.655   2.568
 4256TIP3   OH212720   2.183   4.761   2.467
 4256TIP3    H112721   2.188   4.716   2.382
 4256TIP3    H212722   2.174   4.684   2.528
 4257TIP3   OH212723   2.218   4.685   2.033
 4257TIP3    H112724   2.130   4.725   2.043
 4257TIP3    H212725   2.204   4.599   2.078
 4258TIP3   OH212726   0.707   6.031   2.031
 4258TIP3    H112727   0.625   5.993   1.993
 4258TIP3    H212728   0.693   6.124   2.008
 4259TIP3   OH212729   1.103   4.607   2.016
 4259TIP3    H112730   1.149   4.545   1.956
 4259TIP3    H212731   1.177   4.661   2.049
 4260TIP3   OH212732   1.610   4.790   2.113
 4260TIP3    H112733   1.671   4.740   2.170
 4260TIP3    H212734   1.635   4.881   2.138
 4261TIP3   OH212735   1.471   6.210   1.611
 4261TIP3    H112736   1.560   6.232   1.576
 4261TIP3    H212737   1.451   6.134   1.552
 4262TIP3   OH212738   2.197   6.334   1.706
 4262TIP3    H112739   2.188   6.235   1.698
 4262TIP3    H212740   2.146   6.362   1.627
 4263TIP3   OH212741   1.405   4.863   3.494
 4263TIP3    H112742   1.368   4.792   3.550
 4263TIP3    H212743   1.498   4.862   3.523
 4264TIP3   OH212744   1.655   4.860   3.613
 4264TIP3    H112745   1.741   4.835   3.575
 4264TIP3    H212746   1.642   4.791   3.681
 4265TIP3   OH212747   0.792   6.031   1.706
 4265TIP3    H112748   0.796   6.067   1.796
 4265TIP3    H212749   0.881   5.991   1.694
 4266TIP3   OH212750   2.481   4.927   3.400
 4266TIP3    H112751   2.498   4.894   3.491
 4266TIP3    H212752   2.571   4.919   3.361
 4267TIP3   OH212753   2.441   6.485   2.916
 4267TIP3    H112754   2.387   6.423   2.860
 4267TIP3    H212755   2.392   6.569   2.901
 4268TIP3   OH212756   3.684   5.848   1.660
 4268TIP3    H112757   3.652   5.938   1.637
 4268TIP3    H212758   3.611   5.795   1.624
 4269TIP3   OH212759   3.683   5.852   2.045
 4269TIP3    H112760   3.718   5.819   2.130
 4269TIP3    H212761   3.646   5.771   2.006
 4270TIP3   OH212762   2.983   5.741   2.406
 4270TIP3    H112763   3.012   5.672   2.468
 4270TIP3    H212764   3.063   5.794   2.399
 4271TIP3   OH212765   3.929   6.152   1.723
 4271TIP3    H112766   3.911   6.079   1.784
 4271TIP3    H212767   3.959   6.222   1.783
 4272TIP3   OH212768   2.956   6.154   2.127
 4272TIP3    H112769   2.946   6.056   2.128
 4272TIP3    H212770   3.053   6.162   2.123
 4273TIP3   OH212771   2.661   5.352   1.911
 4273TIP3    H112772   2.614   5.435   1.930
 4273TIP3    H212773   2.590   5.301   1.869
 4274TIP3   OH212774   2.719   5.641   2.089
 4274TIP3    H112775   2.768   5.562   2.123
 4274TIP3    H212776   2.779   5.675   2.022
 4275TIP3   OH212777   3.581   6.614   1.743
 4275TIP3    H112778   3.621   6.544   1.688
 4275TIP3    H212779   3.568   6.567   1.826
 4276TIP3   OH212780   3.481   6.075   2.090
 4276TIP3    H112781   3.520   5.997   2.048
 4276TIP3    H212782   3.565   6.121   2.114
 4277TIP3   OH212783   4.503   5.392   2.089
 4277TIP3    H112784   4.529   5.479   2.123
 4277TIP3    H212785   4.519   5.403   1.993
 4278TIP3   OH212786   3.893   5.574   2.119
 4278TIP3    H112787   3.940   5.490   2.140
 4278TIP3    H212788   3.864   5.556   2.028
 4279TIP3   OH212789   3.234   5.234   2.086
 4279TIP3    H112790   3.216   5.307   2.022
 4279TIP3    H212791   3.186   5.161   2.041
 4280TIP3   OH212792   3.928   5.329   1.704
 4280TIP3    H112793   3.996   5.313   1.774
 4280TIP3    H212794   3.985   5.358   1.631
 4281TIP3   OH212795   2.866   5.434   2.193
 4281TIP3    H112796   2.949   5.417   2.241
 4281TIP3    H212797   2.881   5.379   2.113
 4282TIP3   OH212798   3.306   5.633   1.991
 4282TIP3    H112799   3.401   5.609   2.001
 4282TIP3    H212800   3.269   5.549   1.956
 4283TIP3   OH212801   4.575   5.607   2.255
 4283TIP3    H112802   4.490   5.649   2.231
 4283TIP3    H212803   4.573   5.619   2.351
 4284TIP3   OH212804   3.230   5.218   2.520
 4284TIP3    H112805   3.170   5.254   2.452
 4284TIP3    H212806   3.177   5.235   2.601
 4285TIP3   OH212807   3.567   6.065   1.532
 4285TIP3    H112808   3.536   6.053   1.442
 4285TIP3    H212809   3.524   6.150   1.557
 4286TIP3   OH212810   3.337   5.994   2.312
 4286TIP3    H112811   3.277   6.062   2.349
 4286TIP3    H212812   3.378   6.042   2.237
 4287TIP3   OH212813   4.127   5.328   1.886
 4287TIP3    H112814   4.166   5.252   1.935
 4287TIP3    H212815   4.185   5.401   1.913
 4288TIP3   OH212816   3.100   5.333   2.304
 4288TIP3    H112817   3.163   5.404   2.328
 4288TIP3    H212818   3.149   5.292   2.228
 4289TIP3   OH212819   3.166   6.190   2.413
 4289TIP3    H112820   3.140   6.277   2.377
 4289TIP3    H212821   3.087   6.171   2.468
 4290TIP3   OH212822   2.556   5.879   1.648
 4290TIP3    H112823   2.516   5.909   1.565
 4290TIP3    H212824   2.590   5.963   1.685
 4291TIP3   OH212825   3.998   6.397   1.892
 4291TIP3    H112826   3.908   6.386   1.931
 4291TIP3    H212827   3.987   6.481   1.844
 4292TIP3   OH212828   4.289   5.303   2.260
 4292TIP3    H112829   4.200   5.314   2.221
 4292TIP3    H212830   4.346   5.322   2.184
 4293TIP3   OH212831   3.581   4.932   2.235
 4293TIP3    H112832   3.566   4.837   2.255
 4293TIP3    H212833   3.505   4.972   2.282
 4294TIP3   OH212834   3.694   6.441   1.561
 4294TIP3    H112835   3.742   6.356   1.543
 4294TIP3    H212836   3.759   6.503   1.521
 4295TIP3   OH212837   3.836   6.225   1.474
 4295TIP3    H112838   3.821   6.144   1.422
 4295TIP3    H212839   3.874   6.188   1.557
 4296TIP3   OH212840   4.224   6.305   2.232
 4296TIP3    H112841   4.210   6.227   2.174
 4296TIP3    H212842   4.205   6.379   2.170
 4297TIP3   OH212843   3.517   5.701   1.492
 4297TIP3    H112844   3.438   5.754   1.468
 4297TIP3    H212845   3.564   5.696   1.407
 4298TIP3   OH212846   3.474   5.486   1.201
 4298TIP3    H112847   3.539   5.539   1.250
 4298TIP3    H212848   3.534   5.424   1.155
 4299TIP3   OH212849   4.419   5.950   2.082
 4299TIP3    H112850   4.333   5.997   2.085
 4299TIP3    H212851   4.447   5.970   1.990
 4300TIP3   OH212852   3.862   5.783   1.460
 4300TIP3    H112853   3.809   5.804   1.540
 4300TIP3    H212854   3.947   5.756   1.501
 4301TIP3   OH212855   4.096   5.820   2.376
 4301TIP3    H112856   4.091   5.904   2.425
 4301TIP3    H212857   4.010   5.821   2.330
 4302TIP3   OH212858   3.095   5.779   1.880
 4302TIP3    H112859   3.054   5.721   1.813
 4302TIP3    H212860   3.171   5.724   1.911
 4303TIP3   OH212861   3.227   6.194   2.026
 4303TIP3    H112862   3.204   6.156   1.940
 4303TIP3    H212863   3.315   6.155   2.043
 4304TIP3   OH212864   3.230   5.750   2.234
 4304TIP3    H112865   3.263   5.724   2.146
 4304TIP3    H212866   3.275   5.836   2.249
 4305TIP3   OH212867   3.756   6.390   2.011
 4305TIP3    H112868   3.745   6.467   2.069
 4305TIP3    H212869   3.740   6.314   2.071
 4306TIP3   OH212870   3.370   6.308   2.557
 4306TIP3    H112871   3.307   6.368   2.603
 4306TIP3    H212872   3.306   6.254   2.506
 4307TIP3   OH212873   3.696   5.646   1.286
 4307TIP3    H112874   3.760   5.702   1.336
 4307TIP3    H212875   3.724   5.665   1.193
 4308TIP3   OH212876   3.126   5.862   2.662
 4308TIP3    H112877   3.129   5.950   2.703
 4308TIP3    H212878   3.031   5.841   2.673
 4309TIP3   OH212879   3.447   6.319   1.565
 4309TIP3    H112880   3.531   6.369   1.571
 4309TIP3    H212881   3.389   6.382   1.520
 4310TIP3   OH212882   3.162   6.474   2.646
 4310TIP3    H112883   3.127   6.475   2.556
 4310TIP3    H212884   3.082   6.451   2.699
 4311TIP3   OH212885   4.218   4.871   1.339
 4311TIP3    H112886   4.136   4.902   1.382
 4311TIP3    H212887   4.246   4.952   1.290
 4312TIP3   OH212888   2.961   5.623   1.684
 4312TIP3    H112889   2.892   5.665   1.629
 4312TIP3    H212890   2.927   5.534   1.695
 4313TIP3   OH212891   4.019   6.244   0.891
 4313TIP3    H112892   4.029   6.340   0.872
 4313TIP3    H212893   4.110   6.213   0.876
 4314TIP3   OH212894   2.745   6.008   2.590
 4314TIP3    H112895   2.672   5.990   2.526
 4314TIP3    H212896   2.779   5.919   2.609
 4315TIP3   OH212897   2.596   6.204   2.214
 4315TIP3    H112898   2.693   6.200   2.219
 4315TIP3    H212899   2.576   6.278   2.273
 4316TIP3   OH212900   4.460   6.653   2.279
 4316TIP3    H112901   4.460   6.557   2.293
 4316TIP3    H212902   4.377   6.677   2.326
 4317TIP3   OH212903   3.565   6.435   2.415
 4317TIP3    H112904   3.562   6.527   2.448
 4317TIP3    H212905   3.492   6.394   2.468
 4318TIP3   OH212906   3.329   6.563   1.367
 4318TIP3    H112907   3.283   6.545   1.283
 4318TIP3    H212908   3.295   6.651   1.392
 4319TIP3   OH212909   2.765   6.415   1.753
 4319TIP3    H112910   2.813   6.406   1.839
 4319TIP3    H212911   2.715   6.331   1.752
 4320TIP3   OH212912   3.528   6.465   1.007
 4320TIP3    H112913   3.587   6.395   0.970
 4320TIP3    H212914   3.565   6.475   1.097
 4321TIP3   OH212915   3.580   6.516   1.275
 4321TIP3    H112916   3.492   6.524   1.318
 4321TIP3    H212917   3.631   6.472   1.345
 4322TIP3   OH212918   4.349   5.781   2.553
 4322TIP3    H112919   4.266   5.790   2.504
 4322TIP3    H212920   4.366   5.685   2.542
 4323TIP3   OH212921   2.947   6.191   2.576
 4323TIP3    H112922   2.995   6.174   2.660
 4323TIP3    H212923   2.872   6.128   2.582
 4324TIP3   OH212924   3.345   5.011   2.366
 4324TIP3    H112925   3.257   4.981   2.336
 4324TIP3    H212926   3.319   5.092   2.414
 4325TIP3   OH212927   3.881   5.127   2.558
 4325TIP3    H112928   3.950   5.096   2.621
 4325TIP3    H212929   3.798   5.106   2.606
 4326TIP3   OH212930   4.121   5.559   2.482
 4326TIP3    H112931   4.066   5.555   2.563
 4326TIP3    H212932   4.093   5.643   2.441
 4327TIP3   OH212933   3.771   5.688   1.031
 4327TIP3    H112934   3.742   5.659   0.943
 4327TIP3    H212935   3.860   5.723   1.010
 4328TIP3   OH212936   3.487   5.064   1.336
 4328TIP3    H112937   3.455   5.057   1.428
 4328TIP3    H212938   3.453   4.980   1.300
 4329TIP3   OH212939   3.277   5.529   2.384
 4329TIP3    H112940   3.227   5.550   2.465
 4329TIP3    H212941   3.262   5.610   2.330
 4330TIP3   OH212942   3.161   5.415   1.897
 4330TIP3    H112943   3.069   5.388   1.916
 4330TIP3    H212944   3.174   5.374   1.809
 4331TIP3   OH212945   3.653   5.499   1.626
 4331TIP3    H112946   3.604   5.570   1.580
 4331TIP3    H212947   3.710   5.465   1.554
 4332TIP3   OH212948   3.827   5.777   2.711
 4332TIP3    H112949   3.805   5.703   2.773
 4332TIP3    H212950   3.922   5.788   2.732
 4333TIP3   OH212951   3.807   5.527   1.861
 4333TIP3    H112952   3.746   5.551   1.789
 4333TIP3    H212953   3.846   5.448   1.819
 4334TIP3   OH212954   3.097   5.556   2.592
 4334TIP3    H112955   3.126   5.620   2.658
 4334TIP3    H212956   3.089   5.474   2.644
 4335TIP3   OH212957   3.143   5.033   1.300
 4335TIP3    H112958   3.137   5.033   1.398
 4335TIP3    H212959   3.067   5.090   1.277
 4336TIP3   OH212960   2.690   5.076   2.175
 4336TIP3    H112961   2.766   5.110   2.227
 4336TIP3    H212962   2.729   5.048   2.091
 4337TIP3   OH212963   2.657   5.058   1.691
 4337TIP3    H112964   2.704   5.094   1.613
 4337TIP3    H212965   2.597   5.132   1.709
 4338TIP3   OH212966   3.822   5.772   2.285
 4338TIP3    H112967   3.854   5.701   2.225
 4338TIP3    H212968   3.790   5.717   2.360
 4339TIP3   OH212969   3.491   5.241   1.957
 4339TIP3    H112970   3.413   5.237   2.015
 4339TIP3    H212971   3.564   5.227   2.020
 4340TIP3   OH212972   2.923   5.293   1.965
 4340TIP3    H112973   2.829   5.299   1.936
 4340TIP3    H212974   2.947   5.201   1.942
 4341TIP3   OH212975   3.188   5.287   1.656
 4341TIP3    H112976   3.283   5.301   1.637
 4341TIP3    H212977   3.143   5.309   1.571
 4342TIP3   OH212978   3.984   5.319   2.174
 4342TIP3    H112979   3.936   5.325   2.259
 4342TIP3    H212980   3.931   5.255   2.124
 4343TIP3   OH212981   3.037   5.324   1.431
 4343TIP3    H112982   2.966   5.279   1.382
 4343TIP3    H212983   3.089   5.361   1.357
 4344TIP3   OH212984   4.153   7.002   2.380
 4344TIP3    H112985   4.153   7.023   2.285
 4344TIP3    H212986   4.235   7.047   2.409
 4345TIP3   OH212987   3.109   6.111   2.799
 4345TIP3    H112988   3.188   6.141   2.848
 4345TIP3    H212989   3.043   6.109   2.872
 4346TIP3   OH212990   3.571   5.567   2.055
 4346TIP3    H112991   3.643   5.528   2.003
 4346TIP3    H212992   3.578   5.518   2.139
 4347TIP3   OH212993   3.091   5.052   1.936
 4347TIP3    H112994   3.056   4.975   1.985
 4347TIP3    H212995   3.142   5.010   1.866
 4348TIP3   OH212996   3.547   5.463   2.345
 4348TIP3    H112997   3.457   5.498   2.358
 4348TIP3    H212998   3.604   5.525   2.394
 4349TIP3   OH212999   3.282   5.853   1.437
 4349TIP3    H113000   3.211   5.786   1.428
 4349TIP3    H213001   3.264   5.886   1.529
 4350TIP3   OH213002   4.182   6.088   2.068
 4350TIP3    H113003   4.205   6.138   1.987
 4350TIP3    H213004   4.099   6.043   2.041
 4351TIP3   OH213005   3.743   5.163   1.306
 4351TIP3    H113006   3.646   5.147   1.314
 4351TIP3    H213007   3.753   5.257   1.331
 4352TIP3   OH213008   3.690   6.175   2.435
 4352TIP3    H113009   3.709   6.148   2.525
 4352TIP3    H213010   3.644   6.260   2.446
 4353TIP3   OH213011   3.810   5.414   1.407
 4353TIP3    H113012   3.907   5.414   1.421
 4353TIP3    H213013   3.797   5.492   1.351
 4354TIP3   OH213014   2.979   5.876   2.114
 4354TIP3    H113015   3.016   5.846   2.029
 4354TIP3    H213016   3.021   5.816   2.177
 4355TIP3   OH213017   3.429   6.000   1.260
 4355TIP3    H113018   3.381   6.086   1.265
 4355TIP3    H213019   3.376   5.946   1.322
 4356TIP3   OH213020   2.862   5.793   2.728
 4356TIP3    H113021   2.878   5.780   2.823
 4356TIP3    H213022   2.791   5.729   2.711
 4357TIP3   OH213023   3.586   5.911   2.747
 4357TIP3    H113024   3.524   5.851   2.702
 4357TIP3    H213025   3.672   5.873   2.719
 4358TIP3   OH213026   3.843   6.440   2.329
 4358TIP3    H113027   3.748   6.428   2.345
 4358TIP3    H213028   3.870   6.487   2.411
 4359TIP3   OH213029   4.474   6.366   2.319
 4359TIP3    H113030   4.376   6.356   2.312
 4359TIP3    H213031   4.500   6.332   2.230
 4360TIP3   OH213032   3.954   6.321   1.152
 4360TIP3    H113033   3.933   6.244   1.207
 4360TIP3    H213034   3.971   6.281   1.065
 4361TIP3   OH213035   3.951   5.950   1.986
 4361TIP3    H113036   3.857   5.926   1.998
 4361TIP3    H213037   3.984   5.869   1.942
 4362TIP3   OH213038   3.080   6.181   1.742
 4362TIP3    H113039   3.076   6.260   1.685
 4362TIP3    H213040   2.987   6.159   1.754
 4363TIP3   OH213041   2.643   5.482   1.445
 4363TIP3    H113042   2.688   5.566   1.468
 4363TIP3    H213043   2.566   5.485   1.507
 4364TIP3   OH213044   3.211   5.942   1.681
 4364TIP3    H113045   3.179   6.031   1.703
 4364TIP3    H213046   3.178   5.890   1.758
 4365TIP3   OH213047   3.349   6.523   2.208
 4365TIP3    H113048   3.393   6.594   2.157
 4365TIP3    H213049   3.424   6.483   2.254
 4366TIP3   OH213050   2.994   6.420   1.590
 4366TIP3    H113051   2.911   6.427   1.640
 4366TIP3    H213052   3.026   6.513   1.594
 4367TIP3   OH213053   3.735   6.157   2.167
 4367TIP3    H113054   3.725   6.155   2.265
 4367TIP3    H213055   3.810   6.097   2.154
 4368TIP3   OH213056   3.713   6.054   1.055
 4368TIP3    H113057   3.769   6.029   1.132
 4368TIP3    H213058   3.627   6.020   1.083
 4369TIP3   OH213059   3.983   6.690   2.220
 4369TIP3    H113060   3.906   6.630   2.217
 4369TIP3    H213061   3.964   6.751   2.146
 4370TIP3   OH213062   4.049   6.517   0.873
 4370TIP3    H113063   4.088   6.571   0.803
 4370TIP3    H213064   3.974   6.574   0.901
 4371TIP3   OH213065   3.069   5.300   2.736
 4371TIP3    H113066   2.972   5.295   2.747
 4371TIP3    H213067   3.100   5.242   2.807
 4372TIP3   OH213068   3.869   5.992   1.276
 4372TIP3    H113069   3.859   5.919   1.340
 4372TIP3    H213070   3.966   5.988   1.262
 4373TIP3   OH213071   2.790   6.382   2.364
 4373TIP3    H113072   2.843   6.309   2.401
 4373TIP3    H213073   2.804   6.451   2.430
 4374TIP3   OH213074   3.072   6.031   1.052
 4374TIP3    H113075   3.090   5.939   1.025
 4374TIP3    H213076   3.053   6.019   1.147
 4375TIP3   OH213077   3.019   6.035   1.325
 4375TIP3    H113078   3.096   6.005   1.376
 4375TIP3    H213079   3.025   6.132   1.334
 4376TIP3   OH213080   2.754   5.726   1.527
 4376TIP3    H113081   2.688   5.771   1.583
 4376TIP3    H213082   2.768   5.795   1.459
 4377TIP3   OH213083   3.900   5.372   2.433
 4377TIP3    H113084   3.990   5.399   2.456
 4377TIP3    H213085   3.891   5.286   2.480
 4378TIP3   OH213086   3.785   5.114   1.588
 4378TIP3    H113087   3.778   5.135   1.493
 4378TIP3    H213088   3.827   5.195   1.623
 4379TIP3   OH213089   3.287   6.230   1.272
 4379TIP3    H113090   3.201   6.256   1.309
 4379TIP3    H213091   3.303   6.302   1.209
 4380TIP3   OH213092   3.470   5.299   1.687
 4380TIP3    H113093   3.537   5.368   1.669
 4380TIP3    H213094   3.480   5.288   1.784
 4381TIP3   OH213095   3.744   5.612   2.491
 4381TIP3    H113096   3.772   5.659   2.572
 4381TIP3    H213097   3.797   5.529   2.495
 4382TIP3   OH213098   3.616   5.015   1.785
 4382TIP3    H113099   3.622   5.089   1.849
 4382TIP3    H213100   3.679   5.049   1.716
 4383TIP3   OH213101   3.034   6.308   1.341
 4383TIP3    H113102   3.002   6.379   1.280
 4383TIP3    H213103   3.017   6.349   1.429
 4384TIP3   OH213104   3.132   5.023   1.577
 4384TIP3    H113105   3.130   5.112   1.616
 4384TIP3    H213106   3.228   5.004   1.585
 4385TIP3   OH213107   4.386   5.513   2.469
 4385TIP3    H113108   4.289   5.517   2.482
 4385TIP3    H213109   4.388   5.457   2.389
 4386TIP3   OH213110   4.035   5.708   1.864
 4386TIP3    H113111   3.960   5.647   1.872
 4386TIP3    H213112   4.107   5.660   1.910
 4387TIP3   OH213113   2.751   5.934   1.330
 4387TIP3    H113114   2.824   5.997   1.341
 4387TIP3    H213115   2.793   5.874   1.264
 4388TIP3   OH213116   2.690   5.212   1.466
 4388TIP3    H113117   2.692   5.309   1.464
 4388TIP3    H213118   2.609   5.192   1.419
 4389TIP3   OH213119   4.003   6.669   1.812
 4389TIP3    H113120   3.961   6.717   1.737
 4389TIP3    H213121   4.098   6.685   1.790
 4390TIP3   OH213122   3.079   4.933   2.338
 4390TIP3    H113123   3.050   4.897   2.251
 4390TIP3    H213124   3.070   4.855   2.396
 4391TIP3   OH213125   2.618   6.151   1.714
 4391TIP3    H113126   2.556   6.178   1.783
 4391TIP3    H213127   2.580   6.193   1.634
 4392TIP3   OH213128   2.777   6.697   2.787
 4392TIP3    H113129   2.863   6.692   2.834
 4392TIP3    H213130   2.750   6.604   2.787
 4393TIP3   OH213131   3.260   6.656   2.833
 4393TIP3    H113132   3.353   6.629   2.838
 4393TIP3    H213133   3.228   6.595   2.763
 4394TIP3   OH213134   3.239   6.232   0.962
 4394TIP3    H113135   3.184   6.159   0.999
 4394TIP3    H213136   3.316   6.181   0.931
 4395TIP3   OH213137   3.895   6.566   2.571
 4395TIP3    H113138   3.887   6.494   2.638
 4395TIP3    H213139   3.974   6.614   2.601
 4396TIP3   OH213140   3.673   6.270   0.877
 4396TIP3    H113141   3.715   6.205   0.938
 4396TIP3    H213142   3.732   6.266   0.799
 4397TIP3   OH213143   2.909   6.100   2.992
 4397TIP3    H113144   2.921   6.004   2.999
 4397TIP3    H213145   2.822   6.105   2.945
 4398TIP3   OH213146   2.885   5.748   1.187
 4398TIP3    H113147   2.941   5.716   1.260
 4398TIP3    H213148   2.951   5.753   1.115
 4399TIP3   OH213149   3.514   6.187   2.764
 4399TIP3    H113150   3.471   6.205   2.678
 4399TIP3    H213151   3.543   6.094   2.755
 4400TIP3   OH213152   3.393   5.948   0.992
 4400TIP3    H113153   3.400   5.959   1.089
 4400TIP3    H213154   3.397   5.850   0.985
 4401TIP3   OH213155   4.008   6.196   2.375
 4401TIP3    H113156   4.082   6.240   2.329
 4401TIP3    H213157   3.935   6.258   2.356
 4402TIP3   OH213158   3.028   5.834   2.975
 4402TIP3    H113159   3.106   5.784   2.948
 4402TIP3    H213160   3.056   5.868   3.063
 4403TIP3   OH213161   3.089   5.655   1.404
 4403TIP3    H113162   3.065   5.613   1.488
 4403TIP3    H213163   3.129   5.580   1.355
 4404TIP3   OH213164   3.362   5.719   2.636
 4404TIP3    H113165   3.283   5.777   2.634
 4404TIP3    H213166   3.415   5.754   2.560
 4405TIP3   OH213167   3.195   5.450   1.246
 4405TIP3    H113168   3.172   5.457   1.151
 4405TIP3    H213169   3.293   5.450   1.240
 4406TIP3   OH213170   3.882   6.122   2.769
 4406TIP3    H113171   3.956   6.087   2.717
 4406TIP3    H213172   3.873   6.055   2.839
 4407TIP3   OH213173   4.000   5.778   0.915
 4407TIP3    H113174   3.991   5.727   0.832
 4407TIP3    H213175   3.967   5.865   0.885
 4408TIP3   OH213176   3.485   5.508   2.759
 4408TIP3    H113177   3.486   5.429   2.701
 4408TIP3    H213178   3.441   5.574   2.701
 4409TIP3   OH213179   3.487   5.296   2.571
 4409TIP3    H113180   3.517   5.335   2.486
 4409TIP3    H213181   3.394   5.272   2.550
 4410TIP3   OH213182   3.511   5.829   2.445
 4410TIP3    H113183   3.595   5.836   2.400
 4410TIP3    H213184   3.455   5.893   2.396
 4411TIP3   OH213185   4.095   5.794   2.822
 4411TIP3    H113186   4.139   5.708   2.829
 4411TIP3    H213187   4.164   5.849   2.782
 4412TIP3   OH213188   4.137   6.051   2.562
 4412TIP3    H113189   4.079   6.104   2.502
 4412TIP3    H213190   4.224   6.070   2.522
 4413TIP3   OH213191   3.364   5.614   2.994
 4413TIP3    H113192   3.296   5.545   3.009
 4413TIP3    H213193   3.397   5.590   2.905
 4414TIP3   OH213194   3.620   5.056   2.638
 4414TIP3    H113195   3.568   5.137   2.615
 4414TIP3    H213196   3.553   4.986   2.626
 4415TIP3   OH213197   3.744   5.559   2.853
 4415TIP3    H113198   3.728   5.542   2.947
 4415TIP3    H213199   3.656   5.535   2.818
 4416TIP3   OH213200   3.986   5.517   2.712
 4416TIP3    H113201   3.910   5.512   2.773
 4416TIP3    H213202   4.059   5.481   2.765
 4417TIP3   OH213203   4.218   5.453   2.857
 4417TIP3    H113204   4.229   5.356   2.871
 4417TIP3    H213205   4.212   5.488   2.948
 4418TIP3   OH213206   3.201   5.396   3.048
 4418TIP3    H113207   3.205   5.304   3.015
 4418TIP3    H213208   3.240   5.384   3.137
 4419TIP3   OH213209   3.713   5.067   2.896
 4419TIP3    H113210   3.779   4.994   2.890
 4419TIP3    H213211   3.674   5.062   2.806
 4420TIP3   OH213212   3.781   5.282   3.052
 4420TIP3    H113213   3.761   5.210   2.989
 4420TIP3    H213214   3.702   5.338   3.045
 4421TIP3   OH213215   3.003   6.516   1.157
 4421TIP3    H113216   3.097   6.501   1.137
 4421TIP3    H213217   2.976   6.563   1.076
 4422TIP3   OH213218   2.481   5.894   1.365
 4422TIP3    H113219   2.576   5.914   1.352
 4422TIP3    H213220   2.474   5.804   1.327
 4423TIP3   OH213221   2.401   6.506   1.782
 4423TIP3    H113222   2.333   6.445   1.746
 4423TIP3    H213223   2.443   6.447   1.848
 4424TIP3   OH213224   2.531   6.353   1.971
 4424TIP3    H113225   2.517   6.282   2.036
 4424TIP3    H213226   2.581   6.415   2.026
 4425TIP3   OH213227   4.259   6.755   1.771
 4425TIP3    H113228   4.290   6.786   1.858
 4425TIP3    H213229   4.325   6.793   1.711
 4426TIP3   OH213230   4.289   6.776   2.055
 4426TIP3    H113231   4.240   6.691   2.047
 4426TIP3    H213232   4.362   6.746   2.112
 4427TIP3   OH213233   4.333   6.452   2.626
 4427TIP3    H113234   4.261   6.461   2.691
 4427TIP3    H213235   4.376   6.540   2.630
 4428TIP3   OH213236   4.143   5.978   1.256
 4428TIP3    H113237   4.214   6.033   1.217
 4428TIP3    H213238   4.191   5.934   1.329
 4429TIP3   OH213239   4.277   5.838   1.453
 4429TIP3    H113240   4.209   5.789   1.505
 4429TIP3    H213241   4.337   5.870   1.522
 4430TIP3   OH213242   4.337   6.227   1.882
 4430TIP3    H113243   4.385   6.156   1.836
 4430TIP3    H213244   4.330   6.296   1.814
 4431TIP3   OH213245   4.163   6.528   2.073
 4431TIP3    H113246   4.089   6.565   2.125
 4431TIP3    H213247   4.115   6.480   2.002
 4432TIP3   OH213248   4.228   5.784   1.073
 4432TIP3    H113249   4.151   5.755   1.020
 4432TIP3    H213250   4.185   5.842   1.137
 4433TIP3   OH213251   4.091   5.689   1.591
 4433TIP3    H113252   4.099   5.593   1.577
 4433TIP3    H213253   4.077   5.696   1.688
 4434TIP3   OH213254   2.717   5.755   2.343
 4434TIP3    H113255   2.715   5.725   2.250
 4434TIP3    H213256   2.815   5.760   2.359
 4435TIP3   OH213257   4.382   6.115   2.453
 4435TIP3    H113258   4.453   6.047   2.442
 4435TIP3    H213259   4.405   6.179   2.384
 4436TIP3   OH213260   4.566   5.916   2.463
 4436TIP3    H113261   4.490   5.867   2.500
 4436TIP3    H213262   4.638   5.852   2.481
 4437TIP3   OH213263   4.055   5.094   1.021
 4437TIP3    H113264   4.089   5.178   1.060
 4437TIP3    H213265   3.964   5.093   1.053
 4438TIP3   OH213266   4.088   5.404   1.479
 4438TIP3    H113267   4.131   5.318   1.502
 4438TIP3    H213268   4.123   5.413   1.388
 4439TIP3   OH213269   4.250   5.581   1.984
 4439TIP3    H113270   4.336   5.604   1.943
 4439TIP3    H213271   4.265   5.613   2.074
 4440TIP3   OH213272   4.323   5.725   2.215
 4440TIP3    H113273   4.244   5.756   2.262
 4440TIP3    H213274   4.354   5.806   2.170
 4441TIP3   OH213275   2.936   5.445   3.009
 4441TIP3    H113276   3.034   5.441   3.016
 4441TIP3    H213277   2.912   5.359   3.049
 4442TIP3   OH213278   4.773   5.319   2.769
 4442TIP3    H113279   4.832   5.252   2.727
 4442TIP3    H213280   4.741   5.369   2.691
 4443TIP3   OH213281   4.190   5.157   1.536
 4443TIP3    H113282   4.243   5.135   1.615
 4443TIP3    H213283   4.133   5.078   1.528
 4444TIP3   OH213284   2.895   5.142   2.351
 4444TIP3    H113285   2.956   5.066   2.357
 4444TIP3    H213286   2.959   5.215   2.339
 4445TIP3   OH213287   2.698   5.415   2.418
 4445TIP3    H113288   2.748   5.408   2.334
 4445TIP3    H213289   2.724   5.502   2.449
 4446TIP3   OH213290   4.639   5.452   2.572
 4446TIP3    H113291   4.553   5.495   2.589
 4446TIP3    H213292   4.608   5.377   2.516
 4447TIP3   OH213293   4.319   5.077   1.189
 4447TIP3    H113294   4.317   5.026   1.106
 4447TIP3    H213295   4.283   5.165   1.160
 4448TIP3   OH213296   2.683   4.920   1.922
 4448TIP3    H113297   2.590   4.912   1.946
 4448TIP3    H213298   2.679   4.978   1.842
 4449TIP3   OH213299   3.842   6.627   1.426
 4449TIP3    H113300   3.888   6.609   1.341
 4449TIP3    H213301   3.904   6.688   1.468
 4450TIP3   OH213302   2.905   5.003   2.736
 4450TIP3    H113303   2.851   4.994   2.816
 4450TIP3    H213304   2.839   5.034   2.672
 4451TIP3   OH213305   2.943   6.428   2.812
 4451TIP3    H113306   2.850   6.404   2.792
 4451TIP3    H213307   2.949   6.404   2.905
 4452TIP3   OH213308   3.124   6.461   2.360
 4452TIP3    H113309   3.073   6.535   2.320
 4452TIP3    H213310   3.209   6.477   2.314
 4453TIP3   OH213311   3.564   6.703   2.497
 4453TIP3    H113312   3.607   6.701   2.585
 4453TIP3    H213313   3.630   6.754   2.445
 4454TIP3   OH213314   3.743   6.858   2.357
 4454TIP3    H113315   3.810   6.804   2.313
 4454TIP3    H213316   3.799   6.912   2.417
 4455TIP3   OH213317   4.539   5.215   2.456
 4455TIP3    H113318   4.451   5.207   2.416
 4455TIP3    H213319   4.572   5.123   2.447
 4456TIP3   OH213320   2.797   6.721   2.379
 4456TIP3    H113321   2.706   6.753   2.359
 4456TIP3    H213322   2.803   6.746   2.472
 4457TIP3   OH213323   3.035   6.697   2.242
 4457TIP3    H113324   2.947   6.708   2.286
 4457TIP3    H213325   3.015   6.725   2.151
 4458TIP3   OH213326   3.459   6.721   2.039
 4458TIP3    H113327   3.389   6.737   1.973
 4458TIP3    H213328   3.468   6.810   2.079
 4459TIP3   OH213329   3.728   6.664   2.094
 4459TIP3    H113330   3.634   6.678   2.072
 4459TIP3    H213331   3.771   6.734   2.043
 4460TIP3   OH213332   3.939   6.855   2.004
 4460TIP3    H113333   3.921   6.937   1.953
 4460TIP3    H213334   3.964   6.792   1.932
 4461TIP3   OH213335   2.714   6.512   2.125
 4461TIP3    H113336   2.736   6.481   2.215
 4461TIP3    H213337   2.783   6.463   2.075
 4462TIP3   OH213338   2.905   6.379   1.984
 4462TIP3    H113339   2.918   6.296   2.035
 4462TIP3    H213340   2.997   6.413   1.981
 4463TIP3   OH213341   3.173   6.474   1.989
 4463TIP3    H113342   3.202   6.381   1.977
 4463TIP3    H213343   3.219   6.494   2.073
 4464TIP3   OH213344   3.739   5.128   2.066
 4464TIP3    H113345   3.703   5.056   2.121
 4464TIP3    H213346   3.818   5.085   2.027
 4465TIP3   OH213347   4.248   5.099   1.998
 4465TIP3    H113348   4.300   5.089   1.915
 4465TIP3    H213349   4.180   5.031   1.985
 4466TIP3   OH213350   4.366   5.113   1.746
 4466TIP3    H113351   4.435   5.058   1.704
 4466TIP3    H213352   4.399   5.203   1.724
 4467TIP3   OH213353   2.992   4.839   2.089
 4467TIP3    H113354   2.900   4.807   2.093
 4467TIP3    H213355   3.040   4.753   2.085
 4468TIP3   OH213356   2.781   4.711   1.740
 4468TIP3    H113357   2.810   4.767   1.666
 4468TIP3    H213358   2.755   4.777   1.806
 4469TIP3   OH213359   3.438   4.871   1.973
 4469TIP3    H113360   3.492   4.916   1.906
 4469TIP3    H213361   3.469   4.911   2.055
 4470TIP3   OH213362   3.959   4.995   1.956
 4470TIP3    H113363   4.003   4.975   1.872
 4470TIP3    H213364   3.963   4.907   1.999
 4471TIP3   OH213365   4.011   4.944   1.514
 4471TIP3    H113366   3.924   4.985   1.532
 4471TIP3    H213367   4.001   4.860   1.564
 4472TIP3   OH213368   2.498   6.281   1.512
 4472TIP3    H113369   2.412   6.247   1.482
 4472TIP3    H213370   2.485   6.376   1.499
 4473TIP3   OH213371   2.899   4.868   1.500
 4473TIP3    H113372   2.947   4.805   1.443
 4473TIP3    H213373   2.974   4.922   1.535
 4474TIP3   OH213374   3.409   5.046   1.600
 4474TIP3    H113375   3.471   5.000   1.659
 4474TIP3    H213376   3.431   5.139   1.625
 4475TIP3   OH213377   3.268   6.467   1.099
 4475TIP3    H113378   3.358   6.488   1.065
 4475TIP3    H213379   3.246   6.392   1.039
 4476TIP3   OH213380   3.986   6.588   1.195
 4476TIP3    H113381   3.981   6.490   1.184
 4476TIP3    H213382   3.945   6.616   1.110
 4477TIP3   OH213383   3.200   5.122   2.984
 4477TIP3    H113384   3.165   5.049   3.038
 4477TIP3    H213385   3.294   5.120   3.011
 4478TIP3   OH213386   3.451   5.119   3.101
 4478TIP3    H113387   3.535   5.091   3.060
 4478TIP3    H213388   3.439   5.049   3.168
 4479TIP3   OH213389   2.576   6.310   1.156
 4479TIP3    H113390   2.575   6.315   1.252
 4479TIP3    H213391   2.662   6.265   1.138
 4480TIP3   OH213392   4.278   5.182   2.888
 4480TIP3    H113393   4.295   5.149   2.979
 4480TIP3    H213394   4.367   5.174   2.847
 4481TIP3   OH213395   4.212   6.732   2.380
 4481TIP3    H113396   4.135   6.700   2.329
 4481TIP3    H213397   4.190   6.827   2.387
 4482TIP3   OH213398   5.471   6.120   1.155
 4482TIP3    H113399   5.432   6.197   1.105
 4482TIP3    H213400   5.410   6.051   1.122
 4483TIP3   OH213401   5.490   6.113   1.514
 4483TIP3    H113402   5.507   6.096   1.609
 4483TIP3    H213403   5.436   6.036   1.491
 4484TIP3   OH213404   4.777   5.997   1.891
 4484TIP3    H113405   4.804   5.926   1.952
 4484TIP3    H213406   4.860   6.046   1.884
 4485TIP3   OH213407   5.674   6.400   1.263
 4485TIP3    H113408   5.735   6.329   1.286
 4485TIP3    H213409   5.732   6.478   1.266
 4486TIP3   OH213410   4.742   6.413   1.619
 4486TIP3    H113411   4.736   6.315   1.614
 4486TIP3    H213412   4.838   6.424   1.624
 4487TIP3   OH213413   4.461   5.622   1.402
 4487TIP3    H113414   4.396   5.695   1.402
 4487TIP3    H213415   4.407   5.548   1.369
 4488TIP3   OH213416   4.522   5.904   1.581
 4488TIP3    H113417   4.566   5.821   1.611
 4488TIP3    H213418   4.555   5.911   1.490
 4489TIP3   OH213419   5.379   6.876   1.235
 4489TIP3    H113420   5.419   6.805   1.180
 4489TIP3    H213421   5.364   6.829   1.318
 4490TIP3   OH213422   6.293   5.650   1.574
 4490TIP3    H113423   6.324   5.733   1.615
 4490TIP3    H213424   6.315   5.665   1.481
 4491TIP3   OH213425   5.695   5.833   1.603
 4491TIP3    H113426   5.734   5.747   1.626
 4491TIP3    H213427   5.658   5.814   1.515
 4492TIP3   OH213428   5.035   5.492   1.570
 4492TIP3    H113429   5.009   5.563   1.507
 4492TIP3    H213430   4.987   5.416   1.528
 4493TIP3   OH213431   5.724   5.585   1.194
 4493TIP3    H113432   5.796   5.568   1.260
 4493TIP3    H213433   5.777   5.618   1.119
 4494TIP3   OH213434   4.662   5.690   1.679
 4494TIP3    H113435   4.745   5.668   1.726
 4494TIP3    H213436   4.672   5.634   1.600
 4495TIP3   OH213437   5.100   5.890   1.479
 4495TIP3    H113438   5.194   5.865   1.488
 4495TIP3    H213439   5.061   5.806   1.444
 4496TIP3   OH213440   6.368   5.861   1.742
 4496TIP3    H113441   6.282   5.904   1.723
 4496TIP3    H213442   6.381   5.885   1.835
 4497TIP3   OH213443   5.027   5.476   2.008
 4497TIP3    H113444   4.965   5.508   1.940
 4497TIP3    H213445   4.973   5.490   2.088
 4498TIP3   OH213446   5.363   6.336   1.046
 4498TIP3    H113447   5.336   6.308   0.955
 4498TIP3    H213448   5.314   6.421   1.051
 4499TIP3   OH213449   5.138   6.265   1.792
 4499TIP3    H113450   5.059   6.303   1.835
 4499TIP3    H213451   5.197   6.341   1.794
 4500TIP3   OH213452   5.932   5.588   1.367
 4500TIP3    H113453   5.920   5.536   1.448
 4500TIP3    H213454   5.984   5.664   1.399
 4501TIP3   OH213455   4.899   5.588   1.789
 4501TIP3    H113456   4.963   5.658   1.814
 4501TIP3    H213457   4.946   5.548   1.713
 4502TIP3   OH213458   4.958   6.445   1.899
 4502TIP3    H113459   4.933   6.534   1.867
 4502TIP3    H213460   4.879   6.426   1.955
 4503TIP3   OH213461   4.348   6.131   1.134
 4503TIP3    H113462   4.311   6.150   1.046
 4503TIP3    H213463   4.381   6.218   1.163
 4504TIP3   OH213464   5.784   6.655   1.379
 4504TIP3    H113465   5.692   6.644   1.411
 4504TIP3    H213466   5.778   6.740   1.331
 4505TIP3   OH213467   6.085   5.551   1.741
 4505TIP3    H113468   5.998   5.575   1.707
 4505TIP3    H213469   6.145   5.583   1.670
 4506TIP3   OH213470   5.381   5.192   1.726
 4506TIP3    H113471   5.363   5.097   1.740
 4506TIP3    H213472   5.302   5.231   1.771
 4507TIP3   OH213473   5.513   6.689   1.085
 4507TIP3    H113474   5.547   6.608   1.042
 4507TIP3    H213475   5.557   6.755   1.027
 4508TIP3   OH213476   5.626   6.473   0.965
 4508TIP3    H113477   5.628   6.403   0.896
 4508TIP3    H213478   5.654   6.424   1.043
 4509TIP3   OH213479   6.017   6.561   1.720
 4509TIP3    H113480   6.006   6.484   1.660
 4509TIP3    H213481   6.001   6.636   1.659
 4510TIP3   OH213482   5.311   5.965   0.992
 4510TIP3    H113483   5.229   6.014   0.968
 4510TIP3    H213484   5.346   5.945   0.903
 4511TIP3   OH213485   5.260   5.738   0.736
 4511TIP3    H113486   5.343   5.783   0.758
 4511TIP3    H213487   5.283   5.693   0.654
 4512TIP3   OH213488   6.214   6.202   1.566
 4512TIP3    H113489   6.130   6.252   1.571
 4512TIP3    H213490   6.244   6.226   1.476
 4513TIP3   OH213491   5.654   6.024   0.968
 4513TIP3    H113492   5.605   6.049   1.048
 4513TIP3    H213493   5.742   6.001   1.005
 4514TIP3   OH213494   5.893   6.077   1.863
 4514TIP3    H113495   5.889   6.158   1.916
 4514TIP3    H213496   5.805   6.080   1.819
 4515TIP3   OH213497   4.890   6.037   1.364
 4515TIP3    H113498   4.844   5.979   1.299
 4515TIP3    H213499   4.963   5.979   1.393
 4516TIP3   OH213500   5.012   6.459   1.505
 4516TIP3    H113501   4.982   6.426   1.418
 4516TIP3    H213502   5.062   6.385   1.541
 4517TIP3   OH213503   5.036   6.005   1.726
 4517TIP3    H113504   5.056   5.974   1.635
 4517TIP3    H213505   5.074   6.095   1.727
 4518TIP3   OH213506   5.533   6.632   1.486
 4518TIP3    H113507   5.527   6.720   1.528
 4518TIP3    H213508   5.533   6.571   1.563
 4519TIP3   OH213509   5.165   6.564   2.041
 4519TIP3    H113510   5.107   6.626   2.091
 4519TIP3    H213511   5.097   6.511   1.994
 4520TIP3   OH213512   5.483   5.905   0.787
 4520TIP3    H113513   5.549   5.948   0.846
 4520TIP3    H213514   5.497   5.955   0.705
 4521TIP3   OH213515   4.922   6.122   2.146
 4521TIP3    H113516   4.924   6.208   2.191
 4521TIP3    H213517   4.828   6.098   2.158
 4522TIP3   OH213518   5.252   6.581   1.073
 4522TIP3    H113519   5.328   6.641   1.060
 4522TIP3    H213520   5.184   6.620   1.018
 4523TIP3   OH213521   4.959   6.730   2.133
 4523TIP3    H113522   4.923   6.732   2.042
 4523TIP3    H213523   4.879   6.708   2.186
 4524TIP3   OH213524   6.010   5.139   0.824
 4524TIP3    H113525   5.930   5.158   0.877
 4524TIP3    H213526   6.014   5.217   0.766
 4525TIP3   OH213527   4.753   5.879   1.177
 4525TIP3    H113528   4.687   5.924   1.119
 4525TIP3    H213529   4.716   5.790   1.181
 4526TIP3   OH213530   4.539   6.263   2.077
 4526TIP3    H113531   4.470   6.243   2.010
 4526TIP3    H213532   4.575   6.175   2.097
 4527TIP3   OH213533   4.391   6.457   1.708
 4527TIP3    H113534   4.487   6.450   1.699
 4527TIP3    H213535   4.382   6.535   1.764
 4528TIP3   OH213536   6.238   6.885   1.767
 4528TIP3    H113537   6.241   6.789   1.789
 4528TIP3    H213538   6.156   6.912   1.814
 4529TIP3   OH213539   5.360   6.694   1.901
 4529TIP3    H113540   5.357   6.786   1.935
 4529TIP3    H213541   5.289   6.652   1.954
 4530TIP3   OH213542   5.100   6.821   0.851
 4530TIP3    H113543   5.027   6.802   0.791
 4530TIP3    H213544   5.082   6.912   0.880
 4531TIP3   OH213545   4.562   6.672   1.237
 4531TIP3    H113546   4.604   6.660   1.325
 4531TIP3    H213547   4.513   6.587   1.229
 4532TIP3   OH213548   5.370   6.817   0.867
 4532TIP3    H113549   5.273   6.810   0.854
 4532TIP3    H213550   5.403   6.743   0.815
 4533TIP3   OH213551   6.144   6.036   2.042
 4533TIP3    H113552   6.061   6.045   1.993
 4533TIP3    H213553   6.162   5.940   2.032
 4534TIP3   OH213554   4.742   6.446   2.065
 4534TIP3    H113555   4.791   6.427   2.147
 4534TIP3    H213556   4.668   6.382   2.071
 4535TIP3   OH213557   5.143   5.270   1.851
 4535TIP3    H113558   5.055   5.238   1.820
 4535TIP3    H213559   5.114   5.348   1.901
 4536TIP3   OH213560   5.677   5.385   2.046
 4536TIP3    H113561   5.745   5.354   2.109
 4536TIP3    H213562   5.593   5.364   2.093
 4537TIP3   OH213563   5.915   5.814   1.966
 4537TIP3    H113564   5.862   5.810   2.049
 4537TIP3    H213565   5.889   5.900   1.928
 4538TIP3   OH213566   5.290   5.311   0.824
 4538TIP3    H113567   5.251   5.308   0.914
 4538TIP3    H213568   5.246   5.233   0.785
 4539TIP3   OH213569   5.078   5.782   1.875
 4539TIP3    H113570   5.023   5.801   1.953
 4539TIP3    H213571   5.063   5.864   1.822
 4540TIP3   OH213572   4.956   5.674   1.384
 4540TIP3    H113573   4.864   5.646   1.402
 4540TIP3    H213574   4.969   5.633   1.295
 4541TIP3   OH213575   5.452   5.761   1.115
 4541TIP3    H113576   5.396   5.827   1.070
 4541TIP3    H213577   5.503   5.724   1.040
 4542TIP3   OH213578   5.623   6.033   2.197
 4542TIP3    H113579   5.601   5.960   2.260
 4542TIP3    H213580   5.717   6.046   2.219
 4543TIP3   OH213581   5.606   5.785   1.346
 4543TIP3    H113582   5.540   5.805   1.276
 4543TIP3    H213583   5.643   5.704   1.306
 4544TIP3   OH213584   4.894   5.812   2.077
 4544TIP3    H113585   4.916   5.872   2.149
 4544TIP3    H213586   4.879   5.728   2.125
 4545TIP3   OH213587   4.946   5.290   0.789
 4545TIP3    H113588   4.931   5.286   0.886
 4545TIP3    H213589   4.868   5.345   0.763
 4546TIP3   OH213590   4.484   5.341   1.661
 4546TIP3    H113591   4.567   5.365   1.706
 4546TIP3    H213592   4.512   5.303   1.575
 4547TIP3   OH213593   4.500   5.354   1.199
 4547TIP3    H113594   4.530   5.375   1.109
 4547TIP3    H213595   4.403   5.362   1.185
 4548TIP3   OH213596   5.615   6.032   1.767
 4548TIP3    H113597   5.646   5.961   1.707
 4548TIP3    H213598   5.586   5.978   1.843
 4549TIP3   OH213599   5.291   5.497   1.445
 4549TIP3    H113600   5.206   5.494   1.494
 4549TIP3    H213601   5.356   5.485   1.517
 4550TIP3   OH213602   4.720   5.549   1.450
 4550TIP3    H113603   4.626   5.562   1.421
 4550TIP3    H213604   4.736   5.456   1.426
 4551TIP3   OH213605   4.989   5.548   1.144
 4551TIP3    H113606   5.080   5.561   1.112
 4551TIP3    H213607   4.934   5.565   1.064
 4552TIP3   OH213608   5.775   5.570   1.649
 4552TIP3    H113609   5.742   5.583   1.740
 4552TIP3    H213610   5.709   5.508   1.613
 4553TIP3   OH213611   4.829   5.576   0.931
 4553TIP3    H113612   4.759   5.532   0.879
 4553TIP3    H213613   4.882   5.615   0.858
 4554TIP3   OH213614   5.942   7.254   1.865
 4554TIP3    H113615   5.945   7.281   1.772
 4554TIP3    H213616   6.026   7.295   1.898
 4555TIP3   OH213617   4.905   6.370   2.286
 4555TIP3    H113618   4.984   6.398   2.336
 4555TIP3    H213619   4.840   6.364   2.359
 4556TIP3   OH213620   5.368   5.829   1.545
 4556TIP3    H113621   5.435   5.781   1.494
 4556TIP3    H213622   5.369   5.781   1.630
 4557TIP3   OH213623   4.897   5.305   1.425
 4557TIP3    H113624   4.852   5.232   1.474
 4557TIP3    H213625   4.925   5.260   1.344
 4558TIP3   OH213626   5.345   5.724   1.824
 4558TIP3    H113627   5.253   5.752   1.844
 4558TIP3    H213628   5.399   5.783   1.879
 4559TIP3   OH213629   5.072   6.108   0.937
 4559TIP3    H113630   5.002   6.040   0.925
 4559TIP3    H213631   5.055   6.138   1.029
 4560TIP3   OH213632   5.980   6.346   1.552
 4560TIP3    H113633   6.006   6.397   1.473
 4560TIP3    H213634   5.896   6.303   1.524
 4561TIP3   OH213635   5.535   5.419   0.796
 4561TIP3    H113636   5.440   5.395   0.806
 4561TIP3    H213637   5.538   5.514   0.821
 4562TIP3   OH213638   5.469   6.426   1.913
 4562TIP3    H113639   5.509   6.400   1.997
 4562TIP3    H213640   5.442   6.518   1.930
 4563TIP3   OH213641   5.609   5.671   0.897
 4563TIP3    H113642   5.705   5.674   0.910
 4563TIP3    H213643   5.594   5.743   0.833
 4564TIP3   OH213644   4.789   6.144   1.602
 4564TIP3    H113645   4.814   6.106   1.515
 4564TIP3    H213646   4.800   6.069   1.661
 4565TIP3   OH213647   5.256   6.272   0.808
 4565TIP3    H113648   5.210   6.346   0.765
 4565TIP3    H213649   5.181   6.214   0.835
 4566TIP3   OH213650   4.658   6.049   2.214
 4566TIP3    H113651   4.669   6.032   2.310
 4566TIP3    H213652   4.586   5.986   2.192
 4567TIP3   OH213653   5.381   6.168   2.235
 4567TIP3    H113654   5.318   6.105   2.195
 4567TIP3    H213655   5.467   6.129   2.205
 4568TIP3   OH213656   5.636   6.687   1.818
 4568TIP3    H113657   5.540   6.688   1.833
 4568TIP3    H213658   5.668   6.738   1.895
 4569TIP3   OH213659   6.031   5.726   0.729
 4569TIP3    H113660   5.951   5.699   0.682
 4569TIP3    H213661   6.046   5.814   0.692
 4570TIP3   OH213662   6.266   6.609   1.810
 4570TIP3    H113663   6.168   6.604   1.801
 4570TIP3    H213664   6.293   6.582   1.719
 4571TIP3   OH213665   5.747   6.208   1.459
 4571TIP3    H113666   5.659   6.177   1.488
 4571TIP3    H213667   5.783   6.124   1.425
 4572TIP3   OH213668   4.871   6.436   1.231
 4572TIP3    H113669   4.867   6.516   1.174
 4572TIP3    H213670   4.778   6.410   1.232
 4573TIP3   OH213671   4.456   5.736   0.937
 4573TIP3    H113672   4.497   5.824   0.952
 4573TIP3    H213673   4.374   5.747   0.991
 4574TIP3   OH213674   5.025   6.206   1.188
 4574TIP3    H113675   4.981   6.292   1.201
 4574TIP3    H213676   4.981   6.151   1.255
 4575TIP3   OH213677   5.146   6.778   1.697
 4575TIP3    H113678   5.188   6.849   1.644
 4575TIP3    H213679   5.223   6.744   1.746
 4576TIP3   OH213680   4.793   6.674   1.079
 4576TIP3    H113681   4.707   6.683   1.126
 4576TIP3    H213682   4.824   6.767   1.082
 4577TIP3   OH213683   5.543   6.404   1.646
 4577TIP3    H113684   5.513   6.407   1.739
 4577TIP3    H213685   5.622   6.350   1.655
 4578TIP3   OH213686   5.776   6.946   1.705
 4578TIP3    H113687   5.698   6.887   1.697
 4578TIP3    H213688   5.761   7.009   1.631
 4579TIP3   OH213689   4.861   5.558   2.220
 4579TIP3    H113690   4.764   5.561   2.230
 4579TIP3    H213691   4.886   5.497   2.291
 4580TIP3   OH213692   5.669   6.248   0.807
 4580TIP3    H113693   5.650   6.167   0.858
 4580TIP3    H213694   5.764   6.234   0.786
 4581TIP3   OH213695   4.583   6.640   1.854
 4581TIP3    H113696   4.633   6.563   1.886
 4581TIP3    H213697   4.611   6.707   1.917
 4582TIP3   OH213698   4.879   6.275   0.548
 4582TIP3    H113699   4.882   6.182   0.523
 4582TIP3    H213700   4.868   6.271   0.645
 4583TIP3   OH213701   4.825   6.292   0.814
 4583TIP3    H113702   4.896   6.262   0.872
 4583TIP3    H213703   4.828   6.390   0.823
 4584TIP3   OH213704   4.557   5.990   1.016
 4584TIP3    H113705   4.484   6.024   1.071
 4584TIP3    H213706   4.562   6.061   0.948
 4585TIP3   OH213707   5.702   5.624   1.909
 4585TIP3    H113708   5.786   5.657   1.946
 4585TIP3    H213709   5.689   5.541   1.961
 4586TIP3   OH213710   5.587   5.367   1.074
 4586TIP3    H113711   5.569   5.388   0.980
 4586TIP3    H213712   5.621   5.452   1.108
 4587TIP3   OH213713   5.099   6.502   0.743
 4587TIP3    H113714   5.014   6.528   0.782
 4587TIP3    H213715   5.077   6.492   0.649
 4588TIP3   OH213716   5.278   5.551   1.174
 4588TIP3    H113717   5.338   5.627   1.158
 4588TIP3    H213718   5.277   5.546   1.272
 4589TIP3   OH213719   5.543   5.872   1.976
 4589TIP3    H113720   5.568   5.920   2.058
 4589TIP3    H213721   5.593   5.789   1.984
 4590TIP3   OH213722   5.414   5.276   1.275
 4590TIP3    H113723   5.402   5.357   1.328
 4590TIP3    H213724   5.476   5.307   1.206
 4591TIP3   OH213725   4.842   6.565   0.828
 4591TIP3    H113726   4.810   6.631   0.764
 4591TIP3    H213727   4.817   6.606   0.914
 4592TIP3   OH213728   4.928   5.279   1.064
 4592TIP3    H113729   4.921   5.369   1.102
 4592TIP3    H213730   5.025   5.265   1.073
 4593TIP3   OH213731   6.181   5.771   1.960
 4593TIP3    H113732   6.084   5.770   1.970
 4593TIP3    H213733   6.190   5.719   1.879
 4594TIP3   OH213734   5.831   5.966   1.351
 4594TIP3    H113735   5.755   5.906   1.362
 4594TIP3    H213736   5.902   5.918   1.399
 4595TIP3   OH213737   4.538   6.201   0.826
 4595TIP3    H113738   4.602   6.273   0.819
 4595TIP3    H213739   4.581   6.135   0.766
 4596TIP3   OH213740   4.472   5.461   0.944
 4596TIP3    H113741   4.480   5.559   0.944
 4596TIP3    H213742   4.379   5.450   0.971
 4597TIP3   OH213743   5.806   6.927   1.296
 4597TIP3    H113744   5.762   6.969   1.219
 4597TIP3    H213745   5.900   6.939   1.270
 4598TIP3   OH213746   4.879   5.193   1.821
 4598TIP3    H113747   4.847   5.157   1.735
 4598TIP3    H213748   4.872   5.114   1.879
 4599TIP3   OH213749   4.422   6.417   1.204
 4599TIP3    H113750   4.352   6.437   1.267
 4599TIP3    H213751   4.384   6.455   1.121
 4600TIP3   OH213752   4.575   6.953   2.276
 4600TIP3    H113753   4.661   6.950   2.323
 4600TIP3    H213754   4.551   6.859   2.276
 4601TIP3   OH213755   5.053   6.913   2.320
 4601TIP3    H113756   5.146   6.890   2.328
 4601TIP3    H213757   5.025   6.850   2.250
 4602TIP3   OH213758   5.695   6.818   2.053
 4602TIP3    H113759   5.685   6.750   2.123
 4602TIP3    H213760   5.771   6.869   2.085
 4603TIP3   OH213761   4.703   6.357   2.477
 4603TIP3    H113762   4.719   6.261   2.485
 4603TIP3    H213763   4.616   6.359   2.431
 4604TIP3   OH213764   4.666   6.007   0.696
 4604TIP3    H113765   4.719   5.966   0.767
 4604TIP3    H213766   4.732   6.012   0.624
 4605TIP3   OH213767   5.310   6.443   2.252
 4605TIP3    H113768   5.269   6.460   2.165
 4605TIP3    H213769   5.341   6.350   2.243
 4606TIP3   OH213770   5.800   6.453   1.857
 4606TIP3    H113771   5.879   6.494   1.815
 4606TIP3    H213772   5.733   6.522   1.840
 4607TIP3   OH213773   4.825   6.097   2.460
 4607TIP3    H113774   4.895   6.035   2.437
 4607TIP3    H213775   4.854   6.127   2.549
 4608TIP3   OH213776   4.885   5.908   0.900
 4608TIP3    H113777   4.851   5.861   0.978
 4608TIP3    H213778   4.926   5.835   0.849
 4609TIP3   OH213779   5.161   5.979   2.127
 4609TIP3    H113780   5.079   6.033   2.123
 4609TIP3    H213781   5.210   6.012   2.049
 4610TIP3   OH213782   4.988   5.702   0.755
 4610TIP3    H113783   4.956   5.694   0.662
 4610TIP3    H213784   5.085   5.707   0.744
 4611TIP3   OH213785   5.677   6.378   2.254
 4611TIP3    H113786   5.757   6.346   2.209
 4611TIP3    H213787   5.668   6.313   2.326
 4612TIP3   OH213788   5.283   5.765   2.245
 4612TIP3    H113789   5.282   5.685   2.188
 4612TIP3    H213790   5.237   5.831   2.189
 4613TIP3   OH213791   5.284   5.553   2.055
 4613TIP3    H113792   5.311   5.589   1.969
 4613TIP3    H213793   5.191   5.528   2.038
 4614TIP3   OH213794   5.303   6.085   1.928
 4614TIP3    H113795   5.390   6.086   1.887
 4614TIP3    H213796   5.251   6.145   1.871
 4615TIP3   OH213797   5.890   6.050   2.307
 4615TIP3    H113798   5.936   5.966   2.319
 4615TIP3    H213799   5.960   6.107   2.272
 4616TIP3   OH213800   5.932   6.306   2.044
 4616TIP3    H113801   5.874   6.361   1.985
 4616TIP3    H213802   6.020   6.327   2.005
 4617TIP3   OH213803   5.162   5.871   2.481
 4617TIP3    H113804   5.094   5.802   2.496
 4617TIP3    H213805   5.193   5.847   2.391
 4618TIP3   OH213806   5.415   5.313   2.124
 4618TIP3    H113807   5.364   5.393   2.101
 4618TIP3    H213808   5.348   5.243   2.113
 4619TIP3   OH213809   5.541   5.815   2.339
 4619TIP3    H113810   5.525   5.799   2.434
 4619TIP3    H213811   5.452   5.791   2.305
 4620TIP3   OH213812   5.781   5.769   2.195
 4620TIP3    H113813   5.706   5.768   2.258
 4620TIP3    H213814   5.855   5.737   2.251
 4621TIP3   OH213815   6.011   5.709   2.343
 4621TIP3    H113816   6.023   5.613   2.358
 4621TIP3    H213817   6.007   5.744   2.434
 4622TIP3   OH213818   5.001   5.653   2.533
 4622TIP3    H113819   5.000   5.560   2.500
 4622TIP3    H213820   5.037   5.639   2.623
 4623TIP3   OH213821   5.510   5.323   2.382
 4623TIP3    H113822   5.575   5.250   2.375
 4623TIP3    H213823   5.469   5.318   2.293
 4624TIP3   OH213824   5.577   5.538   2.540
 4624TIP3    H113825   5.557   5.466   2.476
 4624TIP3    H213826   5.498   5.595   2.533
 4625TIP3   OH213827   4.817   6.765   0.626
 4625TIP3    H113828   4.880   6.781   0.554
 4625TIP3    H213829   4.733   6.767   0.577
 4626TIP3   OH213830   4.274   6.144   0.862
 4626TIP3    H113831   4.366   6.171   0.842
 4626TIP3    H213832   4.269   6.057   0.817
 4627TIP3   OH213833   4.190   6.763   1.271
 4627TIP3    H113834   4.128   6.700   1.229
 4627TIP3    H213835   4.236   6.703   1.334
 4628TIP3   OH213836   4.325   6.611   1.459
 4628TIP3    H113837   4.313   6.536   1.519
 4628TIP3    H213838   4.378   6.671   1.514
 4629TIP3   OH213839   6.067   7.015   1.245
 4629TIP3    H113840   6.088   7.026   1.340
 4629TIP3    H213841   6.095   7.100   1.209
 4630TIP3   OH213842   6.079   7.028   1.530
 4630TIP3    H113843   6.041   6.938   1.535
 4630TIP3    H213844   6.159   7.014   1.583
 4631TIP3   OH213845   6.128   6.709   2.111
 4631TIP3    H113846   6.057   6.718   2.178
 4631TIP3    H213847   6.172   6.796   2.116
 4632TIP3   OH213848   5.926   6.221   0.744
 4632TIP3    H113849   5.968   6.270   0.672
 4632TIP3    H213850   6.000   6.179   0.791
 4633TIP3   OH213851   6.084   6.075   0.930
 4633TIP3    H113852   6.010   6.041   0.985
 4633TIP3    H213853   6.140   6.121   0.996
 4634TIP3   OH213854   6.122   6.478   1.360
 4634TIP3    H113855   6.181   6.414   1.317
 4634TIP3    H213856   6.135   6.558   1.303
 4635TIP3   OH213857   5.957   6.781   1.562
 4635TIP3    H113858   5.886   6.824   1.613
 4635TIP3    H213859   5.907   6.736   1.491
 4636TIP3   OH213860   5.892   5.944   1.084
 4636TIP3    H113861   5.894   5.848   1.073
 4636TIP3    H213862   5.879   5.954   1.181
 4637TIP3   OH213863   4.511   6.019   1.830
 4637TIP3    H113864   4.509   5.984   1.738
 4637TIP3    H213865   4.608   6.019   1.847
 4638TIP3   OH213866   6.177   6.370   1.939
 4638TIP3    H113867   6.248   6.302   1.929
 4638TIP3    H213868   6.208   6.440   1.878
 4639TIP3   OH213869   6.359   6.171   1.947
 4639TIP3    H113870   6.286   6.121   1.988
 4639TIP3    H213871   6.434   6.110   1.965
 4640TIP3   OH213872   5.824   5.437   0.545
 4640TIP3    H113873   5.898   5.378   0.566
 4640TIP3    H213874   5.750   5.375   0.534
 4641TIP3   OH213875   5.889   5.662   0.979
 4641TIP3    H113876   5.926   5.572   0.996
 4641TIP3    H213877   5.944   5.688   0.903
 4642TIP3   OH213878   6.044   5.835   1.470
 4642TIP3    H113879   6.130   5.858   1.429
 4642TIP3    H213880   6.059   5.870   1.560
 4643TIP3   OH213881   6.117   5.979   1.700
 4643TIP3    H113882   6.039   6.012   1.750
 4643TIP3    H213883   6.149   6.061   1.657
 4644TIP3   OH213884   4.735   5.709   2.514
 4644TIP3    H113885   4.832   5.698   2.510
 4644TIP3    H213886   4.709   5.620   2.544
 4645TIP3   OH213887   6.568   5.573   2.257
 4645TIP3    H113888   6.628   5.507   2.215
 4645TIP3    H213889   6.538   5.624   2.179
 4646TIP3   OH213890   5.996   5.410   1.012
 4646TIP3    H113891   6.039   5.394   1.099
 4646TIP3    H213892   5.932   5.336   1.009
 4647TIP3   OH213893   4.694   5.399   1.837
 4647TIP3    H113894   4.754   5.321   1.841
 4647TIP3    H213895   4.758   5.471   1.825
 4648TIP3   OH213896   4.497   5.671   1.907
 4648TIP3    H113897   4.542   5.660   1.821
 4648TIP3    H213898   4.529   5.757   1.934
 4649TIP3   OH213899   6.435   5.707   2.060
 4649TIP3    H113900   6.350   5.751   2.079
 4649TIP3    H213901   6.404   5.634   2.003
 4650TIP3   OH213902   6.072   5.320   0.618
 4650TIP3    H113903   6.142   5.253   0.611
 4650TIP3    H213904   6.126   5.394   0.653
 4651TIP3   OH213905   4.480   5.195   1.420
 4651TIP3    H113906   4.387   5.170   1.418
 4651TIP3    H213907   4.487   5.247   1.337
 4652TIP3   OH213908   5.669   6.857   0.928
 4652TIP3    H113909   5.665   6.856   0.831
 4652TIP3    H213910   5.722   6.935   0.947
 4653TIP3   OH213911   4.701   5.255   2.222
 4653TIP3    H113912   4.648   5.249   2.303
 4653TIP3    H213913   4.636   5.296   2.161
 4654TIP3   OH213914   4.738   6.687   2.297
 4654TIP3    H113915   4.647   6.659   2.280
 4654TIP3    H213916   4.750   6.660   2.389
 4655TIP3   OH213917   4.920   6.716   1.845
 4655TIP3    H113918   4.870   6.790   1.805
 4655TIP3    H213919   5.005   6.731   1.800
 4656TIP3   OH213920   5.360   6.960   1.983
 4656TIP3    H113921   5.402   6.957   2.071
 4656TIP3    H213922   5.427   7.011   1.932
 4657TIP3   OH213923   5.543   7.112   1.844
 4657TIP3    H113924   5.615   7.061   1.804
 4657TIP3    H213925   5.593   7.170   1.905
 4658TIP3   OH213926   6.336   5.470   1.942
 4658TIP3    H113927   6.246   5.458   1.907
 4658TIP3    H213928   6.371   5.379   1.933
 4659TIP3   OH213929   4.594   6.975   1.868
 4659TIP3    H113930   4.504   7.008   1.844
 4659TIP3    H213931   4.600   7.008   1.958
 4660TIP3   OH213932   4.832   6.951   1.729
 4660TIP3    H113933   4.744   6.964   1.771
 4660TIP3    H213934   4.813   6.981   1.637
 4661TIP3   OH213935   5.256   6.977   1.529
 4661TIP3    H113936   5.187   6.991   1.461
 4661TIP3    H213937   5.265   7.066   1.566
 4662TIP3   OH213938   5.526   6.906   1.566
 4662TIP3    H113939   5.432   6.929   1.554
 4662TIP3    H213940   5.570   6.984   1.529
 4663TIP3   OH213941   5.729   7.108   1.489
 4663TIP3    H113942   5.715   7.192   1.440
 4663TIP3    H213943   5.758   7.047   1.418
 4664TIP3   OH213944   4.504   6.766   1.616
 4664TIP3    H113945   4.533   6.737   1.706
 4664TIP3    H213946   4.574   6.723   1.563
 4665TIP3   OH213947   4.697   6.640   1.474
 4665TIP3    H113948   4.711   6.555   1.522
 4665TIP3    H213949   4.789   6.673   1.466
 4666TIP3   OH213950   4.967   6.735   1.474
 4666TIP3    H113951   4.994   6.642   1.460
 4666TIP3    H213952   5.013   6.753   1.557
 4667TIP3   OH213953   5.542   5.388   1.567
 4667TIP3    H113954   5.497   5.317   1.617
 4667TIP3    H213955   5.612   5.339   1.520
 4668TIP3   OH213956   6.062   5.272   1.467
 4668TIP3    H113957   6.097   5.321   1.390
 4668TIP3    H213958   5.966   5.284   1.457
 4669TIP3   OH213959   6.158   5.371   1.230
 4669TIP3    H113960   6.232   5.318   1.192
 4669TIP3    H213961   6.192   5.463   1.218
 4670TIP3   OH213962   4.789   5.098   1.576
 4670TIP3    H113963   4.696   5.067   1.578
 4670TIP3    H213964   4.835   5.011   1.570
 4671TIP3   OH213965   4.595   4.965   1.229
 4671TIP3    H113966   4.606   5.020   1.149
 4671TIP3    H213967   4.536   5.022   1.281
 4672TIP3   OH213968   5.239   5.122   1.457
 4672TIP3    H113969   5.294   5.174   1.396
 4672TIP3    H213970   5.254   5.168   1.541
 4673TIP3   OH213971   5.780   5.276   1.438
 4673TIP3    H113972   5.777   5.234   1.352
 4673TIP3    H213973   5.768   5.199   1.498
 4674TIP3   OH213974   5.808   5.202   1.005
 4674TIP3    H113975   5.722   5.245   1.022
 4674TIP3    H213976   5.795   5.116   1.051
 4675TIP3   OH213977   4.290   6.547   1.012
 4675TIP3    H113978   4.213   6.502   0.971
 4675TIP3    H213979   4.278   6.636   0.974
 4676TIP3   OH213980   4.693   5.123   0.985
 4676TIP3    H113981   4.744   5.062   0.928
 4676TIP3    H213982   4.764   5.176   1.025
 4677TIP3   OH213983   5.205   5.303   1.086
 4677TIP3    H113984   5.262   5.254   1.147
 4677TIP3    H213985   5.229   5.395   1.111
 4678TIP3   OH213986   4.996   5.382   2.474
 4678TIP3    H113987   4.959   5.308   2.525
 4678TIP3    H213988   5.090   5.378   2.500
 4679TIP3   OH213989   5.248   5.376   2.589
 4679TIP3    H113990   5.331   5.347   2.548
 4679TIP3    H213991   5.234   5.305   2.655
 4680TIP3   OH213992   4.331   6.531   0.697
 4680TIP3    H113993   4.342   6.607   0.755
 4680TIP3    H213994   4.416   6.526   0.652
 4681TIP3   OH213995   6.074   5.438   2.374
 4681TIP3    H113996   6.091   5.406   2.465
 4681TIP3    H213997   6.163   5.431   2.334
 4682TIP3   OH213998   6.003   6.986   1.868
 4682TIP3    H113999   5.924   6.959   1.817
 4682TIP3    H214000   5.988   7.082   1.873
 4683TIP3   OH214001   6.578   6.255   1.375
 4683TIP3    H114002   6.604   6.189   1.441
 4683TIP3    H214003   6.653   6.316   1.380
 4684TIP3   OH214004   6.500   6.651   1.152
 4684TIP3    H114005   6.497   6.554   1.142
 4684TIP3    H214006   6.586   6.667   1.109
 4685TIP3   OH214007   6.256   5.858   0.873
 4685TIP3    H114008   6.212   5.943   0.893
 4685TIP3    H214009   6.180   5.798   0.875
 4686TIP3   OH214010   6.311   6.155   1.069
 4686TIP3    H114011   6.362   6.078   1.101
 4686TIP3    H214012   6.365   6.183   0.993
 4687TIP3   OH214013   6.812   5.749   1.066
 4687TIP3    H114014   6.804   5.821   1.000
 4687TIP3    H214015   6.774   5.674   1.016
 4688TIP3   OH214016   6.461   5.948   1.164
 4688TIP3    H114017   6.542   5.929   1.216
 4688TIP3    H214018   6.478   5.891   1.086
 4689TIP3   OH214019   6.891   6.153   0.989
 4689TIP3    H114020   6.986   6.126   0.992
 4689TIP3    H214021   6.853   6.078   0.939
 4690TIP3   OH214022   6.821   5.731   1.494
 4690TIP3    H114023   6.760   5.767   1.428
 4690TIP3    H214024   6.770   5.746   1.576
 4691TIP3   OH214025   6.692   5.852   1.283
 4691TIP3    H114026   6.760   5.920   1.304
 4691TIP3    H214027   6.736   5.808   1.207
 4692TIP3   OH214028   6.736   6.726   1.385
 4692TIP3    H114029   6.676   6.713   1.311
 4692TIP3    H214030   6.677   6.713   1.461
 4693TIP3   OH214031   7.170   5.449   1.205
 4693TIP3    H114032   7.162   5.355   1.229
 4693TIP3    H214033   7.094   5.486   1.255
 4694TIP3   OH214034   6.839   6.285   1.217
 4694TIP3    H114035   6.856   6.237   1.132
 4694TIP3    H214036   6.896   6.362   1.204
 4695TIP3   OH214037   6.720   6.371   1.638
 4695TIP3    H114038   6.725   6.460   1.679
 4695TIP3    H214039   6.625   6.352   1.653
 4696TIP3   OH214040   6.331   6.514   1.566
 4696TIP3    H114041   6.267   6.493   1.496
 4696TIP3    H214042   6.370   6.427   1.588
 4697TIP3   OH214043   6.201   6.703   1.215
 4697TIP3    H114044   6.292   6.696   1.184
 4697TIP3    H214045   6.204   6.788   1.263
 4698TIP3   OH214046   6.526   6.708   1.562
 4698TIP3    H114047   6.579   6.691   1.642
 4698TIP3    H214048   6.457   6.638   1.567
 4699TIP3   OH214049   6.937   5.525   1.338
 4699TIP3    H114050   6.849   5.494   1.309
 4699TIP3    H214051   6.910   5.605   1.388
 4700TIP3   OH214052   7.464   5.628   1.542
 4700TIP3    H114053   7.500   5.632   1.632
 4700TIP3    H214054   7.370   5.607   1.563
 4701TIP3   OH214055   6.871   6.055   1.362
 4701TIP3    H114056   6.808   6.065   1.436
 4701TIP3    H214057   6.852   6.135   1.307
 4702TIP3   OH214058   6.753   5.933   0.873
 4702TIP3    H114059   6.662   5.900   0.888
 4702TIP3    H214060   6.766   5.913   0.779
 4703TIP3   OH214061   6.694   6.072   1.568
 4703TIP3    H114062   6.698   6.135   1.642
 4703TIP3    H214063   6.685   5.987   1.616
 4704TIP3   OH214064   6.279   5.602   1.149
 4704TIP3    H114065   6.359   5.624   1.202
 4704TIP3    H214066   6.314   5.553   1.073
 4705TIP3   OH214067   6.234   5.531   0.678
 4705TIP3    H114068   6.307   5.554   0.618
 4705TIP3    H214069   6.187   5.616   0.689
 4706TIP3   OH214070   7.063   5.709   0.946
 4706TIP3    H114071   6.993   5.739   1.007
 4706TIP3    H214072   7.144   5.740   0.989
 4707TIP3   OH214073   6.516   5.804   0.935
 4707TIP3    H114074   6.421   5.809   0.912
 4707TIP3    H214075   6.537   5.709   0.926
 4708TIP3   OH214076   6.700   6.619   1.774
 4708TIP3    H114077   6.780   6.650   1.822
 4708TIP3    H214078   6.634   6.627   1.846
 4709TIP3   OH214079   7.138   6.047   1.027
 4709TIP3    H114080   7.221   6.026   0.985
 4709TIP3    H214081   7.154   6.025   1.121
 4710TIP3   OH214082   6.684   5.562   0.907
 4710TIP3    H114083   6.644   5.488   0.959
 4710TIP3    H214084   6.744   5.512   0.850
 4711TIP3   OH214085   7.130   5.956   1.301
 4711TIP3    H114086   7.046   6.002   1.321
 4711TIP3    H214087   7.194   6.001   1.360
 4712TIP3   OH214088   6.563   6.378   1.097
 4712TIP3    H114089   6.611   6.344   1.021
 4712TIP3    H214090   6.602   6.327   1.170
 4713TIP3   OH214091   6.457   6.302   1.702
 4713TIP3    H114092   6.474   6.293   1.797
 4713TIP3    H214093   6.384   6.239   1.689
 4714TIP3   OH214094   7.127   6.418   1.770
 4714TIP3    H114095   7.077   6.356   1.715
 4714TIP3    H214096   7.207   6.437   1.719
 4715TIP3   OH214097   6.659   5.815   1.706
 4715TIP3    H114098   6.562   5.815   1.719
 4715TIP3    H214099   6.689   5.758   1.779
 4716TIP3   OH214100   6.367   6.881   1.372
 4716TIP3    H114101   6.413   6.797   1.389
 4716TIP3    H214102   6.417   6.940   1.428
 4717TIP3   OH214103   7.478   5.863   1.387
 4717TIP3    H114104   7.562   5.852   1.431
 4717TIP3    H214105   7.438   5.776   1.402
 4718TIP3   OH214106   7.301   6.065   1.477
 4718TIP3    H114107   7.347   6.146   1.507
 4718TIP3    H214108   7.373   6.001   1.472
 4719TIP3   OH214109   6.672   5.445   1.311
 4719TIP3    H114110   6.643   5.408   1.225
 4719TIP3    H214111   6.663   5.367   1.370
 4720TIP3   OH214112   6.344   7.137   1.779
 4720TIP3    H114113   6.426   7.113   1.827
 4720TIP3    H214114   6.308   7.048   1.764
 4721TIP3   OH214115   6.496   6.608   1.965
 4721TIP3    H114116   6.516   6.513   1.972
 4721TIP3    H214117   6.409   6.607   1.921
 4722TIP3   OH214118   6.621   6.345   1.948
 4722TIP3    H114119   6.701   6.296   1.924
 4722TIP3    H214120   6.647   6.381   2.035
 4723TIP3   OH214121   6.974   6.264   1.594
 4723TIP3    H114122   6.887   6.304   1.617
 4723TIP3    H214123   6.959   6.240   1.502
 4724TIP3   OH214124   7.050   6.015   1.730
 4724TIP3    H114125   7.066   5.935   1.675
 4724TIP3    H214126   7.034   6.083   1.663
 4725TIP3   OH214127   7.077   5.807   1.542
 4725TIP3    H114128   7.106   5.843   1.456
 4725TIP3    H214129   6.984   5.784   1.523
 4726TIP3   OH214130   6.946   6.130   1.962
 4726TIP3    H114131   6.882   6.059   1.984
 4726TIP3    H214132   6.983   6.097   1.878
 4727TIP3   OH214133   7.207   5.570   1.605
 4727TIP3    H114134   7.153   5.650   1.588
 4727TIP3    H214135   7.140   5.498   1.596
 4728TIP3   OH214136   7.314   6.059   1.819
 4728TIP3    H114137   7.314   6.032   1.912
 4728TIP3    H214138   7.225   6.032   1.791
 4729TIP3   OH214139   6.793   5.908   2.023
 4729TIP3    H114140   6.799   5.817   1.988
 4729TIP3    H214141   6.833   5.896   2.112
 4730TIP3   OH214142   7.305   5.579   1.863
 4730TIP3    H114143   7.374   5.510   1.857
 4730TIP3    H214144   7.263   5.571   1.775
 4731TIP3   OH214145   7.365   5.786   2.034
 4731TIP3    H114146   7.346   5.717   1.966
 4731TIP3    H214147   7.286   5.844   2.027
 4732TIP3   OH214148   6.138   6.896   0.959
 4732TIP3    H114149   6.111   6.803   0.960
 4732TIP3    H214150   6.133   6.921   1.051
 4733TIP3   OH214151   6.309   6.277   1.317
 4733TIP3    H114152   6.305   6.243   1.225
 4733TIP3    H214153   6.406   6.277   1.332
 4734TIP3   OH214154   6.528   5.962   1.991
 4734TIP3    H114155   6.626   5.956   1.995
 4734TIP3    H214156   6.505   5.874   2.029
 4735TIP3   OH214157   6.491   5.654   1.319
 4735TIP3    H114158   6.551   5.577   1.328
 4735TIP3    H214159   6.554   5.727   1.315
 4736TIP3   OH214160   6.290   5.927   1.390
 4736TIP3    H114161   6.340   5.922   1.306
 4736TIP3    H214162   6.321   6.011   1.427
 4737TIP3   OH214163   6.275   5.434   0.926
 4737TIP3    H114164   6.183   5.417   0.952
 4737TIP3    H214165   6.263   5.473   0.837
 4738TIP3   OH214166   6.497   5.515   1.709
 4738TIP3    H114167   6.444   5.506   1.790
 4738TIP3    H214168   6.429   5.548   1.647
 4739TIP3   OH214169   6.513   6.895   1.834
 4739TIP3    H114170   6.439   6.864   1.782
 4739TIP3    H214171   6.492   6.861   1.923
 4740TIP3   OH214172   7.343   5.636   1.046
 4740TIP3    H114173   7.283   5.588   1.106
 4740TIP3    H214174   7.375   5.566   0.990
 4741TIP3   OH214175   6.583   5.354   1.061
 4741TIP3    H114176   6.491   5.320   1.067
 4741TIP3    H214177   6.632   5.268   1.058
 4742TIP3   OH214178   6.326   5.227   0.722
 4742TIP3    H114179   6.400   5.266   0.673
 4742TIP3    H214180   6.327   5.278   0.805
 4743TIP3   OH214181   7.024   5.391   0.954
 4743TIP3    H114182   7.050   5.466   0.900
 4743TIP3    H214183   7.057   5.418   1.041
 4744TIP3   OH214184   6.793   5.635   1.955
 4744TIP3    H114185   6.756   5.564   2.010
 4744TIP3    H214186   6.887   5.633   1.984
 4745TIP3   OH214187   7.042   5.632   2.074
 4745TIP3    H114188   7.128   5.609   2.036
 4745TIP3    H214189   7.031   5.561   2.141
 4746TIP3   OH214190   0.543   6.687   2.752
 4746TIP3    H114191   0.575   6.770   2.793
 4746TIP3    H214192   0.560   6.705   2.658
 4747TIP3   OH214193   0.619   6.892   2.926
 4747TIP3    H114194   0.545   6.946   2.894
 4747TIP3    H214195   0.637   6.933   3.012
 4748TIP3   OH214196   0.178   6.616   2.560
 4748TIP3    H114197   0.241   6.575   2.619
 4748TIP3    H214198   0.210   6.709   2.563
 4749TIP3   OH214199   0.335   6.608   2.916
 4749TIP3    H114200   0.257   6.646   2.873
 4749TIP3    H214201   0.406   6.631   2.853
 4750TIP3   OH214202   0.260   6.153   2.022
 4750TIP3    H114203   0.193   6.171   2.091
 4750TIP3    H214204   0.268   6.242   1.981
 4751TIP3   OH214205   0.403   7.063   3.274
 4751TIP3    H114206   0.341   7.095   3.206
 4751TIP3    H214207   0.405   6.967   3.254
 4752TIP3   OH214208   0.405   6.815   3.139
 4752TIP3    H114209   0.330   6.754   3.149
 4752TIP3    H214210   0.437   6.789   3.051
 4753TIP3   OH214211   0.605   7.210   3.175
 4753TIP3    H114212   0.526   7.166   3.212
 4753TIP3    H214213   0.668   7.134   3.174
 4754TIP3   OH214214   0.306   6.842   2.622
 4754TIP3    H114215   0.379   6.888   2.577
 4754TIP3    H214216   0.317   6.881   2.710
 4755TIP3   OH214217   0.352   6.992   2.843
 4755TIP3    H114218   0.263   7.029   2.838
 4755TIP3    H214219   0.409   7.069   2.825
 4756TIP3   OH214220   0.818   6.620   3.430
 4756TIP3    H114221   0.878   6.552   3.392
 4756TIP3    H214222   0.791   6.670   3.351
 4757TIP3   OH214223   0.282   6.455   2.189
 4757TIP3    H114224   0.306   6.477   2.281
 4757TIP3    H214225   0.213   6.387   2.206
 4758TIP3   OH214226   0.682   6.755   3.233
 4758TIP3    H114227   0.606   6.789   3.283
 4758TIP3    H214228   0.641   6.683   3.181
 4759TIP3   OH214229   0.585   6.514   3.119
 4759TIP3    H114230   0.496   6.489   3.089
 4759TIP3    H214231   0.629   6.426   3.112
 4760TIP3   OH214232   0.304   6.320   2.650
 4760TIP3    H114233   0.357   6.366   2.581
 4760TIP3    H214234   0.214   6.333   2.616
 4761TIP3   OH214235   0.425   6.419   2.432
 4761TIP3    H114236   0.488   6.363   2.381
 4761TIP3    H214237   0.456   6.508   2.404
 4762TIP3   OH214238   0.101   6.253   2.224
 4762TIP3    H114239   0.017   6.287   2.185
 4762TIP3    H214240   0.066   6.183   2.282
 4763TIP3   OH214241   0.312   6.432   3.535
 4763TIP3    H114242   0.330   6.417   3.630
 4763TIP3    H214243   0.402   6.448   3.502
 4764TIP3   OH214244   2.340   6.952   2.232
 4764TIP3    H114245   2.373   7.032   2.278
 4764TIP3    H214246   2.360   6.973   2.140
 4765TIP3   OH214247   1.768   7.150   2.246
 4765TIP3    H114248   1.797   7.070   2.293
 4765TIP3    H214249   1.709   7.110   2.180
 4766TIP3   OH214250   1.076   6.791   2.234
 4766TIP3    H114251   1.056   6.861   2.168
 4766TIP3    H214252   1.029   6.716   2.192
 4767TIP3   OH214253   1.771   6.875   1.857
 4767TIP3    H114254   1.844   6.863   1.923
 4767TIP3    H214255   1.821   6.919   1.786
 4768TIP3   OH214256   0.689   6.963   2.346
 4768TIP3    H114257   0.773   6.981   2.393
 4768TIP3    H214258   0.721   6.936   2.259
 4769TIP3   OH214259   2.418   7.159   2.401
 4769TIP3    H114260   2.339   7.207   2.372
 4769TIP3    H214261   2.403   7.159   2.497
 4770TIP3   OH214262   1.068   6.773   2.672
 4770TIP3    H114263   1.014   6.812   2.601
 4770TIP3    H214264   1.013   6.794   2.750
 4771TIP3   OH214265   1.978   6.884   2.030
 4771TIP3    H114266   1.952   6.849   2.117
 4771TIP3    H214267   2.023   6.968   2.055
 4772TIP3   OH214268   0.941   6.884   2.455
 4772TIP3    H114269   0.993   6.965   2.475
 4772TIP3    H214270   0.993   6.848   2.381
 4773TIP3   OH214271   2.123   6.879   2.400
 4773TIP3    H114272   2.035   6.884   2.361
 4773TIP3    H214273   2.184   6.898   2.326
 4774TIP3   OH214274   1.418   6.494   2.378
 4774TIP3    H114275   1.408   6.400   2.402
 4774TIP3    H214276   1.344   6.533   2.429
 4775TIP3   OH214277   1.320   7.035   1.367
 4775TIP3    H114278   1.298   7.007   1.456
 4775TIP3    H214279   1.299   6.957   1.314
 4776TIP3   OH214280   2.057   6.436   1.488
 4776TIP3    H114281   1.976   6.456   1.538
 4776TIP3    H214282   2.072   6.520   1.441
 4777TIP3   OH214283   2.204   7.319   2.771
 4777TIP3    H114284   2.142   7.343   2.700
 4777TIP3    H214285   2.204   7.222   2.765
 4778TIP3   OH214286   1.187   6.568   2.517
 4778TIP3    H114287   1.097   6.541   2.490
 4778TIP3    H214288   1.165   6.652   2.562
 4779TIP3   OH214289   1.721   6.687   2.709
 4779TIP3    H114290   1.793   6.656   2.768
 4779TIP3    H214291   1.641   6.665   2.761
 4780TIP3   OH214292   1.964   7.144   2.635
 4780TIP3    H114293   1.916   7.116   2.716
 4780TIP3    H214294   1.894   7.191   2.586
 4781TIP3   OH214295   1.336   6.622   1.490
 4781TIP3    H114296   1.302   6.609   1.581
 4781TIP3    H214297   1.292   6.547   1.446
 4782TIP3   OH214298   1.099   7.095   2.525
 4782TIP3    H114299   1.048   7.131   2.599
 4782TIP3    H214300   1.159   7.169   2.503
 4783TIP3   OH214301   0.980   6.941   2.024
 4783TIP3    H114302   0.889   6.906   2.035
 4783TIP3    H214303   1.003   6.906   1.936
 4784TIP3   OH214304   1.475   7.026   1.768
 4784TIP3    H114305   1.429   7.106   1.741
 4784TIP3    H214306   1.550   7.022   1.704
 4785TIP3   OH214307   1.668   7.297   2.878
 4785TIP3    H114308   1.619   7.227   2.926
 4785TIP3    H214309   1.756   7.288   2.917
 4786TIP3   OH214310   1.637   7.055   2.027
 4786TIP3    H114311   1.590   7.096   1.952
 4786TIP3    H214312   1.674   6.977   1.980
 4787TIP3   OH214313   0.950   7.122   2.770
 4787TIP3    H114314   0.983   7.153   2.854
 4787TIP3    H214315   0.935   7.027   2.789
 4788TIP3   OH214316   0.977   6.635   1.481
 4788TIP3    H114317   0.993   6.600   1.570
 4788TIP3    H214318   0.961   6.553   1.428
 4789TIP3   OH214319   0.549   6.628   2.307
 4789TIP3    H114320   0.601   6.670   2.379
 4789TIP3    H214321   0.618   6.588   2.254
 4790TIP3   OH214322   1.331   6.784   2.111
 4790TIP3    H114323   1.253   6.791   2.169
 4790TIP3    H214324   1.403   6.801   2.174
 4791TIP3   OH214325   0.740   6.832   2.098
 4791TIP3    H114326   0.649   6.802   2.105
 4791TIP3    H214327   0.790   6.748   2.096
 4792TIP3   OH214328   1.034   6.842   1.773
 4792TIP3    H114329   1.131   6.844   1.792
 4792TIP3    H214330   1.026   6.915   1.710
 4793TIP3   OH214331   1.826   6.872   2.305
 4793TIP3    H114332   1.799   6.883   2.399
 4793TIP3    H214333   1.755   6.813   2.274
 4794TIP3   OH214334   1.421   7.111   2.206
 4794TIP3    H114335   1.508   7.076   2.182
 4794TIP3    H214336   1.431   7.139   2.298
 4795TIP3   OH214337   0.922   6.613   2.087
 4795TIP3    H114338   0.892   6.533   2.137
 4795TIP3    H214339   0.974   6.572   2.017
 4796TIP3   OH214340   1.394   6.994   2.515
 4796TIP3    H114341   1.332   7.062   2.485
 4796TIP3    H214342   1.459   7.051   2.563
 4797TIP3   OH214343   1.583   6.728   1.454
 4797TIP3    H114344   1.488   6.703   1.464
 4797TIP3    H214345   1.585   6.820   1.488
 4798TIP3   OH214346   1.667   6.969   1.570
 4798TIP3    H114347   1.763   6.973   1.584
 4798TIP3    H214348   1.656   7.019   1.486
 4799TIP3   OH214349   2.091   7.052   1.398
 4799TIP3    H114350   2.032   7.015   1.328
 4799TIP3    H214351   2.084   7.146   1.378
 4800TIP3   OH214352   0.908   6.857   2.887
 4800TIP3    H114353   0.811   6.853   2.896
 4800TIP3    H214354   0.937   6.796   2.957
 4801TIP3   OH214355   1.764   6.920   2.570
 4801TIP3    H114356   1.835   6.946   2.630
 4801TIP3    H214357   1.732   6.839   2.615
 4802TIP3   OH214358   1.631   6.668   1.736
 4802TIP3    H114359   1.618   6.696   1.644
 4802TIP3    H214360   1.670   6.749   1.776
 4803TIP3   OH214361   1.293   6.844   1.846
 4803TIP3    H114362   1.361   6.911   1.822
 4803TIP3    H214363   1.309   6.837   1.943
 4804TIP3   OH214364   1.568   7.121   2.680
 4804TIP3    H114365   1.604   7.196   2.730
 4804TIP3    H214366   1.647   7.072   2.654
 4805TIP3   OH214367   1.458   6.573   1.937
 4805TIP3    H114368   1.452   6.648   1.999
 4805TIP3    H214369   1.522   6.609   1.871
 4806TIP3   OH214370   0.979   6.572   1.751
 4806TIP3    H114371   0.989   6.668   1.769
 4806TIP3    H214372   1.073   6.545   1.755
 4807TIP3   OH214373   2.225   7.069   2.610
 4807TIP3    H114374   2.130   7.091   2.618
 4807TIP3    H214375   2.218   6.996   2.546
 4808TIP3   OH214376   1.874   7.229   1.989
 4808TIP3    H114377   1.811   7.199   2.057
 4808TIP3    H214378   1.957   7.216   2.039
 4809TIP3   OH214379   0.921   6.488   2.487
 4809TIP3    H114380   0.892   6.452   2.401
 4809TIP3    H214381   0.913   6.410   2.546
 4810TIP3   OH214382   1.314   7.057   2.910
 4810TIP3    H114383   1.319   6.967   2.871
 4810TIP3    H214384   1.324   7.110   2.830
 4811TIP3   OH214385   1.324   6.844   2.735
 4811TIP3    H114386   1.355   6.892   2.654
 4811TIP3    H214387   1.231   6.825   2.709
 4812TIP3   OH214388   1.943   7.318   2.954
 4812TIP3    H114389   1.990   7.234   2.967
 4812TIP3    H214390   2.001   7.380   3.002
 4813TIP3   OH214391   1.187   7.178   3.134
 4813TIP3    H114392   1.129   7.100   3.149
 4813TIP3    H214393   1.231   7.152   3.050
 4814TIP3   OH214394   1.461   6.610   2.790
 4814TIP3    H114395   1.410   6.692   2.768
 4814TIP3    H214396   1.394   6.541   2.776
 4815TIP3   OH214397   1.581   7.078   3.008
 4815TIP3    H114398   1.562   7.072   3.104
 4815TIP3    H214399   1.493   7.056   2.973
 4816TIP3   OH214400   1.829   7.043   2.849
 4816TIP3    H114401   1.752   7.040   2.910
 4816TIP3    H214402   1.903   7.021   2.909
 4817TIP3   OH214403   2.059   7.012   3.005
 4817TIP3    H114404   2.070   6.916   3.020
 4817TIP3    H214405   2.052   7.048   3.096
 4818TIP3   OH214406   1.044   6.952   3.199
 4818TIP3    H114407   1.047   6.861   3.163
 4818TIP3    H214408   1.085   6.935   3.288
 4819TIP3   OH214409   1.553   6.622   3.048
 4819TIP3    H114410   1.621   6.552   3.041
 4819TIP3    H214411   1.515   6.617   2.957
 4820TIP3   OH214412   1.621   6.837   3.207
 4820TIP3    H114413   1.603   6.765   3.142
 4820TIP3    H214414   1.540   6.891   3.201
 4821TIP3   OH214415   1.937   6.963   1.193
 4821TIP3    H114416   1.883   6.991   1.118
 4821TIP3    H214417   1.915   6.867   1.192
 4822TIP3   OH214418   1.995   7.220   1.741
 4822TIP3    H114419   1.989   7.123   1.742
 4822TIP3    H214420   1.975   7.241   1.835
 4823TIP3   OH214421   2.413   7.472   2.683
 4823TIP3    H114422   2.324   7.434   2.695
 4823TIP3    H214423   2.467   7.390   2.680
 4824TIP3   OH214424   1.885   6.692   1.171
 4824TIP3    H114425   1.950   6.668   1.240
 4824TIP3    H214426   1.803   6.647   1.200
 4825TIP3   OH214427   1.940   6.957   1.638
 4825TIP3    H114428   1.974   6.867   1.655
 4825TIP3    H214429   1.996   6.982   1.562
 4826TIP3   OH214430   2.096   7.119   2.111
 4826TIP3    H114431   2.180   7.154   2.075
 4826TIP3    H214432   2.109   7.140   2.205
 4827TIP3   OH214433   2.148   7.269   2.341
 4827TIP3    H114434   2.052   7.277   2.355
 4827TIP3    H214435   2.166   7.339   2.276
 4828TIP3   OH214436   0.779   7.003   3.167
 4828TIP3    H114437   0.876   6.993   3.168
 4828TIP3    H214438   0.752   6.914   3.199
 4829TIP3   OH214439   2.618   6.879   2.920
 4829TIP3    H114440   2.674   6.810   2.878
 4829TIP3    H214441   2.582   6.925   2.841
 4830TIP3   OH214442   2.042   6.708   1.672
 4830TIP3    H114443   2.087   6.695   1.758
 4830TIP3    H214444   1.978   6.634   1.673
 4831TIP3   OH214445   0.732   6.692   2.501
 4831TIP3    H114446   0.799   6.622   2.510
 4831TIP3    H214447   0.789   6.770   2.486
 4832TIP3   OH214448   0.538   6.988   2.576
 4832TIP3    H114449   0.582   6.971   2.490
 4832TIP3    H214450   0.567   7.078   2.593
 4833TIP3   OH214451   2.481   7.005   2.721
 4833TIP3    H114452   2.400   7.049   2.753
 4833TIP3    H214453   2.441   6.933   2.667
 4834TIP3   OH214454   2.119   6.644   1.313
 4834TIP3    H114455   2.155   6.571   1.258
 4834TIP3    H214456   2.189   6.712   1.307
 4835TIP3   OH214457   0.506   6.487   2.022
 4835TIP3    H114458   0.443   6.475   2.097
 4835TIP3    H214459   0.493   6.580   1.999
 4836TIP3   OH214460   0.746   6.556   2.885
 4836TIP3    H114461   0.692   6.552   2.965
 4836TIP3    H214462   0.682   6.593   2.821
 4837TIP3   OH214463   2.378   6.769   2.605
 4837TIP3    H114464   2.286   6.743   2.579
 4837TIP3    H214465   2.419   6.680   2.599
 4838TIP3   OH214466   1.591   6.689   2.224
 4838TIP3    H114467   1.542   6.620   2.272
 4838TIP3    H214468   1.665   6.638   2.185
 4839TIP3   OH214469   2.107   6.567   2.122
 4839TIP3    H114470   2.139   6.623   2.049
 4839TIP3    H214471   2.011   6.587   2.122
 4840TIP3   OH214472   2.205   6.675   1.888
 4840TIP3    H114473   2.280   6.623   1.854
 4840TIP3    H214474   2.237   6.767   1.876
 4841TIP3   OH214475   0.831   6.397   2.237
 4841TIP3    H114476   0.742   6.357   2.246
 4841TIP3    H214477   0.885   6.315   2.232
 4842TIP3   OH214478   0.628   6.273   1.887
 4842TIP3    H114479   0.660   6.330   1.815
 4842TIP3    H214480   0.584   6.339   1.944
 4843TIP3   OH214481   1.277   6.430   2.125
 4843TIP3    H114482   1.332   6.478   2.061
 4843TIP3    H214483   1.309   6.467   2.209
 4844TIP3   OH214484   1.822   6.574   2.105
 4844TIP3    H114485   1.825   6.531   2.019
 4844TIP3    H214486   1.811   6.497   2.165
 4845TIP3   OH214487   1.853   6.502   1.668
 4845TIP3    H114488   1.768   6.546   1.687
 4845TIP3    H214489   1.840   6.416   1.714
 4846TIP3   OH214490   0.739   6.428   1.677
 4846TIP3    H114491   0.776   6.372   1.607
 4846TIP3    H214492   0.819   6.474   1.710
 4847TIP3   OH214493   1.254   6.593   1.752
 4847TIP3    H114494   1.317   6.549   1.811
 4847TIP3    H214495   1.269   6.686   1.778
 4848TIP3   OH214496   1.041   6.679   3.132
 4848TIP3    H114497   1.005   6.607   3.187
 4848TIP3    H214498   1.135   6.676   3.160
 4849TIP3   OH214499   1.292   6.675   3.250
 4849TIP3    H114500   1.378   6.653   3.210
 4849TIP3    H214501   1.282   6.604   3.316
 4850TIP3   OH214502   2.112   6.737   3.036
 4850TIP3    H114503   2.130   6.704   3.126
 4850TIP3    H214504   2.201   6.731   2.995
 4851TIP3   OH214505   2.297   7.190   1.554
 4851TIP3    H114506   2.255   7.256   1.611
 4851TIP3    H214507   2.224   7.128   1.538
 4852TIP3   OH214508   4.133   7.205   1.722
 4852TIP3    H114509   4.169   7.288   1.759
 4852TIP3    H214510   4.158   7.214   1.628
 4853TIP3   OH214511   3.561   7.403   1.739
 4853TIP3    H114512   3.594   7.320   1.777
 4853TIP3    H214513   3.498   7.368   1.673
 4854TIP3   OH214514   2.871   7.048   1.722
 4854TIP3    H114515   2.852   7.116   1.654
 4854TIP3    H214516   2.825   6.971   1.683
 4855TIP3   OH214517   3.565   7.138   1.342
 4855TIP3    H114518   3.636   7.124   1.408
 4855TIP3    H214519   3.618   7.175   1.269
 4856TIP3   OH214520   2.495   7.236   1.832
 4856TIP3    H114521   2.580   7.229   1.879
 4856TIP3    H214522   2.515   7.185   1.751
 4857TIP3   OH214523   4.215   7.413   1.890
 4857TIP3    H114524   4.139   7.464   1.857
 4857TIP3    H214525   4.208   7.430   1.985
 4858TIP3   OH214526   2.868   7.032   2.159
 4858TIP3    H114527   2.808   7.069   2.091
 4858TIP3    H214528   2.813   7.044   2.239
 4859TIP3   OH214529   3.770   7.143   1.515
 4859TIP3    H114530   3.768   7.094   1.598
 4859TIP3    H214531   3.819   7.224   1.540
 4860TIP3   OH214532   2.741   7.148   1.942
 4860TIP3    H114533   2.800   7.223   1.964
 4860TIP3    H214534   2.790   7.108   1.867
 4861TIP3   OH214535   3.925   7.114   1.892
 4861TIP3    H114536   3.837   7.130   1.854
 4861TIP3    H214537   3.985   7.143   1.820
 4862TIP3   OH214538   3.219   6.747   1.872
 4862TIP3    H114539   3.204   6.652   1.893
 4862TIP3    H214540   3.143   6.787   1.919
 4863TIP3   OH214541   3.116   7.285   0.874
 4863TIP3    H114542   3.087   7.281   0.966
 4863TIP3    H214543   3.072   7.209   0.834
 4864TIP3   OH214544   3.857   6.697   0.974
 4864TIP3    H114545   3.775   6.719   1.023
 4864TIP3    H214546   3.870   6.778   0.921
 4865TIP3   OH214547   3.964   7.568   2.272
 4865TIP3    H114548   3.938   7.601   2.185
 4865TIP3    H214549   3.989   7.476   2.252
 4866TIP3   OH214550   2.983   6.828   2.002
 4866TIP3    H114551   2.895   6.796   1.973
 4866TIP3    H214552   2.956   6.907   2.052
 4867TIP3   OH214553   3.516   6.944   2.196
 4867TIP3    H114554   3.585   6.912   2.257
 4867TIP3    H214555   3.433   6.921   2.243
 4868TIP3   OH214556   3.755   7.389   2.117
 4868TIP3    H114557   3.706   7.368   2.200
 4868TIP3    H214558   3.690   7.439   2.067
 4869TIP3   OH214559   3.129   6.882   0.981
 4869TIP3    H114560   3.096   6.866   1.071
 4869TIP3    H214561   3.095   6.803   0.936
 4870TIP3   OH214562   2.914   7.356   2.017
 4870TIP3    H114563   2.862   7.370   2.099
 4870TIP3    H214564   2.902   7.440   1.971
 4871TIP3   OH214565   2.783   7.200   1.513
 4871TIP3    H114566   2.694   7.163   1.534
 4871TIP3    H214567   2.803   7.158   1.428
 4872TIP3   OH214568   3.270   7.281   1.248
 4872TIP3    H114569   3.232   7.367   1.226
 4872TIP3    H214570   3.347   7.276   1.188
 4873TIP3   OH214571   3.461   7.548   2.357
 4873TIP3    H114572   3.409   7.483   2.409
 4873TIP3    H214573   3.544   7.545   2.406
 4874TIP3   OH214574   3.428   7.314   1.515
 4874TIP3    H114575   3.393   7.361   1.438
 4874TIP3    H214576   3.467   7.237   1.469
 4875TIP3   OH214577   2.774   7.363   2.254
 4875TIP3    H114578   2.727   7.417   2.318
 4875TIP3    H214579   2.746   7.273   2.283
 4876TIP3   OH214580   2.779   6.857   0.946
 4876TIP3    H114581   2.776   6.846   1.043
 4876TIP3    H214582   2.686   6.874   0.924
 4877TIP3   OH214583   2.330   6.900   1.795
 4877TIP3    H114584   2.401   6.927   1.857
 4877TIP3    H214585   2.376   6.848   1.728
 4878TIP3   OH214586   2.297   6.872   1.325
 4878TIP3    H114587   2.353   6.919   1.261
 4878TIP3    H214588   2.231   6.941   1.345
 4879TIP3   OH214589   3.128   7.043   1.599
 4879TIP3    H114590   3.050   7.047   1.657
 4879TIP3    H214591   3.201   7.052   1.663
 4880TIP3   OH214592   2.549   7.096   1.593
 4880TIP3    H114593   2.453   7.105   1.575
 4880TIP3    H214594   2.564   7.000   1.590
 4881TIP3   OH214595   2.832   7.122   1.251
 4881TIP3    H114596   2.925   7.098   1.271
 4881TIP3    H214597   2.843   7.217   1.236
 4882TIP3   OH214598   3.620   7.131   1.803
 4882TIP3    H114599   3.581   7.141   1.893
 4882TIP3    H214600   3.557   7.069   1.762
 4883TIP3   OH214601   2.606   7.146   1.082
 4883TIP3    H114602   2.562   7.085   1.018
 4883TIP3    H214603   2.656   7.083   1.138
 4884TIP3   OH214604   3.222   7.364   1.696
 4884TIP3    H114605   3.303   7.335   1.650
 4884TIP3    H214606   3.237   7.341   1.789
 4885TIP3   OH214607   2.729   6.862   1.572
 4885TIP3    H114608   2.689   6.790   1.625
 4885TIP3    H214609   2.788   6.812   1.515
 4886TIP3   OH214610   3.181   7.267   1.985
 4886TIP3    H114611   3.093   7.309   1.982
 4886TIP3    H214612   3.236   7.335   2.030
 4887TIP3   OH214613   3.377   6.985   0.936
 4887TIP3    H114614   3.282   6.964   0.952
 4887TIP3    H214615   3.386   7.077   0.970
 4888TIP3   OH214616   3.462   7.229   1.046
 4888TIP3    H114617   3.558   7.230   1.065
 4888TIP3    H214618   3.456   7.278   0.962
 4889TIP3   OH214619   3.890   7.307   0.896
 4889TIP3    H114620   3.819   7.282   0.831
 4889TIP3    H214621   3.938   7.373   0.841
 4890TIP3   OH214622   2.701   7.111   2.370
 4890TIP3    H114623   2.604   7.116   2.382
 4890TIP3    H214624   2.726   7.052   2.443
 4891TIP3   OH214625   3.541   7.186   2.066
 4891TIP3    H114626   3.626   7.206   2.108
 4891TIP3    H214627   3.519   7.101   2.110
 4892TIP3   OH214628   3.421   6.930   1.224
 4892TIP3    H114629   3.416   6.954   1.130
 4892TIP3    H214630   3.463   7.010   1.263
 4893TIP3   OH214631   3.086   7.102   1.334
 4893TIP3    H114632   3.155   7.167   1.306
 4893TIP3    H214633   3.105   7.096   1.431
 4894TIP3   OH214634   3.357   7.414   2.134
 4894TIP3    H114635   3.399   7.457   2.211
 4894TIP3    H214636   3.418   7.340   2.115
 4895TIP3   OH214637   3.254   6.832   1.423
 4895TIP3    H114638   3.248   6.908   1.484
 4895TIP3    H214639   3.317   6.867   1.356
 4896TIP3   OH214640   2.770   6.837   1.218
 4896TIP3    H114641   2.785   6.926   1.254
 4896TIP3    H214642   2.861   6.801   1.226
 4897TIP3   OH214643   4.021   7.331   2.109
 4897TIP3    H114644   3.924   7.347   2.109
 4897TIP3    H214645   4.027   7.271   2.033
 4898TIP3   OH214646   3.668   7.485   1.480
 4898TIP3    H114647   3.606   7.449   1.545
 4898TIP3    H214648   3.751   7.470   1.529
 4899TIP3   OH214649   2.306   7.053   1.100
 4899TIP3    H114650   2.222   7.101   1.100
 4899TIP3    H214651   2.284   6.973   1.050
 4900TIP3   OH214652   2.720   6.746   1.973
 4900TIP3    H114653   2.688   6.709   1.888
 4900TIP3    H214654   2.711   6.670   2.033
 4901TIP3   OH214655   3.117   7.304   2.397
 4901TIP3    H114656   3.125   7.215   2.356
 4901TIP3    H214657   3.081   7.353   2.321
 4902TIP3   OH214658   3.125   7.105   2.210
 4902TIP3    H114659   3.152   7.149   2.127
 4902TIP3    H214660   3.032   7.083   2.190
 4903TIP3   OH214661   3.746   7.571   2.449
 4903TIP3    H114662   3.771   7.481   2.422
 4903TIP3    H214663   3.833   7.614   2.439
 4904TIP3   OH214664   2.998   7.430   2.618
 4904TIP3    H114665   2.925   7.369   2.642
 4904TIP3    H214666   3.029   7.389   2.535
 4905TIP3   OH214667   3.257   6.869   2.274
 4905TIP3    H114668   3.205   6.949   2.251
 4905TIP3    H214669   3.190   6.798   2.264
 4906TIP3   OH214670   3.373   7.337   2.498
 4906TIP3    H114671   3.347   7.332   2.592
 4906TIP3    H214672   3.286   7.315   2.458
 4907TIP3   OH214673   3.630   7.307   2.345
 4907TIP3    H114674   3.550   7.299   2.401
 4907TIP3    H214675   3.701   7.277   2.406
 4908TIP3   OH214676   3.852   7.269   2.505
 4908TIP3    H114677   3.867   7.172   2.511
 4908TIP3    H214678   3.855   7.296   2.598
 4909TIP3   OH214679   2.842   7.208   2.680
 4909TIP3    H114680   2.840   7.114   2.650
 4909TIP3    H214681   2.877   7.196   2.771
 4910TIP3   OH214682   3.354   6.885   2.531
 4910TIP3    H114683   3.417   6.810   2.526
 4910TIP3    H214684   3.312   6.877   2.443
 4911TIP3   OH214685   3.419   7.098   2.691
 4911TIP3    H114686   3.401   7.024   2.628
 4911TIP3    H214687   3.335   7.148   2.686
 4912TIP3   OH214688   3.726   7.236   0.691
 4912TIP3    H114689   3.731   7.253   0.595
 4912TIP3    H214690   3.693   7.144   0.692
 4913TIP3   OH214691   3.789   7.477   1.231
 4913TIP3    H114692   3.789   7.380   1.227
 4913TIP3    H214693   3.771   7.493   1.326
 4914TIP3   OH214694   4.203   7.727   2.189
 4914TIP3    H114695   4.113   7.698   2.165
 4914TIP3    H214696   4.255   7.644   2.176
 4915TIP3   OH214697   3.660   6.973   0.688
 4915TIP3    H114698   3.742   6.933   0.723
 4915TIP3    H214699   3.596   6.901   0.693
 4916TIP3   OH214700   3.733   7.215   1.122
 4916TIP3    H114701   3.771   7.125   1.138
 4916TIP3    H214702   3.789   7.243   1.047
 4917TIP3   OH214703   3.891   7.376   1.598
 4917TIP3    H114704   3.975   7.411   1.559
 4917TIP3    H214705   3.908   7.397   1.691
 4918TIP3   OH214706   3.943   7.519   1.827
 4918TIP3    H114707   3.848   7.538   1.833
 4918TIP3    H214708   3.975   7.588   1.766
 4919TIP3   OH214709   2.576   7.258   2.660
 4919TIP3    H114710   2.673   7.249   2.655
 4919TIP3    H214711   2.552   7.166   2.685
 4920TIP3   OH214712   4.407   7.129   2.405
 4920TIP3    H114713   4.469   7.064   2.365
 4920TIP3    H214714   4.378   7.180   2.327
 4921TIP3   OH214715   3.835   6.966   1.164
 4921TIP3    H114716   3.882   6.950   1.249
 4921TIP3    H214717   3.773   6.890   1.163
 4922TIP3   OH214718   2.532   6.952   1.975
 4922TIP3    H114719   2.595   6.879   1.989
 4922TIP3    H214720   2.592   7.028   1.973
 4923TIP3   OH214721   2.334   7.242   2.060
 4923TIP3    H114722   2.383   7.237   1.975
 4923TIP3    H214723   2.356   7.331   2.088
 4924TIP3   OH214724   4.276   7.263   2.205
 4924TIP3    H114725   4.189   7.305   2.221
 4924TIP3    H214726   4.247   7.186   2.152
 4925TIP3   OH214727   3.914   6.900   0.794
 4925TIP3    H114728   3.949   6.827   0.738
 4925TIP3    H214729   3.987   6.965   0.789
 4926TIP3   OH214730   2.321   6.729   1.555
 4926TIP3    H114731   2.230   6.721   1.588
 4926TIP3    H214732   2.310   6.788   1.478
 4927TIP3   OH214733   2.540   6.815   2.372
 4927TIP3    H114734   2.487   6.803   2.452
 4927TIP3    H214735   2.473   6.850   2.310
 4928TIP3   OH214736   4.176   7.027   2.093
 4928TIP3    H114737   4.086   7.012   2.059
 4928TIP3    H214738   4.214   6.936   2.084
 4929TIP3   OH214739   3.385   6.945   1.715
 4929TIP3    H114740   3.339   6.874   1.763
 4929TIP3    H214741   3.458   6.897   1.670
 4930TIP3   OH214742   3.902   6.835   1.622
 4930TIP3    H114743   3.938   6.880   1.542
 4930TIP3    H214744   3.806   6.844   1.608
 4931TIP3   OH214745   3.998   6.925   1.383
 4931TIP3    H114746   4.070   6.873   1.342
 4931TIP3    H214747   4.031   7.016   1.367
 4932TIP3   OH214748   2.629   6.654   1.723
 4932TIP3    H114749   2.538   6.618   1.731
 4932TIP3    H214750   2.679   6.570   1.721
 4933TIP3   OH214751   2.410   6.525   1.378
 4933TIP3    H114752   2.443   6.583   1.308
 4933TIP3    H214753   2.386   6.589   1.449
 4934TIP3   OH214754   3.071   6.690   1.608
 4934TIP3    H114755   3.131   6.734   1.547
 4934TIP3    H214756   3.101   6.724   1.694
 4935TIP3   OH214757   3.619   6.833   1.590
 4935TIP3    H114758   3.624   6.790   1.503
 4935TIP3    H214759   3.607   6.755   1.649
 4936TIP3   OH214760   3.649   6.758   1.156
 4936TIP3    H114761   3.562   6.798   1.172
 4936TIP3    H214762   3.638   6.671   1.200
 4937TIP3   OH214763   2.542   6.691   1.130
 4937TIP3    H114764   2.584   6.618   1.082
 4937TIP3    H214765   2.619   6.731   1.176
 4938TIP3   OH214766   3.044   6.851   1.241
 4938TIP3    H114767   3.106   6.802   1.297
 4938TIP3    H214768   3.069   6.943   1.268
 4939TIP3   OH214769   2.838   6.938   2.623
 4939TIP3    H114770   2.799   6.865   2.674
 4939TIP3    H214771   2.932   6.933   2.652
 4940TIP3   OH214772   3.092   6.934   2.740
 4940TIP3    H114773   3.174   6.899   2.701
 4940TIP3    H214774   3.073   6.865   2.808
 4941TIP3   OH214775   3.916   7.001   2.525
 4941TIP3    H114776   3.932   6.965   2.615
 4941TIP3    H214777   4.004   6.991   2.484
 4942TIP3   OH214778   4.089   7.434   1.052
 4942TIP3    H114779   4.045   7.509   1.095
 4942TIP3    H214780   4.014   7.382   1.020
 4943TIP3   OH214781   5.348   7.657   1.237
 4943TIP3    H114782   5.378   7.570   1.267
 4943TIP3    H214783   5.305   7.634   1.152
 4944TIP3   OH214784   4.673   7.298   1.209
 4944TIP3    H114785   4.646   7.369   1.147
 4944TIP3    H214786   4.626   7.222   1.168
 4945TIP3   OH214787   5.353   7.399   0.846
 4945TIP3    H114788   5.432   7.373   0.898
 4945TIP3    H214789   5.385   7.389   0.756
 4946TIP3   OH214790   4.288   7.489   1.327
 4946TIP3    H114791   4.378   7.481   1.365
 4946TIP3    H214792   4.300   7.445   1.241
 4947TIP3   OH214793   4.664   7.290   1.646
 4947TIP3    H114794   4.605   7.324   1.576
 4947TIP3    H214795   4.608   7.304   1.725
 4948TIP3   OH214796   5.576   7.369   1.007
 4948TIP3    H114797   5.539   7.355   1.095
 4948TIP3    H214798   5.644   7.436   1.020
 4949TIP3   OH214799   4.539   7.402   1.427
 4949TIP3    H114800   4.598   7.478   1.448
 4949TIP3    H214801   4.589   7.361   1.353
 4950TIP3   OH214802   5.729   7.367   1.373
 4950TIP3    H114803   5.640   7.390   1.342
 4950TIP3    H214804   5.783   7.378   1.292
 4951TIP3   OH214805   5.018   7.005   1.361
 4951TIP3    H114806   5.000   6.911   1.376
 4951TIP3    H214807   4.941   7.045   1.407
 4952TIP3   OH214808   4.780   7.083   1.489
 4952TIP3    H114809   4.693   7.051   1.459
 4952TIP3    H214810   4.753   7.163   1.536
 4953TIP3   OH214811   5.314   7.202   1.684
 4953TIP3    H114812   5.382   7.169   1.746
 4953TIP3    H214813   5.230   7.179   1.729
 4954TIP3   OH214814   5.567   7.635   1.604
 4954TIP3    H114815   5.508   7.629   1.682
 4954TIP3    H214816   5.531   7.712   1.556
 4955TIP3   OH214817   4.710   7.613   1.502
 4955TIP3    H114818   4.656   7.628   1.583
 4955TIP3    H214819   4.699   7.695   1.453
 4956TIP3   OH214820   4.576   7.461   1.017
 4956TIP3    H114821   4.487   7.423   1.033
 4956TIP3    H214822   4.597   7.424   0.929
 4957TIP3   OH214823   5.259   7.809   1.844
 4957TIP3    H114824   5.207   7.740   1.891
 4957TIP3    H214825   5.344   7.798   1.889
 4958TIP3   OH214826   5.244   7.598   0.994
 4958TIP3    H114827   5.178   7.628   0.930
 4958TIP3    H214828   5.281   7.519   0.946
 4959TIP3   OH214829   4.568   7.620   1.739
 4959TIP3    H114830   4.528   7.674   1.808
 4959TIP3    H214831   4.542   7.531   1.767
 4960TIP3   OH214832   4.120   7.152   1.299
 4960TIP3    H114833   4.199   7.180   1.348
 4960TIP3    H214834   4.154   7.113   1.217
 4961TIP3   OH214835   4.096   7.123   0.820
 4961TIP3    H114836   4.148   7.158   0.745
 4961TIP3    H214837   4.036   7.197   0.840
 4962TIP3   OH214838   4.928   7.298   1.080
 4962TIP3    H114839   4.844   7.302   1.130
 4962TIP3    H214840   4.992   7.315   1.151
 4963TIP3   OH214841   4.342   7.351   1.087
 4963TIP3    H114842   4.246   7.365   1.066
 4963TIP3    H214843   4.353   7.256   1.072
 4964TIP3   OH214844   4.643   7.384   0.763
 4964TIP3    H114845   4.740   7.374   0.774
 4964TIP3    H214846   4.635   7.480   0.745
 4965TIP3   OH214847   5.415   7.381   1.281
 4965TIP3    H114848   5.383   7.396   1.373
 4965TIP3    H214849   5.345   7.320   1.249
 4966TIP3   OH214850   5.022   7.612   1.184
 4966TIP3    H114851   5.113   7.592   1.157
 4966TIP3    H214852   5.028   7.609   1.281
 4967TIP3   OH214853   4.531   7.116   1.058
 4967TIP3    H114854   4.488   7.045   1.110
 4967TIP3    H214855   4.570   7.065   0.986
 4968TIP3   OH214856   4.975   7.522   1.472
 4968TIP3    H114857   4.888   7.565   1.469
 4968TIP3    H214858   5.030   7.587   1.521
 4969TIP3   OH214859   4.497   7.368   1.858
 4969TIP3    H114860   4.400   7.370   1.867
 4969TIP3    H214861   4.522   7.307   1.929
 4970TIP3   OH214862   5.344   7.440   1.544
 4970TIP3    H114863   5.426   7.471   1.585
 4970TIP3    H214864   5.324   7.359   1.595
 4971TIP3   OH214865   4.912   7.367   0.813
 4971TIP3    H114866   4.966   7.446   0.797
 4971TIP3    H214867   4.920   7.356   0.911
 4972TIP3   OH214868   5.147   7.663   1.629
 4972TIP3    H114869   5.193   7.715   1.696
 4972TIP3    H214870   5.215   7.601   1.599
 4973TIP3   OH214871   5.054   7.097   0.921
 4973TIP3    H114872   5.025   7.168   0.981
 4973TIP3    H214873   5.129   7.140   0.877
 4974TIP3   OH214874   4.559   7.074   0.736
 4974TIP3    H114875   4.560   7.162   0.775
 4974TIP3    H214876   4.655   7.058   0.724
 4975TIP3   OH214877   5.835   7.578   1.552
 4975TIP3    H114878   5.750   7.612   1.585
 4975TIP3    H214879   5.803   7.505   1.496
 4976TIP3   OH214880   5.454   7.794   0.980
 4976TIP3    H114881   5.394   7.720   0.998
 4976TIP3    H214882   5.529   7.774   1.038
 4977TIP3   OH214883   4.136   7.274   0.591
 4977TIP3    H114884   4.142   7.365   0.624
 4977TIP3    H214885   4.041   7.263   0.581
 4978TIP3   OH214886   4.516   7.003   1.460
 4978TIP3    H114887   4.484   6.968   1.373
 4978TIP3    H214888   4.504   6.925   1.518
 4979TIP3   OH214889   4.912   7.562   1.884
 4979TIP3    H114890   4.920   7.473   1.843
 4979TIP3    H214891   4.886   7.613   1.806
 4980TIP3   OH214892   4.922   7.362   1.698
 4980TIP3    H114893   4.949   7.406   1.615
 4980TIP3    H214894   4.828   7.339   1.677
 4981TIP3   OH214895   5.555   7.833   1.931
 4981TIP3    H114896   5.574   7.738   1.921
 4981TIP3    H214897   5.644   7.871   1.929
 4982TIP3   OH214898   4.791   7.685   2.105
 4982TIP3    H114899   4.720   7.622   2.128
 4982TIP3    H214900   4.825   7.647   2.021
 4983TIP3   OH214901   5.053   7.126   1.761
 4983TIP3    H114902   5.002   7.206   1.737
 4983TIP3    H214903   4.986   7.056   1.749
 4984TIP3   OH214904   5.169   7.597   1.983
 4984TIP3    H114905   5.144   7.589   2.078
 4984TIP3    H214906   5.083   7.574   1.943
 4985TIP3   OH214907   5.427   7.574   1.836
 4985TIP3    H114908   5.347   7.560   1.890
 4985TIP3    H214909   5.498   7.540   1.895
 4986TIP3   OH214910   5.645   7.526   1.999
 4986TIP3    H114911   5.661   7.429   2.000
 4986TIP3    H214912   5.654   7.549   2.093
 4987TIP3   OH214913   4.636   7.464   2.167
 4987TIP3    H114914   4.636   7.371   2.137
 4987TIP3    H214915   4.672   7.452   2.258
 4988TIP3   OH214916   5.149   7.140   2.018
 4988TIP3    H114917   5.213   7.067   2.013
 4988TIP3    H214918   5.108   7.133   1.930
 4989TIP3   OH214919   5.215   7.355   2.178
 4989TIP3    H114920   5.197   7.281   2.115
 4989TIP3    H214921   5.132   7.406   2.172
 4990TIP3   OH214922   4.368   7.516   2.146
 4990TIP3    H114923   4.466   7.510   2.140
 4990TIP3    H214924   4.348   7.424   2.173
 4991TIP3   OH214925   6.189   7.368   1.902
 4991TIP3    H114926   6.255   7.311   1.857
 4991TIP3    H214927   6.159   7.425   1.828
 4992TIP3   OH214928   4.329   7.210   1.477
 4992TIP3    H114929   4.393   7.136   1.480
 4992TIP3    H214930   4.388   7.285   1.462
 4993TIP3   OH214931   4.129   7.502   1.552
 4993TIP3    H114932   4.178   7.487   1.468
 4993TIP3    H214933   4.152   7.594   1.568
 4994TIP3   OH214934   6.051   7.509   1.713
 4994TIP3    H114935   5.981   7.568   1.682
 4994TIP3    H214936   6.038   7.435   1.650
 4995TIP3   OH214937   4.117   7.000   1.057
 4995TIP3    H114938   4.024   6.982   1.075
 4995TIP3    H214939   4.113   7.047   0.971
 4996TIP3   OH214940   4.339   7.074   1.860
 4996TIP3    H114941   4.284   7.063   1.939
 4996TIP3    H214942   4.274   7.106   1.796
 4997TIP3   OH214943   5.969   7.277   1.580
 4997TIP3    H114944   5.878   7.266   1.547
 4997TIP3    H214945   6.004   7.185   1.569
 4998TIP3   OH214946   5.190   7.200   1.205
 4998TIP3    H114947   5.138   7.132   1.251
 4998TIP3    H214948   5.254   7.147   1.154
 4999TIP3   OH214949   5.700   7.095   1.102
 4999TIP3    H114950   5.719   7.166   1.040
 4999TIP3    H214951   5.603   7.089   1.094
 5000TIP3   OH214952   4.424   6.912   1.213
 5000TIP3    H114953   4.331   6.879   1.215
 5000TIP3    H214954   4.471   6.826   1.207
 5001TIP3   OH214955   4.226   6.780   0.871
 5001TIP3    H114956   4.257   6.834   0.795
 5001TIP3    H214957   4.195   6.849   0.932
 5002TIP3   OH214958   4.870   6.939   1.098
 5002TIP3    H114959   4.927   6.985   1.034
 5002TIP3    H214960   4.893   6.982   1.181
 5003TIP3   OH214961   5.420   7.078   1.062
 5003TIP3    H114962   5.419   7.024   0.981
 5003TIP3    H214963   5.405   7.007   1.130
 5004TIP3   OH214964   4.335   6.922   0.665
 5004TIP3    H114965   4.359   6.886   0.579
 5004TIP3    H214966   4.414   6.976   0.686
 5005TIP3   OH214967   4.829   7.110   0.746
 5005TIP3    H114968   4.900   7.065   0.794
 5005TIP3    H214969   4.862   7.202   0.749
 5006TIP3   OH214970   4.633   7.193   2.111
 5006TIP3    H114971   4.598   7.118   2.163
 5006TIP3    H214972   4.728   7.189   2.138
 5007TIP3   OH214973   4.887   7.191   2.226
 5007TIP3    H114974   4.970   7.159   2.187
 5007TIP3    H214975   4.871   7.121   2.294
 5008TIP3   OH214976   5.710   7.258   2.012
 5008TIP3    H114977   5.728   7.222   2.102
 5008TIP3    H214978   5.798   7.248   1.969
 5009TIP3   OH214979   6.121   7.323   1.345
 5009TIP3    H114980   6.073   7.314   1.430
 5009TIP3    H214981   6.050   7.349   1.284
 5010TIP3   OH214982   1.608   0.364   5.611
 5010TIP3    H114983   1.633   0.443   5.561
 5010TIP3    H214984   1.527   0.343   5.562
 5011TIP3   OH214985   1.869   0.646   5.616
 5011TIP3    H114986   1.861   0.574   5.680
 5011TIP3    H214987   1.901   0.720   5.671
 5012TIP3   OH214988   1.518   1.099   5.631
 5012TIP3    H114989   1.563   1.028   5.581
 5012TIP3    H214990   1.504   1.057   5.716
 5013TIP3   OH214991   2.463   0.061   6.187
 5013TIP3    H114992   2.420   0.127   6.130
 5013TIP3    H214993   2.548   0.102   6.206
 5014TIP3   OH214994   1.496   0.545   5.427
 5014TIP3    H114995   1.508   0.554   5.332
 5014TIP3    H214996   1.460   0.633   5.451
 5015TIP3   OH214997   1.937   0.882   5.781
 5015TIP3    H114998   1.848   0.877   5.821
 5015TIP3    H214999   1.932   0.968   5.734
 5016TIP3   OH215000   1.640   0.922   5.456
 5016TIP3    H115001   1.686   0.838   5.432
 5016TIP3    H215002   1.704   0.987   5.417
 5017TIP3   OH215003   1.772   0.696   5.363
 5017TIP3    H115004   1.781   0.613   5.313
 5017TIP3    H215005   1.813   0.673   5.449
 5018TIP3   OH215006   2.147   0.792   6.137
 5018TIP3    H115007   2.145   0.715   6.076
 5018TIP3    H215008   2.140   0.867   6.073
 5019TIP3   OH215009   2.361   0.440   5.977
 5019TIP3    H115010   2.277   0.490   5.976
 5019TIP3    H215011   2.389   0.451   5.883
 5020TIP3   OH215012   2.074   0.339   6.261
 5020TIP3    H115013   2.065   0.406   6.333
 5020TIP3    H215014   2.028   0.384   6.189
 5021TIP3   OH215015   1.699   0.879   5.911
 5021TIP3    H115016   1.671   0.966   5.947
 5021TIP3    H215017   1.684   0.819   5.985
 5022TIP3   OH215018   1.679   0.143   5.209
 5022TIP3    H115019   1.718   0.233   5.211
 5022TIP3    H215020   1.666   0.135   5.112
 5023TIP3   OH215021   1.390   0.803   5.456
 5023TIP3    H115022   1.470   0.858   5.464
 5023TIP3    H215023   1.326   0.863   5.416
 5024TIP3   OH215024   1.958   0.735   4.779
 5024TIP3    H115025   1.966   0.832   4.764
 5024TIP3    H215026   2.051   0.706   4.767
 5025TIP3   OH215027   2.401   1.139   6.175
 5025TIP3    H115028   2.400   1.042   6.189
 5025TIP3    H215029   2.318   1.165   6.219
 5026TIP3   OH215030   1.557   0.934   6.311
 5026TIP3    H115031   1.528   1.027   6.324
 5026TIP3    H215032   1.495   0.887   6.368
 5027TIP3   OH215033   1.270   1.053   5.259
 5027TIP3    H115034   1.221   1.042   5.175
 5027TIP3    H215035   1.240   1.141   5.288
 5028TIP3   OH215036   1.463   0.950   4.899
 5028TIP3    H115037   1.525   0.883   4.862
 5028TIP3    H215038   1.501   0.965   4.988
 5029TIP3   OH215039   1.520   1.001   5.167
 5029TIP3    H115040   1.432   1.013   5.210
 5029TIP3    H215041   1.572   0.965   5.240
 5030TIP3   OH215042   2.296   0.289   6.460
 5030TIP3    H115043   2.212   0.315   6.419
 5030TIP3    H215044   2.292   0.192   6.444
 5031TIP3   OH215045   1.721   0.167   4.929
 5031TIP3    H115046   1.694   0.136   4.841
 5031TIP3    H215047   1.799   0.221   4.908
 5032TIP3   OH215048   2.095   1.488   6.272
 5032TIP3    H115049   2.092   1.516   6.178
 5032TIP3    H215050   2.174   1.537   6.303
 5033TIP3   OH215051   2.123   0.580   5.961
 5033TIP3    H115052   2.153   0.630   5.882
 5033TIP3    H215053   2.042   0.536   5.929
 5034TIP3   OH215054   7.808   5.970   2.286
 5034TIP3    H115055   7.904   5.958   2.272
 5034TIP3    H215056   7.792   6.051   2.234
 5035TIP3   OH215057   1.374   0.498   5.146
 5035TIP3    H115058   1.326   0.584   5.151
 5035TIP3    H215059   1.331   0.448   5.216
 5036TIP3   OH215060   2.408   0.849   6.214
 5036TIP3    H115061   2.311   0.842   6.206
 5036TIP3    H215062   2.436   0.819   6.124
 5037TIP3   OH215063   1.898   0.809   5.046
 5037TIP3    H115064   1.862   0.739   5.102
 5037TIP3    H215065   1.908   0.764   4.960
 5038TIP3   OH215066   1.898   0.435   5.887
 5038TIP3    H115067   1.811   0.397   5.905
 5038TIP3    H215068   1.937   0.361   5.834
 5039TIP3   OH215069   1.342   0.962   6.041
 5039TIP3    H115070   1.370   1.052   6.015
 5039TIP3    H215071   1.360   0.963   6.136
 5040TIP3   OH215072   0.920   0.926   5.466
 5040TIP3    H115073   0.861   0.917   5.541
 5040TIP3    H215074   0.953   1.017   5.476
 5041TIP3   OH215075   1.745   0.656   6.094
 5041TIP3    H115076   1.701   0.593   6.155
 5041TIP3    H215077   1.749   0.606   6.011
 5042TIP3   OH215078   1.661   0.531   4.951
 5042TIP3    H115079   1.717   0.492   5.022
 5042TIP3    H215080   1.573   0.509   4.985
 5043TIP3   OH215081   1.915   1.174   6.104
 5043TIP3    H115082   1.827   1.139   6.079
 5043TIP3    H215083   1.921   1.247   6.038
 5044TIP3   OH215084   1.989   1.010   4.762
 5044TIP3    H115085   2.021   1.082   4.705
 5044TIP3    H215086   1.909   1.054   4.799
 5045TIP3   OH215087   1.226   0.722   5.148
 5045TIP3    H115088   1.138   0.726   5.190
 5045TIP3    H215089   1.238   0.816   5.127
 5046TIP3   OH215090   0.986   0.804   5.234
 5046TIP3    H115091   0.952   0.875   5.176
 5046TIP3    H215092   0.963   0.840   5.323
 5047TIP3   OH215093   2.254   0.036   6.366
 5047TIP3    H115094   2.183   0.007   6.308
 5047TIP3    H215095   2.332   0.031   6.307
 5048TIP3   OH215096   1.967   0.201   5.756
 5048TIP3    H115097   1.900   0.138   5.789
 5048TIP3    H215098   2.049   0.160   5.792
 5049TIP3   OH215099   1.947   1.152   5.705
 5049TIP3    H115100   1.902   1.199   5.630
 5049TIP3    H215101   2.040   1.173   5.683
 5050TIP3   OH215102   1.172   0.709   4.858
 5050TIP3    H115103   1.178   0.668   4.946
 5050TIP3    H215104   1.251   0.671   4.815
 5051TIP3   OH215105   1.864   0.988   6.499
 5051TIP3    H115106   1.921   0.975   6.578
 5051TIP3    H215107   1.904   1.071   6.467
 5052TIP3   OH215108   1.615   0.758   4.767
 5052TIP3    H115109   1.666   0.702   4.828
 5052TIP3    H215110   1.671   0.757   4.687
 5053TIP3   OH215111   1.350   0.455   4.881
 5053TIP3    H115112   1.356   0.468   4.978
 5053TIP3    H215113   1.379   0.361   4.875
 5054TIP3   OH215114   1.913   0.760   6.284
 5054TIP3    H115115   2.000   0.780   6.242
 5054TIP3    H215116   1.867   0.717   6.207
 5055TIP3   OH215117   1.854   0.677   6.608
 5055TIP3    H115118   1.938   0.664   6.656
 5055TIP3    H215119   1.804   0.598   6.636
 5056TIP3   OH215120   1.967   0.274   4.817
 5056TIP3    H115121   1.950   0.226   4.734
 5056TIP3    H215122   1.927   0.360   4.793
 5057TIP3   OH215123   2.076   0.547   6.431
 5057TIP3    H115124   2.020   0.624   6.412
 5057TIP3    H215125   2.164   0.577   6.397
 5058TIP3   OH215126   0.929   0.995   5.042
 5058TIP3    H115127   1.026   0.990   5.028
 5058TIP3    H215128   0.906   1.053   4.966
 5059TIP3   OH215129   2.201   1.240   5.665
 5059TIP3    H115130   2.229   1.282   5.748
 5059TIP3    H215131   2.261   1.281   5.600
 5060TIP3   OH215132   2.225   1.264   5.950
 5060TIP3    H115133   2.188   1.174   5.940
 5060TIP3    H215134   2.306   1.243   5.999
 5061TIP3   OH215135   2.265   0.940   6.521
 5061TIP3    H115136   2.195   0.950   6.587
 5061TIP3    H215137   2.312   1.026   6.525
 5062TIP3   OH215138   2.190   0.322   5.305
 5062TIP3    H115139   2.152   0.266   5.379
 5062TIP3    H215140   2.266   0.364   5.350
 5063TIP3   OH215141   2.271   0.710   5.771
 5063TIP3    H115142   2.327   0.643   5.727
 5063TIP3    H215143   2.274   0.785   5.708
 5064TIP3   OH215144   2.102   1.010   5.971
 5064TIP3    H115145   2.028   1.058   6.011
 5064TIP3    H215146   2.059   0.965   5.895
 5065TIP3   OH215147   2.054  -0.091   4.923
 5065TIP3    H115148   1.989  -0.040   4.874
 5065TIP3    H215149   2.004  -0.167   4.951
 5066TIP3   OH215150   2.067   0.165   5.487
 5066TIP3    H115151   2.039   0.072   5.492
 5066TIP3    H215152   2.035   0.198   5.573
 5067TIP3   OH215153   2.322   0.608   6.341
 5067TIP3    H115154   2.390   0.537   6.332
 5067TIP3    H215155   2.357   0.676   6.280
 5068TIP3   OH215156   2.510   0.417   6.349
 5068TIP3    H115157   2.447   0.360   6.398
 5068TIP3    H215158   2.595   0.372   6.366
 5069TIP3   OH215159   2.007  -0.106   5.329
 5069TIP3    H115160   2.040  -0.151   5.410
 5069TIP3    H215161   2.084  -0.055   5.302
 5070TIP3   OH215162   2.181   0.085   5.869
 5070TIP3    H115163   2.269   0.096   5.826
 5070TIP3    H215164   2.205   0.119   5.957
 5071TIP3   OH215165   2.258   0.216   6.095
 5071TIP3    H115166   2.201   0.258   6.162
 5071TIP3    H215167   2.298   0.294   6.051
 5072TIP3   OH215168   1.786   1.107   5.321
 5072TIP3    H115169   1.833   1.099   5.235
 5072TIP3    H215170   1.835   1.180   5.363
 5073TIP3   OH215171   1.501   1.193   6.390
 5073TIP3    H115172   1.541   1.190   6.480
 5073TIP3    H215173   1.566   1.249   6.341
 5074TIP3   OH215174   1.686   1.342   6.254
 5074TIP3    H115175   1.754   1.306   6.197
 5074TIP3    H215176   1.739   1.401   6.312
 5075TIP3   OH215177   1.406   1.214   5.927
 5075TIP3    H115178   1.337   1.232   5.860
 5075TIP3    H215179   1.416   1.302   5.968
 5076TIP3   OH215180   1.670   1.149   5.985
 5076TIP3    H115181   1.576   1.170   5.969
 5076TIP3    H215182   1.713   1.220   5.934
 5077TIP3   OH215183   1.878   1.341   5.896
 5077TIP3    H115184   1.862   1.426   5.849
 5077TIP3    H215185   1.904   1.283   5.821
 5078TIP3   OH215186   1.132   0.999   5.873
 5078TIP3    H115187   1.124   0.916   5.823
 5078TIP3    H215188   1.206   0.978   5.934
 5079TIP3   OH215189   1.203   0.957   4.994
 5079TIP3    H115190   1.293   0.978   4.959
 5079TIP3    H215191   1.180   0.884   4.933
 5080TIP3   OH215192   1.928   1.077   5.088
 5080TIP3    H115193   1.921   0.980   5.075
 5080TIP3    H215194   1.879   1.109   5.009
 5081TIP3   OH215195   2.149   1.218   6.271
 5081TIP3    H115196   2.074   1.192   6.213
 5081TIP3    H215197   2.136   1.315   6.275
 5082TIP3   OH215198   3.424   0.596   5.035
 5082TIP3    H115199   3.391   0.685   5.014
 5082TIP3    H215200   3.349   0.542   5.004
 5083TIP3   OH215201   3.420   0.592   5.424
 5083TIP3    H115202   3.454   0.565   5.511
 5083TIP3    H215203   3.382   0.508   5.391
 5084TIP3   OH215204   2.714   0.494   5.786
 5084TIP3    H115205   2.745   0.424   5.847
 5084TIP3    H215206   2.799   0.536   5.766
 5085TIP3   OH215207   3.667   0.896   5.103
 5085TIP3    H115208   3.647   0.826   5.166
 5085TIP3    H215209   3.696   0.969   5.161
 5086TIP3   OH215210   2.691   0.895   5.508
 5086TIP3    H115211   2.683   0.797   5.509
 5086TIP3    H215212   2.788   0.905   5.502
 5087TIP3   OH215213   2.363   0.098   5.211
 5087TIP3    H115214   2.346   0.180   5.259
 5087TIP3    H215215   2.359   0.033   5.284
 5088TIP3   OH215216   2.449   0.374   5.442
 5088TIP3    H115217   2.496   0.302   5.492
 5088TIP3    H215218   2.524   0.431   5.418
 5089TIP3   OH215219   3.317   1.358   5.121
 5089TIP3    H115220   3.359   1.286   5.068
 5089TIP3    H215221   3.306   1.316   5.206
 5090TIP3   OH215222   3.218   0.819   5.470
 5090TIP3    H115223   3.258   0.741   5.428
 5090TIP3    H215224   3.301   0.866   5.494
 5091TIP3   OH215225   3.635   0.310   5.510
 5091TIP3    H115226   3.665   0.222   5.535
 5091TIP3    H215227   3.600   0.297   5.420
 5092TIP3   OH215228   2.973   0.012   5.500
 5092TIP3    H115229   2.962   0.091   5.443
 5092TIP3    H215230   2.936  -0.056   5.440
 5093TIP3   OH215231   3.661   0.115   5.085
 5093TIP3    H115232   3.735   0.089   5.144
 5093TIP3    H215233   3.693   0.091   4.998
 5094TIP3   OH215234   2.600   0.179   5.560
 5094TIP3    H115235   2.673   0.161   5.625
 5094TIP3    H215236   2.630   0.124   5.486
 5095TIP3   OH215237   3.046   0.384   5.375
 5095TIP3    H115238   3.141   0.359   5.386
 5095TIP3    H215239   3.008   0.301   5.340
 5096TIP3   OH215240   4.294   0.335   5.625
 5096TIP3    H115241   4.219   0.395   5.606
 5096TIP3    H215242   4.338   0.381   5.697
 5097TIP3   OH215243   3.312   0.816   4.905
 5097TIP3    H115244   3.268   0.797   4.821
 5097TIP3    H215245   3.265   0.897   4.933
 5098TIP3   OH215246   3.073   0.737   5.691
 5098TIP3    H115247   3.014   0.806   5.729
 5098TIP3    H215248   3.116   0.785   5.617
 5099TIP3   OH215249   2.818   0.112   5.705
 5099TIP3    H115250   2.893   0.168   5.731
 5099TIP3    H215251   2.863   0.050   5.644
 5100TIP3   OH215252   2.902   0.935   5.793
 5100TIP3    H115253   2.876   1.022   5.756
 5100TIP3    H215254   2.823   0.916   5.848
 5101TIP3   OH215255   2.302   0.618   5.024
 5101TIP3    H115256   2.253   0.649   4.946
 5101TIP3    H215257   2.326   0.703   5.067
 5102TIP3   OH215258   3.734   1.140   5.268
 5102TIP3    H115259   3.645   1.130   5.308
 5102TIP3    H215260   3.723   1.226   5.223
 5103TIP3   OH215261   3.433   1.183   4.940
 5103TIP3    H115262   3.483   1.100   4.923
 5103TIP3    H215263   3.496   1.247   4.901
 5104TIP3   OH215264   3.579   0.969   4.852
 5104TIP3    H115265   3.535   0.890   4.818
 5104TIP3    H215266   3.618   0.935   4.936
 5105TIP3   OH215267   3.958   1.050   5.611
 5105TIP3    H115268   3.945   0.972   5.552
 5105TIP3    H215269   3.940   1.124   5.550
 5106TIP3   OH215270   3.251   0.450   4.869
 5106TIP3    H115271   3.171   0.501   4.845
 5106TIP3    H215272   3.297   0.441   4.783
 5107TIP3   OH215273   3.202   0.231   4.598
 5107TIP3    H115274   3.271   0.288   4.635
 5107TIP3    H215275   3.259   0.170   4.548
 5108TIP3   OH215276   4.156   0.693   5.459
 5108TIP3    H115277   4.070   0.741   5.463
 5108TIP3    H215278   4.184   0.715   5.368
 5109TIP3   OH215279   3.603   0.529   4.839
 5109TIP3    H115280   3.547   0.551   4.918
 5109TIP3    H215281   3.685   0.501   4.884
 5110TIP3   OH215282   3.830   0.571   5.747
 5110TIP3    H115283   3.825   0.649   5.805
 5110TIP3    H215284   3.740   0.573   5.707
 5111TIP3   OH215285   2.837   0.530   5.264
 5111TIP3    H115286   2.795   0.474   5.195
 5111TIP3    H215287   2.912   0.473   5.293
 5112TIP3   OH215288   2.960   0.933   5.408
 5112TIP3    H115289   2.942   0.900   5.319
 5112TIP3    H215290   3.050   0.898   5.425
 5113TIP3   OH215291   2.959   0.495   5.616
 5113TIP3    H115292   2.996   0.465   5.530
 5113TIP3    H215293   3.009   0.578   5.632
 5114TIP3   OH215294   3.494   1.133   5.390
 5114TIP3    H115295   3.481   1.213   5.444
 5114TIP3    H215296   3.477   1.060   5.453
 5115TIP3   OH215297   3.107   1.053   5.936
 5115TIP3    H115298   3.046   1.114   5.982
 5115TIP3    H215299   3.043   0.998   5.885
 5116TIP3   OH215300   3.433   0.394   4.666
 5116TIP3    H115301   3.495   0.454   4.714
 5116TIP3    H215302   3.461   0.409   4.573
 5117TIP3   OH215303   2.867   0.611   6.042
 5117TIP3    H115304   2.867   0.698   6.087
 5117TIP3    H215305   2.772   0.588   6.049
 5118TIP3   OH215306   3.184   1.062   4.944
 5118TIP3    H115307   3.266   1.114   4.952
 5118TIP3    H215308   3.124   1.125   4.901
 5119TIP3   OH215309   2.900   1.218   6.024
 5119TIP3    H115310   2.865   1.222   5.933
 5119TIP3    H215311   2.819   1.197   6.076
 5120TIP3   OH215312   2.702   0.385   5.070
 5120TIP3    H115313   2.634   0.415   5.007
 5120TIP3    H215314   2.692   0.289   5.073
 5121TIP3   OH215315   3.755   0.991   4.264
 5121TIP3    H115316   3.763   1.088   4.250
 5121TIP3    H215317   3.848   0.962   4.253
 5122TIP3   OH215318   2.476   0.751   5.972
 5122TIP3    H115319   2.416   0.727   5.899
 5122TIP3    H215320   2.519   0.666   5.994
 5123TIP3   OH215321   2.334   0.939   5.609
 5123TIP3    H115322   2.429   0.935   5.592
 5123TIP3    H215323   2.328   1.022   5.659
 5124TIP3   OH215324   4.195   1.399   5.655
 5124TIP3    H115325   4.198   1.303   5.674
 5124TIP3    H215326   4.113   1.423   5.705
 5125TIP3   OH215327   3.302   1.181   5.794
 5125TIP3    H115328   3.300   1.273   5.827
 5125TIP3    H215329   3.231   1.140   5.848
 5126TIP3   OH215330   3.068   1.309   4.746
 5126TIP3    H115331   3.019   1.292   4.663
 5126TIP3    H215332   3.032   1.396   4.774
 5127TIP3   OH215333   2.503   1.157   5.132
 5127TIP3    H115334   2.550   1.149   5.218
 5127TIP3    H215335   2.448   1.077   5.133
 5128TIP3   OH215336   3.265   1.212   4.384
 5128TIP3    H115337   3.324   1.142   4.349
 5128TIP3    H215338   3.299   1.222   4.475
 5129TIP3   OH215339   3.317   1.259   4.653
 5129TIP3    H115340   3.229   1.270   4.694
 5129TIP3    H215341   3.367   1.220   4.727
 5130TIP3   OH215342   4.087   0.548   5.961
 5130TIP3    H115343   4.005   0.575   5.917
 5130TIP3    H215344   4.099   0.457   5.927
 5131TIP3   OH215345   2.682   0.934   5.957
 5131TIP3    H115346   2.733   0.917   6.039
 5131TIP3    H215347   2.608   0.870   5.966
 5132TIP3   OH215348   3.849   0.298   5.804
 5132TIP3    H115349   3.816   0.309   5.896
 5132TIP3    H215350   3.827   0.385   5.766
 5133TIP3   OH215351   3.522   0.430   4.413
 5133TIP3    H115352   3.480   0.406   4.328
 5133TIP3    H215353   3.601   0.478   4.383
 5134TIP3   OH215354   3.028   0.277   5.773
 5134TIP3    H115355   2.973   0.304   5.849
 5134TIP3    H215356   3.013   0.353   5.713
 5135TIP3   OH215357   2.897   0.173   5.285
 5135TIP3    H115358   2.810   0.131   5.293
 5135TIP3    H215359   2.924   0.139   5.196
 5136TIP3   OH215360   3.385   0.258   5.015
 5136TIP3    H115361   3.337   0.325   4.962
 5136TIP3    H215362   3.443   0.217   4.949
 5137TIP3   OH215363   3.573   0.546   6.069
 5137TIP3    H115364   3.536   0.488   6.140
 5137TIP3    H215365   3.666   0.553   6.097
 5138TIP3   OH215366   3.539   0.288   5.251
 5138TIP3    H115367   3.472   0.316   5.185
 5138TIP3    H215368   3.579   0.216   5.197
 5139TIP3   OH215369   2.827   0.313   5.959
 5139TIP3    H115370   2.861   0.355   6.040
 5139TIP3    H215371   2.805   0.223   5.987
 5140TIP3   OH215372   2.918  -0.193   4.670
 5140TIP3    H115373   2.922  -0.192   4.767
 5140TIP3    H215374   2.831  -0.231   4.654
 5141TIP3   OH215375   3.559   0.516   5.664
 5141TIP3    H115376   3.592   0.445   5.605
 5141TIP3    H215377   3.528   0.462   5.740
 5142TIP3   OH215378   3.198   0.009   5.326
 5142TIP3    H115379   3.129   0.003   5.395
 5142TIP3    H215380   3.276  -0.011   5.382
 5143TIP3   OH215381   2.640   0.026   5.326
 5143TIP3    H115382   2.574  -0.043   5.345
 5143TIP3    H215383   2.721  -0.029   5.314
 5144TIP3   OH215384   2.941   0.074   5.032
 5144TIP3    H115385   3.035   0.050   5.022
 5144TIP3    H215386   2.901   0.040   4.951
 5145TIP3   OH215387   2.735   0.076   4.800
 5145TIP3    H115388   2.696   0.013   4.736
 5145TIP3    H215389   2.805   0.115   4.746
 5146TIP3   OH215390   3.890   1.746   5.760
 5146TIP3    H115391   3.888   1.772   5.666
 5146TIP3    H215392   3.967   1.796   5.793
 5147TIP3   OH215393   2.844   0.860   6.179
 5147TIP3    H115394   2.926   0.886   6.226
 5147TIP3    H215395   2.782   0.855   6.254
 5148TIP3   OH215396   3.302   0.310   5.441
 5148TIP3    H115397   3.369   0.258   5.393
 5148TIP3    H215398   3.303   0.267   5.529
 5149TIP3   OH215399   3.293   0.227   5.703
 5149TIP3    H115400   3.202   0.242   5.736
 5149TIP3    H215401   3.348   0.271   5.770
 5150TIP3   OH215402   3.017   0.599   4.816
 5150TIP3    H115403   2.945   0.533   4.805
 5150TIP3    H215404   3.000   0.631   4.908
 5151TIP3   OH215405   3.920   0.832   5.446
 5151TIP3    H115406   3.942   0.883   5.366
 5151TIP3    H215407   3.836   0.787   5.421
 5152TIP3   OH215408   3.548  -0.058   4.630
 5152TIP3    H115409   3.452  -0.077   4.636
 5152TIP3    H215410   3.549   0.028   4.678
 5153TIP3   OH215411   3.422   0.917   5.815
 5153TIP3    H115412   3.450   0.893   5.904
 5153TIP3    H215413   3.383   1.005   5.826
 5154TIP3   OH215414   3.543   0.169   4.792
 5154TIP3    H115415   3.640   0.182   4.801
 5154TIP3    H215416   3.513   0.249   4.745
 5155TIP3   OH215417   2.708   0.610   5.492
 5155TIP3    H115418   2.751   0.590   5.406
 5155TIP3    H215419   2.766   0.562   5.553
 5156TIP3   OH215420   3.167   0.746   4.642
 5156TIP3    H115421   3.118   0.832   4.645
 5156TIP3    H215422   3.112   0.691   4.702
 5157TIP3   OH215423   2.599   0.543   6.106
 5157TIP3    H115424   2.616   0.531   6.202
 5157TIP3    H215425   2.527   0.479   6.091
 5158TIP3   OH215426   3.322   0.660   6.124
 5158TIP3    H115427   3.263   0.596   6.081
 5158TIP3    H215428   3.410   0.630   6.090
 5159TIP3   OH215429   3.580   1.179   5.711
 5159TIP3    H115430   3.484   1.174   5.726
 5159TIP3    H215431   3.608   1.229   5.791
 5160TIP3   OH215432   3.992   0.250   4.616
 5160TIP3    H115433   3.936   0.203   4.550
 5160TIP3    H215434   3.982   0.341   4.579
 5161TIP3   OH215435   4.208   1.106   5.699
 5161TIP3    H115436   4.110   1.101   5.690
 5161TIP3    H215437   4.235   1.076   5.609
 5162TIP3   OH215438   3.695   1.066   4.532
 5162TIP3    H115439   3.663   0.998   4.593
 5162TIP3    H215440   3.704   1.017   4.448
 5163TIP3   OH215441   3.687   0.695   5.364
 5163TIP3    H115442   3.594   0.670   5.378
 5163TIP3    H215443   3.720   0.614   5.320
 5164TIP3   OH215444   2.817   0.925   5.122
 5164TIP3    H115445   2.814   1.005   5.066
 5164TIP3    H215446   2.723   0.906   5.130
 5165TIP3   OH215447   2.382   0.208   4.901
 5165TIP3    H115448   2.436   0.289   4.880
 5165TIP3    H215449   2.298   0.232   4.858
 5166TIP3   OH215450   2.948   0.687   5.060
 5166TIP3    H115451   2.915   0.777   5.081
 5166TIP3    H215452   2.918   0.637   5.139
 5167TIP3   OH215453   3.085   1.266   5.588
 5167TIP3    H115454   3.128   1.339   5.538
 5167TIP3    H215455   3.162   1.228   5.635
 5168TIP3   OH215456   2.734   1.163   4.971
 5168TIP3    H115457   2.648   1.173   5.017
 5168TIP3    H215458   2.767   1.255   4.973
 5169TIP3   OH215459   3.471   0.900   5.547
 5169TIP3    H115460   3.459   0.899   5.645
 5169TIP3    H215461   3.548   0.844   5.536
 5170TIP3   OH215462   3.450   0.797   4.430
 5170TIP3    H115463   3.503   0.770   4.509
 5170TIP3    H215464   3.362   0.766   4.457
 5171TIP3   OH215465   3.721   1.431   5.598
 5171TIP3    H115466   3.641   1.375   5.593
 5171TIP3    H215467   3.703   1.495   5.525
 5172TIP3   OH215468   3.787   1.267   4.249
 5172TIP3    H115469   3.822   1.340   4.197
 5172TIP3    H215470   3.706   1.310   4.285
 5173TIP3   OH215471   3.611   0.727   4.644
 5173TIP3    H115472   3.599   0.663   4.717
 5173TIP3    H215473   3.708   0.722   4.634
 5174TIP3   OH215474   2.522   1.127   5.748
 5174TIP3    H115475   2.578   1.055   5.782
 5174TIP3    H215476   2.554   1.202   5.799
 5175TIP3   OH215477   2.811   0.774   4.432
 5175TIP3    H115478   2.826   0.681   4.405
 5175TIP3    H215479   2.791   0.764   4.527
 5176TIP3   OH215480   2.757   0.779   4.704
 5176TIP3    H115481   2.833   0.752   4.756
 5176TIP3    H215482   2.760   0.877   4.712
 5177TIP3   OH215483   2.492   0.463   4.902
 5177TIP3    H115484   2.427   0.514   4.956
 5177TIP3    H215485   2.510   0.530   4.833
 5178TIP3   OH215486   3.024   0.975   4.651
 5178TIP3    H115487   2.937   1.000   4.688
 5178TIP3    H215488   3.039   1.051   4.592
 5179TIP3   OH215489   3.219   0.042   5.057
 5179TIP3    H115490   3.268   0.126   5.053
 5179TIP3    H215491   3.212   0.028   5.154
 5180TIP3   OH215492   3.486   0.359   5.877
 5180TIP3    H115493   3.509   0.423   5.948
 5180TIP3    H215494   3.527   0.277   5.908
 5181TIP3   OH215495   2.770   1.051   4.721
 5181TIP3    H115496   2.739   1.121   4.659
 5181TIP3    H215497   2.753   1.094   4.807
 5182TIP3   OH215498   4.113   0.300   5.848
 5182TIP3    H115499   4.019   0.295   5.820
 5182TIP3    H215500   4.157   0.255   5.774
 5183TIP3   OH215501   3.772   0.455   5.244
 5183TIP3    H115502   3.696   0.395   5.257
 5183TIP3    H215503   3.844   0.407   5.290
 5184TIP3   OH215504   2.486   0.676   4.710
 5184TIP3    H115505   2.554   0.745   4.721
 5184TIP3    H215506   2.531   0.620   4.643
 5185TIP3   OH215507   3.741   1.411   5.190
 5185TIP3    H115508   3.698   1.458   5.115
 5185TIP3    H215509   3.836   1.428   5.168
 5186TIP3   OH215510   2.351   0.891   5.096
 5186TIP3    H115511   2.286   0.926   5.158
 5186TIP3    H215512   2.321   0.934   5.012
 5187TIP3   OH215513   2.516   1.441   6.173
 5187TIP3    H115514   2.603   1.443   6.218
 5187TIP3    H215515   2.500   1.345   6.169
 5188TIP3   OH215516   2.990   1.398   6.217
 5188TIP3    H115517   3.086   1.383   6.222
 5188TIP3    H215518   2.966   1.338   6.144
 5189TIP3   OH215519   2.975   0.976   4.340
 5189TIP3    H115520   2.919   0.905   4.379
 5189TIP3    H215521   3.051   0.923   4.311
 5190TIP3   OH215522   3.633   1.309   5.949
 5190TIP3    H115523   3.625   1.239   6.019
 5190TIP3    H215524   3.711   1.359   5.980
 5191TIP3   OH215525   3.412   1.016   4.256
 5191TIP3    H115526   3.451   0.949   4.316
 5191TIP3    H215527   3.470   1.011   4.178
 5192TIP3   OH215528   2.642   0.844   6.371
 5192TIP3    H115529   2.662   0.749   6.375
 5192TIP3    H215530   2.556   0.844   6.324
 5193TIP3   OH215531   2.623   0.490   4.569
 5193TIP3    H115532   2.683   0.462   4.641
 5193TIP3    H215533   2.688   0.496   4.495
 5194TIP3   OH215534   3.248   0.931   6.146
 5194TIP3    H115535   3.210   0.950   6.058
 5194TIP3    H215536   3.280   0.839   6.137
 5195TIP3   OH215537   3.135   0.696   4.373
 5195TIP3    H115538   3.137   0.707   4.470
 5195TIP3    H215539   3.139   0.598   4.366
 5196TIP3   OH215540   3.743   0.941   5.753
 5196TIP3    H115541   3.819   0.984   5.709
 5196TIP3    H215542   3.673   1.006   5.736
 5197TIP3   OH215543   2.761   0.587   6.353
 5197TIP3    H115544   2.830   0.524   6.328
 5197TIP3    H215545   2.794   0.616   6.441
 5198TIP3   OH215546   2.823   0.402   4.782
 5198TIP3    H115547   2.814   0.362   4.869
 5198TIP3    H215548   2.865   0.330   4.731
 5199TIP3   OH215549   3.099   0.463   6.015
 5199TIP3    H115550   3.021   0.523   6.015
 5199TIP3    H215551   3.151   0.499   5.940
 5200TIP3   OH215552   2.927   0.192   4.637
 5200TIP3    H115553   2.907   0.191   4.541
 5200TIP3    H215554   3.025   0.193   4.634
 5201TIP3   OH215555   3.618   0.867   6.150
 5201TIP3    H115556   3.692   0.830   6.101
 5201TIP3    H215557   3.608   0.802   6.221
 5202TIP3   OH215558   3.754   0.522   4.290
 5202TIP3    H115559   3.730   0.479   4.205
 5202TIP3    H215560   3.720   0.613   4.271
 5203TIP3   OH215561   3.208   0.254   6.143
 5203TIP3    H115562   3.199   0.181   6.081
 5203TIP3    H215563   3.169   0.329   6.090
 5204TIP3   OH215564   3.248   0.572   5.825
 5204TIP3    H115565   3.332   0.577   5.777
 5204TIP3    H215566   3.193   0.638   5.777
 5205TIP3   OH215567   3.829   0.570   6.199
 5205TIP3    H115568   3.843   0.479   6.166
 5205TIP3    H215569   3.908   0.616   6.169
 5206TIP3   OH215570   3.874   0.791   5.936
 5206TIP3    H115571   3.814   0.846   5.880
 5206TIP3    H215572   3.960   0.818   5.898
 5207TIP3   OH215573   3.076   0.377   6.363
 5207TIP3    H115574   3.048   0.293   6.400
 5207TIP3    H215575   3.131   0.350   6.288
 5208TIP3   OH215576   3.446   0.375   6.224
 5208TIP3    H115577   3.442   0.348   6.318
 5208TIP3    H215578   3.369   0.325   6.191
 5209TIP3   OH215579   3.789   0.329   6.071
 5209TIP3    H115580   3.703   0.294   6.101
 5209TIP3    H215581   3.847   0.271   6.125
 5210TIP3   OH215582   2.739   1.254   4.532
 5210TIP3    H115583   2.834   1.246   4.513
 5210TIP3    H215584   2.711   1.307   4.455
 5211TIP3   OH215585   2.216   0.636   4.744
 5211TIP3    H115586   2.311   0.657   4.732
 5211TIP3    H215587   2.210   0.547   4.705
 5212TIP3   OH215588   2.134   1.248   5.163
 5212TIP3    H115589   2.068   1.189   5.122
 5212TIP3    H215590   2.178   1.188   5.226
 5213TIP3   OH215591   2.270   1.093   5.349
 5213TIP3    H115592   2.256   1.025   5.416
 5213TIP3    H215593   2.322   1.158   5.399
 5214TIP3   OH215594   3.998   1.496   5.151
 5214TIP3    H115595   4.023   1.527   5.240
 5214TIP3    H215596   4.059   1.544   5.094
 5215TIP3   OH215597   4.028   1.517   5.432
 5215TIP3    H115598   3.979   1.432   5.425
 5215TIP3    H215599   4.096   1.489   5.496
 5216TIP3   OH215600   4.071   1.197   6.005
 5216TIP3    H115601   4.000   1.208   6.071
 5216TIP3    H215602   4.117   1.283   6.010
 5217TIP3   OH215603   3.889   0.706   4.623
 5217TIP3    H115604   3.955   0.772   4.594
 5217TIP3    H215605   3.933   0.670   4.703
 5218TIP3   OH215606   4.017   0.574   4.829
 5218TIP3    H115607   3.948   0.533   4.887
 5218TIP3    H215608   4.079   0.613   4.894
 5219TIP3   OH215609   4.073   0.971   5.261
 5219TIP3    H115610   4.123   0.902   5.213
 5219TIP3    H215611   4.065   1.041   5.193
 5220TIP3   OH215612   3.899   1.271   5.452
 5220TIP3    H115613   3.827   1.312   5.505
 5220TIP3    H215614   3.848   1.225   5.382
 5221TIP3   OH215615   3.952   0.483   4.472
 5221TIP3    H115616   3.881   0.488   4.404
 5221TIP3    H215617   3.924   0.558   4.529
 5222TIP3   OH215618   3.836   0.153   4.418
 5222TIP3    H115619   3.779   0.210   4.365
 5222TIP3    H215620   3.786   0.070   4.414
 5223TIP3   OH215621   3.831   0.438   4.977
 5223TIP3    H115622   3.832   0.341   4.973
 5223TIP3    H215623   3.813   0.453   5.073
 5224TIP3   OH215624   2.451   0.509   5.719
 5224TIP3    H115625   2.452   0.475   5.628
 5224TIP3    H215626   2.548   0.513   5.737
 5225TIP3   OH215627   4.116   0.862   5.830
 5225TIP3    H115628   4.186   0.795   5.816
 5225TIP3    H215629   4.143   0.932   5.768
 5226TIP3   OH215630   4.302   0.665   5.830
 5226TIP3    H115631   4.241   0.617   5.890
 5226TIP3    H215632   4.387   0.622   5.848
 5227TIP3   OH215633   3.819   0.163   4.830
 5227TIP3    H115634   3.879   0.124   4.896
 5227TIP3    H215635   3.880   0.183   4.756
 5228TIP3   OH215636   3.993   0.344   5.366
 5228TIP3    H115637   4.081   0.359   5.326
 5228TIP3    H215638   4.006   0.385   5.454
 5229TIP3   OH215639   4.056   0.478   5.598
 5229TIP3    H115640   3.977   0.513   5.644
 5229TIP3    H215641   4.089   0.559   5.553
 5230TIP3   OH215642   2.725   0.248   6.377
 5230TIP3    H115643   2.808   0.202   6.388
 5230TIP3    H215644   2.663   0.183   6.417
 5231TIP3   OH215645   2.428   0.180   5.793
 5231TIP3    H115646   2.478   0.132   5.726
 5231TIP3    H215647   2.489   0.251   5.815
 5232TIP3   OH215648   3.580   1.367   4.805
 5232TIP3    H115649   3.631   1.357   4.722
 5232TIP3    H215650   3.632   1.434   4.853
 5233TIP3   OH215651   2.679   1.175   6.187
 5233TIP3    H115652   2.587   1.146   6.173
 5233TIP3    H215653   2.694   1.153   6.280
 5234TIP3   OH215654   2.858   1.206   5.737
 5234TIP3    H115655   2.813   1.283   5.697
 5234TIP3    H215656   2.945   1.218   5.694
 5235TIP3   OH215657   3.300   1.448   5.876
 5235TIP3    H115658   3.343   1.447   5.964
 5235TIP3    H215659   3.366   1.499   5.824
 5236TIP3   OH215660   3.480   1.601   5.737
 5236TIP3    H115661   3.550   1.550   5.695
 5236TIP3    H215662   3.532   1.657   5.798
 5237TIP3   OH215663   2.532   1.458   5.764
 5237TIP3    H115664   2.442   1.490   5.740
 5237TIP3    H215665   2.548   1.508   5.845
 5238TIP3   OH215666   2.770   1.439   5.621
 5238TIP3    H115667   2.682   1.451   5.663
 5238TIP3    H215668   2.752   1.471   5.530
 5239TIP3   OH215669   3.195   1.465   5.419
 5239TIP3    H115670   3.126   1.483   5.353
 5239TIP3    H215671   3.207   1.553   5.460
 5240TIP3   OH215672   3.465   1.405   5.471
 5240TIP3    H115673   3.371   1.423   5.451
 5240TIP3    H215674   3.509   1.480   5.427
 5241TIP3   OH215675   3.673   1.597   5.383
 5241TIP3    H115676   3.658   1.681   5.335
 5241TIP3    H215677   3.698   1.536   5.311
 5242TIP3   OH215678   2.444   1.251   5.506
 5242TIP3    H115679   2.471   1.226   5.597
 5242TIP3    H215680   2.517   1.209   5.455
 5243TIP3   OH215681   2.641   1.125   5.367
 5243TIP3    H115682   2.657   1.041   5.416
 5243TIP3    H215683   2.732   1.161   5.361
 5244TIP3   OH215684   2.907   1.217   5.370
 5244TIP3    H115685   2.938   1.126   5.358
 5244TIP3    H215686   2.956   1.240   5.452
 5245TIP3   OH215687   2.233   1.029   4.897
 5245TIP3    H115688   2.145   1.000   4.866
 5245TIP3    H215689   2.230   1.122   4.867
 5246TIP3   OH215690   3.006   1.210   4.480
 5246TIP3    H115691   3.094   1.234   4.443
 5246TIP3    H215692   2.984   1.136   4.419
 5247TIP3   OH215693   3.727   1.333   4.573
 5247TIP3    H115694   3.720   1.235   4.564
 5247TIP3    H215695   3.679   1.363   4.494
 5248TIP3   OH215696   2.307   1.047   4.533
 5248TIP3    H115697   2.308   1.078   4.625
 5248TIP3    H215698   2.396   1.007   4.522
 5249TIP3   OH215699   3.950   1.477   5.758
 5249TIP3    H115700   3.871   1.446   5.709
 5249TIP3    H215701   3.929   1.572   5.766
 5250TIP3   OH215702   5.221   0.849   4.519
 5250TIP3    H115703   5.192   0.941   4.503
 5250TIP3    H215704   5.140   0.801   4.493
 5251TIP3   OH215705   5.223   0.840   4.907
 5251TIP3    H115706   5.255   0.828   4.998
 5251TIP3    H215707   5.177   0.756   4.892
 5252TIP3   OH215708   4.515   0.748   5.267
 5252TIP3    H115709   4.547   0.676   5.325
 5252TIP3    H215710   4.592   0.807   5.270
 5253TIP3   OH215711   5.466   1.148   4.593
 5253TIP3    H115712   5.442   1.089   4.666
 5253TIP3    H215713   5.493   1.228   4.641
 5254TIP3   OH215714   4.487   1.155   4.995
 5254TIP3    H115715   4.479   1.057   4.995
 5254TIP3    H215716   4.584   1.165   4.992
 5255TIP3   OH215717   4.188   0.350   4.784
 5255TIP3    H115718   4.143   0.432   4.809
 5255TIP3    H215719   4.118   0.308   4.730
 5256TIP3   OH215720   4.255   0.642   4.958
 5256TIP3    H115721   4.304   0.563   4.990
 5256TIP3    H215722   4.314   0.676   4.890
 5257TIP3   OH215723   5.113   1.614   4.607
 5257TIP3    H115724   5.156   1.542   4.556
 5257TIP3    H215725   5.103   1.573   4.693
 5258TIP3   OH215726   5.014   1.078   4.955
 5258TIP3    H115727   5.053   1.003   4.907
 5258TIP3    H215728   5.098   1.121   4.983
 5259TIP3   OH215729   5.444   0.575   4.987
 5259TIP3    H115730   5.465   0.487   5.022
 5259TIP3    H215731   5.400   0.554   4.902
 5260TIP3   OH215732   4.775   0.264   4.974
 5260TIP3    H115733   4.744   0.331   4.910
 5260TIP3    H215734   4.759   0.182   4.923
 5261TIP3   OH215735   5.501   0.311   4.580
 5261TIP3    H115736   5.554   0.341   4.658
 5261TIP3    H215737   5.516   0.384   4.518
 5262TIP3   OH215738   4.400   0.432   5.056
 5262TIP3    H115739   4.475   0.409   5.115
 5262TIP3    H215740   4.421   0.373   4.981
 5263TIP3   OH215741   4.840   0.636   4.851
 5263TIP3    H115742   4.933   0.609   4.867
 5263TIP3    H215743   4.800   0.552   4.822
 5264TIP3   OH215744   6.083   0.591   5.102
 5264TIP3    H115745   6.006   0.651   5.097
 5264TIP3    H215746   6.138   0.633   5.169
 5265TIP3   OH215747   5.111   1.072   4.390
 5265TIP3    H115748   5.064   1.055   4.307
 5265TIP3    H215749   5.065   1.153   4.421
 5266TIP3   OH215750   4.869   0.994   5.180
 5266TIP3    H115751   4.808   1.062   5.219
 5266TIP3    H215752   4.910   1.045   5.107
 5267TIP3   OH215753   4.624   0.351   5.185
 5267TIP3    H115754   4.690   0.416   5.215
 5267TIP3    H215755   4.673   0.307   5.113
 5268TIP3   OH215756   4.696   1.189   5.280
 5268TIP3    H115757   4.670   1.277   5.244
 5268TIP3    H215758   4.617   1.172   5.336
 5269TIP3   OH215759   4.090   0.880   4.515
 5269TIP3    H115760   4.048   0.908   4.432
 5269TIP3    H215761   4.122   0.965   4.551
 5270TIP3   OH215762   5.527   1.393   4.748
 5270TIP3    H115763   5.439   1.385   4.792
 5270TIP3    H215764   5.519   1.482   4.707
 5271TIP3   OH215765   5.231   1.439   4.427
 5271TIP3    H115766   5.282   1.357   4.409
 5271TIP3    H215767   5.293   1.505   4.388
 5272TIP3   OH215768   5.377   1.222   4.342
 5272TIP3    H115769   5.324   1.148   4.310
 5272TIP3    H215770   5.414   1.187   4.425
 5273TIP3   OH215771   5.742   1.308   5.097
 5273TIP3    H115772   5.738   1.229   5.039
 5273TIP3    H215773   5.732   1.382   5.034
 5274TIP3   OH215774   5.046   0.700   4.359
 5274TIP3    H115775   4.965   0.752   4.342
 5274TIP3    H215776   5.087   0.699   4.270
 5275TIP3   OH215777   5.006   0.485   4.069
 5275TIP3    H115778   5.071   0.545   4.110
 5275TIP3    H215779   5.066   0.413   4.043
 5276TIP3   OH215780   5.940   0.925   4.928
 5276TIP3    H115781   5.864   0.987   4.941
 5276TIP3    H215782   5.983   0.965   4.850
 5277TIP3   OH215783   5.402   0.782   4.328
 5277TIP3    H115784   5.340   0.806   4.402
 5277TIP3    H215785   5.484   0.770   4.378
 5278TIP3   OH215786   5.624   0.827   5.233
 5278TIP3    H115787   5.630   0.903   5.294
 5278TIP3    H215788   5.533   0.838   5.199
 5279TIP3   OH215789   4.628   0.781   4.745
 5279TIP3    H115790   4.586   0.723   4.678
 5279TIP3    H215791   4.704   0.726   4.775
 5280TIP3   OH215792   4.759   1.195   4.893
 5280TIP3    H115793   4.737   1.156   4.807
 5280TIP3    H215794   4.848   1.158   4.911
 5281TIP3   OH215795   4.772   0.745   5.104
 5281TIP3    H115796   4.798   0.727   5.011
 5281TIP3    H215797   4.810   0.834   5.120
 5282TIP3   OH215798   5.291   1.388   4.878
 5282TIP3    H115799   5.278   1.470   4.930
 5282TIP3    H215800   5.272   1.318   4.943
 5283TIP3   OH215801   4.902   1.313   5.419
 5283TIP3    H115802   4.845   1.368   5.476
 5283TIP3    H215803   4.835   1.258   5.373
 5284TIP3   OH215804   5.235   0.642   4.153
 5284TIP3    H115805   5.292   0.707   4.200
 5284TIP3    H215806   5.261   0.659   4.059
 5285TIP3   OH215807   4.659   0.863   5.528
 5285TIP3    H115808   4.664   0.951   5.571
 5285TIP3    H215809   4.564   0.843   5.543
 5286TIP3   OH215810   4.983   1.316   4.431
 5286TIP3    H115811   5.062   1.371   4.440
 5286TIP3    H215812   4.920   1.376   4.389
 5287TIP3   OH215813   4.690   1.485   5.515
 5287TIP3    H115814   4.657   1.475   5.424
 5287TIP3    H215815   4.614   1.456   5.569
 5288TIP3   OH215816   4.495   0.626   4.548
 5288TIP3    H115817   4.425   0.668   4.495
 5288TIP3    H215818   4.460   0.537   4.561
 5289TIP3   OH215819   5.551   1.247   3.752
 5289TIP3    H115820   5.559   1.344   3.736
 5289TIP3    H215821   5.644   1.219   3.741
 5290TIP3   OH215822   4.276   1.007   5.456
 5290TIP3    H115823   4.207   0.986   5.390
 5290TIP3    H215824   4.314   0.919   5.477
 5291TIP3   OH215825   4.128   1.202   5.086
 5291TIP3    H115826   4.225   1.197   5.081
 5291TIP3    H215827   4.115   1.279   5.143
 5292TIP3   OH215828   5.994   1.649   5.147
 5292TIP3    H115829   6.002   1.556   5.178
 5292TIP3    H215830   5.912   1.674   5.195
 5293TIP3   OH215831   5.095   1.445   5.279
 5293TIP3    H115832   5.090   1.534   5.319
 5293TIP3    H215833   5.026   1.398   5.332
 5294TIP3   OH215834   4.864   1.566   4.232
 5294TIP3    H115835   4.815   1.548   4.150
 5294TIP3    H215836   4.829   1.652   4.260
 5295TIP3   OH215837   4.299   1.414   4.619
 5295TIP3    H115838   4.345   1.406   4.705
 5295TIP3    H215839   4.247   1.332   4.618
 5296TIP3   OH215840   5.061   1.469   3.871
 5296TIP3    H115841   5.120   1.399   3.835
 5296TIP3    H215842   5.096   1.479   3.962
 5297TIP3   OH215843   5.114   1.516   4.140
 5297TIP3    H115844   5.025   1.526   4.180
 5297TIP3    H215845   5.163   1.479   4.215
 5298TIP3   OH215846   5.886   0.802   5.457
 5298TIP3    H115847   5.809   0.838   5.411
 5298TIP3    H215848   5.893   0.712   5.417
 5299TIP3   OH215849   4.477   1.193   5.445
 5299TIP3    H115850   4.528   1.174   5.527
 5299TIP3    H215851   4.404   1.129   5.452
 5300TIP3   OH215852   5.642   0.554   5.284
 5300TIP3    H115853   5.614   0.563   5.377
 5300TIP3    H215854   5.625   0.645   5.252
 5301TIP3   OH215855   5.316   0.681   3.899
 5301TIP3    H115856   5.277   0.662   3.811
 5301TIP3    H215857   5.393   0.736   3.873
 5302TIP3   OH215858   4.825   0.525   5.259
 5302TIP3    H115859   4.770   0.552   5.336
 5302TIP3    H215860   4.810   0.603   5.201
 5303TIP3   OH215861   4.690   0.417   4.767
 5303TIP3    H115862   4.599   0.384   4.779
 5303TIP3    H215863   4.710   0.383   4.677
 5304TIP3   OH215864   5.188   0.509   4.495
 5304TIP3    H115865   5.134   0.580   4.453
 5304TIP3    H215866   5.242   0.479   4.420
 5305TIP3   OH215867   5.366   0.795   5.552
 5305TIP3    H115868   5.330   0.739   5.625
 5305TIP3    H215869   5.456   0.813   5.586
 5306TIP3   OH215870   5.349   0.537   4.722
 5306TIP3    H115871   5.284   0.575   4.660
 5306TIP3    H215872   5.345   0.445   4.694
 5307TIP3   OH215873   4.629   0.569   5.448
 5307TIP3    H115874   4.644   0.630   5.522
 5307TIP3    H215875   4.576   0.499   5.487
 5308TIP3   OH215876   4.714   0.074   4.168
 5308TIP3    H115877   4.674   0.103   4.252
 5308TIP3    H215878   4.637   0.038   4.123
 5309TIP3   OH215879   4.201   0.073   4.544
 5309TIP3    H115880   4.236   0.126   4.470
 5309TIP3    H215881   4.143   0.139   4.585
 5310TIP3   OH215882   5.348   0.772   5.148
 5310TIP3    H115883   5.388   0.703   5.091
 5310TIP3    H215884   5.321   0.718   5.225
 5311TIP3   OH215885   5.016   0.270   4.817
 5311TIP3    H115886   4.932   0.256   4.864
 5311TIP3    H215887   5.080   0.257   4.888
 5312TIP3   OH215888   4.447   0.289   4.822
 5312TIP3    H115889   4.354   0.315   4.801
 5312TIP3    H215890   4.438   0.193   4.822
 5313TIP3   OH215891   4.739   0.311   4.521
 5313TIP3    H115892   4.823   0.296   4.476
 5313TIP3    H215893   4.674   0.305   4.447
 5314TIP3   OH215894   4.576   0.315   4.301
 5314TIP3    H115895   4.503   0.276   4.250
 5314TIP3    H215896   4.625   0.360   4.230
 5315TIP3   OH215897   5.684   2.006   5.248
 5315TIP3    H115898   5.688   2.028   5.153
 5315TIP3    H215899   5.767   2.048   5.280
 5316TIP3   OH215900   4.635   1.110   5.660
 5316TIP3    H115901   4.720   1.133   5.705
 5316TIP3    H215902   4.576   1.112   5.739
 5317TIP3   OH215903   5.102   0.567   4.929
 5317TIP3    H115904   5.150   0.492   4.891
 5317TIP3    H215905   5.096   0.538   5.023
 5318TIP3   OH215906   5.091   0.482   5.184
 5318TIP3    H115907   5.000   0.497   5.217
 5318TIP3    H215908   5.146   0.526   5.252
 5319TIP3   OH215909   4.820   0.851   4.308
 5319TIP3    H115910   4.746   0.786   4.296
 5319TIP3    H215911   4.798   0.886   4.398
 5320TIP3   OH215912   5.720   1.088   4.930
 5320TIP3    H115913   5.742   1.142   4.852
 5320TIP3    H215914   5.632   1.052   4.908
 5321TIP3   OH215915   5.339   0.179   4.186
 5321TIP3    H115916   5.256   0.170   4.136
 5321TIP3    H215917   5.338   0.275   4.205
 5322TIP3   OH215918   5.215   1.173   5.305
 5322TIP3    H115919   5.245   1.149   5.394
 5322TIP3    H215920   5.176   1.261   5.319
 5323TIP3   OH215921   5.360   0.435   4.288
 5323TIP3    H115922   5.455   0.454   4.288
 5323TIP3    H215923   5.324   0.506   4.231
 5324TIP3   OH215924   4.513   0.879   4.981
 5324TIP3    H115925   4.551   0.846   4.897
 5324TIP3    H215926   4.548   0.816   5.045
 5325TIP3   OH215927   4.963   1.002   4.132
 5325TIP3    H115928   4.915   1.088   4.133
 5325TIP3    H215929   4.908   0.948   4.192
 5326TIP3   OH215930   4.397   0.792   5.591
 5326TIP3    H115931   4.411   0.785   5.688
 5326TIP3    H215932   4.320   0.733   5.579
 5327TIP3   OH215933   5.120   0.916   5.610
 5327TIP3    H115934   5.059   0.850   5.574
 5327TIP3    H215935   5.206   0.885   5.576
 5328TIP3   OH215936   5.374   1.433   5.200
 5328TIP3    H115937   5.278   1.432   5.217
 5328TIP3    H215938   5.405   1.483   5.278
 5329TIP3   OH215939   5.782   0.510   4.107
 5329TIP3    H115940   5.728   0.460   4.041
 5329TIP3    H215941   5.773   0.599   4.066
 5330TIP3   OH215942   5.996   1.363   5.175
 5330TIP3    H115943   5.899   1.351   5.164
 5330TIP3    H215944   6.029   1.331   5.089
 5331TIP3   OH215945   5.492   1.323   4.018
 5331TIP3    H115946   5.458   1.254   4.078
 5331TIP3    H215947   5.501   1.276   3.933
 5332TIP3   OH215948   5.480   0.956   4.847
 5332TIP3    H115949   5.386   0.933   4.863
 5332TIP3    H215950   5.513   0.873   4.811
 5333TIP3   OH215951   4.612   1.180   4.604
 5333TIP3    H115952   4.607   1.261   4.550
 5333TIP3    H215953   4.519   1.161   4.620
 5334TIP3   OH215954   4.179   0.482   4.316
 5334TIP3    H115955   4.221   0.568   4.336
 5334TIP3    H215956   4.101   0.486   4.375
 5335TIP3   OH215957   4.747   0.944   4.550
 5335TIP3    H115958   4.712   1.033   4.568
 5335TIP3    H215959   4.711   0.893   4.624
 5336TIP3   OH215960   4.883   1.523   5.075
 5336TIP3    H115961   4.927   1.594   5.024
 5336TIP3    H215962   4.957   1.486   5.124
 5337TIP3   OH215963   4.530   1.419   4.458
 5337TIP3    H115964   4.445   1.428   4.505
 5337TIP3    H215965   4.562   1.512   4.460
 5338TIP3   OH215966   5.266   1.154   5.038
 5338TIP3    H115967   5.252   1.156   5.136
 5338TIP3    H215968   5.352   1.112   5.033
 5339TIP3   OH215969   5.244   1.051   3.916
 5339TIP3    H115970   5.295   1.024   3.996
 5339TIP3    H215971   5.155   1.025   3.942
 5340TIP3   OH215972   5.514   1.688   5.084
 5340TIP3    H115973   5.435   1.631   5.078
 5340TIP3    H215974   5.498   1.752   5.011
 5341TIP3   OH215975   5.583   1.523   3.736
 5341TIP3    H115976   5.620   1.596   3.685
 5341TIP3    H215977   5.503   1.568   3.771
 5342TIP3   OH215978   5.405   0.979   4.129
 5342TIP3    H115979   5.396   0.918   4.204
 5342TIP3    H215980   5.502   0.980   4.117
 5343TIP3   OH215981   4.323   1.384   5.234
 5343TIP3    H115982   4.373   1.306   5.262
 5343TIP3    H215983   4.346   1.446   5.304
 5344TIP3   OH215984   4.610   1.030   3.917
 5344TIP3    H115985   4.621   0.936   3.891
 5344TIP3    H215986   4.589   1.021   4.012
 5345TIP3   OH215987   4.554   1.036   4.188
 5345TIP3    H115988   4.624   1.010   4.249
 5345TIP3    H215989   4.556   1.135   4.196
 5346TIP3   OH215990   4.287   0.728   4.393
 5346TIP3    H115991   4.221   0.773   4.450
 5346TIP3    H215992   4.299   0.796   4.325
 5347TIP3   OH215993   4.822   1.232   4.138
 5347TIP3    H115994   4.735   1.255   4.174
 5347TIP3    H215995   4.835   1.307   4.077
 5348TIP3   OH215996   5.041   0.279   4.547
 5348TIP3    H115997   5.071   0.371   4.538
 5348TIP3    H215998   5.013   0.277   4.642
 5349TIP3   OH215999   5.286   0.611   5.361
 5349TIP3    H116000   5.302   0.681   5.428
 5349TIP3    H216001   5.332   0.536   5.400
 5350TIP3   OH216002   4.568   1.308   4.207
 5350TIP3    H116003   4.537   1.378   4.146
 5350TIP3    H216004   4.550   1.350   4.294
 5351TIP3   OH216005   5.906   0.557   5.335
 5351TIP3    H116006   5.814   0.553   5.301
 5351TIP3    H216007   5.955   0.512   5.264
 5352TIP3   OH216008   5.582   0.686   4.742
 5352TIP3    H116009   5.495   0.643   4.734
 5352TIP3    H216010   5.608   0.654   4.830
 5353TIP3   OH216011   4.282   0.933   4.198
 5353TIP3    H116012   4.350   1.003   4.206
 5353TIP3    H216013   4.327   0.877   4.130
 5354TIP3   OH216014   4.225   0.213   4.314
 5354TIP3    H116015   4.229   0.311   4.316
 5354TIP3    H216016   4.135   0.198   4.282
 5355TIP3   OH216017   5.538   1.665   4.675
 5355TIP3    H116018   5.495   1.712   4.601
 5355TIP3    H216019   5.632   1.685   4.656
 5356TIP3   OH216020   4.149   1.150   4.580
 5356TIP3    H116021   4.087   1.180   4.648
 5356TIP3    H216022   4.113   1.194   4.500
 5357TIP3   OH216023   4.313   1.698   5.651
 5357TIP3    H116024   4.398   1.691   5.699
 5357TIP3    H216025   4.285   1.604   5.651
 5358TIP3   OH216026   4.816   1.678   5.659
 5358TIP3    H116027   4.885   1.626   5.704
 5358TIP3    H216028   4.772   1.604   5.608
 5359TIP3   OH216029   4.772   1.233   3.827
 5359TIP3    H116030   4.717   1.161   3.865
 5359TIP3    H216031   4.848   1.182   3.793
 5360TIP3   OH216032   5.430   1.565   5.436
 5360TIP3    H116033   5.421   1.495   5.506
 5360TIP3    H216034   5.510   1.612   5.466
 5361TIP3   OH216035   5.208   1.274   3.742
 5361TIP3    H116036   5.251   1.209   3.800
 5361TIP3    H216037   5.262   1.270   3.661
 5362TIP3   OH216038   4.435   1.094   5.854
 5362TIP3    H116039   4.453   0.998   5.861
 5362TIP3    H216040   4.348   1.096   5.810
 5363TIP3   OH216041   4.418   0.750   4.052
 5363TIP3    H116042   4.474   0.719   4.125
 5363TIP3    H216043   4.485   0.755   3.980
 5364TIP3   OH216044   5.070   1.195   5.621
 5364TIP3    H116045   5.010   1.204   5.545
 5364TIP3    H216046   5.091   1.099   5.621
 5365TIP3   OH216047   4.935   0.953   3.861
 5365TIP3    H116048   4.933   0.963   3.958
 5365TIP3    H216049   4.933   0.855   3.854
 5366TIP3   OH216050   5.534   1.193   5.234
 5366TIP3    H116051   5.612   1.236   5.194
 5366TIP3    H216052   5.467   1.263   5.224
 5367TIP3   OH216053   4.555   0.837   5.844
 5367TIP3    H116054   4.631   0.782   5.821
 5367TIP3    H216055   4.587   0.877   5.928
 5368TIP3   OH216056   4.625   0.657   4.274
 5368TIP3    H116057   4.598   0.616   4.357
 5368TIP3    H216058   4.662   0.581   4.224
 5369TIP3   OH216059   4.900   0.724   5.503
 5369TIP3    H116060   4.820   0.780   5.502
 5369TIP3    H216061   4.950   0.758   5.425
 5370TIP3   OH216062   4.726   0.453   4.114
 5370TIP3    H116063   4.699   0.454   4.020
 5370TIP3    H216064   4.823   0.453   4.105
 5371TIP3   OH216065   5.413   1.122   5.635
 5371TIP3    H116066   5.495   1.090   5.595
 5371TIP3    H216067   5.402   1.061   5.710
 5372TIP3   OH216068   5.551   0.776   3.778
 5372TIP3    H116069   5.528   0.736   3.692
 5372TIP3    H216070   5.518   0.868   3.761
 5373TIP3   OH216071   5.002   0.508   5.623
 5373TIP3    H116072   5.012   0.448   5.549
 5373TIP3    H216073   4.964   0.587   5.578
 5374TIP3   OH216074   5.046   0.825   5.303
 5374TIP3    H116075   5.131   0.846   5.263
 5374TIP3    H216076   4.987   0.891   5.261
 5375TIP3   OH216077   5.624   0.827   5.683
 5375TIP3    H116078   5.650   0.737   5.656
 5375TIP3    H216079   5.702   0.879   5.661
 5376TIP3   OH216080   5.675   1.043   5.413
 5376TIP3    H116081   5.611   1.098   5.361
 5376TIP3    H216082   5.760   1.075   5.372
 5377TIP3   OH216083   4.890   0.626   5.855
 5377TIP3    H116084   4.832   0.555   5.885
 5377TIP3    H216085   4.926   0.592   5.771
 5378TIP3   OH216086   5.241   0.627   5.715
 5378TIP3    H116087   5.247   0.598   5.808
 5378TIP3    H216088   5.162   0.578   5.687
 5379TIP3   OH216089   5.589   0.577   5.551
 5379TIP3    H116090   5.501   0.554   5.585
 5379TIP3    H216091   5.644   0.522   5.610
 5380TIP3   OH216092   4.535   1.511   4.020
 5380TIP3    H116093   4.630   1.503   4.000
 5380TIP3    H216094   4.506   1.562   3.942
 5381TIP3   OH216095   4.013   0.894   4.233
 5381TIP3    H116096   4.108   0.914   4.219
 5381TIP3    H216097   4.006   0.805   4.193
 5382TIP3   OH216098   3.932   1.505   4.650
 5382TIP3    H116099   3.865   1.445   4.611
 5382TIP3    H216100   3.975   1.445   4.714
 5383TIP3   OH216101   4.066   1.351   4.837
 5383TIP3    H116102   4.051   1.281   4.903
 5383TIP3    H216103   4.116   1.415   4.890
 5384TIP3   OH216104   5.794   1.753   4.639
 5384TIP3    H116105   5.819   1.782   4.728
 5384TIP3    H216106   5.857   1.800   4.583
 5385TIP3   OH216107   5.823   1.773   4.919
 5385TIP3    H116108   5.778   1.686   4.915
 5385TIP3    H216109   5.893   1.751   4.983
 5386TIP3   OH216110   5.682   0.966   4.104
 5386TIP3    H116111   5.745   1.034   4.072
 5386TIP3    H216112   5.730   0.931   4.182
 5387TIP3   OH216113   5.811   0.832   4.307
 5387TIP3    H116114   5.744   0.795   4.368
 5387TIP3    H216115   5.873   0.877   4.366
 5388TIP3   OH216116   5.867   1.224   4.741
 5388TIP3    H116117   5.918   1.167   4.682
 5388TIP3    H216118   5.859   1.306   4.688
 5389TIP3   OH216119   5.693   1.528   4.935
 5389TIP3    H116120   5.625   1.568   4.992
 5389TIP3    H216121   5.639   1.483   4.866
 5390TIP3   OH216122   5.746   0.738   3.961
 5390TIP3    H116123   5.678   0.743   3.890
 5390TIP3    H216124   5.718   0.817   4.014
 5391TIP3   OH216125   5.628   0.409   3.910
 5391TIP3    H116126   5.577   0.474   3.859
 5391TIP3    H216127   5.584   0.327   3.884
 5392TIP3   OH216128   5.642   0.693   4.472
 5392TIP3    H116129   5.637   0.600   4.444
 5392TIP3    H216130   5.622   0.689   4.568
 5393TIP3   OH216131   4.249   0.761   5.209
 5393TIP3    H116132   4.247   0.728   5.116
 5393TIP3    H216133   4.347   0.765   5.224
 5394TIP3   OH216134   5.909   1.121   5.303
 5394TIP3    H116135   5.986   1.060   5.309
 5394TIP3    H216136   5.952   1.205   5.282
 5395TIP3   OH216137   6.098   0.924   5.326
 5395TIP3    H116138   6.041   0.874   5.387
 5395TIP3    H216139   6.185   0.881   5.337
 5396TIP3   OH216140   5.643   0.433   4.338
 5396TIP3    H116141   5.669   0.340   4.350
 5396TIP3    H216142   5.695   0.456   4.258
 5397TIP3   OH216143   5.847   0.726   5.086
 5397TIP3    H116144   5.769   0.765   5.130
 5397TIP3    H216145   5.877   0.802   5.031
 5398TIP3   OH216146   4.519   0.491   5.851
 5398TIP3    H116147   4.604   0.473   5.893
 5398TIP3    H216148   4.461   0.430   5.903
 5399TIP3   OH216149   4.245   0.418   5.287
 5399TIP3    H116150   4.290   0.414   5.200
 5399TIP3    H216151   4.266   0.507   5.316
 5400TIP3   OH216152   5.376   1.623   4.292
 5400TIP3    H116153   5.428   1.615   4.209
 5400TIP3    H216154   5.427   1.690   4.341
 5401TIP3   OH216155   4.477   1.436   5.690
 5401TIP3    H116156   4.386   1.404   5.672
 5401TIP3    H216157   4.490   1.402   5.781
 5402TIP3   OH216158   4.656   1.461   5.226
 5402TIP3    H116159   4.607   1.536   5.185
 5402TIP3    H216160   4.742   1.475   5.182
 5403TIP3   OH216161   5.089   1.722   5.371
 5403TIP3    H116162   5.138   1.707   5.455
 5403TIP3    H216163   5.158   1.763   5.316
 5404TIP3   OH216164   5.277   1.855   5.224
 5404TIP3    H116165   5.347   1.803   5.182
 5404TIP3    H216166   5.331   1.912   5.284
 5405TIP3   OH216167   4.333   1.730   5.253
 5405TIP3    H116168   4.247   1.765   5.222
 5405TIP3    H216169   4.311   1.715   5.346
 5406TIP3   OH216170   4.569   1.698   5.110
 5406TIP3    H116171   4.482   1.715   5.154
 5406TIP3    H216172   4.550   1.728   5.019
 5407TIP3   OH216173   4.992   1.723   4.904
 5407TIP3    H116174   4.921   1.740   4.840
 5407TIP3    H216175   5.004   1.811   4.945
 5408TIP3   OH216176   5.261   1.660   4.955
 5408TIP3    H116177   5.168   1.680   4.935
 5408TIP3    H216178   5.307   1.734   4.913
 5409TIP3   OH216179   5.465   1.852   4.869
 5409TIP3    H116180   5.453   1.937   4.821
 5409TIP3    H216181   5.494   1.792   4.796
 5410TIP3   OH216182   4.244   1.510   4.994
 5410TIP3    H116183   4.269   1.480   5.084
 5410TIP3    H216184   4.315   1.466   4.942
 5411TIP3   OH216185   4.437   1.381   4.852
 5411TIP3    H116186   4.451   1.298   4.902
 5411TIP3    H216187   4.529   1.416   4.848
 5412TIP3   OH216188   4.705   1.474   4.857
 5412TIP3    H116189   4.734   1.382   4.847
 5412TIP3    H216190   4.753   1.497   4.939
 5413TIP3   OH216191   4.031   1.285   4.381
 5413TIP3    H116192   3.944   1.252   4.350
 5413TIP3    H216193   4.021   1.379   4.358
 5414TIP3   OH216194   4.802   1.467   3.967
 5414TIP3    H116195   4.890   1.491   3.930
 5414TIP3    H216196   4.780   1.393   3.906
 5415TIP3   OH216197   5.523   1.590   4.060
 5415TIP3    H116198   5.515   1.493   4.050
 5415TIP3    H216199   5.475   1.621   3.980
 5416TIP3   OH216200   4.105   1.306   4.020
 5416TIP3    H116201   4.106   1.328   4.114
 5416TIP3    H216202   4.193   1.264   4.008
 5417TIP3   OH216203   5.746   1.736   5.240
 5417TIP3    H116204   5.665   1.706   5.195
 5417TIP3    H216205   5.725   1.830   5.255
 5418TIP3   OH216206   7.013   1.102   4.008
 5418TIP3    H116207   6.991   1.196   3.997
 5418TIP3    H216208   6.930   1.061   3.980
 5419TIP3   OH216209   7.012   1.098   4.393
 5419TIP3    H116210   7.048   1.089   4.484
 5419TIP3    H216211   6.968   1.011   4.383
 5420TIP3   OH216212   6.309   1.003   4.760
 5420TIP3    H116213   6.343   0.933   4.819
 5420TIP3    H216214   6.382   1.067   4.766
 5421TIP3   OH216215   7.255   1.406   4.079
 5421TIP3    H116216   7.242   1.346   4.153
 5421TIP3    H216217   7.288   1.486   4.124
 5422TIP3   OH216218   6.282   1.406   4.476
 5422TIP3    H116219   6.275   1.309   4.483
 5422TIP3    H216220   6.379   1.418   4.476
 5423TIP3   OH216221   5.966   0.591   4.294
 5423TIP3    H116222   5.936   0.683   4.298
 5423TIP3    H216223   5.902   0.556   4.228
 5424TIP3   OH216224   6.057   0.886   4.434
 5424TIP3    H116225   6.137   0.832   4.451
 5424TIP3    H216226   6.094   0.955   4.377
 5425TIP3   OH216227   6.907   1.868   4.091
 5425TIP3    H116228   6.952   1.796   4.043
 5425TIP3    H216229   6.902   1.831   4.180
 5426TIP3   OH216230   6.812   1.331   4.442
 5426TIP3    H116231   6.854   1.255   4.399
 5426TIP3    H216232   6.893   1.379   4.469
 5427TIP3   OH216233   7.231   0.825   4.482
 5427TIP3    H116234   7.263   0.741   4.518
 5427TIP3    H216235   7.199   0.800   4.394
 5428TIP3   OH216236   6.558   0.518   4.467
 5428TIP3    H116237   6.538   0.586   4.399
 5428TIP3    H216238   6.551   0.437   4.413
 5429TIP3   OH216239   7.281   0.595   3.997
 5429TIP3    H116240   7.317   0.554   4.078
 5429TIP3    H216241   7.316   0.686   4.009
 5430TIP3   OH216242   6.168   0.667   4.565
 5430TIP3    H116243   6.252   0.651   4.618
 5430TIP3    H216244   6.198   0.618   4.484
 5431TIP3   OH216245   6.639   0.892   4.339
 5431TIP3    H116246   6.732   0.866   4.355
 5431TIP3    H216247   6.600   0.807   4.309
 5432TIP3   OH216248   6.913   1.334   3.871
 5432TIP3    H116249   6.862   1.316   3.790
 5432TIP3    H216250   6.862   1.410   3.907
 5433TIP3   OH216251   6.664   1.249   4.665
 5433TIP3    H116252   6.606   1.318   4.704
 5433TIP3    H216253   6.708   1.299   4.593
 5434TIP3   OH216254   6.406   0.621   4.670
 5434TIP3    H116255   6.476   0.679   4.703
 5434TIP3    H216256   6.455   0.571   4.601
 5435TIP3   OH216257   6.493   1.446   4.764
 5435TIP3    H116258   6.469   1.535   4.731
 5435TIP3    H216259   6.416   1.430   4.822
 5436TIP3   OH216260   5.884   1.136   4.002
 5436TIP3    H116261   5.846   1.164   3.917
 5436TIP3    H216262   5.916   1.222   4.037
 5437TIP3   OH216263   7.322   1.646   4.235
 5437TIP3    H116264   7.234   1.643   4.278
 5437TIP3    H216265   7.320   1.735   4.195
 5438TIP3   OH216266   7.027   1.691   3.911
 5438TIP3    H116267   7.082   1.612   3.893
 5438TIP3    H216268   7.088   1.760   3.875
 5439TIP3   OH216269   7.174   1.466   3.822
 5439TIP3    H116270   7.096   1.408   3.819
 5439TIP3    H216271   7.213   1.442   3.909
 5440TIP3   OH216272   7.549   1.559   4.596
 5440TIP3    H116273   7.545   1.488   4.528
 5440TIP3    H216274   7.548   1.639   4.541
 5441TIP3   OH216275   6.836   0.956   3.845
 5441TIP3    H116276   6.755   1.009   3.831
 5441TIP3    H216277   6.876   0.958   3.756
 5442TIP3   OH216278   6.804   0.738   3.554
 5442TIP3    H116279   6.871   0.798   3.591
 5442TIP3    H216280   6.858   0.658   3.542
 5443TIP3   OH216281   7.192   1.036   3.816
 5443TIP3    H116282   7.136   1.065   3.892
 5443TIP3    H216283   7.268   0.996   3.865
 5444TIP3   OH216284   7.408   1.071   4.728
 5444TIP3    H116285   7.418   1.153   4.779
 5444TIP3    H216286   7.326   1.089   4.678
 5445TIP3   OH216287   6.425   1.037   4.235
 5445TIP3    H116288   6.384   0.980   4.167
 5445TIP3    H216289   6.502   0.984   4.263
 5446TIP3   OH216290   6.553   1.445   4.381
 5446TIP3    H116291   6.537   1.414   4.291
 5446TIP3    H216292   6.644   1.411   4.399
 5447TIP3   OH216293   6.557   1.006   4.584
 5447TIP3    H116294   6.596   0.983   4.497
 5447TIP3    H216295   6.603   1.091   4.606
 5448TIP3   OH216296   7.083   1.646   4.363
 5448TIP3    H116297   7.074   1.728   4.415
 5448TIP3    H216298   7.068   1.576   4.429
 5449TIP3   OH216299   6.698   1.565   4.911
 5449TIP3    H116300   6.638   1.625   4.958
 5449TIP3    H216301   6.633   1.512   4.860
 5450TIP3   OH216302   7.030   0.898   3.637
 5450TIP3    H116303   7.080   0.968   3.683
 5450TIP3    H216304   7.058   0.916   3.543
 5451TIP3   OH216305   6.453   1.121   5.010
 5451TIP3    H116306   6.458   1.206   5.058
 5451TIP3    H216307   6.359   1.100   5.028
 5452TIP3   OH216308   6.778   1.573   3.918
 5452TIP3    H116309   6.859   1.626   3.927
 5452TIP3    H216310   6.717   1.634   3.876
 5453TIP3   OH216311   6.489   1.728   5.002
 5453TIP3    H116312   6.451   1.732   4.913
 5453TIP3    H216313   6.412   1.706   5.058
 5454TIP3   OH216314   6.288   0.883   4.039
 5454TIP3    H116315   6.222   0.927   3.983
 5454TIP3    H216316   6.259   0.791   4.037
 5455TIP3   OH216317   7.336   1.500   3.232
 5455TIP3    H116318   7.319   1.596   3.222
 5455TIP3    H216319   7.432   1.497   3.219
 5456TIP3   OH216320   6.077   1.258   4.934
 5456TIP3    H116321   6.002   1.233   4.877
 5456TIP3    H216322   6.112   1.173   4.967
 5457TIP3   OH216323   5.927   1.455   4.578
 5457TIP3    H116324   6.024   1.460   4.572
 5457TIP3    H216325   5.909   1.534   4.633
 5458TIP3   OH216326   7.743   1.890   4.612
 5458TIP3    H116327   7.782   1.811   4.652
 5458TIP3    H216328   7.673   1.913   4.676
 5459TIP3   OH216329   6.894   1.693   4.768
 5459TIP3    H116330   6.891   1.785   4.801
 5459TIP3    H216331   6.823   1.652   4.823
 5460TIP3   OH216332   6.658   1.821   3.721
 5460TIP3    H116333   6.613   1.806   3.636
 5460TIP3    H216334   6.626   1.909   3.747
 5461TIP3   OH216335   6.095   1.671   4.106
 5461TIP3    H116336   6.144   1.664   4.191
 5461TIP3    H216337   6.037   1.593   4.112
 5462TIP3   OH216338   6.857   1.726   3.359
 5462TIP3    H116339   6.915   1.655   3.323
 5462TIP3    H216340   6.893   1.736   3.450
 5463TIP3   OH216341   6.909   1.772   3.629
 5463TIP3    H116342   6.820   1.781   3.670
 5463TIP3    H216343   6.961   1.740   3.704
 5464TIP3   OH216344   6.278   1.446   4.931
 5464TIP3    H116345   6.319   1.435   5.019
 5464TIP3    H216346   6.202   1.384   4.938
 5465TIP3   OH216347   7.466   0.805   4.792
 5465TIP3    H116348   7.436   0.831   4.880
 5465TIP3    H216349   7.464   0.892   4.747
 5466TIP3   OH216350   7.116   0.949   3.386
 5466TIP3    H116351   7.085   0.921   3.297
 5466TIP3    H216352   7.155   1.036   3.364
 5467TIP3   OH216353   6.614   0.785   4.745
 5467TIP3    H116354   6.562   0.813   4.823
 5467TIP3    H216355   6.599   0.862   4.685
 5468TIP3   OH216356   6.488   0.674   4.255
 5468TIP3    H116357   6.395   0.646   4.266
 5468TIP3    H216358   6.507   0.638   4.165
 5469TIP3   OH216359   6.993   0.765   3.962
 5469TIP3    H116360   6.921   0.827   3.937
 5469TIP3    H216361   7.063   0.797   3.903
 5470TIP3   OH216362   7.158   1.055   5.041
 5470TIP3    H116363   7.123   0.999   5.114
 5470TIP3    H216364   7.252   1.057   5.061
 5471TIP3   OH216365   7.146   0.791   4.217
 5471TIP3    H116366   7.082   0.838   4.161
 5471TIP3    H216367   7.151   0.706   4.171
 5472TIP3   OH216368   6.422   0.829   4.939
 5472TIP3    H116369   6.439   0.894   5.009
 5472TIP3    H216370   6.379   0.757   4.987
 5473TIP3   OH216371   6.511   0.333   3.655
 5473TIP3    H116372   6.468   0.351   3.740
 5473TIP3    H216373   6.436   0.295   3.606
 5474TIP3   OH216374   5.997   0.337   4.034
 5474TIP3    H116375   6.029   0.386   3.955
 5474TIP3    H216376   5.932   0.402   4.067
 5475TIP3   OH216377   7.127   1.029   4.632
 5475TIP3    H116378   7.170   0.959   4.577
 5475TIP3    H216379   7.109   0.978   4.713
 5476TIP3   OH216380   6.799   0.523   4.291
 5476TIP3    H116381   6.720   0.510   4.345
 5476TIP3    H216382   6.868   0.504   4.357
 5477TIP3   OH216383   6.237   0.556   4.321
 5477TIP3    H116384   6.143   0.563   4.295
 5477TIP3    H216385   6.251   0.460   4.316
 5478TIP3   OH216386   6.529   0.565   4.009
 5478TIP3    H116387   6.618   0.553   3.973
 5478TIP3    H216388   6.472   0.560   3.930
 5479TIP3   OH216389   6.369   0.575   3.786
 5479TIP3    H116390   6.301   0.531   3.730
 5479TIP3    H216391   6.421   0.620   3.716
 5480TIP3   OH216392   7.479   2.263   4.736
 5480TIP3    H116393   7.474   2.281   4.640
 5480TIP3    H216394   7.556   2.317   4.763
 5481TIP3   OH216395   6.425   1.361   5.165
 5481TIP3    H116396   6.505   1.397   5.210
 5481TIP3    H216397   6.362   1.361   5.239
 5482TIP3   OH216398   6.897   0.823   4.416
 5482TIP3    H116399   6.961   0.763   4.376
 5482TIP3    H216400   6.891   0.786   4.507
 5483TIP3   OH216401   6.884   0.738   4.680
 5483TIP3    H116402   6.794   0.757   4.712
 5483TIP3    H216403   6.941   0.782   4.745
 5484TIP3   OH216404   6.613   1.108   3.795
 5484TIP3    H116405   6.539   1.044   3.782
 5484TIP3    H216406   6.592   1.143   3.885
 5485TIP3   OH216407   7.508   1.357   4.415
 5485TIP3    H116408   7.534   1.365   4.323
 5485TIP3    H216409   7.425   1.305   4.407
 5486TIP3   OH216410   7.119   0.476   3.679
 5486TIP3    H116411   7.037   0.423   3.669
 5486TIP3    H216412   7.114   0.526   3.594
 5487TIP3   OH216413   7.008   1.427   4.791
 5487TIP3    H116414   7.040   1.411   4.880
 5487TIP3    H216415   6.974   1.518   4.796
 5488TIP3   OH216416   7.219   0.738   3.751
 5488TIP3    H116417   7.295   0.797   3.735
 5488TIP3    H216418   7.148   0.785   3.703
 5489TIP3   OH216419   6.292   1.107   4.468
 5489TIP3    H116420   6.339   1.094   4.383
 5489TIP3    H216421   6.357   1.073   4.531
 5490TIP3   OH216422   6.761   1.259   3.620
 5490TIP3    H116423   6.712   1.344   3.619
 5490TIP3    H216424   6.704   1.205   3.679
 5491TIP3   OH216425   6.192   1.049   5.080
 5491TIP3    H116426   6.228   1.057   5.171
 5491TIP3    H216427   6.117   0.989   5.097
 5492TIP3   OH216428   6.913   1.173   5.098
 5492TIP3    H116429   6.854   1.109   5.056
 5492TIP3    H216430   7.000   1.144   5.064
 5493TIP3   OH216431   7.170   1.684   4.689
 5493TIP3    H116432   7.074   1.687   4.702
 5493TIP3    H216433   7.201   1.738   4.764
 5494TIP3   OH216434   7.269   1.580   3.496
 5494TIP3    H116435   7.248   1.518   3.567
 5494TIP3    H216436   7.285   1.524   3.418
 5495TIP3   OH216437   7.276   1.210   4.336
 5495TIP3    H116438   7.183   1.184   4.349
 5495TIP3    H216439   7.312   1.130   4.294
 5496TIP3   OH216440   6.410   1.436   4.091
 5496TIP3    H116441   6.408   1.518   4.037
 5496TIP3    H216442   6.316   1.423   4.107
 5497TIP3   OH216443   5.977   0.739   3.803
 5497TIP3    H116444   6.019   0.825   3.821
 5497TIP3    H216445   5.898   0.745   3.861
 5498TIP3   OH216446   6.542   1.199   4.036
 5498TIP3    H116447   6.508   1.289   4.053
 5498TIP3    H216448   6.507   1.151   4.113
 5499TIP3   OH216449   6.678   1.780   4.560
 5499TIP3    H116450   6.722   1.853   4.511
 5499TIP3    H216451   6.754   1.744   4.609
 5500TIP3   OH216452   6.327   1.676   3.945
 5500TIP3    H116453   6.242   1.686   3.992
 5500TIP3    H216454   6.361   1.768   3.948
 5501TIP3   OH216455   7.061   1.411   4.523
 5501TIP3    H116456   7.050   1.411   4.621
 5501TIP3    H216457   7.148   1.369   4.514
 5502TIP3   OH216458   7.032   1.303   3.406
 5502TIP3    H116459   7.083   1.274   3.486
 5502TIP3    H216460   6.941   1.285   3.435
 5503TIP3   OH216461   7.311   1.947   4.573
 5503TIP3    H116462   7.232   1.891   4.563
 5503TIP3    H216463   7.298   2.010   4.498
 5504TIP3   OH216464   7.328   1.778   3.233
 5504TIP3    H116465   7.379   1.860   3.222
 5504TIP3    H216466   7.242   1.819   3.258
 5505TIP3   OH216467   7.191   1.224   3.614
 5505TIP3    H116468   7.184   1.166   3.693
 5505TIP3    H216469   7.277   1.264   3.628
 5506TIP3   OH216470   6.117   1.637   4.720
 5506TIP3    H116471   6.173   1.570   4.763
 5506TIP3    H216472   6.131   1.713   4.779
 5507TIP3   OH216473   6.406   1.287   3.405
 5507TIP3    H116474   6.418   1.194   3.378
 5507TIP3    H216475   6.385   1.277   3.500
 5508TIP3   OH216476   6.350   1.292   3.677
 5508TIP3    H116477   6.423   1.270   3.736
 5508TIP3    H216478   6.351   1.391   3.682
 5509TIP3   OH216479   6.083   0.985   3.880
 5509TIP3    H116480   6.017   1.032   3.936
 5509TIP3    H216481   6.097   1.052   3.810
 5510TIP3   OH216482   6.618   1.487   3.625
 5510TIP3    H116483   6.530   1.512   3.660
 5510TIP3    H216484   6.634   1.562   3.565
 5511TIP3   OH216485   6.822   0.542   4.020
 5511TIP3    H116486   6.863   0.630   4.017
 5511TIP3    H216487   6.803   0.534   4.117
 5512TIP3   OH216488   7.077   0.869   4.851
 5512TIP3    H116489   7.095   0.936   4.920
 5512TIP3    H216490   7.143   0.802   4.871
 5513TIP3   OH216491   6.362   1.563   3.694
 5513TIP3    H116492   6.333   1.633   3.632
 5513TIP3    H216493   6.347   1.607   3.781
 5514TIP3   OH216494   7.370   0.967   4.221
 5514TIP3    H116495   7.294   0.908   4.237
 5514TIP3    H216496   7.434   0.935   4.286
 5515TIP3   OH216497   6.078   1.190   3.685
 5515TIP3    H116498   6.144   1.261   3.694
 5515TIP3    H216499   6.124   1.135   3.617
 5516TIP3   OH216500   6.016   0.468   3.802
 5516TIP3    H116501   6.027   0.565   3.804
 5516TIP3    H216502   5.935   0.459   3.751
 5517TIP3   OH216503   7.330   1.916   4.165
 5517TIP3    H116504   7.288   1.964   4.089
 5517TIP3    H216505   7.424   1.944   4.150
 5518TIP3   OH216506   5.942   1.399   4.068
 5518TIP3    H116507   5.881   1.435   4.134
 5518TIP3    H216508   5.911   1.446   3.986
 5519TIP3   OH216509   6.107   1.954   5.143
 5519TIP3    H116510   6.192   1.955   5.193
 5519TIP3    H216511   6.084   1.860   5.149
 5520TIP3   OH216512   6.589   1.914   5.185
 5520TIP3    H116513   6.682   1.890   5.192
 5520TIP3    H216514   6.558   1.851   5.116
 5521TIP3   OH216515   6.569   1.490   3.314
 5521TIP3    H116516   6.515   1.417   3.351
 5521TIP3    H216517   6.644   1.441   3.276
 5522TIP3   OH216518   7.226   1.822   4.922
 5522TIP3    H116519   7.218   1.752   4.991
 5522TIP3    H216520   7.302   1.874   4.954
 5523TIP3   OH216521   7.002   1.530   3.233
 5523TIP3    H116522   7.052   1.466   3.287
 5523TIP3    H216523   7.049   1.527   3.147
 5524TIP3   OH216524   6.214   1.005   3.540
 5524TIP3    H116525   6.273   0.978   3.612
 5524TIP3    H216526   6.279   1.011   3.466
 5525TIP3   OH216527   6.847   1.447   5.117
 5525TIP3    H116528   6.803   1.466   5.031
 5525TIP3    H216529   6.874   1.354   5.107
 5526TIP3   OH216530   6.728   1.210   3.349
 5526TIP3    H116531   6.728   1.220   3.446
 5526TIP3    H216532   6.728   1.112   3.341
 5527TIP3   OH216533   7.335   1.453   4.728
 5527TIP3    H116534   7.413   1.492   4.684
 5527TIP3    H216535   7.269   1.523   4.711
 5528TIP3   OH216536   6.364   1.072   5.312
 5528TIP3    H116537   6.449   1.029   5.327
 5528TIP3    H216538   6.361   1.133   5.387
 5529TIP3   OH216539   6.420   0.913   3.759
 5529TIP3    H116540   6.396   0.869   3.842
 5529TIP3    H216541   6.458   0.839   3.707
 5530TIP3   OH216542   6.695   0.980   4.990
 5530TIP3    H116543   6.615   1.038   4.987
 5530TIP3    H216544   6.746   1.014   4.912
 5531TIP3   OH216545   6.522   0.710   3.601
 5531TIP3    H116546   6.494   0.711   3.507
 5531TIP3    H216547   6.620   0.712   3.590
 5532TIP3   OH216548   7.209   1.380   5.124
 5532TIP3    H116549   7.281   1.342   5.071
 5532TIP3    H216550   7.200   1.314   5.195
 5533TIP3   OH216551   6.799   0.764   5.108
 5533TIP3    H116552   6.821   0.709   5.032
 5533TIP3    H216553   6.758   0.842   5.062
 5534TIP3   OH216554   6.842   1.083   4.793
 5534TIP3    H116555   6.927   1.094   4.748
 5534TIP3    H216556   6.786   1.150   4.748
 5535TIP3   OH216557   7.428   1.077   5.184
 5535TIP3    H116558   7.426   0.993   5.133
 5535TIP3    H216559   7.502   1.125   5.144
 5536TIP3   OH216560   7.477   1.312   4.911
 5536TIP3    H116561   7.414   1.365   4.857
 5536TIP3    H216562   7.558   1.326   4.859
 5537TIP3   OH216563   6.693   0.879   5.346
 5537TIP3    H116564   6.623   0.816   5.365
 5537TIP3    H216565   6.724   0.851   5.258
 5538TIP3   OH216566   7.036   0.886   5.204
 5538TIP3    H116567   7.042   0.854   5.296
 5538TIP3    H216568   6.960   0.834   5.173
 5539TIP3   OH216569   7.381   0.850   5.051
 5539TIP3    H116570   7.296   0.809   5.076
 5539TIP3    H216571   7.442   0.790   5.099
 5540TIP3   OH216572   6.331   1.764   3.507
 5540TIP3    H116573   6.427   1.758   3.489
 5540TIP3    H216574   6.303   1.817   3.429
 5541TIP3   OH216575   5.810   1.148   3.724
 5541TIP3    H116576   5.904   1.170   3.707
 5541TIP3    H216577   5.803   1.060   3.681
 5542TIP3   OH216578   5.728   1.761   4.137
 5542TIP3    H116579   5.661   1.701   4.098
 5542TIP3    H216580   5.771   1.701   4.201
 5543TIP3   OH216581   5.864   1.607   4.322
 5543TIP3    H116582   5.848   1.540   4.390
 5543TIP3    H216583   5.915   1.672   4.373
 5544TIP3   OH216584   7.568   2.042   4.121
 5544TIP3    H116585   7.645   2.061   4.175
 5544TIP3    H216586   7.604   2.039   4.031
 5545TIP3   OH216587   7.613   2.036   4.425
 5545TIP3    H116588   7.573   1.954   4.391
 5545TIP3    H216589   7.664   1.998   4.500
 5546TIP3   OH216590   7.659   1.688   4.992
 5546TIP3    H116591   7.584   1.711   5.051
 5546TIP3    H216592   7.705   1.774   4.984
 5547TIP3   OH216593   7.494   1.780   4.426
 5547TIP3    H116594   7.422   1.820   4.477
 5547TIP3    H216595   7.446   1.732   4.355
 5548TIP3   OH216596   7.396   0.897   3.956
 5548TIP3    H116597   7.492   0.882   3.954
 5548TIP3    H216598   7.386   0.941   4.043
 5549TIP3   OH216599   6.052   0.992   4.687
 5549TIP3    H116600   6.065   1.012   4.593
 5549TIP3    H216601   6.145   1.009   4.719
 5550TIP3   OH216602   6.312   0.740   5.331
 5550TIP3    H116603   6.395   0.728   5.378
 5550TIP3    H216604   6.253   0.681   5.383
 5551TIP3   OH216605   7.169   1.878   3.782
 5551TIP3    H116606   7.220   1.873   3.698
 5551TIP3    H216607   7.219   1.946   3.832
 5552TIP3   OH216608   6.271   1.676   5.173
 5552TIP3    H116609   6.177   1.656   5.154
 5552TIP3    H216610   6.274   1.656   5.268
 5553TIP3   OH216611   6.452   1.716   4.709
 5553TIP3    H116612   6.404   1.792   4.672
 5553TIP3    H216613   6.539   1.732   4.666
 5554TIP3   OH216614   6.893   1.959   4.849
 5554TIP3    H116615   6.935   1.960   4.937
 5554TIP3    H216616   6.959   2.011   4.798
 5555TIP3   OH216617   7.072   2.114   4.710
 5555TIP3    H116618   7.143   2.064   4.665
 5555TIP3    H216619   7.125   2.170   4.771
 5556TIP3   OH216620   6.125   1.972   4.735
 5556TIP3    H116621   6.035   2.007   4.715
 5556TIP3    H216622   6.139   2.011   4.822
 5557TIP3   OH216623   6.363   1.951   4.595
 5557TIP3    H116624   6.275   1.964   4.638
 5557TIP3    H216625   6.345   1.984   4.505
 5558TIP3   OH216626   6.788   1.979   4.392
 5558TIP3    H116627   6.719   1.998   4.326
 5558TIP3    H216628   6.800   2.067   4.434
 5559TIP3   OH216629   7.058   1.915   4.444
 5559TIP3    H116630   6.965   1.937   4.424
 5559TIP3    H216631   7.106   1.988   4.400
 5560TIP3   OH216632   7.260   2.105   4.355
 5560TIP3    H116633   7.247   2.190   4.308
 5560TIP3    H216634   7.292   2.047   4.282
 5561TIP3   OH216635   6.038   1.765   4.479
 5561TIP3    H116636   6.065   1.740   4.569
 5561TIP3    H216637   6.111   1.722   4.428
 5562TIP3   OH216638   6.233   1.637   4.338
 5562TIP3    H116639   6.249   1.554   4.388
 5562TIP3    H216640   6.324   1.675   4.335
 5563TIP3   OH216641   6.498   1.730   4.345
 5563TIP3    H116642   6.532   1.639   4.335
 5563TIP3    H216643   6.546   1.756   4.426
 5564TIP3   OH216644   5.827   1.542   3.871
 5564TIP3    H116645   5.741   1.510   3.838
 5564TIP3    H216646   5.818   1.636   3.846
 5565TIP3   OH216647   6.599   1.723   3.455
 5565TIP3    H116648   6.686   1.749   3.418
 5565TIP3    H216649   6.577   1.650   3.393
 5566TIP3   OH216650   7.302   1.844   3.545
 5566TIP3    H116651   7.291   1.747   3.531
 5566TIP3    H216652   7.256   1.880   3.466
 5567TIP3   OH216653   5.901   1.560   3.507
 5567TIP3    H116654   5.906   1.586   3.600
 5567TIP3    H216655   5.989   1.518   3.492
 5568TIP3   OH216656   7.525   1.990   4.748
 5568TIP3    H116657   7.452   1.962   4.689
 5568TIP3    H216658   7.511   2.087   4.747
 5569TIP3   OH216659   7.498   2.014   3.625
 5569TIP3    H116660   7.435   1.943   3.601
 5569TIP3    H216661   7.530   1.989   3.714
 5570TIP3   OH216662   1.261   2.148   5.192
 5570TIP3    H116663   1.230   2.239   5.169
 5570TIP3    H216664   1.188   2.096   5.152
 5571TIP3   OH216665   1.260   2.154   5.574
 5571TIP3    H116666   1.295   2.124   5.660
 5571TIP3    H216667   1.223   2.072   5.537
 5572TIP3   OH216668   0.561   2.052   5.938
 5572TIP3    H116669   0.597   1.982   5.996
 5572TIP3    H216670   0.642   2.103   5.920
 5573TIP3   OH216671   1.506   2.456   5.253
 5573TIP3    H116672   1.491   2.385   5.317
 5573TIP3    H216673   1.538   2.528   5.310
 5574TIP3   OH216674   0.533   2.452   5.657
 5574TIP3    H116675   0.527   2.354   5.659
 5574TIP3    H216676   0.630   2.463   5.649
 5575TIP3   OH216677   0.246   1.680   5.434
 5575TIP3    H116678   0.238   1.769   5.472
 5575TIP3    H216679   0.155   1.646   5.435
 5576TIP3   OH216680   0.299   1.922   5.592
 5576TIP3    H116681   0.354   1.862   5.646
 5576TIP3    H216682   0.365   1.983   5.556
 5577TIP3   OH216683   1.157   2.915   5.271
 5577TIP3    H116684   1.198   2.844   5.217
 5577TIP3    H216685   1.150   2.872   5.357
 5578TIP3   OH216686   1.059   2.377   5.621
 5578TIP3    H116687   1.100   2.300   5.578
 5578TIP3    H216688   1.142   2.425   5.646
 5579TIP3   OH216689   2.076   1.693   5.619
 5579TIP3    H116690   2.105   1.778   5.657
 5579TIP3    H216691   2.096   1.707   5.524
 5580TIP3   OH216692   1.469   1.874   5.650
 5580TIP3    H116693   1.515   1.790   5.669
 5580TIP3    H216694   1.440   1.859   5.558
 5581TIP3   OH216695   0.808   1.537   5.616
 5581TIP3    H116696   0.793   1.609   5.551
 5581TIP3    H216697   0.762   1.463   5.571
 5582TIP3   OH216698   1.507   1.632   5.237
 5582TIP3    H116699   1.582   1.616   5.299
 5582TIP3    H216700   1.558   1.667   5.160
 5583TIP3   OH216701   0.431   1.716   5.728
 5583TIP3    H116702   0.513   1.702   5.780
 5583TIP3    H216703   0.461   1.676   5.643
 5584TIP3   OH216704   0.885   1.936   5.522
 5584TIP3    H116705   0.980   1.913   5.531
 5584TIP3    H216706   0.848   1.853   5.486
 5585TIP3   OH216707   2.149   1.903   5.790
 5585TIP3    H116708   2.066   1.950   5.768
 5585TIP3    H216709   2.169   1.943   5.876
 5586TIP3   OH216710   0.803   1.524   6.046
 5586TIP3    H116711   0.750   1.569   5.976
 5586TIP3    H216712   0.741   1.527   6.120
 5587TIP3   OH216713   1.144   2.367   5.063
 5587TIP3    H116714   1.115   2.357   4.971
 5587TIP3    H216715   1.102   2.452   5.088
 5588TIP3   OH216716   0.913   2.297   5.842
 5588TIP3    H116717   0.854   2.366   5.879
 5588TIP3    H216718   0.957   2.344   5.768
 5589TIP3   OH216719   1.714   1.629   5.415
 5589TIP3    H116720   1.703   1.589   5.501
 5589TIP3    H216721   1.766   1.709   5.436
 5590TIP3   OH216722   0.676   1.642   5.833
 5590TIP3    H116723   0.741   1.714   5.851
 5590TIP3    H216724   0.722   1.596   5.759
 5591TIP3   OH216725   0.740   2.493   5.945
 5591TIP3    H116726   0.718   2.580   5.906
 5591TIP3    H216727   0.661   2.478   6.000
 5592TIP3   OH216728   0.145   2.179   5.179
 5592TIP3    H116729   0.101   2.202   5.095
 5592TIP3    H216730   0.169   2.266   5.215
 5593TIP3   OH216731   1.574   2.698   5.419
 5593TIP3    H116732   1.484   2.689   5.458
 5593TIP3    H216733   1.566   2.784   5.373
 5594TIP3   OH216734   1.867   1.592   5.782
 5594TIP3    H116735   1.780   1.620   5.749
 5594TIP3    H216736   1.928   1.627   5.714
 5595TIP3   OH216737   1.168   1.245   5.758
 5595TIP3    H116738   1.155   1.153   5.789
 5595TIP3    H216739   1.093   1.288   5.806
 5596TIP3   OH216740   1.271   2.741   5.089
 5596TIP3    H116741   1.320   2.657   5.071
 5596TIP3    H216742   1.336   2.805   5.051
 5597TIP3   OH216743   1.414   2.525   5.002
 5597TIP3    H116744   1.399   2.444   4.953
 5597TIP3    H216745   1.453   2.491   5.086
 5598TIP3   OH216746   1.800   2.606   5.763
 5598TIP3    H116747   1.788   2.530   5.703
 5598TIP3    H216748   1.782   2.682   5.703
 5599TIP3   OH216749   1.094   2.003   5.023
 5599TIP3    H116750   1.017   2.058   4.997
 5599TIP3    H216751   1.144   1.998   4.938
 5600TIP3   OH216752   1.052   1.787   4.729
 5600TIP3    H116753   1.115   1.843   4.778
 5600TIP3    H216754   1.115   1.725   4.686
 5601TIP3   OH216755   1.996   2.246   5.610
 5601TIP3    H116756   1.911   2.297   5.613
 5601TIP3    H216757   2.027   2.271   5.520
 5602TIP3   OH216758   1.438   2.085   4.989
 5602TIP3    H116759   1.388   2.107   5.071
 5602TIP3    H216760   1.524   2.056   5.027
 5603TIP3   OH216761   1.674   2.121   5.907
 5603TIP3    H116762   1.671   2.205   5.957
 5603TIP3    H216763   1.588   2.125   5.861
 5604TIP3   OH216764   0.673   2.081   5.413
 5604TIP3    H116765   0.632   2.024   5.345
 5604TIP3    H216766   0.750   2.028   5.442
 5605TIP3   OH216767   0.800   2.489   5.559
 5605TIP3    H116768   0.784   2.459   5.468
 5605TIP3    H216769   0.891   2.454   5.576
 5606TIP3   OH216770   0.801   2.057   5.761
 5606TIP3    H116771   0.839   2.028   5.675
 5606TIP3    H216772   0.852   2.139   5.780
 5607TIP3   OH216773   1.332   2.692   5.540
 5607TIP3    H116774   1.321   2.772   5.594
 5607TIP3    H216775   1.317   2.619   5.603
 5608TIP3   OH216776   0.948   2.610   6.087
 5608TIP3    H116777   0.887   2.671   6.133
 5608TIP3    H216778   0.884   2.556   6.036
 5609TIP3   OH216779   1.269   1.949   4.815
 5609TIP3    H116780   1.337   1.999   4.866
 5609TIP3    H216781   1.298   1.969   4.723
 5610TIP3   OH216782   0.706   2.165   6.194
 5610TIP3    H116783   0.707   2.253   6.235
 5610TIP3    H216784   0.610   2.147   6.189
 5611TIP3   OH216785   1.023   2.622   5.095
 5611TIP3    H116786   1.108   2.670   5.101
 5611TIP3    H216787   0.966   2.687   5.051
 5612TIP3   OH216788   0.741   2.776   6.175
 5612TIP3    H116789   0.707   2.782   6.084
 5612TIP3    H216790   0.659   2.761   6.227
 5613TIP3   OH216791   1.793   1.173   4.870
 5613TIP3    H116792   1.713   1.207   4.914
 5613TIP3    H216793   1.823   1.254   4.823
 5614TIP3   OH216794   0.538   1.925   5.218
 5614TIP3    H116795   0.471   1.966   5.160
 5614TIP3    H216796   0.507   1.834   5.222
 5615TIP3   OH216797   1.597   2.549   4.415
 5615TIP3    H116798   1.606   2.646   4.400
 5615TIP3    H216799   1.689   2.519   4.403
 5616TIP3   OH216800   0.341   2.297   6.115
 5616TIP3    H116801   0.282   2.260   6.048
 5616TIP3    H216802   0.366   2.218   6.166
 5617TIP3   OH216803   0.175   2.522   5.731
 5617TIP3    H116804   0.262   2.481   5.724
 5617TIP3    H216805   0.189   2.580   5.807
 5618TIP3   OH216806   2.038   2.955   5.812
 5618TIP3    H116807   2.036   2.858   5.826
 5618TIP3    H216808   1.954   2.980   5.857
 5619TIP3   OH216809   1.144   2.737   5.945
 5619TIP3    H116810   1.141   2.830   5.977
 5619TIP3    H216811   1.072   2.697   5.999
 5620TIP3   OH216812   0.907   2.865   4.898
 5620TIP3    H116813   0.862   2.850   4.813
 5620TIP3    H216814   0.874   2.953   4.924
 5621TIP3   OH216815   0.343   2.715   5.284
 5621TIP3    H116816   0.396   2.708   5.367
 5621TIP3    H216817   0.283   2.639   5.295
 5622TIP3   OH216818   1.106   2.768   4.534
 5622TIP3    H116819   1.165   2.699   4.498
 5622TIP3    H216820   1.141   2.779   4.625
 5623TIP3   OH216821   1.158   2.817   4.804
 5623TIP3    H116822   1.070   2.826   4.847
 5623TIP3    H216823   1.210   2.779   4.876
 5624TIP3   OH216824   1.926   2.081   6.086
 5624TIP3    H116825   1.845   2.093   6.035
 5624TIP3    H216826   1.942   1.985   6.075
 5625TIP3   OH216827   0.521   2.501   6.115
 5625TIP3    H116828   0.578   2.472   6.190
 5625TIP3    H216829   0.451   2.431   6.116
 5626TIP3   OH216830   0.943   1.320   5.896
 5626TIP3    H116831   0.874   1.252   5.903
 5626TIP3    H216832   0.899   1.395   5.940
 5627TIP3   OH216833   1.466   1.430   6.089
 5627TIP3    H116834   1.530   1.403   6.157
 5627TIP3    H216835   1.380   1.417   6.134
 5628TIP3   OH216836   1.694   1.858   6.006
 5628TIP3    H116837   1.643   1.857   6.091
 5628TIP3    H216838   1.672   1.946   5.970
 5629TIP3   OH216839   1.346   1.994   4.560
 5629TIP3    H116840   1.322   1.961   4.471
 5629TIP3    H216841   1.438   2.024   4.543
 5630TIP3   OH216842   1.058   1.372   4.864
 5630TIP3    H116843   1.029   1.362   4.956
 5630TIP3    H216844   1.029   1.286   4.828
 5631TIP3   OH216845   0.860   1.834   5.907
 5631TIP3    H116846   0.811   1.854   5.989
 5631TIP3    H216847   0.842   1.915   5.855
 5632TIP3   OH216848   0.745   1.719   5.424
 5632TIP3    H116849   0.653   1.693   5.442
 5632TIP3    H216850   0.758   1.678   5.335
 5633TIP3   OH216851   1.230   1.800   5.157
 5633TIP3    H116852   1.182   1.871   5.110
 5633TIP3    H216853   1.291   1.768   5.087
 5634TIP3   OH216854   1.405   2.078   6.239
 5634TIP3    H116855   1.383   2.006   6.303
 5634TIP3    H216856   1.498   2.093   6.261
 5635TIP3   OH216857   1.384   1.829   5.392
 5635TIP3    H116858   1.324   1.857   5.320
 5635TIP3    H216859   1.423   1.750   5.347
 5636TIP3   OH216860   0.680   1.873   6.108
 5636TIP3    H116861   0.709   1.915   6.190
 5636TIP3    H216862   0.614   1.807   6.139
 5637TIP3   OH216863   0.722   1.334   4.831
 5637TIP3    H116864   0.711   1.333   4.928
 5637TIP3    H216865   0.650   1.393   4.804
 5638TIP3   OH216866   1.396   2.074   5.815
 5638TIP3    H116867   1.429   2.002   5.755
 5638TIP3    H216868   1.365   2.019   5.890
 5639TIP3   OH216869   1.070   1.536   5.487
 5639TIP3    H116870   0.991   1.537   5.544
 5639TIP3    H216871   1.142   1.535   5.553
 5640TIP3   OH216872   0.508   1.600   5.490
 5640TIP3    H116873   0.416   1.606   5.456
 5640TIP3    H216874   0.523   1.504   5.488
 5641TIP3   OH216875   0.769   1.587   5.186
 5641TIP3    H116876   0.863   1.604   5.165
 5641TIP3    H216877   0.722   1.612   5.103
 5642TIP3   OH216878   1.563   1.614   5.693
 5642TIP3    H116879   1.526   1.628   5.783
 5642TIP3    H216880   1.495   1.556   5.654
 5643TIP3   OH216881   0.619   1.634   4.968
 5643TIP3    H116882   0.541   1.594   4.927
 5643TIP3    H216883   0.668   1.664   4.889
 5644TIP3   OH216884   1.732   3.303   5.910
 5644TIP3    H116885   1.729   3.328   5.816
 5644TIP3    H216886   1.812   3.350   5.940
 5645TIP3   OH216887   0.686   2.416   6.327
 5645TIP3    H116888   0.768   2.442   6.374
 5645TIP3    H216889   0.624   2.413   6.402
 5646TIP3   OH216890   1.149   1.866   5.582
 5646TIP3    H116891   1.224   1.833   5.530
 5646TIP3    H216892   1.161   1.821   5.667
 5647TIP3   OH216893   0.678   1.348   5.463
 5647TIP3    H116894   0.673   1.257   5.495
 5647TIP3    H216895   0.724   1.337   5.379
 5648TIP3   OH216896   1.128   1.765   5.878
 5648TIP3    H116897   1.038   1.802   5.886
 5648TIP3    H216898   1.184   1.830   5.925
 5649TIP3   OH216899   0.859   2.156   4.966
 5649TIP3    H116900   0.787   2.089   4.956
 5649TIP3    H216901   0.842   2.189   5.058
 5650TIP3   OH216902   1.762   2.390   5.597
 5650TIP3    H116903   1.786   2.441   5.517
 5650TIP3    H216904   1.678   2.347   5.569
 5651TIP3   OH216905   1.325   1.457   4.841
 5651TIP3    H116906   1.227   1.454   4.840
 5651TIP3    H216907   1.345   1.552   4.847
 5652TIP3   OH216908   1.258   2.471   5.967
 5652TIP3    H116909   1.292   2.455   6.056
 5652TIP3    H216910   1.224   2.562   5.973
 5653TIP3   OH216911   1.381   1.717   4.940
 5653TIP3    H116912   1.471   1.696   4.905
 5653TIP3    H216913   1.361   1.794   4.882
 5654TIP3   OH216914   0.549   2.168   5.644
 5654TIP3    H116915   0.590   2.147   5.558
 5654TIP3    H216916   0.608   2.120   5.705
 5655TIP3   OH216917   1.006   2.303   4.789
 5655TIP3    H116918   0.958   2.389   4.794
 5655TIP3    H216919   0.954   2.249   4.852
 5656TIP3   OH216920   0.427   2.092   6.278
 5656TIP3    H116921   0.479   2.102   6.360
 5656TIP3    H216922   0.350   2.039   6.309
 5657TIP3   OH216923   1.164   2.214   6.276
 5657TIP3    H116924   1.101   2.151   6.238
 5657TIP3    H216925   1.249   2.176   6.247
 5658TIP3   OH216926   1.421   2.730   5.866
 5658TIP3    H116927   1.324   2.731   5.878
 5658TIP3    H216928   1.449   2.784   5.943
 5659TIP3   OH216929   2.051   2.664   5.851
 5659TIP3    H116930   1.953   2.658   5.842
 5659TIP3    H216931   2.077   2.633   5.762
 5660TIP3   OH216932   1.531   2.622   4.680
 5660TIP3    H116933   1.508   2.550   4.740
 5660TIP3    H216934   1.546   2.576   4.595
 5661TIP3   OH216935   1.529   2.253   5.516
 5661TIP3    H116936   1.434   2.230   5.527
 5661TIP3    H216937   1.561   2.172   5.471
 5662TIP3   OH216938   0.660   2.484   5.273
 5662TIP3    H116939   0.660   2.563   5.216
 5662TIP3    H216940   0.566   2.467   5.282
 5663TIP3   OH216941   0.206   1.791   4.975
 5663TIP3    H116942   0.276   1.858   4.992
 5663TIP3    H216943   0.132   1.832   5.021
 5664TIP3   OH216944   0.787   2.243   5.211
 5664TIP3    H116945   0.757   2.334   5.231
 5664TIP3    H216946   0.756   2.194   5.289
 5665TIP3   OH216947   0.927   2.824   5.738
 5665TIP3    H116948   0.968   2.897   5.688
 5665TIP3    H216949   1.004   2.787   5.784
 5666TIP3   OH216950   0.575   2.721   5.121
 5666TIP3    H116951   0.490   2.731   5.168
 5666TIP3    H216952   0.609   2.813   5.124
 5667TIP3   OH216953   1.311   2.459   5.699
 5667TIP3    H116954   1.301   2.455   5.796
 5667TIP3    H216955   1.390   2.405   5.685
 5668TIP3   OH216956   1.293   2.356   4.583
 5668TIP3    H116957   1.348   2.330   4.660
 5668TIP3    H216958   1.206   2.322   4.611
 5669TIP3   OH216959   1.561   2.990   5.747
 5669TIP3    H116960   1.480   2.937   5.739
 5669TIP3    H216961   1.547   3.056   5.675
 5670TIP3   OH216962   1.629   2.826   4.400
 5670TIP3    H116963   1.669   2.902   4.355
 5670TIP3    H216964   1.547   2.869   4.433
 5671TIP3   OH216965   1.449   2.292   4.803
 5671TIP3    H116966   1.437   2.220   4.867
 5671TIP3    H216967   1.547   2.286   4.789
 5672TIP3   OH216968   0.360   2.680   5.898
 5672TIP3    H116969   0.422   2.616   5.937
 5672TIP3    H216970   0.384   2.761   5.945
 5673TIP3   OH216971   0.651   2.333   4.582
 5673TIP3    H116972   0.669   2.241   4.556
 5673TIP3    H216973   0.632   2.322   4.678
 5674TIP3   OH216974   0.597   2.337   4.856
 5674TIP3    H116975   0.677   2.310   4.904
 5674TIP3    H216976   0.602   2.435   4.863
 5675TIP3   OH216977   0.334   2.025   5.054
 5675TIP3    H116978   0.271   2.073   5.112
 5675TIP3    H216979   0.353   2.093   4.988
 5676TIP3   OH216980   1.485   1.669   5.951
 5676TIP3    H116981   1.566   1.709   5.985
 5676TIP3    H216982   1.475   1.588   6.006
 5677TIP3   OH216983   1.364   1.416   5.118
 5677TIP3    H116984   1.351   1.435   5.023
 5677TIP3    H216985   1.404   1.500   5.149
 5678TIP3   OH216986   0.863   2.532   4.801
 5678TIP3    H116987   0.777   2.558   4.838
 5678TIP3    H216988   0.882   2.608   4.744
 5679TIP3   OH216989   1.048   1.599   5.216
 5679TIP3    H116990   1.114   1.670   5.195
 5679TIP3    H216991   1.059   1.592   5.313
 5680TIP3   OH216992   1.323   1.915   6.023
 5680TIP3    H116993   1.348   1.967   6.102
 5680TIP3    H216994   1.376   1.834   6.033
 5681TIP3   OH216995   1.196   1.319   5.316
 5681TIP3    H116996   1.189   1.398   5.373
 5681TIP3    H216997   1.257   1.354   5.247
 5682TIP3   OH216998   0.609   2.609   4.870
 5682TIP3    H116999   0.580   2.680   4.808
 5682TIP3    H217000   0.594   2.653   4.957
 5683TIP3   OH217001   0.709   1.328   5.112
 5683TIP3    H117002   0.712   1.421   5.142
 5683TIP3    H217003   0.804   1.307   5.117
 5684TIP3   OH217004   1.961   1.815   6.009
 5684TIP3    H117005   1.863   1.812   6.012
 5684TIP3    H217006   1.976   1.782   5.919
 5685TIP3   OH217007   1.613   2.010   5.394
 5685TIP3    H117008   1.538   1.948   5.401
 5685TIP3    H217009   1.685   1.961   5.440
 5686TIP3   OH217010   0.331   2.237   4.858
 5686TIP3    H117011   0.402   2.303   4.869
 5686TIP3    H217012   0.375   2.179   4.792
 5687TIP3   OH217013   0.302   1.527   5.004
 5687TIP3    H117014   0.262   1.616   4.999
 5687TIP3    H217015   0.231   1.467   4.978
 5688TIP3   OH217016   1.582   2.968   5.341
 5688TIP3    H117017   1.540   3.015   5.266
 5688TIP3    H217018   1.677   2.987   5.320
 5689TIP3   OH217019   0.188   2.445   5.249
 5689TIP3    H117020   0.122   2.495   5.299
 5689TIP3    H217021   0.177   2.486   5.160
 5690TIP3   OH217022   0.385   3.014   6.292
 5690TIP3    H117023   0.461   3.016   6.354
 5690TIP3    H217024   0.347   2.928   6.310
 5691TIP3   OH217025   0.832   2.955   6.369
 5691TIP3    H117026   0.928   2.942   6.372
 5691TIP3    H217027   0.808   2.896   6.295
 5692TIP3   OH217028   0.816   2.534   4.490
 5692TIP3    H117029   0.761   2.462   4.529
 5692TIP3    H217030   0.893   2.483   4.460
 5693TIP3   OH217031   1.472   2.868   6.101
 5693TIP3    H117032   1.466   2.798   6.170
 5693TIP3    H217033   1.551   2.918   6.130
 5694TIP3   OH217034   1.252   2.572   4.405
 5694TIP3    H117035   1.291   2.507   4.467
 5694TIP3    H217036   1.312   2.568   4.329
 5695TIP3   OH217037   0.481   2.396   6.516
 5695TIP3    H117038   0.515   2.304   6.521
 5695TIP3    H217039   0.388   2.379   6.496
 5696TIP3   OH217040   0.462   2.048   4.718
 5696TIP3    H117041   0.521   2.019   4.791
 5696TIP3    H217042   0.528   2.054   4.645
 5697TIP3   OH217043   1.089   2.489   6.296
 5697TIP3    H117044   1.052   2.509   6.208
 5697TIP3    H217045   1.121   2.397   6.285
 5698TIP3   OH217046   0.971   2.250   4.521
 5698TIP3    H117047   0.978   2.261   4.618
 5698TIP3    H217048   0.975   2.152   4.515
 5699TIP3   OH217049   1.584   2.500   5.903
 5699TIP3    H117050   1.661   2.540   5.859
 5699TIP3    H217051   1.516   2.568   5.886
 5700TIP3   OH217052   0.591   2.145   6.503
 5700TIP3    H117053   0.655   2.076   6.480
 5700TIP3    H217054   0.622   2.168   6.593
 5701TIP3   OH217055   0.663   1.957   4.932
 5701TIP3    H117056   0.647   1.913   5.017
 5701TIP3    H217057   0.706   1.885   4.881
 5702TIP3   OH217058   0.948   2.025   6.167
 5702TIP3    H117059   0.867   2.079   6.163
 5702TIP3    H217060   0.998   2.058   6.089
 5703TIP3   OH217061   0.775   1.755   4.777
 5703TIP3    H117062   0.749   1.759   4.682
 5703TIP3    H217063   0.873   1.754   4.769
 5704TIP3   OH217064   1.458   2.424   6.299
 5704TIP3    H117065   1.534   2.392   6.248
 5704TIP3    H217066   1.451   2.357   6.370
 5705TIP3   OH217067   1.580   2.080   4.443
 5705TIP3    H117068   1.564   2.031   4.360
 5705TIP3    H217069   1.546   2.169   4.417
 5706TIP3   OH217070   1.071   1.813   6.284
 5706TIP3    H117071   1.066   1.733   6.228
 5706TIP3    H217072   1.023   1.879   6.229
 5707TIP3   OH217073   1.062   1.602   6.098
 5707TIP3    H117074   1.094   1.644   6.015
 5707TIP3    H217075   0.969   1.580   6.074
 5708TIP3   OH217076   1.090   2.128   5.965
 5708TIP3    H117077   1.177   2.144   5.927
 5708TIP3    H217078   1.034   2.196   5.922
 5709TIP3   OH217079   1.673   2.097   6.350
 5709TIP3    H117080   1.723   2.015   6.361
 5709TIP3    H217081   1.739   2.156   6.312
 5710TIP3   OH217082   1.714   2.352   6.089
 5710TIP3    H117083   1.656   2.406   6.030
 5710TIP3    H217084   1.802   2.373   6.050
 5711TIP3   OH217085   0.966   1.960   6.506
 5711TIP3    H117086   0.891   1.900   6.523
 5711TIP3    H217087   0.996   1.928   6.419
 5712TIP3   OH217088   1.208   1.379   6.167
 5712TIP3    H117089   1.151   1.455   6.142
 5712TIP3    H217090   1.152   1.302   6.145
 5713TIP3   OH217091   1.325   1.860   6.383
 5713TIP3    H117092   1.307   1.846   6.478
 5713TIP3    H217093   1.237   1.838   6.347
 5714TIP3   OH217094   1.561   1.812   6.238
 5714TIP3    H117095   1.487   1.815   6.301
 5714TIP3    H217096   1.636   1.783   6.294
 5715TIP3   OH217097   1.791   1.753   6.386
 5715TIP3    H117098   1.803   1.657   6.405
 5715TIP3    H217099   1.787   1.792   6.476
 5716TIP3   OH217100   0.801   1.754   6.555
 5716TIP3    H117101   0.770   1.663   6.537
 5716TIP3    H217102   0.845   1.738   6.641
 5717TIP3   OH217103   1.285   1.369   6.429
 5717TIP3    H117104   1.351   1.297   6.419
 5717TIP3    H217105   1.248   1.370   6.338
 5718TIP3   OH217106   1.364   1.586   6.580
 5718TIP3    H117107   1.340   1.516   6.517
 5718TIP3    H217108   1.284   1.643   6.580
 5719TIP3   OH217109   0.579   2.811   4.682
 5719TIP3    H117110   0.675   2.803   4.664
 5719TIP3    H217111   0.553   2.864   4.605
 5720TIP3   OH217112   0.069   2.181   4.908
 5720TIP3    H117113   0.161   2.208   4.888
 5720TIP3    H217114   0.061   2.097   4.859
 5721TIP3   OH217115  -0.017   2.790   5.295
 5721TIP3    H117116  -0.109   2.768   5.312
 5721TIP3    H217117   0.028   2.745   5.370
 5722TIP3   OH217118   0.106   2.660   5.505
 5722TIP3    H117119   0.115   2.594   5.577
 5722TIP3    H217120   0.156   2.732   5.547
 5723TIP3   OH217121   1.837   3.057   5.301
 5723TIP3    H117122   1.865   3.091   5.387
 5723TIP3    H217123   1.902   3.096   5.240
 5724TIP3   OH217124   1.864   3.078   5.584
 5724TIP3    H117125   1.820   2.990   5.578
 5724TIP3    H217126   1.941   3.054   5.637
 5725TIP3   OH217127   1.912   2.753   6.157
 5725TIP3    H117128   1.840   2.764   6.222
 5725TIP3    H217129   1.955   2.841   6.159
 5726TIP3   OH217130   1.724   2.274   4.781
 5726TIP3    H117131   1.795   2.331   4.746
 5726TIP3    H217132   1.771   2.231   4.856
 5727TIP3   OH217133   1.857   2.137   4.979
 5727TIP3    H117134   1.789   2.091   5.033
 5727TIP3    H217135   1.919   2.170   5.046
 5728TIP3   OH217136   1.913   2.528   5.411
 5728TIP3    H117137   1.963   2.459   5.363
 5728TIP3    H217138   1.910   2.601   5.345
 5729TIP3   OH217139   1.740   2.827   5.605
 5729TIP3    H117140   1.668   2.870   5.654
 5729TIP3    H217141   1.692   2.781   5.533
 5730TIP3   OH217142   1.803   2.071   4.603
 5730TIP3    H117143   1.722   2.054   4.551
 5730TIP3    H217144   1.766   2.125   4.674
 5731TIP3   OH217145   1.670   1.991   5.119
 5731TIP3    H117146   1.676   1.895   5.100
 5731TIP3    H217147   1.656   1.994   5.216
 5732TIP3   OH217148   0.297   2.024   5.878
 5732TIP3    H117149   0.293   2.040   5.782
 5732TIP3    H217150   0.391   2.048   5.898
 5733TIP3   OH217151   1.959   2.417   5.982
 5733TIP3    H117152   2.031   2.350   5.971
 5733TIP3    H217153   1.984   2.485   5.917
 5734TIP3   OH217154   2.141   2.217   5.993
 5734TIP3    H117155   2.067   2.168   6.034
 5734TIP3    H217156   2.215   2.155   6.009
 5735TIP3   OH217157   1.681   1.713   5.040
 5735TIP3    H117158   1.728   1.627   5.044
 5735TIP3    H217159   1.664   1.716   4.943
 5736TIP3   OH217160   1.827   1.878   5.515
 5736TIP3    H117161   1.912   1.903   5.472
 5736TIP3    H217162   1.842   1.918   5.603
 5737TIP3   OH217163   1.899   2.026   5.745
 5737TIP3    H117164   1.821   2.060   5.791
 5737TIP3    H217165   1.932   2.106   5.699
 5738TIP3   OH217166   2.346   1.616   6.300
 5738TIP3    H117167   2.408   1.553   6.259
 5738TIP3    H217168   2.316   1.669   6.223
 5739TIP3   OH217169   1.780   1.454   5.058
 5739TIP3    H117170   1.823   1.437   5.144
 5739TIP3    H217171   1.714   1.382   5.055
 5740TIP3   OH217172   0.285   1.770   5.976
 5740TIP3    H117173   0.324   1.732   5.895
 5740TIP3    H217174   0.288   1.865   5.952
 5741TIP3   OH217175   2.216   1.753   6.105
 5741TIP3    H117176   2.131   1.799   6.123
 5741TIP3    H217177   2.184   1.682   6.047
 5742TIP3   OH217178   1.896   1.369   4.717
 5742TIP3    H117179   1.899   1.317   4.635
 5742TIP3    H217180   1.886   1.460   4.686
 5743TIP3   OH217181   1.419   2.926   4.956
 5743TIP3    H117182   1.469   2.914   4.872
 5743TIP3    H217183   1.474   2.991   5.002
 5744TIP3   OH217184   0.515   2.731   6.344
 5744TIP3    H117185   0.467   2.652   6.316
 5744TIP3    H217186   0.531   2.715   6.438
 5745TIP3   OH217187   0.701   2.763   5.887
 5745TIP3    H117188   0.655   2.840   5.847
 5745TIP3    H217189   0.787   2.775   5.843
 5746TIP3   OH217190   1.141   3.005   6.026
 5746TIP3    H117191   1.184   3.005   6.114
 5746TIP3    H217192   1.207   3.056   5.974
 5747TIP3   OH217193   1.321   3.158   5.888
 5747TIP3    H117194   1.391   3.109   5.843
 5747TIP3    H217195   1.374   3.215   5.948
 5748TIP3   OH217196   2.117   1.519   5.986
 5748TIP3    H117197   2.029   1.514   5.945
 5748TIP3    H217198   2.150   1.427   5.975
 5749TIP3   OH217199   0.384   3.010   5.920
 5749TIP3    H117200   0.306   3.048   5.878
 5749TIP3    H217201   0.385   3.056   6.006
 5750TIP3   OH217202   0.616   2.995   5.770
 5750TIP3    H117203   0.531   3.006   5.816
 5750TIP3    H217204   0.596   3.028   5.680
 5751TIP3   OH217205   1.036   3.022   5.570
 5751TIP3    H117206   0.968   3.041   5.503
 5751TIP3    H217207   1.048   3.111   5.611
 5752TIP3   OH217208   1.307   2.962   5.623
 5752TIP3    H117209   1.213   2.981   5.602
 5752TIP3    H217210   1.352   3.034   5.577
 5753TIP3   OH217211   1.511   3.153   5.533
 5753TIP3    H117212   1.497   3.238   5.485
 5753TIP3    H217213   1.539   3.094   5.460
 5754TIP3   OH217214   0.287   2.810   5.653
 5754TIP3    H117215   0.303   2.779   5.745
 5754TIP3    H217216   0.360   2.763   5.607
 5755TIP3   OH217217   0.483   2.680   5.515
 5755TIP3    H117218   0.499   2.597   5.566
 5755TIP3    H217219   0.573   2.718   5.511
 5756TIP3   OH217220   0.747   2.775   5.521
 5756TIP3    H117221   0.780   2.684   5.508
 5756TIP3    H217222   0.795   2.799   5.603
 5757TIP3   OH217223   1.323   1.435   5.605
 5757TIP3    H117224   1.279   1.363   5.653
 5757TIP3    H217225   1.398   1.390   5.562
 5758TIP3   OH217226   1.842   1.313   5.513
 5758TIP3    H117227   1.881   1.364   5.438
 5758TIP3    H217228   1.748   1.335   5.504
 5759TIP3   OH217229   1.942   1.410   5.279
 5759TIP3    H117230   2.014   1.362   5.234
 5759TIP3    H217231   1.970   1.503   5.262
 5760TIP3   OH217232   1.015   1.182   5.508
 5760TIP3    H117233   1.069   1.225   5.439
 5760TIP3    H217234   1.053   1.220   5.589
 5761TIP3   OH217235   1.558   1.323   5.486
 5761TIP3    H117236   1.559   1.289   5.395
 5761TIP3    H217237   1.545   1.241   5.538
 5762TIP3   OH217238   1.591   1.246   5.051
 5762TIP3    H117239   1.505   1.292   5.058
 5762TIP3    H217240   1.572   1.161   5.094
 5763TIP3   OH217241   0.064   2.588   5.049
 5763TIP3    H117242   0.008   2.548   4.982
 5763TIP3    H217243   0.053   2.683   5.027
 5764TIP3   OH217244   0.475   1.195   5.004
 5764TIP3    H117245   0.533   1.129   4.960
 5764TIP3    H217246   0.541   1.239   5.061
 5765TIP3   OH217247   0.987   1.346   5.132
 5765TIP3    H117248   1.051   1.304   5.191
 5765TIP3    H217249   1.008   1.440   5.153
 5766TIP3   OH217250   0.847   2.768   4.631
 5766TIP3    H117251   0.935   2.791   4.595
 5766TIP3    H217252   0.825   2.694   4.570
 5767TIP3   OH217253   1.563   2.889   4.724
 5767TIP3    H117254   1.555   2.791   4.712
 5767TIP3    H217255   1.520   2.920   4.642
 5768TIP3   OH217256   1.072   1.452   6.640
 5768TIP3    H117257   1.140   1.431   6.575
 5768TIP3    H217258   1.014   1.373   6.637
 5769TIP3   OH217259   0.151   2.601   4.689
 5769TIP3    H117260   0.163   2.645   4.774
 5769TIP3    H217261   0.240   2.561   4.672
 5770TIP3   OH217262   1.857   1.481   6.418
 5770TIP3    H117263   1.876   1.452   6.510
 5770TIP3    H217264   1.947   1.480   6.378
 5771TIP3   OH217265   1.789   3.033   5.911
 5771TIP3    H117266   1.712   3.004   5.859
 5771TIP3    H217267   1.771   3.130   5.916
 5772TIP3   OH217268   3.059   2.408   4.673
 5772TIP3    H117269   3.028   2.498   4.652
 5772TIP3    H217270   2.983   2.356   4.642
 5773TIP3   OH217271   3.061   2.407   5.059
 5773TIP3    H117272   3.093   2.382   5.148
 5773TIP3    H217273   3.017   2.325   5.030
 5774TIP3   OH217274   2.356   2.301   5.424
 5774TIP3    H117275   2.386   2.231   5.485
 5774TIP3    H217276   2.436   2.354   5.415
 5775TIP3   OH217277   3.305   2.706   4.742
 5775TIP3    H117278   3.284   2.636   4.805
 5775TIP3    H217279   3.333   2.778   4.799
 5776TIP3   OH217280   2.329   2.713   5.145
 5776TIP3    H117281   2.321   2.615   5.146
 5776TIP3    H217282   2.426   2.723   5.140
 5777TIP3   OH217283   2.033   1.915   4.930
 5777TIP3    H117284   1.983   1.998   4.927
 5777TIP3    H217285   1.962   1.852   4.945
 5778TIP3   OH217286   2.094   2.203   5.111
 5778TIP3    H117287   2.142   2.123   5.141
 5778TIP3    H217288   2.147   2.232   5.036
 5779TIP3   OH217289   2.956   3.172   4.759
 5779TIP3    H117290   2.995   3.099   4.707
 5779TIP3    H217291   2.927   3.128   4.839
 5780TIP3   OH217292   2.856   2.634   5.107
 5780TIP3    H117293   2.895   2.557   5.062
 5780TIP3    H217294   2.939   2.679   5.133
 5781TIP3   OH217295   3.874   1.952   5.105
 5781TIP3    H117296   3.902   2.036   5.146
 5781TIP3    H217297   3.891   1.970   5.011
 5782TIP3   OH217298   3.270   2.133   5.136
 5782TIP3    H117299   3.311   2.047   5.157
 5782TIP3    H217300   3.237   2.116   5.045
 5783TIP3   OH217301   2.611   1.793   5.101
 5783TIP3    H117302   2.589   1.866   5.039
 5783TIP3    H217303   2.563   1.719   5.058
 5784TIP3   OH217304   3.304   1.886   4.722
 5784TIP3    H117305   3.374   1.870   4.789
 5784TIP3    H217306   3.358   1.920   4.649
 5785TIP3   OH217307   2.240   1.992   5.209
 5785TIP3    H117308   2.323   1.974   5.257
 5785TIP3    H217309   2.254   1.937   5.129
 5786TIP3   OH217310   2.680   2.192   5.006
 5786TIP3    H117311   2.774   2.167   5.017
 5786TIP3    H217312   2.641   2.108   4.972
 5787TIP3   OH217313   3.946   2.164   5.272
 5787TIP3    H117314   3.861   2.208   5.252
 5787TIP3    H217315   3.958   2.190   5.365
 5788TIP3   OH217316   2.603   1.777   5.538
 5788TIP3    H117317   2.544   1.814   5.469
 5788TIP3    H217318   2.550   1.796   5.618
 5789TIP3   OH217319   2.947   2.628   4.544
 5789TIP3    H117320   2.906   2.613   4.458
 5789TIP3    H217321   2.903   2.711   4.571
 5790TIP3   OH217322   2.710   2.553   5.329
 5790TIP3    H117323   2.650   2.621   5.367
 5790TIP3    H217324   2.752   2.602   5.255
 5791TIP3   OH217325   3.510   1.889   4.900
 5791TIP3    H117326   3.491   1.845   4.984
 5791TIP3    H217327   3.560   1.968   4.928
 5792TIP3   OH217328   2.476   1.891   5.320
 5792TIP3    H117329   2.537   1.964   5.344
 5792TIP3    H217330   2.525   1.852   5.244
 5793TIP3   OH217331   2.539   2.749   5.429
 5793TIP3    H117332   2.513   2.836   5.393
 5793TIP3    H217333   2.459   2.731   5.484
 5794TIP3   OH217334   1.930   2.436   4.665
 5794TIP3    H117335   1.888   2.465   4.582
 5794TIP3    H217336   1.963   2.522   4.701
 5795TIP3   OH217337   3.364   2.952   4.904
 5795TIP3    H117338   3.283   2.930   4.956
 5795TIP3    H217339   3.326   3.014   4.842
 5796TIP3   OH217340   3.664   1.852   5.269
 5796TIP3    H117341   3.576   1.878   5.237
 5796TIP3    H217342   3.723   1.885   5.199
 5797TIP3   OH217343   2.957   1.494   5.253
 5797TIP3    H117344   2.941   1.399   5.269
 5797TIP3    H217345   2.880   1.533   5.300
 5798TIP3   OH217346   3.077   2.996   4.585
 5798TIP3    H117347   3.122   2.912   4.561
 5798TIP3    H217348   3.140   3.060   4.547
 5799TIP3   OH217349   3.215   2.780   4.491
 5799TIP3    H117350   3.177   2.702   4.449
 5799TIP3    H217351   3.252   2.743   4.574
 5800TIP3   OH217352   3.597   2.859   5.253
 5800TIP3    H117353   3.584   2.782   5.193
 5800TIP3    H217354   3.582   2.935   5.193
 5801TIP3   OH217355   2.889   2.258   4.509
 5801TIP3    H117356   2.809   2.311   4.490
 5801TIP3    H217357   2.933   2.257   4.422
 5802TIP3   OH217358   2.847   2.045   4.219
 5802TIP3    H117359   2.912   2.097   4.269
 5802TIP3    H217360   2.907   1.982   4.173
 5803TIP3   OH217361   3.793   2.503   5.095
 5803TIP3    H117362   3.708   2.553   5.101
 5803TIP3    H217363   3.822   2.529   5.005
 5804TIP3   OH217364   3.238   2.341   4.477
 5804TIP3    H117365   3.182   2.364   4.555
 5804TIP3    H217366   3.322   2.317   4.521
 5805TIP3   OH217367   3.471   2.378   5.394
 5805TIP3    H117368   3.470   2.460   5.447
 5805TIP3    H217369   3.384   2.385   5.349
 5806TIP3   OH217370   2.468   2.338   4.896
 5806TIP3    H117371   2.427   2.280   4.829
 5806TIP3    H217372   2.544   2.283   4.926
 5807TIP3   OH217373   2.599   2.750   5.044
 5807TIP3    H117374   2.577   2.714   4.956
 5807TIP3    H217375   2.688   2.712   5.061
 5808TIP3   OH217376   2.605   2.309   5.252
 5808TIP3    H117377   2.636   2.285   5.162
 5808TIP3    H217378   2.648   2.396   5.268
 5809TIP3   OH217379   3.132   2.944   5.032
 5809TIP3    H117380   3.118   3.023   5.088
 5809TIP3    H217381   3.112   2.870   5.094
 5810TIP3   OH217382   2.746   2.865   5.572
 5810TIP3    H117383   2.687   2.927   5.620
 5810TIP3    H217384   2.680   2.813   5.523
 5811TIP3   OH217385   3.076   2.199   4.304
 5811TIP3    H117386   3.134   2.260   4.354
 5811TIP3    H217387   3.102   2.220   4.211
 5812TIP3   OH217388   2.500   2.419   5.681
 5812TIP3    H117389   2.504   2.509   5.720
 5812TIP3    H217390   2.405   2.400   5.691
 5813TIP3   OH217391   2.824   2.875   4.581
 5813TIP3    H117392   2.903   2.931   4.592
 5813TIP3    H217393   2.759   2.936   4.546
 5814TIP3   OH217394   2.538   3.029   5.660
 5814TIP3    H117395   2.502   3.034   5.570
 5814TIP3    H217396   2.457   3.010   5.713
 5815TIP3   OH217397   3.592   1.438   4.354
 5815TIP3    H117398   3.510   1.460   4.403
 5815TIP3    H217399   3.608   1.521   4.305
 5816TIP3   OH217400   2.336   2.181   4.699
 5816TIP3    H117401   2.267   2.226   4.645
 5816TIP3    H217402   2.295   2.094   4.713
 5817TIP3   OH217403   3.391   2.807   3.897
 5817TIP3    H117404   3.398   2.904   3.884
 5817TIP3    H217405   3.484   2.780   3.887
 5818TIP3   OH217406   2.115   2.566   5.608
 5818TIP3    H117407   2.048   2.545   5.539
 5818TIP3    H217408   2.153   2.478   5.628
 5819TIP3   OH217409   1.970   2.758   5.241
 5819TIP3    H117410   2.066   2.751   5.230
 5819TIP3    H217411   1.962   2.837   5.296
 5820TIP3   OH217412   3.851   3.210   5.306
 5820TIP3    H117413   3.835   3.117   5.330
 5820TIP3    H217414   3.763   3.248   5.331
 5821TIP3   OH217415   2.939   2.995   5.430
 5821TIP3    H117416   2.937   3.087   5.464
 5821TIP3    H217417   2.869   2.954   5.485
 5822TIP3   OH217418   2.692   3.123   4.372
 5822TIP3    H117419   2.659   3.078   4.292
 5822TIP3    H217420   2.684   3.215   4.347
 5823TIP3   OH217421   2.143   2.963   4.767
 5823TIP3    H117422   2.188   2.959   4.855
 5823TIP3    H217423   2.088   2.882   4.770
 5824TIP3   OH217424   2.898   3.022   4.021
 5824TIP3    H117425   2.959   2.954   3.984
 5824TIP3    H217426   2.940   3.041   4.107
 5825TIP3   OH217427   2.951   3.069   4.296
 5825TIP3    H117428   2.864   3.075   4.341
 5825TIP3    H217429   3.006   3.030   4.365
 5826TIP3   OH217430   3.726   2.339   5.572
 5826TIP3    H117431   3.641   2.352   5.528
 5826TIP3    H217432   3.740   2.243   5.560
 5827TIP3   OH217433   2.320   2.747   5.593
 5827TIP3    H117434   2.369   2.732   5.676
 5827TIP3    H217435   2.245   2.685   5.602
 5828TIP3   OH217436   2.720   1.570   5.383
 5828TIP3    H117437   2.632   1.540   5.353
 5828TIP3    H217438   2.694   1.652   5.430
 5829TIP3   OH217439   3.255   1.685   5.576
 5829TIP3    H117440   3.324   1.657   5.639
 5829TIP3    H217441   3.172   1.666   5.624
 5830TIP3   OH217442   3.492   2.117   5.495
 5830TIP3    H117443   3.440   2.113   5.578
 5830TIP3    H217444   3.469   2.204   5.459
 5831TIP3   OH217445   3.153   2.241   4.049
 5831TIP3    H117446   3.118   2.219   3.961
 5831TIP3    H217447   3.235   2.289   4.025
 5832TIP3   OH217448   2.865   1.618   4.353
 5832TIP3    H117449   2.830   1.614   4.444
 5832TIP3    H217450   2.824   1.537   4.316
 5833TIP3   OH217451   2.653   2.087   5.400
 5833TIP3    H117452   2.602   2.109   5.481
 5833TIP3    H217453   2.637   2.168   5.346
 5834TIP3   OH217454   2.535   1.973   4.914
 5834TIP3    H117455   2.442   1.948   4.932
 5834TIP3    H217456   2.547   1.932   4.825
 5835TIP3   OH217457   3.027   2.059   4.643
 5835TIP3    H117458   2.976   2.130   4.598
 5835TIP3    H217459   3.081   2.025   4.569
 5836TIP3   OH217460   3.201   2.333   5.723
 5836TIP3    H117461   3.181   2.261   5.787
 5836TIP3    H217462   3.293   2.353   5.747
 5837TIP3   OH217463   3.182   2.086   4.879
 5837TIP3    H117464   3.120   2.114   4.809
 5837TIP3    H217465   3.217   2.006   4.834
 5838TIP3   OH217466   2.472   2.116   5.607
 5838TIP3    H117467   2.502   2.180   5.673
 5838TIP3    H217468   2.461   2.035   5.660
 5839TIP3   OH217469   2.521   1.594   4.318
 5839TIP3    H117470   2.509   1.592   4.415
 5839TIP3    H217471   2.444   1.649   4.292
 5840TIP3   OH217472   2.060   1.637   5.195
 5840TIP3    H117473   2.142   1.667   5.239
 5840TIP3    H217474   2.090   1.606   5.107
 5841TIP3   OH217475   2.036   1.641   4.716
 5841TIP3    H117476   2.080   1.671   4.635
 5841TIP3    H217477   1.959   1.699   4.717
 5842TIP3   OH217478   3.191   2.331   5.300
 5842TIP3    H117479   3.226   2.260   5.242
 5842TIP3    H217480   3.162   2.277   5.377
 5843TIP3   OH217481   2.867   1.794   4.973
 5843TIP3    H117482   2.784   1.794   5.025
 5843TIP3    H217483   2.934   1.791   5.043
 5844TIP3   OH217484   2.296   1.852   4.980
 5844TIP3    H117485   2.202   1.862   4.949
 5844TIP3    H217486   2.316   1.760   4.957
 5845TIP3   OH217487   2.564   1.846   4.673
 5845TIP3    H117488   2.656   1.862   4.648
 5845TIP3    H217489   2.514   1.867   4.590
 5846TIP3   OH217490   3.356   1.870   5.175
 5846TIP3    H117491   3.325   1.884   5.268
 5846TIP3    H217492   3.286   1.811   5.142
 5847TIP3   OH217493   2.414   1.880   4.450
 5847TIP3    H117494   2.340   1.837   4.404
 5847TIP3    H217495   2.463   1.917   4.374
 5848TIP3   OH217496   2.483   2.669   5.817
 5848TIP3    H117497   2.563   2.699   5.864
 5848TIP3    H217498   2.418   2.670   5.890
 5849TIP3   OH217499   2.945   2.125   5.072
 5849TIP3    H117500   3.019   2.086   5.023
 5849TIP3    H217501   2.950   2.080   5.158
 5850TIP3   OH217502   2.470   1.610   4.954
 5850TIP3    H117503   2.429   1.534   5.001
 5850TIP3    H217504   2.509   1.566   4.877
 5851TIP3   OH217505   2.922   2.023   5.361
 5851TIP3    H117506   2.832   2.058   5.375
 5851TIP3    H217507   2.979   2.086   5.411
 5852TIP3   OH217508   2.659   2.410   4.457
 5852TIP3    H117509   2.587   2.344   4.445
 5852TIP3    H217510   2.639   2.445   4.547
 5853TIP3   OH217511   3.558   2.644   5.083
 5853TIP3    H117512   3.581   2.697   5.004
 5853TIP3    H217513   3.473   2.602   5.057
 5854TIP3   OH217514   3.116   1.721   4.322
 5854TIP3    H117515   3.020   1.702   4.331
 5854TIP3    H217516   3.123   1.815   4.347
 5855TIP3   OH217517   3.060   2.732   5.453
 5855TIP3    H117518   3.092   2.712   5.542
 5855TIP3    H217519   3.017   2.818   5.464
 5856TIP3   OH217520   3.184   1.971   4.425
 5856TIP3    H117521   3.281   1.978   4.440
 5856TIP3    H217522   3.165   2.052   4.374
 5857TIP3   OH217523   2.354   2.437   5.131
 5857TIP3    H117524   2.389   2.406   5.045
 5857TIP3    H217525   2.394   2.374   5.192
 5858TIP3   OH217526   2.804   2.559   4.280
 5858TIP3    H117527   2.756   2.645   4.283
 5858TIP3    H217528   2.749   2.505   4.341
 5859TIP3   OH217529   2.234   2.353   5.746
 5859TIP3    H117530   2.252   2.339   5.841
 5859TIP3    H217531   2.164   2.288   5.728
 5860TIP3   OH217532   2.961   2.468   5.765
 5860TIP3    H117533   2.901   2.409   5.717
 5860TIP3    H217534   3.048   2.433   5.736
 5861TIP3   OH217535   3.211   3.000   5.343
 5861TIP3    H117536   3.118   2.990   5.368
 5861TIP3    H217537   3.248   3.042   5.424
 5862TIP3   OH217538   3.627   2.065   4.258
 5862TIP3    H117539   3.565   2.021   4.195
 5862TIP3    H217540   3.623   2.155   4.219
 5863TIP3   OH217541   3.847   2.912   5.342
 5863TIP3    H117542   3.749   2.912   5.333
 5863TIP3    H217543   3.872   2.888   5.250
 5864TIP3   OH217544   3.337   2.883   4.163
 5864TIP3    H117545   3.302   2.817   4.224
 5864TIP3    H217546   3.343   2.835   4.079
 5865TIP3   OH217547   3.324   2.511   4.998
 5865TIP3    H117548   3.231   2.487   5.015
 5865TIP3    H217549   3.357   2.429   4.956
 5866TIP3   OH217550   2.454   2.738   4.758
 5866TIP3    H117551   2.448   2.818   4.701
 5866TIP3    H217552   2.361   2.718   4.771
 5867TIP3   OH217553   2.027   2.041   4.460
 5867TIP3    H117554   2.069   2.127   4.482
 5867TIP3    H217555   1.946   2.048   4.516
 5868TIP3   OH217556   2.587   2.501   4.700
 5868TIP3    H117557   2.552   2.591   4.719
 5868TIP3    H217558   2.551   2.450   4.774
 5869TIP3   OH217559   2.721   3.080   5.225
 5869TIP3    H117560   2.763   3.154   5.176
 5869TIP3    H217561   2.797   3.046   5.275
 5870TIP3   OH217562   2.370   2.967   4.607
 5870TIP3    H117563   2.284   2.976   4.652
 5870TIP3    H217564   2.403   3.059   4.611
 5871TIP3   OH217565   3.108   2.713   5.186
 5871TIP3    H117566   3.095   2.714   5.283
 5871TIP3    H217567   3.188   2.660   5.178
 5872TIP3   OH217568   3.087   2.608   4.069
 5872TIP3    H117569   3.139   2.582   4.148
 5872TIP3    H217570   2.998   2.582   4.096
 5873TIP3   OH217571   3.355   3.233   5.234
 5873TIP3    H117572   3.285   3.166   5.249
 5873TIP3    H217573   3.317   3.285   5.163
 5874TIP3   OH217574   3.423   3.087   3.886
 5874TIP3    H117575   3.421   3.141   3.805
 5874TIP3    H217576   3.369   3.144   3.943
 5875TIP3   OH217577   2.441   1.859   5.752
 5875TIP3    H117578   2.345   1.860   5.763
 5875TIP3    H217579   2.469   1.802   5.826
 5876TIP3   OH217580   3.247   2.541   4.285
 5876TIP3    H117581   3.237   2.475   4.356
 5876TIP3    H217582   3.344   2.538   4.271
 5877TIP3   OH217583   2.160   2.941   5.384
 5877TIP3    H117584   2.215   2.870   5.419
 5877TIP3    H217585   2.189   3.016   5.438
 5878TIP3   OH217586   2.449   2.588   4.068
 5878TIP3    H117587   2.463   2.495   4.042
 5878TIP3    H217588   2.429   2.578   4.163
 5879TIP3   OH217589   2.394   2.594   4.340
 5879TIP3    H117590   2.467   2.567   4.397
 5879TIP3    H217591   2.398   2.692   4.347
 5880TIP3   OH217592   2.132   2.288   4.544
 5880TIP3    H117593   2.062   2.328   4.601
 5880TIP3    H217594   2.140   2.358   4.476
 5881TIP3   OH217595   3.285   1.921   5.435
 5881TIP3    H117596   3.363   1.961   5.478
 5881TIP3    H217597   3.270   1.841   5.490
 5882TIP3   OH217598   3.164   1.670   4.604
 5882TIP3    H117599   3.149   1.692   4.510
 5882TIP3    H217600   3.202   1.754   4.639
 5883TIP3   OH217601   2.663   2.789   4.289
 5883TIP3    H117602   2.575   2.814   4.324
 5883TIP3    H217603   2.676   2.858   4.223
 5884TIP3   OH217604   2.849   1.855   4.703
 5884TIP3    H117605   2.912   1.929   4.688
 5884TIP3    H217606   2.854   1.847   4.801
 5885TIP3   OH217607   3.120   2.171   5.509
 5885TIP3    H117608   3.144   2.226   5.587
 5885TIP3    H217609   3.173   2.091   5.523
 5886TIP3   OH217610   2.991   1.576   4.804
 5886TIP3    H117611   2.982   1.655   4.861
 5886TIP3    H217612   3.053   1.611   4.736
 5887TIP3   OH217613   2.409   2.866   4.355
 5887TIP3    H117614   2.377   2.938   4.296
 5887TIP3    H217615   2.391   2.905   4.444
 5888TIP3   OH217616   2.506   1.581   4.594
 5888TIP3    H117617   2.502   1.671   4.632
 5888TIP3    H217618   2.602   1.565   4.602
 5889TIP3   OH217619   3.758   2.071   5.489
 5889TIP3    H117620   3.660   2.071   5.500
 5889TIP3    H217621   3.765   2.026   5.404
 5890TIP3   OH217622   3.410   2.266   4.879
 5890TIP3    H117623   3.333   2.208   4.892
 5890TIP3    H217624   3.481   2.218   4.928
 5891TIP3   OH217625   2.124   2.492   4.347
 5891TIP3    H117626   2.193   2.559   4.357
 5891TIP3    H217627   2.167   2.434   4.281
 5892TIP3   OH217628   2.062   1.771   4.475
 5892TIP3    H117629   2.067   1.868   4.478
 5892TIP3    H217630   1.971   1.758   4.446
 5893TIP3   OH217631   3.419   3.285   4.839
 5893TIP3    H117632   3.355   3.259   4.770
 5893TIP3    H217633   3.480   3.210   4.839
 5894TIP3   OH217634   2.456   1.491   5.354
 5894TIP3    H117635   2.425   1.458   5.266
 5894TIP3    H217636   2.443   1.412   5.410
 5895TIP3   OH217637   1.989   2.706   4.731
 5895TIP3    H117638   1.925   2.737   4.797
 5895TIP3    H217639   1.956   2.750   4.649
 5896TIP3   OH217640   2.153   3.257   5.809
 5896TIP3    H117641   2.240   3.258   5.856
 5896TIP3    H217642   2.135   3.161   5.807
 5897TIP3   OH217643   2.625   3.214   5.852
 5897TIP3    H117644   2.720   3.203   5.863
 5897TIP3    H217645   2.606   3.151   5.779
 5898TIP3   OH217646   2.612   2.791   3.979
 5898TIP3    H117647   2.557   2.717   4.015
 5898TIP3    H217648   2.689   2.741   3.945
 5899TIP3   OH217649   3.281   3.113   5.582
 5899TIP3    H117650   3.259   3.046   5.651
 5899TIP3    H217651   3.361   3.152   5.618
 5900TIP3   OH217652   3.047   2.830   3.890
 5900TIP3    H117653   3.094   2.768   3.949
 5900TIP3    H217654   3.102   2.829   3.810
 5901TIP3   OH217655   2.280   2.658   6.008
 5901TIP3    H117656   2.296   2.562   6.013
 5901TIP3    H217657   2.194   2.662   5.962
 5902TIP3   OH217658   2.259   2.308   4.202
 5902TIP3    H117659   2.313   2.276   4.276
 5902TIP3    H217660   2.326   2.313   4.131
 5903TIP3   OH217661   2.885   2.743   5.783
 5903TIP3    H117662   2.848   2.766   5.695
 5903TIP3    H217663   2.918   2.652   5.771
 5904TIP3   OH217664   2.773   2.508   4.010
 5904TIP3    H117665   2.774   2.519   4.108
 5904TIP3    H217666   2.772   2.410   4.003
 5905TIP3   OH217667   3.378   2.755   5.386
 5905TIP3    H117668   3.456   2.798   5.347
 5905TIP3    H217669   3.310   2.822   5.372
 5906TIP3   OH217670   2.401   2.393   5.992
 5906TIP3    H117671   2.481   2.349   5.961
 5906TIP3    H217672   2.430   2.427   6.079
 5907TIP3   OH217673   2.467   2.214   4.423
 5907TIP3    H117674   2.436   2.173   4.506
 5907TIP3    H217675   2.503   2.137   4.374
 5908TIP3   OH217676   2.735   2.275   5.651
 5908TIP3    H117677   2.658   2.336   5.650
 5908TIP3    H217678   2.788   2.311   5.576
 5909TIP3   OH217679   2.568   2.008   4.262
 5909TIP3    H117680   2.543   2.016   4.168
 5909TIP3    H217681   2.666   2.010   4.255
 5910TIP3   OH217682   3.249   2.676   5.781
 5910TIP3    H117683   3.336   2.658   5.745
 5910TIP3    H217684   3.246   2.615   5.858
 5911TIP3   OH217685   3.388   2.335   3.930
 5911TIP3    H117686   3.368   2.292   3.844
 5911TIP3    H217687   3.355   2.426   3.910
 5912TIP3   OH217688   2.859   2.067   5.776
 5912TIP3    H117689   2.860   1.989   5.718
 5912TIP3    H217690   2.815   2.134   5.719
 5913TIP3   OH217691   2.862   1.853   5.586
 5913TIP3    H117692   2.890   1.895   5.502
 5913TIP3    H217693   2.768   1.831   5.566
 5914TIP3   OH217694   2.884   2.386   5.460
 5914TIP3    H117695   2.970   2.400   5.418
 5914TIP3    H217696   2.828   2.451   5.413
 5915TIP3   OH217697   3.466   2.354   5.837
 5915TIP3    H117698   3.521   2.275   5.848
 5915TIP3    H217699   3.531   2.420   5.807
 5916TIP3   OH217700   3.510   2.604   5.568
 5916TIP3    H117701   3.451   2.660   5.512
 5916TIP3    H217702   3.598   2.628   5.530
 5917TIP3   OH217703   2.738   2.173   6.011
 5917TIP3    H117704   2.670   2.104   6.025
 5917TIP3    H217705   2.771   2.151   5.922
 5918TIP3   OH217706   2.993   1.614   5.654
 5918TIP3    H117707   2.943   1.696   5.631
 5918TIP3    H217708   2.925   1.545   5.642
 5919TIP3   OH217709   3.121   2.116   5.869
 5919TIP3    H117710   3.107   2.103   5.965
 5919TIP3    H217711   3.031   2.093   5.837
 5920TIP3   OH217712   3.357   2.065   5.722
 5920TIP3    H117713   3.283   2.070   5.786
 5920TIP3    H217714   3.432   2.038   5.779
 5921TIP3   OH217715   3.588   2.011   5.872
 5921TIP3    H117716   3.600   1.915   5.889
 5921TIP3    H217717   3.583   2.048   5.963
 5922TIP3   OH217718   2.575   1.954   6.064
 5922TIP3    H117719   2.580   1.862   6.030
 5922TIP3    H217720   2.613   1.943   6.153
 5923TIP3   OH217721   3.085   1.624   5.913
 5923TIP3    H117722   3.153   1.553   5.906
 5923TIP3    H217723   3.047   1.620   5.823
 5924TIP3   OH217724   3.153   1.840   6.071
 5924TIP3    H117725   3.133   1.769   6.006
 5924TIP3    H217726   3.075   1.898   6.063
 5925TIP3   OH217727   2.379   3.078   4.174
 5925TIP3    H117728   2.472   3.062   4.150
 5925TIP3    H217729   2.349   3.124   4.093
 5926TIP3   OH217730   1.854   2.453   4.382
 5926TIP3    H117731   1.949   2.473   4.369
 5926TIP3    H217732   1.848   2.363   4.344
 5927TIP3   OH217733   1.767   3.059   4.802
 5927TIP3    H117734   1.702   2.997   4.762
 5927TIP3    H217735   1.814   3.000   4.865
 5928TIP3   OH217736   1.907   2.907   4.985
 5928TIP3    H117737   1.894   2.839   5.053
 5928TIP3    H217738   1.959   2.972   5.036
 5929TIP3   OH217739   3.704   3.010   5.648
 5929TIP3    H117740   3.626   3.023   5.707
 5929TIP3    H217741   3.741   3.100   5.647
 5930TIP3   OH217742   3.525   2.521   4.261
 5930TIP3    H117743   3.589   2.587   4.230
 5930TIP3    H217744   3.571   2.485   4.340
 5931TIP3   OH217745   3.654   2.390   4.466
 5931TIP3    H117746   3.585   2.348   4.523
 5931TIP3    H217747   3.716   2.427   4.532
 5932TIP3   OH217748   3.707   2.783   4.897
 5932TIP3    H117749   3.761   2.715   4.851
 5932TIP3    H217750   3.696   2.851   4.829
 5933TIP3   OH217751   3.539   3.067   5.088
 5933TIP3    H117752   3.485   3.128   5.142
 5933TIP3    H217753   3.473   3.026   5.029
 5934TIP3   OH217754   3.590   2.299   4.110
 5934TIP3    H117755   3.519   2.300   4.042
 5934TIP3    H217756   3.560   2.374   4.165
 5935TIP3   OH217757   3.463   1.971   4.063
 5935TIP3    H117758   3.415   2.008   3.988
 5935TIP3    H217759   3.439   1.876   4.055
 5936TIP3   OH217760   3.466   2.250   4.610
 5936TIP3    H117761   3.472   2.153   4.601
 5936TIP3    H217762   3.451   2.261   4.707
 5937TIP3   OH217763   2.090   2.319   5.362
 5937TIP3    H117764   2.087   2.286   5.269
 5937TIP3    H217765   2.188   2.322   5.376
 5938TIP3   OH217766   3.754   2.672   5.467
 5938TIP3    H117767   3.828   2.608   5.457
 5938TIP3    H217768   3.783   2.746   5.410
 5939TIP3   OH217769   3.939   2.475   5.473
 5939TIP3    H117770   3.865   2.428   5.517
 5939TIP3    H217771   4.012   2.411   5.492
 5940TIP3   OH217772   3.404   1.705   4.047
 5940TIP3    H117773   3.476   1.673   4.106
 5940TIP3    H217774   3.329   1.647   4.068
 5941TIP3   OH217775   3.463   1.965   4.504
 5941TIP3    H117776   3.503   1.876   4.519
 5941TIP3    H217777   3.521   1.997   4.432
 5942TIP3   OH217778   3.622   2.133   5.001
 5942TIP3    H117779   3.708   2.159   4.959
 5942TIP3    H217780   3.636   2.173   5.089
 5943TIP3   OH217781   3.694   2.281   5.229
 5943TIP3    H117782   3.617   2.314   5.280
 5943TIP3    H217783   3.726   2.363   5.187
 5944TIP3   OH217784   2.308   2.005   6.031
 5944TIP3    H117785   2.406   2.001   6.034
 5944TIP3    H217786   2.286   1.919   6.071
 5945TIP3   OH217787   4.148   1.877   5.785
 5945TIP3    H117788   4.206   1.811   5.743
 5945TIP3    H217789   4.115   1.928   5.708
 5946TIP3   OH217790   3.571   1.715   4.542
 5946TIP3    H117791   3.619   1.699   4.626
 5946TIP3    H217792   3.510   1.639   4.541
 5947TIP3   OH217793   2.272   1.700   5.368
 5947TIP3    H117794   2.334   1.625   5.373
 5947TIP3    H217795   2.334   1.774   5.356
 5948TIP3   OH217796   2.073   1.972   5.437
 5948TIP3    H117797   2.120   1.966   5.351
 5948TIP3    H217798   2.099   2.060   5.467
 5949TIP3   OH217799   4.013   2.010   5.591
 5949TIP3    H117800   3.931   2.056   5.618
 5949TIP3    H217801   3.974   1.941   5.534
 5950TIP3   OH217802   3.650   1.646   4.178
 5950TIP3    H117803   3.689   1.576   4.121
 5950TIP3    H217804   3.717   1.717   4.173
 5951TIP3   OH217805   2.057   1.496   4.947
 5951TIP3    H117806   1.963   1.474   4.959
 5951TIP3    H217807   2.054   1.545   4.862
 5952TIP3   OH217808   3.233   3.180   4.459
 5952TIP3    H117809   3.266   3.152   4.371
 5952TIP3    H217810   3.260   3.272   4.456
 5953TIP3   OH217811   2.277   1.553   5.750
 5953TIP3    H117812   2.226   1.556   5.832
 5953TIP3    H217813   2.214   1.594   5.687
 5954TIP3   OH217814   2.317   2.987   5.824
 5954TIP3    H117815   2.223   2.961   5.811
 5954TIP3    H217816   2.330   2.970   5.918
 5955TIP3   OH217817   2.495   3.019   5.373
 5955TIP3    H117818   2.449   3.096   5.334
 5955TIP3    H217819   2.582   3.032   5.329
 5956TIP3   OH217820   2.940   3.264   5.507
 5956TIP3    H117821   2.978   3.260   5.598
 5956TIP3    H217822   3.010   3.316   5.462
 5957TIP3   OH217823   3.138   3.411   5.377
 5957TIP3    H117824   3.207   3.350   5.349
 5957TIP3    H217825   3.191   3.476   5.425
 5958TIP3   OH217826   3.914   1.773   5.471
 5958TIP3    H117827   3.823   1.765   5.437
 5958TIP3    H217828   3.946   1.681   5.462
 5959TIP3   OH217829   2.170   3.273   5.400
 5959TIP3    H117830   2.080   3.306   5.377
 5959TIP3    H217831   2.184   3.319   5.484
 5960TIP3   OH217832   2.407   3.252   5.257
 5960TIP3    H117833   2.320   3.265   5.301
 5960TIP3    H217834   2.389   3.285   5.167
 5961TIP3   OH217835   2.831   3.277   5.055
 5961TIP3    H117836   2.760   3.290   4.988
 5961TIP3    H217837   2.837   3.366   5.094
 5962TIP3   OH217838   3.102   3.231   5.088
 5962TIP3    H117839   3.004   3.226   5.088
 5962TIP3    H217840   3.113   3.317   5.046
 5963TIP3   OH217841   2.081   3.066   5.144
 5963TIP3    H117842   2.108   3.039   5.234
 5963TIP3    H217843   2.153   3.023   5.092
 5964TIP3   OH217844   2.277   2.940   5.004
 5964TIP3    H117845   2.292   2.856   5.054
 5964TIP3    H217846   2.368   2.974   4.999
 5965TIP3   OH217847   2.542   3.028   5.009
 5965TIP3    H117848   2.573   2.936   4.998
 5965TIP3    H217849   2.591   3.053   5.090
 5966TIP3   OH217850   3.120   1.690   5.094
 5966TIP3    H117851   3.076   1.619   5.144
 5966TIP3    H217852   3.193   1.642   5.050
 5967TIP3   OH217853   3.640   1.570   4.995
 5967TIP3    H117854   3.675   1.622   4.920
 5967TIP3    H217855   3.544   1.589   4.989
 5968TIP3   OH217856   3.735   1.669   4.759
 5968TIP3    H117857   3.810   1.618   4.720
 5968TIP3    H217858   3.768   1.761   4.745
 5969TIP3   OH217859   2.368   1.399   5.107
 5969TIP3    H117860   2.274   1.370   5.106
 5969TIP3    H217861   2.413   1.312   5.101
 5970TIP3   OH217862   2.173   1.263   4.757
 5970TIP3    H117863   2.190   1.321   4.681
 5970TIP3    H217864   2.113   1.320   4.809
 5971TIP3   OH217865   2.815   1.427   4.989
 5971TIP3    H117866   2.869   1.477   4.925
 5971TIP3    H217867   2.836   1.471   5.072
 5972TIP3   OH217868   3.356   1.578   4.970
 5972TIP3    H117869   3.356   1.537   4.883
 5972TIP3    H217870   3.344   1.499   5.029
 5973TIP3   OH217871   3.387   1.502   4.535
 5973TIP3    H117872   3.301   1.546   4.550
 5973TIP3    H217873   3.373   1.416   4.579
 5974TIP3   OH217874   1.872   2.843   4.533
 5974TIP3    H117875   1.786   2.811   4.500
 5974TIP3    H217876   1.862   2.938   4.513
 5975TIP3   OH217877   2.272   1.426   4.514
 5975TIP3    H117878   2.323   1.365   4.457
 5975TIP3    H217879   2.344   1.480   4.553
 5976TIP3   OH217880   2.783   1.605   4.616
 5976TIP3    H117881   2.842   1.557   4.677
 5976TIP3    H217882   2.805   1.697   4.642
 5977TIP3   OH217883   2.643   3.022   4.118
 5977TIP3    H117884   2.732   3.045   4.082
 5977TIP3    H217885   2.621   2.949   4.056
 5978TIP3   OH217886   3.357   3.161   4.220
 5978TIP3    H117887   3.355   3.072   4.180
 5978TIP3    H217888   3.388   3.220   4.147
 5979TIP3   OH217889   2.574   1.678   5.997
 5979TIP3    H117890   2.538   1.608   6.055
 5979TIP3    H217891   2.668   1.678   6.026
 5980TIP3   OH217892   2.824   1.677   6.117
 5980TIP3    H117893   2.910   1.654   6.076
 5980TIP3    H217894   2.815   1.605   6.182
 5981TIP3   OH217895   1.946   2.864   4.170
 5981TIP3    H117896   1.947   2.887   4.263
 5981TIP3    H217897   2.035   2.822   4.158
 5982TIP3   OH217898   3.651   1.739   5.905
 5982TIP3    H117899   3.668   1.707   5.996
 5982TIP3    H217900   3.740   1.733   5.865
 5983TIP3   OH217901   3.605   3.306   5.382
 5983TIP3    H117902   3.516   3.288   5.347
 5983TIP3    H217903   3.583   3.382   5.441
 5984TIP3   OH217904   4.855   2.664   4.160
 5984TIP3    H117905   4.825   2.754   4.140
 5984TIP3    H217906   4.780   2.612   4.127
 5985TIP3   OH217907   4.855   2.664   4.547
 5985TIP3    H117908   4.889   2.639   4.635
 5985TIP3    H217909   4.813   2.582   4.517
 5986TIP3   OH217910   4.152   2.557   4.907
 5986TIP3    H117911   4.179   2.487   4.969
 5986TIP3    H217912   4.229   2.614   4.909
 5987TIP3   OH217913   5.098   2.968   4.228
 5987TIP3    H117914   5.082   2.898   4.292
 5987TIP3    H217915   5.131   3.041   4.283
 5988TIP3   OH217916   4.114   2.960   4.637
 5988TIP3    H117917   4.110   2.861   4.634
 5988TIP3    H217918   4.211   2.971   4.633
 5989TIP3   OH217919   3.832   2.170   4.415
 5989TIP3    H117920   3.783   2.252   4.434
 5989TIP3    H217921   3.762   2.117   4.373
 5990TIP3   OH217922   3.890   2.458   4.595
 5990TIP3    H117923   3.939   2.379   4.628
 5990TIP3    H217924   3.946   2.486   4.521
 5991TIP3   OH217925   4.748   3.422   4.253
 5991TIP3    H117926   4.787   3.359   4.188
 5991TIP3    H217927   4.759   3.371   4.334
 5992TIP3   OH217928   4.651   2.894   4.594
 5992TIP3    H117929   4.689   2.815   4.550
 5992TIP3    H217930   4.735   2.938   4.618
 5993TIP3   OH217931   5.667   2.209   4.591
 5993TIP3    H117932   5.697   2.292   4.633
 5993TIP3    H217933   5.690   2.225   4.498
 5994TIP3   OH217934   5.065   2.390   4.622
 5994TIP3    H117935   5.107   2.305   4.644
 5994TIP3    H217936   5.033   2.372   4.532
 5995TIP3   OH217937   4.407   2.050   4.588
 5995TIP3    H117938   4.385   2.122   4.526
 5995TIP3    H217939   4.358   1.976   4.545
 5996TIP3   OH217940   5.100   2.143   4.209
 5996TIP3    H117941   5.170   2.126   4.276
 5996TIP3    H217942   5.154   2.177   4.136
 5997TIP3   OH217943   4.037   2.251   4.696
 5997TIP3    H117944   4.119   2.232   4.745
 5997TIP3    H217945   4.051   2.194   4.617
 5998TIP3   OH217946   4.476   2.449   4.491
 5998TIP3    H117947   4.571   2.424   4.503
 5998TIP3    H217948   4.438   2.365   4.458
 5999TIP3   OH217949   5.741   2.418   4.760
 5999TIP3    H117950   5.656   2.463   4.741
 5999TIP3    H217951   5.755   2.445   4.852
 6000TIP3   OH217952   4.399   2.035   5.025
 6000TIP3    H117953   4.340   2.071   4.956
 6000TIP3    H217954   4.344   2.051   5.105
 6001TIP3   OH217955   4.742   2.883   4.031
 6001TIP3    H117956   4.701   2.868   3.944
 6001TIP3    H217957   4.697   2.965   4.059
 6002TIP3   OH217958   4.509   2.808   4.815
 6002TIP3    H117959   4.448   2.874   4.854
 6002TIP3    H217960   4.550   2.858   4.741
 6003TIP3   OH217961   5.306   2.146   4.386
 6003TIP3    H117962   5.290   2.102   4.471
 6003TIP3    H217963   5.357   2.224   4.413
 6004TIP3   OH217964   4.272   2.148   4.807
 6004TIP3    H117965   4.334   2.220   4.832
 6004TIP3    H217966   4.321   2.108   4.732
 6005TIP3   OH217967   4.338   2.998   4.919
 6005TIP3    H117968   4.311   3.084   4.882
 6005TIP3    H217969   4.258   2.979   4.973
 6006TIP3   OH217970   3.726   2.694   4.151
 6006TIP3    H117971   3.684   2.718   4.066
 6006TIP3    H217972   3.755   2.781   4.184
 6007TIP3   OH217973   5.165   3.209   4.393
 6007TIP3    H117974   5.075   3.201   4.432
 6007TIP3    H217975   5.158   3.296   4.349
 6008TIP3   OH217976   5.459   2.107   4.755
 6008TIP3    H117977   5.373   2.136   4.723
 6008TIP3    H217978   5.520   2.142   4.686
 6009TIP3   OH217979   4.753   1.749   4.740
 6009TIP3    H117980   4.737   1.655   4.757
 6009TIP3    H217981   4.676   1.789   4.786
 6010TIP3   OH217982   4.863   3.257   4.060
 6010TIP3    H117983   4.912   3.173   4.046
 6010TIP3    H217984   4.929   3.320   4.023
 6011TIP3   OH217985   5.009   3.041   3.977
 6011TIP3    H117986   4.972   2.960   3.939
 6011TIP3    H217987   5.048   3.007   4.061
 6012TIP3   OH217988   5.393   3.120   4.736
 6012TIP3    H117989   5.380   3.043   4.677
 6012TIP3    H217990   5.375   3.195   4.675
 6013TIP3   OH217991   4.686   2.515   3.996
 6013TIP3    H117992   4.606   2.568   3.976
 6013TIP3    H217993   4.729   2.512   3.909
 6014TIP3   OH217994   4.643   2.301   3.707
 6014TIP3    H117995   4.709   2.354   3.755
 6014TIP3    H217996   4.702   2.238   3.660
 6015TIP3   OH217997   5.588   2.760   4.582
 6015TIP3    H117998   5.504   2.810   4.586
 6015TIP3    H217999   5.618   2.785   4.492
 6016TIP3   OH218000   5.034   2.599   3.964
 6016TIP3    H118001   4.979   2.621   4.042
 6016TIP3    H218002   5.118   2.574   4.007
 6017TIP3   OH218003   5.267   2.635   4.881
 6017TIP3    H118004   5.264   2.718   4.933
 6017TIP3    H218005   5.180   2.640   4.835
 6018TIP3   OH218006   4.266   2.595   4.382
 6018TIP3    H118007   4.223   2.537   4.316
 6018TIP3    H218008   4.341   2.540   4.413
 6019TIP3   OH218009   4.381   3.006   4.536
 6019TIP3    H118010   4.369   2.974   4.446
 6019TIP3    H218011   4.472   2.976   4.556
 6020TIP3   OH218012   4.404   2.564   4.737
 6020TIP3    H118013   4.435   2.541   4.647
 6020TIP3    H218014   4.447   2.651   4.754
 6021TIP3   OH218015   4.922   3.205   4.513
 6021TIP3    H118016   4.916   3.283   4.571
 6021TIP3    H218017   4.909   3.131   4.575
 6022TIP3   OH218018   4.540   3.124   5.059
 6022TIP3    H118019   4.480   3.183   5.110
 6022TIP3    H218020   4.475   3.067   5.013
 6023TIP3   OH218021   4.872   2.456   3.792
 6023TIP3    H118022   4.930   2.517   3.842
 6023TIP3    H218023   4.899   2.476   3.699
 6024TIP3   OH218024   4.295   2.677   5.164
 6024TIP3    H118025   4.300   2.765   5.206
 6024TIP3    H218026   4.201   2.656   5.180
 6025TIP3   OH218027   4.618   3.131   4.072
 6025TIP3    H118028   4.700   3.183   4.076
 6025TIP3    H218029   4.556   3.191   4.028
 6026TIP3   OH218030   4.332   3.286   5.151
 6026TIP3    H118031   4.287   3.276   5.066
 6026TIP3    H218032   4.259   3.265   5.214
 6027TIP3   OH218033   5.389   1.695   3.841
 6027TIP3    H118034   5.307   1.717   3.890
 6027TIP3    H218035   5.404   1.778   3.791
 6028TIP3   OH218036   4.131   2.439   4.188
 6028TIP3    H118037   4.062   2.483   4.132
 6028TIP3    H218038   4.093   2.351   4.198
 6029TIP3   OH218039   5.191   3.063   3.388
 6029TIP3    H118040   5.201   3.159   3.375
 6029TIP3    H218041   5.284   3.033   3.377
 6030TIP3   OH218042   3.913   2.822   5.094
 6030TIP3    H118043   3.842   2.799   5.030
 6030TIP3    H218044   3.950   2.735   5.117
 6031TIP3   OH218045   3.767   3.026   4.733
 6031TIP3    H118046   3.855   2.992   4.710
 6031TIP3    H218047   3.787   3.083   4.808
 6032TIP3   OH218048   5.631   3.469   4.783
 6032TIP3    H118049   5.630   3.372   4.798
 6032TIP3    H218050   5.547   3.494   4.830
 6033TIP3   OH218051   4.732   3.252   4.915
 6033TIP3    H118052   4.731   3.344   4.949
 6033TIP3    H218053   4.663   3.211   4.971
 6034TIP3   OH218054   4.489   3.379   3.860
 6034TIP3    H118055   4.456   3.332   3.780
 6034TIP3    H218056   4.462   3.469   3.841
 6035TIP3   OH218057   3.944   3.233   4.256
 6035TIP3    H118058   3.978   3.220   4.346
 6035TIP3    H218059   3.878   3.161   4.251
 6036TIP3   OH218060   4.699   3.282   3.508
 6036TIP3    H118061   4.758   3.212   3.471
 6036TIP3    H218062   4.735   3.292   3.599
 6037TIP3   OH218063   4.747   3.328   3.782
 6037TIP3    H118064   4.660   3.332   3.826
 6037TIP3    H218065   4.804   3.292   3.853
 6038TIP3   OH218066   5.520   2.596   5.058
 6038TIP3    H118067   5.437   2.606   5.010
 6038TIP3    H218068   5.537   2.500   5.048
 6039TIP3   OH218069   4.115   3.006   5.076
 6039TIP3    H118070   4.161   2.996   5.162
 6039TIP3    H218071   4.041   2.942   5.087
 6040TIP3   OH218072   4.517   1.828   4.869
 6040TIP3    H118073   4.428   1.797   4.839
 6040TIP3    H218074   4.490   1.909   4.917
 6041TIP3   OH218075   5.053   1.941   5.064
 6041TIP3    H118076   5.123   1.912   5.125
 6041TIP3    H218077   4.970   1.921   5.113
 6042TIP3   OH218078   5.286   2.372   4.979
 6042TIP3    H118079   5.235   2.369   5.063
 6042TIP3    H218080   5.264   2.460   4.943
 6043TIP3   OH218081   4.952   2.499   3.538
 6043TIP3    H118082   4.914   2.477   3.451
 6043TIP3    H218083   5.032   2.548   3.512
 6044TIP3   OH218084   4.662   1.874   3.840
 6044TIP3    H118085   4.626   1.870   3.931
 6044TIP3    H218086   4.621   1.794   3.803
 6045TIP3   OH218087   4.449   2.344   4.888
 6045TIP3    H118088   4.397   2.365   4.968
 6045TIP3    H218089   4.433   2.425   4.834
 6046TIP3   OH218090   4.331   2.230   4.400
 6046TIP3    H118091   4.239   2.204   4.419
 6046TIP3    H218092   4.343   2.189   4.311
 6047TIP3   OH218093   4.823   2.316   4.130
 6047TIP3    H118094   4.772   2.387   4.085
 6047TIP3    H218095   4.877   2.281   4.056
 6048TIP3   OH218096   4.997   2.589   5.211
 6048TIP3    H118097   4.975   2.518   5.275
 6048TIP3    H218098   5.090   2.607   5.235
 6049TIP3   OH218099   4.978   2.342   4.366
 6049TIP3    H118100   4.916   2.370   4.295
 6049TIP3    H218101   5.014   2.262   4.321
 6050TIP3   OH218102   4.267   2.373   5.093
 6050TIP3    H118103   4.287   2.439   5.161
 6050TIP3    H218104   4.255   2.291   5.146
 6051TIP3   OH218105   4.318   1.851   3.804
 6051TIP3    H118106   4.306   1.850   3.901
 6051TIP3    H218107   4.240   1.905   3.777
 6052TIP3   OH218108   3.860   1.892   4.676
 6052TIP3    H118109   3.935   1.925   4.729
 6052TIP3    H218110   3.901   1.862   4.594
 6053TIP3   OH218111   3.828   1.875   4.195
 6053TIP3    H118112   3.873   1.911   4.116
 6053TIP3    H218113   3.766   1.948   4.213
 6054TIP3   OH218114   4.988   2.588   4.787
 6054TIP3    H118115   5.022   2.517   4.728
 6054TIP3    H218116   4.958   2.533   4.863
 6055TIP3   OH218117   4.663   2.051   4.460
 6055TIP3    H118118   4.580   2.051   4.512
 6055TIP3    H218119   4.731   2.047   4.529
 6056TIP3   OH218120   4.093   2.109   4.468
 6056TIP3    H118121   3.999   2.118   4.440
 6056TIP3    H218122   4.114   2.017   4.446
 6057TIP3   OH218123   4.359   2.103   4.159
 6057TIP3    H118124   4.453   2.118   4.135
 6057TIP3    H218125   4.311   2.124   4.076
 6058TIP3   OH218126   5.151   2.128   4.663
 6058TIP3    H118127   5.119   2.141   4.755
 6058TIP3    H218128   5.082   2.067   4.629
 6059TIP3   OH218129   4.209   2.139   3.937
 6059TIP3    H118130   4.137   2.093   3.890
 6059TIP3    H218131   4.259   2.175   3.861
 6060TIP3   OH218132   5.324   3.816   4.884
 6060TIP3    H118133   5.321   3.841   4.790
 6060TIP3    H218134   5.402   3.866   4.915
 6061TIP3   OH218135   4.281   2.927   5.301
 6061TIP3    H118136   4.359   2.957   5.352
 6061TIP3    H218137   4.214   2.925   5.371
 6062TIP3   OH218138   4.741   2.381   4.558
 6062TIP3    H118139   4.815   2.343   4.509
 6062TIP3    H218140   4.747   2.336   4.645
 6063TIP3   OH218141   4.263   1.866   4.441
 6063TIP3    H118142   4.225   1.790   4.490
 6063TIP3    H218143   4.306   1.823   4.366
 6064TIP3   OH218144   4.718   2.279   4.849
 6064TIP3    H118145   4.628   2.315   4.863
 6064TIP3    H218146   4.774   2.342   4.899
 6065TIP3   OH218147   4.455   2.668   3.944
 6065TIP3    H118148   4.384   2.601   3.932
 6065TIP3    H218149   4.433   2.702   4.034
 6066TIP3   OH218150   5.354   2.904   4.571
 6066TIP3    H118151   5.378   2.955   4.490
 6066TIP3    H218152   5.269   2.860   4.543
 6067TIP3   OH218153   4.912   1.977   3.809
 6067TIP3    H118154   4.816   1.958   3.818
 6067TIP3    H218155   4.918   2.072   3.834
 6068TIP3   OH218156   4.856   2.988   4.939
 6068TIP3    H118157   4.883   2.965   5.029
 6068TIP3    H218158   4.813   3.075   4.951
 6069TIP3   OH218159   4.981   2.228   3.912
 6069TIP3    H118160   5.077   2.235   3.928
 6069TIP3    H218161   4.962   2.309   3.861
 6070TIP3   OH218162   4.149   2.691   4.617
 6070TIP3    H118163   4.188   2.659   4.534
 6070TIP3    H218164   4.187   2.630   4.682
 6071TIP3   OH218165   4.600   2.817   3.768
 6071TIP3    H118166   4.553   2.904   3.772
 6071TIP3    H218167   4.545   2.763   3.828
 6072TIP3   OH218168   4.032   2.607   5.230
 6072TIP3    H118169   4.047   2.597   5.326
 6072TIP3    H218170   3.959   2.545   5.215
 6073TIP3   OH218171   4.757   2.727   5.250
 6073TIP3    H118172   4.694   2.666   5.209
 6073TIP3    H218173   4.842   2.689   5.221
 6074TIP3   OH218174   5.011   3.251   4.832
 6074TIP3    H118175   4.916   3.245   4.849
 6074TIP3    H218176   5.041   3.299   4.913
 6075TIP3   OH218177   5.422   2.321   3.745
 6075TIP3    H118178   5.361   2.277   3.681
 6075TIP3    H218179   5.418   2.411   3.707
 6076TIP3   OH218180   5.644   3.179   4.824
 6076TIP3    H118181   5.546   3.172   4.817
 6076TIP3    H218182   5.669   3.147   4.734
 6077TIP3   OH218183   5.128   3.143   3.654
 6077TIP3    H118184   5.099   3.076   3.718
 6077TIP3    H218185   5.137   3.091   3.572
 6078TIP3   OH218186   5.120   2.767   4.487
 6078TIP3    H118187   5.027   2.743   4.501
 6078TIP3    H218188   5.153   2.686   4.443
 6079TIP3   OH218189   4.243   3.002   4.255
 6079TIP3    H118190   4.241   3.075   4.190
 6079TIP3    H218191   4.156   2.962   4.242
 6080TIP3   OH218192   3.816   2.297   3.951
 6080TIP3    H118193   3.858   2.383   3.971
 6080TIP3    H218194   3.737   2.301   4.010
 6081TIP3   OH218195   4.380   2.761   4.186
 6081TIP3    H118196   4.351   2.850   4.211
 6081TIP3    H218197   4.348   2.707   4.260
 6082TIP3   OH218198   4.499   3.354   4.706
 6082TIP3    H118199   4.554   3.418   4.656
 6082TIP3    H218200   4.569   3.306   4.753
 6083TIP3   OH218201   4.172   3.232   4.096
 6083TIP3    H118202   4.084   3.243   4.139
 6083TIP3    H218203   4.210   3.321   4.110
 6084TIP3   OH218204   4.904   2.971   4.671
 6084TIP3    H118205   4.893   2.971   4.769
 6084TIP3    H218206   4.983   2.917   4.661
 6085TIP3   OH218207   4.884   2.867   3.553
 6085TIP3    H118208   4.935   2.841   3.633
 6085TIP3    H218209   4.795   2.837   3.578
 6086TIP3   OH218210   5.154   3.503   4.721
 6086TIP3    H118211   5.075   3.446   4.718
 6086TIP3    H218212   5.135   3.566   4.648
 6087TIP3   OH218213   5.220   3.344   3.366
 6087TIP3    H118214   5.208   3.390   3.282
 6087TIP3    H218215   5.150   3.388   3.418
 6088TIP3   OH218216   4.230   2.115   5.234
 6088TIP3    H118217   4.133   2.125   5.246
 6088TIP3    H218218   4.253   2.060   5.310
 6089TIP3   OH218219   5.043   2.798   3.770
 6089TIP3    H118220   5.032   2.733   3.842
 6089TIP3    H218221   5.141   2.795   3.759
 6090TIP3   OH218222   3.964   3.194   4.878
 6090TIP3    H118223   4.017   3.123   4.918
 6090TIP3    H218224   3.957   3.255   4.953
 6091TIP3   OH218225   4.247   2.845   3.555
 6091TIP3    H118226   4.257   2.753   3.526
 6091TIP3    H218227   4.225   2.833   3.649
 6092TIP3   OH218228   4.192   2.850   3.827
 6092TIP3    H118229   4.266   2.822   3.882
 6092TIP3    H218230   4.196   2.948   3.834
 6093TIP3   OH218231   3.925   2.544   4.031
 6093TIP3    H118232   3.858   2.588   4.087
 6093TIP3    H218233   3.936   2.611   3.962
 6094TIP3   OH218234   5.079   2.178   4.922
 6094TIP3    H118235   5.159   2.218   4.961
 6094TIP3    H218236   5.067   2.099   4.978
 6095TIP3   OH218237   4.961   1.927   4.091
 6095TIP3    H118238   4.945   1.949   3.997
 6095TIP3    H218239   4.998   2.011   4.126
 6096TIP3   OH218240   4.461   3.048   3.778
 6096TIP3    H118241   4.373   3.073   3.812
 6096TIP3    H218242   4.468   3.107   3.702
 6097TIP3   OH218243   4.645   2.112   4.190
 6097TIP3    H118244   4.708   2.185   4.175
 6097TIP3    H218245   4.650   2.103   4.288
 6098TIP3   OH218246   4.916   2.428   4.995
 6098TIP3    H118247   4.940   2.481   5.074
 6098TIP3    H218248   4.969   2.347   5.007
 6099TIP3   OH218249   4.787   1.833   4.290
 6099TIP3    H118250   4.779   1.912   4.348
 6099TIP3    H218251   4.850   1.867   4.222
 6100TIP3   OH218252   4.207   3.123   3.843
 6100TIP3    H118253   4.174   3.192   3.781
 6100TIP3    H218254   4.187   3.164   3.930
 6101TIP3   OH218255   4.301   1.838   4.081
 6101TIP3    H118256   4.299   1.928   4.119
 6101TIP3    H218257   4.397   1.820   4.088
 6102TIP3   OH218258   5.553   2.330   4.978
 6102TIP3    H118259   5.455   2.329   4.985
 6102TIP3    H218260   5.566   2.283   4.895
 6103TIP3   OH218261   5.206   2.524   4.366
 6103TIP3    H118262   5.130   2.464   4.379
 6103TIP3    H218263   5.277   2.476   4.414
 6104TIP3   OH218264   3.920   2.747   3.835
 6104TIP3    H118265   3.987   2.817   3.841
 6104TIP3    H218266   3.963   2.690   3.768
 6105TIP3   OH218267   3.861   2.027   3.970
 6105TIP3    H118268   3.863   2.125   3.968
 6105TIP3    H218269   3.781   2.008   3.921
 6106TIP3   OH218270   5.178   3.476   4.320
 6106TIP3    H118271   5.132   3.522   4.246
 6106TIP3    H218272   5.271   3.496   4.295
 6107TIP3   OH218273   4.252   1.747   4.840
 6107TIP3    H118274   4.221   1.713   4.754
 6107TIP3    H218275   4.241   1.669   4.898
 6108TIP3   OH218276   3.783   2.970   4.212
 6108TIP3    H118277   3.728   3.004   4.284
 6108TIP3    H218278   3.744   3.016   4.134
 6109TIP3   OH218279   3.952   3.501   5.267
 6109TIP3    H118280   4.027   3.505   5.329
 6109TIP3    H218281   3.918   3.411   5.283
 6110TIP3   OH218282   4.432   3.472   5.336
 6110TIP3    H118283   4.525   3.447   5.342
 6110TIP3    H218284   4.401   3.410   5.267
 6111TIP3   OH218285   4.412   3.047   3.470
 6111TIP3    H118286   4.354   2.974   3.503
 6111TIP3    H218287   4.485   2.996   3.431
 6112TIP3   OH218288   5.069   3.377   5.070
 6112TIP3    H118289   5.059   3.309   5.141
 6112TIP3    H218290   5.144   3.430   5.103
 6113TIP3   OH218291   4.846   3.087   3.380
 6113TIP3    H118292   4.886   3.020   3.439
 6113TIP3    H218293   4.902   3.081   3.300
 6114TIP3   OH218294   4.080   2.917   5.492
 6114TIP3    H118295   4.091   2.821   5.504
 6114TIP3    H218296   3.991   2.921   5.451
 6115TIP3   OH218297   4.056   2.565   3.689
 6115TIP3    H118298   4.112   2.533   3.762
 6115TIP3    H218299   4.122   2.570   3.617
 6116TIP3   OH218300   4.686   3.002   5.267
 6116TIP3    H118301   4.644   3.019   5.181
 6116TIP3    H218302   4.716   2.909   5.258
 6117TIP3   OH218303   4.573   2.766   3.498
 6117TIP3    H118304   4.571   2.776   3.595
 6117TIP3    H218305   4.571   2.668   3.490
 6118TIP3   OH218306   5.177   3.012   4.876
 6118TIP3    H118307   5.253   3.055   4.832
 6118TIP3    H218308   5.107   3.077   4.859
 6119TIP3   OH218309   4.199   2.651   5.478
 6119TIP3    H118310   4.272   2.592   5.459
 6119TIP3    H218311   4.225   2.686   5.566
 6120TIP3   OH218312   4.265   2.470   3.911
 6120TIP3    H118313   4.233   2.428   3.992
 6120TIP3    H218314   4.300   2.394   3.860
 6121TIP3   OH218315   4.535   2.536   5.141
 6121TIP3    H118316   4.454   2.592   5.139
 6121TIP3    H218317   4.586   2.570   5.064
 6122TIP3   OH218318   4.364   2.265   3.749
 6122TIP3    H118319   4.339   2.273   3.655
 6122TIP3    H218320   4.462   2.266   3.742
 6123TIP3   OH218321   5.049   2.936   5.271
 6123TIP3    H118322   5.129   2.907   5.226
 6123TIP3    H218323   5.043   2.872   5.344
 6124TIP3   OH218324   5.189   2.595   3.413
 6124TIP3    H118325   5.161   2.550   3.331
 6124TIP3    H218326   5.152   2.685   3.395
 6125TIP3   OH218327   4.659   2.323   5.259
 6125TIP3    H118328   4.657   2.245   5.200
 6125TIP3    H218329   4.613   2.391   5.204
 6126TIP3   OH218330   4.658   2.108   5.071
 6126TIP3    H118331   4.686   2.151   4.988
 6126TIP3    H218332   4.564   2.087   5.053
 6127TIP3   OH218333   4.682   2.642   4.946
 6127TIP3    H118334   4.767   2.655   4.903
 6127TIP3    H218335   4.625   2.707   4.899
 6128TIP3   OH218336   5.264   2.609   5.323
 6128TIP3    H118337   5.315   2.527   5.337
 6128TIP3    H218338   5.332   2.669   5.289
 6129TIP3   OH218339   5.307   2.864   5.061
 6129TIP3    H118340   5.249   2.919   5.003
 6129TIP3    H218341   5.395   2.886   5.022
 6130TIP3   OH218342   4.544   2.422   5.500
 6130TIP3    H118343   4.469   2.360   5.512
 6130TIP3    H218344   4.571   2.403   5.408
 6131TIP3   OH218345   4.791   1.876   5.151
 6131TIP3    H118346   4.741   1.955   5.122
 6131TIP3    H218347   4.726   1.804   5.135
 6132TIP3   OH218348   4.919   2.370   5.358
 6132TIP3    H118349   4.907   2.355   5.453
 6132TIP3    H218350   4.830   2.347   5.326
 6133TIP3   OH218351   5.152   2.324   5.207
 6133TIP3    H118352   5.079   2.329   5.272
 6133TIP3    H218353   5.228   2.297   5.263
 6134TIP3   OH218354   5.374   2.264   5.360
 6134TIP3    H118355   5.396   2.170   5.376
 6134TIP3    H218356   5.379   2.304   5.449
 6135TIP3   OH218357   4.372   2.210   5.551
 6135TIP3    H118358   4.373   2.115   5.527
 6135TIP3    H218359   4.413   2.205   5.640
 6136TIP3   OH218360   4.870   1.876   5.417
 6136TIP3    H118361   4.947   1.822   5.384
 6136TIP3    H218362   4.830   1.896   5.328
 6137TIP3   OH218363   4.177   3.336   3.665
 6137TIP3    H118364   4.268   3.324   3.634
 6137TIP3    H218365   4.138   3.377   3.585
 6138TIP3   OH218366   3.651   2.707   3.874
 6138TIP3    H118367   3.745   2.727   3.856
 6138TIP3    H218368   3.642   2.618   3.831
 6139TIP3   OH218369   3.739   3.162   4.462
 6139TIP3    H118370   3.692   3.102   4.520
 6139TIP3    H218371   3.752   3.238   4.521
 6140TIP3   OH218372   5.431   3.566   4.274
 6140TIP3    H118373   5.455   3.598   4.363
 6140TIP3    H218374   5.493   3.615   4.217
 6141TIP3   OH218375   5.458   3.589   4.555
 6141TIP3    H118376   5.411   3.503   4.550
 6141TIP3    H218377   5.530   3.564   4.616
 6142TIP3   OH218378   5.503   3.267   5.129
 6142TIP3    H118379   5.431   3.276   5.195
 6142TIP3    H218380   5.545   3.355   5.133
 6143TIP3   OH218381   5.321   2.778   3.747
 6143TIP3    H118382   5.387   2.844   3.716
 6143TIP3    H218383   5.366   2.743   3.827
 6144TIP3   OH218384   5.449   2.647   3.952
 6144TIP3    H118385   5.382   2.606   4.012
 6144TIP3    H218386   5.514   2.683   4.015
 6145TIP3   OH218387   5.505   3.040   4.384
 6145TIP3    H118388   5.556   2.972   4.337
 6145TIP3    H218389   5.504   3.114   4.319
 6146TIP3   OH218390   5.333   3.341   4.577
 6146TIP3    H118391   5.261   3.383   4.628
 6146TIP3    H218392   5.284   3.295   4.506
 6147TIP3   OH218393   5.387   2.555   3.597
 6147TIP3    H118394   5.315   2.558   3.531
 6147TIP3    H218395   5.360   2.630   3.654
 6148TIP3   OH218396   5.260   2.228   3.547
 6148TIP3    H118397   5.206   2.261   3.474
 6148TIP3    H218398   5.238   2.133   3.543
 6149TIP3   OH218399   5.261   2.506   4.097
 6149TIP3    H118400   5.268   2.410   4.089
 6149TIP3    H218401   5.246   2.518   4.193
 6150TIP3   OH218402   3.886   2.579   4.844
 6150TIP3    H118403   3.885   2.544   4.753
 6150TIP3    H218404   3.983   2.579   4.861
 6151TIP3   OH218405   5.553   2.930   4.955
 6151TIP3    H118406   5.623   2.863   4.945
 6151TIP3    H218407   5.578   2.997   4.890
 6152TIP3   OH218408   5.736   2.731   4.965
 6152TIP3    H118409   5.661   2.682   5.005
 6152TIP3    H218410   5.809   2.668   4.982
 6153TIP3   OH218411   5.199   1.963   3.535
 6153TIP3    H118412   5.272   1.930   3.591
 6153TIP3    H218413   5.125   1.904   3.555
 6154TIP3   OH218414   5.259   2.221   3.990
 6154TIP3    H118415   5.299   2.132   4.005
 6154TIP3    H218416   5.318   2.253   3.919
 6155TIP3   OH218417   5.418   2.391   4.487
 6155TIP3    H118418   5.504   2.416   4.445
 6155TIP3    H218419   5.433   2.429   4.576
 6156TIP3   OH218420   5.490   2.539   4.716
 6156TIP3    H118421   5.413   2.572   4.766
 6156TIP3    H218422   5.523   2.620   4.673
 6157TIP3   OH218423   4.105   2.262   5.517
 6157TIP3    H118424   4.203   2.258   5.522
 6157TIP3    H218425   4.082   2.176   5.557
 6158TIP3   OH218426   5.937   2.131   5.272
 6158TIP3    H118427   6.000   2.065   5.236
 6158TIP3    H218428   5.912   2.182   5.193
 6159TIP3   OH218429   5.367   1.972   4.029
 6159TIP3    H118430   5.415   1.956   4.113
 6159TIP3    H218431   5.306   1.895   4.028
 6160TIP3   OH218432   4.068   1.956   4.848
 6160TIP3    H118433   4.129   1.881   4.857
 6160TIP3    H218434   4.130   2.030   4.841
 6161TIP3   OH218435   3.868   2.228   4.922
 6161TIP3    H118436   3.918   2.227   4.838
 6161TIP3    H218437   3.894   2.312   4.960
 6162TIP3   OH218438   5.810   2.268   5.073
 6162TIP3    H118439   5.725   2.310   5.096
 6162TIP3    H218440   5.778   2.193   5.019
 6163TIP3   OH218441   5.445   1.903   3.664
 6163TIP3    H118442   5.485   1.833   3.608
 6163TIP3    H218443   5.513   1.973   3.661
 6164TIP3   OH218444   3.854   1.733   4.424
 6164TIP3    H118445   3.761   1.727   4.452
 6164TIP3    H218446   3.848   1.792   4.346
 6165TIP3   OH218447   5.017   3.437   3.928
 6165TIP3    H118448   5.072   3.430   3.847
 6165TIP3    H218449   5.064   3.504   3.979
 6166TIP3   OH218450   4.075   1.812   5.237
 6166TIP3    H118451   4.023   1.809   5.319
 6166TIP3    H218452   4.010   1.852   5.176
 6167TIP3   OH218453   4.123   3.231   5.316
 6167TIP3    H118454   4.027   3.218   5.300
 6167TIP3    H218455   4.126   3.223   5.412
 6168TIP3   OH218456   4.288   3.261   4.850
 6168TIP3    H118457   4.230   3.338   4.856
 6168TIP3    H218458   4.374   3.298   4.821
 6169TIP3   OH218459   4.734   3.518   4.997
 6169TIP3    H118460   4.774   3.516   5.087
 6169TIP3    H218461   4.801   3.570   4.948
 6170TIP3   OH218462   4.915   3.673   4.860
 6170TIP3    H118463   4.986   3.621   4.820
 6170TIP3    H218464   4.966   3.729   4.922
 6171TIP3   OH218465   5.712   2.029   4.959
 6171TIP3    H118466   5.622   2.017   4.926
 6171TIP3    H218467   5.747   1.937   4.951
 6172TIP3   OH218468   4.007   3.523   4.892
 6172TIP3    H118469   3.925   3.556   4.853
 6172TIP3    H218470   4.005   3.565   4.979
 6173TIP3   OH218471   4.171   3.515   4.678
 6173TIP3    H118472   4.112   3.512   4.759
 6173TIP3    H218473   4.131   3.596   4.639
 6174TIP3   OH218474   4.621   3.540   4.540
 6174TIP3    H118475   4.615   3.573   4.450
 6174TIP3    H218476   4.631   3.622   4.592
 6175TIP3   OH218477   4.896   3.478   4.593
 6175TIP3    H118478   4.804   3.499   4.573
 6175TIP3    H218479   4.944   3.552   4.552
 6176TIP3   OH218480   5.099   3.666   4.506
 6176TIP3    H118481   5.091   3.752   4.460
 6176TIP3    H218482   5.130   3.607   4.434
 6177TIP3   OH218483   3.893   3.327   4.639
 6177TIP3    H118484   3.902   3.291   4.730
 6177TIP3    H218485   3.964   3.280   4.595
 6178TIP3   OH218486   4.139   3.200   4.513
 6178TIP3    H118487   4.079   3.133   4.554
 6178TIP3    H218488   4.198   3.134   4.472
 6179TIP3   OH218489   4.915   1.946   4.580
 6179TIP3    H118490   4.872   1.875   4.630
 6179TIP3    H218491   4.989   1.899   4.537
 6180TIP3   OH218492   5.435   1.824   4.481
 6180TIP3    H118493   5.472   1.878   4.407
 6180TIP3    H218494   5.340   1.846   4.476
 6181TIP3   OH218495   5.531   1.925   4.245
 6181TIP3    H118496   5.606   1.874   4.207
 6181TIP3    H218497   5.565   2.017   4.232
 6182TIP3   OH218498   4.163   1.655   4.592
 6182TIP3    H118499   4.070   1.623   4.596
 6182TIP3    H218500   4.210   1.569   4.588
 6183TIP3   OH218501   3.954   1.526   4.244
 6183TIP3    H118502   3.980   1.583   4.169
 6183TIP3    H218503   3.925   1.592   4.310
 6184TIP3   OH218504   4.610   1.684   4.475
 6184TIP3    H118505   4.665   1.733   4.412
 6184TIP3    H218506   4.632   1.727   4.559
 6185TIP3   OH218507   5.151   1.835   4.457
 6185TIP3    H118508   5.151   1.795   4.370
 6185TIP3    H218509   5.139   1.756   4.515
 6186TIP3   OH218510   5.183   1.759   4.021
 6186TIP3    H118511   5.098   1.803   4.037
 6186TIP3    H218512   5.169   1.673   4.066
 6187TIP3   OH218513   3.657   3.121   4.026
 6187TIP3    H118514   3.585   3.078   3.976
 6187TIP3    H218515   3.618   3.209   4.034
 6188TIP3   OH218516   4.069   1.683   4.004
 6188TIP3    H118517   4.116   1.620   3.946
 6188TIP3    H218518   4.143   1.736   4.039
 6189TIP3   OH218519   4.579   1.862   4.103
 6189TIP3    H118520   4.638   1.814   4.164
 6189TIP3    H218521   4.601   1.954   4.129
 6190TIP3   OH218522   4.442   3.282   3.604
 6190TIP3    H118523   4.530   3.303   3.566
 6190TIP3    H218524   4.417   3.209   3.542
 6191TIP3   OH218525   5.167   3.409   3.697
 6191TIP3    H118526   5.161   3.311   3.688
 6191TIP3    H218527   5.111   3.438   3.622
 6192TIP3   OH218528   4.372   1.938   5.497
 6192TIP3    H118529   4.340   1.871   5.561
 6192TIP3    H218530   4.443   1.891   5.453
 6193TIP3   OH218531   3.746   3.113   3.658
 6193TIP3    H118532   3.747   3.140   3.751
 6193TIP3    H218533   3.836   3.074   3.646
 6194TIP3   OH218534   5.447   1.996   5.394
 6194TIP3    H118535   5.466   1.961   5.483
 6194TIP3    H218536   5.536   1.992   5.352
 6195TIP3   OH218537   5.384   3.547   4.882
 6195TIP3    H118538   5.305   3.516   4.833
 6195TIP3    H218539   5.363   3.643   4.890
 6196TIP3   OH218540   6.646   2.917   3.650
 6196TIP3    H118541   6.617   3.008   3.625
 6196TIP3    H218542   6.575   2.866   3.607
 6197TIP3   OH218543   6.647   2.925   4.035
 6197TIP3    H118544   6.682   2.892   4.120
 6197TIP3    H218545   6.611   2.845   3.995
 6198TIP3   OH218546   5.947   2.813   4.398
 6198TIP3    H118547   5.976   2.744   4.460
 6198TIP3    H218548   6.029   2.863   4.386
 6199TIP3   OH218549   6.891   3.227   3.714
 6199TIP3    H118550   6.880   3.152   3.773
 6199TIP3    H218551   6.929   3.295   3.772
 6200TIP3   OH218552   5.922   3.226   4.119
 6200TIP3    H118553   5.913   3.129   4.119
 6200TIP3    H218554   6.019   3.234   4.110
 6201TIP3   OH218555   5.628   2.424   3.901
 6201TIP3    H118556   5.582   2.508   3.921
 6201TIP3    H218557   5.555   2.374   3.860
 6202TIP3   OH218558   5.685   2.713   4.080
 6202TIP3    H118559   5.734   2.635   4.114
 6202TIP3    H218560   5.746   2.749   4.014
 6203TIP3   OH218561   6.550   3.685   3.737
 6203TIP3    H118562   6.586   3.618   3.675
 6203TIP3    H218563   6.542   3.632   3.817
 6204TIP3   OH218564   6.447   3.148   4.082
 6204TIP3    H118565   6.486   3.070   4.038
 6204TIP3    H218566   6.531   3.194   4.105
 6205TIP3   OH218567   7.449   2.459   4.092
 6205TIP3    H118568   7.478   2.547   4.123
 6205TIP3    H218569   7.480   2.460   3.999
 6206TIP3   OH218570   6.857   2.646   4.110
 6206TIP3    H118571   6.903   2.562   4.131
 6206TIP3    H218572   6.828   2.629   4.018
 6207TIP3   OH218573   6.201   2.306   4.076
 6207TIP3    H118574   6.183   2.379   4.013
 6207TIP3    H218575   6.152   2.234   4.031
 6208TIP3   OH218576   6.895   2.399   3.697
 6208TIP3    H118577   6.967   2.385   3.763
 6208TIP3    H218578   6.947   2.433   3.622
 6209TIP3   OH218579   5.833   2.507   4.183
 6209TIP3    H118580   5.916   2.490   4.231
 6209TIP3    H218581   5.849   2.452   4.103
 6210TIP3   OH218582   6.272   2.705   3.983
 6210TIP3    H118583   6.367   2.682   3.991
 6210TIP3    H218584   6.235   2.621   3.947
 6211TIP3   OH218585   7.523   2.674   4.248
 6211TIP3    H118586   7.440   2.724   4.230
 6211TIP3    H218587   7.558   2.721   4.327
 6212TIP3   OH218588   6.196   2.290   4.511
 6212TIP3    H118589   6.136   2.327   4.443
 6212TIP3    H218590   6.143   2.306   4.592
 6213TIP3   OH218591   6.542   3.141   3.529
 6213TIP3    H118592   6.511   3.124   3.436
 6213TIP3    H218593   6.488   3.219   3.550
 6214TIP3   OH218594   6.304   3.066   4.302
 6214TIP3    H118595   6.244   3.135   4.339
 6214TIP3    H218596   6.346   3.113   4.227
 6215TIP3   OH218597   7.102   2.404   3.873
 6215TIP3    H118598   7.093   2.360   3.959
 6215TIP3    H218599   7.155   2.482   3.897
 6216TIP3   OH218600   6.067   2.405   4.294
 6216TIP3    H118601   6.130   2.477   4.319
 6216TIP3    H218602   6.116   2.365   4.219
 6217TIP3   OH218603   6.132   3.262   4.406
 6217TIP3    H118604   6.105   3.347   4.367
 6217TIP3    H218605   6.053   3.242   4.460
 6218TIP3   OH218606   5.522   2.950   3.638
 6218TIP3    H118607   5.484   2.980   3.554
 6218TIP3    H218608   5.555   3.035   3.676
 6219TIP3   OH218609   6.964   3.469   3.883
 6219TIP3    H118610   6.873   3.458   3.919
 6219TIP3    H218611   6.954   3.553   3.834
 6220TIP3   OH218612   7.248   2.357   4.246
 6220TIP3    H118613   7.165   2.392   4.210
 6220TIP3    H218614   7.315   2.394   4.184
 6221TIP3   OH218615   6.548   2.006   4.226
 6221TIP3    H118616   6.532   1.912   4.244
 6221TIP3    H218617   6.472   2.046   4.273
 6222TIP3   OH218618   6.656   3.514   3.547
 6222TIP3    H118619   6.705   3.429   3.532
 6222TIP3    H218620   6.723   3.576   3.509
 6223TIP3   OH218621   6.801   3.300   3.463
 6223TIP3    H118622   6.780   3.220   3.413
 6223TIP3    H218623   6.837   3.262   3.546
 6224TIP3   OH218624   7.187   3.377   4.224
 6224TIP3    H118625   7.178   3.299   4.165
 6224TIP3    H218626   7.175   3.451   4.161
 6225TIP3   OH218627   6.481   2.776   3.478
 6225TIP3    H118628   6.403   2.832   3.456
 6225TIP3    H218629   6.524   2.770   3.391
 6226TIP3   OH218630   6.435   2.519   3.225
 6226TIP3    H118631   6.478   2.605   3.238
 6226TIP3    H218632   6.498   2.478   3.162
 6227TIP3   OH218633   7.377   3.009   4.072
 6227TIP3    H118634   7.300   3.069   4.073
 6227TIP3    H218635   7.418   3.031   3.987
 6228TIP3   OH218636   6.829   2.861   3.449
 6228TIP3    H118637   6.773   2.880   3.527
 6228TIP3    H218638   6.912   2.833   3.492
 6229TIP3   OH218639   7.062   2.891   4.368
 6229TIP3    H118640   7.060   2.977   4.413
 6229TIP3    H218641   6.976   2.894   4.321
 6230TIP3   OH218642   6.059   2.850   3.874
 6230TIP3    H118643   6.019   2.793   3.805
 6230TIP3    H218644   6.137   2.797   3.902
 6231TIP3   OH218645   6.191   3.265   4.017
 6231TIP3    H118646   6.169   3.232   3.929
 6231TIP3    H218647   6.279   3.226   4.033
 6232TIP3   OH218648   6.193   2.823   4.225
 6232TIP3    H118649   6.227   2.795   4.137
 6232TIP3    H218650   6.241   2.908   4.240
 6233TIP3   OH218651   6.718   3.464   4.001
 6233TIP3    H118652   6.713   3.539   4.063
 6233TIP3    H218653   6.706   3.386   4.059
 6234TIP3   OH218654   6.336   3.382   4.547
 6234TIP3    H118655   6.273   3.441   4.594
 6234TIP3    H218656   6.273   3.327   4.497
 6235TIP3   OH218657   6.667   2.711   3.271
 6235TIP3    H118658   6.726   2.779   3.308
 6235TIP3    H218659   6.629   2.758   3.192
 6236TIP3   OH218660   6.092   2.934   4.653
 6236TIP3    H118661   6.095   3.022   4.695
 6236TIP3    H218662   5.997   2.913   4.664
 6237TIP3   OH218663   6.408   3.400   3.566
 6237TIP3    H118664   6.497   3.439   3.561
 6237TIP3    H218665   6.356   3.456   3.508
 6238TIP3   OH218666   6.128   3.549   4.637
 6238TIP3    H118667   6.094   3.547   4.546
 6238TIP3    H218668   6.048   3.525   4.690
 6239TIP3   OH218669   7.165   1.969   3.334
 6239TIP3    H118670   7.087   1.994   3.388
 6239TIP3    H218671   7.185   2.053   3.288
 6240TIP3   OH218672   5.926   2.695   3.677
 6240TIP3    H118673   5.860   2.738   3.619
 6240TIP3    H218674   5.890   2.607   3.687
 6241TIP3   OH218675   6.984   3.320   2.876
 6241TIP3    H118676   6.994   3.416   2.861
 6241TIP3    H218677   7.075   3.288   2.862
 6242TIP3   OH218678   5.709   3.079   4.581
 6242TIP3    H118679   5.641   3.057   4.513
 6242TIP3    H218680   5.746   2.992   4.603
 6243TIP3   OH218681   5.561   3.267   4.220
 6243TIP3    H118682   5.656   3.266   4.202
 6243TIP3    H218683   5.551   3.351   4.267
 6244TIP3   OH218684   7.425   3.727   4.266
 6244TIP3    H118685   7.429   3.630   4.279
 6244TIP3    H218686   7.343   3.748   4.316
 6245TIP3   OH218687   6.530   3.511   4.406
 6245TIP3    H118688   6.525   3.603   4.440
 6245TIP3    H218689   6.459   3.468   4.459
 6246TIP3   OH218690   6.293   3.635   3.358
 6246TIP3    H118691   6.251   3.614   3.272
 6246TIP3    H218692   6.260   3.724   3.376
 6247TIP3   OH218693   5.732   3.493   3.744
 6247TIP3    H118694   5.781   3.484   3.829
 6247TIP3    H218695   5.672   3.417   3.752
 6248TIP3   OH218696   6.495   3.538   2.995
 6248TIP3    H118697   6.552   3.467   2.959
 6248TIP3    H218698   6.530   3.547   3.086
 6249TIP3   OH218699   6.545   3.588   3.266
 6249TIP3    H118700   6.458   3.595   3.310
 6249TIP3    H218701   6.597   3.541   3.333
 6250TIP3   OH218702   7.311   2.851   4.544
 6250TIP3    H118703   7.234   2.859   4.486
 6250TIP3    H218704   7.332   2.756   4.535
 6251TIP3   OH218705   5.911   3.264   4.569
 6251TIP3    H118706   5.961   3.244   4.651
 6251TIP3    H218707   5.838   3.199   4.575
 6252TIP3   OH218708   6.312   2.084   4.356
 6252TIP3    H118709   6.223   2.054   4.327
 6252TIP3    H218710   6.287   2.165   4.404
 6253TIP3   OH218711   6.848   2.199   4.549
 6253TIP3    H118712   6.917   2.170   4.612
 6253TIP3    H218713   6.765   2.180   4.597
 6254TIP3   OH218714   7.080   2.626   4.465
 6254TIP3    H118715   7.032   2.627   4.551
 6254TIP3    H218716   7.063   2.715   4.429
 6255TIP3   OH218717   6.452   2.128   3.324
 6255TIP3    H118718   6.421   2.126   3.416
 6255TIP3    H218719   6.415   2.044   3.292
 6256TIP3   OH218720   6.244   2.601   4.374
 6256TIP3    H118721   6.193   2.622   4.455
 6256TIP3    H218722   6.228   2.682   4.320
 6257TIP3   OH218723   6.129   2.487   3.887
 6257TIP3    H118724   6.036   2.461   3.905
 6257TIP3    H218725   6.141   2.446   3.798
 6258TIP3   OH218726   6.615   2.571   3.613
 6258TIP3    H118727   6.566   2.643   3.567
 6258TIP3    H218728   6.671   2.538   3.540
 6259TIP3   OH218729   6.793   2.850   4.703
 6259TIP3    H118730   6.771   2.776   4.764
 6259TIP3    H218731   6.888   2.859   4.719
 6260TIP3   OH218732   6.772   2.599   3.852
 6260TIP3    H118733   6.712   2.629   3.780
 6260TIP3    H218734   6.808   2.520   3.807
 6261TIP3   OH218735   6.063   2.628   4.582
 6261TIP3    H118736   6.094   2.690   4.649
 6261TIP3    H218737   6.053   2.546   4.633
 6262TIP3   OH218738   6.105   2.103   3.291
 6262TIP3    H118739   6.104   2.103   3.389
 6262TIP3    H218740   6.033   2.164   3.271
 6263TIP3   OH218741   5.657   2.148   4.163
 6263TIP3    H118742   5.731   2.183   4.217
 6263TIP3    H218743   5.701   2.121   4.081
 6264TIP3   OH218744   5.624   2.130   3.679
 6264TIP3    H118745   5.673   2.166   3.603
 6264TIP3    H218746   5.565   2.206   3.698
 6265TIP3   OH218747   6.783   2.844   4.276
 6265TIP3    H118748   6.817   2.773   4.215
 6265TIP3    H218749   6.754   2.788   4.351
 6266TIP3   OH218750   6.459   2.306   3.947
 6266TIP3    H118751   6.378   2.307   4.003
 6266TIP3    H218752   6.529   2.303   4.014
 6267TIP3   OH218753   5.890   2.365   3.955
 6267TIP3    H118754   5.795   2.372   3.927
 6267TIP3    H218755   5.913   2.274   3.932
 6268TIP3   OH218756   6.156   2.360   3.644
 6268TIP3    H118757   6.251   2.375   3.625
 6268TIP3    H218758   6.112   2.380   3.559
 6269TIP3   OH218759   6.946   2.386   4.153
 6269TIP3    H118760   6.911   2.398   4.244
 6269TIP3    H218761   6.881   2.325   4.116
 6270TIP3   OH218762   6.003   2.389   3.418
 6270TIP3    H118763   5.928   2.355   3.366
 6270TIP3    H218764   6.056   2.432   3.348
 6271TIP3   OH218765   7.119   4.075   4.370
 6271TIP3    H118766   7.118   4.097   4.275
 6271TIP3    H218767   7.201   4.120   4.399
 6272TIP3   OH218768   6.075   3.186   4.789
 6272TIP3    H118769   6.154   3.214   4.838
 6272TIP3    H218770   6.010   3.180   4.862
 6273TIP3   OH218771   6.537   2.636   4.043
 6273TIP3    H118772   6.612   2.602   3.992
 6273TIP3    H218773   6.547   2.590   4.129
 6274TIP3   OH218774   6.057   2.125   3.926
 6274TIP3    H118775   6.022   2.047   3.974
 6274TIP3    H218776   6.106   2.084   3.854
 6275TIP3   OH218777   6.514   2.534   4.337
 6275TIP3    H118778   6.424   2.571   4.349
 6275TIP3    H218779   6.571   2.597   4.385
 6276TIP3   OH218780   6.241   2.920   3.429
 6276TIP3    H118781   6.168   2.856   3.420
 6276TIP3    H218782   6.226   2.957   3.519
 6277TIP3   OH218783   7.147   3.163   4.060
 6277TIP3    H118784   7.179   3.204   3.976
 6277TIP3    H218785   7.066   3.117   4.030
 6278TIP3   OH218786   6.707   2.234   3.299
 6278TIP3    H118787   6.610   2.221   3.299
 6278TIP3    H218788   6.716   2.330   3.318
 6279TIP3   OH218789   6.650   3.244   4.426
 6279TIP3    H118790   6.678   3.221   4.515
 6279TIP3    H218791   6.611   3.332   4.436
 6280TIP3   OH218792   6.776   2.486   3.399
 6280TIP3    H118793   6.872   2.498   3.412
 6280TIP3    H218794   6.752   2.565   3.345
 6281TIP3   OH218795   5.944   2.949   4.105
 6281TIP3    H118796   5.981   2.920   4.019
 6281TIP3    H218797   5.989   2.889   4.166
 6282TIP3   OH218798   6.428   3.103   3.292
 6282TIP3    H118799   6.360   3.171   3.277
 6282TIP3    H218800   6.377   3.021   3.284
 6283TIP3   OH218801   5.826   2.867   4.719
 6283TIP3    H118802   5.843   2.852   4.814
 6283TIP3    H218803   5.757   2.801   4.701
 6284TIP3   OH218804   6.551   2.984   4.737
 6284TIP3    H118805   6.490   2.923   4.693
 6284TIP3    H218806   6.638   2.945   4.710
 6285TIP3   OH218807   6.808   3.511   4.321
 6285TIP3    H118808   6.713   3.502   4.337
 6285TIP3    H218809   6.836   3.559   4.401
 6286TIP3   OH218810   7.215   2.577   3.228
 6286TIP3    H118811   7.153   2.534   3.166
 6286TIP3    H218812   7.210   2.668   3.190
 6287TIP3   OH218813   7.439   3.444   4.307
 6287TIP3    H118814   7.342   3.431   4.302
 6287TIP3    H218815   7.464   3.407   4.219
 6288TIP3   OH218816   6.921   3.393   3.142
 6288TIP3    H118817   6.894   3.321   3.201
 6288TIP3    H218818   6.933   3.346   3.057
 6289TIP3   OH218819   6.915   3.024   3.977
 6289TIP3    H118820   6.821   2.999   3.987
 6289TIP3    H218821   6.950   2.944   3.933
 6290TIP3   OH218822   6.046   3.255   3.740
 6290TIP3    H118823   6.046   3.330   3.677
 6290TIP3    H218824   5.954   3.228   3.738
 6291TIP3   OH218825   5.596   2.558   3.416
 6291TIP3    H118826   5.650   2.635   3.445
 6291TIP3    H218827   5.529   2.556   3.487
 6292TIP3   OH218828   6.175   3.013   3.675
 6292TIP3    H118829   6.148   3.104   3.696
 6292TIP3    H218830   6.142   2.964   3.752
 6293TIP3   OH218831   6.315   3.596   4.199
 6293TIP3    H118832   6.361   3.665   4.147
 6293TIP3    H218833   6.390   3.553   4.244
 6294TIP3   OH218834   5.959   3.495   3.580
 6294TIP3    H118835   5.874   3.498   3.630
 6294TIP3    H218836   5.987   3.588   3.584
 6295TIP3   OH218837   6.702   3.230   4.156
 6295TIP3    H118838   6.693   3.225   4.254
 6295TIP3    H218839   6.777   3.172   4.140
 6296TIP3   OH218840   6.671   3.119   3.038
 6296TIP3    H118841   6.720   3.107   3.122
 6296TIP3    H218842   6.607   3.045   3.047
 6297TIP3   OH218843   6.949   3.764   4.213
 6297TIP3    H118844   6.871   3.705   4.207
 6297TIP3    H218845   6.932   3.825   4.137
 6298TIP3   OH218846   7.017   3.596   2.860
 6298TIP3    H118847   7.052   3.670   2.808
 6298TIP3    H218848   6.936   3.638   2.895
 6299TIP3   OH218849   6.034   2.372   4.725
 6299TIP3    H118850   5.938   2.373   4.738
 6299TIP3    H218851   6.064   2.316   4.799
 6300TIP3   OH218852   6.841   3.070   3.263
 6300TIP3    H118853   6.827   2.998   3.327
 6300TIP3    H218854   6.937   3.057   3.244
 6301TIP3   OH218855   5.755   3.456   4.357
 6301TIP3    H118856   5.805   3.378   4.386
 6301TIP3    H218857   5.780   3.520   4.425
 6302TIP3   OH218858   6.047   3.097   3.043
 6302TIP3    H118859   6.058   3.002   3.020
 6302TIP3    H218860   6.026   3.090   3.138
 6303TIP3   OH218861   5.986   3.107   3.317
 6303TIP3    H118862   6.070   3.076   3.355
 6303TIP3    H218863   5.994   3.205   3.326
 6304TIP3   OH218864   5.717   2.792   3.516
 6304TIP3    H118865   5.654   2.843   3.572
 6304TIP3    H218866   5.739   2.859   3.449
 6305TIP3   OH218867   6.871   2.440   4.414
 6305TIP3    H118868   6.957   2.475   4.443
 6305TIP3    H218869   6.862   2.357   4.467
 6306TIP3   OH218870   6.753   2.185   3.577
 6306TIP3    H118871   6.738   2.207   3.483
 6306TIP3    H218872   6.792   2.269   3.611
 6307TIP3   OH218873   6.245   3.302   3.261
 6307TIP3    H118874   6.159   3.332   3.294
 6307TIP3    H218875   6.267   3.372   3.198
 6308TIP3   OH218876   6.438   2.369   3.677
 6308TIP3    H118877   6.501   2.441   3.656
 6308TIP3    H218878   6.448   2.361   3.774
 6309TIP3   OH218879   6.711   2.683   4.483
 6309TIP3    H118880   6.737   2.732   4.563
 6309TIP3    H218881   6.765   2.602   4.488
 6310TIP3   OH218882   6.584   2.088   3.776
 6310TIP3    H118883   6.577   2.166   3.834
 6310TIP3    H218884   6.646   2.123   3.707
 6311TIP3   OH218885   5.994   3.383   3.330
 6311TIP3    H118886   5.965   3.455   3.270
 6311TIP3    H218887   5.979   3.424   3.418
 6312TIP3   OH218888   6.099   2.095   3.568
 6312TIP3    H118889   6.097   2.186   3.605
 6312TIP3    H218890   6.195   2.077   3.577
 6313TIP3   OH218891   7.350   2.585   4.474
 6313TIP3    H118892   7.252   2.578   4.472
 6313TIP3    H218893   7.372   2.560   4.383
 6314TIP3   OH218894   7.000   2.783   3.857
 6314TIP3    H118895   6.927   2.720   3.865
 6314TIP3    H218896   7.074   2.735   3.903
 6315TIP3   OH218897   5.716   3.009   3.319
 6315TIP3    H118898   5.795   3.067   3.330
 6315TIP3    H218899   5.757   2.943   3.259
 6316TIP3   OH218900   5.656   2.287   3.454
 6316TIP3    H118901   5.654   2.384   3.448
 6316TIP3    H218902   5.568   2.263   3.421
 6317TIP3   OH218903   6.971   3.740   3.800
 6317TIP3    H118904   6.927   3.789   3.727
 6317TIP3    H218905   7.065   3.762   3.780
 6318TIP3   OH218906   6.046   2.005   4.327
 6318TIP3    H118907   6.017   1.970   4.241
 6318TIP3    H218908   6.037   1.927   4.386
 6319TIP3   OH218909   5.581   3.217   3.705
 6319TIP3    H118910   5.525   3.257   3.773
 6319TIP3    H218911   5.547   3.259   3.623
 6320TIP3   OH218912   5.745   3.769   4.777
 6320TIP3    H118913   5.830   3.766   4.825
 6320TIP3    H218914   5.720   3.675   4.778
 6321TIP3   OH218915   6.234   3.738   4.810
 6321TIP3    H118916   6.321   3.699   4.827
 6321TIP3    H218917   6.197   3.671   4.748
 6322TIP3   OH218918   6.208   3.305   2.951
 6322TIP3    H118919   6.157   3.231   2.991
 6322TIP3    H218920   6.286   3.257   2.917
 6323TIP3   OH218921   6.857   3.640   4.563
 6323TIP3    H118922   6.852   3.568   4.630
 6323TIP3    H218923   6.938   3.687   4.589
 6324TIP3   OH218924   6.637   3.340   2.866
 6324TIP3    H118925   6.668   3.271   2.929
 6324TIP3    H218926   6.703   3.333   2.795
 6325TIP3   OH218927   5.874   3.172   4.980
 6325TIP3    H118928   5.889   3.076   4.990
 6325TIP3    H218929   5.787   3.174   4.935
 6326TIP3   OH218930   5.859   2.822   3.195
 6326TIP3    H118931   5.925   2.793   3.261
 6326TIP3    H218932   5.913   2.823   3.113
 6327TIP3   OH218933   6.480   3.258   4.755
 6327TIP3    H118934   6.439   3.276   4.668
 6327TIP3    H218935   6.510   3.165   4.746
 6328TIP3   OH218936   6.974   3.270   4.366
 6328TIP3    H118937   7.051   3.307   4.320
 6328TIP3    H218938   6.905   3.335   4.343
 6329TIP3   OH218939   5.994   2.910   4.964
 6329TIP3    H118940   6.068   2.853   4.940
 6329TIP3    H218941   6.023   2.941   5.053
 6330TIP3   OH218942   6.045   2.724   3.391
 6330TIP3    H118943   6.034   2.682   3.478
 6330TIP3    H218944   6.095   2.655   3.341
 6331TIP3   OH218945   6.328   2.791   4.625
 6331TIP3    H118946   6.250   2.850   4.623
 6331TIP3    H218947   6.381   2.826   4.550
 6332TIP3   OH218948   6.161   2.520   3.240
 6332TIP3    H118949   6.144   2.528   3.145
 6332TIP3    H218950   6.260   2.514   3.241
 6333TIP3   OH218951   6.850   3.195   4.759
 6333TIP3    H118952   6.920   3.158   4.702
 6333TIP3    H218953   6.841   3.126   4.827
 6334TIP3   OH218954   7.004   2.857   2.890
 6334TIP3    H118955   6.959   2.805   2.821
 6334TIP3    H218956   6.954   2.941   2.880
 6335TIP3   OH218957   6.451   2.581   4.749
 6335TIP3    H118958   6.452   2.501   4.692
 6335TIP3    H218959   6.407   2.647   4.691
 6336TIP3   OH218960   6.454   2.366   4.561
 6336TIP3    H118961   6.483   2.408   4.477
 6336TIP3    H218962   6.361   2.344   4.541
 6337TIP3   OH218963   6.478   2.901   4.434
 6337TIP3    H118964   6.563   2.909   4.390
 6337TIP3    H218965   6.423   2.965   4.385
 6338TIP3   OH218966   7.067   2.868   4.813
 6338TIP3    H118967   7.109   2.781   4.819
 6338TIP3    H218968   7.134   2.918   4.765
 6339TIP3   OH218969   7.102   3.125   4.554
 6339TIP3    H118970   7.045   3.178   4.493
 6339TIP3    H218971   7.190   3.143   4.515
 6340TIP3   OH218972   6.331   2.686   4.984
 6340TIP3    H118973   6.263   2.618   4.999
 6340TIP3    H218974   6.363   2.662   4.895
 6341TIP3   OH218975   6.586   2.127   4.627
 6341TIP3    H118976   6.536   2.208   4.605
 6341TIP3    H218977   6.517   2.058   4.617
 6342TIP3   OH218978   6.710   2.631   4.843
 6342TIP3    H118979   6.694   2.614   4.938
 6342TIP3    H218980   6.622   2.607   4.808
 6343TIP3   OH218981   6.953   2.592   4.702
 6343TIP3    H118982   6.878   2.585   4.764
 6343TIP3    H218983   7.027   2.556   4.755
 6344TIP3   OH218984   7.180   2.524   4.849
 6344TIP3    H118985   7.193   2.428   4.863
 6344TIP3    H218986   7.178   2.559   4.940
 6345TIP3   OH218987   6.169   2.467   5.037
 6345TIP3    H118988   6.172   2.375   5.005
 6345TIP3    H218989   6.208   2.456   5.126
 6346TIP3   OH218990   6.682   2.139   4.884
 6346TIP3    H118991   6.746   2.066   4.879
 6346TIP3    H218992   6.641   2.134   4.796
 6347TIP3   OH218993   6.749   2.355   5.042
 6347TIP3    H118994   6.728   2.282   4.979
 6347TIP3    H218995   6.668   2.411   5.036
 6348TIP3   OH218996   5.969   3.589   3.144
 6348TIP3    H118997   6.064   3.576   3.127
 6348TIP3    H218998   5.944   3.636   3.063
 6349TIP3   OH218999   5.449   2.965   3.356
 6349TIP3    H119000   5.543   2.991   3.343
 6349TIP3    H219001   5.447   2.880   3.308
 6350TIP3   OH219002   5.512   3.423   3.944
 6350TIP3    H119003   5.476   3.361   4.008
 6350TIP3    H219004   5.549   3.491   4.002
 6351TIP3   OH219005   7.216   3.855   3.760
 6351TIP3    H119006   7.256   3.867   3.848
 6351TIP3    H219007   7.293   3.861   3.701
 6352TIP3   OH219008   7.256   3.847   4.046
 6352TIP3    H119009   7.209   3.761   4.037
 6352TIP3    H219010   7.330   3.819   4.102
 6353TIP3   OH219011   7.300   3.525   4.617
 6353TIP3    H119012   7.226   3.536   4.681
 6353TIP3    H219013   7.343   3.612   4.620
 6354TIP3   OH219014   7.114   3.041   3.227
 6354TIP3    H119015   7.187   3.101   3.201
 6354TIP3    H219016   7.153   2.998   3.307
 6355TIP3   OH219017   7.227   2.899   3.426
 6355TIP3    H119018   7.171   2.860   3.497
 6355TIP3    H219019   7.306   2.932   3.475
 6356TIP3   OH219020   7.278   3.281   3.856
 6356TIP3    H119021   7.359   3.269   3.802
 6356TIP3    H219022   7.241   3.360   3.814
 6357TIP3   OH219023   7.130   3.599   4.064
 6357TIP3    H119024   7.056   3.635   4.116
 6357TIP3    H219025   7.082   3.551   3.992
 6358TIP3   OH219026   7.182   2.809   3.087
 6358TIP3    H119027   7.117   2.816   3.013
 6358TIP3    H219028   7.152   2.885   3.141
 6359TIP3   OH219029   7.057   2.478   3.032
 6359TIP3    H119030   7.011   2.524   2.961
 6359TIP3    H219031   7.028   2.386   3.017
 6360TIP3   OH219032   7.052   2.760   3.588
 6360TIP3    H119033   7.063   2.664   3.580
 6360TIP3    H219034   7.040   2.773   3.685
 6361TIP3   OH219035   5.682   2.834   4.332
 6361TIP3    H119036   5.681   2.801   4.240
 6361TIP3    H219037   5.780   2.836   4.349
 6362TIP3   OH219038   7.344   3.190   4.440
 6362TIP3    H119039   7.418   3.125   4.437
 6362TIP3    H219040   7.369   3.250   4.367
 6363TIP3   OH219041   7.529   3.003   4.496
 6363TIP3    H119042   7.451   2.946   4.512
 6363TIP3    H219043   7.598   2.935   4.487
 6364TIP3   OH219044   6.996   2.212   3.012
 6364TIP3    H119045   7.066   2.187   3.076
 6364TIP3    H219046   6.919   2.159   3.039
 6365TIP3   OH219047   7.057   2.478   3.480
 6365TIP3    H119048   7.100   2.390   3.493
 6365TIP3    H219049   7.114   2.513   3.409
 6366TIP3   OH219050   7.213   2.650   3.974
 6366TIP3    H119051   7.299   2.678   3.934
 6366TIP3    H219052   7.228   2.685   4.064
 6367TIP3   OH219053   7.282   2.794   4.207
 6367TIP3    H119054   7.205   2.832   4.252
 6367TIP3    H219055   7.319   2.872   4.159
 6368TIP3   OH219056   5.904   2.521   5.007
 6368TIP3    H119057   6.001   2.515   5.010
 6368TIP3    H219058   5.880   2.434   5.044
 6369TIP3   OH219059   7.743   2.387   4.752
 6369TIP3    H119060   7.792   2.326   4.695
 6369TIP3    H219061   7.700   2.445   4.685
 6370TIP3   OH219062   7.165   2.227   3.515
 6370TIP3    H119063   7.212   2.215   3.601
 6370TIP3    H219064   7.100   2.155   3.520
 6371TIP3   OH219065   5.862   2.214   4.337
 6371TIP3    H119066   5.924   2.138   4.346
 6371TIP3    H219067   5.925   2.288   4.328
 6372TIP3   OH219068   5.663   2.485   4.407
 6372TIP3    H119069   5.714   2.483   4.323
 6372TIP3    H219070   5.693   2.569   4.445
 6373TIP3   OH219071   7.600   2.519   4.568
 6373TIP3    H119072   7.514   2.564   4.579
 6373TIP3    H219073   7.572   2.451   4.503
 6374TIP3   OH219074   7.238   2.164   3.150
 6374TIP3    H119075   7.286   2.093   3.104
 6374TIP3    H219076   7.301   2.239   3.146
 6375TIP3   OH219077   5.650   1.987   3.908
 6375TIP3    H119078   5.557   1.984   3.938
 6375TIP3    H219079   5.644   2.048   3.831
 6376TIP3   OH219080   6.807   3.701   3.417
 6376TIP3    H119081   6.854   3.683   3.332
 6376TIP3    H219082   6.872   3.756   3.462
 6377TIP3   OH219083   5.870   2.070   4.723
 6377TIP3    H119084   5.820   2.065   4.806
 6377TIP3    H219085   5.803   2.108   4.663
 6378TIP3   OH219086   5.909   3.504   4.803
 6378TIP3    H119087   5.818   3.475   4.784
 6378TIP3    H219088   5.919   3.474   4.895
 6379TIP3   OH219089   6.090   3.536   4.352
 6379TIP3    H119090   6.040   3.608   4.309
 6379TIP3    H219091   6.175   3.548   4.306
 6380TIP3   OH219092   6.524   3.788   4.492
 6380TIP3    H119093   6.572   3.775   4.577
 6380TIP3    H219094   6.594   3.829   4.438
 6381TIP3   OH219095   6.707   3.930   4.346
 6381TIP3    H119096   6.773   3.877   4.298
 6381TIP3    H219097   6.766   3.982   4.405
 6382TIP3   OH219098   7.492   2.280   4.454
 6382TIP3    H119099   7.404   2.268   4.414
 6382TIP3    H219100   7.530   2.189   4.442
 6383TIP3   OH219101   5.767   3.796   4.369
 6383TIP3    H119102   5.675   3.824   4.348
 6383TIP3    H219103   5.770   3.818   4.463
 6384TIP3   OH219104   6.002   3.771   4.231
 6384TIP3    H119105   5.914   3.781   4.276
 6384TIP3    H219106   5.979   3.791   4.139
 6385TIP3   OH219107   6.424   3.796   4.033
 6385TIP3    H119108   6.358   3.809   3.962
 6385TIP3    H219109   6.437   3.887   4.067
 6386TIP3   OH219110   6.695   3.738   4.089
 6386TIP3    H119111   6.603   3.752   4.060
 6386TIP3    H219112   6.744   3.801   4.033
 6387TIP3   OH219113   6.898   3.923   3.992
 6387TIP3    H119114   6.887   4.007   3.943
 6387TIP3    H219115   6.930   3.863   3.921
 6388TIP3   OH219116   5.678   3.583   4.120
 6388TIP3    H119117   5.703   3.552   4.209
 6388TIP3    H219118   5.746   3.535   4.067
 6389TIP3   OH219119   5.871   3.454   3.977
 6389TIP3    H119120   5.884   3.368   4.025
 6389TIP3    H219121   5.963   3.486   3.971
 6390TIP3   OH219122   6.141   3.550   3.980
 6390TIP3    H119123   6.168   3.458   3.961
 6390TIP3    H219124   6.189   3.564   4.064
 6391TIP3   OH219125   6.710   2.203   4.065
 6391TIP3    H119126   6.668   2.131   4.115
 6391TIP3    H219127   6.786   2.159   4.023
 6392TIP3   OH219128   7.228   2.076   3.969
 6392TIP3    H119129   7.268   2.132   3.899
 6392TIP3    H219130   7.135   2.104   3.965
 6393TIP3   OH219131   7.320   2.187   3.738
 6393TIP3    H119132   7.393   2.137   3.695
 6393TIP3    H219133   7.351   2.279   3.720
 6394TIP3   OH219134   5.959   1.911   4.079
 6394TIP3    H119135   5.866   1.879   4.083
 6394TIP3    H219136   6.007   1.826   4.075
 6395TIP3   OH219137   5.748   1.783   3.730
 6395TIP3    H119138   5.777   1.839   3.657
 6395TIP3    H219139   5.721   1.849   3.797
 6396TIP3   OH219140   6.406   1.941   3.963
 6396TIP3    H119141   6.459   1.989   3.898
 6396TIP3    H219142   6.432   1.984   4.046
 6397TIP3   OH219143   6.941   2.093   3.946
 6397TIP3    H119144   6.948   2.056   3.857
 6397TIP3    H219145   6.932   2.011   4.001
 6398TIP3   OH219146   6.971   2.022   3.519
 6398TIP3    H119147   6.885   2.067   3.534
 6398TIP3    H219148   6.954   1.934   3.558
 6399TIP3   OH219149   5.468   3.350   3.498
 6399TIP3    H119150   5.383   3.325   3.456
 6399TIP3    H219151   5.449   3.440   3.527
 6400TIP3   OH219152   5.866   1.940   3.491
 6400TIP3    H119153   5.914   1.877   3.433
 6400TIP3    H219154   5.941   1.994   3.526
 6401TIP3   OH219155   6.375   2.117   3.591
 6401TIP3    H119156   6.438   2.072   3.650
 6401TIP3    H219157   6.396   2.211   3.614
 6402TIP3   OH219158   6.235   3.540   3.091
 6402TIP3    H119159   6.324   3.562   3.055
 6402TIP3    H219160   6.214   3.466   3.031
 6403TIP3   OH219161   6.953   3.659   3.185
 6403TIP3    H119162   6.947   3.561   3.175
 6403TIP3    H219163   6.909   3.689   3.103
 6404TIP3   OH219164   6.167   2.193   4.973
 6404TIP3    H119165   6.131   2.121   5.028
 6404TIP3    H219166   6.261   2.192   5.002
 6405TIP3   OH219167   6.417   2.192   5.090
 6405TIP3    H119168   6.502   2.161   5.054
 6405TIP3    H219169   6.402   2.124   5.161
 6406TIP3   OH219170   5.544   3.371   3.147
 6406TIP3    H119171   5.553   3.379   3.243
 6406TIP3    H219172   5.630   3.330   3.123
 6407TIP3   OH219173   7.242   2.253   4.879
 6407TIP3    H119174   7.260   2.222   4.970
 6407TIP3    H219175   7.331   2.248   4.838
 6408TIP3   OH219176   7.177   3.804   4.374
 6408TIP3    H119177   7.101   3.774   4.320
 6408TIP3    H219178   7.159   3.900   4.376
 6409TIP3   OH219179   7.682   3.047   3.902
 6409TIP3    H119180   7.774   3.021   3.917
 6409TIP3    H219181   7.691   3.120   3.839
 6410TIP3   OH219182   7.766   3.482   3.580
 6410TIP3    H119183   7.689   3.422   3.592
 6410TIP3    H219184   7.789   3.491   3.676
 6411TIP3   OH219185   7.422   2.668   3.389
 6411TIP3    H119186   7.399   2.760   3.409
 6411TIP3    H219187   7.343   2.638   3.341
 6412TIP3   OH219188   7.474   2.964   3.525
 6412TIP3    H119189   7.516   2.900   3.585
 6412TIP3    H219190   7.514   3.048   3.552
 6413TIP3   OH219191   7.606   2.768   3.675
 6413TIP3    H119192   7.686   2.769   3.731
 6413TIP3    H219193   7.636   2.715   3.599
 6414TIP3   OH219194   7.842   3.517   3.836
 6414TIP3    H119195   7.845   3.614   3.850
 6414TIP3    H219196   7.785   3.490   3.911
 6415TIP3   OH219197   7.322   3.209   3.126
 6415TIP3    H119198   7.278   3.238   3.045
 6415TIP3    H219199   7.355   3.292   3.164
 6416TIP3   OH219200   7.853   3.232   4.120
 6416TIP3    H119201   7.859   3.308   4.180
 6416TIP3    H219202   7.767   3.194   4.146
 6417TIP3   OH219203   7.943   3.818   4.144
 6417TIP3    H119204   7.921   3.803   4.050
 6417TIP3    H219205   7.859   3.790   4.187
 6418TIP3   OH219206   7.501   3.347   4.060
 6418TIP3    H119207   7.472   3.321   3.971
 6418TIP3    H219208   7.531   3.262   4.099
 6419TIP3   OH219209   7.339   3.551   3.688
 6419TIP3    H119210   7.396   3.472   3.677
 6419TIP3    H219211   7.390   3.600   3.755
 6420TIP3   OH219212   7.522   3.742   3.238
 6420TIP3    H119213   7.570   3.732   3.323
 6420TIP3    H219214   7.473   3.657   3.235
 6421TIP3   OH219215   7.699   3.534   4.068
 6421TIP3    H119216   7.756   3.510   4.144
 6421TIP3    H219217   7.629   3.465   4.071
 6422TIP3   OH219218   7.765   2.931   4.178
 6422TIP3    H119219   7.833   2.954   4.112
 6422TIP3    H219220   7.754   2.836   4.163
 6423TIP3   OH219221   7.437   2.405   3.636
 6423TIP3    H119222   7.491   2.439   3.711
 6423TIP3    H219223   7.503   2.386   3.569
 6424TIP3   OH219224   7.414   2.392   3.157
 6424TIP3    H119225   7.490   2.443   3.118
 6424TIP3    H219226   7.354   2.466   3.180
 6425TIP3   OH219227   7.682   2.630   3.445
 6425TIP3    H119228   7.588   2.645   3.419
 6425TIP3    H219229   7.695   2.539   3.417
 6426TIP3   OH219230   7.871   3.452   4.285
 6426TIP3    H119231   7.960   3.435   4.322
 6426TIP3    H219232   7.815   3.444   4.364
 6427TIP3   OH219233   7.593   3.152   4.223
 6427TIP3    H119234   7.642   3.129   4.304
 6427TIP3    H219235   7.587   3.065   4.180
 6428TIP3   OH219236   7.762   3.477   3.190
 6428TIP3    H119237   7.789   3.557   3.142
 6428TIP3    H219238   7.666   3.485   3.191
 6429TIP3   OH219239   7.401   2.797   2.917
 6429TIP3    H119240   7.452   2.879   2.939
 6429TIP3    H219241   7.329   2.803   2.983
 6430TIP3   OH219242   7.725   3.761   3.049
 6430TIP3    H119243   7.650   3.763   3.111
 6430TIP3    H219244   7.763   3.851   3.061
 6431TIP3   OH219245   7.786   2.655   4.176
 6431TIP3    H119246   7.691   2.637   4.192
 6431TIP3    H219247   7.826   2.622   4.258
 6432TIP3   OH219248   7.545   3.709   3.844
 6432TIP3    H119249   7.586   3.624   3.867
 6432TIP3    H219250   7.576   3.764   3.917
 6433TIP3   OH219251   7.507   3.039   2.999
 6433TIP3    H119252   7.446   3.090   3.057
 6433TIP3    H219253   7.556   3.109   2.955
 6434TIP3   OH219254   7.762   3.677   2.768
 6434TIP3    H119255   7.738   3.768   2.748
 6434TIP3    H219256   7.755   3.680   2.866
 6435TIP3   OH219257   7.521   3.283   2.803
 6435TIP3    H119258   7.575   3.349   2.848
 6435TIP3    H219259   7.589   3.227   2.763
 6436TIP3   OH219260   7.383   2.526   2.843
 6436TIP3    H119261   7.409   2.613   2.879
 6436TIP3    H219262   7.337   2.488   2.919
 6437TIP3   OH219263   7.387   3.489   3.191
 6437TIP3    H119264   7.324   3.505   3.263
 6437TIP3    H219265   7.340   3.529   3.113
 6438TIP3   OH219266   7.539   4.024   4.268
 6438TIP3    H119267   7.624   4.022   4.316
 6438TIP3    H219268   7.518   3.929   4.265
 6439TIP3   OH219269   8.015   4.009   4.328
 6439TIP3    H119270   8.071   3.972   4.397
 6439TIP3    H219271   7.989   3.931   4.273
 6440TIP3   OH219272   7.664   3.431   4.472
 6440TIP3    H119273   7.686   3.336   4.469
 6440TIP3    H219274   7.579   3.432   4.421
 6441TIP3   OH219275   7.790   3.183   4.437
 6441TIP3    H119276   7.797   3.087   4.450
 6441TIP3    H219277   7.825   3.213   4.524
 6442TIP3   OH219278   7.244   3.227   2.839
 6442TIP3    H119279   7.340   3.244   2.826
 6442TIP3    H219280   7.237   3.135   2.805
 6443TIP3   OH219281   7.158   3.831   3.264
 6443TIP3    H119282   7.093   3.769   3.225
 6443TIP3    H219283   7.203   3.771   3.328
 6444TIP3   OH219284   7.292   3.678   3.449
 6444TIP3    H119285   7.283   3.611   3.520
 6444TIP3    H219286   7.344   3.743   3.500
 6445TIP3   OH219287   7.660   2.766   4.463
 6445TIP3    H119288   7.756   2.776   4.451
 6445TIP3    H219289   7.655   2.681   4.512
 6446TIP3   OH219290   7.595   2.453   3.860
 6446TIP3    H119291   7.657   2.391   3.904
 6446TIP3    H219292   7.658   2.522   3.834
 6447TIP3   OH219293   7.457   2.753   3.904
 6447TIP3    H119294   7.494   2.749   3.813
 6447TIP3    H219295   7.514   2.822   3.942
 6448TIP3   OH219296   7.450   2.239   3.378
 6448TIP3    H119297   7.369   2.239   3.432
 6448TIP3    H219298   7.429   2.305   3.309
 6449TIP3   OH219299   7.674   2.385   4.271
 6449TIP3    H119300   7.608   2.339   4.326
 6449TIP3    H219301   7.627   2.392   4.187
 6450TIP3   OH219302   7.710   3.766   4.295
 6450TIP3    H119303   7.626   3.729   4.263
 6450TIP3    H219304   7.713   3.732   4.385
 6451TIP3   OH219305   7.881   3.786   3.864
 6451TIP3    H119306   7.826   3.858   3.830
 6451TIP3    H219307   7.949   3.787   3.794
 6452TIP3   OH219308   7.560   4.048   3.862
 6452TIP3    H119309   7.472   4.080   3.836
 6452TIP3    H219310   7.566   4.085   3.951
 6453TIP3   OH219311   7.793   4.014   3.719
 6453TIP3    H119312   7.707   4.026   3.768
 6453TIP3    H219313   7.770   4.058   3.634
 6454TIP3   OH219314   7.470   3.836   3.605
 6454TIP3    H119315   7.497   3.807   3.695
 6454TIP3    H219316   7.539   3.789   3.553
 6455TIP3   OH219317   7.672   3.709   3.467
 6455TIP3    H119318   7.693   3.618   3.500
 6455TIP3    H219319   7.758   3.752   3.482
 6456TIP3   OH219320  -0.094   3.555   4.725
 6456TIP3    H119321  -0.027   3.612   4.685
 6456TIP3    H219322  -0.123   3.612   4.799
 6457TIP3   OH219323   7.260   3.612   2.988
 6457TIP3    H119324   7.174   3.578   2.956
 6457TIP3    H219325   7.248   3.706   2.968
 6458TIP3   OH219326   7.324   3.642   2.639
 6458TIP3    H119327   7.313   3.666   2.732
 6458TIP3    H219328   7.415   3.606   2.637
 6459TIP3   OH219329   0.900   3.965   4.825
 6459TIP3    H119330   0.869   4.056   4.804
 6459TIP3    H219331   0.824   3.914   4.792
 6460TIP3   OH219332   0.898   3.966   5.211
 6460TIP3    H119333   0.934   3.940   5.298
 6460TIP3    H219334   0.859   3.883   5.179
 6461TIP3   OH219335   0.201   3.859   5.531
 6461TIP3    H119336   0.212   3.793   5.601
 6461TIP3    H219337   0.274   3.919   5.549
 6462TIP3   OH219338   1.143   4.270   4.890
 6462TIP3    H119339   1.127   4.199   4.955
 6462TIP3    H219340   1.174   4.343   4.946
 6463TIP3   OH219341   0.232   4.258   5.349
 6463TIP3    H119342   0.251   4.162   5.335
 6463TIP3    H219343   0.308   4.296   5.300
 6464TIP3   OH219344   0.800   4.732   4.909
 6464TIP3    H119345   0.841   4.661   4.857
 6464TIP3    H219346   0.780   4.687   4.992
 6465TIP3   OH219347   0.702   4.192   5.250
 6465TIP3    H119348   0.744   4.114   5.210
 6465TIP3    H219349   0.783   4.239   5.279
 6466TIP3   OH219350   1.713   3.508   5.254
 6466TIP3    H119351   1.742   3.593   5.293
 6466TIP3    H219352   1.741   3.521   5.161
 6467TIP3   OH219353   1.109   3.691   5.286
 6467TIP3    H119354   1.153   3.606   5.308
 6467TIP3    H219355   1.078   3.673   5.195
 6468TIP3   OH219356   0.453   3.353   5.252
 6468TIP3    H119357   0.431   3.425   5.189
 6468TIP3    H219358   0.405   3.279   5.209
 6469TIP3   OH219359   1.144   3.444   4.872
 6469TIP3    H119360   1.214   3.428   4.939
 6469TIP3    H219361   1.199   3.477   4.798
 6470TIP3   OH219362   0.084   3.539   5.365
 6470TIP3    H119363   0.166   3.526   5.416
 6470TIP3    H219364   0.114   3.507   5.278
 6471TIP3   OH219365   0.526   3.751   5.143
 6471TIP3    H119366   0.619   3.723   5.158
 6471TIP3    H219367   0.485   3.666   5.116
 6472TIP3   OH219368   1.786   3.718   5.425
 6472TIP3    H119369   1.702   3.764   5.403
 6472TIP3    H219370   1.802   3.751   5.515
 6473TIP3   OH219371   0.449   3.326   5.679
 6473TIP3    H119372   0.390   3.364   5.611
 6473TIP3    H219373   0.397   3.348   5.759
 6474TIP3   OH219374   0.788   4.186   4.694
 6474TIP3    H119375   0.745   4.171   4.608
 6474TIP3    H219376   0.745   4.269   4.722
 6475TIP3   OH219377   0.572   4.099   5.466
 6475TIP3    H119378   0.521   4.170   5.511
 6475TIP3    H219379   0.609   4.147   5.389
 6476TIP3   OH219380   1.348   3.448   5.049
 6476TIP3    H119381   1.339   3.401   5.133
 6476TIP3    H219382   1.402   3.525   5.074
 6477TIP3   OH219383   0.320   3.448   5.472
 6477TIP3    H119384   0.383   3.519   5.497
 6477TIP3    H219385   0.367   3.409   5.396
 6478TIP3   OH219386   0.413   4.280   5.590
 6478TIP3    H119387   0.380   4.351   5.531
 6478TIP3    H219388   0.329   4.235   5.613
 6479TIP3   OH219389   1.212   4.513   5.056
 6479TIP3    H119390   1.122   4.503   5.095
 6479TIP3    H219391   1.202   4.599   5.010
 6480TIP3   OH219392   1.505   3.409   5.420
 6480TIP3    H119393   1.418   3.436   5.386
 6480TIP3    H219394   1.566   3.442   5.350
 6481TIP3   OH219395   0.799   3.051   5.402
 6481TIP3    H119396   0.782   2.957   5.419
 6481TIP3    H219397   0.723   3.091   5.449
 6482TIP3   OH219398   0.913   4.556   4.729
 6482TIP3    H119399   0.962   4.473   4.711
 6482TIP3    H219400   0.975   4.620   4.688
 6483TIP3   OH219401   1.057   4.341   4.639
 6483TIP3    H119402   1.016   4.261   4.603
 6483TIP3    H219403   1.095   4.308   4.723
 6484TIP3   OH219404   1.437   4.421   5.400
 6484TIP3    H119405   1.425   4.344   5.340
 6484TIP3    H219406   1.420   4.496   5.339
 6485TIP3   OH219407   0.732   3.815   4.660
 6485TIP3    H119408   0.652   3.868   4.639
 6485TIP3    H219409   0.777   3.813   4.574
 6486TIP3   OH219410   0.688   3.603   4.368
 6486TIP3    H119411   0.753   3.655   4.419
 6486TIP3    H219412   0.747   3.540   4.323
 6487TIP3   OH219413   1.633   4.063   5.247
 6487TIP3    H119414   1.549   4.112   5.250
 6487TIP3    H219415   1.663   4.085   5.156
 6488TIP3   OH219416   1.077   3.899   4.627
 6488TIP3    H119417   1.024   3.923   4.706
 6488TIP3    H219418   1.162   3.875   4.669
 6489TIP3   OH219419   1.311   3.936   5.544
 6489TIP3    H119420   1.309   4.020   5.594
 6489TIP3    H219421   1.225   3.940   5.498
 6490TIP3   OH219422   0.316   3.887   5.027
 6490TIP3    H119423   0.279   3.823   4.963
 6490TIP3    H219424   0.393   3.837   5.061
 6491TIP3   OH219425   0.449   4.309   5.192
 6491TIP3    H119426   0.427   4.285   5.101
 6491TIP3    H219427   0.538   4.269   5.204
 6492TIP3   OH219428   0.477   3.854   5.396
 6492TIP3    H119429   0.506   3.832   5.304
 6492TIP3    H219430   0.518   3.942   5.411
 6493TIP3   OH219431   0.971   4.506   5.178
 6493TIP3    H119432   0.960   4.585   5.233
 6493TIP3    H219433   0.955   4.432   5.241
 6494TIP3   OH219434   0.596   4.430   5.724
 6494TIP3    H119435   0.531   4.486   5.769
 6494TIP3    H219436   0.537   4.371   5.672
 6495TIP3   OH219437   0.916   3.758   4.455
 6495TIP3    H119438   0.975   3.818   4.505
 6495TIP3    H219439   0.943   3.779   4.362
 6496TIP3   OH219440   0.335   3.943   5.851
 6496TIP3    H119441   0.333   4.018   5.914
 6496TIP3    H219442   0.239   3.931   5.832
 6497TIP3   OH219443   0.665   4.432   4.729
 6497TIP3    H119444   0.744   4.487   4.740
 6497TIP3    H219445   0.601   4.495   4.693
 6498TIP3   OH219446   1.433   2.997   4.503
 6498TIP3    H119447   1.352   3.019   4.553
 6498TIP3    H219448   1.449   3.080   4.454
 6499TIP3   OH219449   0.171   3.733   4.837
 6499TIP3    H119450   0.098   3.792   4.813
 6499TIP3    H219451   0.126   3.663   4.886
 6500TIP3   OH219452   1.234   4.362   4.050
 6500TIP3    H119453   1.244   4.459   4.037
 6500TIP3    H219454   1.328   4.333   4.040
 6501TIP3   OH219455   1.675   4.769   5.448
 6501TIP3    H119456   1.674   4.673   5.462
 6501TIP3    H219457   1.592   4.795   5.494
 6502TIP3   OH219458   0.789   4.554   5.579
 6502TIP3    H119459   0.785   4.646   5.612
 6502TIP3    H219460   0.716   4.513   5.631
 6503TIP3   OH219461   0.548   4.682   4.532
 6503TIP3    H119462   0.492   4.675   4.452
 6503TIP3    H219463   0.520   4.769   4.568
 6504TIP3   OH219464   0.741   4.586   4.168
 6504TIP3    H119465   0.799   4.515   4.134
 6504TIP3    H219466   0.775   4.596   4.259
 6505TIP3   OH219467   0.796   4.632   4.437
 6505TIP3    H119468   0.707   4.642   4.478
 6505TIP3    H219469   0.845   4.592   4.510
 6506TIP3   OH219470   1.563   3.897   5.722
 6506TIP3    H119471   1.481   3.907   5.672
 6506TIP3    H219472   1.580   3.801   5.712
 6507TIP3   OH219473   0.566   3.125   5.531
 6507TIP3    H119474   0.477   3.094   5.502
 6507TIP3    H219475   0.538   3.206   5.578
 6508TIP3   OH219476   1.097   3.243   5.726
 6508TIP3    H119477   1.166   3.215   5.790
 6508TIP3    H219478   1.014   3.224   5.774
 6509TIP3   OH219479   1.331   3.673   5.644
 6509TIP3    H119480   1.280   3.671   5.728
 6509TIP3    H219481   1.309   3.760   5.607
 6510TIP3   OH219482   0.992   3.800   4.199
 6510TIP3    H119483   0.959   3.777   4.110
 6510TIP3    H219484   1.076   3.845   4.177
 6511TIP3   OH219485   0.706   3.177   4.504
 6511TIP3    H119486   0.670   3.172   4.595
 6511TIP3    H219487   0.666   3.096   4.467
 6512TIP3   OH219488   0.499   3.638   5.555
 6512TIP3    H119489   0.441   3.661   5.631
 6512TIP3    H219490   0.489   3.719   5.499
 6513TIP3   OH219491   0.379   3.534   5.060
 6513TIP3    H119492   0.289   3.502   5.083
 6513TIP3    H219493   0.390   3.491   4.972
 6514TIP3   OH219494   0.868   3.615   4.793
 6514TIP3    H119495   0.818   3.687   4.749
 6514TIP3    H219496   0.924   3.581   4.720
 6515TIP3   OH219497   1.042   3.893   5.877
 6515TIP3    H119498   1.020   3.820   5.940
 6515TIP3    H219499   1.136   3.907   5.899
 6516TIP3   OH219500   1.023   3.643   5.029
 6516TIP3    H119501   0.961   3.671   4.959
 6516TIP3    H219502   1.059   3.564   4.985
 6517TIP3   OH219503   0.310   3.665   5.752
 6517TIP3    H119504   0.332   3.735   5.816
 6517TIP3    H219505   0.310   3.585   5.808
 6518TIP3   OH219506   0.365   3.150   4.468
 6518TIP3    H119507   0.348   3.151   4.564
 6518TIP3    H219508   0.290   3.205   4.437
 6519TIP3   OH219509  -0.035   3.187   4.889
 6519TIP3    H119510  -0.006   3.223   4.804
 6519TIP3    H219511  -0.125   3.222   4.896
 6520TIP3   OH219512   1.033   3.889   5.451
 6520TIP3    H119513   1.067   3.818   5.391
 6520TIP3    H219514   1.004   3.834   5.527
 6521TIP3   OH219515   0.707   3.352   5.123
 6521TIP3    H119516   0.626   3.352   5.178
 6521TIP3    H219517   0.777   3.348   5.191
 6522TIP3   OH219518   0.155   3.398   5.128
 6522TIP3    H119519   0.070   3.393   5.083
 6522TIP3    H219520   0.190   3.307   5.117
 6523TIP3   OH219521   0.403   3.403   4.821
 6523TIP3    H119522   0.497   3.418   4.799
 6523TIP3    H219523   0.356   3.428   4.738
 6524TIP3   OH219524   1.197   3.430   5.328
 6524TIP3    H119525   1.163   3.443   5.420
 6524TIP3    H219526   1.129   3.369   5.292
 6525TIP3   OH219527   0.247   3.446   4.601
 6525TIP3    H119528   0.181   3.391   4.555
 6525TIP3    H219529   0.299   3.478   4.524
 6526TIP3   OH219530   1.368   5.118   5.547
 6526TIP3    H119531   1.367   5.142   5.453
 6526TIP3    H219532   1.449   5.164   5.577
 6527TIP3   OH219533   0.330   4.187   6.005
 6527TIP3    H119534   0.416   4.232   6.011
 6527TIP3    H219535   0.301   4.200   6.096
 6528TIP3   OH219536   0.784   3.683   5.221
 6528TIP3    H119537   0.860   3.645   5.173
 6528TIP3    H219538   0.790   3.638   5.308
 6529TIP3   OH219539   0.312   3.167   5.106
 6529TIP3    H119540   0.273   3.091   5.153
 6529TIP3    H219541   0.354   3.125   5.030
 6530TIP3   OH219542   0.766   3.580   5.510
 6530TIP3    H119543   0.675   3.612   5.528
 6530TIP3    H219544   0.821   3.643   5.561
 6531TIP3   OH219545   0.502   3.963   4.603
 6531TIP3    H119546   0.427   3.901   4.592
 6531TIP3    H219547   0.483   4.000   4.693
 6532TIP3   OH219548   1.398   4.205   5.234
 6532TIP3    H119549   1.422   4.256   5.153
 6532TIP3    H219550   1.314   4.162   5.207
 6533TIP3   OH219551   0.957   3.280   4.469
 6533TIP3    H119552   0.861   3.261   4.481
 6533TIP3    H219553   0.965   3.374   4.497
 6534TIP3   OH219554   0.899   4.287   5.603
 6534TIP3    H119555   0.929   4.266   5.692
 6534TIP3    H219556   0.865   4.378   5.612
 6535TIP3   OH219557   1.026   3.529   4.575
 6535TIP3    H119558   1.123   3.534   4.591
 6535TIP3    H219559   1.009   3.610   4.524
 6536TIP3   OH219560   0.259   4.000   5.274
 6536TIP3    H119561   0.273   3.965   5.184
 6536TIP3    H219562   0.293   3.928   5.329
 6537TIP3   OH219563   0.643   4.118   4.426
 6537TIP3    H119564   0.595   4.204   4.430
 6537TIP3    H219565   0.589   4.063   4.488
 6538TIP3   OH219566   0.801   4.026   5.915
 6538TIP3    H119567   0.740   3.964   5.871
 6538TIP3    H219568   0.887   3.990   5.886
 6539TIP3   OH219569   1.060   4.548   5.500
 6539TIP3    H119570   0.963   4.546   5.514
 6539TIP3    H219571   1.088   4.601   5.578
 6540TIP3   OH219572   1.471   3.624   4.409
 6540TIP3    H119573   1.408   3.580   4.348
 6540TIP3    H219574   1.465   3.714   4.371
 6541TIP3   OH219575   1.688   4.479   5.488
 6541TIP3    H119576   1.590   4.473   5.480
 6541TIP3    H219577   1.714   4.448   5.398
 6542TIP3   OH219578   1.168   4.439   4.317
 6542TIP3    H119579   1.144   4.371   4.381
 6542TIP3    H219580   1.183   4.388   4.235
 6543TIP3   OH219581   1.165   4.068   5.152
 6543TIP3    H119582   1.072   4.044   5.164
 6543TIP3    H219583   1.199   3.987   5.107
 6544TIP3   OH219584   0.310   4.297   4.919
 6544TIP3    H119585   0.283   4.370   4.859
 6544TIP3    H219586   0.224   4.253   4.935
 6545TIP3   OH219587   0.430   4.061   4.841
 6545TIP3    H119588   0.406   4.152   4.867
 6545TIP3    H219589   0.396   4.010   4.917
 6546TIP3   OH219590   0.583   4.647   5.374
 6546TIP3    H119591   0.621   4.716   5.314
 6546TIP3    H219592   0.664   4.614   5.416
 6547TIP3   OH219593   0.212   4.513   4.761
 6547TIP3    H119594   0.127   4.548   4.792
 6547TIP3    H219595   0.268   4.594   4.771
 6548TIP3   OH219596   0.950   4.272   5.335
 6548TIP3    H119597   0.939   4.270   5.432
 6548TIP3    H219598   1.029   4.218   5.323
 6549TIP3   OH219599   0.928   4.169   4.218
 6549TIP3    H119600   0.983   4.142   4.296
 6549TIP3    H219601   0.841   4.140   4.249
 6550TIP3   OH219602   1.198   4.805   5.386
 6550TIP3    H119603   1.118   4.750   5.379
 6550TIP3    H219604   1.183   4.869   5.313
 6551TIP3   OH219605   1.265   4.639   4.037
 6551TIP3    H119606   1.306   4.716   3.992
 6551TIP3    H219607   1.184   4.682   4.070
 6552TIP3   OH219608   0.308   3.406   5.899
 6552TIP3    H119609   0.221   3.413   5.942
 6552TIP3    H219610   0.358   3.368   5.972
 6553TIP3   OH219611   1.087   4.098   4.431
 6553TIP3    H119612   1.077   4.033   4.504
 6553TIP3    H219613   1.185   4.095   4.420
 6554TIP3   OH219614   0.284   4.145   4.206
 6554TIP3    H119615   0.305   4.053   4.185
 6554TIP3    H219616   0.280   4.140   4.304
 6555TIP3   OH219617   0.265   4.155   4.477
 6555TIP3    H119618   0.319   4.125   4.552
 6555TIP3    H219619   0.265   4.252   4.488
 6556TIP3   OH219620   1.123   3.481   5.588
 6556TIP3    H119621   1.204   3.519   5.624
 6556TIP3    H219622   1.111   3.400   5.642
 6557TIP3   OH219623   1.004   3.229   4.754
 6557TIP3    H119624   0.992   3.252   4.660
 6557TIP3    H219625   1.043   3.312   4.790
 6558TIP3   OH219626   0.508   4.353   4.435
 6558TIP3    H119627   0.422   4.375   4.475
 6558TIP3    H219628   0.522   4.434   4.382
 6559TIP3   OH219629   0.686   3.414   4.854
 6559TIP3    H119630   0.751   3.486   4.837
 6559TIP3    H219631   0.694   3.404   4.951
 6560TIP3   OH219632   0.961   3.729   5.659
 6560TIP3    H119633   0.984   3.781   5.739
 6560TIP3    H219634   1.014   3.648   5.670
 6561TIP3   OH219635   0.832   3.133   4.953
 6561TIP3    H119636   0.827   3.210   5.013
 6561TIP3    H219637   0.894   3.168   4.885
 6562TIP3   OH219638   0.251   4.424   4.502
 6562TIP3    H119639   0.207   4.489   4.444
 6562TIP3    H219640   0.228   4.459   4.591
 6563TIP3   OH219641   0.344   3.139   4.745
 6563TIP3    H119642   0.343   3.229   4.782
 6563TIP3    H219643   0.441   3.121   4.750
 6564TIP3   OH219644   1.599   3.631   5.644
 6564TIP3    H119645   1.501   3.628   5.649
 6564TIP3    H219646   1.612   3.589   5.558
 6565TIP3   OH219647   1.251   3.825   5.030
 6565TIP3    H119648   1.176   3.764   5.042
 6565TIP3    H219649   1.323   3.778   5.078
 6566TIP3   OH219650   0.006   4.060   4.560
 6566TIP3    H119651   0.052   4.145   4.554
 6566TIP3    H219652   0.041   4.016   4.481
 6567TIP3   OH219653  -0.032   3.312   4.610
 6567TIP3    H119654  -0.042   3.405   4.637
 6567TIP3    H219655  -0.123   3.285   4.595
 6568TIP3   OH219656   1.220   4.784   4.978
 6568TIP3    H119657   1.177   4.830   4.903
 6568TIP3    H219658   1.314   4.802   4.957
 6569TIP3   OH219659   0.304   3.045   5.502
 6569TIP3    H119660   0.268   3.015   5.416
 6569TIP3    H219661   0.287   2.968   5.560
 6570TIP3   OH219662   0.503   4.795   5.979
 6570TIP3    H119663   0.583   4.747   6.005
 6570TIP3    H219664   0.466   4.738   5.911
 6571TIP3   OH219665   0.454   4.347   4.127
 6571TIP3    H119666   0.394   4.278   4.163
 6571TIP3    H219667   0.531   4.292   4.104
 6572TIP3   OH219668   1.110   4.682   5.738
 6572TIP3    H119669   1.102   4.611   5.807
 6572TIP3    H219670   1.188   4.731   5.767
 6573TIP3   OH219671   0.889   4.388   4.043
 6573TIP3    H119672   0.929   4.324   4.106
 6573TIP3    H219673   0.950   4.383   3.967
 6574TIP3   OH219674   0.110   3.864   4.361
 6574TIP3    H119675   0.169   3.841   4.435
 6574TIP3    H219676   0.176   3.869   4.289
 6575TIP3   OH219677   0.729   4.301   5.934
 6575TIP3    H119678   0.696   4.322   5.844
 6575TIP3    H219679   0.761   4.209   5.923
 6576TIP3   OH219680   0.609   4.067   4.159
 6576TIP3    H119681   0.614   4.078   4.256
 6576TIP3    H219682   0.611   3.969   4.152
 6577TIP3   OH219683   1.222   4.314   5.540
 6577TIP3    H119684   1.298   4.355   5.496
 6577TIP3    H219685   1.153   4.380   5.522
 6578TIP3   OH219686   0.300   3.772   4.571
 6578TIP3    H119687   0.277   3.731   4.656
 6578TIP3    H219688   0.340   3.697   4.522
 6579TIP3   OH219689   0.588   3.828   5.803
 6579TIP3    H119690   0.505   3.879   5.806
 6579TIP3    H219691   0.637   3.868   5.727
 6580TIP3   OH219692   0.410   3.568   4.414
 6580TIP3    H119693   0.384   3.572   4.319
 6580TIP3    H219694   0.507   3.568   4.406
 6581TIP3   OH219695   1.095   4.238   5.935
 6581TIP3    H119696   1.172   4.207   5.886
 6581TIP3    H219697   1.089   4.172   6.007
 6582TIP3   OH219698   1.226   3.894   4.079
 6582TIP3    H119699   1.205   3.850   3.995
 6582TIP3    H219700   1.192   3.985   4.059
 6583TIP3   OH219701   0.709   3.618   5.922
 6583TIP3    H119702   0.704   3.540   5.863
 6583TIP3    H219703   0.664   3.687   5.867
 6584TIP3   OH219704   0.704   3.409   5.734
 6584TIP3    H119705   0.733   3.452   5.651
 6584TIP3    H219706   0.611   3.386   5.712
 6585TIP3   OH219707   0.735   3.943   5.614
 6585TIP3    H119708   0.821   3.951   5.570
 6585TIP3    H219709   0.680   4.005   5.561
 6586TIP3   OH219710   1.309   3.911   5.987
 6586TIP3    H119711   1.358   3.827   5.997
 6586TIP3    H219712   1.377   3.969   5.951
 6587TIP3   OH219713   1.351   4.166   5.726
 6587TIP3    H119714   1.294   4.221   5.667
 6587TIP3    H219715   1.439   4.187   5.687
 6588TIP3   OH219716   0.599   3.737   6.154
 6588TIP3    H119717   0.526   3.675   6.175
 6588TIP3    H219718   0.624   3.706   6.064
 6589TIP3   OH219719   0.835   3.173   5.805
 6589TIP3    H119720   0.785   3.254   5.781
 6589TIP3    H219721   0.768   3.103   5.792
 6590TIP3   OH219722   0.961   3.675   6.020
 6590TIP3    H119723   0.943   3.660   6.115
 6590TIP3    H219724   0.874   3.650   5.983
 6591TIP3   OH219725   1.199   3.628   5.875
 6591TIP3    H119726   1.125   3.629   5.938
 6591TIP3    H219727   1.274   3.598   5.930
 6592TIP3   OH219728   1.427   3.568   6.023
 6592TIP3    H119729   1.441   3.473   6.039
 6592TIP3    H219730   1.425   3.605   6.114
 6593TIP3   OH219731   0.438   3.516   6.204
 6593TIP3    H119732   0.411   3.426   6.179
 6593TIP3    H219733   0.468   3.503   6.296
 6594TIP3   OH219734   0.927   3.181   6.064
 6594TIP3    H119735   0.994   3.110   6.056
 6594TIP3    H219736   0.888   3.178   5.974
 6595TIP3   OH219737   0.996   3.397   6.221
 6595TIP3    H119738   0.974   3.326   6.157
 6595TIP3    H219739   0.918   3.456   6.215
 6596TIP3   OH219740   0.204   4.637   4.310
 6596TIP3    H119741   0.301   4.626   4.306
 6596TIP3    H219742   0.190   4.690   4.230
 6597TIP3   OH219743   1.474   4.873   4.938
 6597TIP3    H119744   1.501   4.904   5.026
 6597TIP3    H219745   1.541   4.913   4.880
 6598TIP3   OH219746   1.502   4.891   5.220
 6598TIP3    H119747   1.457   4.804   5.215
 6598TIP3    H219748   1.578   4.867   5.276
 6599TIP3   OH219749   1.548   4.568   5.793
 6599TIP3    H119750   1.476   4.579   5.859
 6599TIP3    H219751   1.591   4.656   5.796
 6600TIP3   OH219752   1.363   4.083   4.408
 6600TIP3    H119753   1.431   4.147   4.377
 6600TIP3    H219754   1.406   4.049   4.490
 6601TIP3   OH219755   1.486   3.963   4.619
 6601TIP3    H119756   1.424   3.914   4.677
 6601TIP3    H219757   1.556   3.991   4.681
 6602TIP3   OH219758   1.550   4.342   5.047
 6602TIP3    H119759   1.601   4.273   5.000
 6602TIP3    H219760   1.546   4.413   4.980
 6603TIP3   OH219761   1.377   4.642   5.241
 6603TIP3    H119762   1.304   4.683   5.292
 6603TIP3    H219763   1.329   4.596   5.169
 6604TIP3   OH219764   1.428   3.856   4.263
 6604TIP3    H119765   1.357   3.859   4.195
 6604TIP3    H219766   1.402   3.933   4.317
 6605TIP3   OH219767   1.301   3.530   4.215
 6605TIP3    H119768   1.256   3.564   4.137
 6605TIP3    H219769   1.280   3.434   4.209
 6606TIP3   OH219770   1.304   3.808   4.760
 6606TIP3    H119771   1.318   3.713   4.752
 6606TIP3    H219772   1.291   3.820   4.857
 6607TIP3   OH219773   1.597   4.231   5.619
 6607TIP3    H119774   1.668   4.164   5.609
 6607TIP3    H219775   1.622   4.298   5.554
 6608TIP3   OH219776   1.779   4.032   5.630
 6608TIP3    H119777   1.705   3.983   5.670
 6608TIP3    H219778   1.853   3.969   5.647
 6609TIP3   OH219779   1.246   3.263   4.194
 6609TIP3    H119780   1.322   3.235   4.249
 6609TIP3    H219781   1.175   3.203   4.221
 6610TIP3   OH219782   1.303   3.523   4.653
 6610TIP3    H119783   1.343   3.434   4.668
 6610TIP3    H219784   1.365   3.557   4.586
 6611TIP3   OH219785   1.463   3.694   5.151
 6611TIP3    H119786   1.549   3.718   5.109
 6611TIP3    H219787   1.479   3.731   5.240
 6612TIP3   OH219788   1.536   3.840   5.381
 6612TIP3    H119789   1.458   3.874   5.429
 6612TIP3    H219790   1.569   3.921   5.336
 6613TIP3   OH219791   1.983   3.431   5.937
 6613TIP3    H119792   2.045   3.368   5.896
 6613TIP3    H219793   1.954   3.484   5.859
 6614TIP3   OH219794   1.409   3.274   4.695
 6614TIP3    H119795   1.461   3.257   4.776
 6614TIP3    H219796   1.351   3.196   4.694
 6615TIP3   OH219797   0.117   3.251   5.528
 6615TIP3    H119798   0.182   3.179   5.521
 6615TIP3    H219799   0.169   3.328   5.505
 6616TIP3   OH219800   1.854   3.568   5.740
 6616TIP3    H119801   1.768   3.612   5.758
 6616TIP3    H219802   1.822   3.495   5.683
 6617TIP3   OH219803   1.487   3.206   4.324
 6617TIP3    H119804   1.534   3.136   4.275
 6617TIP3    H219805   1.555   3.277   4.328
 6618TIP3   OH219806   1.057   4.740   4.592
 6618TIP3    H119807   1.109   4.730   4.509
 6618TIP3    H219808   1.110   4.805   4.641
 6619TIP3   OH219809   0.364   4.545   5.512
 6619TIP3    H119810   0.337   4.629   5.556
 6619TIP3    H219811   0.443   4.577   5.462
 6620TIP3   OH219812   0.786   4.814   5.663
 6620TIP3    H119813   0.829   4.815   5.752
 6620TIP3    H219814   0.849   4.869   5.612
 6621TIP3   OH219815   0.962   4.972   5.525
 6621TIP3    H119816   1.032   4.920   5.482
 6621TIP3    H219817   1.016   5.028   5.586
 6622TIP3   OH219818   1.754   3.332   5.623
 6622TIP3    H119819   1.665   3.323   5.586
 6622TIP3    H219820   1.788   3.240   5.613
 6623TIP3   OH219821   0.684   4.842   5.204
 6623TIP3    H119822   0.610   4.855   5.141
 6623TIP3    H219823   0.697   4.933   5.238
 6624TIP3   OH219824   0.948   4.777   5.262
 6624TIP3    H119825   0.855   4.795   5.238
 6624TIP3    H219826   0.994   4.847   5.213
 6625TIP3   OH219827   1.149   4.968   5.171
 6625TIP3    H119828   1.135   5.052   5.122
 6625TIP3    H219829   1.177   4.908   5.098
 6626TIP3   OH219830   0.407   4.613   5.139
 6626TIP3    H119831   0.396   4.520   5.116
 6626TIP3    H219832   0.451   4.607   5.226
 6627TIP3   OH219833   0.959   3.247   5.240
 6627TIP3    H119834   0.917   3.175   5.292
 6627TIP3    H219835   1.035   3.202   5.199
 6628TIP3   OH219836   1.479   3.129   5.147
 6628TIP3    H119837   1.517   3.179   5.071
 6628TIP3    H219838   1.384   3.148   5.139
 6629TIP3   OH219839   1.576   3.224   4.909
 6629TIP3    H119840   1.648   3.170   4.870
 6629TIP3    H219841   1.613   3.314   4.894
 6630TIP3   OH219842   0.211   2.955   5.253
 6630TIP3    H119843   0.118   2.922   5.256
 6630TIP3    H219844   0.259   2.870   5.249
 6631TIP3   OH219845   0.017   2.829   4.910
 6631TIP3    H119846   0.044   2.871   4.826
 6631TIP3    H219847  -0.019   2.905   4.956
 6632TIP3   OH219848   0.654   2.986   5.140
 6632TIP3    H119849   0.709   3.033   5.075
 6632TIP3    H219850   0.679   3.029   5.223
 6633TIP3   OH219851   1.194   3.136   5.121
 6633TIP3    H119852   1.200   3.095   5.034
 6633TIP3    H219853   1.183   3.057   5.179
 6634TIP3   OH219854   1.228   3.060   4.684
 6634TIP3    H119855   1.142   3.103   4.701
 6634TIP3    H219856   1.214   2.973   4.729
 6635TIP3   OH219857   0.107   2.974   4.677
 6635TIP3    H119858   0.156   2.919   4.613
 6635TIP3    H219859   0.178   3.033   4.710
 6636TIP3   OH219860   0.623   3.163   4.767
 6636TIP3    H119861   0.685   3.116   4.827
 6636TIP3    H219862   0.644   3.255   4.792
 6637TIP3   OH219863   0.479   4.583   4.264
 6637TIP3    H119864   0.568   4.604   4.230
 6637TIP3    H219865   0.457   4.507   4.206
 6638TIP3   OH219866   1.204   4.705   4.360
 6638TIP3    H119867   1.195   4.607   4.351
 6638TIP3    H219868   1.157   4.735   4.279
 6639TIP3   OH219869   0.407   3.238   6.150
 6639TIP3    H119870   0.378   3.160   6.202
 6639TIP3    H219871   0.500   3.241   6.179
 6640TIP3   OH219872   0.662   3.235   6.269
 6640TIP3    H119873   0.746   3.215   6.226
 6640TIP3    H219874   0.652   3.159   6.330
 6641TIP3   OH219875   1.493   3.298   6.054
 6641TIP3    H119876   1.510   3.266   6.145
 6641TIP3    H219877   1.582   3.293   6.014
 6642TIP3   OH219878   1.427   4.849   5.547
 6642TIP3    H119879   1.349   4.818   5.496
 6642TIP3    H219880   1.408   4.944   5.553
 6643TIP3   OH219881   2.681   4.217   4.332
 6643TIP3    H119882   2.645   4.303   4.303
 6643TIP3    H219883   2.620   4.156   4.284
 6644TIP3   OH219884   2.705   4.223   4.688
 6644TIP3    H119885   2.723   4.185   4.776
 6644TIP3    H219886   2.658   4.153   4.641
 6645TIP3   OH219887   1.992   4.115   5.058
 6645TIP3    H119888   2.020   4.045   5.119
 6645TIP3    H219889   2.073   4.169   5.055
 6646TIP3   OH219890   2.940   4.528   4.379
 6646TIP3    H119891   2.918   4.460   4.445
 6646TIP3    H219892   2.972   4.601   4.434
 6647TIP3   OH219893   1.967   4.529   4.783
 6647TIP3    H119894   1.961   4.431   4.782
 6647TIP3    H219895   2.063   4.539   4.776
 6648TIP3   OH219896   1.655   3.734   4.605
 6648TIP3    H119897   1.607   3.817   4.589
 6648TIP3    H219898   1.613   3.675   4.541
 6649TIP3   OH219899   1.733   4.016   4.742
 6649TIP3    H119900   1.773   3.933   4.777
 6649TIP3    H219901   1.782   4.024   4.659
 6650TIP3   OH219902   2.591   4.987   4.396
 6650TIP3    H119903   2.632   4.916   4.342
 6650TIP3    H219904   2.581   4.944   4.481
 6651TIP3   OH219905   2.492   4.449   4.744
 6651TIP3    H119906   2.532   4.379   4.691
 6651TIP3    H219907   2.575   4.494   4.772
 6652TIP3   OH219908   3.507   3.756   4.742
 6652TIP3    H119909   3.550   3.833   4.784
 6652TIP3    H219910   3.536   3.769   4.649
 6653TIP3   OH219911   2.913   3.954   4.777
 6653TIP3    H119912   2.957   3.870   4.802
 6653TIP3    H219913   2.877   3.930   4.692
 6654TIP3   OH219914   1.869   3.799   4.838
 6654TIP3    H119915   1.960   3.779   4.865
 6654TIP3    H219916   1.863   3.754   4.752
 6655TIP3   OH219917   3.583   3.970   4.913
 6655TIP3    H119918   3.502   4.018   4.886
 6655TIP3    H219919   3.597   4.007   5.002
 6656TIP3   OH219920   2.237   3.593   5.170
 6656TIP3    H119921   2.180   3.627   5.099
 6656TIP3    H219922   2.183   3.612   5.249
 6657TIP3   OH219923   2.577   4.434   4.191
 6657TIP3    H119924   2.548   4.423   4.099
 6657TIP3    H219925   2.538   4.521   4.213
 6658TIP3   OH219926   2.348   4.370   4.968
 6658TIP3    H119927   2.287   4.438   5.005
 6658TIP3    H219928   2.388   4.417   4.893
 6659TIP3   OH219929   3.207   3.682   4.562
 6659TIP3    H119930   3.134   3.671   4.624
 6659TIP3    H219931   3.222   3.779   4.567
 6660TIP3   OH219932   2.119   3.698   4.931
 6660TIP3    H119933   2.182   3.767   4.961
 6660TIP3    H219934   2.152   3.682   4.841
 6661TIP3   OH219935   2.176   4.564   5.068
 6661TIP3    H119936   2.150   4.650   5.031
 6661TIP3    H219937   2.097   4.545   5.122
 6662TIP3   OH219938   1.565   4.254   4.306
 6662TIP3    H119939   1.533   4.280   4.218
 6662TIP3    H219940   1.602   4.337   4.341
 6663TIP3   OH219941   3.009   4.769   4.544
 6663TIP3    H119942   2.919   4.759   4.583
 6663TIP3    H219943   2.999   4.854   4.497
 6664TIP3   OH219944   3.297   3.632   4.874
 6664TIP3    H119945   3.213   3.679   4.886
 6664TIP3    H219946   3.352   3.700   4.828
 6665TIP3   OH219947   2.589   3.290   4.910
 6665TIP3    H119948   2.564   3.198   4.930
 6665TIP3    H219949   2.514   3.339   4.949
 6666TIP3   OH219950   2.706   4.813   4.215
 6666TIP3    H119951   2.754   4.728   4.197
 6666TIP3    H219952   2.770   4.876   4.175
 6667TIP3   OH219953   2.848   4.597   4.128
 6667TIP3    H119954   2.833   4.516   4.076
 6667TIP3    H219955   2.888   4.560   4.210
 6668TIP3   OH219956   3.234   4.678   4.887
 6668TIP3    H119957   3.222   4.601   4.828
 6668TIP3    H219958   3.215   4.753   4.827
 6669TIP3   OH219959   2.533   4.089   4.134
 6669TIP3    H119960   2.448   4.135   4.126
 6669TIP3    H219961   2.574   4.108   4.049
 6670TIP3   OH219962   2.480   3.856   3.852
 6670TIP3    H119963   2.524   3.879   3.935
 6670TIP3    H219964   2.551   3.804   3.807
 6671TIP3   OH219965   3.430   4.319   4.734
 6671TIP3    H119966   3.345   4.369   4.738
 6671TIP3    H219967   3.460   4.343   4.644
 6672TIP3   OH219968   2.871   4.205   4.137
 6672TIP3    H119969   2.809   4.220   4.212
 6672TIP3    H219970   2.883   4.110   4.139
 6673TIP3   OH219971   3.107   4.193   5.032
 6673TIP3    H119972   3.106   4.276   5.083
 6673TIP3    H219973   3.020   4.198   4.988
 6674TIP3   OH219974   2.111   4.113   4.534
 6674TIP3    H119975   2.047   4.053   4.490
 6674TIP3    H219976   2.179   4.045   4.549
 6675TIP3   OH219977   2.235   4.566   4.681
 6675TIP3    H119978   2.214   4.531   4.593
 6675TIP3    H219979   2.324   4.528   4.697
 6676TIP3   OH219980   2.252   4.125   4.893
 6676TIP3    H119981   2.275   4.122   4.799
 6676TIP3    H219982   2.286   4.214   4.919
 6677TIP3   OH219983   2.767   4.762   4.665
 6677TIP3    H119984   2.755   4.842   4.718
 6677TIP3    H219985   2.750   4.690   4.728
 6678TIP3   OH219986   2.382   4.680   5.211
 6678TIP3    H119987   2.320   4.742   5.257
 6678TIP3    H219988   2.317   4.627   5.160
 6679TIP3   OH219989   2.137   4.236   5.315
 6679TIP3    H119990   2.140   4.324   5.358
 6679TIP3    H219991   2.042   4.215   5.328
 6680TIP3   OH219992   2.458   4.692   4.219
 6680TIP3    H119993   2.542   4.742   4.226
 6680TIP3    H219994   2.400   4.755   4.175
 6681TIP3   OH219995   2.174   4.846   5.299
 6681TIP3    H119996   2.138   4.849   5.208
 6681TIP3    H219997   2.094   4.825   5.352
 6682TIP3   OH219998   3.031   4.620   3.541
 6682TIP3    H119999   3.041   4.716   3.524
 6682TIP3    H220000   3.123   4.588   3.531
 6683TIP3   OH220001   1.752   4.380   5.245
 6683TIP3    H120002   1.685   4.359   5.177
 6683TIP3    H220003   1.790   4.293   5.266
 6684TIP3   OH220004   1.608   4.574   4.875
 6684TIP3    H120005   1.703   4.565   4.867
 6684TIP3    H220006   1.600   4.651   4.933
 6685TIP3   OH220007   3.472   5.026   4.935
 6685TIP3    H120008   3.470   4.930   4.949
 6685TIP3    H220009   3.388   5.052   4.981
 6686TIP3   OH220010   2.577   4.809   5.069
 6686TIP3    H120011   2.574   4.901   5.101
 6686TIP3    H220012   2.505   4.768   5.123
 6687TIP3   OH220013   2.341   4.937   4.021
 6687TIP3    H120014   2.294   4.920   3.937
 6687TIP3    H220015   2.306   5.025   4.047
 6688TIP3   OH220016   1.777   4.786   4.407
 6688TIP3    H120017   1.824   4.778   4.493
 6688TIP3    H220018   1.729   4.701   4.405
 6689TIP3   OH220019   2.539   4.840   3.658
 6689TIP3    H120020   2.598   4.770   3.622
 6689TIP3    H220021   2.574   4.850   3.749
 6690TIP3   OH220022   2.591   4.889   3.928
 6690TIP3    H120023   2.503   4.898   3.970
 6690TIP3    H220024   2.642   4.847   3.999
 6691TIP3   OH220025   3.362   4.154   5.209
 6691TIP3    H120026   3.278   4.161   5.162
 6691TIP3    H220027   3.378   4.057   5.206
 6692TIP3   OH220028   1.957   4.563   5.230
 6692TIP3    H120029   2.006   4.546   5.313
 6692TIP3    H220030   1.882   4.500   5.238
 6693TIP3   OH220031   2.352   3.384   5.021
 6693TIP3    H120032   2.262   3.356   4.996
 6693TIP3    H220033   2.330   3.467   5.068
 6694TIP3   OH220034   2.892   3.499   5.214
 6694TIP3    H120035   2.957   3.473   5.282
 6694TIP3    H220036   2.807   3.480   5.258
 6695TIP3   OH220037   3.128   3.929   5.130
 6695TIP3    H120038   3.082   3.927   5.217
 6695TIP3    H220039   3.105   4.018   5.096
 6696TIP3   OH220040   2.776   4.052   3.682
 6696TIP3    H120041   2.755   4.028   3.590
 6696TIP3    H220042   2.863   4.094   3.670
 6697TIP3   OH220043   2.504   3.434   3.985
 6697TIP3    H120044   2.468   3.432   4.076
 6697TIP3    H220045   2.465   3.352   3.949
 6698TIP3   OH220046   2.284   3.896   5.033
 6698TIP3    H120047   2.233   3.918   5.114
 6698TIP3    H220048   2.273   3.980   4.982
 6699TIP3   OH220049   2.839   4.150   5.365
 6699TIP3    H120050   2.817   4.078   5.428
 6699TIP3    H220051   2.933   4.164   5.387
 6700TIP3   OH220052   2.106   3.931   5.245
 6700TIP3    H120053   2.139   3.992   5.312
 6700TIP3    H220054   2.097   3.848   5.296
 6701TIP3   OH220055   2.152   3.409   3.948
 6701TIP3    H120056   2.147   3.405   4.046
 6701TIP3    H220057   2.080   3.473   3.931
 6702TIP3   OH220058   1.709   3.443   4.829
 6702TIP3    H120059   1.776   3.486   4.887
 6702TIP3    H220060   1.753   3.441   4.743
 6703TIP3   OH220061   1.665   3.428   4.339
 6703TIP3    H120062   1.726   3.463   4.271
 6703TIP3    H220063   1.613   3.508   4.359
 6704TIP3   OH220064   2.831   4.150   4.940
 6704TIP3    H120065   2.867   4.079   4.882
 6704TIP3    H220066   2.802   4.095   5.017
 6705TIP3   OH220067   2.989   3.685   4.804
 6705TIP3    H120068   2.960   3.699   4.897
 6705TIP3    H220069   2.954   3.597   4.786
 6706TIP3   OH220070   2.041   3.675   4.073
 6706TIP3    H120071   1.967   3.648   4.018
 6706TIP3    H220072   2.098   3.722   4.010
 6707TIP3   OH220073   3.165   5.374   5.034
 6707TIP3    H120074   3.162   5.399   4.940
 6707TIP3    H220075   3.244   5.422   5.065
 6708TIP3   OH220076   2.119   4.485   5.453
 6708TIP3    H120077   2.199   4.515   5.501
 6708TIP3    H220078   2.055   4.483   5.526
 6709TIP3   OH220079   2.089   3.370   4.543
 6709TIP3    H120080   2.063   3.334   4.629
 6709TIP3    H220081   2.159   3.432   4.564
 6710TIP3   OH220082   2.558   3.823   5.031
 6710TIP3    H120083   2.471   3.862   5.012
 6710TIP3    H220084   2.614   3.900   5.049
 6711TIP3   OH220085   2.290   4.226   4.093
 6711TIP3    H120086   2.222   4.155   4.086
 6711TIP3    H220087   2.273   4.259   4.185
 6712TIP3   OH220088   3.196   4.463   4.720
 6712TIP3    H120089   3.221   4.515   4.641
 6712TIP3    H220090   3.108   4.426   4.695
 6713TIP3   OH220091   2.750   3.549   3.970
 6713TIP3    H120092   2.656   3.522   3.968
 6713TIP3    H220093   2.747   3.639   3.933
 6714TIP3   OH220094   2.694   4.545   5.090
 6714TIP3    H120095   2.723   4.525   5.180
 6714TIP3    H220096   2.657   4.634   5.099
 6715TIP3   OH220097   2.000   4.253   4.763
 6715TIP3    H120098   2.030   4.210   4.681
 6715TIP3    H220099   2.017   4.185   4.829
 6716TIP3   OH220100   2.438   4.372   3.915
 6716TIP3    H120101   2.392   4.459   3.919
 6716TIP3    H220102   2.384   4.319   3.978
 6717TIP3   OH220103   1.871   4.168   5.382
 6717TIP3    H120104   1.888   4.153   5.478
 6717TIP3    H220105   1.802   4.102   5.364
 6718TIP3   OH220106   2.596   4.284   5.401
 6718TIP3    H120107   2.535   4.223   5.358
 6718TIP3    H220108   2.683   4.247   5.373
 6719TIP3   OH220109   2.854   4.804   4.987
 6719TIP3    H120110   2.758   4.802   5.001
 6719TIP3    H220111   2.883   4.856   5.065
 6720TIP3   OH220112   3.485   4.736   4.975
 6720TIP3    H120113   3.387   4.729   4.967
 6720TIP3    H220114   3.510   4.704   4.885
 6721TIP3   OH220115   2.964   4.694   3.805
 6721TIP3    H120116   2.942   4.621   3.864
 6721TIP3    H220117   2.981   4.649   3.720
 6722TIP3   OH220118   2.957   4.332   4.647
 6722TIP3    H120119   2.862   4.310   4.657
 6722TIP3    H220120   2.993   4.245   4.625
 6723TIP3   OH220121   2.091   4.553   4.398
 6723TIP3    H120122   2.089   4.632   4.341
 6723TIP3    H220123   1.997   4.533   4.405
 6724TIP3   OH220124   1.644   3.853   4.091
 6724TIP3    H120125   1.696   3.934   4.114
 6724TIP3    H220126   1.575   3.856   4.161
 6725TIP3   OH220127   2.222   4.310   4.339
 6725TIP3    H120128   2.188   4.399   4.362
 6725TIP3    H220129   2.188   4.255   4.412
 6726TIP3   OH220130   2.360   4.895   4.862
 6726TIP3    H120131   2.403   4.968   4.812
 6726TIP3    H220132   2.436   4.858   4.909
 6727TIP3   OH220133   2.007   4.792   4.244
 6727TIP3    H120134   1.922   4.801   4.293
 6727TIP3    H220135   2.040   4.885   4.248
 6728TIP3   OH220136   2.744   4.528   4.823
 6728TIP3    H120137   2.733   4.527   4.920
 6728TIP3    H220138   2.825   4.477   4.812
 6729TIP3   OH220139   2.723   4.428   3.703
 6729TIP3    H120140   2.780   4.404   3.780
 6729TIP3    H220141   2.638   4.392   3.734
 6730TIP3   OH220142   2.995   5.061   4.871
 6730TIP3    H120143   2.914   5.005   4.865
 6730TIP3    H220144   2.979   5.125   4.799
 6731TIP3   OH220145   3.062   4.896   3.523
 6731TIP3    H120146   3.101   4.971   3.475
 6731TIP3    H220147   2.981   4.940   3.557
 6732TIP3   OH220148   2.078   3.674   5.387
 6732TIP3    H120149   1.981   3.675   5.400
 6732TIP3    H220150   2.107   3.617   5.460
 6733TIP3   OH220151   2.882   4.372   3.920
 6733TIP3    H120152   2.870   4.311   3.996
 6733TIP3    H220153   2.979   4.361   3.907
 6734TIP3   OH220154   1.796   4.755   5.021
 6734TIP3    H120155   1.851   4.683   5.055
 6734TIP3    H220156   1.824   4.828   5.077
 6735TIP3   OH220157   2.084   4.404   3.705
 6735TIP3    H120158   2.102   4.312   3.680
 6735TIP3    H220159   2.064   4.394   3.801
 6736TIP3   OH220160   2.031   4.408   3.977
 6736TIP3    H120161   2.107   4.378   4.029
 6736TIP3    H220162   2.037   4.506   3.988
 6737TIP3   OH220163   1.753   4.092   4.163
 6737TIP3    H120164   1.703   4.132   4.237
 6737TIP3    H220165   1.779   4.170   4.113
 6738TIP3   OH220166   2.930   3.728   5.066
 6738TIP3    H120167   2.995   3.777   5.119
 6738TIP3    H220168   2.907   3.653   5.124
 6739TIP3   OH220169   2.819   3.480   4.233
 6739TIP3    H120170   2.792   3.491   4.140
 6739TIP3    H220171   2.865   3.565   4.247
 6740TIP3   OH220172   2.298   4.603   3.925
 6740TIP3    H120173   2.212   4.629   3.962
 6740TIP3    H220174   2.314   4.678   3.865
 6741TIP3   OH220175   2.762   3.991   5.147
 6741TIP3    H120176   2.783   4.043   5.228
 6741TIP3    H220177   2.805   3.906   5.166
 6742TIP3   OH220178   2.044   4.681   3.995
 6742TIP3    H120179   2.013   4.752   3.933
 6742TIP3    H220180   2.028   4.723   4.082
 6743TIP3   OH220181   2.131   3.393   4.217
 6743TIP3    H120182   2.102   3.462   4.279
 6743TIP3    H220183   2.225   3.386   4.239
 6744TIP3   OH220184   3.397   3.889   5.130
 6744TIP3    H120185   3.299   3.881   5.136
 6744TIP3    H220186   3.412   3.871   5.037
 6745TIP3   OH220187   1.761   4.316   3.978
 6745TIP3    H120188   1.837   4.376   3.990
 6745TIP3    H220189   1.801   4.253   3.914
 6746TIP3   OH220190   1.704   3.583   4.104
 6746TIP3    H120191   1.711   3.680   4.110
 6746TIP3    H220192   1.609   3.572   4.095
 6747TIP3   OH220193   3.016   5.040   4.465
 6747TIP3    H120194   2.973   5.087   4.390
 6747TIP3    H220195   3.110   5.057   4.443
 6748TIP3   OH220196   2.089   3.308   4.997
 6748TIP3    H120197   2.060   3.274   4.909
 6748TIP3    H220198   2.079   3.229   5.053
 6749TIP3   OH220199   1.631   4.527   4.369
 6749TIP3    H120200   1.565   4.553   4.434
 6749TIP3    H220201   1.594   4.568   4.287
 6750TIP3   OH220202   1.790   5.071   5.445
 6750TIP3    H120203   1.876   5.071   5.492
 6750TIP3    H220204   1.770   4.975   5.444
 6751TIP3   OH220205   2.265   5.028   5.490
 6751TIP3    H120206   2.361   5.012   5.495
 6751TIP3    H220207   2.240   4.966   5.418
 6752TIP3   OH220208   2.249   4.606   3.615
 6752TIP3    H120209   2.195   4.533   3.653
 6752TIP3    H220210   2.326   4.556   3.582
 6753TIP3   OH220211   2.908   4.937   5.223
 6753TIP3    H120212   2.900   4.868   5.293
 6753TIP3    H220213   2.985   4.989   5.254
 6754TIP3   OH220214   2.685   4.644   3.530
 6754TIP3    H120215   2.724   4.578   3.591
 6754TIP3    H220216   2.745   4.638   3.452
 6755TIP3   OH220217   1.918   4.473   5.645
 6755TIP3    H120218   1.933   4.377   5.651
 6755TIP3    H220219   1.831   4.475   5.599
 6756TIP3   OH220220   1.892   4.123   3.838
 6756TIP3    H120221   1.942   4.089   3.914
 6756TIP3    H220222   1.963   4.128   3.771
 6757TIP3   OH220223   2.524   4.560   5.419
 6757TIP3    H120224   2.484   4.580   5.332
 6757TIP3    H220225   2.554   4.467   5.408
 6758TIP3   OH220226   2.405   4.320   3.646
 6758TIP3    H120227   2.410   4.332   3.743
 6758TIP3    H220228   2.407   4.222   3.640
 6759TIP3   OH220229   3.017   4.569   5.025
 6759TIP3    H120230   3.094   4.612   4.982
 6759TIP3    H220231   2.948   4.636   5.010
 6760TIP3   OH220232   2.038   4.210   5.628
 6760TIP3    H120233   2.114   4.157   5.601
 6760TIP3    H220234   2.067   4.242   5.716
 6761TIP3   OH220235   2.104   4.021   4.066
 6761TIP3    H120236   2.063   3.970   4.137
 6761TIP3    H220237   2.143   3.949   4.012
 6762TIP3   OH220238   2.373   4.093   5.291
 6762TIP3    H120239   2.294   4.151   5.288
 6762TIP3    H220240   2.425   4.127   5.214
 6763TIP3   OH220241   2.203   3.822   3.899
 6763TIP3    H120242   2.178   3.829   3.804
 6763TIP3    H220243   2.300   3.822   3.891
 6764TIP3   OH220244   2.891   4.494   5.422
 6764TIP3    H120245   2.968   4.462   5.373
 6764TIP3    H220246   2.884   4.428   5.494
 6765TIP3   OH220247   3.013   4.153   3.567
 6765TIP3    H120248   2.999   4.104   3.483
 6765TIP3    H220249   2.979   4.241   3.540
 6766TIP3   OH220250   2.496   3.882   5.413
 6766TIP3    H120251   2.495   3.801   5.358
 6766TIP3    H220252   2.452   3.947   5.355
 6767TIP3   OH220253   2.495   3.660   5.237
 6767TIP3    H120254   2.526   3.709   5.158
 6767TIP3    H220255   2.402   3.640   5.212
 6768TIP3   OH220256   2.522   4.201   5.096
 6768TIP3    H120257   2.609   4.216   5.057
 6768TIP3    H220258   2.467   4.267   5.051
 6769TIP3   OH220259   3.103   4.168   5.473
 6769TIP3    H120260   3.151   4.088   5.499
 6769TIP3    H220261   3.175   4.223   5.439
 6770TIP3   OH220262   3.147   4.423   5.212
 6770TIP3    H120263   3.090   4.477   5.153
 6770TIP3    H220264   3.235   4.444   5.173
 6771TIP3   OH220265   2.375   3.988   5.648
 6771TIP3    H120266   2.308   3.919   5.662
 6771TIP3    H220267   2.408   3.964   5.559
 6772TIP3   OH220268   2.633   3.425   5.289
 6772TIP3    H120269   2.581   3.507   5.270
 6772TIP3    H220270   2.564   3.356   5.278
 6773TIP3   OH220271   2.757   3.932   5.505
 6773TIP3    H120272   2.745   3.915   5.600
 6773TIP3    H220273   2.667   3.908   5.473
 6774TIP3   OH220274   2.998   3.878   5.362
 6774TIP3    H120275   2.924   3.883   5.425
 6774TIP3    H220276   3.070   3.840   5.418
 6775TIP3   OH220277   3.218   3.796   5.519
 6775TIP3    H120278   3.287   3.728   5.537
 6775TIP3    H220279   3.221   3.852   5.599
 6776TIP3   OH220280   2.213   3.769   5.701
 6776TIP3    H120281   2.217   3.677   5.667
 6776TIP3    H220282   2.252   3.757   5.790
 6777TIP3   OH220283   2.723   3.440   5.548
 6777TIP3    H120284   2.790   3.369   5.543
 6777TIP3    H220285   2.684   3.434   5.459
 6778TIP3   OH220286   2.794   3.657   5.704
 6778TIP3    H120287   2.772   3.584   5.642
 6778TIP3    H220288   2.714   3.713   5.699
 6779TIP3   OH220289   2.013   4.885   3.806
 6779TIP3    H120290   2.109   4.874   3.788
 6779TIP3    H220291   1.987   4.937   3.728
 6780TIP3   OH220292   1.494   4.269   4.020
 6780TIP3    H120293   1.588   4.291   4.006
 6780TIP3    H220294   1.490   4.179   3.982
 6781TIP3   OH220295   1.409   4.877   4.437
 6781TIP3    H120296   1.342   4.815   4.399
 6781TIP3    H220297   1.453   4.818   4.503
 6782TIP3   OH220298   1.542   4.725   4.625
 6782TIP3    H120299   1.530   4.654   4.690
 6782TIP3    H220300   1.595   4.787   4.677
 6783TIP3   OH220301   3.271   5.127   4.425
 6783TIP3    H120302   3.298   5.159   4.513
 6783TIP3    H220303   3.336   5.169   4.366
 6784TIP3   OH220304   3.298   5.148   4.707
 6784TIP3    H120305   3.253   5.062   4.701
 6784TIP3    H220306   3.373   5.123   4.764
 6785TIP3   OH220307   3.344   4.825   5.279
 6785TIP3    H120308   3.273   4.835   5.345
 6785TIP3    H220309   3.387   4.913   5.283
 6786TIP3   OH220310   3.153   4.346   3.906
 6786TIP3    H120311   3.225   4.406   3.875
 6786TIP3    H220312   3.192   4.311   3.990
 6787TIP3   OH220313   3.272   4.223   4.123
 6787TIP3    H120314   3.277   4.131   4.150
 6787TIP3    H220315   3.358   4.257   4.157
 6788TIP3   OH220316   3.347   4.601   4.535
 6788TIP3    H120317   3.394   4.531   4.486
 6788TIP3    H220318   3.342   4.673   4.470
 6789TIP3   OH220319   3.174   4.899   4.728
 6789TIP3    H120320   3.101   4.941   4.779
 6789TIP3    H220321   3.124   4.853   4.657
 6790TIP3   OH220322   3.233   4.153   3.725
 6790TIP3    H120323   3.154   4.147   3.667
 6790TIP3    H220324   3.199   4.212   3.795
 6791TIP3   OH220325   1.727   4.134   4.995
 6791TIP3    H120326   1.726   4.101   4.902
 6791TIP3    H220327   1.824   4.135   5.012
 6792TIP3   OH220328   3.393   4.488   5.106
 6792TIP3    H120329   3.464   4.421   5.095
 6792TIP3    H220330   3.419   4.556   5.041
 6793TIP3   OH220331   3.577   4.289   5.112
 6793TIP3    H120332   3.503   4.240   5.154
 6793TIP3    H220333   3.650   4.225   5.130
 6794TIP3   OH220334   3.043   3.509   3.686
 6794TIP3    H120335   3.111   3.482   3.749
 6794TIP3    H220336   2.965   3.459   3.713
 6795TIP3   OH220337   3.258   3.939   4.645
 6795TIP3    H120338   3.341   3.964   4.600
 6795TIP3    H220339   3.270   3.987   4.729
 6796TIP3   OH220340   3.332   4.097   4.870
 6796TIP3    H120341   3.254   4.132   4.918
 6796TIP3    H220342   3.365   4.177   4.824
 6797TIP3   OH220343   1.947   3.822   5.671
 6797TIP3    H120344   2.045   3.816   5.673
 6797TIP3    H220345   1.924   3.734   5.709
 6798TIP3   OH220346   3.829   3.715   5.431
 6798TIP3    H120347   3.827   3.623   5.401
 6798TIP3    H220348   3.762   3.754   5.371
 6799TIP3   OH220349   1.907   3.520   5.011
 6799TIP3    H120350   1.966   3.441   5.015
 6799TIP3    H220351   1.971   3.589   4.989
 6800TIP3   OH220352   1.709   3.788   5.071
 6800TIP3    H120353   1.758   3.779   4.987
 6800TIP3    H220354   1.742   3.872   5.104
 6801TIP3   OH220355   3.655   3.833   5.246
 6801TIP3    H120356   3.575   3.867   5.290
 6801TIP3    H220357   3.615   3.763   5.192
 6802TIP3   OH220358   1.689   3.275   4.562
 6802TIP3    H120359   1.600   3.286   4.598
 6802TIP3    H220360   1.693   3.342   4.492
 6803TIP3   OH220361   2.853   4.998   4.079
 6803TIP3    H120362   2.903   4.984   3.996
 6803TIP3    H220363   2.909   5.061   4.126
 6804TIP3   OH220364   1.916   3.372   5.388
 6804TIP3    H120365   1.863   3.368   5.470
 6804TIP3    H220366   1.851   3.409   5.326
 6805TIP3   OH220367   1.954   4.802   5.463
 6805TIP3    H120368   1.861   4.775   5.447
 6805TIP3    H220369   1.965   4.781   5.557
 6806TIP3   OH220370   2.133   4.835   5.011
 6806TIP3    H120371   2.086   4.911   4.972
 6806TIP3    H220372   2.220   4.847   4.967
 6807TIP3   OH220373   2.574   5.076   5.149
 6807TIP3    H120374   2.616   5.075   5.238
 6807TIP3    H220375   2.640   5.128   5.098
 6808TIP3   OH220376   2.754   5.230   5.011
 6808TIP3    H120377   2.824   5.179   4.968
 6808TIP3    H220378   2.807   5.286   5.072
 6809TIP3   OH220379   1.807   5.089   5.036
 6809TIP3    H120380   1.717   5.121   5.014
 6809TIP3    H220381   1.821   5.133   5.121
 6810TIP3   OH220382   2.045   5.068   4.896
 6810TIP3    H120383   1.957   5.080   4.938
 6810TIP3    H220384   2.026   5.099   4.805
 6811TIP3   OH220385   2.470   5.094   4.693
 6811TIP3    H120386   2.401   5.112   4.627
 6811TIP3    H220387   2.481   5.182   4.735
 6812TIP3   OH220388   2.740   5.033   4.746
 6812TIP3    H120389   2.646   5.051   4.725
 6812TIP3    H220390   2.784   5.107   4.701
 6813TIP3   OH220391   2.946   5.225   4.657
 6813TIP3    H120392   2.932   5.309   4.609
 6813TIP3    H220393   2.973   5.165   4.585
 6814TIP3   OH220394   1.719   4.881   4.781
 6814TIP3    H120395   1.746   4.854   4.871
 6814TIP3    H220396   1.791   4.837   4.730
 6815TIP3   OH220397   1.915   4.754   4.640
 6815TIP3    H120398   1.930   4.671   4.690
 6815TIP3    H220399   2.006   4.789   4.635
 6816TIP3   OH220400   2.182   4.847   4.644
 6816TIP3    H120401   2.212   4.755   4.632
 6816TIP3    H220402   2.229   4.869   4.726
 6817TIP3   OH220403   3.289   3.426   4.648
 6817TIP3    H120404   3.327   3.460   4.564
 6817TIP3    H220405   3.194   3.429   4.627
 6818TIP3   OH220406   3.413   3.473   4.420
 6818TIP3    H120407   3.417   3.434   4.332
 6818TIP3    H220408   3.369   3.559   4.405
 6819TIP3   OH220409   2.006   3.205   4.761
 6819TIP3    H120410   1.912   3.180   4.753
 6819TIP3    H220411   2.049   3.118   4.747
 6820TIP3   OH220412   1.786   3.082   4.390
 6820TIP3    H120413   1.821   3.142   4.321
 6820TIP3    H220414   1.761   3.146   4.460
 6821TIP3   OH220415   2.457   3.226   4.644
 6821TIP3    H120416   2.550   3.247   4.632
 6821TIP3    H220417   2.441   3.263   4.732
 6822TIP3   OH220418   3.028   3.398   4.623
 6822TIP3    H120419   2.994   3.385   4.535
 6822TIP3    H220420   2.993   3.320   4.671
 6823TIP3   OH220421   3.022   3.304   4.161
 6823TIP3    H120422   2.952   3.365   4.191
 6823TIP3    H220423   3.005   3.224   4.213
 6824TIP3   OH220424   1.509   4.656   4.168
 6824TIP3    H120425   1.423   4.623   4.137
 6824TIP3    H220426   1.497   4.751   4.151
 6825TIP3   OH220427   1.905   3.239   4.151
 6825TIP3    H120428   1.956   3.178   4.095
 6825TIP3    H220429   1.977   3.294   4.189
 6826TIP3   OH220430   2.416   3.420   4.256
 6826TIP3    H120431   2.438   3.334   4.294
 6826TIP3    H220432   2.407   3.477   4.333
 6827TIP3   OH220433   2.280   4.840   3.753
 6827TIP3    H120434   2.369   4.862   3.718
 6827TIP3    H220435   2.258   4.765   3.693
 6828TIP3   OH220436   2.999   4.961   3.848
 6828TIP3    H120437   2.992   4.863   3.838
 6828TIP3    H220438   2.954   4.990   3.766
 6829TIP3   OH220439   2.212   3.494   5.636
 6829TIP3    H120440   2.175   3.423   5.692
 6829TIP3    H220441   2.306   3.493   5.664
 6830TIP3   OH220442   2.462   3.490   5.755
 6830TIP3    H120443   2.548   3.468   5.716
 6830TIP3    H220444   2.451   3.419   5.821
 6831TIP3   OH220445   1.584   4.678   3.808
 6831TIP3    H120446   1.587   4.695   3.903
 6831TIP3    H220447   1.671   4.635   3.792
 6832TIP3   OH220448   3.224   5.105   5.033
 6832TIP3    H120449   3.145   5.074   4.983
 6832TIP3    H220450   3.204   5.200   5.040
 6833TIP3   OH220451   4.440   4.485   4.201
 6833TIP3    H120452   4.513   4.462   4.260
 6833TIP3    H220453   4.428   4.403   4.151
 6834TIP3   OH220454   3.788   4.374   4.548
 6834TIP3    H120455   3.815   4.303   4.609
 6834TIP3    H220456   3.871   4.423   4.540
 6835TIP3   OH220457   3.762   4.782   4.270
 6835TIP3    H120458   3.752   4.685   4.272
 6835TIP3    H220459   3.858   4.790   4.257
 6836TIP3   OH220460   3.520   4.284   4.223
 6836TIP3    H120461   3.579   4.219   4.267
 6836TIP3    H220462   3.575   4.316   4.151
 6837TIP3   OH220463   4.392   5.244   3.883
 6837TIP3    H120464   4.429   5.172   3.828
 6837TIP3    H220465   4.375   5.197   3.966
 6838TIP3   OH220466   4.282   4.709   4.233
 6838TIP3    H120467   4.325   4.625   4.207
 6838TIP3    H220468   4.364   4.761   4.249
 6839TIP3   OH220469   5.320   4.022   4.229
 6839TIP3    H120470   5.341   4.108   4.271
 6839TIP3    H220471   5.284   4.053   4.144
 6840TIP3   OH220472   4.720   4.212   4.286
 6840TIP3    H120473   4.774   4.132   4.300
 6840TIP3    H220474   4.739   4.234   4.194
 6841TIP3   OH220475   4.040   3.850   4.230
 6841TIP3    H120476   4.076   3.909   4.162
 6841TIP3    H220477   4.019   3.771   4.177
 6842TIP3   OH220478   3.675   4.102   4.355
 6842TIP3    H120479   3.757   4.070   4.398
 6842TIP3    H220480   3.644   4.022   4.310
 6843TIP3   OH220481   4.133   4.254   4.160
 6843TIP3    H120482   4.228   4.241   4.177
 6843TIP3    H220483   4.132   4.246   4.063
 6844TIP3   OH220484   5.382   4.236   4.398
 6844TIP3    H120485   5.299   4.281   4.371
 6844TIP3    H220486   5.379   4.254   4.494
 6845TIP3   OH220487   4.034   3.833   4.673
 6845TIP3    H120488   3.983   3.864   4.596
 6845TIP3    H220489   3.978   3.864   4.747
 6846TIP3   OH220490   4.406   4.737   3.629
 6846TIP3    H120491   4.351   4.660   3.609
 6846TIP3    H220492   4.342   4.796   3.673
 6847TIP3   OH220493   4.146   4.625   4.454
 6847TIP3    H120494   4.086   4.695   4.489
 6847TIP3    H220495   4.186   4.672   4.377
 6848TIP3   OH220496   3.908   3.963   4.445
 6848TIP3    H120497   3.973   4.033   4.471
 6848TIP3    H220498   3.957   3.921   4.371
 6849TIP3   OH220499   3.973   4.820   4.555
 6849TIP3    H120500   3.947   4.906   4.516
 6849TIP3    H220501   3.894   4.802   4.609
 6850TIP3   OH220502   3.357   4.509   3.799
 6850TIP3    H120503   3.335   4.522   3.705
 6850TIP3    H220504   3.398   4.593   3.823
 6851TIP3   OH220505   4.818   5.038   4.051
 6851TIP3    H120506   4.728   5.007   4.074
 6851TIP3    H220507   4.796   5.112   3.992
 6852TIP3   OH220508   5.103   3.921   4.394
 6852TIP3    H120509   5.010   3.941   4.367
 6852TIP3    H220510   5.152   3.959   4.319
 6853TIP3   OH220511   4.501   5.067   3.696
 6853TIP3    H120512   4.554   4.985   3.686
 6853TIP3    H220513   4.565   5.132   3.659
 6854TIP3   OH220514   4.653   4.846   3.624
 6854TIP3    H120515   4.567   4.801   3.612
 6854TIP3    H220516   4.697   4.789   3.689
 6855TIP3   OH220517   5.032   4.933   4.371
 6855TIP3    H120518   5.014   4.858   4.311
 6855TIP3    H220519   5.010   5.010   4.313
 6856TIP3   OH220520   4.286   4.329   3.606
 6856TIP3    H120521   4.240   4.396   3.556
 6856TIP3    H220522   4.369   4.317   3.556
 6857TIP3   OH220523   4.277   4.111   3.344
 6857TIP3    H120524   4.335   4.171   3.397
 6857TIP3    H220525   4.345   4.055   3.301
 6858TIP3   OH220526   5.226   4.581   4.222
 6858TIP3    H120527   5.138   4.625   4.221
 6858TIP3    H220528   5.255   4.601   4.130
 6859TIP3   OH220529   4.905   4.451   4.521
 6859TIP3    H120530   4.899   4.535   4.569
 6859TIP3    H220531   4.815   4.450   4.479
 6860TIP3   OH220532   4.027   4.816   4.163
 6860TIP3    H120533   4.007   4.785   4.073
 6860TIP3    H220534   4.116   4.779   4.180
 6861TIP3   OH220535   4.030   4.384   4.379
 6861TIP3    H120536   4.069   4.347   4.296
 6861TIP3    H220537   4.081   4.466   4.392
 6862TIP3   OH220538   4.561   5.020   4.147
 6862TIP3    H120539   4.554   5.097   4.205
 6862TIP3    H220540   4.545   4.945   4.207
 6863TIP3   OH220541   4.177   4.936   4.699
 6863TIP3    H120542   4.115   4.998   4.744
 6863TIP3    H220543   4.113   4.883   4.647
 6864TIP3   OH220544   4.488   4.270   3.429
 6864TIP3    H120545   4.563   4.240   3.482
 6864TIP3    H220546   4.529   4.295   3.343
 6865TIP3   OH220547   3.934   4.490   4.804
 6865TIP3    H120548   3.937   4.579   4.845
 6865TIP3    H220549   3.838   4.470   4.816
 6866TIP3   OH220550   4.247   4.954   3.714
 6866TIP3    H120551   4.333   4.999   3.714
 6866TIP3    H220552   4.192   5.011   3.659
 6867TIP3   OH220553   3.971   5.103   4.786
 6867TIP3    H120554   3.935   5.106   4.695
 6867TIP3    H220555   3.890   5.081   4.839
 6868TIP3   OH220556   5.039   3.519   3.481
 6868TIP3    H120557   4.956   3.533   3.533
 6868TIP3    H220558   5.040   3.599   3.426
 6869TIP3   OH220559   4.825   4.877   3.027
 6869TIP3    H120560   4.834   4.973   3.011
 6869TIP3    H220561   4.918   4.847   3.014
 6870TIP3   OH220562   3.549   4.636   4.732
 6870TIP3    H120563   3.481   4.616   4.664
 6870TIP3    H220564   3.587   4.548   4.751
 6871TIP3   OH220565   3.403   4.830   4.364
 6871TIP3    H120566   3.499   4.825   4.355
 6871TIP3    H220567   3.392   4.909   4.419
 6872TIP3   OH220568   5.264   5.288   4.414
 6872TIP3    H120569   5.266   5.191   4.425
 6872TIP3    H220570   5.179   5.307   4.461
 6873TIP3   OH220571   4.374   5.063   4.558
 6873TIP3    H120572   4.370   5.156   4.588
 6873TIP3    H220573   4.301   5.023   4.610
 6874TIP3   OH220574   4.139   5.195   3.507
 6874TIP3    H120575   4.090   5.174   3.425
 6874TIP3    H220576   4.102   5.281   3.533
 6875TIP3   OH220577   3.573   5.044   3.893
 6875TIP3    H120578   3.618   5.034   3.980
 6875TIP3    H220579   3.525   4.959   3.888
 6876TIP3   OH220580   4.336   5.098   3.146
 6876TIP3    H120581   4.394   5.028   3.109
 6876TIP3    H220582   4.370   5.106   3.237
 6877TIP3   OH220583   4.389   5.145   3.416
 6877TIP3    H120584   4.299   5.156   3.454
 6877TIP3    H220585   4.435   5.101   3.489
 6878TIP3   OH220586   5.158   4.411   4.693
 6878TIP3    H120587   5.075   4.423   4.645
 6878TIP3    H220588   5.173   4.315   4.683
 6879TIP3   OH220589   3.753   4.819   4.718
 6879TIP3    H120590   3.802   4.802   4.800
 6879TIP3    H220591   3.679   4.756   4.725
 6880TIP3   OH220592   4.693   3.749   4.701
 6880TIP3    H120593   4.765   3.725   4.763
 6880TIP3    H220594   4.612   3.739   4.755
 6881TIP3   OH220595   4.924   4.186   4.620
 6881TIP3    H120596   4.872   4.184   4.704
 6881TIP3    H220597   4.901   4.273   4.582
 6882TIP3   OH220598   4.592   4.304   3.176
 6882TIP3    H120599   4.554   4.287   3.087
 6882TIP3    H220600   4.671   4.355   3.152
 6883TIP3   OH220601   4.311   3.684   3.482
 6883TIP3    H120602   4.268   3.673   3.569
 6883TIP3    H220603   4.266   3.613   3.432
 6884TIP3   OH220604   4.086   4.160   4.524
 6884TIP3    H120605   4.035   4.180   4.605
 6884TIP3    H220606   4.067   4.241   4.471
 6885TIP3   OH220607   4.635   4.405   4.850
 6885TIP3    H120608   4.612   4.334   4.913
 6885TIP3    H220609   4.728   4.420   4.873
 6886TIP3   OH220610   3.905   4.187   4.730
 6886TIP3    H120611   3.929   4.252   4.797
 6886TIP3    H220612   3.891   4.106   4.783
 6887TIP3   OH220613   3.959   3.671   3.459
 6887TIP3    H120614   3.904   3.636   3.531
 6887TIP3    H220615   3.888   3.722   3.413
 6888TIP3   OH220616   4.632   4.413   4.439
 6888TIP3    H120617   4.659   4.339   4.380
 6888TIP3    H220618   4.594   4.362   4.513
 6889TIP3   OH220619   4.833   3.949   4.336
 6889TIP3    H120620   4.776   3.960   4.415
 6889TIP3    H220621   4.793   3.873   4.291
 6890TIP3   OH220622   3.831   3.983   3.574
 6890TIP3    H120623   3.761   3.922   3.546
 6890TIP3    H220624   3.885   3.987   3.493
 6891TIP3   OH220625   4.961   5.626   4.518
 6891TIP3    H120626   4.950   5.651   4.424
 6891TIP3    H220627   5.005   5.704   4.554
 6892TIP3   OH220628   3.917   4.741   4.939
 6892TIP3    H120629   3.996   4.771   4.988
 6892TIP3    H220630   3.851   4.738   5.012
 6893TIP3   OH220631   4.396   4.197   4.197
 6893TIP3    H120632   4.423   4.134   4.129
 6893TIP3    H220633   4.405   4.147   4.280
 6894TIP3   OH220634   3.983   3.633   4.064
 6894TIP3    H120635   3.917   3.579   4.112
 6894TIP3    H220636   3.940   3.642   3.976
 6895TIP3   OH220637   4.356   4.089   4.490
 6895TIP3    H120638   4.266   4.129   4.497
 6895TIP3    H220639   4.412   4.155   4.535
 6896TIP3   OH220640   4.062   4.500   3.580
 6896TIP3    H120641   4.008   4.421   3.561
 6896TIP3    H220642   4.084   4.483   3.674
 6897TIP3   OH220643   4.990   4.720   4.199
 6897TIP3    H120644   5.023   4.775   4.125
 6897TIP3    H220645   4.915   4.676   4.157
 6898TIP3   OH220646   4.555   3.804   3.445
 6898TIP3    H120647   4.462   3.777   3.460
 6898TIP3    H220648   4.556   3.895   3.477
 6899TIP3   OH220649   4.499   4.805   4.579
 6899TIP3    H120650   4.514   4.781   4.671
 6899TIP3    H220651   4.452   4.890   4.585
 6900TIP3   OH220652   3.787   4.497   4.257
 6900TIP3    H120653   3.851   4.482   4.186
 6900TIP3    H220654   3.826   4.446   4.330
 6901TIP3   OH220655   4.226   4.626   3.394
 6901TIP3    H120656   4.193   4.719   3.402
 6901TIP3    H220657   4.168   4.582   3.459
 6902TIP3   OH220658   3.669   4.422   4.869
 6902TIP3    H120659   3.684   4.409   4.964
 6902TIP3    H220660   3.597   4.359   4.852
 6903TIP3   OH220661   4.393   4.541   4.887
 6903TIP3    H120662   4.331   4.481   4.843
 6903TIP3    H220663   4.479   4.504   4.858
 6904TIP3   OH220664   4.653   5.068   4.471
 6904TIP3    H120665   4.558   5.057   4.484
 6904TIP3    H220666   4.678   5.116   4.553
 6905TIP3   OH220667   5.280   5.001   4.456
 6905TIP3    H120668   5.182   4.988   4.449
 6905TIP3    H220669   5.307   4.964   4.369
 6906TIP3   OH220670   4.768   4.951   3.295
 6906TIP3    H120671   4.733   4.883   3.354
 6906TIP3    H220672   4.774   4.904   3.210
 6907TIP3   OH220673   3.868   4.801   3.892
 6907TIP3    H120674   3.892   4.869   3.828
 6907TIP3    H220675   3.772   4.805   3.890
 6908TIP3   OH220676   3.456   4.115   3.587
 6908TIP3    H120677   3.485   4.206   3.598
 6908TIP3    H220678   3.375   4.116   3.643
 6909TIP3   OH220679   4.156   5.152   4.349
 6909TIP3    H120680   4.198   5.224   4.298
 6909TIP3    H220681   4.232   5.113   4.394
 6910TIP3   OH220682   3.801   5.050   3.728
 6910TIP3    H120683   3.718   5.058   3.779
 6910TIP3    H220684   3.835   5.142   3.733
 6911TIP3   OH220685   4.536   4.792   4.309
 6911TIP3    H120686   4.529   4.788   4.407
 6911TIP3    H220687   4.598   4.720   4.291
 6912TIP3   OH220688   4.517   4.683   3.188
 6912TIP3    H120689   4.573   4.653   3.263
 6912TIP3    H220690   4.430   4.653   3.218
 6913TIP3   OH220691   4.792   5.319   4.362
 6913TIP3    H120692   4.714   5.260   4.358
 6913TIP3    H220693   4.772   5.381   4.288
 6914TIP3   OH220694   4.857   5.152   3.010
 6914TIP3    H120695   4.890   5.224   2.954
 6914TIP3    H220696   4.777   5.195   3.046
 6915TIP3   OH220697   3.873   3.927   4.879
 6915TIP3    H120698   3.778   3.935   4.897
 6915TIP3    H220699   3.906   3.885   4.961
 6916TIP3   OH220700   4.681   4.606   3.392
 6916TIP3    H120701   4.658   4.589   3.484
 6916TIP3    H220702   4.779   4.604   3.395
 6917TIP3   OH220703   3.594   5.013   4.507
 6917TIP3    H120704   3.648   4.940   4.542
 6917TIP3    H220705   3.620   5.085   4.566
 6918TIP3   OH220706   3.882   4.660   3.194
 6918TIP3    H120707   3.895   4.568   3.164
 6918TIP3    H220708   3.859   4.647   3.288
 6919TIP3   OH220709   3.829   4.663   3.467
 6919TIP3    H120710   3.912   4.635   3.509
 6919TIP3    H220711   3.833   4.760   3.476
 6920TIP3   OH220712   4.708   3.996   4.574
 6920TIP3    H120713   4.790   4.036   4.608
 6920TIP3    H220714   4.701   3.914   4.628
 6921TIP3   OH220715   4.098   4.864   3.415
 6921TIP3    H120716   4.009   4.886   3.450
 6921TIP3    H220717   4.107   4.932   3.347
 6922TIP3   OH220718   4.549   4.244   4.634
 6922TIP3    H120719   4.575   4.294   4.714
 6922TIP3    H220720   4.602   4.162   4.643
 6923TIP3   OH220721   3.842   4.937   3.481
 6923TIP3    H120722   3.810   5.007   3.419
 6923TIP3    H220723   3.824   4.979   3.568
 6924TIP3   OH220724   3.945   3.655   3.769
 6924TIP3    H120725   3.899   3.740   3.756
 6924TIP3    H220726   4.022   3.662   3.712
 6925TIP3   OH220727   5.191   4.143   4.611
 6925TIP3    H120728   5.093   4.144   4.623
 6925TIP3    H220729   5.195   4.097   4.526
 6926TIP3   OH220730   3.550   4.576   3.458
 6926TIP3    H120731   3.627   4.633   3.475
 6926TIP3    H220732   3.594   4.507   3.404
 6927TIP3   OH220733   3.508   3.847   3.547
 6927TIP3    H120734   3.499   3.938   3.580
 6927TIP3    H220735   3.468   3.795   3.618
 6928TIP3   OH220736   4.811   5.305   3.952
 6928TIP3    H120737   4.767   5.351   3.877
 6928TIP3    H220738   4.905   5.316   3.927
 6929TIP3   OH220739   3.891   3.561   4.484
 6929TIP3    H120740   3.865   3.531   4.395
 6929TIP3    H220741   3.877   3.481   4.538
 6930TIP3   OH220742   3.433   4.789   3.855
 6930TIP3    H120743   3.363   4.807   3.920
 6930TIP3    H220744   3.393   4.827   3.773
 6931TIP3   OH220745   3.586   5.327   4.931
 6931TIP3    H120746   3.672   5.326   4.978
 6931TIP3    H220747   3.564   5.232   4.930
 6932TIP3   OH220748   4.063   5.285   4.976
 6932TIP3    H120749   4.158   5.265   4.981
 6932TIP3    H220750   4.036   5.224   4.905
 6933TIP3   OH220751   4.047   4.862   3.104
 6933TIP3    H120752   3.991   4.789   3.140
 6933TIP3    H220753   4.122   4.810   3.068
 6934TIP3   OH220754   4.704   5.195   4.711
 6934TIP3    H120755   4.695   5.124   4.779
 6934TIP3    H220756   4.779   5.247   4.745
 6935TIP3   OH220757   4.483   4.903   3.017
 6935TIP3    H120758   4.520   4.834   3.076
 6935TIP3    H220759   4.538   4.896   2.937
 6936TIP3   OH220760   3.715   4.730   5.131
 6936TIP3    H120761   3.730   4.634   5.139
 6936TIP3    H220762   3.628   4.733   5.086
 6937TIP3   OH220763   3.690   4.381   3.327
 6937TIP3    H120764   3.750   4.351   3.398
 6937TIP3    H220765   3.754   4.386   3.253
 6938TIP3   OH220766   4.322   4.817   4.905
 6938TIP3    H120767   4.278   4.837   4.820
 6938TIP3    H220768   4.350   4.724   4.894
 6939TIP3   OH220769   4.206   4.577   3.129
 6939TIP3    H120770   4.207   4.590   3.226
 6939TIP3    H220771   4.205   4.479   3.124
 6940TIP3   OH220772   4.817   4.825   4.516
 6940TIP3    H120773   4.888   4.871   4.468
 6940TIP3    H220774   4.741   4.884   4.497
 6941TIP3   OH220775   3.835   4.468   5.115
 6941TIP3    H120776   3.909   4.410   5.092
 6941TIP3    H220777   3.863   4.500   5.203
 6942TIP3   OH220778   3.900   4.274   3.539
 6942TIP3    H120779   3.842   4.210   3.583
 6942TIP3    H220780   3.949   4.213   3.480
 6943TIP3   OH220781   4.171   4.349   4.775
 6943TIP3    H120782   4.092   4.407   4.774
 6943TIP3    H220783   4.223   4.385   4.699
 6944TIP3   OH220784   4.008   4.078   3.381
 6944TIP3    H120785   3.981   4.085   3.287
 6944TIP3    H220786   4.106   4.080   3.373
 6945TIP3   OH220787   4.688   4.752   4.911
 6945TIP3    H120788   4.761   4.716   4.859
 6945TIP3    H220789   4.679   4.686   4.982
 6946TIP3   OH220790   4.816   4.408   3.050
 6946TIP3    H120791   4.796   4.364   2.965
 6946TIP3    H220792   4.782   4.498   3.029
 6947TIP3   OH220793   4.294   4.139   4.897
 6947TIP3    H120794   4.290   4.060   4.840
 6947TIP3    H220795   4.249   4.207   4.842
 6948TIP3   OH220796   4.294   3.919   4.707
 6948TIP3    H120797   4.318   3.968   4.625
 6948TIP3    H220798   4.200   3.895   4.689
 6949TIP3   OH220799   4.319   4.459   4.581
 6949TIP3    H120800   4.401   4.469   4.532
 6949TIP3    H220801   4.261   4.524   4.536
 6950TIP3   OH220802   4.900   4.423   4.960
 6950TIP3    H120803   4.949   4.341   4.977
 6950TIP3    H220804   4.969   4.481   4.923
 6951TIP3   OH220805   4.944   4.680   4.702
 6951TIP3    H120806   4.886   4.734   4.643
 6951TIP3    H220807   5.032   4.701   4.662
 6952TIP3   OH220808   4.173   4.243   5.134
 6952TIP3    H120809   4.104   4.176   5.151
 6952TIP3    H220810   4.204   4.218   5.045
 6953TIP3   OH220811   4.423   3.688   4.776
 6953TIP3    H120812   4.385   3.777   4.754
 6953TIP3    H220813   4.345   3.632   4.765
 6954TIP3   OH220814   4.553   4.188   4.994
 6954TIP3    H120815   4.537   4.173   5.089
 6954TIP3    H220816   4.464   4.166   4.959
 6955TIP3   OH220817   4.791   4.138   4.849
 6955TIP3    H120818   4.716   4.142   4.913
 6955TIP3    H220819   4.865   4.109   4.906
 6956TIP3   OH220820   5.024   4.081   4.996
 6956TIP3    H120821   5.035   3.986   5.013
 6956TIP3    H220822   5.017   4.119   5.086
 6957TIP3   OH220823   4.010   4.024   5.185
 6957TIP3    H120824   4.014   3.930   5.158
 6957TIP3    H220825   4.046   4.017   5.276
 6958TIP3   OH220826   4.525   3.698   5.032
 6958TIP3    H120827   4.590   3.625   5.029
 6958TIP3    H220828   4.484   3.691   4.944
 6959TIP3   OH220829   4.589   3.913   5.192
 6959TIP3    H120830   4.566   3.841   5.129
 6959TIP3    H220831   4.509   3.970   5.188
 6960TIP3   OH220832   3.810   5.144   3.296
 6960TIP3    H120833   3.905   5.133   3.275
 6960TIP3    H220834   3.781   5.192   3.216
 6961TIP3   OH220835   3.289   4.521   3.512
 6961TIP3    H120836   3.382   4.546   3.493
 6961TIP3    H220837   3.283   4.433   3.469
 6962TIP3   OH220838   3.203   5.135   3.924
 6962TIP3    H120839   3.138   5.072   3.885
 6962TIP3    H220840   3.249   5.076   3.988
 6963TIP3   OH220841   3.337   4.983   4.112
 6963TIP3    H120842   3.324   4.911   4.175
 6963TIP3    H220843   3.391   5.044   4.165
 6964TIP3   OH220844   5.070   5.380   3.910
 6964TIP3    H120845   5.097   5.413   3.998
 6964TIP3    H220846   5.130   5.426   3.850
 6965TIP3   OH220847   5.103   5.406   4.192
 6965TIP3    H120848   5.046   5.327   4.183
 6965TIP3    H220849   5.168   5.369   4.255
 6966TIP3   OH220850   5.140   5.081   4.768
 6966TIP3    H120851   5.066   5.085   4.831
 6966TIP3    H220852   5.175   5.172   4.774
 6967TIP3   OH220853   4.958   4.594   3.396
 6967TIP3    H120854   5.025   4.656   3.363
 6967TIP3    H220855   4.996   4.566   3.483
 6968TIP3   OH220856   5.063   4.494   3.632
 6968TIP3    H120857   5.018   4.475   3.716
 6968TIP3    H220858   5.154   4.509   3.663
 6969TIP3   OH220859   5.153   4.860   4.028
 6969TIP3    H120860   5.186   4.785   3.975
 6969TIP3    H220861   5.124   4.922   3.959
 6970TIP3   OH220862   4.978   5.165   4.223
 6970TIP3    H120863   4.903   5.203   4.274
 6970TIP3    H220864   4.929   5.117   4.152
 6971TIP3   OH220865   5.028   4.395   3.218
 6971TIP3    H120866   4.951   4.389   3.157
 6971TIP3    H220867   4.993   4.458   3.284
 6972TIP3   OH220868   4.921   4.031   3.175
 6972TIP3    H120869   4.863   4.088   3.123
 6972TIP3    H220870   4.878   3.944   3.164
 6973TIP3   OH220871   3.522   4.389   4.484
 6973TIP3    H120872   3.517   4.363   4.390
 6973TIP3    H220873   3.620   4.390   4.498
 6974TIP3   OH220874   5.190   4.745   4.594
 6974TIP3    H120875   5.261   4.677   4.581
 6974TIP3    H220876   5.207   4.807   4.521
 6975TIP3   OH220877   5.375   4.546   4.601
 6975TIP3    H120878   5.299   4.498   4.640
 6975TIP3    H220879   5.447   4.482   4.621
 6976TIP3   OH220880   4.836   3.768   3.165
 6976TIP3    H120881   4.899   3.745   3.235
 6976TIP3    H220882   4.754   3.721   3.191
 6977TIP3   OH220883   5.074   4.179   4.150
 6977TIP3    H120884   5.114   4.229   4.077
 6977TIP3    H220885   5.076   4.244   4.222
 6978TIP3   OH220886   5.132   4.361   4.360
 6978TIP3    H120887   5.051   4.393   4.405
 6978TIP3    H220888   5.162   4.442   4.313
 6979TIP3   OH220889   3.744   4.076   5.151
 6979TIP3    H120890   3.842   4.070   5.160
 6979TIP3    H220891   3.718   3.994   5.197
 6980TIP3   OH220892   5.579   3.948   4.909
 6980TIP3    H120893   5.638   3.881   4.867
 6980TIP3    H220894   5.547   3.998   4.831
 6981TIP3   OH220895   3.711   3.775   4.502
 6981TIP3    H120896   3.767   3.695   4.499
 6981TIP3    H220897   3.778   3.844   4.492
 6982TIP3   OH220898   3.502   4.049   4.572
 6982TIP3    H120899   3.552   4.051   4.489
 6982TIP3    H220900   3.522   4.135   4.609
 6983TIP3   OH220901   5.447   4.083   4.712
 6983TIP3    H120902   5.363   4.127   4.737
 6983TIP3    H220903   5.411   4.010   4.657
 6984TIP3   OH220904   5.090   3.716   3.298
 6984TIP3    H120905   5.117   3.638   3.244
 6984TIP3    H220906   5.145   3.785   3.259
 6985TIP3   OH220907   4.653   5.253   3.568
 6985TIP3    H120908   4.700   5.240   3.483
 6985TIP3    H220909   4.709   5.321   3.610
 6986TIP3   OH220910   3.750   5.058   4.951
 6986TIP3    H120911   3.658   5.032   4.934
 6986TIP3    H220912   3.760   5.036   5.044
 6987TIP3   OH220913   3.930   5.092   4.500
 6987TIP3    H120914   3.882   5.167   4.459
 6987TIP3    H220915   4.016   5.105   4.454
 6988TIP3   OH220916   4.370   5.331   4.637
 6988TIP3    H120917   4.412   5.332   4.725
 6988TIP3    H220918   4.434   5.384   4.585
 6989TIP3   OH220919   4.547   5.488   4.498
 6989TIP3    H120920   4.614   5.435   4.452
 6989TIP3    H220921   4.603   5.541   4.558
 6990TIP3   OH220922   5.348   3.846   4.596
 6990TIP3    H120923   5.259   3.843   4.557
 6990TIP3    H220924   5.377   3.753   4.586
 6991TIP3   OH220925   3.604   5.346   4.523
 6991TIP3    H120926   3.514   5.378   4.500
 6991TIP3    H220927   3.615   5.387   4.610
 6992TIP3   OH220928   3.841   5.325   4.383
 6992TIP3    H120929   3.754   5.337   4.425
 6992TIP3    H220930   3.823   5.355   4.292
 6993TIP3   OH220931   4.266   5.350   4.181
 6993TIP3    H120932   4.197   5.366   4.114
 6993TIP3    H220933   4.277   5.439   4.221
 6994TIP3   OH220934   4.536   5.295   4.237
 6994TIP3    H120935   4.442   5.306   4.215
 6994TIP3    H220936   4.577   5.365   4.184
 6995TIP3   OH220937   4.751   5.486   4.146
 6995TIP3    H120938   4.730   5.567   4.095
 6995TIP3    H220939   4.771   5.422   4.074
 6996TIP3   OH220940   3.516   5.139   4.268
 6996TIP3    H120941   3.543   5.111   4.358
 6996TIP3    H220942   3.587   5.095   4.216
 6997TIP3   OH220943   3.711   5.011   4.128
 6997TIP3    H120944   3.727   4.926   4.176
 6997TIP3    H220945   3.802   5.046   4.121
 6998TIP3   OH220946   3.979   5.104   4.130
 6998TIP3    H120947   4.009   5.013   4.115
 6998TIP3    H220948   4.026   5.124   4.213
 6999TIP3   OH220949   5.072   3.632   4.132
 6999TIP3    H120950   5.115   3.685   4.062
 6999TIP3    H220951   4.978   3.660   4.124
 7000TIP3   OH220952   5.186   3.742   3.917
 7000TIP3    H120953   5.245   3.698   3.854
 7000TIP3    H220954   5.188   3.834   3.890
 7001TIP3   OH220955   3.805   3.474   4.227
 7001TIP3    H120956   3.714   3.451   4.205
 7001TIP3    H220957   3.847   3.385   4.227
 7002TIP3   OH220958   4.245   3.500   4.146
 7002TIP3    H120959   4.303   3.546   4.084
 7002TIP3    H220960   4.169   3.560   4.152
 7003TIP3   OH220961   4.799   3.644   4.100
 7003TIP3    H120962   4.804   3.601   4.014
 7003TIP3    H220963   4.771   3.570   4.158
 7004TIP3   OH220964   4.826   3.554   3.643
 7004TIP3    H120965   4.746   3.607   3.643
 7004TIP3    H220966   4.803   3.478   3.700
 7005TIP3   OH220967   3.304   4.915   3.656
 7005TIP3    H120968   3.220   4.878   3.625
 7005TIP3    H220969   3.292   5.008   3.632
 7006TIP3   OH220970   3.734   3.539   3.591
 7006TIP3    H120971   3.758   3.446   3.573
 7006TIP3    H220972   3.736   3.543   3.688
 7007TIP3   OH220973   4.229   3.661   3.755
 7007TIP3    H120974   4.199   3.580   3.799
 7007TIP3    H220975   4.198   3.731   3.815
 7008TIP3   OH220976   4.076   5.097   3.240
 7008TIP3    H120977   4.164   5.120   3.204
 7008TIP3    H220978   4.054   5.023   3.180
 7009TIP3   OH220979   4.797   5.219   3.335
 7009TIP3    H120980   4.791   5.121   3.325
 7009TIP3    H220981   4.750   5.248   3.255
 7010TIP3   OH220982   4.007   3.748   5.116
 7010TIP3    H120983   3.963   3.687   5.178
 7010TIP3    H220984   4.099   3.745   5.150
 7011TIP3   OH220985   4.255   3.745   5.240
 7011TIP3    H120986   4.343   3.715   5.212
 7011TIP3    H220987   4.234   3.679   5.310
 7012TIP3   OH220988   3.381   4.937   3.295
 7012TIP3    H120989   3.383   4.951   3.391
 7012TIP3    H220990   3.468   4.892   3.279
 7013TIP3   OH220991   5.084   3.809   5.028
 7013TIP3    H120992   5.101   3.779   5.120
 7013TIP3    H220993   5.173   3.804   4.989
 7014TIP3   OH220994   5.020   5.358   4.522
 7014TIP3    H120995   4.942   5.326   4.472
 7014TIP3    H220996   4.998   5.453   4.528
 7015TIP3   OH220997   6.285   4.732   3.288
 7015TIP3    H120998   6.256   4.823   3.267
 7015TIP3    H220999   6.213   4.682   3.247
 7016TIP3   OH221000   6.286   4.739   3.669
 7016TIP3    H121001   6.319   4.711   3.756
 7016TIP3    H221002   6.252   4.656   3.633
 7017TIP3   OH221003   5.591   4.627   4.024
 7017TIP3    H121004   5.616   4.557   4.087
 7017TIP3    H221005   5.662   4.691   4.038
 7018TIP3   OH221006   6.531   5.038   3.351
 7018TIP3    H121007   6.518   4.970   3.418
 7018TIP3    H221008   6.564   5.113   3.404
 7019TIP3   OH221009   5.561   5.045   3.763
 7019TIP3    H121010   5.552   4.947   3.762
 7019TIP3    H221011   5.657   5.052   3.747
 7020TIP3   OH221012   5.333   4.539   3.714
 7020TIP3    H121013   5.380   4.455   3.732
 7020TIP3    H221014   5.373   4.568   3.631
 7021TIP3   OH221015   6.183   5.500   3.370
 7021TIP3    H121016   6.224   5.429   3.315
 7021TIP3    H221017   6.175   5.456   3.455
 7022TIP3   OH221018   6.084   4.959   3.720
 7022TIP3    H121019   6.128   4.885   3.675
 7022TIP3    H221020   6.166   5.008   3.745
 7023TIP3   OH221021   7.098   4.279   3.713
 7023TIP3    H121022   7.131   4.361   3.755
 7023TIP3    H221023   7.127   4.291   3.621
 7024TIP3   OH221024   6.490   4.459   3.750
 7024TIP3    H121025   6.542   4.378   3.769
 7024TIP3    H221026   6.465   4.443   3.657
 7025TIP3   OH221027   6.531   4.217   3.334
 7025TIP3    H121028   6.602   4.201   3.400
 7025TIP3    H221029   6.586   4.248   3.258
 7026TIP3   OH221030   5.468   4.308   3.785
 7026TIP3    H121031   5.540   4.287   3.848
 7026TIP3    H221032   5.415   4.227   3.785
 7027TIP3   OH221033   5.920   4.519   3.605
 7027TIP3    H121034   6.017   4.523   3.620
 7027TIP3    H221035   5.907   4.424   3.614
 7028TIP3   OH221036   7.174   4.486   3.888
 7028TIP3    H121037   7.091   4.534   3.867
 7028TIP3    H221038   7.198   4.528   3.972
 7029TIP3   OH221039   5.837   4.110   4.153
 7029TIP3    H121040   5.772   4.147   4.091
 7029TIP3    H221041   5.785   4.119   4.236
 7030TIP3   OH221042   6.171   4.951   3.157
 7030TIP3    H121043   6.138   4.942   3.067
 7030TIP3    H221044   6.130   5.035   3.185
 7031TIP3   OH221045   5.939   4.881   3.944
 7031TIP3    H121046   5.879   4.949   3.980
 7031TIP3    H221047   5.982   4.927   3.869
 7032TIP3   OH221048   6.735   4.219   3.511
 7032TIP3    H121049   6.749   4.161   3.587
 7032TIP3    H221050   6.792   4.296   3.534
 7033TIP3   OH221051   5.707   4.221   3.927
 7033TIP3    H121052   5.760   4.299   3.955
 7033TIP3    H221053   5.774   4.169   3.881
 7034TIP3   OH221054   5.767   5.076   4.045
 7034TIP3    H121055   5.741   5.159   4.001
 7034TIP3    H221056   5.686   5.061   4.099
 7035TIP3   OH221057   5.162   4.763   3.275
 7035TIP3    H121058   5.117   4.787   3.192
 7035TIP3    H221059   5.190   4.850   3.309
 7036TIP3   OH221060   6.599   5.281   3.516
 7036TIP3    H121061   6.509   5.273   3.554
 7036TIP3    H221062   6.592   5.367   3.470
 7037TIP3   OH221063   6.892   4.179   3.879
 7037TIP3    H121064   6.807   4.208   3.843
 7037TIP3    H221065   6.956   4.212   3.812
 7038TIP3   OH221066   6.183   3.817   3.861
 7038TIP3    H121067   6.171   3.723   3.885
 7038TIP3    H221068   6.107   3.857   3.908
 7039TIP3   OH221069   6.298   5.326   3.188
 7039TIP3    H121070   6.347   5.242   3.169
 7039TIP3    H221071   6.362   5.390   3.149
 7040TIP3   OH221072   6.440   5.110   3.101
 7040TIP3    H121073   6.419   5.029   3.053
 7040TIP3    H221074   6.479   5.075   3.184
 7041TIP3   OH221075   6.824   5.191   3.861
 7041TIP3    H121076   6.815   5.115   3.800
 7041TIP3    H221077   6.808   5.267   3.801
 7042TIP3   OH221078   6.120   4.587   3.120
 7042TIP3    H121079   6.042   4.641   3.098
 7042TIP3    H221080   6.165   4.582   3.034
 7043TIP3   OH221081   6.077   4.370   2.832
 7043TIP3    H121082   6.143   4.425   2.878
 7043TIP3    H221083   6.136   4.308   2.785
 7044TIP3   OH221084   7.020   4.828   3.705
 7044TIP3    H121085   6.938   4.881   3.708
 7044TIP3    H221086   7.053   4.853   3.616
 7045TIP3   OH221087   6.465   4.669   3.089
 7045TIP3    H121088   6.412   4.692   3.168
 7045TIP3    H221089   6.551   4.645   3.130
 7046TIP3   OH221090   6.700   4.707   4.005
 7046TIP3    H121091   6.701   4.790   4.058
 7046TIP3    H221092   6.618   4.719   3.954
 7047TIP3   OH221093   5.696   4.660   3.510
 7047TIP3    H121094   5.656   4.602   3.443
 7047TIP3    H221095   5.779   4.613   3.532
 7048TIP3   OH221096   5.826   5.074   3.656
 7048TIP3    H121097   5.807   5.046   3.566
 7048TIP3    H221098   5.915   5.038   3.672
 7049TIP3   OH221099   5.851   4.635   3.860
 7049TIP3    H121100   5.874   4.627   3.766
 7049TIP3    H221101   5.882   4.724   3.883
 7050TIP3   OH221102   6.358   5.275   3.638
 7050TIP3    H121103   6.347   5.357   3.690
 7050TIP3    H221104   6.342   5.204   3.703
 7051TIP3   OH221105   5.974   5.196   4.185
 7051TIP3    H121106   5.912   5.255   4.232
 7051TIP3    H221107   5.911   5.140   4.135
 7052TIP3   OH221108   6.303   4.528   2.915
 7052TIP3    H121109   6.363   4.588   2.964
 7052TIP3    H221110   6.330   4.548   2.822
 7053TIP3   OH221111   5.722   4.747   4.285
 7053TIP3    H121112   5.731   4.835   4.328
 7053TIP3    H221113   5.629   4.726   4.306
 7054TIP3   OH221114   6.050   5.205   3.196
 7054TIP3    H121115   6.133   5.256   3.200
 7054TIP3    H221116   5.992   5.264   3.147
 7055TIP3   OH221117   5.761   5.371   4.273
 7055TIP3    H121118   5.739   5.365   4.178
 7055TIP3    H221119   5.684   5.330   4.316
 7056TIP3   OH221120   6.822   3.766   2.964
 7056TIP3    H121121   6.741   3.789   3.013
 7056TIP3    H221122   6.838   3.849   2.913
 7057TIP3   OH221123   5.556   4.479   3.317
 7057TIP3    H121124   5.518   4.551   3.261
 7057TIP3    H221125   5.479   4.420   3.317
 7058TIP3   OH221126   6.623   5.132   2.515
 7058TIP3    H121127   6.632   5.228   2.498
 7058TIP3    H221128   6.716   5.102   2.502
 7059TIP3   OH221129   5.351   4.895   4.217
 7059TIP3    H121130   5.280   4.881   4.151
 7059TIP3    H221131   5.382   4.804   4.234
 7060TIP3   OH221132   5.197   5.094   3.837
 7060TIP3    H121133   5.292   5.081   3.838
 7060TIP3    H221134   5.184   5.168   3.899
 7061TIP3   OH221135   7.060   5.538   3.910
 7061TIP3    H121136   7.060   5.442   3.922
 7061TIP3    H221137   6.977   5.563   3.956
 7062TIP3   OH221138   6.170   5.321   4.041
 7062TIP3    H121139   6.167   5.414   4.073
 7062TIP3    H221140   6.099   5.280   4.096
 7063TIP3   OH221141   5.934   5.450   2.995
 7063TIP3    H121142   5.887   5.432   2.911
 7063TIP3    H221143   5.899   5.537   3.020
 7064TIP3   OH221144   5.369   5.300   3.379
 7064TIP3    H121145   5.414   5.290   3.466
 7064TIP3    H221146   5.319   5.217   3.375
 7065TIP3   OH221147   6.132   5.354   2.632
 7065TIP3    H121148   6.191   5.284   2.596
 7065TIP3    H221149   6.167   5.364   2.723
 7066TIP3   OH221150   6.184   5.402   2.901
 7066TIP3    H121151   6.095   5.412   2.942
 7066TIP3    H221152   6.234   5.362   2.974
 7067TIP3   OH221153   6.950   4.663   4.188
 7067TIP3    H121154   6.874   4.677   4.129
 7067TIP3    H221155   6.969   4.568   4.173
 7068TIP3   OH221156   5.548   5.085   4.214
 7068TIP3    H121157   5.601   5.054   4.290
 7068TIP3    H221158   5.475   5.019   4.214
 7069TIP3   OH221159   5.949   3.910   3.991
 7069TIP3    H121160   5.862   3.872   3.965
 7069TIP3    H221161   5.917   3.980   4.051
 7070TIP3   OH221162   6.484   4.018   4.193
 7070TIP3    H121163   6.559   3.984   4.246
 7070TIP3    H221164   6.406   3.980   4.238
 7071TIP3   OH221165   6.717   4.441   4.090
 7071TIP3    H121166   6.670   4.440   4.176
 7071TIP3    H221167   6.703   4.532   4.059
 7072TIP3   OH221168   6.382   4.571   2.661
 7072TIP3    H121169   6.347   4.548   2.573
 7072TIP3    H221170   6.467   4.613   2.636
 7073TIP3   OH221171   6.095   3.946   2.963
 7073TIP3    H121172   6.055   3.944   3.052
 7073TIP3    H221173   6.056   3.864   2.926
 7074TIP3   OH221174   5.881   4.414   4.009
 7074TIP3    H121175   5.830   4.435   4.090
 7074TIP3    H221176   5.869   4.497   3.958
 7075TIP3   OH221177   6.249   4.379   3.252
 7075TIP3    H121178   6.203   4.453   3.207
 7075TIP3    H221179   6.309   4.348   3.181
 7076TIP3   OH221180   6.434   4.641   4.357
 7076TIP3    H121181   6.422   4.670   4.448
 7076TIP3    H221182   6.526   4.669   4.342
 7077TIP3   OH221183   6.407   4.412   3.491
 7077TIP3    H121184   6.349   4.443   3.418
 7077TIP3    H221185   6.446   4.335   3.445
 7078TIP3   OH221186   5.706   4.442   4.217
 7078TIP3    H121187   5.715   4.510   4.286
 7078TIP3    H221188   5.686   4.363   4.270
 7079TIP3   OH221189   5.753   3.922   2.932
 7079TIP3    H121190   5.706   3.879   3.005
 7079TIP3    H221191   5.680   3.979   2.897
 7080TIP3   OH221192   6.410   4.655   3.918
 7080TIP3    H121193   6.447   4.586   3.858
 7080TIP3    H221194   6.383   4.601   3.994
 7081TIP3   OH221195   6.084   4.140   3.608
 7081TIP3    H121196   6.040   4.074   3.662
 7081TIP3    H221197   6.176   4.127   3.635
 7082TIP3   OH221198   6.588   4.204   3.796
 7082TIP3    H121199   6.544   4.213   3.883
 7082TIP3    H221200   6.534   4.138   3.751
 7083TIP3   OH221201   5.653   4.184   3.089
 7083TIP3    H121202   5.571   4.155   3.046
 7083TIP3    H221203   5.698   4.226   3.013
 7084TIP3   OH221204   6.757   5.888   4.008
 7084TIP3    H121205   6.756   5.914   3.914
 7084TIP3    H221206   6.837   5.934   4.040
 7085TIP3   OH221207   5.717   4.998   4.423
 7085TIP3    H121208   5.795   5.023   4.477
 7085TIP3    H221209   5.650   4.988   4.494
 7086TIP3   OH221210   6.177   4.456   3.679
 7086TIP3    H121211   6.251   4.421   3.628
 7086TIP3    H221212   6.186   4.409   3.764
 7087TIP3   OH221213   6.149   4.344   3.981
 7087TIP3    H121214   6.060   4.386   3.987
 7087TIP3    H221215   6.206   4.408   4.028
 7088TIP3   OH221216   5.888   4.739   3.068
 7088TIP3    H121217   5.817   4.672   3.056
 7088TIP3    H221218   5.868   4.772   3.158
 7089TIP3   OH221219   6.788   4.975   3.694
 7089TIP3    H121220   6.814   5.026   3.614
 7089TIP3    H221221   6.704   4.933   3.665
 7090TIP3   OH221222   6.348   4.046   2.938
 7090TIP3    H121223   6.251   4.029   2.942
 7090TIP3    H221224   6.354   4.142   2.957
 7091TIP3   OH221225   6.281   5.054   4.069
 7091TIP3    H121226   6.325   5.047   4.155
 7091TIP3    H221227   6.250   5.146   4.067
 7092TIP3   OH221228   6.414   4.301   3.038
 7092TIP3    H121229   6.511   4.306   3.050
 7092TIP3    H221230   6.396   4.380   2.983
 7093TIP3   OH221231   5.588   4.771   3.746
 7093TIP3    H121232   5.620   4.733   3.662
 7093TIP3    H221233   5.610   4.701   3.810
 7094TIP3   OH221234   6.035   4.889   2.891
 7094TIP3    H121235   5.986   4.974   2.893
 7094TIP3    H221236   5.980   4.834   2.952
 7095TIP3   OH221237   5.465   4.673   4.353
 7095TIP3    H121238   5.471   4.659   4.450
 7095TIP3    H221239   5.390   4.615   4.330
 7096TIP3   OH221240   6.188   4.795   4.375
 7096TIP3    H121241   6.117   4.736   4.344
 7096TIP3    H221242   6.264   4.762   4.323
 7097TIP3   OH221243   6.446   5.310   3.965
 7097TIP3    H121244   6.349   5.316   3.976
 7097TIP3    H221245   6.476   5.366   4.039
 7098TIP3   OH221246   6.854   4.393   2.871
 7098TIP3    H121247   6.793   4.349   2.807
 7098TIP3    H221248   6.852   4.482   2.830
 7099TIP3   OH221249   7.075   5.247   3.950
 7099TIP3    H121250   6.978   5.241   3.940
 7099TIP3    H221251   7.103   5.218   3.860
 7100TIP3   OH221252   6.558   5.209   2.778
 7100TIP3    H121253   6.534   5.137   2.837
 7100TIP3    H221254   6.573   5.164   2.693
 7101TIP3   OH221255   6.554   4.837   3.615
 7101TIP3    H121256   6.459   4.816   3.624
 7101TIP3    H221257   6.587   4.757   3.569
 7102TIP3   OH221258   5.684   5.068   3.371
 7102TIP3    H121259   5.681   5.148   3.314
 7102TIP3    H221260   5.590   5.046   3.376
 7103TIP3   OH221261   5.256   4.371   3.079
 7103TIP3    H121262   5.293   4.459   3.097
 7103TIP3    H221263   5.173   4.374   3.133
 7104TIP3   OH221264   5.812   4.828   3.312
 7104TIP3    H121265   5.784   4.920   3.326
 7104TIP3    H221266   5.775   4.784   3.390
 7105TIP3   OH221267   5.952   5.408   3.837
 7105TIP3    H121268   5.994   5.481   3.785
 7105TIP3    H221269   6.030   5.372   3.882
 7106TIP3   OH221270   5.601   5.304   3.221
 7106TIP3    H121271   5.516   5.314   3.266
 7106TIP3    H221272   5.634   5.397   3.222
 7107TIP3   OH221273   6.335   5.042   3.798
 7107TIP3    H121274   6.326   5.038   3.896
 7107TIP3    H221275   6.418   4.994   3.784
 7108TIP3   OH221276   6.317   4.938   2.680
 7108TIP3    H121277   6.369   4.913   2.759
 7108TIP3    H221278   6.229   4.908   2.705
 7109TIP3   OH221279   6.586   5.574   3.844
 7109TIP3    H121280   6.504   5.521   3.834
 7109TIP3    H221281   6.574   5.640   3.773
 7110TIP3   OH221282   6.653   5.407   2.497
 7110TIP3    H121283   6.686   5.477   2.439
 7110TIP3    H221284   6.574   5.453   2.533
 7111TIP3   OH221285   5.668   4.183   4.362
 7111TIP3    H121286   5.571   4.190   4.371
 7111TIP3    H221287   5.689   4.125   4.437
 7112TIP3   OH221288   6.477   4.874   2.899
 7112TIP3    H121289   6.466   4.804   2.967
 7112TIP3    H221290   6.573   4.868   2.883
 7113TIP3   OH221291   5.394   5.276   3.998
 7113TIP3    H121292   5.434   5.188   4.006
 7113TIP3    H221293   5.439   5.323   4.068
 7114TIP3   OH221294   5.680   4.916   2.679
 7114TIP3    H121295   5.691   4.824   2.651
 7114TIP3    H221296   5.658   4.905   2.774
 7115TIP3   OH221297   5.625   4.922   2.952
 7115TIP3    H121298   5.702   4.898   3.005
 7115TIP3    H221299   5.627   5.020   2.957
 7116TIP3   OH221300   5.371   4.621   3.162
 7116TIP3    H121301   5.298   4.661   3.214
 7116TIP3    H221302   5.376   4.686   3.089
 7117TIP3   OH221303   6.505   4.258   4.056
 7117TIP3    H121304   6.594   4.293   4.073
 7117TIP3    H221305   6.504   4.176   4.110
 7118TIP3   OH221306   6.386   4.003   3.216
 7118TIP3    H121307   6.377   4.020   3.120
 7118TIP3    H221308   6.428   4.086   3.247
 7119TIP3   OH221309   5.892   5.118   2.901
 7119TIP3    H121310   5.805   5.143   2.936
 7119TIP3    H221311   5.906   5.189   2.836
 7120TIP3   OH221312   6.061   4.189   3.332
 7120TIP3    H121313   6.125   4.256   3.298
 7120TIP3    H221314   6.086   4.183   3.426
 7121TIP3   OH221315   6.347   4.483   4.132
 7121TIP3    H121316   6.379   4.526   4.213
 7121TIP3    H221317   6.407   4.407   4.121
 7122TIP3   OH221318   6.222   3.905   3.411
 7122TIP3    H121319   6.253   3.966   3.481
 7122TIP3    H221320   6.278   3.936   3.336
 7123TIP3   OH221321   5.638   5.194   2.968
 7123TIP3    H121322   5.607   5.263   2.906
 7123TIP3    H221323   5.620   5.237   3.055
 7124TIP3   OH221324   5.732   3.949   3.225
 7124TIP3    H121325   5.731   4.009   3.148
 7124TIP3    H221326   5.823   3.914   3.221
 7125TIP3   OH221327   6.986   4.400   4.105
 7125TIP3    H121328   6.888   4.396   4.100
 7125TIP3    H221329   7.010   4.362   4.020
 7126TIP3   OH221330   6.638   4.595   3.492
 7126TIP3    H121331   6.565   4.531   3.501
 7126TIP3    H221332   6.712   4.549   3.538
 7127TIP3   OH221333   5.353   4.817   2.960
 7127TIP3    H121334   5.421   4.887   2.967
 7127TIP3    H221335   5.396   4.761   2.892
 7128TIP3   OH221336   5.298   4.101   3.054
 7128TIP3    H121337   5.299   4.197   3.075
 7128TIP3    H221338   5.211   4.076   3.086
 7129TIP3   OH221339   6.610   5.552   3.438
 7129TIP3    H121340   6.567   5.600   3.363
 7129TIP3    H221341   6.704   5.568   3.416
 7130TIP3   OH221342   5.690   3.821   3.972
 7130TIP3    H121343   5.654   3.787   3.887
 7130TIP3    H221344   5.678   3.743   4.030
 7131TIP3   OH221345   5.223   5.040   3.342
 7131TIP3    H121346   5.157   5.065   3.409
 7131TIP3    H221347   5.185   5.082   3.261
 7132TIP3   OH221348   5.401   5.572   4.416
 7132TIP3    H121349   5.471   5.544   4.478
 7132TIP3    H221350   5.349   5.490   4.410
 7133TIP3   OH221351   5.860   5.511   4.496
 7133TIP3    H121352   5.953   5.533   4.478
 7133TIP3    H221353   5.834   5.472   4.409
 7134TIP3   OH221354   5.844   5.119   2.590
 7134TIP3    H121355   5.788   5.046   2.626
 7134TIP3    H221356   5.919   5.068   2.554
 7135TIP3   OH221357   6.500   5.452   4.195
 7135TIP3    H121358   6.491   5.379   4.261
 7135TIP3    H221359   6.578   5.500   4.228
 7136TIP3   OH221360   6.278   5.158   2.503
 7136TIP3    H121361   6.321   5.093   2.563
 7136TIP3    H221362   6.334   5.154   2.423
 7137TIP3   OH221363   5.513   4.995   4.603
 7137TIP3    H121364   5.525   4.902   4.630
 7137TIP3    H221365   5.421   4.993   4.568
 7138TIP3   OH221366   5.488   4.636   2.812
 7138TIP3    H121367   5.544   4.604   2.884
 7138TIP3    H221368   5.553   4.641   2.739
 7139TIP3   OH221369   6.113   5.072   4.394
 7139TIP3    H121370   6.078   5.093   4.306
 7139TIP3    H221371   6.147   4.981   4.382
 7140TIP3   OH221372   6.004   4.836   2.622
 7140TIP3    H121373   6.005   4.847   2.719
 7140TIP3    H221374   6.003   4.738   2.614
 7141TIP3   OH221375   6.608   5.084   3.999
 7141TIP3    H121376   6.687   5.122   3.955
 7141TIP3    H221377   6.543   5.155   3.982
 7142TIP3   OH221378   5.633   4.729   4.599
 7142TIP3    H121379   5.697   4.660   4.583
 7142TIP3    H221380   5.658   4.759   4.689
 7143TIP3   OH221381   5.699   4.538   3.038
 7143TIP3    H121382   5.661   4.485   3.109
 7143TIP3    H221383   5.737   4.468   2.980
 7144TIP3   OH221384   5.972   4.625   4.283
 7144TIP3    H121385   5.887   4.672   4.267
 7144TIP3    H221386   6.020   4.640   4.199
 7145TIP3   OH221387   5.793   4.332   2.882
 7145TIP3    H121388   5.766   4.338   2.788
 7145TIP3    H221389   5.891   4.333   2.872
 7146TIP3   OH221390   6.476   4.997   4.390
 7146TIP3    H121391   6.565   4.990   4.353
 7146TIP3    H221392   6.483   4.943   4.471
 7147TIP3   OH221393   6.614   4.663   2.542
 7147TIP3    H121394   6.597   4.620   2.456
 7147TIP3    H221395   6.582   4.753   2.520
 7148TIP3   OH221396   6.103   4.183   4.212
 7148TIP3    H121397   6.128   4.225   4.127
 7148TIP3    H221398   6.008   4.164   4.191
 7149TIP3   OH221399   6.120   4.713   4.065
 7149TIP3    H121400   6.203   4.733   4.019
 7149TIP3    H221401   6.059   4.779   4.026
 7150TIP3   OH221402   6.708   4.682   4.448
 7150TIP3    H121403   6.765   4.604   4.456
 7150TIP3    H221404   6.770   4.747   4.411
 7151TIP3   OH221405   6.740   4.932   4.180
 7151TIP3    H121406   6.682   4.989   4.123
 7151TIP3    H221407   6.828   4.956   4.143
 7152TIP3   OH221408   5.979   4.500   4.592
 7152TIP3    H121409   5.912   4.435   4.622
 7152TIP3    H221410   5.944   4.533   4.508
 7153TIP3   OH221411   6.220   3.938   4.269
 7153TIP3    H121412   6.169   4.010   4.226
 7153TIP3    H221413   6.159   3.862   4.256
 7154TIP3   OH221414   6.602   4.385   4.333
 7154TIP3    H121415   6.558   4.415   4.414
 7154TIP3    H221416   6.689   4.359   4.370
 7155TIP3   OH221417   6.817   4.334   4.488
 7155TIP3    H121418   6.833   4.238   4.504
 7155TIP3    H221419   6.814   4.370   4.579
 7156TIP3   OH221420   5.813   4.283   4.669
 7156TIP3    H121421   5.805   4.188   4.647
 7156TIP3    H221422   5.847   4.277   4.761
 7157TIP3   OH221423   6.321   4.003   4.506
 7157TIP3    H121424   6.388   3.934   4.529
 7157TIP3    H221425   6.283   3.956   4.428
 7158TIP3   OH221426   5.606   5.398   2.782
 7158TIP3    H121427   5.701   5.389   2.761
 7158TIP3    H221428   5.576   5.447   2.703
 7159TIP3   OH221429   5.084   4.778   2.996
 7159TIP3    H121430   5.178   4.798   2.980
 7159TIP3    H221431   5.075   4.690   2.954
 7160TIP3   OH221432   5.001   5.391   3.411
 7160TIP3    H121433   4.935   5.330   3.371
 7160TIP3    H221434   5.045   5.331   3.474
 7161TIP3   OH221435   5.134   5.238   3.598
 7161TIP3    H121436   5.121   5.166   3.662
 7161TIP3    H221437   5.186   5.300   3.653
 7162TIP3   OH221438   6.865   5.642   3.399
 7162TIP3    H121439   6.888   5.666   3.491
 7162TIP3    H221440   6.905   5.713   3.348
 7163TIP3   OH221441   6.888   5.661   3.679
 7163TIP3    H121442   6.847   5.571   3.677
 7163TIP3    H221443   6.968   5.641   3.730
 7164TIP3   OH221444   6.938   5.343   4.258
 7164TIP3    H121445   6.865   5.349   4.323
 7164TIP3    H221446   6.981   5.430   4.268
 7165TIP3   OH221447   6.753   4.851   2.871
 7165TIP3    H121448   6.818   4.916   2.838
 7165TIP3    H221449   6.800   4.814   2.949
 7166TIP3   OH221450   6.882   4.719   3.075
 7166TIP3    H121451   6.816   4.678   3.136
 7166TIP3    H221452   6.949   4.754   3.137
 7167TIP3   OH221453   6.935   5.110   3.505
 7167TIP3    H121454   6.990   5.043   3.459
 7167TIP3    H221455   6.933   5.183   3.440
 7168TIP3   OH221456   6.765   5.411   3.703
 7168TIP3    H121457   6.693   5.454   3.752
 7168TIP3    H221458   6.717   5.365   3.630
 7169TIP3   OH221459   6.818   4.626   2.722
 7169TIP3    H121460   6.748   4.628   2.654
 7169TIP3    H221461   6.790   4.702   2.776
 7170TIP3   OH221462   6.687   4.300   2.678
 7170TIP3    H121463   6.649   4.336   2.597
 7170TIP3    H221464   6.665   4.205   2.669
 7171TIP3   OH221465   6.693   4.578   3.221
 7171TIP3    H121466   6.704   4.482   3.212
 7171TIP3    H221467   6.680   4.588   3.318
 7172TIP3   OH221468   5.321   4.637   3.972
 7172TIP3    H121469   5.313   4.611   3.878
 7172TIP3    H221470   5.419   4.642   3.981
 7173TIP3   OH221471   6.985   5.001   4.078
 7173TIP3    H121472   7.056   4.935   4.069
 7173TIP3    H221473   7.012   5.071   4.016
 7174TIP3   OH221474   7.164   4.800   4.092
 7174TIP3    H121475   7.092   4.750   4.135
 7174TIP3    H221476   7.240   4.740   4.107
 7175TIP3   OH221477   6.633   4.034   2.661
 7175TIP3    H121478   6.708   4.002   2.715
 7175TIP3    H221479   6.561   3.972   2.680
 7176TIP3   OH221480   6.693   4.293   3.115
 7176TIP3    H121481   6.733   4.204   3.129
 7176TIP3    H221482   6.750   4.325   3.043
 7177TIP3   OH221483   6.852   4.466   3.611
 7177TIP3    H121484   6.937   4.489   3.569
 7177TIP3    H221485   6.869   4.502   3.700
 7178TIP3   OH221486   6.925   4.610   3.843
 7178TIP3    H121487   6.846   4.647   3.888
 7178TIP3    H221488   6.959   4.689   3.795
 7179TIP3   OH221489   5.545   4.339   4.652
 7179TIP3    H121490   5.643   4.329   4.651
 7179TIP3    H221491   5.518   4.250   4.683
 7180TIP3   OH221492   7.372   4.200   4.397
 7180TIP3    H121493   7.433   4.136   4.356
 7180TIP3    H221494   7.343   4.253   4.319
 7181TIP3   OH221495   6.799   4.043   3.155
 7181TIP3    H121496   6.850   4.025   3.237
 7181TIP3    H221497   6.739   3.965   3.153
 7182TIP3   OH221498   5.498   4.026   3.932
 7182TIP3    H121499   5.547   3.949   3.964
 7182TIP3    H221500   5.547   4.099   3.973
 7183TIP3   OH221501   5.328   4.304   4.051
 7183TIP3    H121502   5.331   4.312   3.955
 7183TIP3    H221503   5.319   4.396   4.079
 7184TIP3   OH221504   7.241   4.336   4.201
 7184TIP3    H121505   7.155   4.380   4.218
 7184TIP3    H221506   7.212   4.263   4.143
 7185TIP3   OH221507   6.879   3.974   2.788
 7185TIP3    H121508   6.919   3.904   2.731
 7185TIP3    H221509   6.946   4.045   2.784
 7186TIP3   OH221510   6.446   5.509   3.054
 7186TIP3    H121511   6.496   5.497   2.970
 7186TIP3    H221512   6.500   5.575   3.100
 7187TIP3   OH221513   5.512   3.883   4.363
 7187TIP3    H121514   5.457   3.878   4.443
 7187TIP3    H221515   5.449   3.924   4.300
 7188TIP3   OH221516   5.546   5.298   4.461
 7188TIP3    H121517   5.461   5.295   4.415
 7188TIP3    H221518   5.543   5.214   4.510
 7189TIP3   OH221519   5.727   5.351   3.989
 7189TIP3    H121520   5.679   5.424   3.944
 7189TIP3    H221521   5.813   5.361   3.943
 7190TIP3   OH221522   6.166   5.588   4.121
 7190TIP3    H121523   6.210   5.586   4.209
 7190TIP3    H221524   6.232   5.639   4.069
 7191TIP3   OH221525   6.347   5.742   3.986
 7191TIP3    H121526   6.418   5.694   3.941
 7191TIP3    H221527   6.399   5.800   4.046
 7192TIP3   OH221528   7.143   4.099   4.084
 7192TIP3    H121529   7.054   4.087   4.046
 7192TIP3    H221530   7.179   4.008   4.073
 7193TIP3   OH221531   5.406   5.629   4.028
 7193TIP3    H121532   5.323   5.665   3.991
 7193TIP3    H221533   5.371   5.573   4.097
 7194TIP3   OH221534   5.635   5.580   3.870
 7194TIP3    H121535   5.551   5.606   3.915
 7194TIP3    H221536   5.618   5.610   3.778
 7195TIP3   OH221537   6.061   5.605   3.669
 7195TIP3    H121538   5.994   5.625   3.600
 7195TIP3    H221539   6.074   5.694   3.708
 7196TIP3   OH221540   6.332   5.545   3.720
 7196TIP3    H121541   6.239   5.565   3.699
 7196TIP3    H221542   6.378   5.618   3.675
 7197TIP3   OH221543   6.536   5.737   3.631
 7197TIP3    H121544   6.523   5.822   3.584
 7197TIP3    H221545   6.565   5.678   3.558
 7198TIP3   OH221546   5.315   5.398   3.758
 7198TIP3    H121547   5.341   5.364   3.846
 7198TIP3    H221548   5.384   5.354   3.703
 7199TIP3   OH221549   5.506   5.268   3.615
 7199TIP3    H121550   5.522   5.184   3.665
 7199TIP3    H221551   5.597   5.303   3.608
 7200TIP3   OH221552   5.773   5.361   3.619
 7200TIP3    H121553   5.805   5.270   3.602
 7200TIP3    H221554   5.824   5.382   3.700
 7201TIP3   OH221555   6.326   4.009   3.678
 7201TIP3    H121556   6.299   3.942   3.743
 7201TIP3    H221557   6.414   3.975   3.649
 7202TIP3   OH221558   6.865   3.906   3.612
 7202TIP3    H121559   6.906   3.949   3.534
 7202TIP3    H221560   6.770   3.918   3.595
 7203TIP3   OH221561   6.963   3.995   3.373
 7203TIP3    H121562   7.037   3.942   3.334
 7203TIP3    H221563   6.999   4.085   3.357
 7204TIP3   OH221564   5.593   3.736   3.726
 7204TIP3    H121565   5.519   3.718   3.667
 7204TIP3    H221566   5.644   3.653   3.722
 7205TIP3   OH221567   6.041   3.774   3.607
 7205TIP3    H121568   6.099   3.807   3.536
 7205TIP3    H221569   6.095   3.790   3.686
 7206TIP3   OH221570   6.573   3.907   3.583
 7206TIP3    H121571   6.591   3.865   3.498
 7206TIP3    H221572   6.568   3.827   3.642
 7207TIP3   OH221573   6.618   3.829   3.146
 7207TIP3    H121574   6.529   3.867   3.155
 7207TIP3    H221575   6.605   3.743   3.191
 7208TIP3   OH221576   5.101   5.171   3.142
 7208TIP3    H121577   5.015   5.136   3.111
 7208TIP3    H221578   5.091   5.264   3.115
 7209TIP3   OH221579   5.504   3.773   3.101
 7209TIP3    H121580   5.551   3.695   3.066
 7209TIP3    H221581   5.561   3.805   3.173
 7210TIP3   OH221582   6.006   3.941   3.226
 7210TIP3    H121583   6.066   3.890   3.282
 7210TIP3    H221584   6.029   4.033   3.253
 7211TIP3   OH221585   5.873   5.353   2.728
 7211TIP3    H121586   5.961   5.376   2.691
 7211TIP3    H221587   5.850   5.279   2.667
 7212TIP3   OH221588   6.592   5.475   2.822
 7212TIP3    H121589   6.585   5.377   2.811
 7212TIP3    H221590   6.546   5.505   2.741
 7213TIP3   OH221591   5.806   4.011   4.616
 7213TIP3    H121592   5.765   3.938   4.665
 7213TIP3    H221593   5.899   4.004   4.646
 7214TIP3   OH221594   6.064   4.000   4.723
 7214TIP3    H121595   6.143   3.952   4.694
 7214TIP3    H221596   6.036   3.942   4.797
 7215TIP3   OH221597   5.177   5.192   2.781
 7215TIP3    H121598   5.177   5.213   2.875
 7215TIP3    H221599   5.265   5.149   2.768
 7216TIP3   OH221600   6.881   4.066   4.516
 7216TIP3    H121601   6.901   4.032   4.606
 7216TIP3    H221602   6.970   4.062   4.474
 7217TIP3   OH221603   6.812   5.617   4.012
 7217TIP3    H121604   6.735   5.589   3.958
 7217TIP3    H221605   6.797   5.714   4.014
 7218TIP3   OH221606   8.036   4.986   3.151
 7218TIP3    H121607   8.096   4.928   3.202
 7218TIP3    H221608   8.039   4.944   3.064
 7219TIP3   OH221609   7.379   4.887   3.525
 7219TIP3    H121610   7.413   4.819   3.585
 7219TIP3    H221611   7.459   4.941   3.509
 7220TIP3   OH221612   7.331   5.293   3.252
 7220TIP3    H121613   7.337   5.195   3.249
 7220TIP3    H221614   7.424   5.317   3.262
 7221TIP3   OH221615   7.059   4.493   3.027
 7221TIP3    H121616   7.015   4.578   3.043
 7221TIP3    H221617   6.988   4.445   2.981
 7222TIP3   OH221618   7.117   4.785   3.204
 7222TIP3    H121619   7.168   4.707   3.237
 7222TIP3    H221620   7.178   4.822   3.139
 7223TIP3   OH221621   7.868   5.209   3.207
 7223TIP3    H121622   7.918   5.129   3.182
 7223TIP3    H221623   7.940   5.269   3.230
 7224TIP3   OH221624   7.627   4.377   3.203
 7224TIP3    H121625   7.612   4.450   3.138
 7224TIP3    H221626   7.581   4.304   3.157
 7225TIP3   OH221627   7.265   4.579   3.308
 7225TIP3    H121628   7.348   4.561   3.356
 7225TIP3    H221629   7.280   4.524   3.228
 7226TIP3   OH221630   7.703   4.774   3.106
 7226TIP3    H121631   7.797   4.747   3.113
 7226TIP3    H221632   7.663   4.691   3.072
 7227TIP3   OH221633   7.619   4.369   3.641
 7227TIP3    H121634   7.563   4.408   3.571
 7227TIP3    H221635   7.566   4.389   3.721
 7228TIP3   OH221636   7.737   5.132   3.441
 7228TIP3    H121637   7.673   5.199   3.476
 7228TIP3    H221638   7.780   5.184   3.370
 7229TIP3   OH221639   7.498   4.477   3.420
 7229TIP3    H121640   7.560   4.550   3.441
 7229TIP3    H221641   7.546   4.435   3.344
 7230TIP3   OH221642   7.544   5.315   3.508
 7230TIP3    H121643   7.549   5.411   3.492
 7230TIP3    H221644   7.473   5.313   3.576
 7231TIP3   OH221645   6.953   5.023   2.761
 7231TIP3    H121646   6.917   5.049   2.675
 7231TIP3    H221647   6.987   5.108   2.795
 7232TIP3   OH221648   7.921   4.139   3.304
 7232TIP3    H121649   7.970   4.057   3.332
 7232TIP3    H221650   7.855   4.149   3.374
 7233TIP3   OH221651   7.832   4.748   2.594
 7233TIP3    H121652   7.775   4.825   2.576
 7233TIP3    H221653   7.906   4.767   2.535
 7234TIP3   OH221654   7.493   4.923   2.998
 7234TIP3    H121655   7.446   4.863   2.936
 7234TIP3    H221656   7.568   4.867   3.027
 7235TIP3   OH221657   7.628   5.349   3.133
 7235TIP3    H121658   7.600   5.293   3.061
 7235TIP3    H221659   7.712   5.308   3.161
 7236TIP3   OH221660   7.624   4.898   3.346
 7236TIP3    H121661   7.661   4.871   3.260
 7236TIP3    H221662   7.673   4.982   3.366
 7237TIP3   OH221663   7.527   4.998   3.783
 7237TIP3    H121664   7.534   5.090   3.818
 7237TIP3    H221665   7.431   4.985   3.788
 7238TIP3   OH221666   7.801   5.521   2.713
 7238TIP3    H121667   7.897   5.507   2.714
 7238TIP3    H221668   7.785   5.547   2.621
 7239TIP3   OH221669   7.533   5.663   3.758
 7239TIP3    H121670   7.545   5.614   3.675
 7239TIP3    H221671   7.468   5.610   3.807
 7240TIP3   OH221672   7.350   4.763   2.821
 7240TIP3    H121673   7.306   4.809   2.747
 7240TIP3    H221674   7.316   4.674   2.809
 7241TIP3   OH221675   7.140   5.150   3.707
 7241TIP3    H121676   7.077   5.128   3.635
 7241TIP3    H221677   7.180   5.063   3.728
 7242TIP3   OH221678   7.001   5.340   3.338
 7242TIP3    H121679   7.096   5.325   3.328
 7242TIP3    H221680   6.999   5.418   3.397
 7243TIP3   OH221681   7.665   5.697   2.488
 7243TIP3    H121682   7.680   5.679   2.393
 7243TIP3    H221683   7.692   5.790   2.495
 7244TIP3   OH221684   7.344   5.335   3.694
 7244TIP3    H121685   7.397   5.318   3.775
 7244TIP3    H221686   7.271   5.271   3.703
 7245TIP3   OH221687   7.722   4.157   3.499
 7245TIP3    H121688   7.633   4.128   3.468
 7245TIP3    H221689   7.697   4.237   3.549
 7246TIP3   OH221690   7.669   4.677   3.494
 7246TIP3    H121691   7.619   4.696   3.576
 7246TIP3    H221692   7.654   4.759   3.443
 7247TIP3   OH221693   7.557   4.558   3.013
 7247TIP3    H121694   7.465   4.537   3.037
 7247TIP3    H221695   7.560   4.518   2.923
 7248TIP3   OH221696   7.497   4.701   3.707
 7248TIP3    H121697   7.522   4.768   3.772
 7248TIP3    H221698   7.487   4.621   3.763
 7249TIP3   OH221699   7.553   4.182   2.412
 7249TIP3    H121700   7.534   4.182   2.507
 7249TIP3    H221701   7.480   4.239   2.380
 7250TIP3   OH221702   7.088   4.218   3.290
 7250TIP3    H121703   7.163   4.255   3.342
 7250TIP3    H221704   7.129   4.194   3.206
 7251TIP3   OH221705   7.056   4.202   2.807
 7251TIP3    H121706   7.100   4.237   2.727
 7251TIP3    H221707   6.996   4.276   2.825
 7252TIP3   OH221708   7.864   4.374   3.056
 7252TIP3    H121709   7.792   4.370   3.122
 7252TIP3    H221710   7.941   4.387   3.112
 7253TIP3   OH221711   7.320   4.436   3.083
 7253TIP3    H121712   7.227   4.444   3.052
 7253TIP3    H221713   7.345   4.346   3.056
 7254TIP3   OH221714   7.552   4.427   2.772
 7254TIP3    H121715   7.645   4.440   2.747
 7254TIP3    H221716   7.506   4.449   2.687
 7255TIP3   OH221717   7.430   4.467   2.538
 7255TIP3    H121718   7.368   4.423   2.476
 7255TIP3    H221719   7.495   4.504   2.473
 7256TIP3   OH221720   7.506   5.249   3.914
 7256TIP3    H121721   7.588   5.283   3.955
 7256TIP3    H221722   7.445   5.257   3.990
 7257TIP3   OH221723   7.956   4.677   3.152
 7257TIP3    H121724   8.042   4.674   3.107
 7257TIP3    H221725   7.980   4.657   3.244
 7258TIP3   OH221726   7.486   4.195   3.051
 7258TIP3    H121727   7.451   4.119   3.103
 7258TIP3    H221728   7.524   4.151   2.974
 7259TIP3   OH221729   7.927   4.590   3.464
 7259TIP3    H121730   7.836   4.626   3.464
 7259TIP3    H221731   7.982   4.668   3.477
 7260TIP3   OH221732   7.695   4.998   2.567
 7260TIP3    H121733   7.618   4.950   2.532
 7260TIP3    H221734   7.664   5.027   2.656
 7261TIP3   OH221735   8.059   5.292   3.587
 7261TIP3    H121736   8.132   5.335   3.633
 7261TIP3    H221737   8.015   5.371   3.549
 7262TIP3   OH221738   7.374   5.015   3.229
 7262TIP3    H121739   7.411   4.989   3.142
 7262TIP3    H221740   7.428   4.961   3.289
 7263TIP3   OH221741   7.840   5.157   2.381
 7263TIP3    H121742   7.779   5.233   2.398
 7263TIP3    H221743   7.793   5.085   2.428
 7264TIP3   OH221744   7.259   4.938   3.845
 7264TIP3    H121745   7.280   4.926   3.939
 7264TIP3    H221746   7.191   4.870   3.831
 7265TIP3   OH221747   7.993   5.035   3.869
 7265TIP3    H121748   7.925   4.986   3.821
 7265TIP3    H221749   8.072   5.023   3.813
 7266TIP3   OH221750   7.464   5.345   2.875
 7266TIP3    H121751   7.498   5.367   2.787
 7266TIP3    H221752   7.394   5.280   2.853
 7267TIP3   OH221753   7.043   4.623   2.559
 7267TIP3    H121754   7.090   4.707   2.580
 7267TIP3    H221755   6.968   4.629   2.621
 7268TIP3   OH221756   7.605   5.091   2.809
 7268TIP3    H121757   7.585   5.178   2.846
 7268TIP3    H221758   7.574   5.031   2.880
 7269TIP3   OH221759   7.730   5.666   3.311
 7269TIP3    H121760   7.788   5.726   3.260
 7269TIP3    H221761   7.796   5.631   3.377
 7270TIP3   OH221762   7.374   5.595   2.778
 7270TIP3    H121763   7.315   5.565   2.707
 7270TIP3    H221764   7.403   5.683   2.743
 7271TIP3   OH221765   7.464   4.446   3.855
 7271TIP3    H121766   7.367   4.442   3.863
 7271TIP3    H221767   7.492   4.383   3.924
 7272TIP3   OH221768   7.186   5.524   3.494
 7272TIP3    H121769   7.247   5.450   3.513
 7272TIP3    H221770   7.225   5.593   3.547
 7273TIP3   OH221771   7.459   5.183   2.176
 7273TIP3    H121772   7.513   5.107   2.146
 7273TIP3    H221773   7.438   5.153   2.267
 7274TIP3   OH221774   7.411   5.181   2.455
 7274TIP3    H121775   7.500   5.147   2.476
 7274TIP3    H221776   7.423   5.278   2.459
 7275TIP3   OH221777   7.152   4.863   2.642
 7275TIP3    H121778   7.088   4.916   2.694
 7275TIP3    H221779   7.178   4.927   2.573
 7276TIP3   OH221780   7.676   5.376   2.398
 7276TIP3    H121781   7.587   5.407   2.420
 7276TIP3    H221782   7.704   5.445   2.336
 7277TIP3   OH221783   7.827   4.441   2.787
 7277TIP3    H121784   7.836   4.537   2.779
 7277TIP3    H221785   7.848   4.426   2.882
 7278TIP3   OH221786   7.424   5.466   2.464
 7278TIP3    H121787   7.389   5.504   2.380
 7278TIP3    H221788   7.462   5.546   2.502
 7279TIP3   OH221789   7.487   4.168   2.685
 7279TIP3    H121790   7.478   4.258   2.722
 7279TIP3    H221791   7.584   4.156   2.696
 7280TIP3   OH221792   7.150   5.080   2.444
 7280TIP3    H121793   7.230   5.134   2.456
 7280TIP3    H221794   7.186   5.014   2.380
 7281TIP3   OH221795   7.087   4.353   2.584
 7281TIP3    H121796   7.096   4.451   2.580
 7281TIP3    H221797   7.012   4.339   2.526
 7282TIP3   OH221798   7.464   4.074   3.453
 7282TIP3    H121799   7.440   4.039   3.364
 7282TIP3    H221800   7.458   3.993   3.509
 7283TIP3   OH221801   7.020   5.286   2.823
 7283TIP3    H121802   6.982   5.332   2.899
 7283TIP3    H221803   6.986   5.340   2.748
 7284TIP3   OH221804   7.180   5.839   3.906
 7284TIP3    H121805   7.268   5.841   3.950
 7284TIP3    H221806   7.165   5.743   3.902
 7285TIP3   OH221807   7.656   5.803   3.952
 7285TIP3    H121808   7.746   5.763   3.954
 7285TIP3    H221809   7.618   5.753   3.876
 7286TIP3   OH221810   7.637   5.369   2.083
 7286TIP3    H121811   7.562   5.317   2.120
 7286TIP3    H221812   7.704   5.297   2.086
 7287TIP3   OH221813   7.304   5.242   4.108
 7287TIP3    H121814   7.322   5.147   4.110
 7287TIP3    H221815   7.219   5.246   4.059
 7288TIP3   OH221816   7.280   4.892   2.307
 7288TIP3    H121817   7.352   4.870   2.369
 7288TIP3    H221818   7.327   4.878   2.222
 7289TIP3   OH221819   7.888   5.308   3.869
 7289TIP3    H121820   7.911   5.348   3.784
 7289TIP3    H221821   7.936   5.223   3.864
 7290TIP3   OH221822   7.773   5.140   2.110
 7290TIP3    H121823   7.798   5.129   2.204
 7290TIP3    H221824   7.792   5.050   2.078
 7291TIP3   OH221825   7.423   4.974   4.091
 7291TIP3    H121826   7.504   4.937   4.056
 7291TIP3    H221827   7.453   5.010   4.177
 7292TIP3   OH221828   7.468   4.806   2.538
 7292TIP3    H121829   7.479   4.726   2.591
 7292TIP3    H221830   7.520   4.787   2.458
 7293TIP3   OH221831   7.764   4.863   3.746
 7293TIP3    H121832   7.685   4.922   3.749
 7293TIP3    H221833   7.812   4.897   3.667
 7294TIP3   OH221834   7.608   4.569   2.364
 7294TIP3    H121835   7.576   4.550   2.273
 7294TIP3    H221836   7.642   4.660   2.348
 7295TIP3   OH221837   7.865   4.647   3.870
 7295TIP3    H121838   7.867   4.568   3.812
 7295TIP3    H221839   7.822   4.714   3.812
 7296TIP3   OH221840   7.876   4.442   3.690
 7296TIP3    H121841   7.904   4.481   3.604
 7296TIP3    H221842   7.784   4.416   3.670
 7297TIP3   OH221843   7.920   4.962   3.546
 7297TIP3    H121844   7.991   4.989   3.487
 7297TIP3    H221845   7.854   5.031   3.524
 7298TIP3   OH221846   7.768   4.752   4.109
 7298TIP3    H121847   7.697   4.687   4.126
 7298TIP3    H221848   7.792   4.730   4.016
 7299TIP3   OH221849   8.019   4.211   3.735
 7299TIP3    H121850   7.974   4.297   3.728
 7299TIP3    H221851   7.944   4.150   3.746
 7300TIP3   OH221852   8.120   4.711   3.969
 7300TIP3    H121853   8.075   4.682   4.051
 7300TIP3    H221854   8.048   4.695   3.906
 7301TIP3   OH221855   7.598   4.540   4.162
 7301TIP3    H121856   7.601   4.448   4.127
 7301TIP3    H221857   7.634   4.527   4.252
 7302TIP3   OH221858   8.154   4.404   4.222
 7302TIP3    H121859   8.174   4.336   4.154
 7302TIP3    H221860   8.076   4.451   4.184
 7303TIP3   OH221861   7.403   5.649   2.268
 7303TIP3    H121862   7.499   5.648   2.254
 7303TIP3    H221863   7.375   5.702   2.191
 7304TIP3   OH221864   6.881   5.036   2.484
 7304TIP3    H121865   6.976   5.058   2.468
 7304TIP3    H221866   6.876   4.947   2.444
 7305TIP3   OH221867   6.794   5.646   2.900
 7305TIP3    H121868   6.730   5.584   2.859
 7305TIP3    H221869   6.838   5.588   2.965
 7306TIP3   OH221870   6.931   5.499   3.089
 7306TIP3    H121871   6.920   5.422   3.147
 7306TIP3    H221872   6.981   5.557   3.148
 7307TIP3   OH221873   7.115   4.904   3.457
 7307TIP3    H121874   7.114   4.872   3.365
 7307TIP3    H221875   7.213   4.908   3.473
 7308TIP3   OH221876   7.332   4.589   4.128
 7308TIP3    H121877   7.430   4.587   4.130
 7308TIP3    H221878   7.311   4.502   4.167
 7309TIP3   OH221879   7.291   4.289   3.467
 7309TIP3    H121880   7.349   4.211   3.472
 7309TIP3    H221881   7.357   4.360   3.454
 7310TIP3   OH221882   7.097   4.558   3.532
 7310TIP3    H121883   7.147   4.551   3.448
 7310TIP3    H221884   7.127   4.643   3.565
 7311TIP3   OH221885   7.084   4.061   3.035
 7311TIP3    H121886   6.990   4.056   3.061
 7311TIP3    H221887   7.080   4.120   2.957
 7312TIP3   OH221888   7.307   4.151   3.852
 7312TIP3    H121889   7.251   4.137   3.930
 7312TIP3    H221890   7.241   4.176   3.786
 7313TIP3   OH221891   7.338   5.560   3.930
 7313TIP3    H121892   7.245   5.538   3.915
 7313TIP3    H221893   7.348   5.549   4.025
 7314TIP3   OH221894   7.521   5.592   3.468
 7314TIP3    H121895   7.484   5.677   3.437
 7314TIP3    H221896   7.610   5.601   3.430
 7315TIP3   OH221897   7.193   5.858   3.492
 7315TIP3    H121898   7.102   5.894   3.479
 7315TIP3    H221899   7.215   5.897   3.578
 7316TIP3   OH221900   7.432   5.839   3.356
 7316TIP3    H121901   7.344   5.846   3.400
 7316TIP3    H221902   7.410   5.874   3.267
 7317TIP3   OH221903   7.840   5.862   3.147
 7317TIP3    H121904   7.803   5.918   3.078
 7317TIP3    H221905   7.885   5.927   3.203
 7318TIP3   OH221906   7.128   5.643   3.245
 7318TIP3    H121907   7.125   5.648   3.342
 7318TIP3    H221908   7.191   5.570   3.238
 7319TIP3   OH221909   7.546   5.598   3.115
 7319TIP3    H121910   7.586   5.511   3.138
 7319TIP3    H221911   7.583   5.647   3.193
 7320TIP3   OH221912   7.388   3.982   3.201
 7320TIP3    H121913   7.294   3.952   3.204
 7320TIP3    H221914   7.433   3.895   3.202
 7321TIP3   OH221915   7.184   3.854   2.852
 7321TIP3    H121916   7.207   3.909   2.775
 7321TIP3    H221917   7.156   3.921   2.918
 7322TIP3   OH221918   7.824   4.024   3.074
 7322TIP3    H121919   7.896   4.071   3.030
 7322TIP3    H221920   7.839   4.058   3.165
 7323TIP3   OH221921   6.900   5.438   2.631
 7323TIP3    H121922   6.820   5.390   2.604
 7323TIP3    H221923   6.879   5.526   2.595
 7324TIP3   OH221924   7.278   4.001   2.618
 7324TIP3    H121925   7.327   3.942   2.557
 7324TIP3    H221926   7.349   4.063   2.646
 7325TIP3   OH221927   7.754   4.179   2.734
 7325TIP3    H121928   7.764   4.165   2.828
 7325TIP3    H221929   7.780   4.274   2.726
 7326TIP3   OH221930   7.677   5.606   2.219
 7326TIP3    H121931   7.739   5.664   2.172
 7326TIP3    H221932   7.666   5.532   2.156
 7327TIP3   OH221933   7.596   4.265   4.098
 7327TIP3    H121934   7.560   4.192   4.152
 7327TIP3    H221935   7.690   4.263   4.127
 7328TIP3   OH221936   7.845   4.264   4.224
 7328TIP3    H121937   7.934   4.235   4.200
 7328TIP3    H221938   7.822   4.197   4.291
 7329TIP3   OH221939   6.975   5.447   2.267
 7329TIP3    H121940   6.977   5.464   2.362
 7329TIP3    H221941   7.062   5.403   2.252
 7330TIP3   OH221942   0.555   5.766   4.482
 7330TIP3    H121943   0.544   5.862   4.466
 7330TIP3    H221944   0.483   5.730   4.427
 7331TIP3   OH221945   0.571   5.794   4.844
 7331TIP3    H121946   0.587   5.762   4.935
 7331TIP3    H221947   0.486   5.751   4.823
 7332TIP3   OH221948   0.777   6.088   4.535
 7332TIP3    H121949   0.778   6.015   4.598
 7332TIP3    H221950   0.815   6.161   4.587
 7333TIP3   OH221951   1.350   5.324   4.892
 7333TIP3    H121952   1.379   5.407   4.934
 7333TIP3    H221953   1.372   5.341   4.798
 7334TIP3   OH221954   0.759   5.509   4.933
 7334TIP3    H121955   0.798   5.420   4.945
 7334TIP3    H221956   0.724   5.501   4.843
 7335TIP3   OH221957   0.784   5.248   4.514
 7335TIP3    H121958   0.855   5.235   4.581
 7335TIP3    H221959   0.837   5.284   4.440
 7336TIP3   OH221960   1.423   5.532   5.062
 7336TIP3    H121961   1.339   5.578   5.042
 7336TIP3    H221962   1.442   5.568   5.151
 7337TIP3   OH221963   0.500   6.005   4.359
 7337TIP3    H121964   0.442   5.987   4.284
 7337TIP3    H221965   0.514   6.101   4.354
 7338TIP3   OH221966   0.989   5.261   4.686
 7338TIP3    H121967   0.971   5.217   4.769
 7338TIP3    H221968   1.038   5.341   4.715
 7339TIP3   OH221969   0.838   6.325   4.691
 7339TIP3    H121970   0.750   6.329   4.732
 7339TIP3    H221971   0.841   6.411   4.645
 7340TIP3   OH221972   1.142   5.223   5.056
 7340TIP3    H121973   1.055   5.251   5.023
 7340TIP3    H221974   1.203   5.257   4.987
 7341TIP3   OH221975   0.455   4.873   5.048
 7341TIP3    H121976   0.439   4.776   5.053
 7341TIP3    H221977   0.368   4.907   5.071
 7342TIP3   OH221978   0.557   6.356   4.378
 7342TIP3    H121979   0.617   6.289   4.340
 7342TIP3    H221980   0.605   6.436   4.349
 7343TIP3   OH221981   0.718   6.163   4.274
 7343TIP3    H121982   0.698   6.081   4.228
 7343TIP3    H221983   0.751   6.131   4.360
 7344TIP3   OH221984   1.072   6.234   5.040
 7344TIP3    H121985   1.064   6.159   4.978
 7344TIP3    H221986   1.058   6.311   4.980
 7345TIP3   OH221987   0.411   5.626   4.289
 7345TIP3    H121988   0.327   5.648   4.245
 7345TIP3    H221989   0.471   5.616   4.212
 7346TIP3   OH221990   0.367   5.323   4.060
 7346TIP3    H121991   0.404   5.396   4.113
 7346TIP3    H221992   0.403   5.346   3.972
 7347TIP3   OH221993   1.270   5.874   4.882
 7347TIP3    H121994   1.187   5.926   4.887
 7347TIP3    H221995   1.302   5.900   4.793
 7348TIP3   OH221996   0.720   5.709   4.268
 7348TIP3    H121997   0.671   5.730   4.351
 7348TIP3    H221998   0.806   5.683   4.307
 7349TIP3   OH221999   0.957   5.750   5.184
 7349TIP3    H122000   0.951   5.834   5.234
 7349TIP3    H222001   0.867   5.747   5.143
 7350TIP3   OH222002   0.606   6.335   4.848
 7350TIP3    H122003   0.645   6.379   4.926
 7350TIP3    H222004   0.611   6.242   4.881
 7351TIP3   OH222005   0.580   5.553   4.089
 7351TIP3    H122006   0.642   5.616   4.133
 7351TIP3    H222007   0.593   5.579   3.994
 7352TIP3   OH222008   1.069   4.811   4.140
 7352TIP3    H122009   0.989   4.832   4.192
 7352TIP3    H222010   1.085   4.896   4.093
 7353TIP3   OH222011   0.872   6.177   3.688
 7353TIP3    H122012   0.879   6.274   3.673
 7353TIP3    H222013   0.965   6.150   3.677
 7354TIP3   OH222014   1.315   6.584   5.088
 7354TIP3    H122015   1.310   6.488   5.102
 7354TIP3    H222016   1.232   6.612   5.133
 7355TIP3   OH222017   0.423   6.421   3.794
 7355TIP3    H122018   0.463   6.336   3.768
 7355TIP3    H222019   0.440   6.425   3.890
 7356TIP3   OH222020   0.459   6.457   4.083
 7356TIP3    H122021   0.384   6.482   4.138
 7356TIP3    H222022   0.529   6.446   4.149
 7357TIP3   OH222023   1.200   5.710   5.359
 7357TIP3    H122024   1.118   5.721   5.307
 7357TIP3    H222025   1.217   5.614   5.350
 7358TIP3   OH222026   0.757   5.059   5.363
 7358TIP3    H122027   0.831   5.029   5.420
 7358TIP3    H222028   0.679   5.031   5.415
 7359TIP3   OH222029   0.971   5.485   5.268
 7359TIP3    H122030   0.927   5.483   5.356
 7359TIP3    H222031   0.952   5.575   5.237
 7360TIP3   OH222032   0.632   5.609   3.832
 7360TIP3    H122033   0.598   5.591   3.742
 7360TIP3    H222034   0.712   5.662   3.811
 7361TIP3   OH222035   0.531   5.429   4.434
 7361TIP3    H122036   0.488   5.504   4.389
 7361TIP3    H222037   0.581   5.388   4.361
 7362TIP3   OH222038   0.690   5.753   5.558
 7362TIP3    H122039   0.662   5.660   5.566
 7362TIP3    H222040   0.788   5.741   5.568
 7363TIP3   OH222041   0.675   5.453   4.673
 7363TIP3    H122042   0.611   5.485   4.607
 7363TIP3    H222043   0.706   5.374   4.624
 7364TIP3   OH222044   0.690   5.713   5.100
 7364TIP3    H122045   0.711   5.632   5.048
 7364TIP3    H222046   0.611   5.686   5.150
 7365TIP3   OH222047   0.374   5.179   4.762
 7365TIP3    H122048   0.306   5.154   4.826
 7365TIP3    H222049   0.454   5.178   4.818
 7366TIP3   OH222050   0.834   5.241   4.956
 7366TIP3    H122051   0.806   5.255   5.050
 7366TIP3    H222052   0.766   5.176   4.928
 7367TIP3   OH222053   1.009   6.929   5.182
 7367TIP3    H122054   1.004   6.958   5.089
 7367TIP3    H222055   1.084   6.982   5.215
 7368TIP3   OH222056   0.469   5.444   4.883
 7368TIP3    H122057   0.539   5.420   4.820
 7368TIP3    H222058   0.497   5.401   4.966
 7369TIP3   OH222059   0.415   5.382   5.156
 7369TIP3    H122060   0.348   5.453   5.166
 7369TIP3    H222061   0.491   5.422   5.204
 7370TIP3   OH222062   1.040   6.022   4.871
 7370TIP3    H122063   1.066   6.073   4.791
 7370TIP3    H222064   0.957   5.977   4.841
 7371TIP3   OH222065   0.660   5.318   4.215
 7371TIP3    H122066   0.757   5.322   4.227
 7371TIP3    H222067   0.645   5.391   4.153
 7372TIP3   OH222068   0.684   6.377   5.129
 7372TIP3    H122069   0.600   6.355   5.172
 7372TIP3    H222070   0.732   6.413   5.207
 7373TIP3   OH222071   1.103   5.438   4.047
 7373TIP3    H122072   1.042   5.394   3.984
 7373TIP3    H222073   1.101   5.528   4.007
 7374TIP3   OH222074   1.324   6.290   5.127
 7374TIP3    H122075   1.226   6.286   5.119
 7374TIP3    H222076   1.350   6.261   5.037
 7375TIP3   OH222077   0.809   6.251   3.953
 7375TIP3    H122078   0.783   6.182   4.014
 7375TIP3    H222079   0.818   6.204   3.868
 7376TIP3   OH222080   0.816   5.890   4.774
 7376TIP3    H122081   0.726   5.857   4.794
 7376TIP3    H222082   0.853   5.808   4.735
 7377TIP3   OH222083   0.638   6.093   4.971
 7377TIP3    H122084   0.625   6.050   5.057
 7377TIP3    H222085   0.687   6.025   4.923
 7378TIP3   OH222086   0.572   5.975   3.846
 7378TIP3    H122087   0.606   5.950   3.934
 7378TIP3    H222088   0.478   5.944   3.850
 7379TIP3   OH222089   0.853   6.613   5.014
 7379TIP3    H122090   0.767   6.598   5.056
 7379TIP3    H222091   0.832   6.685   4.951
 7380TIP3   OH222092   0.903   6.454   3.673
 7380TIP3    H122093   0.943   6.531   3.629
 7380TIP3    H222094   0.821   6.496   3.707
 7381TIP3   OH222095   0.721   5.915   4.083
 7381TIP3    H122096   0.716   5.846   4.151
 7381TIP3    H222097   0.816   5.910   4.061
 7382TIP3   OH222098   0.774   5.289   5.215
 7382TIP3    H122099   0.852   5.335   5.249
 7382TIP3    H222100   0.765   5.212   5.275
 7383TIP3   OH222101   0.660   5.068   4.352
 7383TIP3    H122102   0.639   5.144   4.295
 7383TIP3    H222103   0.698   5.116   4.428
 7384TIP3   OH222104   0.393   5.197   4.480
 7384TIP3    H122105   0.444   5.279   4.470
 7384TIP3    H222106   0.352   5.212   4.568
 7385TIP3   OH222107   0.593   5.507   5.309
 7385TIP3    H122108   0.598   5.591   5.356
 7385TIP3    H222109   0.678   5.464   5.329
 7386TIP3   OH222110   0.485   4.949   4.592
 7386TIP3    H122111   0.468   5.020   4.657
 7386TIP3    H222112   0.513   5.003   4.516
 7387TIP3   OH222113   1.237   5.445   5.281
 7387TIP3    H122114   1.139   5.442   5.283
 7387TIP3    H222115   1.253   5.404   5.195
 7388TIP3   OH222116   0.892   5.641   4.666
 7388TIP3    H122117   0.815   5.583   4.679
 7388TIP3    H222118   0.962   5.592   4.715
 7389TIP3   OH222119   0.855   6.589   4.610
 7389TIP3    H122120   0.812   6.641   4.539
 7389TIP3    H222121   0.949   6.613   4.593
 7390TIP3   OH222122   0.758   6.481   5.373
 7390TIP3    H122123   0.764   6.438   5.460
 7390TIP3    H222124   0.819   6.556   5.386
 7391TIP3   OH222125   0.529   6.197   3.677
 7391TIP3    H122126   0.567   6.128   3.735
 7391TIP3    H222127   0.586   6.194   3.598
 7392TIP3   OH222128   0.305   5.901   3.841
 7392TIP3    H122129   0.215   5.928   3.862
 7392TIP3    H222130   0.292   5.807   3.816
 7393TIP3   OH222131   0.857   6.140   5.181
 7393TIP3    H122132   0.939   6.169   5.137
 7393TIP3    H222133   0.794   6.205   5.145
 7394TIP3   OH222134   0.776   6.031   5.605
 7394TIP3    H122135   0.860   6.054   5.564
 7394TIP3    H222136   0.753   5.951   5.552
 7395TIP3   OH222137   0.865   5.707   3.718
 7395TIP3    H122138   0.845   5.665   3.632
 7395TIP3    H222139   0.834   5.798   3.697
 7396TIP3   OH222140   0.953   5.727   5.614
 7396TIP3    H122141   1.007   5.648   5.630
 7396TIP3    H222142   1.020   5.794   5.595
 7397TIP3   OH222143   0.986   5.983   5.360
 7397TIP3    H122144   0.929   6.039   5.302
 7397TIP3    H222145   1.075   6.002   5.321
 7398TIP3   OH222146   0.502   4.984   5.445
 7398TIP3    H122147   0.444   5.052   5.406
 7398TIP3    H222148   0.447   4.906   5.426
 7399TIP3   OH222149   0.610   5.493   5.627
 7399TIP3    H122150   0.609   5.503   5.724
 7399TIP3    H222151   0.525   5.447   5.611
 7400TIP3   OH222152   0.850   5.445   5.501
 7400TIP3    H122153   0.771   5.448   5.559
 7400TIP3    H222154   0.921   5.417   5.563
 7401TIP3   OH222155   1.063   5.383   5.668
 7401TIP3    H122156   1.079   5.287   5.682
 7401TIP3    H222157   1.061   5.418   5.760
 7402TIP3   OH222158   0.586   4.994   5.707
 7402TIP3    H122159   0.650   4.920   5.700
 7402TIP3    H222160   0.546   4.990   5.618
 7403TIP3   OH222161   0.584   5.220   5.850
 7403TIP3    H122162   0.605   5.132   5.810
 7403TIP3    H222163   0.513   5.245   5.789
 7404TIP3   OH222164   1.109   6.683   4.576
 7404TIP3    H122165   1.133   6.721   4.662
 7404TIP3    H222166   1.171   6.726   4.516
 7405TIP3   OH222167   1.142   6.706   4.857
 7405TIP3    H122168   1.100   6.618   4.851
 7405TIP3    H222169   1.219   6.685   4.912
 7406TIP3   OH222170   1.192   6.382   5.424
 7406TIP3    H122171   1.121   6.393   5.491
 7406TIP3    H222172   1.234   6.470   5.426
 7407TIP3   OH222173   1.000   5.895   4.048
 7407TIP3    H122174   1.065   5.961   4.016
 7407TIP3    H222175   1.047   5.859   4.126
 7408TIP3   OH222176   1.130   5.763   4.252
 7408TIP3    H122177   1.065   5.722   4.313
 7408TIP3    H222178   1.198   5.799   4.314
 7409TIP3   OH222179   1.185   6.156   4.681
 7409TIP3    H122180   1.238   6.089   4.634
 7409TIP3    H222181   1.188   6.232   4.619
 7410TIP3   OH222182   1.022   6.449   4.875
 7410TIP3    H122183   0.954   6.501   4.923
 7410TIP3    H222184   0.969   6.408   4.803
 7411TIP3   OH222185   1.068   5.671   3.898
 7411TIP3    H122186   0.997   5.673   3.830
 7411TIP3    H222187   1.040   5.747   3.953
 7412TIP3   OH222188   0.938   5.345   3.852
 7412TIP3    H122189   0.896   5.385   3.775
 7412TIP3    H222190   0.910   5.251   3.844
 7413TIP3   OH222191   0.944   5.621   4.398
 7413TIP3    H122192   0.952   5.524   4.393
 7413TIP3    H222193   0.930   5.635   4.495
 7414TIP3   OH222194   1.232   6.045   5.257
 7414TIP3    H122195   1.303   5.978   5.246
 7414TIP3    H222196   1.259   6.114   5.194
 7415TIP3   OH222197   1.415   5.846   5.267
 7415TIP3    H122198   1.341   5.796   5.308
 7415TIP3    H222199   1.489   5.784   5.283
 7416TIP3   OH222200   0.881   5.078   3.845
 7416TIP3    H122201   0.969   5.058   3.886
 7416TIP3    H222202   0.831   4.998   3.866
 7417TIP3   OH222203   0.935   5.332   4.288
 7417TIP3    H122204   0.979   5.245   4.304
 7417TIP3    H222205   0.995   5.369   4.221
 7418TIP3   OH222206   1.101   5.506   4.788
 7418TIP3    H122207   1.187   5.531   4.747
 7418TIP3    H222208   1.115   5.544   4.877
 7419TIP3   OH222209   1.174   5.653   5.017
 7419TIP3    H122210   1.097   5.688   5.066
 7419TIP3    H222211   1.206   5.734   4.972
 7420TIP3   OH222212   1.620   5.246   5.574
 7420TIP3    H122213   1.682   5.181   5.533
 7420TIP3    H222214   1.591   5.298   5.496
 7421TIP3   OH222215   1.049   5.087   4.329
 7421TIP3    H122216   1.098   5.071   4.413
 7421TIP3    H222217   0.988   5.011   4.329
 7422TIP3   OH222218   1.491   5.382   5.377
 7422TIP3    H122219   1.405   5.426   5.395
 7422TIP3    H222220   1.459   5.308   5.321
 7423TIP3   OH222221   1.127   5.023   3.958
 7423TIP3    H122222   1.171   4.949   3.911
 7423TIP3    H222223   1.197   5.091   3.961
 7424TIP3   OH222224   0.698   6.543   4.238
 7424TIP3    H122225   0.749   6.532   4.155
 7424TIP3    H222226   0.750   6.611   4.283
 7425TIP3   OH222227   1.392   5.146   5.259
 7425TIP3    H122228   1.302   5.136   5.224
 7425TIP3    H222229   1.426   5.054   5.250
 7426TIP3   OH222230   0.810   6.790   4.811
 7426TIP3    H122231   0.779   6.870   4.763
 7426TIP3    H222232   0.815   6.725   4.739
 7427TIP3   OH222233   0.603   5.065   4.888
 7427TIP3    H122234   0.557   4.994   4.937
 7427TIP3    H222235   0.669   5.014   4.837
 7428TIP3   OH222236   1.118   4.941   4.782
 7428TIP3    H122237   1.153   4.994   4.707
 7428TIP3    H222238   1.022   4.959   4.775
 7429TIP3   OH222239   1.213   5.041   4.545
 7429TIP3    H122240   1.287   4.989   4.508
 7429TIP3    H222241   1.247   5.133   4.532
 7430TIP3   OH222242   0.314   4.761   4.790
 7430TIP3    H122243   0.331   4.825   4.720
 7430TIP3    H222244   0.270   4.818   4.854
 7431TIP3   OH222245   0.835   4.951   4.757
 7431TIP3    H122246   0.831   4.906   4.672
 7431TIP3    H222247   0.824   4.875   4.819
 7432TIP3   OH222248   0.864   4.876   4.318
 7432TIP3    H122249   0.781   4.925   4.332
 7432TIP3    H222250   0.846   4.792   4.365
 7433TIP3   OH222251   0.285   4.941   4.391
 7433TIP3    H122252   0.335   4.922   4.472
 7433TIP3    H222253   0.293   5.037   4.387
 7434TIP3   OH222254   0.830   6.516   4.000
 7434TIP3    H122255   0.825   6.419   3.984
 7434TIP3    H222256   0.789   6.550   3.918
 7435TIP3   OH222257   1.130   5.113   5.693
 7435TIP3    H122258   1.148   5.080   5.784
 7435TIP3    H222259   1.219   5.107   5.652
 7436TIP3   OH222260   1.069   6.663   5.185
 7436TIP3    H122261   0.996   6.635   5.126
 7436TIP3    H222262   1.050   6.759   5.190
 7437TIP3   OH222263   2.332   6.036   3.948
 7437TIP3    H122264   2.303   6.127   3.927
 7437TIP3    H222265   2.255   5.986   3.917
 7438TIP3   OH222266   2.335   6.035   4.333
 7438TIP3    H122267   2.368   6.011   4.421
 7438TIP3    H222268   2.292   5.954   4.304
 7439TIP3   OH222269   1.629   5.929   4.699
 7439TIP3    H122270   1.660   5.859   4.760
 7439TIP3    H222271   1.708   5.984   4.692
 7440TIP3   OH222272   2.578   6.337   4.015
 7440TIP3    H122273   2.559   6.271   4.082
 7440TIP3    H222274   2.606   6.414   4.068
 7441TIP3   OH222275   1.603   6.340   4.418
 7441TIP3    H122276   1.595   6.243   4.420
 7441TIP3    H222277   1.700   6.350   4.411
 7442TIP3   OH222278   1.310   5.539   4.202
 7442TIP3    H122279   1.265   5.623   4.222
 7442TIP3    H222280   1.237   5.490   4.159
 7443TIP3   OH222281   1.366   5.829   4.380
 7443TIP3    H122282   1.416   5.752   4.414
 7443TIP3    H222283   1.429   5.870   4.320
 7444TIP3   OH222284   2.227   6.803   4.030
 7444TIP3    H122285   2.270   6.731   3.979
 7444TIP3    H222286   2.214   6.762   4.116
 7445TIP3   OH222287   2.130   6.262   4.381
 7445TIP3    H122288   2.171   6.186   4.336
 7445TIP3    H222289   2.212   6.309   4.407
 7446TIP3   OH222290   3.146   5.581   4.379
 7446TIP3    H122291   3.176   5.665   4.419
 7446TIP3    H222292   3.167   5.596   4.285
 7447TIP3   OH222293   2.543   5.761   4.410
 7447TIP3    H122294   2.586   5.676   4.431
 7447TIP3    H222295   2.511   5.744   4.320
 7448TIP3   OH222296   1.884   5.422   4.376
 7448TIP3    H122297   1.864   5.495   4.313
 7448TIP3    H222298   1.834   5.349   4.332
 7449TIP3   OH222299   2.577   5.514   3.996
 7449TIP3    H122300   2.647   5.498   4.063
 7449TIP3    H222301   2.632   5.548   3.923
 7450TIP3   OH222302   1.515   5.624   4.483
 7450TIP3    H122303   1.597   5.606   4.532
 7450TIP3    H222304   1.530   5.568   4.404
 7451TIP3   OH222305   1.955   5.821   4.280
 7451TIP3    H122306   2.049   5.796   4.291
 7451TIP3    H222307   1.917   5.737   4.246
 7452TIP3   OH222308   3.220   5.792   4.547
 7452TIP3    H122309   3.135   5.836   4.526
 7452TIP3    H222310   3.230   5.816   4.640
 7453TIP3   OH222311   1.878   5.406   4.811
 7453TIP3    H122312   1.818   5.443   4.744
 7453TIP3    H222313   1.825   5.423   4.892
 7454TIP3   OH222314   2.220   6.256   3.817
 7454TIP3    H122315   2.181   6.246   3.730
 7454TIP3    H222316   2.177   6.339   3.847
 7455TIP3   OH222317   1.984   6.182   4.603
 7455TIP3    H122318   1.925   6.250   4.640
 7455TIP3    H222319   2.026   6.230   4.529
 7456TIP3   OH222320   2.782   5.519   4.173
 7456TIP3    H122321   2.769   5.472   4.257
 7456TIP3    H222322   2.834   5.596   4.201
 7457TIP3   OH222323   1.749   5.520   4.595
 7457TIP3    H122324   1.811   5.593   4.619
 7457TIP3    H222325   1.799   5.480   4.520
 7458TIP3   OH222326   1.814   6.378   4.704
 7458TIP3    H122327   1.789   6.465   4.666
 7458TIP3    H222328   1.734   6.360   4.758
 7459TIP3   OH222329   1.202   6.064   3.939
 7459TIP3    H122330   1.164   6.095   3.855
 7459TIP3    H222331   1.235   6.149   3.977
 7460TIP3   OH222332   2.647   6.583   4.179
 7460TIP3    H122333   2.558   6.573   4.220
 7460TIP3    H222334   2.636   6.669   4.134
 7461TIP3   OH222335   2.938   5.481   4.544
 7461TIP3    H122336   2.850   5.507   4.511
 7461TIP3    H222337   2.998   5.514   4.474
 7462TIP3   OH222338   2.230   5.122   4.526
 7462TIP3    H122339   2.215   5.027   4.545
 7462TIP3    H222340   2.154   5.161   4.574
 7463TIP3   OH222341   2.346   6.626   3.853
 7463TIP3    H122342   2.395   6.543   3.834
 7463TIP3    H222343   2.409   6.690   3.814
 7464TIP3   OH222344   2.490   6.410   3.764
 7464TIP3    H122345   2.450   6.331   3.725
 7464TIP3    H222346   2.528   6.375   3.847
 7465TIP3   OH222347   2.873   6.492   4.524
 7465TIP3    H122348   2.858   6.415   4.465
 7465TIP3    H222349   2.852   6.567   4.465
 7466TIP3   OH222350   2.162   5.885   3.783
 7466TIP3    H122351   2.083   5.941   3.764
 7466TIP3    H222352   2.209   5.889   3.697
 7467TIP3   OH222353   2.122   5.672   3.492
 7467TIP3    H122354   2.184   5.725   3.546
 7467TIP3    H222355   2.185   5.611   3.448
 7468TIP3   OH222356   3.067   6.134   4.371
 7468TIP3    H122357   2.982   6.183   4.375
 7468TIP3    H222358   3.097   6.158   4.280
 7469TIP3   OH222359   2.511   5.968   3.752
 7469TIP3    H122360   2.457   5.993   3.830
 7469TIP3    H222361   2.596   5.946   3.796
 7470TIP3   OH222362   2.745   6.008   4.668
 7470TIP3    H122363   2.741   6.091   4.718
 7470TIP3    H222364   2.658   6.011   4.622
 7471TIP3   OH222365   1.743   5.966   4.171
 7471TIP3    H122366   1.703   5.908   4.103
 7471TIP3    H222367   1.819   5.913   4.201
 7472TIP3   OH222368   1.871   6.376   4.319
 7472TIP3    H122369   1.852   6.345   4.230
 7472TIP3    H222370   1.961   6.340   4.335
 7473TIP3   OH222371   1.877   5.939   4.524
 7473TIP3    H122372   1.911   5.914   4.436
 7473TIP3    H222373   1.922   6.024   4.542
 7474TIP3   OH222374   2.408   6.576   4.302
 7474TIP3    H122375   2.392   6.657   4.353
 7474TIP3    H222376   2.388   6.505   4.366
 7475TIP3   OH222377   2.019   6.494   4.849
 7475TIP3    H122378   1.958   6.556   4.894
 7475TIP3    H222379   1.955   6.441   4.797
 7476TIP3   OH222380   2.350   5.828   3.579
 7476TIP3    H122381   2.409   5.889   3.629
 7476TIP3    H222382   2.377   5.849   3.486
 7477TIP3   OH222383   1.774   6.048   4.954
 7477TIP3    H122384   1.779   6.137   4.994
 7477TIP3    H222385   1.679   6.029   4.966
 7478TIP3   OH222386   2.096   6.505   3.857
 7478TIP3    H122387   2.177   6.559   3.865
 7478TIP3    H222388   2.036   6.564   3.811
 7479TIP3   OH222389   1.812   6.660   4.936
 7479TIP3    H122390   1.776   6.665   4.845
 7479TIP3    H222391   1.732   6.638   4.988
 7480TIP3   OH222392   2.867   5.068   3.628
 7480TIP3    H122393   2.785   5.089   3.678
 7480TIP3    H222394   2.882   5.151   3.578
 7481TIP3   OH222395   1.611   5.810   3.971
 7481TIP3    H122396   1.542   5.855   3.918
 7481TIP3    H222397   1.570   5.724   3.986
 7482TIP3   OH222398   2.667   6.434   3.179
 7482TIP3    H122399   2.673   6.530   3.159
 7482TIP3    H222400   2.760   6.406   3.165
 7483TIP3   OH222401   1.388   6.194   4.883
 7483TIP3    H122402   1.324   6.172   4.813
 7483TIP3    H222403   1.428   6.107   4.904
 7484TIP3   OH222404   1.244   6.385   4.519
 7484TIP3    H122405   1.340   6.384   4.508
 7484TIP3    H222406   1.233   6.467   4.571
 7485TIP3   OH222407   3.111   6.844   4.570
 7485TIP3    H122408   3.110   6.748   4.583
 7485TIP3    H222409   3.027   6.868   4.616
 7486TIP3   OH222410   2.215   6.621   4.707
 7486TIP3    H122411   2.212   6.714   4.738
 7486TIP3    H222412   2.143   6.582   4.760
 7487TIP3   OH222413   1.980   6.752   3.659
 7487TIP3    H122414   1.934   6.738   3.575
 7487TIP3    H222415   1.948   6.840   3.687
 7488TIP3   OH222416   1.419   6.587   4.040
 7488TIP3    H122417   1.468   6.585   4.125
 7488TIP3    H222418   1.360   6.511   4.050
 7489TIP3   OH222419   2.176   6.656   3.295
 7489TIP3    H122420   2.236   6.587   3.257
 7489TIP3    H222421   2.211   6.665   3.386
 7490TIP3   OH222422   2.229   6.703   3.565
 7490TIP3    H122423   2.140   6.714   3.605
 7490TIP3    H222424   2.278   6.665   3.640
 7491TIP3   OH222425   2.999   5.970   4.844
 7491TIP3    H122426   2.915   5.980   4.798
 7491TIP3    H222427   3.015   5.873   4.835
 7492TIP3   OH222428   1.594   6.375   4.867
 7492TIP3    H122429   1.643   6.361   4.950
 7492TIP3    H222430   1.519   6.314   4.876
 7493TIP3   OH222431   1.994   5.200   4.657
 7493TIP3    H122432   1.906   5.170   4.627
 7493TIP3    H222433   1.968   5.280   4.705
 7494TIP3   OH222434   2.529   5.314   4.850
 7494TIP3    H122435   2.598   5.286   4.914
 7494TIP3    H222436   2.446   5.295   4.898
 7495TIP3   OH222437   2.766   5.746   4.770
 7495TIP3    H122438   2.714   5.742   4.853
 7495TIP3    H222439   2.742   5.833   4.733
 7496TIP3   OH222440   2.425   5.870   3.323
 7496TIP3    H122441   2.392   5.847   3.234
 7496TIP3    H222442   2.506   5.919   3.301
 7497TIP3   OH222443   2.137   5.249   3.626
 7497TIP3    H122444   2.104   5.245   3.718
 7497TIP3    H222445   2.100   5.165   3.592
 7498TIP3   OH222446   1.926   5.717   4.673
 7498TIP3    H122447   1.876   5.738   4.755
 7498TIP3    H222448   1.910   5.798   4.620
 7499TIP3   OH222449   1.810   5.602   4.187
 7499TIP3    H122450   1.717   5.577   4.206
 7499TIP3    H222451   1.822   5.561   4.099
 7500TIP3   OH222452   2.301   5.687   3.917
 7500TIP3    H122453   2.250   5.758   3.872
 7500TIP3    H222454   2.356   5.654   3.843
 7501TIP3   OH222455   2.475   5.963   4.999
 7501TIP3    H122456   2.453   5.891   5.062
 7501TIP3    H222457   2.569   5.979   5.022
 7502TIP3   OH222458   2.456   5.714   4.154
 7502TIP3    H122459   2.394   5.743   4.083
 7502TIP3    H222460   2.491   5.635   4.109
 7503TIP3   OH222461   1.745   5.744   4.882
 7503TIP3    H122462   1.775   5.809   4.948
 7503TIP3    H222463   1.736   5.663   4.935
 7504TIP3   OH222464   1.792   5.222   3.590
 7504TIP3    H122465   1.786   5.220   3.687
 7504TIP3    H222466   1.716   5.279   3.568
 7505TIP3   OH222467   1.340   5.264   4.462
 7505TIP3    H122468   1.412   5.298   4.519
 7505TIP3    H222469   1.386   5.236   4.382
 7506TIP3   OH222470   1.303   5.246   3.981
 7506TIP3    H122471   1.351   5.282   3.903
 7506TIP3    H222472   1.245   5.321   4.000
 7507TIP3   OH222473   2.468   5.959   4.576
 7507TIP3    H122474   2.501   5.888   4.516
 7507TIP3    H222475   2.437   5.905   4.651
 7508TIP3   OH222476   2.140   5.423   4.247
 7508TIP3    H122477   2.059   5.423   4.302
 7508TIP3    H222478   2.210   5.419   4.315
 7509TIP3   OH222479   1.572   5.481   4.256
 7509TIP3    H122480   1.477   5.488   4.228
 7509TIP3    H222481   1.595   5.389   4.233
 7510TIP3   OH222482   1.837   5.473   3.947
 7510TIP3    H122483   1.931   5.490   3.925
 7510TIP3    H222484   1.790   5.495   3.863
 7511TIP3   OH222485   2.630   5.500   4.451
 7511TIP3    H122486   2.598   5.513   4.543
 7511TIP3    H222487   2.562   5.440   4.416
 7512TIP3   OH222488   1.687   5.508   3.723
 7512TIP3    H122489   1.614   5.466   3.674
 7512TIP3    H222490   1.738   5.547   3.649
 7513TIP3   OH222491   2.803   7.187   4.672
 7513TIP3    H122492   2.799   7.214   4.578
 7513TIP3    H222493   2.879   7.239   4.704
 7514TIP3   OH222494   1.757   6.298   5.091
 7514TIP3    H122495   1.837   6.329   5.138
 7514TIP3    H222496   1.692   6.299   5.163
 7515TIP3   OH222497   2.219   5.753   4.346
 7515TIP3    H122498   2.294   5.715   4.298
 7515TIP3    H222499   2.225   5.708   4.432
 7516TIP3   OH222500   1.739   5.240   4.228
 7516TIP3    H122501   1.703   5.162   4.277
 7516TIP3    H222502   1.789   5.197   4.157
 7517TIP3   OH222503   2.196   5.652   4.635
 7517TIP3    H122504   2.106   5.688   4.650
 7517TIP3    H222505   2.253   5.714   4.685
 7518TIP3   OH222506   1.934   6.038   3.732
 7518TIP3    H122507   1.860   5.974   3.719
 7518TIP3    H222508   1.913   6.073   3.822
 7519TIP3   OH222509   2.832   6.275   4.358
 7519TIP3    H122510   2.854   6.327   4.278
 7519TIP3    H222511   2.747   6.232   4.332
 7520TIP3   OH222512   2.389   5.352   3.585
 7520TIP3    H122513   2.294   5.332   3.602
 7520TIP3    H222514   2.399   5.444   3.619
 7521TIP3   OH222515   2.332   6.359   4.728
 7521TIP3    H122516   2.360   6.342   4.819
 7521TIP3    H222517   2.294   6.448   4.734
 7522TIP3   OH222518   2.459   5.598   3.697
 7522TIP3    H122519   2.555   5.606   3.715
 7522TIP3    H222520   2.440   5.681   3.648
 7523TIP3   OH222521   1.624   6.059   4.405
 7523TIP3    H122522   1.663   6.033   4.319
 7523TIP3    H222523   1.673   6.003   4.467
 7524TIP3   OH222524   2.078   6.187   3.552
 7524TIP3    H122525   2.031   6.274   3.555
 7524TIP3    H222526   2.024   6.135   3.616
 7525TIP3   OH222527   1.509   5.982   5.020
 7525TIP3    H122528   1.528   5.969   5.115
 7525TIP3    H222529   1.440   5.915   5.005
 7526TIP3   OH222530   2.234   6.098   5.038
 7526TIP3    H122531   2.173   6.038   4.993
 7526TIP3    H222532   2.321   6.062   5.010
 7527TIP3   OH222533   2.492   6.616   4.625
 7527TIP3    H122534   2.396   6.616   4.639
 7527TIP3    H222535   2.521   6.669   4.702
 7528TIP3   OH222536   2.900   5.694   3.533
 7528TIP3    H122537   2.839   5.649   3.470
 7528TIP3    H222538   2.897   5.783   3.494
 7529TIP3   OH222539   3.124   6.552   4.611
 7529TIP3    H122540   3.026   6.545   4.604
 7529TIP3    H222541   3.148   6.520   4.521
 7530TIP3   OH222542   2.612   6.510   3.444
 7530TIP3    H122543   2.574   6.442   3.502
 7530TIP3    H222544   2.617   6.465   3.358
 7531TIP3   OH222545   2.599   6.139   4.276
 7531TIP3    H122546   2.505   6.115   4.290
 7531TIP3    H222547   2.631   6.058   4.231
 7532TIP3   OH222548   1.729   6.368   4.032
 7532TIP3    H122549   1.728   6.448   3.975
 7532TIP3    H222550   1.635   6.352   4.044
 7533TIP3   OH222551   1.292   5.670   3.737
 7533TIP3    H122552   1.336   5.755   3.757
 7533TIP3    H222553   1.216   5.674   3.798
 7534TIP3   OH222554   1.859   6.130   3.973
 7534TIP3    H122555   1.827   6.220   3.991
 7534TIP3    H222556   1.824   6.081   4.050
 7535TIP3   OH222557   1.996   6.710   4.499
 7535TIP3    H122558   2.038   6.784   4.448
 7535TIP3    H222559   2.073   6.675   4.546
 7536TIP3   OH222560   1.651   6.603   3.881
 7536TIP3    H122561   1.565   6.611   3.926
 7536TIP3    H222562   1.683   6.696   3.886
 7537TIP3   OH222563   2.381   6.342   4.460
 7537TIP3    H122564   2.370   6.341   4.558
 7537TIP3    H222565   2.462   6.290   4.449
 7538TIP3   OH222566   2.361   6.238   3.339
 7538TIP3    H122567   2.411   6.211   3.420
 7538TIP3    H222568   2.270   6.218   3.366
 7539TIP3   OH222569   2.632   6.874   4.507
 7539TIP3    H122570   2.551   6.821   4.500
 7539TIP3    H222571   2.617   6.940   4.435
 7540TIP3   OH222572   2.698   6.710   3.160
 7540TIP3    H122573   2.728   6.784   3.105
 7540TIP3    H222574   2.617   6.751   3.197
 7541TIP3   OH222575   1.716   5.487   5.026
 7541TIP3    H122576   1.619   5.488   5.038
 7541TIP3    H222577   1.745   5.430   5.099
 7542TIP3   OH222578   2.520   6.168   3.558
 7542TIP3    H122579   2.511   6.104   3.631
 7542TIP3    H222580   2.617   6.167   3.545
 7543TIP3   OH222581   1.435   6.570   4.658
 7543TIP3    H122582   1.492   6.503   4.699
 7543TIP3    H222583   1.458   6.649   4.709
 7544TIP3   OH222584   1.724   6.214   3.342
 7544TIP3    H122585   1.741   6.122   3.317
 7544TIP3    H222586   1.703   6.206   3.437
 7545TIP3   OH222587   1.669   6.222   3.615
 7545TIP3    H122588   1.744   6.199   3.671
 7545TIP3    H222589   1.670   6.320   3.619
 7546TIP3   OH222590   1.402   5.915   3.819
 7546TIP3    H122591   1.335   5.961   3.875
 7546TIP3    H222592   1.415   5.983   3.750
 7547TIP3   OH222593   2.558   5.551   4.710
 7547TIP3    H122594   2.637   5.589   4.751
 7547TIP3    H222595   2.544   5.470   4.765
 7548TIP3   OH222596   2.437   5.301   3.878
 7548TIP3    H122597   2.425   5.325   3.784
 7548TIP3    H222598   2.476   5.383   3.915
 7549TIP3   OH222599   1.937   6.417   3.565
 7549TIP3    H122600   1.850   6.443   3.599
 7549TIP3    H222601   1.950   6.485   3.497
 7550TIP3   OH222602   2.121   5.485   3.978
 7550TIP3    H122603   2.185   5.557   3.962
 7550TIP3    H222604   2.127   5.475   4.076
 7551TIP3   OH222605   2.393   5.800   4.783
 7551TIP3    H122606   2.418   5.853   4.862
 7551TIP3    H222607   2.446   5.719   4.796
 7552TIP3   OH222608   2.265   5.205   4.077
 7552TIP3    H122609   2.259   5.282   4.137
 7552TIP3    H222610   2.327   5.239   4.009
 7553TIP3   OH222611   1.681   6.492   3.630
 7553TIP3    H122612   1.651   6.563   3.569
 7553TIP3    H222613   1.667   6.536   3.718
 7554TIP3   OH222614   1.780   5.210   3.866
 7554TIP3    H122615   1.778   5.300   3.905
 7554TIP3    H222616   1.876   5.192   3.876
 7555TIP3   OH222617   3.033   5.702   4.764
 7555TIP3    H122618   2.935   5.702   4.774
 7555TIP3    H222619   3.041   5.654   4.681
 7556TIP3   OH222620   2.684   5.895   4.154
 7556TIP3    H122621   2.608   5.836   4.166
 7556TIP3    H222622   2.755   5.848   4.202
 7557TIP3   OH222623   1.397   6.121   3.622
 7557TIP3    H122624   1.464   6.191   3.632
 7557TIP3    H222625   1.443   6.066   3.555
 7558TIP3   OH222626   1.339   5.400   3.757
 7558TIP3    H122627   1.344   5.498   3.755
 7558TIP3    H222628   1.257   5.384   3.709
 7559TIP3   OH222629   2.654   6.854   4.102
 7559TIP3    H122630   2.611   6.901   4.027
 7559TIP3    H222631   2.748   6.870   4.080
 7560TIP3   OH222632   1.728   5.120   4.628
 7560TIP3    H122633   1.699   5.085   4.541
 7560TIP3    H222634   1.719   5.042   4.686
 7561TIP3   OH222635   1.260   6.327   4.006
 7561TIP3    H122636   1.198   6.362   4.071
 7561TIP3    H222637   1.231   6.373   3.924
 7562TIP3   OH222638   1.428   6.883   5.086
 7562TIP3    H122639   1.515   6.883   5.133
 7562TIP3    H222640   1.408   6.788   5.082
 7563TIP3   OH222641   1.903   6.841   5.128
 7563TIP3    H122642   1.998   6.827   5.133
 7563TIP3    H222643   1.878   6.780   5.056
 7564TIP3   OH222644   1.877   6.430   3.261
 7564TIP3    H122645   1.833   6.347   3.289
 7564TIP3    H222646   1.956   6.395   3.214
 7565TIP3   OH222647   2.547   6.750   4.859
 7565TIP3    H122648   2.538   6.682   4.929
 7565TIP3    H222649   2.622   6.804   4.891
 7566TIP3   OH222650   2.334   6.469   3.170
 7566TIP3    H122651   2.369   6.395   3.222
 7566TIP3    H222652   2.390   6.468   3.090
 7567TIP3   OH222653   1.555   6.287   5.282
 7567TIP3    H122654   1.570   6.191   5.288
 7567TIP3    H222655   1.468   6.290   5.236
 7568TIP3   OH222656   1.533   5.935   3.478
 7568TIP3    H122657   1.591   5.909   3.551
 7568TIP3    H222658   1.599   5.942   3.406
 7569TIP3   OH222659   2.161   6.375   5.056
 7569TIP3    H122660   2.121   6.396   4.970
 7569TIP3    H222661   2.192   6.282   5.044
 7570TIP3   OH222662   2.043   6.120   3.283
 7570TIP3    H122663   2.046   6.139   3.379
 7570TIP3    H222664   2.037   6.023   3.282
 7571TIP3   OH222665   2.655   6.384   4.663
 7571TIP3    H122666   2.730   6.428   4.620
 7571TIP3    H222667   2.585   6.450   4.648
 7572TIP3   OH222668   1.675   6.021   5.266
 7572TIP3    H122669   1.754   5.974   5.238
 7572TIP3    H222670   1.703   6.056   5.353
 7573TIP3   OH222671   1.737   5.843   3.696
 7573TIP3    H122672   1.711   5.804   3.781
 7573TIP3    H222673   1.775   5.767   3.649
 7574TIP3   OH222674   2.010   5.905   4.925
 7574TIP3    H122675   1.932   5.965   4.924
 7574TIP3    H222676   2.063   5.941   4.850
 7575TIP3   OH222677   1.843   5.636   3.538
 7575TIP3    H122678   1.819   5.645   3.443
 7575TIP3    H222679   1.941   5.640   3.532
 7576TIP3   OH222680   2.527   6.308   5.060
 7576TIP3    H122681   2.605   6.278   5.012
 7576TIP3    H222682   2.521   6.243   5.132
 7577TIP3   OH222683   2.663   5.962   3.204
 7577TIP3    H122684   2.642   5.920   3.118
 7577TIP3    H222685   2.631   6.053   3.184
 7578TIP3   OH222686   2.134   5.696   5.049
 7578TIP3    H122687   2.134   5.617   4.992
 7578TIP3    H222688   2.089   5.763   4.992
 7579TIP3   OH222689   2.136   5.482   4.860
 7579TIP3    H122690   2.164   5.523   4.776
 7579TIP3    H222691   2.043   5.459   4.841
 7580TIP3   OH222692   2.159   6.015   4.733
 7580TIP3    H122693   2.245   6.030   4.692
 7580TIP3    H222694   2.102   6.081   4.687
 7581TIP3   OH222695   2.741   5.981   5.111
 7581TIP3    H122696   2.791   5.900   5.125
 7581TIP3    H222697   2.809   6.041   5.077
 7582TIP3   OH222698   2.785   6.237   4.849
 7582TIP3    H122699   2.726   6.291   4.791
 7582TIP3    H222700   2.872   6.258   4.810
 7583TIP3   OH222701   2.012   5.802   5.285
 7583TIP3    H122702   1.944   5.733   5.299
 7583TIP3    H222703   2.045   5.778   5.196
 7584TIP3   OH222704   2.268   5.243   4.928
 7584TIP3    H122705   2.217   5.324   4.905
 7584TIP3    H222706   2.199   5.174   4.917
 7585TIP3   OH222707   2.394   5.746   5.143
 7585TIP3    H122708   2.380   5.731   5.239
 7585TIP3    H222709   2.305   5.723   5.110
 7586TIP3   OH222710   2.631   5.696   4.998
 7586TIP3    H122711   2.558   5.699   5.062
 7586TIP3    H222712   2.706   5.667   5.054
 7587TIP3   OH222713   2.863   5.639   5.146
 7587TIP3    H122714   2.875   5.544   5.162
 7587TIP3    H222715   2.858   5.676   5.236
 7588TIP3   OH222716   1.849   5.583   5.338
 7588TIP3    H122717   1.854   5.491   5.306
 7588TIP3    H222718   1.888   5.572   5.428
 7589TIP3   OH222719   2.361   5.254   5.186
 7589TIP3    H122720   2.427   5.182   5.180
 7589TIP3    H222721   2.321   5.249   5.097
 7590TIP3   OH222722   2.429   5.469   5.344
 7590TIP3    H122723   2.408   5.398   5.280
 7590TIP3    H222724   2.349   5.527   5.337
 7591TIP3   OH222725   1.649   6.693   3.443
 7591TIP3    H122726   1.745   6.687   3.427
 7591TIP3    H222727   1.624   6.748   3.367
 7592TIP3   OH222728   1.129   6.080   3.659
 7592TIP3    H122729   1.224   6.101   3.644
 7592TIP3    H222730   1.123   5.991   3.618
 7593TIP3   OH222731   1.032   6.684   4.078
 7593TIP3    H122732   0.965   6.623   4.038
 7593TIP3    H222733   1.079   6.624   4.138
 7594TIP3   OH222734   1.182   6.536   4.254
 7594TIP3    H122735   1.168   6.471   4.325
 7594TIP3    H222736   1.233   6.603   4.303
 7595TIP3   OH222737   2.911   6.936   4.062
 7595TIP3    H122738   2.933   6.971   4.150
 7595TIP3    H222739   2.967   6.989   4.004
 7596TIP3   OH222740   2.935   6.962   4.343
 7596TIP3    H122741   2.888   6.876   4.337
 7596TIP3    H222742   3.008   6.937   4.401
 7597TIP3   OH222743   2.983   6.638   4.917
 7597TIP3    H122744   2.910   6.648   4.981
 7597TIP3    H222745   3.023   6.728   4.919
 7598TIP3   OH222746   2.799   6.150   3.535
 7598TIP3    H122747   2.863   6.216   3.504
 7598TIP3    H222748   2.845   6.114   3.614
 7599TIP3   OH222749   2.928   6.019   3.740
 7599TIP3    H122750   2.860   5.978   3.798
 7599TIP3    H222751   2.991   6.056   3.805
 7600TIP3   OH222752   2.985   6.415   4.174
 7600TIP3    H122753   3.034   6.346   4.124
 7600TIP3    H222754   2.979   6.486   4.108
 7601TIP3   OH222755   2.811   6.713   4.366
 7601TIP3    H122756   2.739   6.756   4.416
 7601TIP3    H222757   2.761   6.668   4.294
 7602TIP3   OH222758   2.864   5.927   3.384
 7602TIP3    H122759   2.794   5.929   3.316
 7602TIP3    H222760   2.835   6.002   3.439
 7603TIP3   OH222761   2.734   5.597   3.340
 7603TIP3    H122762   2.688   5.637   3.266
 7603TIP3    H222763   2.712   5.502   3.325
 7604TIP3   OH222764   2.740   5.879   3.885
 7604TIP3    H122765   2.747   5.782   3.877
 7604TIP3    H222766   2.725   5.891   3.981
 7605TIP3   OH222767   1.365   5.949   4.634
 7605TIP3    H122768   1.363   5.916   4.541
 7605TIP3    H222769   1.462   5.951   4.650
 7606TIP3   OH222770   3.030   6.302   4.743
 7606TIP3    H122771   3.102   6.236   4.731
 7606TIP3    H222772   3.052   6.368   4.675
 7607TIP3   OH222773   3.216   6.104   4.751
 7607TIP3    H122774   3.140   6.057   4.792
 7607TIP3    H222775   3.287   6.039   4.770
 7608TIP3   OH222776   2.683   5.327   3.316
 7608TIP3    H122777   2.757   5.304   3.376
 7608TIP3    H222778   2.609   5.273   3.350
 7609TIP3   OH222779   2.737   5.593   3.777
 7609TIP3    H122780   2.777   5.505   3.793
 7609TIP3    H222781   2.795   5.626   3.707
 7610TIP3   OH222782   2.897   5.763   4.275
 7610TIP3    H122783   2.982   5.788   4.233
 7610TIP3    H222784   2.911   5.802   4.364
 7611TIP3   OH222785   2.969   5.911   4.504
 7611TIP3    H122786   2.891   5.944   4.553
 7611TIP3    H222787   3.001   5.993   4.460
 7612TIP3   OH222788   1.583   5.635   5.305
 7612TIP3    H122789   1.681   5.630   5.309
 7612TIP3    H222790   1.560   5.548   5.344
 7613TIP3   OH222791   3.419   5.505   5.060
 7613TIP3    H122792   3.479   5.439   5.019
 7613TIP3    H222793   3.388   5.556   4.982
 7614TIP3   OH222794   2.845   5.344   3.817
 7614TIP3    H122795   2.893   5.328   3.900
 7614TIP3    H222796   2.784   5.267   3.816
 7615TIP3   OH222797   1.544   5.329   4.637
 7615TIP3    H122798   1.605   5.254   4.646
 7615TIP3    H222799   1.607   5.403   4.629
 7616TIP3   OH222800   1.346   5.601   4.708
 7616TIP3    H122801   1.396   5.600   4.624
 7616TIP3    H222802   1.373   5.686   4.745
 7617TIP3   OH222803   3.287   5.640   4.863
 7617TIP3    H122804   3.203   5.684   4.886
 7617TIP3    H222805   3.254   5.567   4.808
 7618TIP3   OH222806   2.923   5.276   3.450
 7618TIP3    H122807   2.963   5.205   3.396
 7618TIP3    H222808   2.992   5.345   3.448
 7619TIP3   OH222809   1.332   5.101   4.207
 7619TIP3    H122810   1.241   5.100   4.240
 7619TIP3    H222811   1.326   5.163   4.132
 7620TIP3   OH222812   2.496   6.806   3.719
 7620TIP3    H122813   2.545   6.798   3.634
 7620TIP3    H222814   2.542   6.880   3.762
 7621TIP3   OH222815   1.552   5.186   5.025
 7621TIP3    H122816   1.501   5.181   5.106
 7621TIP3    H222817   1.486   5.223   4.963
 7622TIP3   OH222818   1.592   6.612   5.100
 7622TIP3    H122819   1.499   6.589   5.085
 7622TIP3    H222820   1.601   6.599   5.195
 7623TIP3   OH222821   1.771   6.648   4.648
 7623TIP3    H122822   1.723   6.724   4.609
 7623TIP3    H222823   1.857   6.663   4.603
 7624TIP3   OH222824   2.211   6.889   4.785
 7624TIP3    H122825   2.253   6.889   4.874
 7624TIP3    H222826   2.276   6.942   4.734
 7625TIP3   OH222827   2.391   7.044   4.649
 7625TIP3    H122828   2.462   6.994   4.606
 7625TIP3    H222829   2.443   7.101   4.710
 7626TIP3   OH222830   3.188   5.403   4.746
 7626TIP3    H122831   3.098   5.393   4.711
 7626TIP3    H222832   3.222   5.311   4.737
 7627TIP3   OH222833   1.445   6.899   4.680
 7627TIP3    H122834   1.355   6.930   4.654
 7627TIP3    H222835   1.460   6.955   4.757
 7628TIP3   OH222836   1.681   6.881   4.532
 7628TIP3    H122837   1.594   6.894   4.576
 7628TIP3    H222838   1.663   6.917   4.443
 7629TIP3   OH222839   2.106   6.907   4.331
 7629TIP3    H122840   2.040   6.926   4.262
 7629TIP3    H222841   2.118   6.997   4.369
 7630TIP3   OH222842   2.376   6.847   4.382
 7630TIP3    H122843   2.282   6.865   4.363
 7630TIP3    H222844   2.418   6.922   4.337
 7631TIP3   OH222845   2.586   7.042   4.295
 7631TIP3    H122846   2.569   7.125   4.247
 7631TIP3    H222847   2.610   6.981   4.221
 7632TIP3   OH222848   1.354   6.693   4.418
 7632TIP3    H122849   1.382   6.665   4.508
 7632TIP3    H222850   1.427   6.652   4.366
 7633TIP3   OH222851   1.551   6.568   4.276
 7633TIP3    H122852   1.568   6.485   4.327
 7633TIP3    H222853   1.642   6.606   4.272
 7634TIP3   OH222854   1.816   6.660   4.282
 7634TIP3    H122855   1.849   6.569   4.270
 7634TIP3    H222856   1.864   6.685   4.363
 7635TIP3   OH222857   2.392   5.318   4.365
 7635TIP3    H122858   2.350   5.247   4.417
 7635TIP3    H222859   2.468   5.271   4.324
 7636TIP3   OH222860   2.913   5.201   4.271
 7636TIP3    H122861   2.950   5.251   4.195
 7636TIP3    H222862   2.818   5.218   4.263
 7637TIP3   OH222863   3.009   5.298   4.034
 7637TIP3    H122864   3.083   5.246   3.995
 7637TIP3    H222865   3.043   5.389   4.019
 7638TIP3   OH222866   1.640   5.026   4.379
 7638TIP3    H122867   1.548   4.994   4.385
 7638TIP3    H222868   1.688   4.941   4.376
 7639TIP3   OH222869   1.421   4.899   4.028
 7639TIP3    H122870   1.456   4.956   3.957
 7639TIP3    H222871   1.400   4.965   4.097
 7640TIP3   OH222872   2.086   5.059   4.263
 7640TIP3    H122873   2.142   5.106   4.200
 7640TIP3    H222874   2.113   5.098   4.347
 7641TIP3   OH222875   2.629   5.207   4.244
 7641TIP3    H122876   2.634   5.165   4.157
 7641TIP3    H222877   2.618   5.128   4.303
 7642TIP3   OH222878   2.661   5.131   3.809
 7642TIP3    H122879   2.575   5.173   3.825
 7642TIP3    H222880   2.648   5.045   3.853
 7643TIP3   OH222881   1.145   6.472   3.810
 7643TIP3    H122882   1.060   6.439   3.776
 7643TIP3    H222883   1.136   6.566   3.790
 7644TIP3   OH222884   1.548   5.056   3.791
 7644TIP3    H122885   1.595   4.993   3.734
 7644TIP3    H222886   1.621   5.110   3.826
 7645TIP3   OH222887   2.058   5.234   3.890
 7645TIP3    H122888   2.117   5.186   3.950
 7645TIP3    H222889   2.079   5.326   3.916
 7646TIP3   OH222890   1.918   6.660   3.394
 7646TIP3    H122891   2.005   6.680   3.355
 7646TIP3    H222892   1.892   6.585   3.335
 7647TIP3   OH222893   2.641   6.778   3.484
 7647TIP3    H122894   2.634   6.680   3.475
 7647TIP3    H222895   2.590   6.806   3.406
 7648TIP3   OH222896   1.848   5.308   5.272
 7648TIP3    H122897   1.812   5.238   5.328
 7648TIP3    H222898   1.942   5.307   5.301
 7649TIP3   OH222899   2.099   5.305   5.391
 7649TIP3    H122900   2.184   5.280   5.352
 7649TIP3    H222901   2.086   5.235   5.458
 7650TIP3   OH222902   1.220   6.490   3.444
 7650TIP3    H122903   1.224   6.513   3.538
 7650TIP3    H222904   1.308   6.449   3.429
 7651TIP3   OH222905   2.925   5.368   5.178
 7651TIP3    H122906   2.942   5.337   5.270
 7651TIP3    H222907   3.015   5.362   5.139
 7652TIP3   OH222908   2.863   6.919   4.668
 7652TIP3    H122909   2.784   6.888   4.619
 7652TIP3    H222910   2.842   7.014   4.676
 7653TIP3   OH222911   4.130   6.293   3.435
 7653TIP3    H122912   4.099   6.384   3.414
 7653TIP3    H222913   4.055   6.241   3.401
 7654TIP3   OH222914   4.130   6.292   3.820
 7654TIP3    H122915   4.163   6.266   3.908
 7654TIP3    H222916   4.088   6.211   3.789
 7655TIP3   OH222917   3.426   6.185   4.183
 7655TIP3    H122918   3.456   6.115   4.245
 7655TIP3    H222919   3.507   6.238   4.175
 7656TIP3   OH222920   4.374   6.597   3.501
 7656TIP3    H122921   4.354   6.529   3.566
 7656TIP3    H222922   4.403   6.672   3.556
 7657TIP3   OH222923   3.402   6.599   3.907
 7657TIP3    H122924   3.392   6.501   3.908
 7657TIP3    H222925   3.498   6.607   3.899
 7658TIP3   OH222926   3.106   5.798   3.689
 7658TIP3    H122927   3.058   5.880   3.708
 7658TIP3    H222928   3.036   5.746   3.647
 7659TIP3   OH222929   3.164   6.087   3.869
 7659TIP3    H122930   3.213   6.008   3.902
 7659TIP3    H222931   3.220   6.117   3.797
 7660TIP3   OH222932   4.024   7.058   3.520
 7660TIP3    H122933   4.067   6.986   3.470
 7660TIP3    H222934   4.023   7.021   3.610
 7661TIP3   OH222935   3.925   6.519   3.868
 7661TIP3    H122936   3.965   6.443   3.823
 7661TIP3    H222937   4.008   6.566   3.894
 7662TIP3   OH222938   4.947   5.836   3.864
 7662TIP3    H122939   4.972   5.923   3.901
 7662TIP3    H222940   4.964   5.850   3.769
 7663TIP3   OH222941   4.341   6.018   3.897
 7663TIP3    H122942   4.382   5.931   3.917
 7663TIP3    H222943   4.307   6.002   3.807
 7664TIP3   OH222944   3.681   5.679   3.862
 7664TIP3    H122945   3.659   5.751   3.799
 7664TIP3    H222946   3.632   5.605   3.819
 7665TIP3   OH222947   4.373   5.773   3.483
 7665TIP3    H122948   4.445   5.756   3.549
 7665TIP3    H222949   4.427   5.806   3.409
 7666TIP3   OH222950   3.311   5.879   3.970
 7666TIP3    H122951   3.394   5.860   4.019
 7666TIP3    H222952   3.325   5.824   3.891
 7667TIP3   OH222953   3.750   6.077   3.768
 7667TIP3    H122954   3.844   6.053   3.778
 7667TIP3    H222955   3.712   5.994   3.734
 7668TIP3   OH222956   5.019   6.052   4.031
 7668TIP3    H122957   4.934   6.095   4.009
 7668TIP3    H222958   5.028   6.079   4.124
 7669TIP3   OH222959   3.674   5.663   4.299
 7669TIP3    H122960   3.614   5.699   4.231
 7669TIP3    H222961   3.621   5.679   4.379
 7670TIP3   OH222962   4.019   6.514   3.304
 7670TIP3    H122963   3.976   6.496   3.219
 7670TIP3    H222964   3.973   6.596   3.332
 7671TIP3   OH222965   3.781   6.439   4.090
 7671TIP3    H122966   3.720   6.507   4.126
 7671TIP3    H222967   3.823   6.486   4.016
 7672TIP3   OH222968   4.580   5.775   3.659
 7672TIP3    H122969   4.566   5.726   3.742
 7672TIP3    H222970   4.630   5.853   3.689
 7673TIP3   OH222971   3.546   5.777   4.081
 7673TIP3    H122972   3.609   5.848   4.106
 7673TIP3    H222973   3.595   5.736   4.006
 7674TIP3   OH222974   3.610   6.634   4.193
 7674TIP3    H122975   3.585   6.721   4.156
 7674TIP3    H222976   3.530   6.617   4.246
 7675TIP3   OH222977   3.000   6.322   3.426
 7675TIP3    H122978   2.958   6.350   3.342
 7675TIP3    H222979   3.032   6.408   3.461
 7676TIP3   OH222980   4.444   6.835   3.662
 7676TIP3    H122981   4.354   6.828   3.704
 7676TIP3    H222982   4.435   6.923   3.618
 7677TIP3   OH222983   4.734   5.741   4.031
 7677TIP3    H122984   4.645   5.762   3.998
 7677TIP3    H222985   4.791   5.771   3.958
 7678TIP3   OH222986   4.027   5.379   4.014
 7678TIP3    H122987   4.011   5.284   4.031
 7678TIP3    H222988   3.950   5.418   4.061
 7679TIP3   OH222989   4.140   6.884   3.337
 7679TIP3    H122990   4.190   6.801   3.321
 7679TIP3    H222991   4.203   6.948   3.298
 7680TIP3   OH222992   4.286   6.670   3.250
 7680TIP3    H122993   4.245   6.590   3.214
 7680TIP3    H222994   4.325   6.636   3.334
 7681TIP3   OH222995   4.666   6.751   4.010
 7681TIP3    H122996   4.654   6.674   3.950
 7681TIP3    H222997   4.641   6.826   3.952
 7682TIP3   OH222998   3.960   6.145   3.270
 7682TIP3    H122999   3.880   6.197   3.249
 7682TIP3    H223000   4.004   6.140   3.183
 7683TIP3   OH223001   3.917   5.930   2.982
 7683TIP3    H123002   3.984   5.983   3.029
 7683TIP3    H223003   3.976   5.867   2.934
 7684TIP3   OH223004   4.862   6.389   3.857
 7684TIP3    H123005   4.778   6.439   3.861
 7684TIP3    H223006   4.893   6.414   3.767
 7685TIP3   OH223007   4.308   6.228   3.237
 7685TIP3    H123008   4.253   6.251   3.316
 7685TIP3    H223009   4.392   6.204   3.281
 7686TIP3   OH223010   4.541   6.264   4.153
 7686TIP3    H123011   4.537   6.349   4.202
 7686TIP3    H223012   4.455   6.266   4.108
 7687TIP3   OH223013   3.539   6.224   3.657
 7687TIP3    H123014   3.497   6.166   3.590
 7687TIP3    H223015   3.615   6.169   3.687
 7688TIP3   OH223016   3.669   6.636   3.805
 7688TIP3    H123017   3.648   6.600   3.718
 7688TIP3    H223018   3.758   6.598   3.822
 7689TIP3   OH223019   3.676   6.194   4.013
 7689TIP3    H123020   3.707   6.169   3.924
 7689TIP3    H223021   3.720   6.280   4.028
 7690TIP3   OH223022   4.204   6.831   3.784
 7690TIP3    H123023   4.187   6.918   3.827
 7690TIP3    H223024   4.182   6.766   3.853
 7691TIP3   OH223025   3.815   6.755   4.335
 7691TIP3    H123026   3.745   6.811   4.375
 7691TIP3    H223027   3.759   6.696   4.281
 7692TIP3   OH223028   4.145   6.086   3.065
 7692TIP3    H123029   4.204   6.146   3.115
 7692TIP3    H223030   4.172   6.106   2.972
 7693TIP3   OH223031   3.569   6.303   4.439
 7693TIP3    H123032   3.571   6.392   4.479
 7693TIP3    H223033   3.474   6.282   4.450
 7694TIP3   OH223034   3.893   6.760   3.343
 7694TIP3    H123035   3.974   6.813   3.352
 7694TIP3    H223036   3.832   6.821   3.301
 7695TIP3   OH223037   3.610   6.904   4.435
 7695TIP3    H123038   3.575   6.921   4.346
 7695TIP3    H223039   3.527   6.892   4.487
 7696TIP3   OH223040   4.664   5.323   3.116
 7696TIP3    H123041   4.581   5.345   3.164
 7696TIP3    H223042   4.678   5.406   3.065
 7697TIP3   OH223043   3.405   6.068   3.462
 7697TIP3    H123044   3.337   6.111   3.407
 7697TIP3    H223045   3.369   5.979   3.472
 7698TIP3   OH223046   4.463   6.691   2.663
 7698TIP3    H123047   4.472   6.787   2.648
 7698TIP3    H223048   4.556   6.661   2.651
 7699TIP3   OH223049   3.187   6.452   4.368
 7699TIP3    H123050   3.118   6.433   4.301
 7699TIP3    H223051   3.223   6.363   4.387
 7700TIP3   OH223052   3.039   6.644   4.000
 7700TIP3    H123053   3.135   6.643   3.994
 7700TIP3    H223054   3.024   6.724   4.053
 7701TIP3   OH223055   4.902   7.088   4.055
 7701TIP3    H123056   4.899   6.992   4.076
 7701TIP3    H223057   4.822   7.120   4.101
 7702TIP3   OH223058   4.009   6.883   4.189
 7702TIP3    H123059   4.006   6.976   4.219
 7702TIP3    H223060   3.938   6.842   4.243
 7703TIP3   OH223061   3.776   7.012   3.141
 7703TIP3    H123062   3.723   6.990   3.063
 7703TIP3    H223063   3.735   7.095   3.172
 7704TIP3   OH223064   3.211   6.858   3.530
 7704TIP3    H123065   3.256   6.849   3.617
 7704TIP3    H223066   3.158   6.776   3.528
 7705TIP3   OH223067   3.974   6.914   2.782
 7705TIP3    H123068   4.031   6.843   2.746
 7705TIP3    H223069   4.007   6.919   2.874
 7706TIP3   OH223070   4.026   6.956   3.053
 7706TIP3    H123071   3.937   6.967   3.093
 7706TIP3    H223072   4.075   6.916   3.127
 7707TIP3   OH223073   4.792   6.222   4.334
 7707TIP3    H123074   4.709   6.236   4.286
 7707TIP3    H223075   4.807   6.127   4.320
 7708TIP3   OH223076   3.388   6.637   4.355
 7708TIP3    H123077   3.437   6.616   4.437
 7708TIP3    H223078   3.314   6.573   4.360
 7709TIP3   OH223079   3.791   5.457   4.143
 7709TIP3    H123080   3.703   5.425   4.113
 7709TIP3    H223081   3.763   5.537   4.192
 7710TIP3   OH223082   4.324   5.572   4.337
 7710TIP3    H123083   4.393   5.542   4.400
 7710TIP3    H223084   4.241   5.552   4.383
 7711TIP3   OH223085   4.568   6.005   4.261
 7711TIP3    H123086   4.512   6.000   4.341
 7711TIP3    H223087   4.540   6.089   4.220
 7712TIP3   OH223088   4.225   6.132   2.812
 7712TIP3    H123089   4.188   6.107   2.726
 7712TIP3    H223090   4.309   6.173   2.785
 7713TIP3   OH223091   3.935   5.504   3.114
 7713TIP3    H123092   3.899   5.499   3.205
 7713TIP3    H223093   3.895   5.422   3.077
 7714TIP3   OH223094   3.724   5.972   4.162
 7714TIP3    H123095   3.671   5.993   4.242
 7714TIP3    H223096   3.708   6.054   4.109
 7715TIP3   OH223097   3.606   5.859   3.674
 7715TIP3    H123098   3.513   5.833   3.693
 7715TIP3    H223099   3.618   5.819   3.586
 7716TIP3   OH223100   4.098   5.945   3.405
 7716TIP3    H123101   4.047   6.016   3.360
 7716TIP3    H223102   4.152   5.910   3.331
 7717TIP3   OH223103   4.273   6.219   4.487
 7717TIP3    H123104   4.250   6.147   4.550
 7717TIP3    H223105   4.367   6.234   4.510
 7718TIP3   OH223106   4.253   5.972   3.640
 7718TIP3    H123107   4.190   5.999   3.570
 7718TIP3    H223108   4.288   5.892   3.595
 7719TIP3   OH223109   3.542   6.000   4.368
 7719TIP3    H123110   3.567   6.063   4.437
 7719TIP3    H223111   3.530   5.918   4.419
 7720TIP3   OH223112   3.591   5.481   3.078
 7720TIP3    H123113   3.580   5.478   3.175
 7720TIP3    H223114   3.513   5.534   3.052
 7721TIP3   OH223115   3.134   5.521   3.951
 7721TIP3    H123116   3.210   5.554   4.003
 7721TIP3    H223117   3.175   5.491   3.868
 7722TIP3   OH223118   3.101   5.503   3.469
 7722TIP3    H123119   3.148   5.538   3.391
 7722TIP3    H223120   3.041   5.577   3.487
 7723TIP3   OH223121   4.266   6.216   4.063
 7723TIP3    H123122   4.299   6.145   4.002
 7723TIP3    H223123   4.234   6.161   4.137
 7724TIP3   OH223124   3.938   5.681   3.735
 7724TIP3    H123125   3.855   5.679   3.787
 7724TIP3    H223126   4.005   5.675   3.805
 7725TIP3   OH223127   3.368   5.737   3.742
 7725TIP3    H123128   3.273   5.745   3.714
 7725TIP3    H223129   3.390   5.645   3.720
 7726TIP3   OH223130   3.633   5.733   3.433
 7726TIP3    H123131   3.727   5.746   3.409
 7726TIP3    H223132   3.585   5.753   3.350
 7727TIP3   OH223133   4.427   5.755   3.939
 7727TIP3    H123134   4.393   5.769   4.031
 7727TIP3    H223135   4.360   5.695   3.904
 7728TIP3   OH223136   3.482   5.768   3.210
 7728TIP3    H123137   3.411   5.722   3.163
 7728TIP3    H223138   3.534   5.804   3.135
 7729TIP3   OH223139   3.548   6.553   4.573
 7729TIP3    H123140   3.626   6.587   4.617
 7729TIP3    H223141   3.484   6.548   4.646
 7730TIP3   OH223142   4.015   6.011   3.834
 7730TIP3    H123143   4.087   5.970   3.784
 7730TIP3    H223144   4.020   5.965   3.920
 7731TIP3   OH223145   3.537   5.495   3.715
 7731TIP3    H123146   3.500   5.419   3.764
 7731TIP3    H223147   3.582   5.452   3.641
 7732TIP3   OH223148   3.993   5.909   4.120
 7732TIP3    H123149   3.902   5.942   4.135
 7732TIP3    H223150   4.048   5.972   4.171
 7733TIP3   OH223151   3.729   6.296   3.217
 7733TIP3    H123152   3.658   6.230   3.206
 7733TIP3    H223153   3.709   6.330   3.308
 7734TIP3   OH223154   4.628   6.532   3.845
 7734TIP3    H123155   4.651   6.583   3.765
 7734TIP3    H223156   4.544   6.489   3.819
 7735TIP3   OH223157   4.187   5.605   3.087
 7735TIP3    H123158   4.090   5.585   3.093
 7735TIP3    H223159   4.192   5.700   3.108
 7736TIP3   OH223160   4.119   6.610   4.217
 7736TIP3    H123161   4.162   6.597   4.302
 7736TIP3    H223162   4.097   6.704   4.217
 7737TIP3   OH223163   4.254   5.858   3.188
 7737TIP3    H123164   4.351   5.864   3.200
 7737TIP3    H223165   4.235   5.938   3.134
 7738TIP3   OH223166   3.425   6.323   3.892
 7738TIP3    H123167   3.461   6.292   3.806
 7738TIP3    H223168   3.463   6.259   3.954
 7739TIP3   OH223169   3.874   6.445   3.041
 7739TIP3    H123170   3.826   6.531   3.045
 7739TIP3    H223171   3.819   6.390   3.101
 7740TIP3   OH223172   3.304   6.236   4.505
 7740TIP3    H123173   3.316   6.220   4.601
 7740TIP3    H223174   3.233   6.173   4.484
 7741TIP3   OH223175   4.031   6.348   4.526
 7741TIP3    H123176   3.969   6.289   4.480
 7741TIP3    H223177   4.117   6.312   4.495
 7742TIP3   OH223178   4.293   6.856   4.128
 7742TIP3    H123179   4.198   6.872   4.116
 7742TIP3    H223180   4.314   6.921   4.198
 7743TIP3   OH223181   4.697   5.950   3.019
 7743TIP3    H123182   4.635   5.906   2.956
 7743TIP3    H223183   4.694   6.040   2.980
 7744TIP3   OH223184   4.917   6.802   4.099
 7744TIP3    H123185   4.819   6.797   4.088
 7744TIP3    H223186   4.945   6.774   4.010
 7745TIP3   OH223187   4.401   6.766   2.930
 7745TIP3    H123188   4.371   6.697   2.991
 7745TIP3    H223189   4.411   6.718   2.846
 7746TIP3   OH223190   4.396   6.395   3.763
 7746TIP3    H123191   4.302   6.372   3.776
 7746TIP3    H223192   4.427   6.314   3.718
 7747TIP3   OH223193   3.524   6.625   3.519
 7747TIP3    H123194   3.518   6.705   3.464
 7747TIP3    H223195   3.431   6.603   3.531
 7748TIP3   OH223196   3.089   5.927   3.224
 7748TIP3    H123197   3.132   6.012   3.245
 7748TIP3    H223198   3.011   5.930   3.284
 7749TIP3   OH223199   3.657   6.387   3.460
 7749TIP3    H123200   3.623   6.477   3.480
 7749TIP3    H223201   3.622   6.336   3.535
 7750TIP3   OH223202   3.794   6.968   3.985
 7750TIP3    H123203   3.837   7.039   3.933
 7750TIP3    H223204   3.871   6.927   4.028
 7751TIP3   OH223205   3.440   6.863   3.368
 7751TIP3    H123206   3.355   6.870   3.417
 7751TIP3    H223207   3.471   6.956   3.371
 7752TIP3   OH223208   4.176   6.599   3.948
 7752TIP3    H123209   4.164   6.594   4.046
 7752TIP3    H223210   4.257   6.549   3.935
 7753TIP3   OH223211   4.157   6.499   2.829
 7753TIP3    H123212   4.210   6.472   2.907
 7753TIP3    H223213   4.070   6.465   2.854
 7754TIP3   OH223214   4.495   6.967   2.647
 7754TIP3    H123215   4.532   7.042   2.598
 7754TIP3    H223216   4.413   7.009   2.682
 7755TIP3   OH223217   3.511   5.745   4.512
 7755TIP3    H123218   3.414   5.747   4.524
 7755TIP3    H223219   3.538   5.687   4.585
 7756TIP3   OH223220   4.317   6.428   3.043
 7756TIP3    H123221   4.305   6.363   3.115
 7756TIP3    H223222   4.415   6.423   3.032
 7757TIP3   OH223223   3.233   6.827   4.142
 7757TIP3    H123224   3.285   6.754   4.180
 7757TIP3    H223225   3.254   6.900   4.201
 7758TIP3   OH223226   3.519   6.475   2.829
 7758TIP3    H123227   3.532   6.382   2.801
 7758TIP3    H223228   3.499   6.464   2.924
 7759TIP3   OH223229   3.465   6.480   3.100
 7759TIP3    H123230   3.538   6.451   3.157
 7759TIP3    H223231   3.470   6.578   3.110
 7760TIP3   OH223232   3.199   6.172   3.305
 7760TIP3    H123233   3.132   6.216   3.361
 7760TIP3    H223234   3.211   6.240   3.236
 7761TIP3   OH223235   4.354   5.809   4.200
 7761TIP3    H123236   4.435   5.843   4.241
 7761TIP3    H223237   4.337   5.728   4.251
 7762TIP3   OH223238   4.232   5.557   3.366
 7762TIP3    H123239   4.218   5.576   3.271
 7762TIP3    H223240   4.270   5.641   3.399
 7763TIP3   OH223241   3.733   6.676   3.050
 7763TIP3    H123242   3.646   6.700   3.087
 7763TIP3    H223243   3.744   6.746   2.984
 7764TIP3   OH223244   3.919   5.741   3.465
 7764TIP3    H123245   3.983   5.814   3.449
 7764TIP3    H223246   3.924   5.733   3.563
 7765TIP3   OH223247   4.189   6.057   4.270
 7765TIP3    H123248   4.215   6.109   4.349
 7765TIP3    H223249   4.241   5.975   4.281
 7766TIP3   OH223250   4.061   5.463   3.566
 7766TIP3    H123251   4.051   5.543   3.620
 7766TIP3    H223252   4.123   5.496   3.497
 7767TIP3   OH223253   3.480   6.752   3.119
 7767TIP3    H123254   3.447   6.822   3.058
 7767TIP3    H223255   3.461   6.793   3.207
 7768TIP3   OH223256   3.575   5.467   3.355
 7768TIP3    H123257   3.574   5.557   3.393
 7768TIP3    H223258   3.671   5.447   3.362
 7769TIP3   OH223259   4.832   5.953   4.248
 7769TIP3    H123260   4.735   5.956   4.263
 7769TIP3    H223261   4.834   5.910   4.162
 7770TIP3   OH223262   4.481   6.151   3.640
 7770TIP3    H123263   4.404   6.092   3.651
 7770TIP3    H223264   4.551   6.102   3.689
 7771TIP3   OH223265   3.195   6.377   3.109
 7771TIP3    H123266   3.265   6.444   3.118
 7771TIP3    H223267   3.238   6.319   3.042
 7772TIP3   OH223268   3.136   5.657   3.246
 7772TIP3    H123269   3.138   5.754   3.243
 7772TIP3    H223270   3.056   5.637   3.195
 7773TIP3   OH223271   4.455   7.098   3.575
 7773TIP3    H123272   4.409   7.150   3.506
 7773TIP3    H223273   4.548   7.124   3.557
 7774TIP3   OH223274   3.525   5.377   4.114
 7774TIP3    H123275   3.495   5.342   4.028
 7774TIP3    H223276   3.515   5.299   4.172
 7775TIP3   OH223277   3.061   6.596   3.492
 7775TIP3    H123278   2.998   6.623   3.559
 7775TIP3    H223279   3.024   6.638   3.411
 7776TIP3   OH223280   3.223   7.137   4.566
 7776TIP3    H123281   3.308   7.129   4.612
 7776TIP3    H223282   3.192   7.045   4.566
 7777TIP3   OH223283   3.684   6.676   2.740
 7777TIP3    H123284   3.627   6.604   2.778
 7777TIP3    H223285   3.759   6.623   2.707
 7778TIP3   OH223286   4.332   7.015   4.355
 7778TIP3    H123287   4.332   6.945   4.423
 7778TIP3    H223288   4.408   7.071   4.382
 7779TIP3   OH223289   4.119   6.717   2.655
 7779TIP3    H123290   4.157   6.649   2.715
 7779TIP3    H223291   4.177   6.710   2.577
 7780TIP3   OH223292   3.350   6.538   4.767
 7780TIP3    H123293   3.365   6.442   4.775
 7780TIP3    H223294   3.264   6.541   4.720
 7781TIP3   OH223295   3.330   6.193   2.964
 7781TIP3    H123296   3.386   6.161   3.036
 7781TIP3    H223297   3.397   6.198   2.892
 7782TIP3   OH223298   3.934   6.609   4.546
 7782TIP3    H123299   3.919   6.640   4.454
 7782TIP3    H223300   3.975   6.521   4.532
 7783TIP3   OH223301   3.845   6.395   2.771
 7783TIP3    H123302   3.845   6.404   2.869
 7783TIP3    H223303   3.846   6.297   2.763
 7784TIP3   OH223304   4.453   6.637   4.150
 7784TIP3    H123305   4.529   6.678   4.106
 7784TIP3    H223306   4.386   6.707   4.138
 7785TIP3   OH223307   3.474   6.284   4.751
 7785TIP3    H123308   3.543   6.221   4.728
 7785TIP3    H223309   3.502   6.312   4.841
 7786TIP3   OH223310   3.537   6.099   3.184
 7786TIP3    H123311   3.508   6.057   3.266
 7786TIP3    H223312   3.574   6.024   3.134
 7787TIP3   OH223313   3.808   6.165   4.414
 7787TIP3    H123314   3.728   6.220   4.411
 7787TIP3    H223315   3.859   6.199   4.337
 7788TIP3   OH223316   3.638   5.895   3.023
 7788TIP3    H123317   3.614   5.901   2.929
 7788TIP3    H223318   3.736   5.894   3.017
 7789TIP3   OH223319   4.324   6.568   4.547
 7789TIP3    H123320   4.399   6.536   4.496
 7789TIP3    H223321   4.317   6.501   4.618
 7790TIP3   OH223322   4.458   6.222   2.691
 7790TIP3    H123323   4.439   6.177   2.606
 7790TIP3    H223324   4.423   6.312   2.669
 7791TIP3   OH223325   3.931   5.953   4.536
 7791TIP3    H123326   3.930   5.874   4.479
 7791TIP3    H223327   3.886   6.020   4.479
 7792TIP3   OH223328   3.932   5.739   4.347
 7792TIP3    H123329   3.960   5.780   4.262
 7792TIP3    H223330   3.839   5.716   4.328
 7793TIP3   OH223331   3.956   6.272   4.220
 7793TIP3    H123332   4.041   6.286   4.178
 7793TIP3    H223333   3.899   6.338   4.174
 7794TIP3   OH223334   4.536   6.239   4.598
 7794TIP3    H123335   4.585   6.157   4.611
 7794TIP3    H223336   4.604   6.298   4.561
 7795TIP3   OH223337   4.580   6.494   4.338
 7795TIP3    H123338   4.522   6.546   4.278
 7795TIP3    H223339   4.668   6.516   4.298
 7796TIP3   OH223340   3.810   6.059   4.772
 7796TIP3    H123341   3.742   5.990   4.787
 7796TIP3    H223342   3.841   6.035   4.682
 7797TIP3   OH223343   4.064   5.500   4.415
 7797TIP3    H123344   4.013   5.581   4.392
 7797TIP3    H223345   3.996   5.430   4.404
 7798TIP3   OH223346   4.190   6.002   4.630
 7798TIP3    H123347   4.173   5.986   4.725
 7798TIP3    H223348   4.102   5.980   4.595
 7799TIP3   OH223349   4.428   5.954   4.486
 7799TIP3    H123350   4.353   5.956   4.548
 7799TIP3    H223351   4.501   5.922   4.542
 7800TIP3   OH223352   4.668   5.897   4.633
 7800TIP3    H123353   4.674   5.801   4.650
 7800TIP3    H223354   4.656   5.934   4.723
 7801TIP3   OH223355   3.648   5.840   4.824
 7801TIP3    H123356   3.650   5.748   4.792
 7801TIP3    H223357   3.685   5.828   4.914
 7802TIP3   OH223358   4.158   5.511   4.673
 7802TIP3    H123359   4.223   5.438   4.666
 7802TIP3    H223360   4.117   5.507   4.584
 7803TIP3   OH223361   4.226   5.727   4.829
 7803TIP3    H123362   4.205   5.655   4.766
 7803TIP3    H223363   4.146   5.783   4.824
 7804TIP3   OH223364   3.448   6.959   2.934
 7804TIP3    H123365   3.542   6.948   2.911
 7804TIP3    H223366   3.417   7.007   2.855
 7805TIP3   OH223367   2.926   6.337   3.145
 7805TIP3    H123368   3.021   6.356   3.130
 7805TIP3    H223369   2.918   6.248   3.105
 7806TIP3   OH223370   2.845   6.950   3.558
 7806TIP3    H123371   2.777   6.890   3.521
 7806TIP3    H223372   2.887   6.890   3.624
 7807TIP3   OH223373   2.977   6.796   3.747
 7807TIP3    H123374   2.959   6.726   3.812
 7807TIP3    H223375   3.028   6.858   3.802
 7808TIP3   OH223376   4.707   7.198   3.549
 7808TIP3    H123377   4.729   7.225   3.640
 7808TIP3    H223378   4.770   7.248   3.495
 7809TIP3   OH223379   4.745   7.209   3.826
 7809TIP3    H123380   4.689   7.129   3.825
 7809TIP3    H223381   4.809   7.184   3.894
 7810TIP3   OH223382   4.771   6.887   4.399
 7810TIP3    H123383   4.702   6.896   4.468
 7810TIP3    H223384   4.817   6.973   4.406
 7811TIP3   OH223385   4.595   6.408   3.022
 7811TIP3    H123386   4.662   6.473   2.991
 7811TIP3    H223387   4.640   6.371   3.101
 7812TIP3   OH223388   4.723   6.276   3.227
 7812TIP3    H123389   4.656   6.234   3.284
 7812TIP3    H223390   4.787   6.312   3.291
 7813TIP3   OH223391   4.781   6.671   3.659
 7813TIP3    H123392   4.830   6.602   3.611
 7813TIP3    H223393   4.774   6.742   3.592
 7814TIP3   OH223394   4.589   6.974   3.855
 7814TIP3    H123395   4.505   7.014   3.882
 7814TIP3    H223396   4.559   6.922   3.777
 7815TIP3   OH223397   4.661   6.185   2.871
 7815TIP3    H123398   4.589   6.185   2.803
 7815TIP3    H223399   4.630   6.260   2.927
 7816TIP3   OH223400   4.531   5.858   2.825
 7816TIP3    H123401   4.487   5.890   2.746
 7816TIP3    H223402   4.509   5.762   2.820
 7817TIP3   OH223403   4.536   6.135   3.371
 7817TIP3    H123404   4.541   6.038   3.361
 7817TIP3    H223405   4.521   6.145   3.467
 7818TIP3   OH223406   3.161   6.204   4.121
 7818TIP3    H123407   3.158   6.172   4.028
 7818TIP3    H223408   3.258   6.206   4.136
 7819TIP3   OH223409   4.823   6.561   4.229
 7819TIP3    H123410   4.895   6.494   4.218
 7819TIP3    H223411   4.849   6.629   4.165
 7820TIP3   OH223412   5.005   6.363   4.241
 7820TIP3    H123413   4.930   6.313   4.280
 7820TIP3    H223414   5.078   6.299   4.253
 7821TIP3   OH223415   4.473   5.593   2.812
 7821TIP3    H123416   4.544   5.557   2.868
 7821TIP3    H223417   4.398   5.533   2.829
 7822TIP3   OH223418   4.534   5.851   3.265
 7822TIP3    H123419   4.573   5.762   3.280
 7822TIP3    H223420   4.592   5.882   3.192
 7823TIP3   OH223421   4.694   6.018   3.763
 7823TIP3    H123422   4.779   6.044   3.721
 7823TIP3    H223423   4.707   6.059   3.851
 7824TIP3   OH223424   4.766   6.167   3.991
 7824TIP3    H123425   4.688   6.200   4.040
 7824TIP3    H223426   4.798   6.249   3.947
 7825TIP3   OH223427   3.382   5.893   4.797
 7825TIP3    H123428   3.480   5.886   4.798
 7825TIP3    H223429   3.357   5.806   4.833
 7826TIP3   OH223430   5.269   5.789   4.530
 7826TIP3    H123431   5.284   5.697   4.501
 7826TIP3    H223432   5.196   5.818   4.471
 7827TIP3   OH223433   4.641   5.601   3.304
 7827TIP3    H123434   4.688   5.583   3.388
 7827TIP3    H223435   4.579   5.524   3.302
 7828TIP3   OH223436   3.341   5.586   4.124
 7828TIP3    H123437   3.402   5.509   4.132
 7828TIP3    H223438   3.404   5.659   4.115
 7829TIP3   OH223439   3.142   5.858   4.196
 7829TIP3    H123440   3.192   5.854   4.111
 7829TIP3    H223441   3.169   5.943   4.230
 7830TIP3   OH223442   5.081   5.887   4.363
 7830TIP3    H123443   5.002   5.940   4.387
 7830TIP3    H223444   5.039   5.826   4.298
 7831TIP3   OH223445   4.722   5.530   2.940
 7831TIP3    H123446   4.758   5.461   2.881
 7831TIP3    H223447   4.788   5.601   2.932
 7832TIP3   OH223448   3.129   5.364   3.699
 7832TIP3    H123449   3.035   5.357   3.726
 7832TIP3    H223450   3.123   5.422   3.620
 7833TIP3   OH223451   4.283   7.070   3.200
 7833TIP3    H123452   4.340   7.060   3.121
 7833TIP3    H223453   4.336   7.130   3.255
 7834TIP3   OH223454   3.349   5.443   4.512
 7834TIP3    H123455   3.297   5.437   4.593
 7834TIP3    H223456   3.283   5.480   4.450
 7835TIP3   OH223457   3.389   6.866   4.610
 7835TIP3    H123458   3.301   6.846   4.573
 7835TIP3    H223459   3.375   6.846   4.704
 7836TIP3   OH223460   3.572   6.910   4.143
 7836TIP3    H123461   3.520   6.982   4.102
 7836TIP3    H223462   3.656   6.924   4.095
 7837TIP3   OH223463   4.028   7.160   4.263
 7837TIP3    H123464   4.052   7.151   4.357
 7837TIP3    H223465   4.113   7.185   4.225
 7838TIP3   OH223466   4.981   5.658   4.230
 7838TIP3    H123467   4.890   5.650   4.196
 7838TIP3    H223468   5.012   5.565   4.222
 7839TIP3   OH223469   3.241   7.161   4.161
 7839TIP3    H123470   3.151   7.190   4.137
 7839TIP3    H223471   3.251   7.205   4.247
 7840TIP3   OH223472   3.478   7.140   4.020
 7840TIP3    H123473   3.390   7.151   4.063
 7840TIP3    H223474   3.458   7.169   3.929
 7841TIP3   OH223475   3.897   7.168   3.815
 7841TIP3    H123476   3.827   7.188   3.751
 7841TIP3    H223477   3.912   7.255   3.858
 7842TIP3   OH223478   4.171   7.093   3.864
 7842TIP3    H123479   4.087   7.133   3.837
 7842TIP3    H223480   4.235   7.165   3.844
 7843TIP3   OH223481   4.346   7.289   3.761
 7843TIP3    H123482   4.368   7.381   3.737
 7843TIP3    H223483   4.398   7.237   3.697
 7844TIP3   OH223484   3.155   6.954   3.903
 7844TIP3    H123485   3.179   6.926   3.993
 7844TIP3    H223486   3.226   6.908   3.852
 7845TIP3   OH223487   3.349   6.824   3.764
 7845TIP3    H123488   3.363   6.741   3.815
 7845TIP3    H223489   3.440   6.859   3.759
 7846TIP3   OH223490   3.616   6.919   3.767
 7846TIP3    H123491   3.646   6.827   3.755
 7846TIP3    H223492   3.664   6.941   3.850
 7847TIP3   OH223493   4.191   5.576   3.858
 7847TIP3    H123494   4.146   5.505   3.906
 7847TIP3    H223495   4.262   5.527   3.810
 7848TIP3   OH223496   4.710   5.464   3.759
 7848TIP3    H123497   4.744   5.511   3.679
 7848TIP3    H223498   4.613   5.474   3.748
 7849TIP3   OH223499   4.806   5.554   3.520
 7849TIP3    H123500   4.880   5.503   3.480
 7849TIP3    H223501   4.838   5.646   3.505
 7850TIP3   OH223502   3.436   5.284   3.867
 7850TIP3    H123503   3.343   5.251   3.871
 7850TIP3    H223504   3.484   5.198   3.863
 7851TIP3   OH223505   3.222   5.156   3.518
 7851TIP3    H123506   3.255   5.210   3.444
 7851TIP3    H223507   3.200   5.223   3.585
 7852TIP3   OH223508   3.883   5.315   3.750
 7852TIP3    H123509   3.940   5.362   3.686
 7852TIP3    H223510   3.909   5.356   3.833
 7853TIP3   OH223511   4.428   5.463   3.730
 7853TIP3    H123512   4.426   5.421   3.643
 7853TIP3    H223513   4.417   5.385   3.790
 7854TIP3   OH223514   4.458   5.388   3.297
 7854TIP3    H123515   4.371   5.429   3.309
 7854TIP3    H223516   4.444   5.301   3.341
 7855TIP3   OH223517   2.943   6.728   3.290
 7855TIP3    H123518   2.856   6.694   3.261
 7855TIP3    H223519   2.932   6.822   3.267
 7856TIP3   OH223520   3.343   5.312   3.278
 7856TIP3    H123521   3.390   5.248   3.221
 7856TIP3    H223522   3.418   5.365   3.313
 7857TIP3   OH223523   3.852   5.491   3.377
 7857TIP3    H123524   3.911   5.441   3.436
 7857TIP3    H223525   3.877   5.582   3.403
 7858TIP3   OH223526   3.713   6.912   2.874
 7858TIP3    H123527   3.803   6.931   2.840
 7858TIP3    H223528   3.690   6.837   2.815
 7859TIP3   OH223529   4.435   7.033   2.972
 7859TIP3    H123530   4.427   6.935   2.963
 7859TIP3    H223531   4.388   7.062   2.891
 7860TIP3   OH223532   3.645   5.567   4.761
 7860TIP3    H123533   3.608   5.496   4.815
 7860TIP3    H223534   3.739   5.565   4.789
 7861TIP3   OH223535   3.896   5.562   4.879
 7861TIP3    H123536   3.980   5.534   4.840
 7861TIP3    H223537   3.881   5.492   4.946
 7862TIP3   OH223538   3.019   6.755   2.932
 7862TIP3    H123539   3.013   6.768   3.028
 7862TIP3    H223540   3.106   6.710   2.922
 7863TIP3   OH223541   4.721   5.624   4.667
 7863TIP3    H123542   4.735   5.593   4.759
 7863TIP3    H223543   4.810   5.609   4.628
 7864TIP3   OH223544   4.663   7.183   4.165
 7864TIP3    H123545   4.593   7.123   4.136
 7864TIP3    H223546   4.613   7.268   4.159
 7865TIP3   OH223547   5.926   6.549   2.922
 7865TIP3    H123548   5.896   6.640   2.902
 7865TIP3    H223549   5.850   6.498   2.889
 7866TIP3   OH223550   5.926   6.549   3.308
 7866TIP3    H123551   5.959   6.526   3.397
 7866TIP3    H223552   5.884   6.467   3.280
 7867TIP3   OH223553   5.222   6.444   3.669
 7867TIP3    H123554   5.251   6.374   3.731
 7867TIP3    H223555   5.302   6.498   3.664
 7868TIP3   OH223556   6.170   6.853   2.989
 7868TIP3    H123557   6.152   6.784   3.054
 7868TIP3    H223558   6.200   6.927   3.045
 7869TIP3   OH223559   5.195   6.855   3.392
 7869TIP3    H123560   5.187   6.757   3.393
 7869TIP3    H223561   5.292   6.864   3.389
 7870TIP3   OH223562   4.902   6.055   3.176
 7870TIP3    H123563   4.853   6.137   3.194
 7870TIP3    H223564   4.832   6.002   3.134
 7871TIP3   OH223565   4.959   6.343   3.356
 7871TIP3    H123566   5.008   6.264   3.388
 7871TIP3    H223567   5.018   6.376   3.286
 7872TIP3   OH223568   5.822   7.316   3.007
 7872TIP3    H123569   5.863   7.244   2.955
 7872TIP3    H223570   5.810   7.274   3.093
 7873TIP3   OH223571   5.722   6.777   3.354
 7873TIP3    H123572   5.763   6.699   3.312
 7873TIP3    H223573   5.805   6.823   3.380
 7874TIP3   OH223574   6.737   6.095   3.353
 7874TIP3    H123575   6.768   6.178   3.396
 7874TIP3    H223576   6.755   6.114   3.260
 7875TIP3   OH223577   6.134   6.274   3.384
 7875TIP3    H123578   6.177   6.189   3.405
 7875TIP3    H223579   6.103   6.257   3.293
 7876TIP3   OH223580   5.477   5.935   3.349
 7876TIP3    H123581   5.456   6.007   3.287
 7876TIP3    H223582   5.429   5.861   3.305
 7877TIP3   OH223583   6.170   6.029   2.970
 7877TIP3    H123584   6.241   6.012   3.037
 7877TIP3    H223585   6.225   6.062   2.896
 7878TIP3   OH223586   5.106   6.135   3.458
 7878TIP3    H123587   5.189   6.118   3.505
 7878TIP3    H223588   5.121   6.080   3.378
 7879TIP3   OH223589   5.547   6.334   3.253
 7879TIP3    H123590   5.641   6.309   3.264
 7879TIP3    H223591   5.509   6.250   3.220
 7880TIP3   OH223592   6.811   6.304   3.522
 7880TIP3    H123593   6.726   6.349   3.504
 7880TIP3    H223594   6.829   6.335   3.612
 7881TIP3   OH223595   5.467   5.924   3.788
 7881TIP3    H123596   5.410   5.958   3.716
 7881TIP3    H223597   5.415   5.952   3.867
 7882TIP3   OH223598   5.813   6.769   2.792
 7882TIP3    H123599   5.772   6.754   2.706
 7882TIP3    H223600   5.769   6.852   2.820
 7883TIP3   OH223601   5.576   6.696   3.577
 7883TIP3    H123602   5.516   6.764   3.615
 7883TIP3    H223603   5.618   6.745   3.504
 7884TIP3   OH223604   6.376   6.031   3.148
 7884TIP3    H123605   6.358   5.988   3.233
 7884TIP3    H223606   6.427   6.109   3.175
 7885TIP3   OH223607   5.342   6.032   3.568
 7885TIP3    H123608   5.402   6.106   3.592
 7885TIP3    H223609   5.391   5.994   3.492
 7886TIP3   OH223610   5.404   6.891   3.677
 7886TIP3    H123611   5.378   6.979   3.642
 7886TIP3    H223612   5.325   6.874   3.733
 7887TIP3   OH223613   4.797   6.579   2.913
 7887TIP3    H123614   4.756   6.608   2.829
 7887TIP3    H223615   4.830   6.664   2.949
 7888TIP3   OH223616   6.237   7.096   3.153
 7888TIP3    H123617   6.147   7.086   3.193
 7888TIP3    H223618   6.228   7.183   3.109
 7889TIP3   OH223619   6.530   5.992   3.517
 7889TIP3    H123620   6.443   6.020   3.485
 7889TIP3    H223621   6.590   6.026   3.448
 7890TIP3   OH223622   5.824   5.635   3.500
 7890TIP3    H123623   5.808   5.540   3.516
 7890TIP3    H223624   5.747   5.674   3.547
 7891TIP3   OH223625   5.935   7.141   2.825
 7891TIP3    H123626   5.985   7.057   2.808
 7891TIP3    H223627   5.998   7.205   2.785
 7892TIP3   OH223628   6.081   6.926   2.739
 7892TIP3    H123629   6.046   6.846   2.698
 7892TIP3    H223630   6.119   6.891   2.822
 7893TIP3   OH223631   6.463   7.006   3.497
 7893TIP3    H123632   6.450   6.928   3.438
 7893TIP3    H223633   6.445   7.080   3.436
 7894TIP3   OH223634   5.756   6.400   2.756
 7894TIP3    H123635   5.676   6.454   2.736
 7894TIP3    H223636   5.801   6.397   2.670
 7895TIP3   OH223637   5.713   6.188   2.467
 7895TIP3    H123638   5.779   6.240   2.516
 7895TIP3    H223639   5.772   6.124   2.420
 7896TIP3   OH223640   6.659   6.646   3.343
 7896TIP3    H123641   6.574   6.696   3.348
 7896TIP3    H223642   6.688   6.671   3.252
 7897TIP3   OH223643   6.104   6.484   2.724
 7897TIP3    H123644   6.049   6.506   2.803
 7897TIP3    H223645   6.189   6.460   2.767
 7898TIP3   OH223646   6.337   6.521   3.642
 7898TIP3    H123647   6.335   6.603   3.695
 7898TIP3    H223648   6.251   6.527   3.597
 7899TIP3   OH223649   5.336   6.480   3.144
 7899TIP3    H123650   5.294   6.422   3.077
 7899TIP3    H223651   5.412   6.426   3.175
 7900TIP3   OH223652   5.467   6.894   3.291
 7900TIP3    H123653   5.446   6.855   3.205
 7900TIP3    H223654   5.556   6.857   3.309
 7901TIP3   OH223655   5.471   6.452   3.498
 7901TIP3    H123656   5.505   6.428   3.409
 7901TIP3    H223657   5.516   6.537   3.516
 7902TIP3   OH223658   5.997   7.089   3.275
 7902TIP3    H123659   5.985   7.169   3.329
 7902TIP3    H223660   5.980   7.017   3.338
 7903TIP3   OH223661   5.611   7.011   3.817
 7903TIP3    H123662   5.549   7.071   3.866
 7903TIP3    H223663   5.546   6.956   3.769
 7904TIP3   OH223664   5.941   6.343   2.552
 7904TIP3    H123665   6.001   6.403   2.602
 7904TIP3    H223666   5.968   6.363   2.459
 7905TIP3   OH223667   5.366   6.560   3.926
 7905TIP3    H123668   5.372   6.649   3.967
 7905TIP3    H223669   5.271   6.541   3.942
 7906TIP3   OH223670   5.689   7.018   2.828
 7906TIP3    H123671   5.771   7.069   2.837
 7906TIP3    H223672   5.628   7.081   2.788
 7907TIP3   OH223673   5.401   7.173   3.910
 7907TIP3    H123674   5.367   7.174   3.818
 7907TIP3    H223675   5.320   7.156   3.962
 7908TIP3   OH223676   6.460   5.581   2.602
 7908TIP3    H123677   6.378   5.603   2.650
 7908TIP3    H223678   6.475   5.663   2.551
 7909TIP3   OH223679   5.202   6.323   2.948
 7909TIP3    H123680   5.133   6.367   2.893
 7909TIP3    H223681   5.165   6.235   2.959
 7910TIP3   OH223682   6.258   6.946   2.152
 7910TIP3    H123683   6.269   7.043   2.141
 7910TIP3    H223684   6.351   6.916   2.140
 7911TIP3   OH223685   4.982   6.709   3.855
 7911TIP3    H123686   4.915   6.688   3.787
 7911TIP3    H223687   5.020   6.621   3.876
 7912TIP3   OH223688   4.836   6.902   3.485
 7912TIP3    H123689   4.932   6.897   3.480
 7912TIP3    H223690   4.823   6.980   3.540
 7913TIP3   OH223691   6.684   7.329   3.546
 7913TIP3    H123692   6.685   7.233   3.569
 7913TIP3    H223693   6.602   7.358   3.591
 7914TIP3   OH223694   5.805   7.139   3.677
 7914TIP3    H123695   5.802   7.231   3.712
 7914TIP3    H223696   5.734   7.097   3.730
 7915TIP3   OH223697   5.571   7.266   2.630
 7915TIP3    H123698   5.522   7.249   2.548
 7915TIP3    H223699   5.535   7.352   2.659
 7916TIP3   OH223700   5.007   7.114   3.017
 7916TIP3    H123701   5.053   7.106   3.104
 7916TIP3    H223702   4.957   7.031   3.016
 7917TIP3   OH223703   5.768   7.169   2.268
 7917TIP3    H123704   5.827   7.098   2.232
 7917TIP3    H223705   5.803   7.177   2.360
 7918TIP3   OH223706   5.820   7.213   2.539
 7918TIP3    H123707   5.732   7.224   2.581
 7918TIP3    H223708   5.871   7.173   2.611
 7919TIP3   OH223709   6.592   6.481   3.820
 7919TIP3    H123710   6.507   6.492   3.775
 7919TIP3    H223711   6.607   6.385   3.810
 7920TIP3   OH223712   5.187   6.892   3.843
 7920TIP3    H123713   5.236   6.872   3.925
 7920TIP3    H223714   5.111   6.829   3.850
 7921TIP3   OH223715   5.587   5.711   3.631
 7921TIP3    H123716   5.499   5.681   3.600
 7921TIP3    H223717   5.562   5.795   3.674
 7922TIP3   OH223718   6.123   5.826   3.823
 7922TIP3    H123719   6.193   5.800   3.887
 7922TIP3    H223720   6.040   5.808   3.872
 7923TIP3   OH223721   6.357   6.258   3.742
 7923TIP3    H123722   6.306   6.254   3.826
 7923TIP3    H223723   6.334   6.347   3.707
 7924TIP3   OH223724   6.019   6.386   2.297
 7924TIP3    H123725   5.984   6.362   2.209
 7924TIP3    H223726   6.103   6.428   2.273
 7925TIP3   OH223727   5.731   5.760   2.601
 7925TIP3    H123728   5.695   5.756   2.692
 7925TIP3    H223729   5.691   5.679   2.564
 7926TIP3   OH223730   5.517   6.229   3.645
 7926TIP3    H123731   5.471   6.254   3.728
 7926TIP3    H223732   5.504   6.311   3.592
 7927TIP3   OH223733   5.402   6.115   3.162
 7927TIP3    H123734   5.309   6.089   3.180
 7927TIP3    H223735   5.414   6.074   3.073
 7928TIP3   OH223736   5.894   6.201   2.891
 7928TIP3    H123737   5.843   6.272   2.846
 7928TIP3    H223738   5.948   6.166   2.817
 7929TIP3   OH223739   6.065   6.476   3.973
 7929TIP3    H123740   6.044   6.406   4.037
 7929TIP3    H223741   6.156   6.498   3.999
 7930TIP3   OH223742   6.048   6.227   3.127
 7930TIP3    H123743   5.986   6.256   3.057
 7930TIP3    H223744   6.084   6.148   3.082
 7931TIP3   OH223745   5.338   6.264   3.856
 7931TIP3    H123746   5.373   6.334   3.913
 7931TIP3    H223747   5.326   6.190   3.918
 7932TIP3   OH223748   5.388   5.737   2.565
 7932TIP3    H123749   5.376   5.735   2.662
 7932TIP3    H223750   5.310   5.789   2.539
 7933TIP3   OH223751   4.930   5.778   3.440
 7933TIP3    H123752   5.007   5.811   3.489
 7933TIP3    H223753   4.966   5.749   3.355
 7934TIP3   OH223754   4.900   5.760   2.957
 7934TIP3    H123755   4.945   5.796   2.877
 7934TIP3    H223756   4.837   5.833   2.974
 7935TIP3   OH223757   6.059   6.473   3.549
 7935TIP3    H123758   6.092   6.402   3.490
 7935TIP3    H223759   6.028   6.419   3.625
 7936TIP3   OH223760   5.733   5.936   3.221
 7936TIP3    H123761   5.651   5.936   3.274
 7936TIP3    H223762   5.802   5.934   3.290
 7937TIP3   OH223763   5.163   5.994   3.230
 7937TIP3    H123764   5.069   6.003   3.201
 7937TIP3    H223765   5.184   5.902   3.206
 7938TIP3   OH223766   5.430   5.988   2.920
 7938TIP3    H123767   5.523   6.003   2.896
 7938TIP3    H223768   5.381   6.010   2.837
 7939TIP3   OH223769   6.223   6.012   3.422
 7939TIP3    H123770   6.192   6.026   3.515
 7939TIP3    H223771   6.153   5.953   3.389
 7940TIP3   OH223772   5.279   6.025   2.698
 7940TIP3    H123773   5.207   5.978   2.651
 7940TIP3    H223774   5.329   6.060   2.622
 7941TIP3   OH223775   6.389   7.699   3.645
 7941TIP3    H123776   6.390   7.727   3.551
 7941TIP3    H223777   6.471   7.741   3.677
 7942TIP3   OH223778   5.348   6.813   4.063
 7942TIP3    H123779   5.429   6.841   4.110
 7942TIP3    H223780   5.286   6.808   4.139
 7943TIP3   OH223781   5.811   6.266   3.318
 7943TIP3    H123782   5.887   6.230   3.268
 7943TIP3    H223783   5.821   6.223   3.404
 7944TIP3   OH223784   5.335   5.752   3.201
 7944TIP3    H123785   5.297   5.675   3.249
 7944TIP3    H223786   5.376   5.709   3.125
 7945TIP3   OH223787   5.789   6.164   3.617
 7945TIP3    H123788   5.700   6.204   3.624
 7945TIP3    H223789   5.847   6.229   3.660
 7946TIP3   OH223790   5.525   6.553   2.703
 7946TIP3    H123791   5.453   6.486   2.692
 7946TIP3    H223792   5.505   6.587   2.794
 7947TIP3   OH223793   6.425   6.789   3.331
 7947TIP3    H123794   6.448   6.841   3.251
 7947TIP3    H223795   6.341   6.746   3.305
 7948TIP3   OH223796   5.983   5.862   2.572
 7948TIP3    H123797   5.886   5.843   2.579
 7948TIP3    H223798   5.989   5.957   2.595
 7949TIP3   OH223799   5.928   6.871   3.700
 7949TIP3    H123800   5.949   6.841   3.789
 7949TIP3    H223801   5.886   6.958   3.716
 7950TIP3   OH223802   6.051   6.114   2.673
 7950TIP3    H123803   6.147   6.120   2.688
 7950TIP3    H223804   6.033   6.195   2.621
 7951TIP3   OH223805   5.219   6.578   3.378
 7951TIP3    H123806   5.257   6.547   3.293
 7951TIP3    H223807   5.262   6.518   3.441
 7952TIP3   OH223808   5.669   6.701   2.525
 7952TIP3    H123809   5.621   6.787   2.529
 7952TIP3    H223810   5.616   6.647   2.587
 7953TIP3   OH223811   5.100   6.496   3.994
 7953TIP3    H123812   5.121   6.481   4.088
 7953TIP3    H223813   5.030   6.431   3.979
 7954TIP3   OH223814   5.823   6.633   3.976
 7954TIP3    H123815   5.770   6.554   3.961
 7954TIP3    H223816   5.912   6.595   3.989
 7955TIP3   OH223817   6.083   7.135   3.595
 7955TIP3    H123818   5.987   7.130   3.611
 7955TIP3    H223819   6.112   7.185   3.675
 7956TIP3   OH223820   6.493   6.207   2.507
 7956TIP3    H123821   6.431   6.163   2.444
 7956TIP3    H223822   6.490   6.297   2.467
 7957TIP3   OH223823   6.711   7.054   3.588
 7957TIP3    H123824   6.614   7.049   3.578
 7957TIP3    H223825   6.738   7.027   3.497
 7958TIP3   OH223826   6.189   7.017   2.415
 7958TIP3    H123827   6.170   6.945   2.476
 7958TIP3    H223828   6.208   6.972   2.331
 7959TIP3   OH223829   6.191   6.653   3.248
 7959TIP3    H123830   6.098   6.629   3.262
 7959TIP3    H223831   6.224   6.571   3.204
 7960TIP3   OH223832   5.320   6.881   3.004
 7960TIP3    H123833   5.315   6.961   2.949
 7960TIP3    H223834   5.227   6.861   3.019
 7961TIP3   OH223835   4.885   6.183   2.712
 7961TIP3    H123836   4.928   6.268   2.733
 7961TIP3    H223837   4.807   6.186   2.772
 7962TIP3   OH223838   5.453   6.643   2.946
 7962TIP3    H123839   5.419   6.733   2.966
 7962TIP3    H223840   5.419   6.592   3.022
 7963TIP3   OH223841   5.590   7.223   3.473
 7963TIP3    H123842   5.634   7.295   3.424
 7963TIP3    H223843   5.665   7.184   3.521
 7964TIP3   OH223844   5.236   7.120   2.855
 7964TIP3    H123845   5.151   7.128   2.904
 7964TIP3    H223846   5.268   7.213   2.859
 7965TIP3   OH223847   5.974   6.857   3.433
 7965TIP3    H123848   5.962   6.856   3.531
 7965TIP3    H223849   6.054   6.804   3.424
 7966TIP3   OH223850   5.954   6.752   2.317
 7966TIP3    H123851   6.008   6.727   2.395
 7966TIP3    H223852   5.866   6.722   2.345
 7967TIP3   OH223853   6.223   7.388   3.482
 7967TIP3    H123854   6.144   7.331   3.478
 7967TIP3    H223855   6.205   7.452   3.410
 7968TIP3   OH223856   6.297   7.220   2.139
 7968TIP3    H123857   6.332   7.264   2.060
 7968TIP3    H223858   6.220   7.276   2.159
 7969TIP3   OH223859   5.293   5.989   4.007
 7969TIP3    H123860   5.203   6.027   4.017
 7969TIP3    H223861   5.272   5.895   4.017
 7970TIP3   OH223862   6.114   6.685   2.531
 7970TIP3    H123863   6.103   6.619   2.602
 7970TIP3    H223864   6.212   6.680   2.519
 7971TIP3   OH223865   5.030   7.081   3.628
 7971TIP3    H123866   5.084   7.008   3.661
 7971TIP3    H223867   5.047   7.149   3.694
 7972TIP3   OH223868   5.315   6.730   2.316
 7972TIP3    H123869   5.330   6.638   2.290
 7972TIP3    H223870   5.295   6.721   2.411
 7973TIP3   OH223871   5.260   6.736   2.587
 7973TIP3    H123872   5.334   6.707   2.643
 7973TIP3    H223873   5.266   6.834   2.597
 7974TIP3   OH223874   4.996   6.428   2.792
 7974TIP3    H123875   4.928   6.472   2.848
 7974TIP3    H223876   5.008   6.497   2.724
 7975TIP3   OH223877   6.153   6.061   3.681
 7975TIP3    H123878   6.228   6.105   3.724
 7975TIP3    H223879   6.139   5.982   3.737
 7976TIP3   OH223880   6.029   5.813   2.853
 7976TIP3    H123881   6.015   5.834   2.758
 7976TIP3    H223882   6.068   5.897   2.887
 7977TIP3   OH223883   5.528   6.932   2.534
 7977TIP3    H123884   5.442   6.956   2.573
 7977TIP3    H223885   5.543   7.007   2.476
 7978TIP3   OH223886   5.715   5.998   2.952
 7978TIP3    H123887   5.778   6.071   2.935
 7978TIP3    H223888   5.720   5.989   3.049
 7979TIP3   OH223889   5.988   6.315   3.758
 7979TIP3    H123890   6.009   6.372   3.835
 7979TIP3    H223891   6.041   6.236   3.775
 7980TIP3   OH223892   5.857   5.718   3.051
 7980TIP3    H123893   5.849   5.797   3.108
 7980TIP3    H223894   5.920   5.752   2.983
 7981TIP3   OH223895   5.275   7.009   2.606
 7981TIP3    H123896   5.243   7.079   2.545
 7981TIP3    H223897   5.258   7.050   2.693
 7982TIP3   OH223898   5.372   5.723   2.842
 7982TIP3    H123899   5.370   5.814   2.880
 7982TIP3    H223900   5.468   5.705   2.849
 7983TIP3   OH223901   6.624   6.214   3.740
 7983TIP3    H123902   6.525   6.213   3.747
 7983TIP3    H223903   6.635   6.172   3.654
 7984TIP3   OH223904   6.276   6.408   3.127
 7984TIP3    H123905   6.200   6.349   3.140
 7984TIP3    H223906   6.348   6.361   3.176
 7985TIP3   OH223907   4.991   6.634   2.595
 7985TIP3    H123908   5.062   6.700   2.605
 7985TIP3    H223909   5.034   6.576   2.529
 7986TIP3   OH223910   4.932   5.912   2.731
 7986TIP3    H123911   4.930   6.010   2.729
 7986TIP3    H223912   4.854   5.889   2.680
 7987TIP3   OH223913   6.254   7.369   3.076
 7987TIP3    H123914   6.209   7.416   3.002
 7987TIP3    H223915   6.347   7.382   3.050
 7988TIP3   OH223916   5.322   5.633   3.601
 7988TIP3    H123917   5.292   5.601   3.514
 7988TIP3    H223918   5.311   5.554   3.657
 7989TIP3   OH223919   4.858   6.853   2.979
 7989TIP3    H123920   4.796   6.881   3.047
 7989TIP3    H223921   4.821   6.895   2.898
 7990TIP3   OH223922   5.488   7.381   4.076
 7990TIP3    H123923   5.578   7.357   4.101
 7990TIP3    H223924   5.464   7.306   4.017
 7991TIP3   OH223925   5.479   6.932   2.225
 7991TIP3    H123926   5.422   6.861   2.264
 7991TIP3    H223927   5.556   6.879   2.198
 7992TIP3   OH223928   6.137   7.265   3.833
 7992TIP3    H123929   6.129   7.195   3.902
 7992TIP3    H223930   6.215   7.315   3.865
 7993TIP3   OH223931   5.913   6.972   2.141
 7993TIP3    H123932   5.956   6.909   2.202
 7993TIP3    H223933   5.972   6.968   2.063
 7994TIP3   OH223934   5.147   6.805   4.256
 7994TIP3    H123935   5.161   6.710   4.273
 7994TIP3    H223936   5.061   6.803   4.208
 7995TIP3   OH223937   5.126   6.450   2.451
 7995TIP3    H123938   5.182   6.417   2.524
 7995TIP3    H223939   5.193   6.454   2.380
 7996TIP3   OH223940   5.753   6.896   4.031
 7996TIP3    H123941   5.714   6.912   3.943
 7996TIP3    H223942   5.786   6.804   4.022
 7997TIP3   OH223943   5.637   6.651   2.256
 7997TIP3    H123944   5.640   6.662   2.353
 7997TIP3    H223945   5.639   6.553   2.249
 7998TIP3   OH223946   6.248   6.896   3.636
 7998TIP3    H123947   6.323   6.940   3.593
 7998TIP3    H223948   6.176   6.961   3.622
 7999TIP3   OH223949   5.280   6.527   4.235
 7999TIP3    H123950   5.368   6.498   4.209
 7999TIP3    H223951   5.298   6.561   4.325
 8000TIP3   OH223952   5.332   6.356   2.670
 8000TIP3    H123953   5.304   6.315   2.753
 8000TIP3    H223954   5.370   6.280   2.621
 8001TIP3   OH223955   5.604   6.410   3.894
 8001TIP3    H123956   5.532   6.476   3.900
 8001TIP3    H223957   5.657   6.445   3.818
 8002TIP3   OH223958   5.435   6.151   2.510
 8002TIP3    H123959   5.410   6.158   2.416
 8002TIP3    H223960   5.533   6.151   2.504
 8003TIP3   OH223961   6.118   6.825   4.033
 8003TIP3    H123962   6.197   6.787   3.993
 8003TIP3    H223963   6.108   6.767   4.112
 8004TIP3   OH223964   6.251   6.478   2.178
 8004TIP3    H123965   6.233   6.434   2.093
 8004TIP3    H223966   6.218   6.569   2.157
 8005TIP3   OH223967   5.725   6.201   4.022
 8005TIP3    H123968   5.730   6.128   3.957
 8005TIP3    H223969   5.681   6.271   3.968
 8006TIP3   OH223970   5.729   5.991   3.831
 8006TIP3    H123971   5.758   6.038   3.751
 8006TIP3    H223972   5.634   5.973   3.811
 8007TIP3   OH223973   5.746   6.512   3.691
 8007TIP3    H123974   5.836   6.540   3.668
 8007TIP3    H223975   5.692   6.586   3.655
 8008TIP3   OH223976   6.338   6.484   4.080
 8008TIP3    H123977   6.395   6.407   4.094
 8008TIP3    H223978   6.401   6.550   4.050
 8009TIP3   OH223979   6.378   6.748   3.822
 8009TIP3    H123980   6.319   6.802   3.765
 8009TIP3    H223981   6.465   6.771   3.782
 8010TIP3   OH223982   5.549   6.324   4.209
 8010TIP3    H123983   5.527   6.237   4.238
 8010TIP3    H223984   5.629   6.308   4.157
 8011TIP3   OH223985   5.859   5.756   3.903
 8011TIP3    H123986   5.811   5.837   3.875
 8011TIP3    H223987   5.792   5.686   3.886
 8012TIP3   OH223988   5.989   6.256   4.118
 8012TIP3    H123989   5.983   6.267   4.214
 8012TIP3    H223990   5.897   6.232   4.095
 8013TIP3   OH223991   6.221   6.201   3.967
 8013TIP3    H123992   6.148   6.211   4.032
 8013TIP3    H223993   6.297   6.179   4.025
 8014TIP3   OH223994   6.452   6.152   4.119
 8014TIP3    H123995   6.467   6.057   4.137
 8014TIP3    H223996   6.449   6.191   4.210
 8015TIP3   OH223997   5.956   5.766   4.158
 8015TIP3    H123998   6.025   5.697   4.149
 8015TIP3    H223999   5.918   5.763   4.067
 8016TIP3   OH224000   6.008   5.984   4.323
 8016TIP3    H124001   5.997   5.914   4.255
 8016TIP3    H224002   5.932   6.042   4.306
 8017TIP3   OH224003   5.243   7.214   2.419
 8017TIP3    H124004   5.338   7.203   2.400
 8017TIP3    H224005   5.216   7.264   2.340
 8018TIP3   OH224006   4.721   6.594   2.630
 8018TIP3    H124007   4.816   6.613   2.616
 8018TIP3    H224008   4.714   6.504   2.591
 8019TIP3   OH224009   4.639   7.207   3.048
 8019TIP3    H124010   4.572   7.146   3.010
 8019TIP3    H224011   4.682   7.148   3.113
 8020TIP3   OH224012   4.772   7.053   3.235
 8020TIP3    H124013   4.758   6.982   3.301
 8020TIP3    H224014   4.823   7.116   3.289
 8021TIP3   OH224015   6.510   7.463   3.023
 8021TIP3    H124016   6.530   7.470   3.118
 8021TIP3    H224017   6.539   7.549   2.991
 8022TIP3   OH224018   6.524   7.472   3.305
 8022TIP3    H124019   6.484   7.382   3.313
 8022TIP3    H224020   6.601   7.461   3.362
 8023TIP3   OH224021   6.575   7.154   3.889
 8023TIP3    H124022   6.502   7.163   3.954
 8023TIP3    H224023   6.618   7.242   3.896
 8024TIP3   OH224024   6.392   6.666   2.508
 8024TIP3    H124025   6.458   6.730   2.476
 8024TIP3    H224026   6.438   6.629   2.587
 8025TIP3   OH224027   6.520   6.533   2.713
 8025TIP3    H124028   6.453   6.491   2.772
 8025TIP3    H224029   6.584   6.570   2.777
 8026TIP3   OH224030   6.576   6.928   3.143
 8026TIP3    H124031   6.627   6.860   3.095
 8026TIP3    H224032   6.571   7.001   3.078
 8027TIP3   OH224033   6.402   7.225   3.339
 8027TIP3    H124034   6.330   7.267   3.390
 8027TIP3    H224035   6.352   7.179   3.268
 8028TIP3   OH224036   6.456   6.441   2.359
 8028TIP3    H124037   6.384   6.443   2.291
 8028TIP3    H224038   6.428   6.517   2.413
 8029TIP3   OH224039   6.327   6.114   2.313
 8029TIP3    H124040   6.284   6.148   2.234
 8029TIP3    H224041   6.304   6.019   2.306
 8030TIP3   OH224042   6.331   6.392   2.858
 8030TIP3    H124043   6.339   6.295   2.849
 8030TIP3    H224044   6.317   6.403   2.954
 8031TIP3   OH224045   4.957   6.460   3.608
 8031TIP3    H124046   4.954   6.428   3.515
 8031TIP3    H224047   5.054   6.464   3.623
 8032TIP3   OH224048   6.623   6.815   3.717
 8032TIP3    H124049   6.694   6.747   3.706
 8032TIP3    H224050   6.651   6.884   3.655
 8033TIP3   OH224051   6.806   6.616   3.722
 8033TIP3    H124052   6.732   6.567   3.764
 8033TIP3    H224053   6.880   6.554   3.740
 8034TIP3   OH224054   6.270   5.848   2.297
 8034TIP3    H124055   6.342   5.815   2.353
 8034TIP3    H224056   6.196   5.788   2.316
 8035TIP3   OH224057   6.330   6.107   2.751
 8035TIP3    H124058   6.370   6.018   2.766
 8035TIP3    H224059   6.388   6.139   2.680
 8036TIP3   OH224060   6.489   6.276   3.249
 8036TIP3    H124061   6.574   6.300   3.207
 8036TIP3    H224062   6.503   6.315   3.337
 8037TIP3   OH224063   6.560   6.424   3.478
 8037TIP3    H124064   6.483   6.457   3.528
 8037TIP3    H224065   6.592   6.506   3.434
 8038TIP3   OH224066   5.165   6.143   4.272
 8038TIP3    H124067   5.254   6.170   4.298
 8038TIP3    H224068   5.151   6.059   4.320
 8039TIP3   OH224069   7.010   6.013   4.035
 8039TIP3    H124070   7.072   5.950   3.992
 8039TIP3    H224071   6.982   6.067   3.958
 8040TIP3   OH224072   6.437   5.857   2.790
 8040TIP3    H124073   6.485   5.841   2.874
 8040TIP3    H224074   6.376   5.781   2.789
 8041TIP3   OH224075   5.138   5.842   3.614
 8041TIP3    H124076   5.200   5.766   3.618
 8041TIP3    H224077   5.200   5.916   3.602
 8042TIP3   OH224078   4.941   6.114   3.686
 8042TIP3    H124079   4.989   6.110   3.600
 8042TIP3    H224080   4.964   6.202   3.716
 8043TIP3   OH224081   6.880   6.153   3.839
 8043TIP3    H124082   6.796   6.197   3.863
 8043TIP3    H224083   6.845   6.081   3.783
 8044TIP3   OH224084   6.517   5.788   2.425
 8044TIP3    H124085   6.555   5.718   2.368
 8044TIP3    H224086   6.584   5.858   2.420
 8045TIP3   OH224087   4.924   5.624   3.189
 8045TIP3    H124088   4.831   5.613   3.212
 8045TIP3    H224089   4.919   5.680   3.108
 8046TIP3   OH224090   6.079   7.329   2.690
 8046TIP3    H124091   6.128   7.312   2.607
 8046TIP3    H224092   6.141   7.382   2.741
 8047TIP3   OH224093   5.151   5.720   4.007
 8047TIP3    H124094   5.092   5.700   4.081
 8047TIP3    H224095   5.084   5.747   3.940
 8048TIP3   OH224096   5.177   7.142   4.077
 8048TIP3    H124097   5.082   7.124   4.059
 8048TIP3    H224098   5.192   7.089   4.156
 8049TIP3   OH224099   5.363   7.162   3.623
 8049TIP3    H124100   5.315   7.237   3.582
 8049TIP3    H224101   5.449   7.175   3.579
 8050TIP3   OH224102   5.802   7.407   3.762
 8050TIP3    H124103   5.846   7.403   3.850
 8050TIP3    H224104   5.869   7.457   3.710
 8051TIP3   OH224105   5.984   7.557   3.621
 8051TIP3    H124106   6.055   7.505   3.581
 8051TIP3    H224107   6.036   7.614   3.682
 8052TIP3   OH224108   6.781   5.917   3.720
 8052TIP3    H124109   6.691   5.908   3.684
 8052TIP3    H224110   6.814   5.824   3.710
 8053TIP3   OH224111   5.035   7.421   3.635
 8053TIP3    H124112   4.946   7.456   3.612
 8053TIP3    H224113   5.036   7.437   3.729
 8054TIP3   OH224114   5.276   7.396   3.505
 8054TIP3    H124115   5.188   7.409   3.547
 8054TIP3    H224116   5.257   7.426   3.414
 8055TIP3   OH224117   5.700   7.423   3.303
 8055TIP3    H124118   5.629   7.441   3.239
 8055TIP3    H224119   5.711   7.510   3.345
 8056TIP3   OH224120   5.969   7.361   3.355
 8056TIP3    H124121   5.875   7.379   3.335
 8056TIP3    H224122   6.013   7.437   3.314
 8057TIP3   OH224123   6.173   7.553   3.268
 8057TIP3    H124124   6.161   7.637   3.218
 8057TIP3    H224125   6.203   7.492   3.197
 8058TIP3   OH224126   4.951   7.210   3.390
 8058TIP3    H124127   4.977   7.182   3.480
 8058TIP3    H224128   5.022   7.165   3.339
 8059TIP3   OH224129   5.146   7.081   3.250
 8059TIP3    H124130   5.159   6.997   3.301
 8059TIP3    H224131   5.237   7.116   3.246
 8060TIP3   OH224132   5.413   7.174   3.255
 8060TIP3    H124133   5.442   7.082   3.244
 8060TIP3    H224134   5.460   7.197   3.337
 8061TIP3   OH224135   5.987   5.832   3.341
 8061TIP3    H124136   5.943   5.760   3.390
 8061TIP3    H224137   6.060   5.786   3.297
 8062TIP3   OH224138   6.506   5.712   3.245
 8062TIP3    H124139   6.542   5.764   3.169
 8062TIP3    H224140   6.411   5.731   3.238
 8063TIP3   OH224141   6.601   5.810   3.008
 8063TIP3    H124142   6.674   5.758   2.968
 8063TIP3    H224143   6.635   5.901   2.994
 8064TIP3   OH224144   5.233   5.541   3.355
 8064TIP3    H124145   5.140   5.509   3.357
 8064TIP3    H224146   5.279   5.454   3.349
 8065TIP3   OH224147   5.028   5.412   3.006
 8065TIP3    H124148   5.053   5.467   2.930
 8065TIP3    H224149   4.997   5.478   3.071
 8066TIP3   OH224150   5.681   5.569   3.237
 8066TIP3    H124151   5.735   5.617   3.171
 8066TIP3    H224152   5.706   5.614   3.319
 8067TIP3   OH224153   6.221   5.720   3.218
 8067TIP3    H124154   6.224   5.680   3.130
 8067TIP3    H224155   6.210   5.641   3.276
 8068TIP3   OH224156   6.254   5.645   2.782
 8068TIP3    H124157   6.167   5.687   2.797
 8068TIP3    H224158   6.240   5.558   2.827
 8069TIP3   OH224159   4.739   6.984   2.777
 8069TIP3    H124160   4.653   6.950   2.747
 8069TIP3    H224161   4.727   7.078   2.758
 8070TIP3   OH224162   5.139   5.567   2.766
 8070TIP3    H124163   5.185   5.504   2.707
 8070TIP3    H224164   5.214   5.621   2.800
 8071TIP3   OH224165   5.649   5.747   2.864
 8071TIP3    H124166   5.709   5.699   2.923
 8071TIP3    H224167   5.672   5.839   2.890
 8072TIP3   OH224168   5.509   7.167   2.363
 8072TIP3    H124169   5.598   7.189   2.328
 8072TIP3    H224170   5.487   7.093   2.303
 8073TIP3   OH224171   6.219   7.282   2.459
 8073TIP3    H124172   6.215   7.184   2.449
 8073TIP3    H224173   6.182   7.310   2.373
 8074TIP3   OH224174   4.815   7.010   2.419
 8074TIP3    H124175   4.814   7.022   2.515
 8074TIP3    H224176   4.902   6.966   2.405
 8075TIP3   OH224177   6.518   5.881   4.154
 8075TIP3    H124178   6.538   5.850   4.244
 8075TIP3    H224179   6.607   5.878   4.112
 8076TIP3   OH224180   6.448   7.430   3.645
 8076TIP3    H124181   6.369   7.403   3.594
 8076TIP3    H224182   6.433   7.527   3.651
 8077TIP3   OH224183   7.022   6.697   3.152
 8077TIP3    H124184   7.051   6.633   3.219
 8077TIP3    H224185   7.093   6.763   3.156
 8078TIP3   OH224186   6.947   7.099   2.928
 8078TIP3    H124187   6.945   7.001   2.920
 8078TIP3    H224188   7.032   7.115   2.885
 8079TIP3   OH224189   6.697   6.309   2.664
 8079TIP3    H124190   6.650   6.393   2.681
 8079TIP3    H224191   6.626   6.259   2.619
 8080TIP3   OH224192   6.758   6.601   2.841
 8080TIP3    H124193   6.806   6.522   2.873
 8080TIP3    H224194   6.815   6.632   2.770
 8081TIP3   OH224195   7.273   6.192   2.838
 8081TIP3    H124196   7.253   6.264   2.775
 8081TIP3    H224197   7.226   6.118   2.794
 8082TIP3   OH224198   6.903   6.394   2.945
 8082TIP3    H124199   6.986   6.375   2.992
 8082TIP3    H224200   6.917   6.338   2.865
 8083TIP3   OH224201   7.342   6.593   2.755
 8083TIP3    H124202   7.438   6.576   2.758
 8083TIP3    H224203   7.307   6.512   2.713
 8084TIP3   OH224204   7.265   6.175   3.270
 8084TIP3    H124205   7.204   6.212   3.204
 8084TIP3    H224206   7.213   6.188   3.352
 8085TIP3   OH224207   7.140   6.294   3.055
 8085TIP3    H124208   7.204   6.364   3.077
 8085TIP3    H224209   7.186   6.252   2.979
 8086TIP3   OH224210   7.180   7.178   3.157
 8086TIP3    H124211   7.118   7.155   3.087
 8086TIP3    H224212   7.126   7.160   3.237
 8087TIP3   OH224213   6.591   6.836   2.397
 8087TIP3    H124214   6.555   6.869   2.313
 8087TIP3    H224215   6.627   6.919   2.436
 8088TIP3   OH224216   7.614   5.908   2.970
 8088TIP3    H124217   7.641   5.827   3.015
 8088TIP3    H224218   7.536   5.934   3.024
 8089TIP3   OH224219   7.109   6.723   2.651
 8089TIP3    H124220   7.082   6.684   2.565
 8089TIP3    H224221   7.200   6.687   2.660
 8090TIP3   OH224222   7.292   6.722   2.992
 8090TIP3    H124223   7.305   6.679   2.905
 8090TIP3    H224224   7.334   6.808   2.976
 8091TIP3   OH224225   7.162   6.817   3.415
 8091TIP3    H124226   7.167   6.906   3.456
 8091TIP3    H224227   7.068   6.796   3.432
 8092TIP3   OH224228   7.003   6.579   2.428
 8092TIP3    H124229   6.935   6.626   2.375
 8092TIP3    H224230   6.962   6.493   2.439
 8093TIP3   OH224231   6.777   6.959   3.344
 8093TIP3    H124232   6.709   6.941   3.276
 8093TIP3    H224233   6.814   6.870   3.362
 8094TIP3   OH224234   6.644   7.159   2.973
 8094TIP3    H124235   6.739   7.143   2.962
 8094TIP3    H224236   6.646   7.235   3.033
 8095TIP3   OH224237   6.972   7.151   3.337
 8095TIP3    H124238   7.024   7.135   3.418
 8095TIP3    H224239   6.903   7.082   3.342
 8096TIP3   OH224240   7.381   5.969   3.114
 8096TIP3    H124241   7.291   5.940   3.088
 8096TIP3    H224242   7.359   6.051   3.161
 8097TIP3   OH224243   7.908   6.075   3.311
 8097TIP3    H124244   7.957   6.062   3.394
 8097TIP3    H224245   7.817   6.053   3.340
 8098TIP3   OH224246   7.495   6.033   2.052
 8098TIP3    H124247   7.529   6.038   2.141
 8098TIP3    H224248   7.467   5.940   2.046
 8099TIP3   OH224249   7.318   6.494   3.138
 8099TIP3    H124250   7.257   6.507   3.214
 8099TIP3    H224251   7.302   6.576   3.085
 8100TIP3   OH224252   7.202   6.373   2.651
 8100TIP3    H124253   7.107   6.353   2.667
 8100TIP3    H224254   7.212   6.332   2.562
 8101TIP3   OH224255   7.141   6.516   3.346
 8101TIP3    H124256   7.140   6.580   3.418
 8101TIP3    H224257   7.131   6.432   3.395
 8102TIP3   OH224258   7.169   5.980   2.054
 8102TIP3    H124259   7.171   5.986   2.152
 8102TIP3    H224260   7.102   6.047   2.033
 8103TIP3   OH224261   6.726   6.033   2.927
 8103TIP3    H124262   6.803   6.067   2.977
 8103TIP3    H224263   6.763   6.010   2.841
 8104TIP3   OH224264   6.695   6.016   2.444
 8104TIP3    H124265   6.741   6.052   2.365
 8104TIP3    H224266   6.634   6.090   2.461
 8105TIP3   OH224267   7.527   6.193   2.698
 8105TIP3    H124268   7.445   6.190   2.751
 8105TIP3    H224269   7.596   6.192   2.766
 8106TIP3   OH224270   6.958   6.252   2.718
 8106TIP3    H124271   6.865   6.260   2.688
 8106TIP3    H224272   6.982   6.161   2.691
 8107TIP3   OH224273   7.225   6.242   2.411
 8107TIP3    H124274   7.316   6.260   2.383
 8107TIP3    H224275   7.172   6.259   2.330
 8108TIP3   OH224276   7.064   6.257   2.195
 8108TIP3    H124277   6.987   6.227   2.143
 8108TIP3    H224278   7.119   6.296   2.124
 8109TIP3   OH224279   7.144   7.064   3.551
 8109TIP3    H124280   7.223   7.094   3.599
 8109TIP3    H224281   7.078   7.068   3.623
 8110TIP3   OH224282   7.607   6.517   2.818
 8110TIP3    H124283   7.644   6.481   2.734
 8110TIP3    H224284   7.614   6.443   2.880
 8111TIP3   OH224285   7.131   6.011   2.685
 8111TIP3    H124286   7.097   5.929   2.724
 8111TIP3    H224287   7.170   5.981   2.602
 8112TIP3   OH224288   7.580   6.410   3.096
 8112TIP3    H124289   7.490   6.447   3.099
 8112TIP3    H224290   7.631   6.473   3.150
 8113TIP3   OH224291   7.010   6.834   2.877
 8113TIP3    H124292   7.039   6.799   2.790
 8113TIP3    H224293   7.044   6.766   2.937
 8114TIP3   OH224294   6.902   6.745   3.478
 8114TIP3    H124295   6.918   6.736   3.574
 8114TIP3    H224296   6.827   6.684   3.466
 8115TIP3   OH224297   7.645   6.808   3.500
 8115TIP3    H124298   7.558   6.775   3.471
 8115TIP3    H224299   7.689   6.724   3.525
 8116TIP3   OH224300   6.680   6.440   2.196
 8116TIP3    H124301   6.727   6.523   2.216
 8116TIP3    H224302   6.605   6.445   2.259
 8117TIP3   OH224303   7.105   6.257   3.484
 8117TIP3    H124304   7.009   6.259   3.502
 8117TIP3    H224305   7.138   6.206   3.561
 8118TIP3   OH224306   6.814   7.319   3.147
 8118TIP3    H124307   6.863   7.240   3.174
 8118TIP3    H224308   6.855   7.385   3.203
 8119TIP3   OH224309   6.795   6.682   2.280
 8119TIP3    H124310   6.728   6.735   2.327
 8119TIP3    H224311   6.833   6.749   2.221
 8120TIP3   OH224312   7.890   6.336   3.203
 8120TIP3    H124313   7.983   6.327   3.228
 8120TIP3    H224314   7.860   6.244   3.216
 8121TIP3   OH224315   7.511   6.246   2.422
 8121TIP3    H124316   7.601   6.253   2.385
 8121TIP3    H224317   7.526   6.234   2.518
 8122TIP3   OH224318   7.761   6.559   3.268
 8122TIP3    H124319   7.774   6.551   3.365
 8122TIP3    H224320   7.810   6.477   3.240
 8123TIP3   OH224321   7.661   5.983   2.538
 8123TIP3    H124322   7.654   6.062   2.594
 8123TIP3    H224323   7.729   6.009   2.472
 8124TIP3   OH224324   7.165   5.977   2.333
 8124TIP3    H124325   7.163   6.070   2.364
 8124TIP3    H224326   7.261   5.959   2.340
 8125TIP3   OH224327   6.776   6.901   2.075
 8125TIP3    H124328   6.822   6.985   2.056
 8125TIP3    H224329   6.827   6.841   2.017
 8126TIP3   OH224330   6.727   6.169   2.218
 8126TIP3    H124331   6.730   6.267   2.216
 8126TIP3    H224332   6.648   6.151   2.167
 8127TIP3   OH224333   7.117   5.882   3.088
 8127TIP3    H124334   7.086   5.845   3.003
 8127TIP3    H224335   7.116   5.803   3.146
 8128TIP3   OH224336   6.663   7.090   2.474
 8128TIP3    H124337   6.616   7.140   2.542
 8128TIP3    H224338   6.628   7.132   2.392
 8129TIP3   OH224339   6.787   7.582   3.555
 8129TIP3    H124340   6.865   7.565   3.611
 8129TIP3    H224341   6.756   7.492   3.540
 8130TIP3   OH224342   6.942   7.053   3.743
 8130TIP3    H124343   6.961   6.958   3.752
 8130TIP3    H224344   6.854   7.052   3.699
 8131TIP3   OH224345   6.921   6.708   1.939
 8131TIP3    H124346   6.971   6.669   2.015
 8131TIP3    H224347   6.994   6.725   1.878
 8132TIP3   OH224348   7.067   6.790   3.725
 8132TIP3    H124349   7.142   6.732   3.708
 8132TIP3    H224350   7.091   6.825   3.813
 8133TIP3   OH224351   7.075   6.583   2.126
 8133TIP3    H124352   7.087   6.587   2.222
 8133TIP3    H224353   7.134   6.510   2.100
 8134TIP3   OH224354   7.412   6.707   3.381
 8134TIP3    H124355   7.325   6.749   3.402
 8134TIP3    H224356   7.403   6.694   3.286
 8135TIP3   OH224357   7.229   6.378   2.018
 8135TIP3    H124358   7.182   6.393   1.932
 8135TIP3    H224359   7.318   6.357   1.985
 8136TIP3   OH224360   7.494   6.457   3.507
 8136TIP3    H124361   7.503   6.377   3.451
 8136TIP3    H224362   7.467   6.525   3.443
 8137TIP3   OH224363   7.520   6.252   3.320
 8137TIP3    H124364   7.548   6.289   3.234
 8137TIP3    H224365   7.427   6.228   3.302
 8138TIP3   OH224366   7.391   6.577   3.736
 8138TIP3    H124367   7.325   6.510   3.764
 8138TIP3    H224368   7.426   6.536   3.655
 8139TIP3   OH224369   7.653   6.013   3.382
 8139TIP3    H124370   7.596   6.091   3.369
 8139TIP3    H224371   7.588   5.939   3.375
 8140TIP3   OH224372   7.751   6.539   3.586
 8140TIP3    H124373   7.788   6.499   3.667
 8140TIP3    H224374   7.666   6.492   3.581
 8141TIP3   OH224375   7.238   6.353   3.800
 8141TIP3    H124376   7.247   6.261   3.768
 8141TIP3    H224377   7.278   6.345   3.889
 8142TIP3   OH224378   7.764   6.022   3.635
 8142TIP3    H124379   7.797   5.933   3.655
 8142TIP3    H224380   7.722   6.009   3.548
 8143TIP3   OH224381   7.808   6.231   3.809
 8143TIP3    H124382   7.795   6.162   3.740
 8143TIP3    H224383   7.727   6.286   3.801
 8144TIP3   OH224384   6.511   6.846   2.114
 8144TIP3    H124385   6.605   6.874   2.099
 8144TIP3    H224386   6.516   6.752   2.085
 8145TIP3   OH224387   6.413   7.455   2.542
 8145TIP3    H124388   6.354   7.387   2.504
 8145TIP3    H224389   6.472   7.400   2.598
 8146TIP3   OH224390   6.563   7.307   2.723
 8146TIP3    H124391   6.561   7.228   2.779
 8146TIP3    H224392   6.586   7.374   2.788
 8147TIP3   OH224393   6.754   6.717   3.093
 8147TIP3    H124394   6.750   6.685   3.001
 8147TIP3    H224395   6.851   6.718   3.108
 8148TIP3   OH224396   6.973   6.403   3.762
 8148TIP3    H124397   7.071   6.401   3.771
 8148TIP3    H224398   6.951   6.318   3.804
 8149TIP3   OH224399   6.938   6.098   3.095
 8149TIP3    H124400   6.999   6.023   3.105
 8149TIP3    H224401   6.999   6.173   3.088
 8150TIP3   OH224402   6.735   6.369   3.169
 8150TIP3    H124403   6.784   6.369   3.085
 8150TIP3    H224404   6.759   6.455   3.206
 8151TIP3   OH224405   6.722   5.879   2.674
 8151TIP3    H124406   6.629   5.870   2.700
 8151TIP3    H224407   6.716   5.936   2.595
 8152TIP3   OH224408   6.936   5.949   3.481
 8152TIP3    H124409   6.889   5.950   3.566
 8152TIP3    H224410   6.871   5.994   3.423
 8153TIP3   OH224411   6.959   7.338   3.611
 8153TIP3    H124412   6.883   7.310   3.559
 8153TIP3    H224413   6.935   7.307   3.700
 8154TIP3   OH224414   7.773   6.076   2.811
 8154TIP3    H124415   7.719   6.025   2.874
 8154TIP3    H224416   7.826   6.007   2.771
 8155TIP3   OH224417   7.027   5.780   2.839
 8155TIP3    H124418   6.930   5.771   2.851
 8155TIP3    H224419   7.047   5.689   2.814
 8156TIP3   OH224420   6.824   5.670   2.496
 8156TIP3    H124421   6.851   5.723   2.419
 8156TIP3    H224422   6.793   5.739   2.558
 8157TIP3   OH224423   7.481   5.833   2.733
 8157TIP3    H124424   7.526   5.863   2.652
 8157TIP3    H224425   7.529   5.882   2.802
 8158TIP3   OH224426   6.532   7.231   2.288
 8158TIP3    H124427   6.452   7.210   2.237
 8158TIP3    H224428   6.536   7.327   2.277
 8159TIP3   OH224429   6.935   5.823   2.254
 8159TIP3    H124430   6.982   5.761   2.194
 8159TIP3    H224431   7.010   5.877   2.287
 8160TIP3   OH224432   7.437   5.990   2.364
 8160TIP3    H124433   7.514   5.952   2.409
 8160TIP3    H224434   7.453   6.085   2.378
 8161TIP3   OH224435   7.238   6.079   3.730
 8161TIP3    H124436   7.201   6.009   3.786
 8161TIP3    H224437   7.332   6.076   3.759
 8162TIP3   OH224438   7.486   6.072   3.851
 8162TIP3    H124439   7.575   6.052   3.819
 8162TIP3    H224440   7.474   6.000   3.916
 8163TIP3   OH224441   0.989   7.131   4.528
 8163TIP3    H124442   1.016   7.211   4.576
 8163TIP3    H224443   1.022   7.152   4.438
 8164TIP3   OH224444   1.021   7.321   4.753
 8164TIP3    H124445   1.007   7.373   4.672
 8164TIP3    H224446   1.108   7.357   4.776
 8165TIP3   OH224447   0.619   7.064   4.340
 8165TIP3    H124448   0.684   7.021   4.396
 8165TIP3    H224449   0.650   7.157   4.344
 8166TIP3   OH224450   0.778   7.036   4.685
 8166TIP3    H124451   0.706   7.094   4.659
 8166TIP3    H224452   0.852   7.068   4.629
 8167TIP3   OH224453   0.713   6.627   3.775
 8167TIP3    H124454   0.628   6.645   3.821
 8167TIP3    H224455   0.728   6.712   3.730
 8168TIP3   OH224456   0.851   7.509   5.056
 8168TIP3    H124457   0.785   7.536   4.990
 8168TIP3    H224458   0.844   7.411   5.052
 8169TIP3   OH224459   0.738   7.224   3.686
 8169TIP3    H124460   0.679   7.181   3.619
 8169TIP3    H224461   0.727   7.315   3.659
 8170TIP3   OH224462   0.841   7.251   4.949
 8170TIP3    H124463   0.774   7.193   4.910
 8170TIP3    H224464   0.896   7.275   4.871
 8171TIP3   OH224465   0.575   7.143   3.486
 8171TIP3    H124466   0.535   7.173   3.404
 8171TIP3    H224467   0.547   7.050   3.483
 8172TIP3   OH224468   0.598   7.416   4.051
 8172TIP3    H124469   0.600   7.321   4.022
 8172TIP3    H224470   0.631   7.408   4.142
 8173TIP3   OH224471   1.054   7.657   4.961
 8173TIP3    H124472   0.973   7.609   4.987
 8173TIP3    H224473   1.114   7.580   4.949
 8174TIP3   OH224474   0.529   6.868   3.481
 8174TIP3    H124475   0.614   6.858   3.529
 8174TIP3    H224476   0.467   6.824   3.540
 8175TIP3   OH224477   0.607   7.168   3.936
 8175TIP3    H124478   0.624   7.076   3.963
 8175TIP3    H224479   0.644   7.167   3.846
 8176TIP3   OH224480   0.736   7.300   4.390
 8176TIP3    H124481   0.807   7.351   4.346
 8176TIP3    H224482   0.751   7.330   4.482
 8177TIP3   OH224483   0.776   7.446   4.615
 8177TIP3    H124484   0.698   7.497   4.591
 8177TIP3    H224485   0.849   7.512   4.611
 8178TIP3   OH224486   1.262   7.063   5.209
 8178TIP3    H124487   1.322   6.998   5.167
 8178TIP3    H224488   1.230   7.113   5.131
 8179TIP3   OH224489   0.694   6.903   3.961
 8179TIP3    H124490   0.733   6.889   4.049
 8179TIP3    H224491   0.625   6.833   3.959
 8180TIP3   OH224492   1.124   7.199   5.017
 8180TIP3    H124493   1.041   7.239   5.050
 8180TIP3    H224494   1.087   7.132   4.955
 8181TIP3   OH224495   0.771   6.837   3.598
 8181TIP3    H124496   0.813   6.763   3.549
 8181TIP3    H224497   0.844   6.902   3.604
 8182TIP3   OH224498   1.031   6.961   4.896
 8182TIP3    H124499   0.941   6.947   4.863
 8182TIP3    H224500   1.067   6.870   4.887
 8183TIP3   OH224501   0.755   6.757   4.417
 8183TIP3    H124502   0.803   6.807   4.348
 8183TIP3    H224503   0.664   6.779   4.395
 8184TIP3   OH224504   0.855   6.864   4.188
 8184TIP3    H124505   0.923   6.809   4.144
 8184TIP3    H224506   0.888   6.954   4.167
 8185TIP3   OH224507   0.508   6.694   3.944
 8185TIP3    H124508   0.414   6.695   3.915
 8185TIP3    H224509   0.505   6.614   4.000
 8186TIP3   OH224510   0.761   6.888   5.326
 8186TIP3    H124511   0.788   6.863   5.417
 8186TIP3    H224512   0.848   6.897   5.282
 8187TIP3   OH224513   0.902   7.432   3.849
 8187TIP3    H124514   0.901   7.413   3.944
 8187TIP3    H224515   0.876   7.347   3.811
 8188TIP3   OH224516   2.784   7.393   4.015
 8188TIP3    H124517   2.816   7.476   4.055
 8188TIP3    H224518   2.799   7.410   3.921
 8189TIP3   OH224519   2.210   7.592   4.029
 8189TIP3    H124520   2.240   7.508   4.067
 8189TIP3    H224521   2.146   7.560   3.963
 8190TIP3   OH224522   1.520   7.221   4.020
 8190TIP3    H124523   1.514   7.251   3.927
 8190TIP3    H224524   1.474   7.136   4.011
 8191TIP3   OH224525   2.215   7.322   3.637
 8191TIP3    H124526   2.289   7.310   3.701
 8191TIP3    H224527   2.263   7.363   3.563
 8192TIP3   OH224528   1.142   7.430   4.116
 8192TIP3    H124529   1.213   7.422   4.182
 8192TIP3    H224530   1.179   7.374   4.044
 8193TIP3   OH224531   2.863   7.601   4.180
 8193TIP3    H124532   2.785   7.652   4.152
 8193TIP3    H224533   2.864   7.622   4.275
 8194TIP3   OH224534   1.516   7.226   4.449
 8194TIP3    H124535   1.444   7.262   4.393
 8194TIP3    H224536   1.477   7.241   4.539
 8195TIP3   OH224537   2.424   7.327   3.807
 8195TIP3    H124538   2.400   7.289   3.892
 8195TIP3    H224539   2.468   7.411   3.834
 8196TIP3   OH224540   1.388   7.339   4.229
 8196TIP3    H124541   1.452   7.409   4.253
 8196TIP3    H224542   1.436   7.297   4.154
 8197TIP3   OH224543   2.573   7.298   4.183
 8197TIP3    H124544   2.484   7.316   4.147
 8197TIP3    H224545   2.632   7.328   4.110
 8198TIP3   OH224546   1.868   6.938   4.166
 8198TIP3    H124547   1.849   6.844   4.180
 8198TIP3    H224548   1.792   6.979   4.213
 8199TIP3   OH224549   1.767   7.465   3.168
 8199TIP3    H124550   1.707   7.483   3.242
 8199TIP3    H224551   1.736   7.380   3.137
 8200TIP3   OH224552   2.503   6.879   3.267
 8200TIP3    H124553   2.421   6.901   3.315
 8200TIP3    H224554   2.521   6.963   3.219
 8201TIP3   OH224555   2.638   7.760   4.553
 8201TIP3    H124556   2.589   7.787   4.474
 8201TIP3    H224557   2.646   7.664   4.542
 8202TIP3   OH224558   1.633   7.018   4.296
 8202TIP3    H124559   1.544   6.986   4.272
 8202TIP3    H224560   1.608   7.103   4.338
 8203TIP3   OH224561   2.164   7.130   4.486
 8203TIP3    H124562   2.233   7.103   4.550
 8203TIP3    H224563   2.081   7.110   4.533
 8204TIP3   OH224564   2.406   7.580   4.410
 8204TIP3    H124565   2.358   7.557   4.493
 8204TIP3    H224566   2.339   7.630   4.361
 8205TIP3   OH224567   1.778   7.067   3.263
 8205TIP3    H124568   1.749   7.057   3.356
 8205TIP3    H224569   1.743   6.984   3.227
 8206TIP3   OH224570   1.571   7.543   4.306
 8206TIP3    H124571   1.532   7.568   4.393
 8206TIP3    H224572   1.553   7.620   4.251
 8207TIP3   OH224573   1.336   7.478   3.772
 8207TIP3    H124574   1.302   7.389   3.797
 8207TIP3    H224575   1.418   7.449   3.727
 8208TIP3   OH224576   1.937   7.492   3.557
 8208TIP3    H124577   1.865   7.548   3.523
 8208TIP3    H224578   1.992   7.477   3.478
 8209TIP3   OH224579   2.110   7.734   4.652
 8209TIP3    H124580   2.061   7.669   4.706
 8209TIP3    H224581   2.198   7.727   4.691
 8210TIP3   OH224582   2.076   7.505   3.803
 8210TIP3    H124583   2.025   7.538   3.726
 8210TIP3    H224584   2.115   7.427   3.760
 8211TIP3   OH224585   1.452   7.594   4.546
 8211TIP3    H124586   1.421   7.613   4.635
 8211TIP3    H224587   1.381   7.531   4.518
 8212TIP3   OH224588   1.423   7.030   3.232
 8212TIP3    H124589   1.425   7.032   3.330
 8212TIP3    H224590   1.341   7.078   3.213
 8213TIP3   OH224591   0.983   7.084   4.085
 8213TIP3    H124592   1.050   7.114   4.150
 8213TIP3    H224593   1.035   7.036   4.020
 8214TIP3   OH224594   0.949   7.055   3.625
 8214TIP3    H124595   0.991   7.098   3.547
 8214TIP3    H224596   0.878   7.120   3.642
 8215TIP3   OH224597   1.802   7.215   3.891
 8215TIP3    H124598   1.706   7.224   3.907
 8215TIP3    H224599   1.839   7.251   3.973
 8216TIP3   OH224600   1.204   7.272   3.894
 8216TIP3    H124601   1.116   7.250   3.863
 8216TIP3    H224602   1.249   7.184   3.884
 8217TIP3   OH224603   1.512   7.348   3.434
 8217TIP3    H124604   1.596   7.306   3.459
 8217TIP3    H224605   1.476   7.357   3.524
 8218TIP3   OH224606   2.268   7.315   4.091
 8218TIP3    H124607   2.235   7.329   4.182
 8218TIP3    H224608   2.202   7.250   4.060
 8219TIP3   OH224609   1.237   7.313   3.374
 8219TIP3    H124610   1.230   7.257   3.295
 8219TIP3    H224611   1.329   7.299   3.403
 8220TIP3   OH224612   1.870   7.552   3.987
 8220TIP3    H124613   1.950   7.521   3.941
 8220TIP3    H224614   1.884   7.528   4.079
 8221TIP3   OH224615   1.322   7.034   3.872
 8221TIP3    H124616   1.349   6.946   3.900
 8221TIP3    H224617   1.391   7.062   3.808
 8222TIP3   OH224618   1.833   7.455   4.275
 8222TIP3    H124619   1.743   7.494   4.273
 8222TIP3    H224620   1.885   7.524   4.321
 8223TIP3   OH224621   2.025   7.173   3.228
 8223TIP3    H124622   1.930   7.150   3.239
 8223TIP3    H224623   2.030   7.264   3.262
 8224TIP3   OH224624   2.106   7.417   3.341
 8224TIP3    H124625   2.202   7.418   3.358
 8224TIP3    H224626   2.099   7.465   3.256
 8225TIP3   OH224627   2.541   7.491   3.183
 8225TIP3    H124628   2.471   7.462   3.119
 8225TIP3    H224629   2.586   7.559   3.128
 8226TIP3   OH224630   1.403   7.279   4.691
 8226TIP3    H124631   1.325   7.319   4.647
 8226TIP3    H224632   1.365   7.211   4.748
 8227TIP3   OH224633   2.194   7.372   4.353
 8227TIP3    H124634   2.270   7.398   4.407
 8227TIP3    H224635   2.169   7.287   4.396
 8228TIP3   OH224636   2.082   7.109   3.513
 8228TIP3    H124637   2.059   7.138   3.423
 8228TIP3    H224638   2.115   7.192   3.554
 8229TIP3   OH224639   1.792   7.269   3.597
 8229TIP3    H124640   1.847   7.350   3.596
 8229TIP3    H224641   1.748   7.276   3.684
 8230TIP3   OH224642   2.007   7.606   4.424
 8230TIP3    H124643   2.044   7.647   4.505
 8230TIP3    H224644   2.067   7.532   4.408
 8231TIP3   OH224645   1.905   7.019   3.723
 8231TIP3    H124646   1.876   7.100   3.772
 8231TIP3    H224647   1.961   7.060   3.653
 8232TIP3   OH224648   1.418   7.015   3.505
 8232TIP3    H124649   1.420   7.083   3.576
 8232TIP3    H224650   1.513   6.993   3.506
 8233TIP3   OH224651   2.668   7.514   4.397
 8233TIP3    H124652   2.572   7.532   4.401
 8233TIP3    H224653   2.671   7.458   4.317
 8234TIP3   OH224654   2.320   7.669   3.767
 8234TIP3    H124655   2.252   7.636   3.829
 8234TIP3    H224656   2.399   7.653   3.821
 8235TIP3   OH224657   0.946   7.224   3.401
 8235TIP3    H124658   1.015   7.270   3.351
 8235TIP3    H224659   0.894   7.179   3.334
 8236TIP3   OH224660   1.370   6.940   4.280
 8236TIP3    H124661   1.334   6.901   4.197
 8236TIP3    H224662   1.359   6.864   4.341
 8237TIP3   OH224663   1.759   7.493   4.686
 8237TIP3    H124664   1.775   7.406   4.644
 8237TIP3    H224665   1.699   7.531   4.621
 8238TIP3   OH224666   1.773   7.292   4.500
 8238TIP3    H124667   1.800   7.336   4.416
 8238TIP3    H224668   1.678   7.272   4.480
 8239TIP3   OH224669   2.383   7.764   4.734
 8239TIP3    H124670   2.433   7.681   4.738
 8239TIP3    H224671   2.445   7.825   4.778
 8240TIP3   OH224672   1.644   7.623   4.905
 8240TIP3    H124673   1.573   7.562   4.934
 8240TIP3    H224674   1.677   7.579   4.825
 8241TIP3   OH224675   1.904   7.057   4.566
 8241TIP3    H124676   1.853   7.137   4.541
 8241TIP3    H224677   1.836   6.987   4.553
 8242TIP3   OH224678   2.021   7.520   4.788
 8242TIP3    H124679   1.997   7.517   4.882
 8242TIP3    H224680   1.933   7.503   4.748
 8243TIP3   OH224681   2.273   7.488   4.629
 8243TIP3    H124682   2.198   7.484   4.692
 8243TIP3    H224683   2.349   7.466   4.688
 8244TIP3   OH224684   2.498   7.454   4.784
 8244TIP3    H124685   2.513   7.359   4.802
 8244TIP3    H224686   2.495   7.493   4.874
 8245TIP3   OH224687   1.490   7.400   4.970
 8245TIP3    H124688   1.489   7.317   4.918
 8245TIP3    H224689   1.523   7.370   5.057
 8246TIP3   OH224690   1.999   7.069   4.823
 8246TIP3    H124691   2.065   6.997   4.816
 8246TIP3    H224692   1.959   7.065   4.734
 8247TIP3   OH224693   2.064   7.283   4.985
 8247TIP3    H124694   2.047   7.211   4.921
 8247TIP3    H224695   1.984   7.338   4.976
 8248TIP3   OH224696   2.382   7.409   2.979
 8248TIP3    H124697   2.354   7.433   2.890
 8248TIP3    H224698   2.350   7.316   2.980
 8249TIP3   OH224699   2.441   7.663   3.519
 8249TIP3    H124700   2.436   7.566   3.518
 8249TIP3    H224701   2.420   7.682   3.613
 8250TIP3   OH224702   2.855   7.915   4.471
 8250TIP3    H124703   2.765   7.877   4.475
 8250TIP3    H224704   2.909   7.833   4.460
 8251TIP3   OH224705   2.324   7.136   2.966
 8251TIP3    H124706   2.391   7.107   3.030
 8251TIP3    H224707   2.245   7.086   2.990
 8252TIP3   OH224708   2.381   7.402   3.412
 8252TIP3    H124709   2.418   7.313   3.430
 8252TIP3    H224710   2.437   7.430   3.337
 8253TIP3   OH224711   2.541   7.560   3.891
 8253TIP3    H124712   2.624   7.597   3.853
 8253TIP3    H224713   2.555   7.586   3.984
 8254TIP3   OH224714   2.591   7.707   4.118
 8254TIP3    H124715   2.496   7.725   4.130
 8254TIP3    H224716   2.620   7.780   4.060
 8255TIP3   OH224717   1.223   7.447   4.937
 8255TIP3    H124718   1.320   7.440   4.941
 8255TIP3    H224719   1.196   7.360   4.973
 8256TIP3   OH224720   3.059   7.318   4.697
 8256TIP3    H124721   3.117   7.253   4.652
 8256TIP3    H224722   3.025   7.370   4.621
 8257TIP3   OH224723   2.486   7.154   3.452
 8257TIP3    H124724   2.529   7.139   3.539
 8257TIP3    H224725   2.422   7.080   3.451
 8258TIP3   OH224726   1.172   7.141   4.279
 8258TIP3    H124727   1.245   7.076   4.283
 8258TIP3    H224728   1.221   7.224   4.289
 8259TIP3   OH224729   0.950   7.453   4.314
 8259TIP3    H124730   1.005   7.452   4.234
 8259TIP3    H224731   1.019   7.452   4.383
 8260TIP3   OH224732   2.926   7.451   4.502
 8260TIP3    H124733   2.847   7.497   4.537
 8260TIP3    H224734   2.883   7.383   4.446
 8261TIP3   OH224735   2.569   7.086   3.095
 8261TIP3    H124736   2.601   7.017   3.034
 8261TIP3    H224737   2.633   7.158   3.082
 8262TIP3   OH224738   0.964   6.901   3.848
 8262TIP3    H124739   0.873   6.908   3.881
 8262TIP3    H224740   0.965   6.968   3.776
 8263TIP3   OH224741   1.192   6.998   4.661
 8263TIP3    H124742   1.138   6.999   4.743
 8263TIP3    H224743   1.128   7.036   4.598
 8264TIP3   OH224744   2.824   7.218   4.382
 8264TIP3    H124745   2.734   7.208   4.348
 8264TIP3    H224746   2.857   7.125   4.373
 8265TIP3   OH224747   2.059   7.133   4.036
 8265TIP3    H124748   1.992   7.069   4.068
 8265TIP3    H224749   2.094   7.088   3.957
 8266TIP3   OH224750   2.556   7.014   3.908
 8266TIP3    H124751   2.589   7.068   3.832
 8266TIP3    H224752   2.459   7.027   3.900
 8267TIP3   OH224753   2.649   7.113   3.670
 8267TIP3    H124754   2.723   7.064   3.630
 8267TIP3    H224755   2.678   7.205   3.657
 8268TIP3   OH224756   1.271   6.817   4.060
 8268TIP3    H124757   1.177   6.790   4.052
 8268TIP3    H224758   1.317   6.733   4.042
 8269TIP3   OH224759   1.062   6.712   3.667
 8269TIP3    H124760   1.094   6.773   3.599
 8269TIP3    H224761   1.035   6.775   3.739
 8270TIP3   OH224762   1.724   6.870   3.904
 8270TIP3    H124763   1.778   6.919   3.839
 8270TIP3    H224764   1.747   6.917   3.986
 8271TIP3   OH224765   2.282   7.019   3.875
 8271TIP3    H124766   2.258   6.982   3.789
 8271TIP3    H224767   2.260   6.944   3.936
 8272TIP3   OH224768   2.299   6.947   3.446
 8272TIP3    H124769   2.216   6.995   3.465
 8272TIP3    H224770   2.281   6.861   3.489
 8273TIP3   OH224771   1.186   6.876   3.422
 8273TIP3    H124772   1.234   6.808   3.370
 8273TIP3    H224773   1.261   6.925   3.463
 8274TIP3   OH224774   1.696   7.028   3.519
 8274TIP3    H124775   1.747   6.981   3.587
 8274TIP3    H224776   1.714   7.120   3.550
 8275TIP3   OH224777   1.481   7.101   4.920
 8275TIP3    H124778   1.453   7.029   4.981
 8275TIP3    H224779   1.574   7.112   4.947
 8276TIP3   OH224780   1.738   7.122   5.032
 8276TIP3    H124781   1.821   7.094   4.990
 8276TIP3    H224782   1.724   7.050   5.096
 8277TIP3   OH224783   2.563   7.183   4.816
 8277TIP3    H124784   2.579   7.152   4.908
 8277TIP3    H224785   2.652   7.176   4.778
 8278TIP3   OH224786   2.738   7.625   3.339
 8278TIP3    H124787   2.695   7.691   3.395
 8278TIP3    H224788   2.663   7.569   3.313
 8279TIP3   OH224789   4.579   7.652   3.495
 8279TIP3    H124790   4.611   7.732   3.541
 8279TIP3    H224791   4.610   7.667   3.404
 8280TIP3   OH224792   3.987   7.853   3.494
 8280TIP3    H124793   4.024   7.767   3.519
 8280TIP3    H224794   3.891   7.835   3.500
 8281TIP3   OH224795   3.322   7.490   3.497
 8281TIP3    H124796   3.294   7.558   3.432
 8281TIP3    H224797   3.274   7.413   3.460
 8282TIP3   OH224798   2.937   7.677   3.616
 8282TIP3    H124799   3.025   7.671   3.656
 8282TIP3    H224800   2.951   7.633   3.531
 8283TIP3   OH224801   4.657   7.860   3.661
 8283TIP3    H124802   4.572   7.903   3.640
 8283TIP3    H224803   4.648   7.855   3.758
 8284TIP3   OH224804   3.312   7.476   3.936
 8284TIP3    H124805   3.252   7.512   3.868
 8284TIP3    H224806   3.258   7.490   4.016
 8285TIP3   OH224807   4.195   7.603   3.273
 8285TIP3    H124808   4.183   7.550   3.353
 8285TIP3    H224809   4.253   7.675   3.304
 8286TIP3   OH224810   3.188   7.591   3.718
 8286TIP3    H124811   3.246   7.667   3.739
 8286TIP3    H224812   3.237   7.552   3.642
 8287TIP3   OH224813   4.366   7.566   3.666
 8287TIP3    H124814   4.280   7.581   3.625
 8287TIP3    H224815   4.429   7.592   3.595
 8288TIP3   OH224816   3.661   7.196   3.647
 8288TIP3    H124817   3.649   7.101   3.667
 8288TIP3    H224818   3.584   7.233   3.696
 8289TIP3   OH224819   3.551   7.727   2.633
 8289TIP3    H124820   3.502   7.738   2.715
 8289TIP3    H224821   3.536   7.634   2.613
 8290TIP3   OH224822   4.299   7.137   2.752
 8290TIP3    H124823   4.219   7.160   2.802
 8290TIP3    H224824   4.318   7.222   2.706
 8291TIP3   OH224825   4.436   8.017   4.039
 8291TIP3    H124826   4.386   8.046   3.961
 8291TIP3    H224827   4.446   7.922   4.023
 8292TIP3   OH224828   3.428   7.272   3.780
 8292TIP3    H124829   3.340   7.240   3.750
 8292TIP3    H224830   3.399   7.351   3.831
 8293TIP3   OH224831   3.950   7.391   3.969
 8293TIP3    H124832   4.016   7.380   4.039
 8293TIP3    H224833   3.866   7.369   4.015
 8294TIP3   OH224834   4.198   7.836   3.895
 8294TIP3    H124835   4.156   7.806   3.979
 8294TIP3    H224836   4.135   7.902   3.864
 8295TIP3   OH224837   3.580   7.317   2.751
 8295TIP3    H124838   3.543   7.309   2.841
 8295TIP3    H224839   3.536   7.240   2.710
 8296TIP3   OH224840   3.362   7.803   3.797
 8296TIP3    H124841   3.309   7.811   3.879
 8296TIP3    H224842   3.338   7.884   3.750
 8297TIP3   OH224843   3.227   7.648   3.301
 8297TIP3    H124844   3.136   7.612   3.315
 8297TIP3    H224845   3.248   7.606   3.215
 8298TIP3   OH224846   3.743   7.736   3.012
 8298TIP3    H124847   3.665   7.787   3.044
 8298TIP3    H224848   3.729   7.751   2.917
 8299TIP3   OH224849   3.901   7.988   4.136
 8299TIP3    H124850   3.855   7.922   4.191
 8299TIP3    H224851   3.986   7.992   4.182
 8300TIP3   OH224852   3.219   7.805   4.030
 8300TIP3    H124853   3.178   7.864   4.094
 8300TIP3    H224854   3.189   7.718   4.062
 8301TIP3   OH224855   3.222   7.300   2.726
 8301TIP3    H124856   3.211   7.287   2.822
 8301TIP3    H224857   3.133   7.331   2.700
 8302TIP3   OH224858   2.770   7.339   3.583
 8302TIP3    H124859   2.845   7.369   3.638
 8302TIP3    H224860   2.811   7.299   3.505
 8303TIP3   OH224861   2.746   7.314   3.101
 8303TIP3    H124862   2.794   7.354   3.027
 8303TIP3    H224863   2.683   7.384   3.125
 8304TIP3   OH224864   3.580   7.514   3.382
 8304TIP3    H124865   3.494   7.504   3.429
 8304TIP3    H224866   3.642   7.474   3.445
 8305TIP3   OH224867   2.991   7.543   3.376
 8305TIP3    H124868   2.896   7.557   3.353
 8305TIP3    H224869   3.004   7.448   3.363
 8306TIP3   OH224870   3.280   7.534   3.064
 8306TIP3    H124871   3.371   7.565   3.047
 8306TIP3    H224872   3.225   7.577   2.995
 8307TIP3   OH224873   4.056   7.585   3.570
 8307TIP3    H124874   4.031   7.595   3.665
 8307TIP3    H224875   3.996   7.513   3.543
 8308TIP3   OH224876   3.087   7.550   2.870
 8308TIP3    H124877   2.995   7.530   2.847
 8308TIP3    H224878   3.135   7.504   2.800
 8309TIP3   OH224879   3.709   7.798   3.477
 8309TIP3    H124880   3.689   7.706   3.457
 8309TIP3    H224881   3.682   7.803   3.571
 8310TIP3   OH224882   3.177   7.306   3.354
 8310TIP3    H124883   3.135   7.232   3.404
 8310TIP3    H224884   3.215   7.259   3.279
 8311TIP3   OH224885   3.626   7.724   3.746
 8311TIP3    H124886   3.536   7.759   3.764
 8311TIP3    H224887   3.683   7.779   3.804
 8312TIP3   OH224888   3.815   7.443   2.733
 8312TIP3    H124889   3.727   7.399   2.734
 8312TIP3    H224890   3.799   7.518   2.674
 8313TIP3   OH224891   3.987   7.688   2.855
 8313TIP3    H124892   4.044   7.629   2.804
 8313TIP3    H224893   3.931   7.723   2.781
 8314TIP3   OH224894   4.342   7.758   2.661
 8314TIP3    H124895   4.269   7.729   2.603
 8314TIP3    H224896   4.390   7.820   2.601
 8315TIP3   OH224897   3.146   7.553   4.147
 8315TIP3    H124898   3.049   7.560   4.160
 8315TIP3    H224899   3.173   7.500   4.224
 8316TIP3   OH224900   3.989   7.628   3.835
 8316TIP3    H124901   4.069   7.657   3.881
 8316TIP3    H224902   3.969   7.545   3.883
 8317TIP3   OH224903   3.866   7.395   3.004
 8317TIP3    H124904   3.833   7.404   2.912
 8317TIP3    H224905   3.960   7.413   2.993
 8318TIP3   OH224906   3.554   7.550   3.109
 8318TIP3    H124907   3.631   7.606   3.091
 8318TIP3    H224908   3.555   7.546   3.207
 8319TIP3   OH224909   3.800   7.854   3.913
 8319TIP3    H124910   3.836   7.902   3.990
 8319TIP3    H224911   3.867   7.784   3.900
 8320TIP3   OH224912   3.695   7.280   3.202
 8320TIP3    H124913   3.699   7.350   3.270
 8320TIP3    H224914   3.755   7.318   3.134
 8321TIP3   OH224915   3.214   7.275   2.998
 8321TIP3    H124916   3.217   7.367   3.032
 8321TIP3    H224917   3.309   7.254   3.004
 8322TIP3   OH224918   4.466   7.777   3.871
 8322TIP3    H124919   4.369   7.790   3.876
 8322TIP3    H224920   4.470   7.692   3.824
 8323TIP3   OH224921   4.116   7.965   3.284
 8323TIP3    H124922   4.070   7.934   3.366
 8323TIP3    H224923   4.201   7.918   3.297
 8324TIP3   OH224924   2.783   7.469   2.866
 8324TIP3    H124925   2.757   7.546   2.920
 8324TIP3    H224926   2.697   7.437   2.836
 8325TIP3   OH224927   3.167   7.190   3.750
 8325TIP3    H124928   3.133   7.156   3.664
 8325TIP3    H224929   3.154   7.113   3.809
 8326TIP3   OH224930   3.560   7.748   4.176
 8326TIP3    H124931   3.570   7.662   4.130
 8326TIP3    H224932   3.524   7.801   4.104
 8327TIP3   OH224933   3.570   7.551   3.982
 8327TIP3    H124934   3.597   7.592   3.897
 8327TIP3    H224935   3.476   7.530   3.965
 8328TIP3   OH224936   4.178   8.019   4.223
 8328TIP3    H124937   4.230   7.937   4.226
 8328TIP3    H224938   4.238   8.081   4.269
 8329TIP3   OH224939   3.439   7.875   4.395
 8329TIP3    H124940   3.366   7.815   4.421
 8329TIP3    H224941   3.473   7.831   4.315
 8330TIP3   OH224942   3.697   7.315   4.056
 8330TIP3    H124943   3.646   7.395   4.030
 8330TIP3    H224944   3.630   7.245   4.042
 8331TIP3   OH224945   3.818   7.776   4.277
 8331TIP3    H124946   3.799   7.775   4.373
 8331TIP3    H224947   3.729   7.757   4.244
 8332TIP3   OH224948   4.069   7.740   4.115
 8332TIP3    H124949   3.997   7.742   4.181
 8332TIP3    H224950   4.147   7.718   4.171
 8333TIP3   OH224951   4.293   7.705   4.266
 8333TIP3    H124952   4.330   7.614   4.266
 8333TIP3    H224953   4.296   7.731   4.360
 8334TIP3   OH224954   3.282   7.651   4.457
 8334TIP3    H124955   3.283   7.557   4.430
 8334TIP3    H224956   3.317   7.644   4.548
 8335TIP3   OH224957   3.795   7.320   4.312
 8335TIP3    H124958   3.869   7.258   4.298
 8335TIP3    H224959   3.752   7.317   4.224
 8336TIP3   OH224960   3.857   7.539   4.473
 8336TIP3    H124961   3.838   7.470   4.407
 8336TIP3    H224962   3.778   7.596   4.467
 8337TIP3   OH224963   4.168   7.677   2.470
 8337TIP3    H124964   4.163   7.694   2.375
 8337TIP3    H224965   4.136   7.584   2.472
 8338TIP3   OH224966   4.652   8.169   3.959
 8338TIP3    H124967   4.562   8.131   3.968
 8338TIP3    H224968   4.704   8.087   3.947
 8339TIP3   OH224969   4.113   7.407   2.468
 8339TIP3    H124970   4.192   7.372   2.515
 8339TIP3    H224971   4.045   7.339   2.481
 8340TIP3   OH224972   4.336   7.824   3.369
 8340TIP3    H124973   4.420   7.862   3.334
 8340TIP3    H224974   4.350   7.845   3.464
 8341TIP3   OH224975   4.390   7.963   3.601
 8341TIP3    H124976   4.299   7.983   3.628
 8341TIP3    H224977   4.419   8.044   3.556
 8342TIP3   OH224978   3.014   7.700   4.429
 8342TIP3    H124979   3.112   7.699   4.430
 8342TIP3    H224980   2.996   7.609   4.462
 8343TIP3   OH224981   4.283   7.403   2.931
 8343TIP3    H124982   4.321   7.406   3.021
 8343TIP3    H224983   4.219   7.330   2.941
 8344TIP3   OH224984   2.978   7.396   3.759
 8344TIP3    H124985   3.043   7.324   3.768
 8344TIP3    H224986   3.036   7.473   3.751
 8345TIP3   OH224987   2.777   7.687   3.841
 8345TIP3    H124988   2.826   7.678   3.756
 8345TIP3    H224989   2.798   7.778   3.864
 8346TIP3   OH224990   4.731   7.705   4.000
 8346TIP3    H124991   4.650   7.738   4.043
 8346TIP3    H224992   4.696   7.624   3.958
 8347TIP3   OH224993   4.361   7.343   2.575
 8347TIP3    H124994   4.401   7.272   2.520
 8347TIP3    H224995   4.429   7.413   2.572
 8348TIP3   OH224996   2.766   7.180   3.337
 8348TIP3    H124997   2.673   7.169   3.364
 8348TIP3    H224998   2.757   7.235   3.256
 8349TIP3   OH224999   2.985   7.253   4.146
 8349TIP3    H125000   2.934   7.252   4.229
 8349TIP3    H225001   2.920   7.293   4.086
 8350TIP3   OH225002   4.625   7.476   3.864
 8350TIP3    H125003   4.547   7.469   3.924
 8350TIP3    H225004   4.653   7.382   3.863
 8351TIP3   OH225005   3.816   7.382   3.481
 8351TIP3    H125006   3.782   7.313   3.541
 8351TIP3    H225007   3.897   7.342   3.446
 8352TIP3   OH225008   4.347   7.264   3.388
 8352TIP3    H125009   4.384   7.320   3.316
 8352TIP3    H225010   4.254   7.291   3.390
 8353TIP3   OH225011   4.442   7.374   3.158
 8353TIP3    H125012   4.515   7.323   3.117
 8353TIP3    H225013   4.475   7.466   3.141
 8354TIP3   OH225014   3.074   7.098   3.503
 8354TIP3    H125015   2.981   7.065   3.507
 8354TIP3    H225016   3.121   7.013   3.499
 8355TIP3   OH225017   2.869   6.970   3.158
 8355TIP3    H125018   2.889   7.027   3.083
 8355TIP3    H225019   2.836   7.034   3.224
 8356TIP3   OH225020   3.520   7.128   3.386
 8356TIP3    H125021   3.580   7.176   3.326
 8356TIP3    H225022   3.543   7.166   3.472
 8357TIP3   OH225023   4.058   7.275   3.367
 8357TIP3    H125024   4.075   7.226   3.285
 8357TIP3    H225025   4.048   7.200   3.430
 8358TIP3   OH225026   4.091   7.196   2.935
 8358TIP3    H125027   3.996   7.210   2.932
 8358TIP3    H225028   4.094   7.111   2.983
 8359TIP3   OH225029   2.980   7.131   2.911
 8359TIP3    H125030   3.026   7.062   2.859
 8359TIP3    H225031   3.055   7.176   2.955
 8360TIP3   OH225032   3.492   7.301   3.011
 8360TIP3    H125033   3.545   7.252   3.075
 8360TIP3    H225034   3.507   7.392   3.042
 8361TIP3   OH225035   3.279   7.379   4.394
 8361TIP3    H125036   3.241   7.309   4.451
 8361TIP3    H225037   3.373   7.378   4.425
 8362TIP3   OH225038   3.529   7.376   4.513
 8362TIP3    H125039   3.614   7.354   4.473
 8362TIP3    H225040   3.520   7.309   4.584
 8363TIP3   OH225041   4.532   7.876   2.824
 8363TIP3    H125042   4.488   7.960   2.839
 8363TIP3    H225043   4.459   7.820   2.793
 8364TIP3   OH225044   5.799   8.111   2.992
 8364TIP3    H125045   5.830   8.036   3.046
 8364TIP3    H225046   5.741   8.065   2.929
 8365TIP3   OH225047   5.113   7.748   2.986
 8365TIP3    H125048   5.091   7.816   2.920
 8365TIP3    H225049   5.066   7.671   2.947
 8366TIP3   OH225050   5.802   7.843   2.608
 8366TIP3    H125051   5.876   7.826   2.672
 8366TIP3    H225052   5.855   7.875   2.531
 8367TIP3   OH225053   4.738   7.940   3.100
 8367TIP3    H125054   4.825   7.925   3.141
 8367TIP3    H225055   4.747   7.891   3.017
 8368TIP3   OH225056   5.108   7.733   3.422
 8368TIP3    H125057   5.048   7.770   3.354
 8368TIP3    H225058   5.054   7.747   3.503
 8369TIP3   OH225059   6.008   7.829   2.781
 8369TIP3    H125060   5.984   7.795   2.869
 8369TIP3    H225061   6.089   7.879   2.798
 8370TIP3   OH225062   4.982   7.849   3.205
 8370TIP3    H125063   5.042   7.924   3.227
 8370TIP3    H225064   5.032   7.809   3.130
 8371TIP3   OH225065   6.174   7.810   3.150
 8371TIP3    H125066   6.086   7.837   3.121
 8371TIP3    H225067   6.228   7.823   3.069
 8372TIP3   OH225068   5.459   7.450   3.136
 8372TIP3    H125069   5.445   7.355   3.156
 8372TIP3    H225070   5.383   7.489   3.183
 8373TIP3   OH225071   5.348   7.957   2.141
 8373TIP3    H125072   5.283   7.979   2.208
 8373TIP3    H225073   5.305   7.882   2.098
 8374TIP3   OH225074   6.091   7.392   2.236
 8374TIP3    H125075   6.013   7.406   2.292
 8374TIP3    H225076   6.099   7.477   2.192
 8375TIP3   OH225077   5.223   7.528   3.266
 8375TIP3    H125078   5.135   7.497   3.238
 8375TIP3    H225079   5.197   7.608   3.316
 8376TIP3   OH225080   5.759   7.643   3.460
 8376TIP3    H125081   5.829   7.615   3.523
 8376TIP3    H225082   5.677   7.623   3.508
 8377TIP3   OH225083   6.008   8.076   3.378
 8377TIP3    H125084   5.955   8.070   3.460
 8377TIP3    H225085   5.981   8.162   3.342
 8378TIP3   OH225086   5.375   7.580   2.236
 8378TIP3    H125087   5.344   7.569   2.328
 8378TIP3    H225088   5.334   7.500   2.196
 8379TIP3   OH225089   5.154   8.059   3.282
 8379TIP3    H125090   5.098   8.072   3.362
 8379TIP3    H225091   5.145   8.143   3.236
 8380TIP3   OH225092   5.022   7.905   2.787
 8380TIP3    H125093   4.933   7.866   2.802
 8380TIP3    H225094   5.045   7.862   2.701
 8381TIP3   OH225095   5.527   7.997   2.555
 8381TIP3    H125096   5.451   8.044   2.514
 8381TIP3    H225097   5.584   7.972   2.482
 8382TIP3   OH225098   5.700   8.250   3.621
 8382TIP3    H125099   5.653   8.182   3.675
 8382TIP3    H225100   5.788   8.246   3.664
 8383TIP3   OH225101   5.665   8.011   2.780
 8383TIP3    H125102   5.595   8.018   2.712
 8383TIP3    H225103   5.722   7.946   2.733
 8384TIP3   OH225104   5.005   8.064   3.514
 8384TIP3    H125105   4.981   8.120   3.588
 8384TIP3    H225106   4.983   7.975   3.549
 8385TIP3   OH225107   5.018   7.557   2.211
 8385TIP3    H125108   5.010   7.543   2.308
 8385TIP3    H225109   4.930   7.589   2.186
 8386TIP3   OH225110   4.569   7.596   3.071
 8386TIP3    H125111   4.644   7.626   3.127
 8386TIP3    H225112   4.611   7.557   2.993
 8387TIP3   OH225113   4.540   7.569   2.588
 8387TIP3    H125114   4.588   7.607   2.513
 8387TIP3    H225115   4.480   7.642   2.614
 8388TIP3   OH225116   5.367   7.743   2.864
 8388TIP3    H125117   5.287   7.749   2.920
 8388TIP3    H225118   5.438   7.753   2.929
 8389TIP3   OH225119   4.787   7.798   2.865
 8389TIP3    H125120   4.692   7.807   2.843
 8389TIP3    H225121   4.805   7.704   2.850
 8390TIP3   OH225122   5.074   7.789   2.550
 8390TIP3    H125123   5.168   7.813   2.544
 8390TIP3    H225124   5.029   7.848   2.487
 8391TIP3   OH225125   5.859   7.825   3.059
 8391TIP3    H125126   5.830   7.841   3.151
 8391TIP3    H225127   5.787   7.768   3.028
 8392TIP3   OH225128   4.876   7.814   2.353
 8392TIP3    H125129   4.789   7.783   2.321
 8392TIP3    H225130   4.935   7.757   2.303
 8393TIP3   OH225131   5.460   8.065   2.961
 8393TIP3    H125132   5.544   8.033   2.925
 8393TIP3    H225133   5.469   8.050   3.056
 8394TIP3   OH225134   4.968   7.565   2.840
 8394TIP3    H125135   4.930   7.489   2.889
 8394TIP3    H225136   5.017   7.520   2.770
 8395TIP3   OH225137   5.421   7.968   3.247
 8395TIP3    H125138   5.334   8.012   3.249
 8395TIP3    H225139   5.478   8.030   3.298
 8396TIP3   OH225140   5.613   7.709   2.228
 8396TIP3    H125141   5.524   7.667   2.227
 8396TIP3    H225142   5.607   7.769   2.153
 8397TIP3   OH225143   4.942   7.816   3.632
 8397TIP3    H125144   4.845   7.821   3.646
 8397TIP3    H225145   4.969   7.760   3.706
 8398TIP3   OH225146   5.790   7.882   3.319
 8398TIP3    H125147   5.865   7.921   3.366
 8398TIP3    H225148   5.773   7.801   3.372
 8399TIP3   OH225149   5.668   7.628   2.492
 8399TIP3    H125150   5.654   7.659   2.400
 8399TIP3    H225151   5.712   7.706   2.533
 8400TIP3   OH225152   5.342   7.801   2.599
 8400TIP3    H125153   5.413   7.868   2.592
 8400TIP3    H225154   5.342   7.786   2.697
 8401TIP3   OH225155   5.591   8.109   3.407
 8401TIP3    H125156   5.632   8.161   3.478
 8401TIP3    H225157   5.663   8.046   3.385
 8402TIP3   OH225158   5.492   7.531   2.690
 8402TIP3    H125159   5.488   7.606   2.752
 8402TIP3    H225160   5.555   7.566   2.624
 8403TIP3   OH225161   5.009   7.532   2.483
 8403TIP3    H125162   5.014   7.623   2.518
 8403TIP3    H225163   5.104   7.508   2.490
 8404TIP3   OH225164   6.281   8.021   3.324
 8404TIP3    H125165   6.198   8.056   3.364
 8404TIP3    H225166   6.243   7.949   3.271
 8405TIP3   OH225167   5.893   8.200   2.732
 8405TIP3    H125168   5.844   8.158   2.805
 8405TIP3    H225169   5.976   8.220   2.776
 8406TIP3   OH225170   4.580   7.721   2.352
 8406TIP3    H125171   4.564   7.805   2.398
 8406TIP3    H225172   4.492   7.696   2.322
 8407TIP3   OH225173   4.958   7.448   3.238
 8407TIP3    H125174   4.928   7.412   3.152
 8407TIP3    H225175   4.949   7.371   3.297
 8408TIP3   OH225176   5.356   8.006   3.663
 8408TIP3    H125177   5.364   7.918   3.619
 8408TIP3    H225178   5.336   8.061   3.586
 8409TIP3   OH225179   5.366   7.806   3.474
 8409TIP3    H125180   5.394   7.849   3.391
 8409TIP3    H225181   5.272   7.785   3.453
 8410TIP3   OH225182   5.986   8.281   3.704
 8410TIP3    H125183   6.032   8.197   3.719
 8410TIP3    H225184   6.036   8.342   3.763
 8411TIP3   OH225185   5.237   8.131   3.885
 8411TIP3    H125186   5.164   8.069   3.907
 8411TIP3    H225187   5.270   8.091   3.802
 8412TIP3   OH225188   5.497   7.569   3.538
 8412TIP3    H125189   5.446   7.650   3.514
 8412TIP3    H225190   5.429   7.500   3.526
 8413TIP3   OH225191   5.615   8.037   3.763
 8413TIP3    H125192   5.597   8.033   3.858
 8413TIP3    H225193   5.526   8.015   3.729
 8414TIP3   OH225194   5.863   8.003   3.602
 8414TIP3    H125195   5.790   7.999   3.667
 8414TIP3    H225196   5.941   7.982   3.658
 8415TIP3   OH225197   6.093   7.965   3.753
 8415TIP3    H125198   6.106   7.870   3.772
 8415TIP3    H225199   6.088   8.004   3.843
 8416TIP3   OH225200   5.077   7.913   3.945
 8416TIP3    H125201   5.084   7.821   3.912
 8416TIP3    H225202   5.111   7.903   4.036
 8417TIP3   OH225203   5.587   7.586   3.796
 8417TIP3    H125204   5.653   7.514   3.795
 8417TIP3    H225205   5.551   7.577   3.705
 8418TIP3   OH225206   5.657   7.797   3.958
 8418TIP3    H125207   5.640   7.726   3.893
 8418TIP3    H225208   5.577   7.852   3.951
 8419TIP3   OH225209   5.891   7.676   1.975
 8419TIP3    H125210   5.968   7.625   1.947
 8419TIP3    H225211   5.818   7.614   1.962
 8420TIP3   OH225212   5.946   7.909   2.389
 8420TIP3    H125213   5.985   7.819   2.396
 8420TIP3    H225214   6.017   7.959   2.348
 8421TIP3   OH225215   4.810   7.954   3.919
 8421TIP3    H125216   4.908   7.951   3.919
 8421TIP3    H225217   4.788   7.863   3.948
 8422TIP3   OH225218   6.636   7.817   3.680
 8422TIP3    H125219   6.699   7.758   3.635
 8422TIP3    H225220   6.604   7.872   3.605
 8423TIP3   OH225221   6.062   7.667   2.444
 8423TIP3    H125222   6.106   7.649   2.530
 8423TIP3    H225223   6.003   7.589   2.437
 8424TIP3   OH225224   4.773   7.657   3.251
 8424TIP3    H125225   4.835   7.581   3.260
 8424TIP3    H225226   4.837   7.730   3.239
 8425TIP3   OH225227   4.567   7.964   3.315
 8425TIP3    H125228   4.621   7.950   3.234
 8425TIP3    H225229   4.631   8.006   3.374
 8426TIP3   OH225230   6.505   7.952   3.486
 8426TIP3    H125231   6.437   8.020   3.477
 8426TIP3    H225232   6.474   7.886   3.422
 8427TIP3   OH225233   4.558   7.435   2.823
 8427TIP3    H125234   4.465   7.430   2.853
 8427TIP3    H225235   4.550   7.492   2.743
 8428TIP3   OH225236   4.780   7.515   3.631
 8428TIP3    H125237   4.726   7.506   3.712
 8428TIP3    H225238   4.713   7.551   3.570
 8429TIP3   OH225239   6.413   7.722   3.357
 8429TIP3    H125240   6.321   7.713   3.326
 8429TIP3    H225241   6.446   7.630   3.346
 8430TIP3   OH225242   5.625   7.645   2.976
 8430TIP3    H125243   5.579   7.576   3.027
 8430TIP3    H225244   5.698   7.596   2.934
 8431TIP3   OH225245   6.144   7.527   2.884
 8431TIP3    H125246   6.178   7.580   2.809
 8431TIP3    H225247   6.047   7.540   2.875
 8432TIP3   OH225248   6.247   7.638   2.655
 8432TIP3    H125249   6.306   7.570   2.614
 8432TIP3    H225250   6.304   7.716   2.643
 8433TIP3   OH225251   4.869   7.354   2.989
 8433TIP3    H125252   4.777   7.321   2.995
 8433TIP3    H225253   4.918   7.269   2.986
 8434TIP3   OH225254   4.656   7.227   2.642
 8434TIP3    H125255   4.686   7.284   2.569
 8434TIP3    H225256   4.630   7.292   2.710
 8435TIP3   OH225257   5.315   7.387   2.874
 8435TIP3    H125258   5.372   7.435   2.812
 8435TIP3    H225259   5.341   7.425   2.959
 8436TIP3   OH225260   5.861   7.532   2.853
 8436TIP3    H125261   5.863   7.487   2.768
 8436TIP3    H225262   5.848   7.456   2.915
 8437TIP3   OH225263   5.887   7.453   2.419
 8437TIP3    H125264   5.800   7.494   2.436
 8437TIP3    H225265   5.876   7.367   2.465
 8438TIP3   OH225266   4.777   7.387   2.399
 8438TIP3    H125267   4.823   7.319   2.346
 8438TIP3    H225268   4.851   7.433   2.442
 8439TIP3   OH225269   5.289   7.552   2.497
 8439TIP3    H125270   5.346   7.505   2.560
 8439TIP3    H225271   5.303   7.644   2.529
 8440TIP3   OH225272   5.098   7.652   3.875
 8440TIP3    H125273   5.040   7.588   3.916
 8440TIP3    H225274   5.186   7.630   3.912
 8441TIP3   OH225275   5.350   7.605   4.013
 8441TIP3    H125276   5.413   7.624   3.942
 8441TIP3    H225277   5.397   7.527   4.052
 8442TIP3   OH225278   6.153   7.695   3.791
 8442TIP3    H125279   6.172   7.663   3.882
 8442TIP3    H225280   6.242   7.689   3.750
 8443TIP3   OH225281   6.566   7.766   3.121
 8443TIP3    H125282   6.521   7.760   3.208
 8443TIP3    H225283   6.493   7.794   3.063
 8444TIP3   OH225284   2.100   0.625   6.978
 8444TIP3    H125285   2.176   0.572   7.003
 8444TIP3    H225286   2.095   0.610   6.882
 8445TIP3   OH225287   2.404   1.178   6.557
 8445TIP3    H125288   2.414   1.274   6.538
 8445TIP3    H225289   2.496   1.147   6.545
 8446TIP3   OH225290   1.712   1.506   7.027
 8446TIP3    H125291   1.665   1.497   6.943
 8446TIP3    H225292   1.681   1.594   7.057
 8447TIP3   OH225293   1.908   1.394   6.676
 8447TIP3    H125294   1.969   1.327   6.640
 8447TIP3    H225295   1.944   1.409   6.766
 8448TIP3   OH225296   1.967   1.450   6.943
 8448TIP3    H125297   1.880   1.460   6.987
 8448TIP3    H225298   2.027   1.444   7.018
 8449TIP3   OH225299   2.149   0.625   6.699
 8449TIP3    H125300   2.136   0.568   6.621
 8449TIP3    H225301   2.237   0.663   6.680
 8450TIP3   OH225302   1.825   0.939   6.879
 8450TIP3    H125303   1.778   1.023   6.898
 8450TIP3    H225304   1.818   0.893   6.963
 8451TIP3   OH225305   2.657   0.445   6.896
 8451TIP3    H125306   2.589   0.393   6.848
 8451TIP3    H225307   2.640   0.532   6.855
 8452TIP3   OH225308   2.334   1.245   6.818
 8452TIP3    H125309   2.316   1.164   6.868
 8452TIP3    H225310   2.355   1.210   6.730
 8453TIP3   OH225311   2.067   0.972   6.723
 8453TIP3    H125312   2.140   0.954   6.787
 8453TIP3    H225313   1.991   0.950   6.780
 8454TIP3   OH225314   2.434   1.453   6.541
 8454TIP3    H125315   2.472   1.524   6.487
 8454TIP3    H225316   2.355   1.501   6.575
 8455TIP3   OH225317   2.263   0.931   6.912
 8455TIP3    H125318   2.230   0.876   6.984
 8455TIP3    H225319   2.360   0.911   6.915
 8456TIP3   OH225320   1.683   1.173   6.920
 8456TIP3    H125321   1.614   1.167   6.987
 8456TIP3    H225322   1.689   1.270   6.906
 8457TIP3   OH225323   1.617   1.151   6.642
 8457TIP3    H125324   1.614   1.129   6.737
 8457TIP3    H225325   1.703   1.116   6.618
 8458TIP3   OH225326   2.051   1.201   6.537
 8458TIP3    H125327   2.099   1.146   6.601
 8458TIP3    H225328   2.110   1.201   6.460
 8459TIP3   OH225329   2.394   0.709   6.584
 8459TIP3    H125330   2.380   0.666   6.498
 8459TIP3    H225331   2.360   0.799   6.562
 8460TIP3   OH225332   1.366   1.428   6.813
 8460TIP3    H125333   1.463   1.430   6.812
 8460TIP3    H225334   1.348   1.491   6.740
 8461TIP3   OH225335   2.537   0.898   6.917
 8461TIP3    H125336   2.606   0.960   6.885
 8461TIP3    H225337   2.579   0.861   6.998
 8462TIP3   OH225338   2.660   0.770   7.125
 8462TIP3    H125339   2.638   0.716   7.202
 8462TIP3    H225340   2.748   0.806   7.151
 8463TIP3   OH225341   2.600   0.678   6.761
 8463TIP3    H125342   2.527   0.679   6.694
 8463TIP3    H225343   2.571   0.751   6.819
 8464TIP3   OH225344   2.476   0.343   6.712
 8464TIP3    H125345   2.421   0.387   6.646
 8464TIP3    H225346   2.440   0.254   6.711
 8465TIP3   OH225347   2.218   1.571   7.095
 8465TIP3    H125348   2.259   1.546   7.010
 8465TIP3    H225349   2.290   1.548   7.156
 8466TIP3   OH225350   1.648   1.408   6.770
 8466TIP3    H125351   1.738   1.425   6.736
 8466TIP3    H225352   1.619   1.340   6.707
 8467TIP3   OH225353   2.371   1.514   6.864
 8467TIP3    H125354   2.364   1.417   6.852
 8467TIP3    H225355   2.327   1.547   6.783
 8468TIP3   OH225356   3.865   1.036   6.817
 8468TIP3    H125357   3.834   1.127   6.796
 8468TIP3    H225358   3.792   0.985   6.778
 8469TIP3   OH225359   3.841   1.051   7.185
 8469TIP3    H125360   3.890   1.024   7.266
 8469TIP3    H225361   3.817   0.964   7.150
 8470TIP3   OH225362   4.109   1.341   6.880
 8470TIP3    H125363   4.095   1.270   6.944
 8470TIP3    H225364   4.143   1.414   6.935
 8471TIP3   OH225365   3.154   1.336   7.285
 8471TIP3    H125366   3.158   1.239   7.269
 8471TIP3    H225367   3.247   1.358   7.266
 8472TIP3   OH225368   2.841   0.531   7.080
 8472TIP3    H125369   2.803   0.620   7.087
 8472TIP3    H225370   2.773   0.487   7.025
 8473TIP3   OH225371   2.919   0.822   7.177
 8473TIP3    H125372   2.956   0.768   7.247
 8473TIP3    H225373   2.995   0.843   7.121
 8474TIP3   OH225374   3.760   1.802   6.898
 8474TIP3    H125375   3.801   1.731   6.845
 8474TIP3    H225376   3.752   1.759   6.984
 8475TIP3   OH225377   3.661   1.261   7.230
 8475TIP3    H125378   3.706   1.181   7.197
 8475TIP3    H225379   3.739   1.312   7.257
 8476TIP3   OH225380   4.075   0.716   7.291
 8476TIP3    H125381   4.130   0.635   7.293
 8476TIP3    H225382   4.049   0.718   7.197
 8477TIP3   OH225383   3.380   0.449   7.281
 8477TIP3    H125384   3.382   0.505   7.200
 8477TIP3    H225385   3.383   0.361   7.238
 8478TIP3   OH225386   4.100   0.548   6.867
 8478TIP3    H125387   4.180   0.534   6.921
 8478TIP3    H225388   4.134   0.537   6.776
 8479TIP3   OH225389   3.482   0.817   7.163
 8479TIP3    H125390   3.577   0.797   7.151
 8479TIP3    H225391   3.442   0.736   7.124
 8480TIP3   OH225392   4.745   0.777   7.430
 8480TIP3    H125393   4.669   0.833   7.402
 8480TIP3    H225394   4.747   0.793   7.525
 8481TIP3   OH225395   3.749   1.255   6.688
 8481TIP3    H125396   3.716   1.243   6.598
 8481TIP3    H225397   3.706   1.339   6.715
 8482TIP3   OH225398   2.735   1.068   6.805
 8482TIP3    H125399   2.699   1.094   6.718
 8482TIP3    H225400   2.768   1.152   6.841
 8483TIP3   OH225401   4.177   1.584   7.047
 8483TIP3    H125402   4.086   1.577   7.082
 8483TIP3    H225403   4.172   1.669   6.999
 8484TIP3   OH225404   3.875   1.627   6.717
 8484TIP3    H125405   3.924   1.544   6.698
 8484TIP3    H225406   3.939   1.692   6.678
 8485TIP3   OH225407   4.019   1.413   6.629
 8485TIP3    H125408   3.997   1.332   6.582
 8485TIP3    H225409   4.056   1.378   6.713
 8486TIP3   OH225410   4.391   1.493   7.393
 8486TIP3    H125411   4.397   1.423   7.324
 8486TIP3    H225412   4.376   1.572   7.336
 8487TIP3   OH225413   3.696   0.895   6.647
 8487TIP3    H125414   3.616   0.946   6.623
 8487TIP3    H225415   3.742   0.887   6.562
 8488TIP3   OH225416   3.647   0.679   6.368
 8488TIP3    H125417   3.715   0.735   6.410
 8488TIP3    H225418   3.706   0.615   6.322
 8489TIP3   OH225419   4.601   1.132   7.237
 8489TIP3    H125420   4.516   1.181   7.240
 8489TIP3    H225421   4.630   1.154   7.146
 8490TIP3   OH225422   4.045   0.972   6.619
 8490TIP3    H125423   3.992   0.994   6.699
 8490TIP3    H225424   4.129   0.945   6.660
 8491TIP3   OH225425   4.269   1.031   7.423
 8491TIP3    H125426   4.255   1.126   7.407
 8491TIP3    H225427   4.179   0.998   7.405
 8492TIP3   OH225428   3.278   0.964   7.036
 8492TIP3    H125429   3.231   0.909   6.969
 8492TIP3    H225430   3.352   0.907   7.062
 8493TIP3   OH225431   3.406   1.373   7.187
 8493TIP3    H125432   3.394   1.348   7.095
 8493TIP3    H225433   3.494   1.333   7.207
 8494TIP3   OH225434   4.911   2.471  -0.199
 8494TIP3    H125435   4.951   2.436  -0.282
 8494TIP3    H225436   4.982   2.532  -0.170
 8495TIP3   OH225437   3.932   1.580   7.163
 8495TIP3    H125438   3.927   1.663   7.215
 8495TIP3    H225439   3.918   1.512   7.230
 8496TIP3   OH225440   3.877   0.839   6.444
 8496TIP3    H125441   3.939   0.898   6.492
 8496TIP3    H225442   3.905   0.854   6.350
 8497TIP3   OH225443   3.627   1.510   6.724
 8497TIP3    H125444   3.711   1.558   6.730
 8497TIP3    H225445   3.570   1.572   6.677
 8498TIP3   OH225446   3.132   0.814   6.856
 8498TIP3    H125447   3.069   0.852   6.792
 8498TIP3    H225448   3.119   0.719   6.843
 8499TIP3   OH225449   4.211   1.433   6.041
 8499TIP3    H125450   4.215   1.530   6.027
 8499TIP3    H225451   4.305   1.408   6.025
 8500TIP3   OH225452   4.641   1.841   7.425
 8500TIP3    H125453   4.643   1.747   7.447
 8500TIP3    H225454   4.559   1.868   7.472
 8501TIP3   OH225455   3.510   1.751   6.526
 8501TIP3    H125456   3.465   1.735   6.440
 8501TIP3    H225457   3.478   1.840   6.551
 8502TIP3   OH225458   2.946   1.602   6.911
 8502TIP3    H125459   2.997   1.592   6.993
 8502TIP3    H225460   2.894   1.520   6.911
 8503TIP3   OH225461   3.709   1.655   6.162
 8503TIP3    H125462   3.769   1.585   6.126
 8503TIP3    H225463   3.745   1.666   6.253
 8504TIP3   OH225464   3.761   1.705   6.431
 8504TIP3    H125465   3.673   1.713   6.474
 8504TIP3    H225466   3.814   1.666   6.503
 8505TIP3   OH225467   3.963   0.872   6.190
 8505TIP3    H125468   3.925   0.851   6.102
 8505TIP3    H225469   4.045   0.919   6.163
 8506TIP3   OH225470   3.336   0.609   7.060
 8506TIP3    H125471   3.246   0.571   7.070
 8506TIP3    H225472   3.358   0.577   6.969
 8507TIP3   OH225473   3.830   0.703   6.791
 8507TIP3    H125474   3.782   0.770   6.738
 8507TIP3    H225475   3.888   0.662   6.724
 8508TIP3   OH225476   3.979   0.731   7.024
 8508TIP3    H125477   3.921   0.759   6.950
 8508TIP3    H225478   4.020   0.655   6.977
 8509TIP3   OH225479   3.356   0.266   6.453
 8509TIP3    H125480   3.321   0.269   6.544
 8509TIP3    H225481   3.290   0.209   6.411
 8510TIP3   OH225482   2.858   0.261   6.843
 8510TIP3    H125483   2.892   0.313   6.767
 8510TIP3    H225484   2.793   0.326   6.876
 8511TIP3   OH225485   3.994   0.958   7.386
 8511TIP3    H125486   4.015   0.865   7.361
 8511TIP3    H225487   3.983   0.955   7.483
 8512TIP3   OH225488   3.650   0.456   7.104
 8512TIP3    H125489   3.574   0.406   7.134
 8512TIP3    H225490   3.719   0.426   7.167
 8513TIP3   OH225491   3.100   0.476   7.125
 8513TIP3    H125492   3.006   0.497   7.104
 8513TIP3    H225493   3.102   0.382   7.101
 8514TIP3   OH225494   3.381   0.506   6.814
 8514TIP3    H125495   3.473   0.490   6.786
 8514TIP3    H225496   3.329   0.494   6.732
 8515TIP3   OH225497   3.214   0.515   6.590
 8515TIP3    H125498   3.147   0.469   6.537
 8515TIP3    H225499   3.270   0.552   6.518
 8516TIP3   OH225500   4.350   2.183   7.521
 8516TIP3    H125501   4.354   2.206   7.426
 8516TIP3    H225502   4.428   2.232   7.555
 8517TIP3   OH225503   3.765   0.752   7.218
 8517TIP3    H125504   3.819   0.730   7.140
 8517TIP3    H225505   3.807   0.695   7.285
 8518TIP3   OH225506   3.461   1.043   6.594
 8518TIP3    H125507   3.391   0.975   6.585
 8518TIP3    H225508   3.443   1.076   6.686
 8519TIP3   OH225509   4.365   1.278   7.223
 8519TIP3    H125510   4.394   1.328   7.143
 8519TIP3    H225511   4.283   1.234   7.191
 8520TIP3   OH225512   3.991   0.393   6.406
 8520TIP3    H125513   3.895   0.374   6.410
 8520TIP3    H225514   3.993   0.475   6.459
 8521TIP3   OH225515   3.988   0.615   6.573
 8521TIP3    H125516   4.085   0.626   6.579
 8521TIP3    H225517   3.960   0.695   6.523
 8522TIP3   OH225518   3.165   1.068   7.260
 8522TIP3    H125519   3.204   1.038   7.175
 8522TIP3    H225520   3.198   1.001   7.321
 8523TIP3   OH225521   3.611   1.190   6.420
 8523TIP3    H125522   3.563   1.276   6.423
 8523TIP3    H225523   3.557   1.136   6.480
 8524TIP3   OH225524   4.013   1.638   7.457
 8524TIP3    H125525   3.921   1.640   7.484
 8524TIP3    H225526   4.059   1.649   7.542
 8525TIP3   OH225527   4.434   0.695   6.396
 8525TIP3    H125528   4.380   0.647   6.328
 8525TIP3    H225529   4.425   0.786   6.357
 8526TIP3   OH225530   4.643   1.548   7.477
 8526TIP3    H125531   4.545   1.540   7.466
 8526TIP3    H225532   4.671   1.521   7.386
 8527TIP3   OH225533   4.127   1.512   6.302
 8527TIP3    H125534   4.117   1.442   6.368
 8527TIP3    H225535   4.155   1.463   6.223
 8528TIP3   OH225536   4.129   1.143   7.143
 8528TIP3    H125537   4.036   1.115   7.148
 8528TIP3    H225538   4.168   1.064   7.101
 8529TIP3   OH225539   3.262   1.372   6.905
 8529TIP3    H125540   3.265   1.451   6.847
 8529TIP3    H225541   3.169   1.348   6.900
 8530TIP3   OH225542   2.826   0.670   6.604
 8530TIP3    H125543   2.872   0.754   6.626
 8530TIP3    H225544   2.750   0.674   6.665
 8531TIP3   OH225545   3.391   1.131   6.840
 8531TIP3    H125546   3.363   1.222   6.861
 8531TIP3    H225547   3.357   1.080   6.916
 8532TIP3   OH225548   3.517   1.731   7.371
 8532TIP3    H125549   3.575   1.786   7.314
 8532TIP3    H225550   3.573   1.716   7.449
 8533TIP3   OH225551   3.179   1.608   6.749
 8533TIP3    H125552   3.094   1.619   6.795
 8533TIP3    H225553   3.213   1.700   6.752
 8534TIP3   OH225554   3.919   1.344   7.328
 8534TIP3    H125555   3.934   1.311   7.417
 8534TIP3    H225556   3.987   1.297   7.278
 8535TIP3   OH225557   3.895   1.240   6.210
 8535TIP3    H125558   3.948   1.216   6.289
 8535TIP3    H225559   3.807   1.210   6.238
 8536TIP3   OH225560   4.160   1.879   7.375
 8536TIP3    H125561   4.082   1.822   7.361
 8536TIP3    H225562   4.149   1.945   7.303
 8537TIP3   OH225563   4.229   1.712   6.026
 8537TIP3    H125564   4.266   1.791   5.981
 8537TIP3    H225565   4.147   1.752   6.062
 8538TIP3   OH225566   4.051   1.175   6.429
 8538TIP3    H125567   4.041   1.107   6.499
 8538TIP3    H225568   4.147   1.167   6.412
 8539TIP3   OH225569   3.255   1.219   6.210
 8539TIP3    H125570   3.271   1.126   6.182
 8539TIP3    H225571   3.234   1.207   6.305
 8540TIP3   OH225572   3.200   1.224   6.483
 8540TIP3    H125573   3.280   1.196   6.530
 8540TIP3    H225574   3.205   1.322   6.490
 8541TIP3   OH225575   2.936   0.915   6.684
 8541TIP3    H125576   2.869   0.960   6.739
 8541TIP3    H225577   2.951   0.982   6.615
 8542TIP3   OH225578   3.468   1.419   6.429
 8542TIP3    H125579   3.381   1.445   6.465
 8542TIP3    H225580   3.485   1.493   6.369
 8543TIP3   OH225581   3.665   0.486   6.831
 8543TIP3    H125582   3.714   0.571   6.825
 8543TIP3    H225583   3.657   0.476   6.928
 8544TIP3   OH225584   3.214   1.496   6.498
 8544TIP3    H125585   3.184   1.566   6.436
 8544TIP3    H225586   3.199   1.540   6.585
 8545TIP3   OH225587   4.211   0.906   7.024
 8545TIP3    H125588   4.142   0.838   7.033
 8545TIP3    H225589   4.289   0.862   7.067
 8546TIP3   OH225590   2.931   1.122   6.487
 8546TIP3    H125591   3.004   1.187   6.497
 8546TIP3    H225592   2.973   1.063   6.421
 8547TIP3   OH225593   2.872   0.400   6.611
 8547TIP3    H125594   2.878   0.497   6.608
 8547TIP3    H225595   2.786   0.384   6.571
 8548TIP3   OH225596   4.187   1.854   6.968
 8548TIP3    H125597   4.144   1.901   6.893
 8548TIP3    H225598   4.281   1.874   6.948
 8549TIP3   OH225599   2.798   1.342   6.877
 8549TIP3    H125600   2.722   1.372   6.929
 8549TIP3    H225601   2.775   1.381   6.789
 8550TIP3   OH225602   3.420   1.420   6.119
 8550TIP3    H125603   3.365   1.348   6.157
 8550TIP3    H225604   3.496   1.369   6.087
 8551TIP3   OH225605   3.857   1.460   6.033
 8551TIP3    H125606   3.898   1.397   6.096
 8551TIP3    H225607   3.915   1.455   5.956
 8552TIP3   OH225608   3.065   0.937   6.345
 8552TIP3    H125609   3.122   0.903   6.416
 8552TIP3    H225610   3.131   0.942   6.272
 8553TIP3   OH225611   3.578   1.139   6.151
 8553TIP3    H125612   3.582   1.150   6.248
 8553TIP3    H225613   3.581   1.041   6.144
 8554TIP3   OH225614   4.192   1.315   7.474
 8554TIP3    H125615   4.273   1.358   7.440
 8554TIP3    H225616   4.132   1.390   7.478
 8555TIP3   OH225617   3.272   0.842   6.564
 8555TIP3    H125618   3.252   0.790   6.643
 8555TIP3    H225619   3.313   0.773   6.506
 8556TIP3   OH225620   3.374   0.642   6.405
 8556TIP3    H125621   3.352   0.639   6.309
 8556TIP3    H225622   3.472   0.641   6.401
 8557TIP3   OH225623   4.193   0.965   6.070
 8557TIP3    H125624   4.173   0.925   5.983
 8557TIP3    H225625   4.163   1.057   6.051
 8558TIP3   OH225626   3.183   1.699   6.311
 8558TIP3    H125627   3.279   1.690   6.292
 8558TIP3    H225628   3.156   1.751   6.233
 8559TIP3   OH225629   2.662   1.080   6.527
 8559TIP3    H125630   2.756   1.102   6.510
 8559TIP3    H225631   2.656   0.991   6.486
 8560TIP3   OH225632   2.574   1.696   6.930
 8560TIP3    H125633   2.508   1.632   6.896
 8560TIP3    H225634   2.619   1.641   6.997
 8561TIP3   OH225635   2.702   1.551   7.121
 8561TIP3    H125636   2.672   1.477   7.176
 8561TIP3    H225637   2.768   1.596   7.178
 8562TIP3   OH225638   4.440   1.944   6.929
 8562TIP3    H125639   4.469   1.979   7.016
 8562TIP3    H225640   4.505   1.984   6.869
 8563TIP3   OH225641   4.468   1.965   7.211
 8563TIP3    H125642   4.428   1.876   7.206
 8563TIP3    H225643   4.545   1.945   7.267
 8564TIP3   OH225644   4.323   1.150   6.401
 8564TIP3    H125645   4.377   1.226   6.370
 8564TIP3    H225646   4.377   1.118   6.476
 8565TIP3   OH225647   4.461   1.021   6.606
 8565TIP3    H125648   4.394   0.981   6.665
 8565TIP3    H225649   4.527   1.057   6.668
 8566TIP3   OH225650   4.514   1.413   7.037
 8566TIP3    H125651   4.566   1.344   6.990
 8566TIP3    H225652   4.516   1.487   6.973
 8567TIP3   OH225653   4.343   1.713   7.234
 8567TIP3    H125654   4.270   1.759   7.279
 8567TIP3    H225655   4.296   1.668   7.160
 8568TIP3   OH225656   4.394   0.925   6.252
 8568TIP3    H125657   4.326   0.934   6.181
 8568TIP3    H225658   4.369   1.003   6.307
 8569TIP3   OH225659   4.280   0.597   6.196
 8569TIP3    H125660   4.226   0.658   6.145
 8569TIP3    H225661   4.230   0.514   6.185
 8570TIP3   OH225662   4.273   0.884   6.757
 8570TIP3    H125663   4.286   0.788   6.752
 8570TIP3    H225664   4.256   0.898   6.852
 8571TIP3   OH225665   4.557   1.293   7.594
 8571TIP3    H125666   4.622   1.225   7.577
 8571TIP3    H225667   4.595   1.370   7.550
 8572TIP3   OH225668   4.262   0.606   6.608
 8572TIP3    H125669   4.322   0.567   6.674
 8572TIP3    H225670   4.323   0.626   6.534
 8573TIP3   OH225671   4.433   0.799   7.136
 8573TIP3    H125672   4.521   0.809   7.096
 8573TIP3    H225673   4.455   0.814   7.230
 8574TIP3   OH225674   4.513   0.908   7.378
 8574TIP3    H125675   4.424   0.936   7.409
 8574TIP3    H225676   4.540   0.987   7.327
 8575TIP3   OH225677   4.023   1.811   6.583
 8575TIP3    H125678   4.075   1.800   6.500
 8575TIP3    H225679   4.077   1.876   6.631
 8576TIP3   OH225680   3.930   2.024   7.525
 8576TIP3    H125681   3.984   1.976   7.460
 8576TIP3    H225682   3.986   2.103   7.542
 8577TIP3   OH225683   3.199   1.880   7.372
 8577TIP3    H125684   3.115   1.906   7.410
 8577TIP3    H225685   3.192   1.914   7.281
 8578TIP3   OH225686   3.645   1.912   7.193
 8578TIP3    H125687   3.572   1.927   7.130
 8578TIP3    H225688   3.650   1.999   7.236
 8579TIP3   OH225689   3.910   1.850   7.249
 8579TIP3    H125690   3.817   1.870   7.227
 8579TIP3    H225691   3.957   1.920   7.199
 8580TIP3   OH225692   4.113   2.039   7.160
 8580TIP3    H125693   4.100   2.124   7.114
 8580TIP3    H225694   4.143   1.981   7.087
 8581TIP3   OH225695   2.891   1.692   7.275
 8581TIP3    H125696   2.927   1.719   7.361
 8581TIP3    H225697   2.968   1.648   7.232
 8582TIP3   OH225698   3.091   1.566   7.141
 8582TIP3    H125699   3.111   1.480   7.183
 8582TIP3    H225700   3.181   1.605   7.134
 8583TIP3   OH225701   3.352   1.664   7.149
 8583TIP3    H125702   3.393   1.577   7.136
 8583TIP3    H225703   3.395   1.690   7.233
 8584TIP3   OH225704   2.677   1.473   6.675
 8584TIP3    H125705   2.591   1.441   6.642
 8584TIP3    H225706   2.669   1.567   6.651
 8585TIP3   OH225707   3.451   1.655   6.258
 8585TIP3    H125708   3.539   1.678   6.222
 8585TIP3    H225709   3.428   1.581   6.197
 8586TIP3   OH225710   4.169   1.777   6.350
 8586TIP3    H125711   4.158   1.679   6.340
 8586TIP3    H225712   4.122   1.808   6.271
 8587TIP3   OH225713   2.753   1.492   6.311
 8587TIP3    H125714   2.760   1.517   6.404
 8587TIP3    H225715   2.841   1.449   6.294
 8588TIP3   OH225716   4.398   1.912   7.528
 8588TIP3    H125717   4.314   1.892   7.482
 8588TIP3    H225718   4.386   2.007   7.546
 8589TIP3   OH225719   5.664   1.295   6.300
 8589TIP3    H125720   5.633   1.386   6.280
 8589TIP3    H225721   5.587   1.243   6.271
 8590TIP3   OH225722   5.659   1.292   6.686
 8590TIP3    H125723   5.693   1.273   6.776
 8590TIP3    H225724   5.620   1.206   6.663
 8591TIP3   OH225725   4.958   1.200   7.055
 8591TIP3    H125726   4.991   1.126   7.110
 8591TIP3    H225727   5.042   1.236   7.022
 8592TIP3   OH225728   5.907   1.595   6.369
 8592TIP3    H125729   5.889   1.526   6.434
 8592TIP3    H225730   5.937   1.669   6.425
 8593TIP3   OH225731   4.932   1.598   6.772
 8593TIP3    H125732   4.925   1.500   6.773
 8593TIP3    H225733   5.029   1.608   6.766
 8594TIP3   OH225734   4.628   0.790   6.566
 8594TIP3    H125735   4.588   0.876   6.585
 8594TIP3    H225736   4.559   0.751   6.509
 8595TIP3   OH225737   4.698   1.086   6.735
 8595TIP3    H125738   4.749   1.007   6.766
 8595TIP3    H225739   4.758   1.122   6.668
 8596TIP3   OH225740   5.558   2.060   6.386
 8596TIP3    H125741   5.600   1.989   6.334
 8596TIP3    H225742   5.547   2.016   6.471
 8597TIP3   OH225743   5.458   1.519   6.735
 8597TIP3    H125744   5.498   1.442   6.692
 8597TIP3    H225745   5.542   1.565   6.760
 8598TIP3   OH225746   5.873   1.017   6.774
 8598TIP3    H125747   5.912   0.933   6.803
 8598TIP3    H225748   5.841   0.995   6.685
 8599TIP3   OH225749   5.208   0.706   6.754
 8599TIP3    H125750   5.184   0.774   6.687
 8599TIP3    H225751   5.199   0.624   6.700
 8600TIP3   OH225752   5.893   0.790   6.353
 8600TIP3    H125753   5.970   0.782   6.413
 8600TIP3    H225754   5.933   0.799   6.266
 8601TIP3   OH225755   4.845   0.878   6.833
 8601TIP3    H125756   4.921   0.854   6.892
 8601TIP3    H225757   4.867   0.821   6.756
 8602TIP3   OH225758   5.282   1.079   6.639
 8602TIP3    H125759   5.377   1.055   6.649
 8602TIP3    H225760   5.245   0.996   6.602
 8603TIP3   OH225761   5.553   1.516   6.171
 8603TIP3    H125762   5.503   1.494   6.091
 8603TIP3    H225763   5.507   1.598   6.200
 8604TIP3   OH225764   5.315   1.437   6.956
 8604TIP3    H125765   5.256   1.507   6.993
 8604TIP3    H225766   5.358   1.484   6.882
 8605TIP3   OH225767   5.067   0.799   6.967
 8605TIP3    H125768   5.139   0.860   6.992
 8605TIP3    H225769   5.110   0.751   6.893
 8606TIP3   OH225770   5.146   1.636   7.056
 8606TIP3    H125771   5.120   1.723   7.019
 8606TIP3    H225772   5.065   1.617   7.109
 8607TIP3   OH225773   4.503   1.339   6.314
 8607TIP3    H125774   4.562   1.296   6.248
 8607TIP3    H225775   4.567   1.398   6.357
 8608TIP3   OH225776   5.974   1.842   6.532
 8608TIP3    H125777   5.885   1.831   6.573
 8608TIP3    H225778   5.963   1.928   6.487
 8609TIP3   OH225779   5.674   1.886   6.205
 8609TIP3    H125780   5.723   1.802   6.189
 8609TIP3    H225781   5.737   1.950   6.165
 8610TIP3   OH225782   5.818   1.672   6.119
 8610TIP3    H125783   5.778   1.593   6.079
 8610TIP3    H225784   5.857   1.635   6.201
 8611TIP3   OH225785   6.188   1.753   6.872
 8611TIP3    H125786   6.189   1.670   6.821
 8611TIP3    H225787   6.181   1.822   6.803
 8612TIP3   OH225788   5.495   1.144   6.134
 8612TIP3    H125789   5.413   1.198   6.121
 8612TIP3    H225790   5.535   1.148   6.046
 8613TIP3   OH225791   5.442   0.937   5.850
 8613TIP3    H125792   5.504   0.991   5.901
 8613TIP3    H225793   5.505   0.877   5.805
 8614TIP3   OH225794   6.404   1.393   6.711
 8614TIP3    H125795   6.318   1.440   6.725
 8614TIP3    H225796   6.425   1.420   6.619
 8615TIP3   OH225797   5.842   1.226   6.104
 8615TIP3    H125798   5.786   1.250   6.183
 8615TIP3    H225799   5.926   1.202   6.149
 8616TIP3   OH225800   6.065   1.283   6.988
 8616TIP3    H125801   6.080   1.354   7.054
 8616TIP3    H225802   5.976   1.304   6.958
 8617TIP3   OH225803   5.073   1.227   6.525
 8617TIP3    H125804   5.030   1.171   6.456
 8617TIP3    H225805   5.147   1.170   6.554
 8618TIP3   OH225806   5.201   1.638   6.670
 8618TIP3    H125807   5.180   1.602   6.583
 8618TIP3    H225808   5.289   1.599   6.688
 8619TIP3   OH225809   5.201   1.194   6.882
 8619TIP3    H125810   5.235   1.165   6.795
 8619TIP3    H225811   5.250   1.278   6.896
 8620TIP3   OH225812   5.734   1.834   6.655
 8620TIP3    H125813   5.723   1.913   6.711
 8620TIP3    H225814   5.716   1.760   6.716
 8621TIP3   OH225815   5.348   1.751   7.204
 8621TIP3    H125816   5.286   1.814   7.247
 8621TIP3    H225817   5.285   1.698   7.151
 8622TIP3   OH225818   5.680   1.093   5.925
 8622TIP3    H125819   5.737   1.154   5.977
 8622TIP3    H225820   5.713   1.109   5.834
 8623TIP3   OH225821   5.111   1.307   7.312
 8623TIP3    H125822   5.113   1.398   7.349
 8623TIP3    H225823   5.015   1.297   7.296
 8624TIP3   OH225824   5.426   1.763   6.212
 8624TIP3    H125825   5.509   1.815   6.218
 8624TIP3    H225826   5.366   1.822   6.166
 8625TIP3   OH225827   5.146   1.920   7.284
 8625TIP3    H125828   5.110   1.925   7.194
 8625TIP3    H225829   5.064   1.900   7.336
 8626TIP3   OH225830   4.932   1.092   6.321
 8626TIP3    H125831   4.873   1.148   6.266
 8626TIP3    H225832   4.885   1.009   6.319
 8627TIP3   OH225833   4.713   1.455   7.235
 8627TIP3    H125834   4.652   1.433   7.161
 8627TIP3    H225835   4.750   1.368   7.260
 8628TIP3   OH225836   4.576   1.641   6.874
 8628TIP3    H125837   4.671   1.635   6.858
 8628TIP3    H225838   4.569   1.723   6.924
 8629TIP3   OH225839   6.436   2.109   6.933
 8629TIP3    H125840   6.438   2.010   6.934
 8629TIP3    H225841   6.346   2.124   6.970
 8630TIP3   OH225842   5.543   1.880   7.061
 8630TIP3    H125843   5.539   1.974   7.092
 8630TIP3    H225844   5.471   1.840   7.115
 8631TIP3   OH225845   5.306   2.012   6.012
 8631TIP3    H125846   5.260   1.997   5.927
 8631TIP3    H225847   5.275   2.100   6.039
 8632TIP3   OH225848   4.749   1.862   6.396
 8632TIP3    H125849   4.791   1.852   6.484
 8632TIP3    H225850   4.700   1.777   6.390
 8633TIP3   OH225851   5.503   1.905   5.650
 8633TIP3    H125852   5.564   1.836   5.615
 8633TIP3    H225853   5.540   1.918   5.740
 8634TIP3   OH225854   5.557   1.961   5.918
 8634TIP3    H125855   5.470   1.969   5.964
 8634TIP3    H225856   5.610   1.918   5.986
 8635TIP3   OH225857   4.923   1.632   7.212
 8635TIP3    H125858   4.973   1.623   7.296
 8635TIP3    H225859   4.847   1.571   7.226
 8636TIP3   OH225860   6.062   1.019   7.089
 8636TIP3    H125861   6.137   0.971   7.049
 8636TIP3    H225862   6.065   1.104   7.041
 8637TIP3   OH225863   5.768   1.130   5.666
 8637TIP3    H125864   5.738   1.104   5.578
 8637TIP3    H225865   5.795   1.222   5.652
 8638TIP3   OH225866   5.268   0.975   7.037
 8638TIP3    H125867   5.210   1.001   7.112
 8638TIP3    H225868   5.253   1.051   6.976
 8639TIP3   OH225869   5.135   0.863   6.544
 8639TIP3    H125870   5.043   0.831   6.554
 8639TIP3    H225871   5.156   0.823   6.457
 8640TIP3   OH225872   5.629   0.957   6.278
 8640TIP3    H125873   5.579   1.025   6.229
 8640TIP3    H225874   5.684   0.917   6.207
 8641TIP3   OH225875   5.774   1.217   7.355
 8641TIP3    H125876   5.768   1.152   7.427
 8641TIP3    H225877   5.868   1.206   7.330
 8642TIP3   OH225878   5.783   0.982   6.513
 8642TIP3    H125879   5.718   1.018   6.450
 8642TIP3    H225880   5.813   0.907   6.458
 8643TIP3   OH225881   5.071   1.016   7.225
 8643TIP3    H125882   5.107   1.059   7.305
 8643TIP3    H225883   5.036   0.932   7.259
 8644TIP3   OH225884   5.160   0.514   5.955
 8644TIP3    H125885   5.125   0.579   6.019
 8644TIP3    H225886   5.079   0.484   5.912
 8645TIP3   OH225887   4.644   0.513   6.319
 8645TIP3    H125888   4.684   0.568   6.249
 8645TIP3    H225889   4.591   0.581   6.365
 8646TIP3   OH225890   5.775   1.218   6.926
 8646TIP3    H125891   5.821   1.152   6.869
 8646TIP3    H225892   5.754   1.160   7.002
 8647TIP3   OH225893   5.446   0.710   6.583
 8647TIP3    H125894   5.367   0.700   6.638
 8647TIP3    H225895   5.515   0.688   6.650
 8648TIP3   OH225896   4.891   0.734   6.602
 8648TIP3    H125897   4.797   0.755   6.581
 8648TIP3    H225898   4.887   0.637   6.602
 8649TIP3   OH225899   5.178   0.741   6.305
 8649TIP3    H125900   5.270   0.743   6.274
 8649TIP3    H225901   5.125   0.744   6.222
 8650TIP3   OH225902   5.025   0.748   6.073
 8650TIP3    H125903   4.946   0.722   6.021
 8650TIP3    H225904   5.071   0.804   6.006
 8651TIP3   OH225905   6.131   2.446   7.024
 8651TIP3    H125906   6.126   2.471   6.930
 8651TIP3    H225907   6.212   2.493   7.051
 8652TIP3   OH225908   5.098   1.563   7.432
 8652TIP3    H125909   5.179   1.592   7.480
 8652TIP3    H225910   5.033   1.573   7.504
 8653TIP3   OH225911   5.545   1.012   6.705
 8653TIP3    H125912   5.611   0.963   6.655
 8653TIP3    H225913   5.545   0.964   6.791
 8654TIP3   OH225914   5.533   0.915   6.976
 8654TIP3    H125915   5.442   0.939   7.004
 8654TIP3    H225916   5.589   0.965   7.038
 8655TIP3   OH225917   5.276   1.300   6.089
 8655TIP3    H125918   5.207   1.231   6.076
 8655TIP3    H225919   5.248   1.336   6.177
 8656TIP3   OH225920   6.165   1.532   6.709
 8656TIP3    H125921   6.184   1.585   6.629
 8656TIP3    H225922   6.080   1.488   6.687
 8657TIP3   OH225923   5.784   0.650   5.890
 8657TIP3    H125924   5.687   0.632   5.896
 8657TIP3    H225925   5.787   0.732   5.944
 8658TIP3   OH225926   5.653   1.617   7.080
 8658TIP3    H125927   5.688   1.599   7.168
 8658TIP3    H225928   5.618   1.708   7.088
 8659TIP3   OH225929   5.784   0.870   6.055
 8659TIP3    H125930   5.881   0.883   6.064
 8659TIP3    H225931   5.756   0.952   6.010
 8660TIP3   OH225932   4.955   1.320   6.756
 8660TIP3    H125933   4.991   1.295   6.668
 8660TIP3    H225934   5.004   1.259   6.814
 8661TIP3   OH225935   5.406   1.446   5.900
 8661TIP3    H125936   5.360   1.533   5.908
 8661TIP3    H225937   5.353   1.392   5.963
 8662TIP3   OH225938   4.825   1.249   7.378
 8662TIP3    H125939   4.872   1.221   7.459
 8662TIP3    H225940   4.771   1.172   7.354
 8663TIP3   OH225941   5.549   1.358   7.404
 8663TIP3    H125942   5.486   1.303   7.354
 8663TIP3    H225943   5.634   1.320   7.372
 8664TIP3   OH225944   5.816   1.886   6.972
 8664TIP3    H125945   5.721   1.877   6.990
 8664TIP3    H225946   5.845   1.934   7.052
 8665TIP3   OH225947   6.231   0.955   5.878
 8665TIP3    H125948   6.174   0.906   5.813
 8665TIP3    H225949   6.217   1.045   5.841
 8666TIP3   OH225950   6.437   1.839   6.945
 8666TIP3    H125951   6.344   1.807   6.951
 8666TIP3    H225952   6.473   1.775   6.880
 8667TIP3   OH225953   5.938   1.760   5.776
 8667TIP3    H125954   5.911   1.694   5.842
 8667TIP3    H225955   5.973   1.704   5.704
 8668TIP3   OH225956   5.926   1.399   6.626
 8668TIP3    H125957   5.833   1.373   6.640
 8668TIP3    H225958   5.961   1.317   6.585
 8669TIP3   OH225959   5.057   1.625   6.388
 8669TIP3    H125960   5.049   1.706   6.334
 8669TIP3    H225961   4.965   1.594   6.390
 8670TIP3   OH225962   4.624   0.928   6.089
 8670TIP3    H125963   4.661   1.020   6.091
 8670TIP3    H225964   4.552   0.940   6.153
 8671TIP3   OH225965   5.193   1.390   6.330
 8671TIP3    H125966   5.159   1.479   6.351
 8671TIP3    H225967   5.156   1.337   6.402
 8672TIP3   OH225968   5.326   1.968   6.852
 8672TIP3    H125969   5.370   2.040   6.803
 8672TIP3    H225970   5.402   1.929   6.899
 8673TIP3   OH225971   4.970   1.866   6.229
 8673TIP3    H125972   4.889   1.871   6.284
 8673TIP3    H225973   5.004   1.958   6.238
 8674TIP3   OH225974   5.711   1.602   6.812
 8674TIP3    H125975   5.700   1.599   6.910
 8674TIP3    H225976   5.794   1.554   6.802
 8675TIP3   OH225977   5.665   1.500   5.710
 8675TIP3    H125978   5.734   1.477   5.775
 8675TIP3    H225979   5.585   1.474   5.759
 8676TIP3   OH225980   5.962   2.134   6.865
 8676TIP3    H125981   5.883   2.076   6.860
 8676TIP3    H225982   5.945   2.196   6.791
 8677TIP3   OH225983   6.033   1.981   5.515
 8677TIP3    H125984   6.065   2.059   5.469
 8677TIP3    H225985   5.947   2.012   5.547
 8678TIP3   OH225986   5.848   1.424   5.907
 8678TIP3    H125987   5.842   1.363   5.982
 8678TIP3    H225988   5.945   1.423   5.893
 8679TIP3   OH225989   4.763   1.829   7.012
 8679TIP3    H125990   4.820   1.757   7.045
 8679TIP3    H225991   4.790   1.901   7.070
 8680TIP3   OH225992   5.049   1.476   5.681
 8680TIP3    H125993   5.069   1.383   5.658
 8680TIP3    H225994   5.043   1.468   5.779
 8681TIP3   OH225995   5.018   1.477   5.948
 8681TIP3    H125996   5.008   1.422   6.026
 8681TIP3    H225997   5.015   1.567   5.983
 8682TIP3   OH225998   5.274   1.681   5.916
 8682TIP3    H125999   5.186   1.694   5.955
 8682TIP3    H226000   5.276   1.753   5.851
 8683TIP3   OH226001   5.464   0.741   6.315
 8683TIP3    H126002   5.511   0.827   6.315
 8683TIP3    H226003   5.450   0.728   6.411
 8684TIP3   OH226004   5.720   1.053   7.137
 8684TIP3    H126005   5.724   1.112   7.215
 8684TIP3    H226006   5.796   0.994   7.151
 8685TIP3   OH226007   5.013   1.759   5.982
 8685TIP3    H126008   4.964   1.826   5.934
 8685TIP3    H226009   4.998   1.789   6.075
 8686TIP3   OH226010   6.015   1.155   6.509
 8686TIP3    H126011   5.939   1.097   6.527
 8686TIP3    H226012   6.088   1.109   6.556
 8687TIP3   OH226013   4.667   0.658   6.085
 8687TIP3    H126014   4.680   0.756   6.089
 8687TIP3    H226015   4.572   0.654   6.074
 8688TIP3   OH226016   5.981   2.113   6.454
 8688TIP3    H126017   5.939   2.161   6.379
 8688TIP3    H226018   6.076   2.130   6.434
 8689TIP3   OH226019   4.611   1.621   6.367
 8689TIP3    H126020   4.528   1.619   6.416
 8689TIP3    H226021   4.579   1.637   6.276
 8690TIP3   OH226022   4.755   2.153   7.434
 8690TIP3    H126023   4.837   2.155   7.488
 8690TIP3    H226024   4.735   2.058   7.438
 8691TIP3   OH226025   5.238   2.100   7.476
 8691TIP3    H126026   5.331   2.076   7.482
 8691TIP3    H226027   5.208   2.041   7.405
 8692TIP3   OH226028   5.215   1.677   5.607
 8692TIP3    H126029   5.160   1.601   5.639
 8692TIP3    H226030   5.296   1.628   5.583
 8693TIP3   OH226031   5.870   2.014   7.212
 8693TIP3    H126032   5.866   1.943   7.279
 8693TIP3    H226033   5.946   2.067   7.241
 8694TIP3   OH226034   5.654   1.708   5.521
 8694TIP3    H126035   5.685   1.638   5.583
 8694TIP3    H226036   5.722   1.706   5.451
 8695TIP3   OH226037   4.885   1.543   7.610
 8695TIP3    H126038   4.914   1.451   7.593
 8695TIP3    H226039   4.798   1.546   7.564
 8696TIP3   OH226040   4.854   1.174   5.805
 8696TIP3    H126041   4.853   1.198   5.899
 8696TIP3    H226042   4.947   1.186   5.780
 8697TIP3   OH226043   5.494   1.635   7.407
 8697TIP3    H126044   5.451   1.656   7.322
 8697TIP3    H226045   5.517   1.540   7.397
 8698TIP3   OH226046   5.362   1.394   5.634
 8698TIP3    H126047   5.373   1.405   5.731
 8698TIP3    H226048   5.365   1.296   5.628
 8699TIP3   OH226049   5.966   1.649   6.991
 8699TIP3    H126050   6.051   1.683   6.956
 8699TIP3    H226051   5.908   1.726   6.974
 8700TIP3   OH226052   5.021   1.301   7.604
 8700TIP3    H126053   5.097   1.259   7.561
 8700TIP3    H226054   5.054   1.311   7.695
 8701TIP3   OH226055   5.097   1.101   6.062
 8701TIP3    H126056   5.039   1.068   6.132
 8701TIP3    H226057   5.113   1.022   6.008
 8702TIP3   OH226058   5.346   1.169   7.283
 8702TIP3    H126059   5.264   1.222   7.280
 8702TIP3    H226060   5.395   1.203   7.204
 8703TIP3   OH226061   5.168   0.890   5.891
 8703TIP3    H126062   5.144   0.897   5.796
 8703TIP3    H226063   5.266   0.895   5.885
 8704TIP3   OH226064   5.881   1.567   7.394
 8704TIP3    H126065   5.947   1.543   7.326
 8704TIP3    H226066   5.885   1.488   7.449
 8705TIP3   OH226067   5.472   0.964   7.401
 8705TIP3    H126068   5.453   0.892   7.341
 8705TIP3    H226069   5.426   1.039   7.354
 8706TIP3   OH226070   5.494   1.277   7.089
 8706TIP3    H126071   5.576   1.281   7.038
 8706TIP3    H226072   5.438   1.341   7.041
 8707TIP3   OH226073   6.064   1.499   7.196
 8707TIP3    H126074   6.031   1.551   7.120
 8707TIP3    H226075   6.152   1.538   7.211
 8708TIP3   OH226076   5.269   1.059   7.602
 8708TIP3    H126077   5.303   1.008   7.677
 8708TIP3    H226078   5.342   1.054   7.540
 8709TIP3   OH226079   5.704   1.018   7.538
 8709TIP3    H126080   5.643   1.048   7.607
 8709TIP3    H226081   5.639   0.981   7.475
 8710TIP3   OH226082   4.964   1.961   5.731
 8710TIP3    H126083   5.053   1.930   5.761
 8710TIP3    H226084   4.975   2.056   5.744
 8711TIP3   OH226085   4.478   1.344   5.963
 8711TIP3    H126086   4.558   1.331   6.020
 8711TIP3    H226087   4.461   1.249   5.943
 8712TIP3   OH226088   4.374   1.950   6.424
 8712TIP3    H126089   4.308   1.887   6.389
 8712TIP3    H226090   4.418   1.895   6.492
 8713TIP3   OH226091   4.501   1.808   6.620
 8713TIP3    H126092   4.497   1.728   6.674
 8713TIP3    H226093   4.559   1.864   6.675
 8714TIP3   OH226094   6.236   2.201   6.415
 8714TIP3    H126095   6.264   2.230   6.504
 8714TIP3    H226096   6.303   2.242   6.358
 8715TIP3   OH226097   6.265   2.221   6.697
 8715TIP3    H126098   6.218   2.135   6.691
 8715TIP3    H226099   6.341   2.194   6.752
 8716TIP3   OH226100   6.290   1.900   7.232
 8716TIP3    H126101   6.218   1.898   7.298
 8716TIP3    H226102   6.306   1.995   7.220
 8717TIP3   OH226103   6.124   1.403   5.895
 8717TIP3    H126104   6.183   1.468   5.850
 8717TIP3    H226105   6.180   1.375   5.970
 8718TIP3   OH226106   6.261   1.270   6.095
 8718TIP3    H126107   6.190   1.235   6.153
 8718TIP3    H226108   6.323   1.311   6.158
 8719TIP3   OH226109   6.319   1.678   6.526
 8719TIP3    H126110   6.368   1.608   6.479
 8719TIP3    H226111   6.309   1.746   6.456
 8720TIP3   OH226112   6.140   1.976   6.710
 8720TIP3    H126113   6.069   2.009   6.768
 8720TIP3    H226114   6.091   1.927   6.641
 8721TIP3   OH226115   6.182   1.189   5.731
 8721TIP3    H126116   6.130   1.223   5.657
 8721TIP3    H226117   6.165   1.261   5.795
 8722TIP3   OH226118   6.077   0.851   5.681
 8722TIP3    H126119   6.024   0.917   5.634
 8722TIP3    H226120   6.023   0.772   5.667
 8723TIP3   OH226121   6.071   1.140   6.243
 8723TIP3    H126122   6.083   1.044   6.243
 8723TIP3    H226123   6.052   1.157   6.338
 8724TIP3   OH226124   4.693   1.207   6.987
 8724TIP3    H126125   4.692   1.173   6.895
 8724TIP3    H226126   4.790   1.214   7.002
 8725TIP3   OH226127   6.330   1.539   7.051
 8725TIP3    H126128   6.399   1.475   7.021
 8725TIP3    H226129   6.381   1.619   7.066
 8726TIP3   OH226130   6.058   0.862   6.094
 8726TIP3    H126131   6.121   0.825   6.160
 8726TIP3    H226132   6.118   0.887   6.022
 8727TIP3   OH226133   6.235   1.035   6.627
 8727TIP3    H126134   6.324   1.052   6.590
 8727TIP3    H226135   6.245   1.075   6.716
 8728TIP3   OH226136   6.286   1.178   6.855
 8728TIP3    H126137   6.211   1.221   6.901
 8728TIP3    H226138   6.334   1.255   6.819
 8729TIP3   OH226139   4.686   0.862   7.059
 8729TIP3    H126140   4.733   0.855   6.973
 8729TIP3    H226141   4.717   0.948   7.090
 8730TIP3   OH226142   5.818   2.072   6.067
 8730TIP3    H126143   5.869   2.056   5.984
 8730TIP3    H226144   5.877   2.132   6.115
 8731TIP3   OH226145   4.916   1.877   7.423
 8731TIP3    H126146   4.822   1.856   7.408
 8731TIP3    H226147   4.919   1.871   7.521
 8732TIP3   OH226148   5.100   1.907   7.001
 8732TIP3    H126149   5.052   1.983   6.962
 8732TIP3    H226150   5.186   1.920   6.956
 8733TIP3   OH226151   5.540   2.147   7.138
 8733TIP3    H126152   5.581   2.149   7.227
 8733TIP3    H226153   5.606   2.200   7.086
 8734TIP3   OH226154   5.720   2.302   7.000
 8734TIP3    H126155   5.789   2.251   6.957
 8734TIP3    H226156   5.773   2.358   7.061
 8735TIP3   OH226157   4.774   2.161   7.027
 8735TIP3    H126158   4.684   2.193   7.006
 8735TIP3    H226159   4.789   2.205   7.112
 8736TIP3   OH226160   5.011   2.141   6.886
 8736TIP3    H126161   4.923   2.153   6.929
 8736TIP3    H226162   4.992   2.172   6.795
 8737TIP3   OH226163   5.437   2.167   6.683
 8737TIP3    H126164   5.366   2.185   6.618
 8737TIP3    H226165   5.448   2.254   6.726
 8738TIP3   OH226166   5.706   2.107   6.737
 8738TIP3    H126167   5.613   2.124   6.715
 8738TIP3    H226168   5.751   2.180   6.692
 8739TIP3   OH226169   5.914   2.298   6.649
 8739TIP3    H126170   5.899   2.381   6.599
 8739TIP3    H226171   5.940   2.236   6.577
 8740TIP3   OH226172   4.686   1.953   6.772
 8740TIP3    H126173   4.713   1.928   6.863
 8740TIP3    H226174   4.758   1.910   6.722
 8741TIP3   OH226175   4.882   1.827   6.632
 8741TIP3    H126176   4.897   1.742   6.680
 8741TIP3    H226177   4.973   1.861   6.626
 8742TIP3   OH226178   5.150   1.919   6.632
 8742TIP3    H126179   5.179   1.827   6.621
 8742TIP3    H226180   5.196   1.940   6.716
 8743TIP3   OH226181   4.480   1.725   6.149
 8743TIP3    H126182   4.393   1.688   6.125
 8743TIP3    H226183   4.461   1.820   6.144
 8744TIP3   OH226184   5.240   1.916   5.737
 8744TIP3    H126185   5.332   1.937   5.710
 8744TIP3    H226186   5.226   1.838   5.679
 8745TIP3   OH226187   5.964   2.029   5.836
 8745TIP3    H126188   5.962   1.931   5.820
 8745TIP3    H226189   5.923   2.060   5.753
 8746TIP3   OH226190   4.565   1.791   5.803
 8746TIP3    H126191   4.533   1.784   5.894
 8746TIP3    H226192   4.630   1.720   5.798
 8747TIP3   OH226193   6.185   2.177   7.032
 8747TIP3    H126194   6.110   2.146   6.976
 8747TIP3    H226195   6.167   2.273   7.031
 8748TIP3   OH226196   7.459   1.570   5.787
 8748TIP3    H126197   7.419   1.652   5.752
 8748TIP3    H226198   7.389   1.505   5.766
 8749TIP3   OH226199   6.772   1.461   6.554
 8749TIP3    H126200   6.814   1.401   6.618
 8749TIP3    H226201   6.845   1.475   6.491
 8750TIP3   OH226202   7.727   1.831   5.845
 8750TIP3    H126203   7.648   1.800   5.891
 8750TIP3    H226204   7.740   1.919   5.888
 8751TIP3   OH226205   6.720   1.855   6.258
 8751TIP3    H126206   6.710   1.758   6.256
 8751TIP3    H226207   6.816   1.864   6.265
 8752TIP3   OH226208   6.424   1.042   6.052
 8752TIP3    H126209   6.385   1.128   6.078
 8752TIP3    H226210   6.353   1.009   5.994
 8753TIP3   OH226211   6.499   1.337   6.221
 8753TIP3    H126212   6.553   1.262   6.253
 8753TIP3    H226213   6.558   1.382   6.160
 8754TIP3   OH226214   7.352   2.314   5.869
 8754TIP3    H126215   7.399   2.242   5.823
 8754TIP3    H226216   7.348   2.280   5.959
 8755TIP3   OH226217   7.238   1.775   6.216
 8755TIP3    H126218   7.255   1.692   6.170
 8755TIP3    H226219   7.315   1.829   6.192
 8756TIP3   OH226220   6.967   0.964   6.248
 8756TIP3    H126221   6.947   1.035   6.184
 8756TIP3    H226222   6.980   0.889   6.186
 8757TIP3   OH226223   6.662   1.138   6.322
 8757TIP3    H126224   6.749   1.137   6.365
 8757TIP3    H226225   6.678   1.079   6.246
 8758TIP3   OH226226   7.061   1.350   6.116
 8758TIP3    H126227   7.158   1.339   6.107
 8758TIP3    H226228   7.027   1.263   6.086
 8759TIP3   OH226229   7.359   1.786   5.647
 8759TIP3    H126230   7.305   1.758   5.571
 8759TIP3    H226231   7.306   1.862   5.679
 8760TIP3   OH226232   7.089   1.705   6.453
 8760TIP3    H126233   7.033   1.785   6.467
 8760TIP3    H226234   7.157   1.738   6.391
 8761TIP3   OH226235   6.911   1.897   6.530
 8761TIP3    H126236   6.891   1.990   6.506
 8761TIP3    H226237   6.845   1.883   6.601
 8762TIP3   OH226238   6.325   1.570   5.780
 8762TIP3    H126239   6.269   1.577   5.698
 8762TIP3    H226240   6.352   1.662   5.794
 8763TIP3   OH226241   7.744   2.064   5.982
 8763TIP3    H126242   7.699   2.075   6.067
 8763TIP3    H226243   7.778   2.155   5.970
 8764TIP3   OH226244   7.472   2.137   5.687
 8764TIP3    H126245   7.527   2.058   5.668
 8764TIP3    H226246   7.531   2.207   5.652
 8765TIP3   OH226247   7.618   1.913   5.596
 8765TIP3    H126248   7.538   1.857   5.594
 8765TIP3    H226249   7.665   1.880   5.674
 8766TIP3   OH226250   7.295   1.411   5.623
 8766TIP3    H126251   7.211   1.458   5.607
 8766TIP3    H226252   7.331   1.403   5.533
 8767TIP3   OH226253   7.240   1.190   5.340
 8767TIP3    H126254   7.306   1.244   5.386
 8767TIP3    H226255   7.301   1.126   5.296
 8768TIP3   OH226256   7.646   1.485   5.608
 8768TIP3    H126257   7.579   1.516   5.674
 8768TIP3    H226258   7.713   1.449   5.669
 8769TIP3   OH226259   6.857   1.493   6.001
 8769TIP3    H126260   6.817   1.432   5.935
 8769TIP3    H226261   6.929   1.437   6.039
 8770TIP3   OH226262   6.992   1.900   6.155
 8770TIP3    H126263   6.971   1.861   6.069
 8770TIP3    H226264   7.078   1.858   6.178
 8771TIP3   OH226265   6.968   1.480   6.350
 8771TIP3    H126266   7.016   1.448   6.271
 8771TIP3    H226267   7.026   1.552   6.382
 8772TIP3   OH226268   7.475   2.076   6.156
 8772TIP3    H126269   7.474   2.173   6.171
 8772TIP3    H226270   7.550   2.052   6.212
 8773TIP3   OH226271   7.144   2.079   6.602
 8773TIP3    H126272   7.109   2.120   6.683
 8773TIP3    H226273   7.107   1.990   6.612
 8774TIP3   OH226274   7.480   1.348   5.416
 8774TIP3    H126275   7.536   1.412   5.465
 8774TIP3    H226276   7.508   1.365   5.323
 8775TIP3   OH226277   7.223   2.016   5.697
 8775TIP3    H126278   7.301   2.074   5.706
 8775TIP3    H226279   7.158   2.073   5.655
 8776TIP3   OH226280   6.928   2.188   6.773
 8776TIP3    H126281   6.886   2.177   6.686
 8776TIP3    H226282   6.856   2.166   6.835
 8777TIP3   OH226283   6.735   1.328   5.809
 8777TIP3    H126284   6.664   1.373   5.757
 8777TIP3    H226285   6.697   1.241   5.823
 8778TIP3   OH226286   7.781   1.944   5.011
 8778TIP3    H126287   7.764   2.040   5.001
 8778TIP3    H226288   7.876   1.941   4.990
 8779TIP3   OH226289   6.513   1.682   6.728
 8779TIP3    H126290   6.444   1.698   6.661
 8779TIP3    H226291   6.514   1.585   6.728
 8780TIP3   OH226292   6.369   1.905   6.349
 8780TIP3    H126293   6.465   1.896   6.342
 8780TIP3    H226294   6.360   1.980   6.408
 8781TIP3   OH226295   7.105   2.268   5.495
 8781TIP3    H126296   7.054   2.249   5.415
 8781TIP3    H226297   7.068   2.353   5.524
 8782TIP3   OH226298   6.540   2.116   5.882
 8782TIP3    H126299   6.584   2.106   5.970
 8782TIP3    H226300   6.493   2.030   5.876
 8783TIP3   OH226301   7.302   2.172   5.137
 8783TIP3    H126302   7.360   2.101   5.101
 8783TIP3    H226303   7.336   2.180   5.228
 8784TIP3   OH226304   7.354   2.215   5.406
 8784TIP3    H126305   7.264   2.226   5.445
 8784TIP3    H226306   7.403   2.181   5.483
 8785TIP3   OH226307   6.721   1.871   6.728
 8785TIP3    H126308   6.740   1.879   6.823
 8785TIP3    H226309   6.646   1.807   6.730
 8786TIP3   OH226310   7.564   1.398   5.161
 8786TIP3    H126311   7.530   1.365   5.075
 8786TIP3    H226312   7.603   1.482   5.133
 8787TIP3   OH226313   6.929   1.123   6.025
 8787TIP3    H126314   6.837   1.090   6.033
 8787TIP3    H226315   6.953   1.083   5.939
 8788TIP3   OH226316   7.412   1.188   5.742
 8788TIP3    H126317   7.371   1.269   5.705
 8788TIP3    H226318   7.483   1.169   5.679
 8789TIP3   OH226319   6.956   0.769   5.441
 8789TIP3    H126320   6.921   0.830   5.508
 8789TIP3    H226321   6.875   0.746   5.393
 8790TIP3   OH226322   6.440   0.775   5.809
 8790TIP3    H126323   6.479   0.827   5.736
 8790TIP3    H226324   6.381   0.843   5.847
 8791TIP3   OH226325   6.687   0.996   6.083
 8791TIP3    H126326   6.592   1.017   6.064
 8791TIP3    H226327   6.685   0.900   6.080
 8792TIP3   OH226328   6.976   1.002   5.787
 8792TIP3    H126329   7.068   0.992   5.755
 8792TIP3    H226330   6.922   1.002   5.705
 8793TIP3   OH226331   6.822   1.009   5.561
 8793TIP3    H126332   6.746   0.976   5.508
 8793TIP3    H226333   6.868   1.063   5.493
 8794TIP3   OH226334   7.062   1.553   5.574
 8794TIP3    H126335   6.989   1.488   5.561
 8794TIP3    H226336   7.039   1.588   5.664
 8795TIP3   OH226337   7.580   0.895   5.400
 8795TIP3    H126338   7.482   0.892   5.388
 8795TIP3    H226339   7.588   0.983   5.443
 8796TIP3   OH226340   7.604   1.135   5.537
 8796TIP3    H126341   7.695   1.164   5.541
 8796TIP3    H226342   7.560   1.208   5.489
 8797TIP3   OH226343   6.735   1.576   6.235
 8797TIP3    H126344   6.767   1.555   6.144
 8797TIP3    H226345   6.809   1.540   6.288
 8798TIP3   OH226346   7.204   1.704   5.397
 8798TIP3    H126347   7.155   1.790   5.398
 8798TIP3    H226348   7.147   1.649   5.455
 8799TIP3   OH226349   7.723   2.021   5.278
 8799TIP3    H126350   7.681   1.963   5.342
 8799TIP3    H226351   7.728   1.968   5.197
 8800TIP3   OH226352   6.852   1.880   5.868
 8800TIP3    H126353   6.845   1.962   5.816
 8800TIP3    H226354   6.759   1.859   5.884
 8801TIP3   OH226355   6.416   1.184   5.571
 8801TIP3    H126356   6.459   1.271   5.587
 8801TIP3    H226357   6.337   1.195   5.628
 8802TIP3   OH226358   6.994   1.648   5.817
 8802TIP3    H126359   6.955   1.737   5.832
 8802TIP3    H226360   6.950   1.596   5.886
 8803TIP3   OH226361   7.105   2.232   6.332
 8803TIP3    H126362   7.167   2.292   6.285
 8803TIP3    H226363   7.161   2.193   6.401
 8804TIP3   OH226364   6.770   2.120   5.723
 8804TIP3    H126365   6.685   2.128   5.770
 8804TIP3    H226366   6.801   2.214   5.725
 8805TIP3   OH226367   7.477   1.752   5.184
 8805TIP3    H126368   7.525   1.719   5.264
 8805TIP3    H226369   7.386   1.728   5.207
 8806TIP3   OH226370   7.770   2.220   5.013
 8806TIP3    H126371   7.825   2.299   5.001
 8806TIP3    H226372   7.686   2.265   5.037
 8807TIP3   OH226373   7.632   1.665   5.395
 8807TIP3    H126374   7.627   1.608   5.474
 8807TIP3    H226375   7.720   1.702   5.403
 8808TIP3   OH226376   6.556   2.086   6.497
 8808TIP3    H126377   6.615   2.013   6.521
 8808TIP3    H226378   6.590   2.157   6.552
 8809TIP3   OH226379   6.851   1.730   5.176
 8809TIP3    H126380   6.861   1.636   5.154
 8809TIP3    H226381   6.835   1.725   5.273
 8810TIP3   OH226382   6.807   1.740   5.444
 8810TIP3    H126383   6.861   1.709   5.518
 8810TIP3    H226384   6.806   1.837   5.459
 8811TIP3   OH226385   6.527   1.429   5.658
 8811TIP3    H126386   6.454   1.469   5.711
 8811TIP3    H226387   6.533   1.500   5.589
 8812TIP3   OH226388   7.066   1.936   5.403
 8812TIP3    H126389   6.977   1.956   5.440
 8812TIP3    H226390   7.075   2.010   5.341
 8813TIP3   OH226391   7.257   0.973   5.797
 8813TIP3    H126392   7.315   1.050   5.775
 8813TIP3    H226393   7.259   0.976   5.893
 8814TIP3   OH226394   6.811   2.010   5.473
 8814TIP3    H126395   6.777   2.079   5.411
 8814TIP3    H226396   6.791   2.051   5.560
 8815TIP3   OH226397   6.539   1.634   5.475
 8815TIP3    H126398   6.598   1.711   5.470
 8815TIP3    H226399   6.567   1.583   5.398
 8816TIP3   OH226400   6.459   0.913   5.570
 8816TIP3    H126401   6.472   1.010   5.573
 8816TIP3    H226402   6.363   0.909   5.559
 8817TIP3   OH226403   7.765   2.360   5.943
 8817TIP3    H126404   7.732   2.413   5.868
 8817TIP3    H226405   7.862   2.371   5.933
 8818TIP3   OH226406   6.399   1.865   5.848
 8818TIP3    H126407   6.328   1.881   5.911
 8818TIP3    H226408   6.359   1.897   5.764
 8819TIP3   OH226409   6.549   2.393   6.912
 8819TIP3    H126410   6.636   2.391   6.956
 8819TIP3    H226411   6.525   2.299   6.913
 8820TIP3   OH226412   7.013   1.934   5.092
 8820TIP3    H126413   6.956   1.862   5.128
 8820TIP3    H226414   7.089   1.882   5.059
 8821TIP3   OH226415   7.447   1.975   5.013
 8821TIP3    H126416   7.489   1.905   5.066
 8821TIP3    H226417   7.495   1.971   4.928
 8822TIP3   OH226418   6.654   1.447   5.310
 8822TIP3    H126419   6.706   1.426   5.389
 8822TIP3    H226420   6.725   1.453   5.243
 8823TIP3   OH226421   7.177   1.653   5.126
 8823TIP3    H126422   7.172   1.663   5.223
 8823TIP3    H226423   7.175   1.555   5.118
 8824TIP3   OH226424   6.870   1.360   5.540
 8824TIP3    H126425   6.837   1.320   5.622
 8824TIP3    H226426   6.904   1.282   5.490
 8825TIP3   OH226427   6.965   1.152   5.379
 8825TIP3    H126428   6.941   1.155   5.284
 8825TIP3    H226429   7.063   1.154   5.373
 8826TIP3   OH226430   6.777   2.216   5.286
 8826TIP3    H126431   6.871   2.205   5.265
 8826TIP3    H226432   6.747   2.264   5.206
 8827TIP3   OH226433   6.168   2.206   5.914
 8827TIP3    H126434   6.105   2.143   5.875
 8827TIP3    H226435   6.214   2.148   5.979
 8828TIP3   OH226436   6.302   2.057   6.103
 8828TIP3    H126437   6.292   1.983   6.166
 8828TIP3    H226438   6.356   2.118   6.157
 8829TIP3   OH226439   8.018   2.491   5.882
 8829TIP3    H126440   8.021   2.581   5.916
 8829TIP3    H226441   8.025   2.503   5.786
 8830TIP3   OH226442   6.497   1.472   6.466
 8830TIP3    H126443   6.497   1.436   6.375
 8830TIP3    H226444   6.593   1.476   6.485
 8831TIP3   OH226445   6.489   1.111   6.548
 8831TIP3    H126446   6.543   1.124   6.467
 8831TIP3    H226447   6.495   1.197   6.591
 8832TIP3   OH226448   7.613   2.324   5.559
 8832TIP3    H126449   7.666   2.320   5.477
 8832TIP3    H226450   7.662   2.388   5.613
 8833TIP3   OH226451   6.718   2.125   6.955
 8833TIP3    H126452   6.625   2.099   6.946
 8833TIP3    H226453   6.746   2.075   7.035
 8834TIP3   OH226454   6.874   2.165   6.486
 8834TIP3    H126455   6.842   2.247   6.442
 8834TIP3    H226456   6.967   2.168   6.456
 8835TIP3   OH226457   6.570   2.420   6.511
 8835TIP3    H126458   6.479   2.453   6.490
 8835TIP3    H226459   6.580   2.454   6.600
 8836TIP3   OH226460   6.807   2.404   6.373
 8836TIP3    H126461   6.719   2.414   6.415
 8836TIP3    H226462   6.788   2.430   6.281
 8837TIP3   OH226463   7.230   2.430   6.166
 8837TIP3    H126464   7.156   2.445   6.104
 8837TIP3    H226465   7.241   2.519   6.206
 8838TIP3   OH226466   7.495   2.342   6.204
 8838TIP3    H126467   7.413   2.391   6.184
 8838TIP3    H226468   7.563   2.411   6.191
 8839TIP3   OH226469   7.661   2.551   6.128
 8839TIP3    H126470   7.688   2.638   6.094
 8839TIP3    H226471   7.711   2.489   6.072
 8840TIP3   OH226472   6.482   2.212   6.258
 8840TIP3    H126473   6.508   2.184   6.348
 8840TIP3    H226474   6.553   2.167   6.207
 8841TIP3   OH226475   6.677   2.084   6.118
 8841TIP3    H126476   6.691   1.999   6.166
 8841TIP3    H226477   6.769   2.118   6.113
 8842TIP3   OH226478   6.943   2.177   6.118
 8842TIP3    H126479   6.972   2.084   6.111
 8842TIP3    H226480   6.991   2.201   6.200
 8843TIP3   OH226481   6.274   1.984   5.643
 8843TIP3    H126482   6.193   1.940   5.611
 8843TIP3    H226483   6.253   2.076   5.620
 8844TIP3   OH226484   7.042   2.169   5.230
 8844TIP3    H126485   7.130   2.192   5.194
 8844TIP3    H226486   7.020   2.094   5.169
 8845TIP3   OH226487   7.748   2.288   5.323
 8845TIP3    H126488   7.740   2.190   5.310
 8845TIP3    H226489   7.701   2.321   5.244
 8846TIP3   OH226490   6.348   2.015   5.286
 8846TIP3    H126491   6.338   2.019   5.382
 8846TIP3    H226492   6.434   1.968   5.276
 8847TIP3   OH226493   7.939   2.460   5.405
 8847TIP3    H126494   7.878   2.389   5.376
 8847TIP3    H226495   7.971   2.430   5.491
 8848TIP3   OH226496   1.708   2.603   6.967
 8848TIP3    H126497   1.672   2.689   6.938
 8848TIP3    H226498   1.635   2.545   6.939
 8849TIP3   OH226499   1.952   2.905   7.022
 8849TIP3    H126500   1.924   2.836   7.083
 8849TIP3    H226501   1.990   2.973   7.081
 8850TIP3   OH226502   1.601   3.362   7.044
 8850TIP3    H126503   1.643   3.291   6.991
 8850TIP3    H226504   1.575   3.315   7.124
 8851TIP3   OH226505   2.451   2.126   7.335
 8851TIP3    H126506   2.503   2.162   7.408
 8851TIP3    H226507   2.512   2.132   7.261
 8852TIP3   OH226508   1.952   2.063   7.018
 8852TIP3    H126509   2.021   2.052   7.087
 8852TIP3    H226510   2.003   2.105   6.947
 8853TIP3   OH226511   1.590   2.815   6.838
 8853TIP3    H126512   1.555   2.802   6.748
 8853TIP3    H226513   1.546   2.899   6.863
 8854TIP3   OH226514   2.167   2.072   7.195
 8854TIP3    H126515   2.234   2.010   7.227
 8854TIP3    H226516   2.214   2.156   7.197
 8855TIP3   OH226517   0.596   2.622   6.951
 8855TIP3    H126518   0.545   2.646   6.872
 8855TIP3    H226519   0.609   2.707   6.996
 8856TIP3   OH226520   2.020   3.138   7.193
 8856TIP3    H126521   1.939   3.137   7.247
 8856TIP3    H226522   2.013   3.224   7.146
 8857TIP3   OH226523   1.721   3.185   6.873
 8857TIP3    H126524   1.767   3.101   6.849
 8857TIP3    H226525   1.783   3.249   6.832
 8858TIP3   OH226526   1.857   2.972   6.774
 8858TIP3    H126527   1.835   2.890   6.728
 8858TIP3    H226528   1.898   2.939   6.857
 8859TIP3   OH226529   2.271   3.076   7.529
 8859TIP3    H126530   2.257   3.020   7.452
 8859TIP3    H226531   2.258   3.164   7.489
 8860TIP3   OH226532   1.541   2.450   6.800
 8860TIP3    H126533   1.460   2.501   6.781
 8860TIP3    H226534   1.583   2.445   6.713
 8861TIP3   OH226535   1.497   2.233   6.510
 8861TIP3    H126536   1.563   2.286   6.558
 8861TIP3    H226537   1.556   2.170   6.463
 8862TIP3   OH226538   2.395   2.715   7.353
 8862TIP3    H126539   2.357   2.803   7.338
 8862TIP3    H226540   2.454   2.710   7.276
 8863TIP3   OH226541   1.884   2.529   6.769
 8863TIP3    H126542   1.830   2.554   6.847
 8863TIP3    H226543   1.969   2.505   6.812
 8864TIP3   OH226544   1.143   2.507   7.177
 8864TIP3    H126545   1.081   2.468   7.112
 8864TIP3    H226546   1.210   2.438   7.181
 8865TIP3   OH226547   1.793   3.137   7.364
 8865TIP3    H126548   1.744   3.220   7.352
 8865TIP3    H226549   1.724   3.070   7.362
 8866TIP3   OH226550   1.724   2.387   6.595
 8866TIP3    H126551   1.782   2.448   6.644
 8866TIP3    H226552   1.750   2.407   6.502
 8867TIP3   OH226553   1.470   3.067   6.874
 8867TIP3    H126554   1.552   3.119   6.878
 8867TIP3    H226555   1.409   3.125   6.827
 8868TIP3   OH226556   2.240   1.625   6.645
 8868TIP3    H126557   2.159   1.649   6.693
 8868TIP3    H226558   2.257   1.707   6.594
 8869TIP3   OH226559   0.990   2.375   6.987
 8869TIP3    H126560   0.917   2.410   6.932
 8869TIP3    H226561   0.958   2.286   7.009
 8870TIP3   OH226562   2.042   2.993   6.195
 8870TIP3    H126563   2.050   3.089   6.177
 8870TIP3    H226564   2.134   2.964   6.182
 8871TIP3   OH226565   2.476   3.391   7.587
 8871TIP3    H126566   2.484   3.300   7.554
 8871TIP3    H226567   2.392   3.383   7.637
 8872TIP3   OH226568   1.352   3.309   6.676
 8872TIP3    H126569   1.307   3.293   6.591
 8872TIP3    H226570   1.318   3.397   6.701
 8873TIP3   OH226571   0.799   3.145   7.037
 8873TIP3    H126572   0.812   3.152   7.133
 8873TIP3    H226573   0.748   3.061   7.031
 8874TIP3   OH226574   1.550   3.213   6.312
 8874TIP3    H126575   1.609   3.144   6.275
 8874TIP3    H226576   1.586   3.224   6.402
 8875TIP3   OH226577   1.602   3.262   6.581
 8875TIP3    H126578   1.514   3.271   6.623
 8875TIP3    H226579   1.654   3.223   6.653
 8876TIP3   OH226580   1.802   2.430   6.341
 8876TIP3    H126581   1.766   2.408   6.253
 8876TIP3    H226582   1.885   2.475   6.315
 8877TIP3   OH226583   1.516   1.806   6.643
 8877TIP3    H126584   1.481   1.799   6.734
 8877TIP3    H226585   1.474   1.727   6.604
 8878TIP3   OH226586   1.674   2.245   6.927
 8878TIP3    H126587   1.623   2.318   6.886
 8878TIP3    H226588   1.730   2.215   6.853
 8879TIP3   OH226589   1.855   2.310   7.129
 8879TIP3    H126590   1.779   2.310   7.069
 8879TIP3    H226591   1.877   2.216   7.129
 8880TIP3   OH226592   1.172   1.782   6.607
 8880TIP3    H126593   1.158   1.778   6.703
 8880TIP3    H226594   1.096   1.837   6.579
 8881TIP3   OH226595   1.214   2.016   6.957
 8881TIP3    H126596   1.301   2.056   6.940
 8881TIP3    H226597   1.159   2.051   6.884
 8882TIP3   OH226598   1.056   2.087   6.750
 8882TIP3    H126599   0.978   2.043   6.713
 8882TIP3    H226600   1.104   2.109   6.667
 8883TIP3   OH226601   2.252   3.737   7.637
 8883TIP3    H126602   2.237   3.753   7.542
 8883TIP3    H226603   2.309   3.813   7.660
 8884TIP3   OH226604   1.306   2.598   6.745
 8884TIP3    H126605   1.235   2.531   6.735
 8884TIP3    H226606   1.285   2.635   6.835
 8885TIP3   OH226607   1.765   1.910   6.612
 8885TIP3    H126608   1.669   1.890   6.620
 8885TIP3    H226609   1.771   2.004   6.636
 8886TIP3   OH226610   1.835   2.160   6.716
 8886TIP3    H126611   1.931   2.167   6.729
 8886TIP3    H226612   1.815   2.240   6.662
 8887TIP3   OH226613   1.454   2.748   6.571
 8887TIP3    H126614   1.404   2.834   6.574
 8887TIP3    H226615   1.399   2.693   6.631
 8888TIP3   OH226616   2.273   2.253   6.551
 8888TIP3    H126617   2.212   2.209   6.487
 8888TIP3    H226618   2.271   2.343   6.510
 8889TIP3   OH226619   1.976   3.068   6.457
 8889TIP3    H126620   1.951   2.995   6.516
 8889TIP3    H226621   1.991   3.024   6.372
 8890TIP3   OH226622   1.087   2.934   7.055
 8890TIP3    H126623   1.102   3.011   6.996
 8890TIP3    H226624   0.997   2.910   7.031
 8891TIP3   OH226625   0.648   2.235   6.756
 8891TIP3    H126626   0.716   2.304   6.772
 8891TIP3    H226627   0.574   2.273   6.805
 8892TIP3   OH226628   1.235   2.697   6.987
 8892TIP3    H126629   1.205   2.785   7.018
 8892TIP3    H226630   1.212   2.640   7.063
 8893TIP3   OH226631   1.032   3.165   6.892
 8893TIP3    H126632   0.945   3.172   6.937
 8893TIP3    H226633   1.063   3.258   6.898
 8894TIP3   OH226634   1.736   2.797   6.360
 8894TIP3    H126635   1.788   2.772   6.440
 8894TIP3    H226636   1.647   2.769   6.387
 8895TIP3   OH226637   1.985   3.422   7.507
 8895TIP3    H126638   1.906   3.387   7.463
 8895TIP3    H226639   2.002   3.501   7.452
 8896TIP3   OH226640   2.071   3.269   6.177
 8896TIP3    H126641   2.110   3.341   6.126
 8896TIP3    H226642   1.991   3.314   6.211
 8897TIP3   OH226643   1.895   2.734   6.580
 8897TIP3    H126644   1.885   2.664   6.647
 8897TIP3    H226645   1.992   2.728   6.563
 8898TIP3   OH226646   1.097   2.776   6.360
 8898TIP3    H126647   1.111   2.684   6.332
 8898TIP3    H226648   1.076   2.765   6.455
 8899TIP3   OH226649   1.042   2.781   6.633
 8899TIP3    H126650   1.120   2.755   6.684
 8899TIP3    H226651   1.046   2.880   6.639
 8900TIP3   OH226652   0.782   2.467   6.828
 8900TIP3    H126653   0.718   2.515   6.886
 8900TIP3    H226654   0.799   2.538   6.762
 8901TIP3   OH226655   1.816   1.855   6.888
 8901TIP3    H126656   1.800   1.881   6.795
 8901TIP3    H226657   1.855   1.937   6.926
 8902TIP3   OH226658   1.311   2.977   6.581
 8902TIP3    H126659   1.223   3.003   6.615
 8902TIP3    H226660   1.326   3.049   6.517
 8903TIP3   OH226661   1.501   2.040   6.974
 8903TIP3    H126662   1.559   2.115   6.948
 8903TIP3    H226663   1.516   2.038   7.068
 8904TIP3   OH226664   1.649   1.768   7.085
 8904TIP3    H126665   1.691   1.812   7.160
 8904TIP3    H226666   1.705   1.801   7.010
 8905TIP3   OH226667   1.055   3.053   6.645
 8905TIP3    H126668   1.026   3.123   6.584
 8905TIP3    H226669   1.045   3.097   6.732
 8906TIP3   OH226670   1.152   1.765   6.882
 8906TIP3    H126671   1.157   1.855   6.919
 8906TIP3    H226672   1.245   1.738   6.895
 8907TIP3   OH226673   2.039   2.487   7.222
 8907TIP3    H126674   1.963   2.430   7.190
 8907TIP3    H226675   2.113   2.423   7.216
 8908TIP3   OH226676   0.777   2.682   6.635
 8908TIP3    H126677   0.850   2.746   6.644
 8908TIP3    H226678   0.818   2.622   6.569
 8909TIP3   OH226679   0.749   1.974   6.766
 8909TIP3    H126680   0.706   2.061   6.772
 8909TIP3    H226681   0.676   1.912   6.758
 8910TIP3   OH226682   2.026   3.408   7.117
 8910TIP3    H126683   1.984   3.457   7.041
 8910TIP3    H226684   2.121   3.429   7.098
 8911TIP3   OH226685   0.641   2.910   7.023
 8911TIP3    H126686   0.560   2.942   7.064
 8911TIP3    H226687   0.623   2.935   6.930
 8912TIP3   OH226688   1.262   2.979   6.270
 8912TIP3    H126689   1.207   2.906   6.307
 8912TIP3    H226690   1.337   2.929   6.234
 8913TIP3   OH226691   1.696   3.018   6.183
 8913TIP3    H126692   1.741   2.955   6.242
 8913TIP3    H226693   1.752   3.015   6.102
 8914TIP3   OH226694   0.906   2.493   6.494
 8914TIP3    H126695   0.964   2.461   6.567
 8914TIP3    H226696   0.973   2.499   6.422
 8915TIP3   OH226697   1.420   2.696   6.302
 8915TIP3    H126698   1.423   2.706   6.399
 8915TIP3    H226699   1.421   2.598   6.294
 8916TIP3   OH226700   1.113   2.402   6.712
 8916TIP3    H126701   1.085   2.359   6.795
 8916TIP3    H226702   1.151   2.326   6.663
 8917TIP3   OH226703   1.218   2.199   6.553
 8917TIP3    H126704   1.190   2.202   6.460
 8917TIP3    H226705   1.315   2.198   6.545
 8918TIP3   OH226706   2.035   2.523   6.222
 8918TIP3    H126707   2.016   2.480   6.136
 8918TIP3    H226708   2.002   2.614   6.201
 8919TIP3   OH226709   1.024   3.256   6.461
 8919TIP3    H126710   1.120   3.249   6.442
 8919TIP3    H226711   0.996   3.308   6.383
 8920TIP3   OH226712   0.513   2.630   6.681
 8920TIP3    H126713   0.607   2.653   6.664
 8920TIP3    H226714   0.504   2.544   6.635
 8921TIP3   OH226715   0.430   3.229   7.099
 8921TIP3    H126716   0.352   3.198   7.052
 8921TIP3    H226717   0.401   3.222   7.192
 8922TIP3   OH226718   2.278   3.503   7.077
 8922TIP3    H126719   2.307   3.536   7.164
 8922TIP3    H226720   2.345   3.540   7.017
 8923TIP3   OH226721   2.305   3.537   7.353
 8923TIP3    H126722   2.269   3.445   7.354
 8923TIP3    H226723   2.380   3.527   7.414
 8924TIP3   OH226724   2.172   2.711   6.551
 8924TIP3    H126725   2.237   2.776   6.518
 8924TIP3    H226726   2.219   2.675   6.629
 8925TIP3   OH226727   2.299   2.577   6.755
 8925TIP3    H126728   2.235   2.538   6.817
 8925TIP3    H226729   2.368   2.613   6.815
 8926TIP3   OH226730   2.364   2.964   7.211
 8926TIP3    H126731   2.409   2.899   7.153
 8926TIP3    H226732   2.350   3.038   7.149
 8927TIP3   OH226733   2.190   3.289   7.378
 8927TIP3    H126734   2.120   3.324   7.437
 8927TIP3    H226735   2.139   3.241   7.310
 8928TIP3   OH226736   2.238   2.486   6.402
 8928TIP3    H126737   2.167   2.488   6.333
 8928TIP3    H226738   2.209   2.563   6.456
 8929TIP3   OH226739   2.108   2.159   6.357
 8929TIP3    H126740   2.067   2.197   6.278
 8929TIP3    H226741   2.085   2.065   6.347
 8930TIP3   OH226742   2.111   2.436   6.907
 8930TIP3    H126743   2.116   2.341   6.889
 8930TIP3    H226744   2.096   2.440   7.002
 8931TIP3   OH226745   2.053   1.893   6.340
 8931TIP3    H126746   2.125   1.861   6.396
 8931TIP3    H226747   1.979   1.834   6.361
 8932TIP3   OH226748   2.113   2.156   6.796
 8932TIP3    H126749   2.151   2.066   6.811
 8932TIP3    H226750   2.170   2.185   6.722
 8933TIP3   OH226751   2.271   2.369   7.272
 8933TIP3    H126752   2.367   2.379   7.254
 8933TIP3    H226753   2.272   2.320   7.357
 8934TIP3   OH226754   2.218   1.903   6.835
 8934TIP3    H126755   2.267   1.883   6.917
 8934TIP3    H226756   2.156   1.828   6.832
 8935TIP3   OH226757   2.299   1.833   6.470
 8935TIP3    H126758   2.338   1.765   6.412
 8935TIP3    H226759   2.365   1.905   6.465
 8936TIP3   OH226760   1.864   3.368   6.735
 8936TIP3    H126761   1.913   3.357   6.651
 8936TIP3    H226762   1.918   3.436   6.780
 8937TIP3   OH226763   1.497   3.527   7.312
 8937TIP3    H126764   1.428   3.505   7.246
 8937TIP3    H226765   1.465   3.610   7.347
 8938TIP3   OH226766   1.738   3.421   7.381
 8938TIP3    H126767   1.655   3.461   7.345
 8938TIP3    H226768   1.804   3.482   7.342
 8939TIP3   OH226769   1.941   3.595   7.301
 8939TIP3    H126770   1.929   3.682   7.257
 8939TIP3    H226771   1.978   3.541   7.227
 8940TIP3   OH226772   1.207   3.239   7.210
 8940TIP3    H126773   1.189   3.145   7.196
 8940TIP3    H226774   1.205   3.246   7.306
 8941TIP3   OH226775   2.269   1.794   7.282
 8941TIP3    H126776   2.329   1.819   7.209
 8941TIP3    H226777   2.215   1.729   7.234
 8942TIP3   OH226778   2.389   1.860   7.050
 8942TIP3    H126779   2.456   1.804   7.004
 8942TIP3    H226780   2.425   1.949   7.030
 8943TIP3   OH226781   2.034   1.692   6.821
 8943TIP3    H126782   1.950   1.738   6.841
 8943TIP3    H226783   2.021   1.609   6.870
 8944TIP3   OH226784   0.502   3.030   6.822
 8944TIP3    H126785   0.448   2.984   6.757
 8944TIP3    H226786   0.492   3.123   6.791
 8945TIP3   OH226787   0.917   1.635   6.778
 8945TIP3    H126788   0.980   1.570   6.737
 8945TIP3    H226789   0.979   1.680   6.838
 8946TIP3   OH226790   1.435   1.784   6.906
 8946TIP3    H126791   1.500   1.752   6.972
 8946TIP3    H226792   1.443   1.880   6.921
 8947TIP3   OH226793   1.292   3.213   6.409
 8947TIP3    H126794   1.380   3.237   6.372
 8947TIP3    H226795   1.269   3.140   6.347
 8948TIP3   OH226796   2.008   3.335   6.502
 8948TIP3    H126797   2.001   3.237   6.491
 8948TIP3    H226798   1.964   3.366   6.421
 8949TIP3   OH226799   0.598   3.048   6.466
 8949TIP3    H126800   0.612   3.087   6.552
 8949TIP3    H226801   0.685   3.005   6.448
 8950TIP3   OH226802   3.501   2.853   6.452
 8950TIP3    H126803   3.479   2.947   6.457
 8950TIP3    H226804   3.423   2.814   6.409
 8951TIP3   OH226805   3.501   2.852   6.836
 8951TIP3    H126806   3.536   2.829   6.924
 8951TIP3    H226807   3.461   2.768   6.808
 8952TIP3   OH226808   2.801   2.746   7.204
 8952TIP3    H126809   2.836   2.679   7.266
 8952TIP3    H226810   2.879   2.801   7.191
 8953TIP3   OH226811   3.786   3.115   6.540
 8953TIP3    H126812   3.737   3.082   6.615
 8953TIP3    H226813   3.765   3.209   6.540
 8954TIP3   OH226814   2.773   3.154   6.921
 8954TIP3    H126815   2.765   3.057   6.925
 8954TIP3    H226816   2.870   3.164   6.912
 8955TIP3   OH226817   2.478   2.352   6.707
 8955TIP3    H126818   2.435   2.437   6.724
 8955TIP3    H226819   2.406   2.305   6.661
 8956TIP3   OH226820   2.536   2.643   6.879
 8956TIP3    H126821   2.587   2.566   6.914
 8956TIP3    H226822   2.600   2.686   6.821
 8957TIP3   OH226823   3.410   3.593   6.512
 8957TIP3    H126824   3.412   3.525   6.441
 8957TIP3    H226825   3.412   3.538   6.591
 8958TIP3   OH226826   3.299   3.077   6.886
 8958TIP3    H126827   3.341   3.002   6.842
 8958TIP3    H226828   3.381   3.125   6.912
 8959TIP3   OH226829   4.315   2.396   6.884
 8959TIP3    H126830   4.345   2.479   6.926
 8959TIP3    H226831   4.335   2.414   6.790
 8960TIP3   OH226832   3.710   2.576   6.915
 8960TIP3    H126833   3.755   2.492   6.935
 8960TIP3    H226834   3.680   2.559   6.823
 8961TIP3   OH226835   3.052   2.237   6.881
 8961TIP3    H126836   3.035   2.310   6.818
 8961TIP3    H226837   3.005   2.164   6.834
 8962TIP3   OH226838   3.747   2.330   6.501
 8962TIP3    H126839   3.818   2.315   6.567
 8962TIP3    H226840   3.801   2.364   6.427
 8963TIP3   OH226841   2.685   2.438   6.987
 8963TIP3    H126842   2.770   2.423   7.033
 8963TIP3    H226843   2.700   2.384   6.906
 8964TIP3   OH226844   3.124   2.636   6.786
 8964TIP3    H126845   3.219   2.613   6.795
 8964TIP3    H226846   3.087   2.552   6.750
 8965TIP3   OH226847   4.387   2.604   7.054
 8965TIP3    H126848   4.304   2.652   7.035
 8965TIP3    H226849   4.409   2.639   7.142
 8966TIP3   OH226850   3.036   2.219   7.320
 8966TIP3    H126851   2.985   2.262   7.248
 8966TIP3    H226852   2.971   2.223   7.391
 8967TIP3   OH226853   3.153   2.997   7.107
 8967TIP3    H126854   3.095   3.067   7.143
 8967TIP3    H226855   3.197   3.044   7.033
 8968TIP3   OH226856   3.954   2.334   6.678
 8968TIP3    H126857   3.940   2.291   6.763
 8968TIP3    H226858   4.005   2.413   6.703
 8969TIP3   OH226859   2.918   2.334   7.099
 8969TIP3    H126860   2.979   2.408   7.123
 8969TIP3    H226861   2.967   2.296   7.023
 8970TIP3   OH226862   2.981   3.194   7.210
 8970TIP3    H126863   2.959   3.280   7.170
 8970TIP3    H226864   2.898   3.178   7.259
 8971TIP3   OH226865   2.372   2.882   6.443
 8971TIP3    H126866   2.336   2.911   6.357
 8971TIP3    H226867   2.406   2.966   6.479
 8972TIP3   OH226868   3.820   3.408   6.694
 8972TIP3    H126869   3.729   3.391   6.727
 8972TIP3    H226870   3.805   3.489   6.642
 8973TIP3   OH226871   4.108   2.292   7.047
 8973TIP3    H126872   4.022   2.322   7.014
 8973TIP3    H226873   4.170   2.327   6.979
 8974TIP3   OH226874   3.402   1.936   7.028
 8974TIP3    H126875   3.385   1.843   7.048
 8974TIP3    H226876   3.327   1.979   7.073
 8975TIP3   OH226877   4.041   3.307   7.027
 8975TIP3    H126878   4.028   3.231   6.967
 8975TIP3    H226879   4.022   3.383   6.967
 8976TIP3   OH226880   3.334   2.706   6.286
 8976TIP3    H126881   3.253   2.757   6.264
 8976TIP3    H226882   3.380   2.705   6.200
 8977TIP3   OH226883   3.291   2.490   5.998
 8977TIP3    H126884   3.355   2.543   6.048
 8977TIP3    H226885   3.351   2.429   5.951
 8978TIP3   OH226886   4.236   2.947   6.873
 8978TIP3    H126887   4.152   2.998   6.877
 8978TIP3    H226888   4.267   2.973   6.784
 8979TIP3   OH226889   3.681   2.779   6.259
 8979TIP3    H126890   3.628   2.807   6.337
 8979TIP3    H226891   3.768   2.763   6.301
 8980TIP3   OH226892   3.915   2.823   7.173
 8980TIP3    H126893   3.912   2.905   7.225
 8980TIP3    H226894   3.830   2.830   7.125
 8981TIP3   OH226895   2.911   2.782   6.676
 8981TIP3    H126896   2.871   2.724   6.608
 8981TIP3    H226897   2.989   2.729   6.705
 8982TIP3   OH226898   3.039   3.189   6.824
 8982TIP3    H126899   3.022   3.162   6.733
 8982TIP3    H226900   3.129   3.154   6.840
 8983TIP3   OH226901   3.042   2.756   7.028
 8983TIP3    H126902   3.079   2.730   6.941
 8983TIP3    H226903   3.090   2.840   7.047
 8984TIP3   OH226904   3.574   3.391   6.806
 8984TIP3    H126905   3.562   3.472   6.859
 8984TIP3    H226906   3.557   3.319   6.870
 8985TIP3   OH226907   3.189   3.310   7.352
 8985TIP3    H126908   3.127   3.371   7.396
 8985TIP3    H226909   3.126   3.256   7.301
 8986TIP3   OH226910   3.520   2.643   6.083
 8986TIP3    H126911   3.579   2.705   6.133
 8986TIP3    H226912   3.547   2.662   5.990
 8987TIP3   OH226913   2.950   2.871   7.454
 8987TIP3    H126914   2.950   2.966   7.476
 8987TIP3    H226915   2.859   2.848   7.482
 8988TIP3   OH226916   2.981   3.473   7.433
 8988TIP3    H126917   2.944   3.478   7.342
 8988TIP3    H226918   2.901   3.453   7.486
 8989TIP3   OH226919   4.036   1.883   6.132
 8989TIP3    H126920   3.954   1.905   6.181
 8989TIP3    H226921   4.051   1.967   6.083
 8990TIP3   OH226922   2.779   2.625   6.479
 8990TIP3    H126923   2.714   2.672   6.423
 8990TIP3    H226924   2.740   2.537   6.485
 8991TIP3   OH226925   3.839   3.249   5.680
 8991TIP3    H126926   3.843   3.345   5.660
 8991TIP3    H226927   3.932   3.222   5.666
 8992TIP3   OH226928   2.571   3.004   7.387
 8992TIP3    H126929   2.498   2.989   7.324
 8992TIP3    H226930   2.583   2.916   7.426
 8993TIP3   OH226931   2.415   3.201   7.023
 8993TIP3    H126932   2.510   3.190   7.009
 8993TIP3    H226933   2.412   3.281   7.077
 8994TIP3   OH226934   4.279   3.656   7.075
 8994TIP3    H126935   4.277   3.560   7.089
 8994TIP3    H226936   4.195   3.681   7.121
 8995TIP3   OH226937   3.384   3.439   7.209
 8995TIP3    H126938   3.381   3.531   7.240
 8995TIP3    H226939   3.313   3.398   7.262
 8996TIP3   OH226940   3.040   3.590   6.151
 8996TIP3    H126941   3.086   3.546   6.077
 8996TIP3    H226942   3.106   3.653   6.181
 8997TIP3   OH226943   2.580   3.418   6.550
 8997TIP3    H126944   2.631   3.410   6.633
 8997TIP3    H226945   2.531   3.334   6.550
 8998TIP3   OH226946   4.169   2.784   7.350
 8998TIP3    H126947   4.085   2.794   7.303
 8998TIP3    H226948   4.184   2.687   7.341
 8999TIP3   OH226949   2.747   3.204   7.357
 8999TIP3    H126950   2.796   3.190   7.441
 8999TIP3    H226951   2.680   3.133   7.365
 9000TIP3   OH226952   3.160   2.022   7.144
 9000TIP3    H126953   3.070   1.996   7.117
 9000TIP3    H226954   3.141   2.106   7.189
 9001TIP3   OH226955   3.709   2.132   7.357
 9001TIP3    H126956   3.764   2.090   7.426
 9001TIP3    H226957   3.618   2.114   7.388
 9002TIP3   OH226958   3.929   2.559   7.267
 9002TIP3    H126959   3.884   2.560   7.355
 9002TIP3    H226960   3.912   2.649   7.233
 9003TIP3   OH226961   3.594   2.675   5.825
 9003TIP3    H126962   3.567   2.658   5.733
 9003TIP3    H226963   3.659   2.746   5.814
 9004TIP3   OH226964   3.308   2.063   6.131
 9004TIP3    H126965   3.273   2.058   6.222
 9004TIP3    H226966   3.269   1.981   6.095
 9005TIP3   OH226967   3.093   2.532   7.175
 9005TIP3    H126968   3.049   2.556   7.259
 9005TIP3    H226969   3.078   2.613   7.123
 9006TIP3   OH226970   2.981   2.417   6.692
 9006TIP3    H126971   2.888   2.393   6.708
 9006TIP3    H226972   2.993   2.377   6.602
 9007TIP3   OH226973   3.469   2.502   6.419
 9007TIP3    H126974   3.421   2.576   6.377
 9007TIP3    H226975   3.525   2.471   6.345
 9008TIP3   OH226976   3.651   2.802   7.492
 9008TIP3    H126977   3.618   2.728   7.548
 9008TIP3    H226978   3.744   2.807   7.520
 9009TIP3   OH226979   3.624   2.530   6.658
 9009TIP3    H126980   3.564   2.561   6.587
 9009TIP3    H226981   3.659   2.450   6.612
 9010TIP3   OH226982   2.912   2.567   7.385
 9010TIP3    H126983   2.956   2.621   7.453
 9010TIP3    H226984   2.861   2.504   7.438
 9011TIP3   OH226985   2.963   2.037   6.095
 9011TIP3    H126986   2.954   2.038   6.193
 9011TIP3    H226987   2.888   2.094   6.069
 9012TIP3   OH226988   2.510   2.083   6.969
 9012TIP3    H126989   2.587   2.118   7.018
 9012TIP3    H226990   2.547   2.057   6.883
 9013TIP3   OH226991   2.475   2.061   6.486
 9013TIP3    H126992   2.520   2.097   6.407
 9013TIP3    H226993   2.415   2.136   6.505
 9014TIP3   OH226994   3.634   2.777   7.076
 9014TIP3    H126995   3.669   2.705   7.018
 9014TIP3    H226996   3.605   2.723   7.153
 9015TIP3   OH226997   3.310   2.237   6.751
 9015TIP3    H126998   3.230   2.238   6.807
 9015TIP3    H226999   3.381   2.236   6.817
 9016TIP3   OH227000   2.740   2.295   6.760
 9016TIP3    H127001   2.646   2.302   6.731
 9016TIP3    H227002   2.765   2.205   6.733
 9017TIP3   OH227003   3.007   2.290   6.450
 9017TIP3    H127004   3.101   2.306   6.428
 9017TIP3    H227005   2.961   2.312   6.366
 9018TIP3   OH227006   3.800   2.315   6.954
 9018TIP3    H127007   3.767   2.329   7.046
 9018TIP3    H227008   3.732   2.256   6.919
 9019TIP3   OH227009   2.857   2.324   6.226
 9019TIP3    H127010   2.787   2.280   6.175
 9019TIP3    H227011   2.909   2.364   6.153
 9020TIP3   OH227012   3.973   4.004   7.174
 9020TIP3    H127013   3.970   4.029   7.080
 9020TIP3    H227014   4.051   4.054   7.205
 9021TIP3   OH227015   2.896   3.122   7.578
 9021TIP3    H127016   2.983   3.162   7.603
 9021TIP3    H227017   2.869   3.090   7.665
 9022TIP3   OH227018   3.390   2.567   6.846
 9022TIP3    H127019   3.466   2.534   6.796
 9022TIP3    H227020   3.401   2.524   6.933
 9023TIP3   OH227021   2.911   2.056   6.729
 9023TIP3    H127022   2.876   1.977   6.775
 9023TIP3    H227023   2.957   2.017   6.654
 9024TIP3   OH227024   3.366   2.466   7.143
 9024TIP3    H127025   3.278   2.508   7.153
 9024TIP3    H227026   3.426   2.529   7.188
 9025TIP3   OH227027   3.104   2.852   6.236
 9025TIP3    H127028   3.028   2.792   6.222
 9025TIP3    H227029   3.083   2.889   6.325
 9026TIP3   OH227030   4.001   3.090   6.861
 9026TIP3    H127031   4.023   3.142   6.781
 9026TIP3    H227032   3.917   3.048   6.835
 9027TIP3   OH227033   3.561   2.165   6.100
 9027TIP3    H127034   3.464   2.148   6.107
 9027TIP3    H227035   3.569   2.260   6.124
 9028TIP3   OH227036   3.497   3.172   7.233
 9028TIP3    H127037   3.533   3.157   7.322
 9028TIP3    H227038   3.467   3.264   7.238
 9029TIP3   OH227039   3.629   2.416   6.201
 9029TIP3    H127040   3.725   2.425   6.218
 9029TIP3    H227041   3.609   2.498   6.152
 9030TIP3   OH227042   2.792   2.871   6.909
 9030TIP3    H127043   2.830   2.849   6.821
 9030TIP3    H227044   2.850   2.820   6.968
 9031TIP3   OH227045   3.248   2.992   6.037
 9031TIP3    H127046   3.215   3.083   6.054
 9031TIP3    H227047   3.205   2.945   6.111
 9032TIP3   OH227048   3.400   2.924   7.527
 9032TIP3    H127049   3.350   2.851   7.490
 9032TIP3    H227050   3.492   2.893   7.515
 9033TIP3   OH227051   3.661   3.430   7.130
 9033TIP3    H127052   3.564   3.432   7.142
 9033TIP3    H227053   3.689   3.489   7.203
 9034TIP3   OH227054   4.073   2.508   6.035
 9034TIP3    H127055   4.012   2.464   5.971
 9034TIP3    H227056   4.067   2.599   5.998
 9035TIP3   OH227057   4.291   3.366   7.115
 9035TIP3    H127058   4.194   3.359   7.106
 9035TIP3    H227059   4.318   3.335   7.025
 9036TIP3   OH227060   3.787   3.320   5.949
 9036TIP3    H127061   3.723   3.267   5.999
 9036TIP3    H227062   3.788   3.276   5.862
 9037TIP3   OH227063   3.766   2.952   6.789
 9037TIP3    H127064   3.673   2.925   6.798
 9037TIP3    H227065   3.801   2.879   6.735
 9038TIP3   OH227066   2.902   3.184   6.539
 9038TIP3    H127067   2.902   3.264   6.482
 9038TIP3    H227068   2.808   3.164   6.542
 9039TIP3   OH227069   2.464   2.485   6.241
 9039TIP3    H127070   2.507   2.571   6.261
 9039TIP3    H227071   2.386   2.490   6.301
 9040TIP3   OH227072   3.031   2.944   6.479
 9040TIP3    H127073   2.999   3.035   6.496
 9040TIP3    H227074   2.994   2.896   6.555
 9041TIP3   OH227075   3.167   3.525   7.003
 9041TIP3    H127076   3.209   3.597   6.952
 9041TIP3    H227077   3.244   3.488   7.049
 9042TIP3   OH227078   2.816   3.421   6.391
 9042TIP3    H127079   2.731   3.435   6.436
 9042TIP3    H227080   2.850   3.512   6.384
 9043TIP3   OH227081   3.551   3.157   6.964
 9043TIP3    H127082   3.541   3.154   7.062
 9043TIP3    H227083   3.633   3.107   6.952
 9044TIP3   OH227084   3.512   3.027   5.845
 9044TIP3    H127085   3.578   3.007   5.916
 9044TIP3    H227086   3.430   3.029   5.897
 9045TIP3   OH227087   3.801   3.691   7.012
 9045TIP3    H127088   3.720   3.638   7.003
 9045TIP3    H227089   3.787   3.757   6.940
 9046TIP3   OH227090   3.851   3.527   5.650
 9046TIP3    H127091   3.882   3.612   5.615
 9046TIP3    H227092   3.755   3.537   5.636
 9047TIP3   OH227093   3.695   2.964   6.038
 9047TIP3    H127094   3.680   2.926   6.127
 9047TIP3    H227095   3.793   2.970   6.037
 9048TIP3   OH227096   2.603   3.386   7.164
 9048TIP3    H127097   2.658   3.316   7.206
 9048TIP3    H227098   2.633   3.464   7.212
 9049TIP3   OH227099   2.888   3.037   5.846
 9049TIP3    H127100   2.912   2.947   5.821
 9049TIP3    H227101   2.874   3.028   5.942
 9050TIP3   OH227102   2.839   3.039   6.120
 9050TIP3    H127103   2.925   3.020   6.160
 9050TIP3    H227104   2.837   3.137   6.125
 9051TIP3   OH227105   2.573   2.730   6.322
 9051TIP3    H127106   2.506   2.777   6.377
 9051TIP3    H227107   2.589   2.797   6.253
 9052TIP3   OH227108   3.727   2.368   7.213
 9052TIP3    H127109   3.807   2.412   7.246
 9052TIP3    H227110   3.721   2.288   7.271
 9053TIP3   OH227111   3.608   2.115   6.382
 9053TIP3    H127112   3.594   2.138   6.288
 9053TIP3    H227113   3.646   2.199   6.417
 9054TIP3   OH227114   3.098   3.224   6.063
 9054TIP3    H127115   3.015   3.265   6.094
 9054TIP3    H227116   3.160   3.299   6.070
 9055TIP3   OH227117   3.290   2.300   6.481
 9055TIP3    H127118   3.354   2.372   6.463
 9055TIP3    H227119   3.299   2.291   6.578
 9056TIP3   OH227120   3.562   2.615   7.282
 9056TIP3    H127121   3.582   2.667   7.362
 9056TIP3    H227122   3.617   2.536   7.293
 9057TIP3   OH227123   3.435   2.019   6.579
 9057TIP3    H127124   3.429   2.096   6.639
 9057TIP3    H227125   3.498   2.054   6.512
 9058TIP3   OH227126   2.837   3.310   6.135
 9058TIP3    H127127   2.815   3.383   6.073
 9058TIP3    H227128   2.831   3.356   6.221
 9059TIP3   OH227129   2.949   2.026   6.373
 9059TIP3    H127130   2.948   2.117   6.408
 9059TIP3    H227131   3.046   2.008   6.379
 9060TIP3   OH227132   4.196   2.518   7.270
 9060TIP3    H127133   4.098   2.514   7.272
 9060TIP3    H227134   4.214   2.480   7.183
 9061TIP3   OH227135   3.854   2.710   6.657
 9061TIP3    H127136   3.778   2.651   6.670
 9061TIP3    H227137   3.926   2.664   6.706
 9062TIP3   OH227138   2.569   2.937   6.126
 9062TIP3    H127139   2.640   3.002   6.138
 9062TIP3    H227140   2.612   2.880   6.058
 9063TIP3   OH227141   2.507   2.214   6.263
 9063TIP3    H127142   2.512   2.312   6.260
 9063TIP3    H227143   2.430   2.198   6.207
 9064TIP3   OH227144   3.822   3.674   6.605
 9064TIP3    H127145   3.779   3.727   6.534
 9064TIP3    H227146   3.917   3.690   6.582
 9065TIP3   OH227147   2.894   1.936   7.130
 9065TIP3    H127148   2.867   1.908   7.039
 9065TIP3    H227149   2.883   1.852   7.179
 9066TIP3   OH227150   2.435   3.150   6.510
 9066TIP3    H127151   2.368   3.184   6.570
 9066TIP3    H227152   2.408   3.193   6.425
 9067TIP3   OH227153   2.596   3.692   7.570
 9067TIP3    H127154   2.682   3.698   7.619
 9067TIP3    H227155   2.583   3.596   7.571
 9068TIP3   OH227156   3.068   3.642   7.634
 9068TIP3    H127157   3.159   3.673   7.623
 9068TIP3    H227158   3.053   3.590   7.552
 9069TIP3   OH227159   3.056   3.238   5.752
 9069TIP3    H127160   3.000   3.174   5.800
 9069TIP3    H227161   3.133   3.182   5.732
 9070TIP3   OH227162   3.713   3.578   7.358
 9070TIP3    H127163   3.702   3.496   7.412
 9070TIP3    H227164   3.794   3.619   7.395
 9071TIP3   OH227165   2.703   2.750   5.983
 9071TIP3    H127166   2.762   2.724   6.056
 9071TIP3    H227167   2.768   2.757   5.910
 9072TIP3   OH227168   3.358   3.196   7.540
 9072TIP3    H127169   3.312   3.214   7.455
 9072TIP3    H227170   3.379   3.100   7.532
 9073TIP3   OH227171   3.195   2.946   5.775
 9073TIP3    H127172   3.210   2.963   5.871
 9073TIP3    H227173   3.205   2.849   5.773
 9074TIP3   OH227174   3.824   3.201   7.167
 9074TIP3    H127175   3.901   3.241   7.122
 9074TIP3    H227176   3.757   3.270   7.150
 9075TIP3   OH227177   2.904   2.658   6.197
 9075TIP3    H127178   2.883   2.616   6.282
 9075TIP3    H227179   2.945   2.584   6.147
 9076TIP3   OH227180   3.181   2.711   7.430
 9076TIP3    H127181   3.109   2.777   7.430
 9076TIP3    H227182   3.236   2.744   7.355
 9077TIP3   OH227183   3.013   2.452   6.041
 9077TIP3    H127184   2.988   2.461   5.947
 9077TIP3    H227185   3.111   2.455   6.034
 9078TIP3   OH227186   3.702   3.119   7.572
 9078TIP3    H127187   3.772   3.088   7.513
 9078TIP3    H227188   3.705   3.051   7.642
 9079TIP3   OH227189   3.840   2.784   5.701
 9079TIP3    H127190   3.810   2.741   5.619
 9079TIP3    H227191   3.802   2.874   5.688
 9080TIP3   OH227192   3.280   2.483   7.571
 9080TIP3    H127193   3.292   2.418   7.498
 9080TIP3    H227194   3.237   2.557   7.524
 9081TIP3   OH227195   3.298   2.301   7.360
 9081TIP3    H127196   3.328   2.347   7.278
 9081TIP3    H227197   3.205   2.281   7.341
 9082TIP3   OH227198   3.326   2.823   7.232
 9082TIP3    H127199   3.414   2.843   7.198
 9082TIP3    H227200   3.271   2.892   7.189
 9083TIP3   OH227201   3.916   2.801   7.600
 9083TIP3    H127202   3.961   2.722   7.634
 9083TIP3    H227203   3.988   2.851   7.561
 9084TIP3   OH227204   3.955   3.052   7.351
 9084TIP3    H127205   3.897   3.107   7.293
 9084TIP3    H227206   4.042   3.075   7.313
 9085TIP3   OH227207   3.443   2.066   7.375
 9085TIP3    H127208   3.397   2.153   7.378
 9085TIP3    H227209   3.369   2.005   7.386
 9086TIP3   OH227210   3.542   2.578   7.598
 9086TIP3    H127211   3.571   2.562   7.690
 9086TIP3    H227212   3.450   2.545   7.598
 9087TIP3   OH227213   3.795   2.508   7.499
 9087TIP3    H127214   3.707   2.525   7.539
 9087TIP3    H227215   3.833   2.445   7.563
 9088TIP3   OH227216   4.086   2.479   7.669
 9088TIP3    H127217   4.075   2.384   7.649
 9088TIP3    H227218   4.016   2.495   7.735
 9089TIP3   OH227219   2.820   3.508   5.940
 9089TIP3    H127220   2.917   3.510   5.943
 9089TIP3    H227221   2.804   3.563   5.861
 9090TIP3   OH227222   2.300   2.895   6.164
 9090TIP3    H127223   2.394   2.917   6.147
 9090TIP3    H227224   2.294   2.806   6.122
 9091TIP3   OH227225   2.214   3.508   6.579
 9091TIP3    H127226   2.149   3.446   6.539
 9091TIP3    H227227   2.259   3.448   6.643
 9092TIP3   OH227228   2.349   3.355   6.765
 9092TIP3    H127229   2.339   3.283   6.830
 9092TIP3    H227230   2.403   3.418   6.816
 9093TIP3   OH227231   4.080   3.755   6.565
 9093TIP3    H127232   4.105   3.787   6.653
 9093TIP3    H227233   4.142   3.802   6.507
 9094TIP3   OH227234   4.107   3.779   6.847
 9094TIP3    H127235   4.060   3.693   6.842
 9094TIP3    H227236   4.180   3.753   6.904
 9095TIP3   OH227237   4.154   3.455   7.419
 9095TIP3    H127238   4.077   3.464   7.478
 9095TIP3    H227239   4.195   3.544   7.425
 9096TIP3   OH227240   3.975   2.963   6.039
 9096TIP3    H127241   4.038   3.033   6.010
 9096TIP3    H227242   4.020   2.929   6.119
 9097TIP3   OH227243   4.101   2.831   6.244
 9097TIP3    H127244   4.031   2.793   6.301
 9097TIP3    H227245   4.160   2.873   6.310
 9098TIP3   OH227246   4.159   3.232   6.680
 9098TIP3    H127247   4.203   3.161   6.629
 9098TIP3    H227248   4.143   3.300   6.612
 9099TIP3   OH227249   3.984   3.532   6.872
 9099TIP3    H127250   3.911   3.573   6.922
 9099TIP3    H227251   3.935   3.485   6.800
 9100TIP3   OH227252   4.034   2.741   5.887
 9100TIP3    H127253   3.964   2.746   5.818
 9100TIP3    H227254   4.006   2.817   5.943
 9101TIP3   OH227255   3.911   2.412   5.839
 9101TIP3    H127256   3.857   2.456   5.772
 9101TIP3    H227257   3.885   2.319   5.825
 9102TIP3   OH227258   3.913   2.695   6.389
 9102TIP3    H127259   3.917   2.598   6.384
 9102TIP3    H227260   3.896   2.710   6.485
 9103TIP3   OH227261   2.539   2.759   7.129
 9103TIP3    H127262   2.541   2.731   7.036
 9103TIP3    H227263   2.636   2.766   7.149
 9104TIP3   OH227264   4.200   3.119   7.246
 9104TIP3    H127265   4.271   3.052   7.236
 9104TIP3    H227266   4.225   3.186   7.181
 9105TIP3   OH227267   4.383   2.922   7.256
 9105TIP3    H127268   4.310   2.870   7.296
 9105TIP3    H227269   4.458   2.860   7.272
 9106TIP3   OH227270   3.850   2.145   5.819
 9106TIP3    H127271   3.920   2.118   5.882
 9106TIP3    H227272   3.773   2.091   5.845
 9107TIP3   OH227273   3.906   2.408   6.283
 9107TIP3    H127274   3.948   2.320   6.296
 9107TIP3    H227275   3.964   2.443   6.213
 9108TIP3   OH227276   4.067   2.578   6.779
 9108TIP3    H127277   4.152   2.603   6.737
 9108TIP3    H227278   4.081   2.618   6.867
 9109TIP3   OH227279   4.138   2.727   7.008
 9109TIP3    H127280   4.061   2.762   7.057
 9109TIP3    H227281   4.171   2.808   6.963
 9110TIP3   OH227282   4.579   2.324   7.561
 9110TIP3    H127283   4.648   2.263   7.528
 9110TIP3    H227284   4.558   2.377   7.482
 9111TIP3   OH227285   4.018   2.159   6.319
 9111TIP3    H127286   4.065   2.143   6.404
 9111TIP3    H227287   3.956   2.083   6.318
 9112TIP3   OH227288   2.711   2.144   7.153
 9112TIP3    H127289   2.774   2.069   7.155
 9112TIP3    H227290   2.771   2.219   7.140
 9113TIP3   OH227291   2.544   2.408   7.229
 9113TIP3    H127292   2.582   2.410   7.139
 9113TIP3    H227293   2.560   2.498   7.259
 9114TIP3   OH227294   4.460   2.461   7.355
 9114TIP3    H127295   4.378   2.504   7.385
 9114TIP3    H227296   4.422   2.388   7.302
 9115TIP3   OH227297   4.092   2.092   5.955
 9115TIP3    H127298   4.132   2.022   5.899
 9115TIP3    H227299   4.159   2.163   5.951
 9116TIP3   OH227300   2.502   1.925   6.717
 9116TIP3    H127301   2.408   1.916   6.740
 9116TIP3    H227302   2.498   1.982   6.637
 9117TIP3   OH227303   3.639   3.680   6.207
 9117TIP3    H127304   3.649   3.594   6.165
 9117TIP3    H227305   3.715   3.681   6.266
 9118TIP3   OH227306   2.762   3.429   7.601
 9118TIP3    H127307   2.670   3.398   7.598
 9118TIP3    H227308   2.785   3.415   7.694
 9119TIP3   OH227309   2.941   3.464   7.149
 9119TIP3    H127310   2.894   3.541   7.111
 9119TIP3    H227311   3.027   3.477   7.105
 9120TIP3   OH227312   3.381   3.705   7.290
 9120TIP3    H127313   3.425   3.707   7.378
 9120TIP3    H227314   3.446   3.758   7.237
 9121TIP3   OH227315   3.559   3.860   7.151
 9121TIP3    H127316   3.629   3.810   7.106
 9121TIP3    H227317   3.613   3.916   7.212
 9122TIP3   OH227318   4.360   2.220   7.244
 9122TIP3    H127319   4.269   2.212   7.208
 9122TIP3    H227320   4.392   2.127   7.235
 9123TIP3   OH227321   2.617   3.715   7.181
 9123TIP3    H127322   2.527   3.748   7.156
 9123TIP3    H227323   2.634   3.770   7.259
 9124TIP3   OH227324   2.852   3.697   7.036
 9124TIP3    H127325   2.764   3.709   7.079
 9124TIP3    H227326   2.834   3.729   6.946
 9125TIP3   OH227327   3.276   3.723   6.838
 9125TIP3    H127328   3.209   3.741   6.770
 9125TIP3    H227329   3.288   3.811   6.879
 9126TIP3   OH227330   3.547   3.662   6.889
 9126TIP3    H127331   3.453   3.677   6.866
 9126TIP3    H227332   3.591   3.732   6.839
 9127TIP3   OH227333   3.756   3.857   6.799
 9127TIP3    H127334   3.739   3.940   6.749
 9127TIP3    H227335   3.781   3.796   6.726
 9128TIP3   OH227336   2.525   3.510   6.922
 9128TIP3    H127337   2.553   3.484   7.012
 9128TIP3    H227338   2.597   3.467   6.870
 9129TIP3   OH227339   2.721   3.384   6.781
 9129TIP3    H127340   2.738   3.300   6.830
 9129TIP3    H227341   2.812   3.420   6.776
 9130TIP3   OH227342   2.988   3.480   6.785
 9130TIP3    H127343   3.021   3.390   6.768
 9130TIP3    H227344   3.036   3.499   6.868
 9131TIP3   OH227345   3.563   2.134   6.868
 9131TIP3    H127346   3.522   2.062   6.919
 9131TIP3    H227347   3.639   2.089   6.826
 9132TIP3   OH227348   4.083   2.013   6.774
 9132TIP3    H127349   4.120   2.065   6.700
 9132TIP3    H227350   3.988   2.035   6.767
 9133TIP3   OH227351   4.180   2.112   6.538
 9133TIP3    H127352   4.254   2.061   6.499
 9133TIP3    H227353   4.213   2.204   6.524
 9134TIP3   OH227354   2.810   1.843   6.884
 9134TIP3    H127355   2.717   1.813   6.884
 9134TIP3    H227356   2.857   1.757   6.880
 9135TIP3   OH227357   2.601   1.713   6.535
 9135TIP3    H127358   2.630   1.768   6.460
 9135TIP3    H227359   2.574   1.781   6.600
 9136TIP3   OH227360   3.258   1.873   6.769
 9136TIP3    H127361   3.310   1.920   6.702
 9136TIP3    H227362   3.289   1.915   6.851
 9137TIP3   OH227363   3.797   2.023   6.748
 9137TIP3    H127364   3.803   1.983   6.661
 9137TIP3    H227365   3.786   1.944   6.806
 9138TIP3   OH227366   3.832   1.947   6.312
 9138TIP3    H127367   3.746   1.991   6.328
 9138TIP3    H227368   3.817   1.861   6.357
 9139TIP3   OH227369   2.314   3.288   6.313
 9139TIP3    H127370   2.228   3.256   6.280
 9139TIP3    H227371   2.306   3.381   6.288
 9140TIP3   OH227372   2.718   1.868   6.298
 9140TIP3    H127373   2.765   1.807   6.238
 9140TIP3    H227374   2.791   1.924   6.331
 9141TIP3   OH227375   3.227   2.049   6.395
 9141TIP3    H127376   3.289   2.003   6.454
 9141TIP3    H227377   3.248   2.142   6.419
 9142TIP3   OH227378   3.101   3.477   5.892
 9142TIP3    H127379   3.180   3.501   5.842
 9142TIP3    H227380   3.076   3.393   5.847
 9143TIP3   OH227381   3.820   3.589   5.972
 9143TIP3    H127382   3.819   3.490   5.969
 9143TIP3    H227383   3.744   3.609   5.916
 9144TIP3   OH227384   2.390   3.306   5.949
 9144TIP3    H127385   2.400   3.330   6.043
 9144TIP3    H227386   2.478   3.265   5.930
 9145TIP3   OH227387   4.104   2.211   7.622
 9145TIP3    H127388   4.120   2.173   7.711
 9145TIP3    H227389   4.193   2.206   7.583
 9146TIP3   OH227390   4.031   3.734   7.174
 9146TIP3    H127391   3.952   3.704   7.123
 9146TIP3    H227392   4.011   3.830   7.181
 9147TIP3   OH227393   5.300   3.109   5.937
 9147TIP3    H127394   5.270   3.200   5.917
 9147TIP3    H227395   5.223   3.058   5.908
 9148TIP3   OH227396   5.300   3.107   6.324
 9148TIP3    H127397   5.335   3.084   6.413
 9148TIP3    H227398   5.257   3.024   6.298
 9149TIP3   OH227399   4.598   3.000   6.685
 9149TIP3    H127400   4.626   2.930   6.748
 9149TIP3    H227401   4.675   3.059   6.688
 9150TIP3   OH227402   5.544   3.412   6.005
 9150TIP3    H127403   5.526   3.343   6.070
 9150TIP3    H227404   5.573   3.486   6.061
 9151TIP3   OH227405   4.570   3.414   6.409
 9151TIP3    H127406   4.561   3.317   6.410
 9151TIP3    H227407   4.667   3.423   6.407
 9152TIP3   OH227408   4.278   2.613   6.192
 9152TIP3    H127409   4.230   2.695   6.214
 9152TIP3    H227410   4.206   2.563   6.150
 9153TIP3   OH227411   4.336   2.904   6.374
 9153TIP3    H127412   4.384   2.825   6.406
 9153TIP3    H227413   4.393   2.936   6.303
 9154TIP3   OH227414   5.195   3.874   6.022
 9154TIP3    H127415   5.238   3.802   5.972
 9154TIP3    H227416   5.181   3.833   6.108
 9155TIP3   OH227417   5.097   3.335   6.370
 9155TIP3    H127418   5.137   3.258   6.328
 9155TIP3    H227419   5.179   3.381   6.396
 9156TIP3   OH227420   6.112   2.654   6.369
 9156TIP3    H127421   6.143   2.737   6.411
 9156TIP3    H227422   6.133   2.670   6.276
 9157TIP3   OH227423   5.511   2.835   6.400
 9157TIP3    H127424   5.553   2.750   6.422
 9157TIP3    H227425   5.478   2.816   6.310
 9158TIP3   OH227426   4.850   2.494   6.365
 9158TIP3    H127427   4.829   2.567   6.303
 9158TIP3    H227428   4.799   2.421   6.323
 9159TIP3   OH227429   5.543   2.585   5.986
 9159TIP3    H127430   5.613   2.569   6.054
 9159TIP3    H227431   5.599   2.620   5.914
 9160TIP3   OH227432   4.481   2.695   6.474
 9160TIP3    H127433   4.563   2.677   6.523
 9160TIP3    H227434   4.496   2.639   6.394
 9161TIP3   OH227435   4.922   2.893   6.267
 9161TIP3    H127436   5.016   2.868   6.281
 9161TIP3    H227437   4.883   2.808   6.236
 9162TIP3   OH227438   6.186   2.864   6.536
 9162TIP3    H127439   6.101   2.908   6.517
 9162TIP3    H227440   6.196   2.885   6.630
 9163TIP3   OH227441   4.844   2.477   6.801
 9163TIP3    H127442   4.784   2.515   6.735
 9163TIP3    H227443   4.792   2.493   6.883
 9164TIP3   OH227444   5.191   3.331   5.806
 9164TIP3    H127445   5.144   3.313   5.723
 9164TIP3    H227446   5.146   3.413   5.835
 9165TIP3   OH227447   4.951   3.255   6.594
 9165TIP3    H127448   4.890   3.322   6.632
 9165TIP3    H227449   4.992   3.304   6.519
 9166TIP3   OH227450   5.748   2.591   6.163
 9166TIP3    H127451   5.735   2.544   6.247
 9166TIP3    H227452   5.800   2.669   6.191
 9167TIP3   OH227453   4.716   2.592   6.585
 9167TIP3    H127454   4.777   2.665   6.610
 9167TIP3    H227455   4.766   2.553   6.510
 9168TIP3   OH227456   4.779   3.449   6.694
 9168TIP3    H127457   4.753   3.537   6.659
 9168TIP3    H227458   4.700   3.431   6.750
 9169TIP3   OH227459   4.173   3.140   5.929
 9169TIP3    H127460   4.126   3.167   5.849
 9169TIP3    H227461   4.203   3.226   5.965
 9170TIP3   OH227462   5.612   3.656   6.169
 9170TIP3    H127463   5.523   3.645   6.210
 9170TIP3    H227464   5.601   3.742   6.125
 9171TIP3   OH227465   5.904   2.554   6.534
 9171TIP3    H127466   5.817   2.580   6.502
 9171TIP3    H227467   5.964   2.587   6.464
 9172TIP3   OH227468   5.196   2.193   6.516
 9172TIP3    H127469   5.182   2.099   6.537
 9172TIP3    H227470   5.120   2.233   6.564
 9173TIP3   OH227471   5.312   3.698   5.843
 9173TIP3    H127472   5.362   3.615   5.825
 9173TIP3    H227473   5.375   3.763   5.803
 9174TIP3   OH227474   5.458   3.483   5.753
 9174TIP3    H127475   5.409   3.406   5.722
 9174TIP3    H227476   5.497   3.450   5.837
 9175TIP3   OH227477   5.838   3.565   6.514
 9175TIP3    H127478   5.824   3.487   6.456
 9175TIP3    H227479   5.819   3.639   6.453
 9176TIP3   OH227480   5.129   2.958   5.773
 9176TIP3    H127481   5.049   3.012   5.754
 9176TIP3    H227482   5.174   2.958   5.687
 9177TIP3   OH227483   5.088   2.746   5.483
 9177TIP3    H127484   5.152   2.798   5.534
 9177TIP3    H227485   5.148   2.684   5.437
 9178TIP3   OH227486   6.033   3.206   6.361
 9178TIP3    H127487   5.948   3.255   6.365
 9178TIP3    H227488   6.062   3.230   6.270
 9179TIP3   OH227489   5.479   3.042   5.741
 9179TIP3    H127490   5.423   3.065   5.819
 9179TIP3    H227491   5.563   3.018   5.785
 9180TIP3   OH227492   5.711   3.080   6.658
 9180TIP3    H127493   5.708   3.163   6.710
 9180TIP3    H227494   5.624   3.084   6.613
 9181TIP3   OH227495   4.710   3.038   6.159
 9181TIP3    H127496   4.670   2.980   6.091
 9181TIP3    H227497   4.786   2.984   6.190
 9182TIP3   OH227498   4.842   3.454   6.307
 9182TIP3    H127499   4.819   3.415   6.222
 9182TIP3    H227500   4.930   3.416   6.324
 9183TIP3   OH227501   4.849   3.009   6.515
 9183TIP3    H127502   4.880   2.987   6.425
 9183TIP3    H227503   4.890   3.096   6.532
 9184TIP3   OH227504   5.373   3.648   6.292
 9184TIP3    H127505   5.359   3.728   6.346
 9184TIP3    H227506   5.355   3.576   6.355
 9185TIP3   OH227507   4.985   3.568   6.837
 9185TIP3    H127508   4.924   3.629   6.884
 9185TIP3    H227509   4.920   3.514   6.787
 9186TIP3   OH227510   5.316   2.901   5.569
 9186TIP3    H127511   5.375   2.961   5.619
 9186TIP3    H227512   5.343   2.922   5.476
 9187TIP3   OH227513   4.739   3.123   6.940
 9187TIP3    H127514   4.744   3.210   6.984
 9187TIP3    H227515   4.645   3.101   6.957
 9188TIP3   OH227516   5.064   3.575   5.843
 9188TIP3    H127517   5.144   3.630   5.855
 9188TIP3    H227518   5.001   3.637   5.805
 9189TIP3   OH227519   4.778   3.734   6.927
 9189TIP3    H127520   4.742   3.736   6.836
 9189TIP3    H227521   4.698   3.712   6.980
 9190TIP3   OH227522   5.829   2.143   5.619
 9190TIP3    H127523   5.749   2.164   5.670
 9190TIP3    H227524   5.844   2.227   5.570
 9191TIP3   OH227525   4.578   2.882   5.958
 9191TIP3    H127526   4.508   2.927   5.906
 9191TIP3    H227527   4.535   2.799   5.980
 9192TIP3   OH227528   5.633   3.506   5.165
 9192TIP3    H127529   5.641   3.603   5.152
 9192TIP3    H227530   5.725   3.477   5.153
 9193TIP3   OH227531   4.357   3.267   6.872
 9193TIP3    H127532   4.288   3.249   6.805
 9193TIP3    H227533   4.393   3.178   6.891
 9194TIP3   OH227534   4.210   3.464   6.499
 9194TIP3    H127535   4.306   3.457   6.497
 9194TIP3    H227536   4.196   3.540   6.557
 9195TIP3   OH227537   6.075   3.913   6.561
 9195TIP3    H127538   6.074   3.816   6.576
 9195TIP3    H227539   5.992   3.938   6.608
 9196TIP3   OH227540   5.180   3.695   6.696
 9196TIP3    H127541   5.177   3.788   6.729
 9196TIP3    H227542   5.108   3.655   6.749
 9197TIP3   OH227543   4.946   3.826   5.646
 9197TIP3    H127544   4.895   3.809   5.566
 9197TIP3    H227545   4.910   3.912   5.677
 9198TIP3   OH227546   4.382   3.673   6.033
 9198TIP3    H127547   4.425   3.664   6.120
 9198TIP3    H227548   4.328   3.591   6.030
 9199TIP3   OH227549   5.143   3.728   5.285
 9199TIP3    H127550   5.202   3.657   5.251
 9199TIP3    H227551   5.177   3.738   5.377
 9200TIP3   OH227552   5.196   3.774   5.554
 9200TIP3    H127553   5.106   3.786   5.594
 9200TIP3    H227554   5.244   3.735   5.629
 9201TIP3   OH227555   5.965   3.043   6.833
 9201TIP3    H127556   5.879   3.050   6.789
 9201TIP3    H227557   5.981   2.946   6.829
 9202TIP3   OH227558   4.561   3.449   6.859
 9202TIP3    H127559   4.610   3.432   6.941
 9202TIP3    H227560   4.486   3.386   6.866
 9203TIP3   OH227561   4.960   2.272   6.646
 9203TIP3    H127562   4.872   2.242   6.618
 9203TIP3    H227563   4.934   2.352   6.696
 9204TIP3   OH227564   5.495   2.386   6.840
 9204TIP3    H127565   5.564   2.358   6.904
 9204TIP3    H227566   5.412   2.367   6.889
 9205TIP3   OH227567   5.732   2.818   6.760
 9205TIP3    H127568   5.680   2.814   6.844
 9205TIP3    H227569   5.707   2.905   6.724
 9206TIP3   OH227570   5.393   2.944   5.313
 9206TIP3    H127571   5.359   2.921   5.225
 9206TIP3    H227572   5.476   2.989   5.290
 9207TIP3   OH227573   5.104   2.340   5.619
 9207TIP3    H127574   5.066   2.331   5.709
 9207TIP3    H227575   5.097   2.250   5.586
 9208TIP3   OH227576   4.893   2.788   6.665
 9208TIP3    H127577   4.843   2.809   6.746
 9208TIP3    H227578   4.878   2.869   6.612
 9209TIP3   OH227579   4.776   2.674   6.177
 9209TIP3    H127580   4.683   2.649   6.197
 9209TIP3    H227581   4.786   2.632   6.089
 9210TIP3   OH227582   5.267   2.758   5.906
 9210TIP3    H127583   5.216   2.830   5.863
 9210TIP3    H227584   5.322   2.725   5.833
 9211TIP3   OH227585   5.441   3.035   6.990
 9211TIP3    H127586   5.419   2.964   7.053
 9211TIP3    H227587   5.534   3.051   7.014
 9212TIP3   OH227588   5.423   2.786   6.143
 9212TIP3    H127589   5.360   2.814   6.074
 9212TIP3    H227590   5.458   2.706   6.099
 9213TIP3   OH227591   4.712   2.815   6.872
 9213TIP3    H127592   4.740   2.879   6.940
 9213TIP3    H227593   4.701   2.733   6.925
 9214TIP3   OH227594   4.764   2.261   5.586
 9214TIP3    H127595   4.748   2.268   5.682
 9214TIP3    H227596   4.688   2.311   5.551
 9215TIP3   OH227597   4.306   2.334   6.453
 9215TIP3    H127598   4.378   2.369   6.509
 9215TIP3    H227599   4.351   2.307   6.372
 9216TIP3   OH227600   4.273   2.319   5.970
 9216TIP3    H127601   4.317   2.357   5.891
 9216TIP3    H227602   4.212   2.393   5.991
 9217TIP3   OH227603   5.434   3.033   6.565
 9217TIP3    H127604   5.468   2.961   6.506
 9217TIP3    H227605   5.404   2.978   6.641
 9218TIP3   OH227606   5.105   2.496   6.237
 9218TIP3    H127607   5.024   2.496   6.292
 9218TIP3    H227608   5.175   2.490   6.304
 9219TIP3   OH227609   4.538   2.554   6.245
 9219TIP3    H127610   4.444   2.563   6.218
 9219TIP3    H227611   4.558   2.461   6.223
 9220TIP3   OH227612   4.805   2.543   5.938
 9220TIP3    H127613   4.897   2.565   5.917
 9220TIP3    H227614   4.756   2.567   5.855
 9221TIP3   OH227615   5.597   2.573   6.440
 9221TIP3    H127616   5.566   2.586   6.533
 9221TIP3    H227617   5.529   2.512   6.407
 9222TIP3   OH227618   4.656   2.579   5.715
 9222TIP3    H127619   4.585   2.533   5.667
 9222TIP3    H227620   4.706   2.617   5.639
 9223TIP3   OH227621   5.769   4.261   6.661
 9223TIP3    H127622   5.766   4.286   6.567
 9223TIP3    H227623   5.847   4.310   6.693
 9224TIP3   OH227624   4.724   3.372   7.081
 9224TIP3    H127625   4.804   3.401   7.130
 9224TIP3    H227626   4.659   3.368   7.153
 9225TIP3   OH227627   5.184   2.826   6.337
 9225TIP3    H127628   5.259   2.785   6.291
 9225TIP3    H227629   5.188   2.783   6.425
 9226TIP3   OH227630   4.706   2.310   6.220
 9226TIP3    H127631   4.666   2.235   6.270
 9226TIP3    H227632   4.762   2.263   6.157
 9227TIP3   OH227633   5.163   2.727   6.621
 9227TIP3    H127634   5.072   2.760   6.639
 9227TIP3    H227635   5.219   2.787   6.674
 9228TIP3   OH227636   4.901   3.111   5.721
 9228TIP3    H127637   4.829   3.046   5.709
 9228TIP3    H227638   4.880   3.146   5.811
 9229TIP3   OH227639   5.798   3.348   6.348
 9229TIP3    H127640   5.820   3.400   6.268
 9229TIP3    H227641   5.714   3.304   6.322
 9230TIP3   OH227642   5.358   2.426   5.583
 9230TIP3    H127643   5.261   2.416   5.593
 9230TIP3    H227644   5.373   2.519   5.609
 9231TIP3   OH227645   5.302   3.433   6.717
 9231TIP3    H127646   5.325   3.409   6.807
 9231TIP3    H227647   5.259   3.520   6.728
 9232TIP3   OH227648   5.427   2.672   5.687
 9232TIP3    H127649   5.523   2.679   5.705
 9232TIP3    H227650   5.408   2.754   5.637
 9233TIP3   OH227651   4.595   3.138   6.396
 9233TIP3    H127652   4.632   3.105   6.311
 9233TIP3    H227653   4.633   3.076   6.460
 9234TIP3   OH227654   5.043   3.261   5.542
 9234TIP3    H127655   4.995   3.347   5.545
 9234TIP3    H227656   4.989   3.207   5.604
 9235TIP3   OH227657   4.476   3.053   7.009
 9235TIP3    H127658   4.493   3.041   7.104
 9235TIP3    H227659   4.405   2.988   6.994
 9236TIP3   OH227660   5.201   3.173   7.026
 9236TIP3    H127661   5.139   3.110   6.987
 9236TIP3    H227662   5.287   3.134   6.999
 9237TIP3   OH227663   5.458   3.695   6.612
 9237TIP3    H127664   5.362   3.689   6.628
 9237TIP3    H227665   5.486   3.744   6.692
 9238TIP3   OH227666   5.867   2.765   5.523
 9238TIP3    H127667   5.805   2.722   5.460
 9238TIP3    H227668   5.864   2.855   5.484
 9239TIP3   OH227669   6.089   3.624   6.602
 9239TIP3    H127670   5.991   3.616   6.595
 9239TIP3    H227671   6.114   3.592   6.512
 9240TIP3   OH227672   5.573   3.582   5.433
 9240TIP3    H127673   5.541   3.516   5.496
 9240TIP3    H227674   5.581   3.532   5.350
 9241TIP3   OH227675   5.565   3.211   6.264
 9241TIP3    H127676   5.472   3.187   6.279
 9241TIP3    H227677   5.598   3.130   6.221
 9242TIP3   OH227678   4.693   3.439   6.019
 9242TIP3    H127679   4.686   3.521   5.966
 9242TIP3    H227680   4.600   3.420   6.037
 9243TIP3   OH227681   4.258   2.742   5.728
 9243TIP3    H127682   4.301   2.828   5.749
 9243TIP3    H227683   4.180   2.745   5.788
 9244TIP3   OH227684   4.827   3.203   5.963
 9244TIP3    H127685   4.792   3.292   5.982
 9244TIP3    H227686   4.793   3.152   6.038
 9245TIP3   OH227687   4.963   3.782   6.490
 9245TIP3    H127688   5.007   3.855   6.440
 9245TIP3    H227689   5.039   3.744   6.538
 9246TIP3   OH227690   4.611   3.678   5.872
 9246TIP3    H127691   4.526   3.686   5.920
 9246TIP3    H227692   4.643   3.771   5.875
 9247TIP3   OH227693   5.348   3.415   6.450
 9247TIP3    H127694   5.337   3.415   6.547
 9247TIP3    H227695   5.428   3.361   6.440
 9248TIP3   OH227696   5.327   3.312   5.332
 9248TIP3    H127697   5.381   3.285   5.410
 9248TIP3    H227698   5.239   3.283   5.361
 9249TIP3   OH227699   5.599   3.946   6.499
 9249TIP3    H127700   5.519   3.890   6.496
 9249TIP3    H227701   5.580   4.010   6.427
 9250TIP3   OH227702   5.665   3.783   5.150
 9250TIP3    H127703   5.700   3.860   5.102
 9250TIP3    H227704   5.584   3.824   5.187
 9251TIP3   OH227705   4.683   2.558   7.016
 9251TIP3    H127706   4.587   2.561   7.031
 9251TIP3    H227707   4.714   2.506   7.092
 9252TIP3   OH227708   5.488   3.239   5.544
 9252TIP3    H127709   5.476   3.177   5.618
 9252TIP3    H227710   5.585   3.237   5.535
 9253TIP3   OH227711   4.402   3.642   6.648
 9253TIP3    H127712   4.455   3.568   6.683
 9253TIP3    H227713   4.427   3.713   6.708
 9254TIP3   OH227714   4.689   3.289   5.330
 9254TIP3    H127715   4.704   3.195   5.307
 9254TIP3    H227716   4.671   3.281   5.427
 9255TIP3   OH227717   4.638   3.296   5.601
 9255TIP3    H127718   4.706   3.268   5.664
 9255TIP3    H227719   4.640   3.393   5.611
 9256TIP3   OH227720   4.369   2.988   5.808
 9256TIP3    H127721   4.302   3.032   5.865
 9256TIP3    H227722   4.380   3.057   5.739
 9257TIP3   OH227723   5.525   2.621   6.699
 9257TIP3    H127724   5.603   2.662   6.742
 9257TIP3    H227725   5.510   2.542   6.754
 9258TIP3   OH227726   5.402   2.373   5.868
 9258TIP3    H127727   5.393   2.398   5.774
 9258TIP3    H227728   5.443   2.454   5.906
 9259TIP3   OH227729   4.903   3.492   5.550
 9259TIP3    H127730   4.816   3.513   5.589
 9259TIP3    H227731   4.917   3.572   5.496
 9260TIP3   OH227732   5.087   2.554   5.966
 9260TIP3    H127733   5.150   2.627   5.951
 9260TIP3    H227734   5.093   2.545   6.064
 9261TIP3   OH227735   5.361   2.873   6.773
 9261TIP3    H127736   5.383   2.926   6.852
 9261TIP3    H227737   5.413   2.792   6.788
 9262TIP3   OH227738   5.231   2.278   6.066
 9262TIP3    H127739   5.231   2.351   6.131
 9262TIP3    H227740   5.294   2.313   5.999
 9263TIP3   OH227741   4.649   3.567   5.623
 9263TIP3    H127742   4.617   3.636   5.561
 9263TIP3    H227743   4.631   3.608   5.710
 9264TIP3   OH227744   4.750   2.281   5.863
 9264TIP3    H127745   4.739   2.371   5.898
 9264TIP3    H227746   4.847   2.273   5.873
 9265TIP3   OH227747   5.998   2.773   6.753
 9265TIP3    H127748   5.900   2.775   6.764
 9265TIP3    H227749   6.004   2.723   6.671
 9266TIP3   OH227750   5.651   2.968   6.143
 9266TIP3    H127751   5.574   2.909   6.157
 9266TIP3    H227752   5.722   2.921   6.192
 9267TIP3   OH227753   4.367   3.192   5.613
 9267TIP3    H127754   4.432   3.263   5.623
 9267TIP3    H227755   4.412   3.137   5.546
 9268TIP3   OH227756   4.305   2.472   5.744
 9268TIP3    H127757   4.308   2.570   5.744
 9268TIP3    H227758   4.218   2.455   5.707
 9269TIP3   OH227759   5.619   3.927   6.092
 9269TIP3    H127760   5.576   3.973   6.016
 9269TIP3    H227761   5.714   3.944   6.070
 9270TIP3   OH227762   4.696   2.191   6.618
 9270TIP3    H127763   4.665   2.155   6.532
 9270TIP3    H227764   4.685   2.114   6.677
 9271TIP3   OH227765   4.230   3.413   5.994
 9271TIP3    H127766   4.167   3.439   6.063
 9271TIP3    H227767   4.191   3.455   5.914
 9272TIP3   OH227768   4.393   3.956   7.072
 9272TIP3    H127769   4.479   3.955   7.118
 9272TIP3    H227770   4.372   3.862   7.070
 9273TIP3   OH227771   4.871   3.915   7.116
 9273TIP3    H127772   4.965   3.894   7.122
 9273TIP3    H227773   4.843   3.854   7.045
 9274TIP3   OH227774   4.852   3.491   5.240
 9274TIP3    H127775   4.795   3.421   5.280
 9274TIP3    H227776   4.929   3.438   5.214
 9275TIP3   OH227777   5.513   3.823   6.849
 9275TIP3    H127778   5.503   3.754   6.919
 9275TIP3    H227779   5.589   3.875   6.882
 9276TIP3   OH227780   5.289   3.531   5.157
 9276TIP3    H127781   5.328   3.464   5.218
 9276TIP3    H227782   5.348   3.525   5.080
 9277TIP3   OH227783   4.522   3.362   7.272
 9277TIP3    H127784   4.537   3.266   7.282
 9277TIP3    H227785   4.435   3.363   7.225
 9278TIP3   OH227786   4.502   3.009   5.466
 9278TIP3    H127787   4.556   2.979   5.541
 9278TIP3    H227788   4.570   3.013   5.396
 9279TIP3   OH227789   5.128   3.448   7.046
 9279TIP3    H127790   5.086   3.465   6.960
 9279TIP3    H227791   5.159   3.355   7.037
 9280TIP3   OH227792   5.013   3.210   5.273
 9280TIP3    H127793   5.015   3.221   5.370
 9280TIP3    H227794   5.013   3.112   5.267
 9281TIP3   OH227795   5.621   3.455   6.653
 9281TIP3    H127796   5.696   3.501   6.610
 9281TIP3    H227797   5.550   3.520   6.638
 9282TIP3   OH227798   4.644   3.097   7.253
 9282TIP3    H127799   4.717   3.037   7.234
 9282TIP3    H227800   4.669   3.128   7.342
 9283TIP3   OH227801   4.707   2.916   5.688
 9283TIP3    H127802   4.676   2.879   5.772
 9283TIP3    H227803   4.742   2.837   5.641
 9284TIP3   OH227804   4.977   2.978   6.915
 9284TIP3    H127805   4.898   3.037   6.914
 9284TIP3    H227806   5.029   3.014   6.840
 9285TIP3   OH227807   4.809   2.708   5.527
 9285TIP3    H127808   4.783   2.717   5.433
 9285TIP3    H227809   4.907   2.711   5.519
 9286TIP3   OH227810   5.495   3.381   7.049
 9286TIP3    H127811   5.573   3.348   7.004
 9286TIP3    H227812   5.486   3.318   7.123
 9287TIP3   OH227813   5.627   3.037   5.194
 9287TIP3    H127814   5.608   2.993   5.109
 9287TIP3    H227815   5.593   3.127   5.173
 9288TIP3   OH227816   5.101   2.768   7.038
 9288TIP3    H127817   5.100   2.689   6.981
 9288TIP3    H227818   5.056   2.835   6.982
 9289TIP3   OH227819   5.103   2.554   6.848
 9289TIP3    H127820   5.130   2.595   6.764
 9289TIP3    H227821   5.009   2.531   6.831
 9290TIP3   OH227822   5.125   3.086   6.722
 9290TIP3    H127823   5.211   3.100   6.680
 9290TIP3    H227824   5.068   3.152   6.676
 9291TIP3   OH227825   5.708   3.052   7.100
 9291TIP3    H127826   5.757   2.971   7.118
 9291TIP3    H227827   5.777   3.111   7.067
 9292TIP3   OH227828   5.752   3.309   6.839
 9292TIP3    H127829   5.693   3.363   6.781
 9292TIP3    H227830   5.839   3.330   6.800
 9293TIP3   OH227831   4.977   2.875   7.269
 9293TIP3    H127832   4.909   2.807   7.289
 9293TIP3    H227833   5.011   2.844   7.183
 9294TIP3   OH227834   5.234   2.315   6.917
 9294TIP3    H127835   5.183   2.396   6.895
 9294TIP3    H227836   5.165   2.246   6.908
 9295TIP3   OH227837   5.360   2.818   7.134
 9295TIP3    H127838   5.346   2.805   7.229
 9295TIP3    H227839   5.271   2.795   7.101
 9296TIP3   OH227840   5.596   2.767   6.987
 9296TIP3    H127841   5.523   2.771   7.052
 9296TIP3    H227842   5.672   2.739   7.043
 9297TIP3   OH227843   5.826   2.710   7.135
 9297TIP3    H127844   5.839   2.614   7.153
 9297TIP3    H227845   5.822   2.748   7.226
 9298TIP3   OH227846   4.818   2.654   7.327
 9298TIP3    H127847   4.822   2.560   7.299
 9298TIP3    H227848   4.853   2.648   7.418
 9299TIP3   OH227849   5.329   2.327   7.175
 9299TIP3    H127850   5.394   2.254   7.169
 9299TIP3    H227851   5.288   2.322   7.087
 9300TIP3   OH227852   5.395   2.543   7.333
 9300TIP3    H127853   5.374   2.471   7.269
 9300TIP3    H227854   5.315   2.600   7.328
 9301TIP3   OH227855   4.618   3.771   5.435
 9301TIP3    H127856   4.712   3.762   5.414
 9301TIP3    H227857   4.588   3.823   5.357
 9302TIP3   OH227858   4.097   3.154   5.646
 9302TIP3    H127859   4.193   3.172   5.634
 9302TIP3    H227860   4.089   3.065   5.606
 9303TIP3   OH227861   4.011   3.767   6.063
 9303TIP3    H127862   3.945   3.707   6.021
 9303TIP3    H227863   4.053   3.705   6.127
 9304TIP3   OH227864   4.146   3.611   6.251
 9304TIP3    H127865   4.132   3.540   6.317
 9304TIP3    H227866   4.197   3.674   6.305
 9305TIP3   OH227867   5.875   4.013   6.052
 9305TIP3    H127868   5.899   4.043   6.141
 9305TIP3    H227869   5.939   4.060   5.996
 9306TIP3   OH227870   5.902   4.034   6.333
 9306TIP3    H127871   5.855   3.947   6.329
 9306TIP3    H227872   5.975   4.009   6.392
 9307TIP3   OH227873   5.948   3.711   6.907
 9307TIP3    H127874   5.876   3.720   6.972
 9307TIP3    H227875   5.990   3.799   6.911
 9308TIP3   OH227876   5.766   3.223   5.526
 9308TIP3    H127877   5.833   3.288   5.496
 9308TIP3    H227878   5.810   3.186   5.605
 9309TIP3   OH227879   5.893   3.092   5.731
 9309TIP3    H127880   5.826   3.050   5.789
 9309TIP3    H227881   5.957   3.128   5.796
 9310TIP3   OH227882   5.951   3.487   6.162
 9310TIP3    H127883   6.002   3.418   6.115
 9310TIP3    H227884   5.943   3.557   6.094
 9311TIP3   OH227885   5.777   3.786   6.354
 9311TIP3    H127886   5.705   3.827   6.406
 9311TIP3    H227887   5.727   3.739   6.284
 9312TIP3   OH227888   5.831   3.000   5.374
 9312TIP3    H127889   5.759   3.002   5.307
 9312TIP3    H227890   5.801   3.075   5.430
 9313TIP3   OH227891   5.701   2.674   5.328
 9313TIP3    H127892   5.656   2.707   5.250
 9313TIP3    H227893   5.679   2.578   5.323
 9314TIP3   OH227894   5.706   2.950   5.874
 9314TIP3    H127895   5.713   2.854   5.867
 9314TIP3    H227896   5.691   2.963   5.971
 9315TIP3   OH227897   4.332   3.017   6.626
 9315TIP3    H127898   4.328   2.987   6.533
 9315TIP3    H227899   4.429   3.020   6.640
 9316TIP3   OH227900   5.997   3.375   6.733
 9316TIP3    H127901   6.068   3.308   6.722
 9316TIP3    H227902   6.022   3.442   6.667
 9317TIP3   OH227903   6.181   3.177   6.741
 9317TIP3    H127904   6.106   3.128   6.781
 9317TIP3    H227905   6.254   3.113   6.759
 9318TIP3   OH227906   5.645   2.408   5.314
 9318TIP3    H127907   5.722   2.378   5.366
 9318TIP3    H227908   5.576   2.344   5.337
 9319TIP3   OH227909   5.703   2.665   5.768
 9319TIP3    H127910   5.743   2.576   5.784
 9319TIP3    H227911   5.762   2.697   5.697
 9320TIP3   OH227912   5.863   2.836   6.265
 9320TIP3    H127913   5.949   2.861   6.224
 9320TIP3    H227914   5.877   2.874   6.354
 9321TIP3   OH227915   5.934   2.983   6.493
 9321TIP3    H127916   5.858   3.016   6.544
 9321TIP3    H227917   5.967   3.065   6.451
 9322TIP3   OH227918   4.554   2.713   7.290
 9322TIP3    H127919   4.652   2.709   7.298
 9322TIP3    H227920   4.531   2.626   7.328
 9323TIP3   OH227921   6.376   2.570   7.038
 9323TIP3    H127922   6.441   2.508   7.001
 9323TIP3    H227923   6.352   2.626   6.961
 9324TIP3   OH227924   5.810   2.416   5.807
 9324TIP3    H127925   5.860   2.400   5.890
 9324TIP3    H227926   5.750   2.339   5.807
 9325TIP3   OH227927   4.511   2.400   6.625
 9325TIP3    H127928   4.573   2.325   6.636
 9325TIP3    H227929   4.573   2.475   6.619
 9326TIP3   OH227930   4.312   2.672   6.699
 9326TIP3    H127931   4.362   2.672   6.615
 9326TIP3    H227932   4.336   2.758   6.736
 9327TIP3   OH227933   6.253   2.715   6.846
 9327TIP3    H127934   6.168   2.758   6.869
 9327TIP3    H227935   6.219   2.639   6.795
 9328TIP3   OH227936   5.889   2.350   5.438
 9328TIP3    H127937   5.928   2.276   5.387
 9328TIP3    H227938   5.960   2.416   5.437
 9329TIP3   OH227939   4.297   2.174   6.197
 9329TIP3    H127940   4.205   2.172   6.230
 9329TIP3    H227941   4.291   2.236   6.122
 9330TIP3   OH227942   5.458   3.882   5.706
 9330TIP3    H127943   5.510   3.874   5.624
 9330TIP3    H227944   5.509   3.948   5.756
 9331TIP3   OH227945   4.519   2.255   7.012
 9331TIP3    H127946   4.470   2.255   7.096
 9331TIP3    H227947   4.452   2.294   6.952
 9332TIP3   OH227948   4.557   3.690   7.090
 9332TIP3    H127949   4.465   3.663   7.075
 9332TIP3    H227950   4.570   3.665   7.182
 9333TIP3   OH227951   4.737   3.721   6.640
 9333TIP3    H127952   4.688   3.796   6.600
 9333TIP3    H227953   4.823   3.735   6.595
 9334TIP3   OH227954   5.178   3.962   6.777
 9334TIP3    H127955   5.220   3.961   6.866
 9334TIP3    H227956   5.244   4.014   6.726
 9335TIP3   OH227957   5.358   4.117   6.638
 9335TIP3    H127958   5.428   4.065   6.597
 9335TIP3    H227959   5.410   4.173   6.699
 9336TIP3   OH227960   6.154   2.475   6.736
 9336TIP3    H127961   6.064   2.463   6.702
 9336TIP3    H227962   6.189   2.383   6.728
 9337TIP3   OH227963   4.412   3.978   6.663
 9337TIP3    H127964   4.321   4.009   6.640
 9337TIP3    H227965   4.422   4.016   6.751
 9338TIP3   OH227966   4.649   3.955   6.523
 9338TIP3    H127967   4.561   3.967   6.566
 9338TIP3    H227968   4.629   3.986   6.432
 9339TIP3   OH227969   5.074   3.981   6.319
 9339TIP3    H127970   5.002   3.999   6.256
 9339TIP3    H227971   5.085   4.069   6.361
 9340TIP3   OH227972   5.343   3.920   6.372
 9340TIP3    H127973   5.249   3.938   6.352
 9340TIP3    H227974   5.387   3.996   6.329
 9341TIP3   OH227975   5.551   4.112   6.285
 9341TIP3    H127976   5.536   4.196   6.237
 9341TIP3    H227977   5.577   4.051   6.213
 9342TIP3   OH227978   4.325   3.770   6.408
 9342TIP3    H127979   4.350   3.742   6.498
 9342TIP3    H227980   4.396   3.724   6.357
 9343TIP3   OH227981   4.519   3.640   6.267
 9343TIP3    H127982   4.533   3.557   6.318
 9343TIP3    H227983   4.610   3.675   6.263
 9344TIP3   OH227984   4.787   3.733   6.271
 9344TIP3    H127985   4.816   3.640   6.261
 9344TIP3    H227986   4.833   3.756   6.354
 9345TIP3   OH227987   5.355   2.387   6.350
 9345TIP3    H127988   5.315   2.317   6.406
 9345TIP3    H227989   5.434   2.342   6.314
 9346TIP3   OH227990   5.879   2.273   6.260
 9346TIP3    H127991   5.916   2.324   6.184
 9346TIP3    H227992   5.784   2.290   6.252
 9347TIP3   OH227993   5.975   2.372   6.023
 9347TIP3    H127994   6.049   2.319   5.986
 9347TIP3    H227995   6.010   2.463   6.009
 9348TIP3   OH227996   4.606   2.098   6.369
 9348TIP3    H127997   4.514   2.065   6.374
 9348TIP3    H227998   4.655   2.013   6.367
 9349TIP3   OH227999   4.387   1.975   6.025
 9349TIP3    H128000   4.403   2.041   5.956
 9349TIP3    H228001   4.360   2.033   6.099
 9350TIP3   OH228002   5.051   2.133   6.251
 9350TIP3    H128003   5.111   2.182   6.193
 9350TIP3    H228004   5.074   2.168   6.338
 9351TIP3   OH228005   5.594   2.278   6.234
 9351TIP3    H128006   5.603   2.234   6.149
 9351TIP3    H228007   5.584   2.201   6.295
 9352TIP3   OH228008   5.626   2.204   5.800
 9352TIP3    H128009   5.540   2.246   5.819
 9352TIP3    H228010   5.615   2.118   5.845
 9353TIP3   OH228011   4.109   3.541   5.790
 9353TIP3    H128012   4.019   3.511   5.766
 9353TIP3    H228013   4.101   3.635   5.765
 9354TIP3   OH228014   4.508   2.136   5.787
 9354TIP3    H128015   4.548   2.049   5.797
 9354TIP3    H228016   4.580   2.195   5.816
 9355TIP3   OH228017   5.029   2.299   5.882
 9355TIP3    H128018   5.091   2.264   5.949
 9355TIP3    H228019   5.042   2.395   5.902
 9356TIP3   OH228020   4.884   3.725   5.380
 9356TIP3    H128021   4.972   3.749   5.344
 9356TIP3    H228022   4.861   3.651   5.320
 9357TIP3   OH228023   5.606   3.849   5.474
 9357TIP3    H128024   5.598   3.751   5.466
 9357TIP3    H228025   5.556   3.879   5.395
 9358TIP3   OH228026   4.815   2.378   7.262
 9358TIP3    H128027   4.779   2.307   7.319
 9358TIP3    H228028   4.909   2.378   7.292
 9359TIP3   OH228029   5.066   2.379   7.380
 9359TIP3    H128030   5.151   2.348   7.343
 9359TIP3    H228031   5.050   2.311   7.449
 9360TIP3   OH228032   4.186   3.569   5.436
 9360TIP3    H128033   4.174   3.590   5.530
 9360TIP3    H228034   4.276   3.530   5.433
 9361TIP3   OH228035   5.892   2.440   7.167
 9361TIP3    H128036   5.909   2.411   7.259
 9361TIP3    H228037   5.981   2.436   7.128
 9362TIP3   OH228038   5.828   3.991   6.660
 9362TIP3    H128039   5.749   3.960   6.611
 9362TIP3    H228040   5.807   4.086   6.668
 9363TIP3   OH228041   7.093   3.348   5.800
 9363TIP3    H128042   7.130   3.345   5.891
 9363TIP3    H228043   7.050   3.260   5.797
 9364TIP3   OH228044   6.393   3.257   6.172
 9364TIP3    H128045   6.420   3.186   6.234
 9364TIP3    H228046   6.470   3.315   6.175
 9365TIP3   OH228047   7.310   3.623   5.512
 9365TIP3    H128048   7.351   3.587   5.595
 9365TIP3    H228049   7.350   3.713   5.517
 9366TIP3   OH228050   6.365   3.671   5.895
 9366TIP3    H128051   6.357   3.573   5.896
 9366TIP3    H228052   6.462   3.680   5.894
 9367TIP3   OH228053   6.074   2.872   5.679
 9367TIP3    H128054   6.024   2.953   5.698
 9367TIP3    H228055   6.003   2.817   5.640
 9368TIP3   OH228056   6.130   3.159   5.859
 9368TIP3    H128057   6.178   3.080   5.893
 9368TIP3    H228058   6.188   3.188   5.788
 9369TIP3   OH228059   6.987   4.130   5.509
 9369TIP3    H128060   7.034   4.058   5.460
 9369TIP3    H228061   6.980   4.093   5.598
 9370TIP3   OH228062   6.892   3.594   5.855
 9370TIP3    H128063   6.928   3.512   5.817
 9370TIP3    H228064   6.976   3.635   5.885
 9371TIP3   OH228065   7.888   2.917   5.853
 9371TIP3    H128066   7.917   3.005   5.883
 9371TIP3    H228067   7.920   2.918   5.760
 9372TIP3   OH228068   7.306   3.095   5.882
 9372TIP3    H128069   7.349   3.010   5.906
 9372TIP3    H228070   7.268   3.071   5.795
 9373TIP3   OH228071   6.647   2.751   5.852
 9373TIP3    H128072   6.625   2.823   5.789
 9373TIP3    H228073   6.599   2.676   5.809
 9374TIP3   OH228074   7.344   2.842   5.472
 9374TIP3    H128075   7.413   2.825   5.540
 9374TIP3    H228076   7.399   2.877   5.400
 9375TIP3   OH228077   6.278   2.952   5.960
 9375TIP3    H128078   6.360   2.933   6.009
 9375TIP3    H228079   6.292   2.895   5.881
 9376TIP3   OH228080   6.717   3.150   5.754
 9376TIP3    H128081   6.810   3.124   5.768
 9376TIP3    H228082   6.677   3.065   5.723
 9377TIP3   OH228083   7.981   3.117   6.031
 9377TIP3    H128084   7.910   3.175   5.998
 9377TIP3    H228085   7.955   3.115   6.125
 9378TIP3   OH228086   6.641   2.735   6.289
 9378TIP3    H128087   6.580   2.771   6.222
 9378TIP3    H228088   6.588   2.750   6.370
 9379TIP3   OH228089   7.023   3.565   5.324
 9379TIP3    H128090   6.977   3.533   5.244
 9379TIP3    H228091   6.974   3.650   5.334
 9380TIP3   OH228092   6.747   3.512   6.080
 9380TIP3    H128093   6.686   3.577   6.120
 9380TIP3    H228094   6.788   3.563   6.008
 9381TIP3   OH228095   7.546   2.849   5.651
 9381TIP3    H128096   7.537   2.801   5.735
 9381TIP3    H228097   7.600   2.926   5.677
 9382TIP3   OH228098   6.512   2.849   6.071
 9382TIP3    H128099   6.575   2.920   6.097
 9382TIP3    H228100   6.562   2.809   5.996
 9383TIP3   OH228101   6.576   3.706   6.181
 9383TIP3    H128102   6.550   3.794   6.146
 9383TIP3    H228103   6.497   3.688   6.236
 9384TIP3   OH228104   5.968   3.395   5.416
 9384TIP3    H128105   5.925   3.425   5.334
 9384TIP3    H228106   6.000   3.480   5.453
 9385TIP3   OH228107   7.397   3.908   5.642
 9385TIP3    H128108   7.311   3.904   5.690
 9385TIP3    H228109   7.397   4.001   5.612
 9386TIP3   OH228110   7.694   2.825   6.023
 9386TIP3    H128111   7.606   2.839   5.985
 9386TIP3    H228112   7.754   2.854   5.951
 9387TIP3   OH228113   6.991   2.450   6.003
 9387TIP3    H128114   6.977   2.356   6.022
 9387TIP3    H228115   6.914   2.489   6.050
 9388TIP3   OH228116   7.108   3.959   5.330
 9388TIP3    H128117   7.159   3.878   5.305
 9388TIP3    H228118   7.169   4.027   5.292
 9389TIP3   OH228119   7.245   3.740   5.249
 9389TIP3    H128120   7.222   3.674   5.182
 9389TIP3    H228121   7.300   3.691   5.311
 9390TIP3   OH228122   7.612   3.825   6.007
 9390TIP3    H128123   7.644   3.749   5.956
 9390TIP3    H228124   7.653   3.898   5.958
 9391TIP3   OH228125   6.938   3.223   5.256
 9391TIP3    H128126   6.854   3.271   5.242
 9391TIP3    H228127   6.973   3.216   5.166
 9392TIP3   OH228128   6.885   3.001   4.971
 9392TIP3    H128129   6.950   3.052   5.021
 9392TIP3    H228130   6.944   2.938   4.924
 9393TIP3   OH228131   7.819   3.437   5.826
 9393TIP3    H128132   7.762   3.509   5.859
 9393TIP3    H228133   7.861   3.483   5.751
 9394TIP3   OH228134   7.506   3.336   6.149
 9394TIP3    H128135   7.508   3.422   6.194
 9394TIP3    H228136   7.420   3.342   6.102
 9395TIP3   OH228137   6.507   3.296   5.645
 9395TIP3    H128138   6.464   3.237   5.580
 9395TIP3    H228139   6.582   3.240   5.677
 9396TIP3   OH228140   6.638   3.712   5.794
 9396TIP3    H128141   6.614   3.670   5.710
 9396TIP3    H228142   6.726   3.673   5.812
 9397TIP3   OH228143   6.645   3.266   6.002
 9397TIP3    H128144   6.675   3.243   5.912
 9397TIP3    H228145   6.686   3.353   6.019
 9398TIP3   OH228146   7.161   3.903   5.778
 9398TIP3    H128147   7.155   3.987   5.827
 9398TIP3    H228148   7.148   3.835   5.847
 9399TIP3   OH228149   6.780   3.825   6.325
 9399TIP3    H128150   6.718   3.886   6.372
 9399TIP3    H228151   6.716   3.771   6.275
 9400TIP3   OH228152   7.118   3.159   5.047
 9400TIP3    H128153   7.196   3.203   5.081
 9400TIP3    H228154   7.130   3.175   4.950
 9401TIP3   OH228155   6.535   3.379   6.427
 9401TIP3    H128156   6.540   3.466   6.471
 9401TIP3    H228157   6.441   3.357   6.444
 9402TIP3   OH228158   6.868   3.825   5.333
 9402TIP3    H128159   6.942   3.888   5.343
 9402TIP3    H228160   6.799   3.881   5.296
 9403TIP3   OH228161   6.573   3.991   6.414
 9403TIP3    H128162   6.537   3.994   6.324
 9403TIP3    H228163   6.493   3.969   6.467
 9404TIP3   OH228164   7.610   2.414   5.111
 9404TIP3    H128165   7.531   2.438   5.165
 9404TIP3    H228166   7.628   2.498   5.065
 9405TIP3   OH228167   6.372   3.140   5.451
 9405TIP3    H128168   6.302   3.181   5.396
 9405TIP3    H228169   6.337   3.051   5.465
 9406TIP3   OH228170   7.431   3.764   4.658
 9406TIP3    H128171   7.440   3.859   4.637
 9406TIP3    H228172   7.523   3.732   4.642
 9407TIP3   OH228173   6.153   3.523   6.359
 9407TIP3    H128174   6.084   3.502   6.293
 9407TIP3    H228175   6.190   3.435   6.381
 9408TIP3   OH228176   6.007   3.718   5.986
 9408TIP3    H128177   6.103   3.712   5.984
 9408TIP3    H228178   5.994   3.794   6.045
 9409TIP3   OH228179   7.867   4.168   6.034
 9409TIP3    H128180   7.857   4.074   6.015
 9409TIP3    H228181   7.788   4.185   6.091
 9410TIP3   OH228182   6.975   3.953   6.183
 9410TIP3    H128183   6.972   4.045   6.216
 9410TIP3    H228184   6.904   3.912   6.237
 9411TIP3   OH228185   6.740   4.083   5.131
 9411TIP3    H128186   6.685   4.069   5.052
 9411TIP3    H228187   6.708   4.168   5.165
 9412TIP3   OH228188   6.177   3.929   5.520
 9412TIP3    H128189   6.224   3.922   5.607
 9412TIP3    H228190   6.125   3.847   5.521
 9413TIP3   OH228191   6.936   3.981   4.775
 9413TIP3    H128192   6.996   3.912   4.738
 9413TIP3    H228193   6.974   3.993   4.865
 9414TIP3   OH228194   6.992   4.031   5.042
 9414TIP3    H128195   6.903   4.042   5.083
 9414TIP3    H228196   7.043   3.998   5.117
 9415TIP3   OH228197   7.730   3.277   6.350
 9415TIP3    H128198   7.675   3.307   6.277
 9415TIP3    H228199   7.763   3.191   6.315
 9416TIP3   OH228200   6.357   3.706   6.345
 9416TIP3    H128201   6.406   3.689   6.428
 9416TIP3    H228202   6.282   3.643   6.352
 9417TIP3   OH228203   6.756   2.530   6.132
 9417TIP3    H128204   6.668   2.498   6.103
 9417TIP3    H228205   6.728   2.609   6.183
 9418TIP3   OH228206   7.281   2.653   6.328
 9418TIP3    H128207   7.340   2.623   6.398
 9418TIP3    H228208   7.192   2.630   6.365
 9419TIP3   OH228209   7.519   3.068   6.248
 9419TIP3    H128210   7.473   3.072   6.335
 9419TIP3    H228211   7.505   3.157   6.211
 9420TIP3   OH228212   7.193   3.210   4.799
 9420TIP3    H128213   7.154   3.181   4.714
 9420TIP3    H228214   7.280   3.242   4.767
 9421TIP3   OH228215   6.902   2.576   5.104
 9421TIP3    H128216   6.866   2.571   5.195
 9421TIP3    H228217   6.862   2.495   5.067
 9422TIP3   OH228218   6.690   3.045   6.153
 9422TIP3    H128219   6.638   3.065   6.233
 9422TIP3    H228220   6.674   3.126   6.100
 9423TIP3   OH228221   6.571   2.933   5.664
 9423TIP3    H128222   6.479   2.904   5.684
 9423TIP3    H228223   6.583   2.891   5.576
 9424TIP3   OH228224   7.068   3.024   5.397
 9424TIP3    H128225   7.018   3.096   5.351
 9424TIP3    H228226   7.121   2.987   5.324
 9425TIP3   OH228227   7.238   3.296   6.474
 9425TIP3    H128228   7.212   3.225   6.537
 9425TIP3    H228229   7.329   3.315   6.503
 9426TIP3   OH228230   7.216   3.033   5.630
 9426TIP3    H128231   7.152   3.048   5.556
 9426TIP3    H228232   7.263   2.956   5.591
 9427TIP3   OH228233   6.508   3.072   6.358
 9427TIP3    H128234   6.532   3.135   6.428
 9427TIP3    H228235   6.496   2.989   6.409
 9428TIP3   OH228236   6.558   2.553   5.068
 9428TIP3    H128237   6.548   2.550   5.165
 9428TIP3    H228238   6.479   2.605   5.043
 9429TIP3   OH228239   6.100   2.596   5.939
 9429TIP3    H128240   6.176   2.626   5.993
 9429TIP3    H228241   6.140   2.561   5.858
 9430TIP3   OH228242   6.069   2.575   5.458
 9430TIP3    H128243   6.116   2.611   5.381
 9430TIP3    H228244   6.008   2.649   5.477
 9431TIP3   OH228245   7.223   3.293   6.043
 9431TIP3    H128246   7.259   3.221   5.987
 9431TIP3    H228247   7.195   3.241   6.122
 9432TIP3   OH228248   6.903   2.762   5.726
 9432TIP3    H128249   6.821   2.755   5.780
 9432TIP3    H228250   6.972   2.742   5.791
 9433TIP3   OH228251   6.335   2.810   5.732
 9433TIP3    H128252   6.240   2.818   5.704
 9433TIP3    H228253   6.356   2.717   5.712
 9434TIP3   OH228254   6.600   2.806   5.424
 9434TIP3    H128255   6.693   2.819   5.399
 9434TIP3    H228256   6.551   2.825   5.340
 9435TIP3   OH228257   7.387   2.833   5.928
 9435TIP3    H128258   7.353   2.844   6.019
 9435TIP3    H228259   7.325   2.767   5.893
 9436TIP3   OH228260   6.448   2.842   5.201
 9436TIP3    H128261   6.376   2.794   5.156
 9436TIP3    H228262   6.499   2.876   5.125
 9437TIP3   OH228263   7.556   4.510   6.144
 9437TIP3    H128264   7.553   4.539   6.051
 9437TIP3    H228265   7.632   4.561   6.177
 9438TIP3   OH228266   6.520   3.629   6.566
 9438TIP3    H128267   6.599   3.658   6.616
 9438TIP3    H228268   6.455   3.624   6.639
 9439TIP3   OH228269   6.982   3.088   5.829
 9439TIP3    H128270   7.047   3.035   5.779
 9439TIP3    H228271   6.980   3.041   5.915
 9440TIP3   OH228272   6.503   2.566   5.706
 9440TIP3    H128273   6.465   2.491   5.756
 9440TIP3    H228274   6.549   2.520   5.635
 9441TIP3   OH228275   6.958   2.986   6.104
 9441TIP3    H128276   6.867   3.016   6.125
 9441TIP3    H228277   7.014   3.045   6.159
 9442TIP3   OH228278   6.698   3.367   5.210
 9442TIP3    H128279   6.627   3.300   5.198
 9442TIP3    H228280   6.676   3.401   5.301
 9443TIP3   OH228281   7.594   3.606   5.837
 9443TIP3    H128282   7.627   3.655   5.759
 9443TIP3    H228283   7.509   3.573   5.804
 9444TIP3   OH228284   7.153   2.675   5.079
 9444TIP3    H128285   7.057   2.653   5.084
 9444TIP3    H228286   7.155   2.770   5.100
 9445TIP3   OH228287   7.087   3.686   6.203
 9445TIP3    H128288   7.124   3.667   6.290
 9445TIP3    H228289   7.055   3.778   6.213
 9446TIP3   OH228290   7.221   2.928   5.181
 9446TIP3    H128291   7.318   2.927   5.194
 9446TIP3    H228292   7.209   2.996   5.112
 9447TIP3   OH228293   6.392   3.395   5.882
 9447TIP3    H128294   6.429   3.361   5.798
 9447TIP3    H228295   6.427   3.332   5.947
 9448TIP3   OH228296   6.844   3.515   5.034
 9448TIP3    H128297   6.795   3.601   5.037
 9448TIP3    H228298   6.787   3.461   5.093
 9449TIP3   OH228299   6.272   3.309   6.496
 9449TIP3    H128300   6.286   3.295   6.591
 9449TIP3    H228301   6.201   3.245   6.478
 9450TIP3   OH228302   6.995   3.428   6.515
 9450TIP3    H128303   6.932   3.366   6.474
 9450TIP3    H228304   7.081   3.392   6.484
 9451TIP3   OH228305   7.249   3.945   6.103
 9451TIP3    H128306   7.153   3.948   6.119
 9451TIP3    H228307   7.282   3.999   6.178
 9452TIP3   OH228308   7.660   3.021   5.007
 9452TIP3    H128309   7.594   2.979   4.947
 9452TIP3    H228310   7.658   3.111   4.968
 9453TIP3   OH228311   7.362   3.839   4.918
 9453TIP3    H128312   7.343   3.763   4.974
 9453TIP3    H228313   7.379   3.798   4.831
 9454TIP3   OH228314   7.348   3.470   5.728
 9454TIP3    H128315   7.267   3.433   5.769
 9454TIP3    H228316   7.395   3.387   5.704
 9455TIP3   OH228317   6.490   3.695   5.504
 9455TIP3    H128318   6.483   3.777   5.452
 9455TIP3    H228319   6.397   3.677   5.524
 9456TIP3   OH228320   6.054   2.999   5.214
 9456TIP3    H128321   6.098   3.083   5.237
 9456TIP3    H228322   5.977   3.002   5.275
 9457TIP3   OH228323   6.629   3.461   5.454
 9457TIP3    H128324   6.589   3.548   5.471
 9457TIP3    H228325   6.590   3.408   5.526
 9458TIP3   OH228326   6.760   4.039   5.975
 9458TIP3    H128327   6.803   4.112   5.926
 9458TIP3    H228328   6.835   4.002   6.024
 9459TIP3   OH228329   6.407   3.935   5.360
 9459TIP3    H128330   6.322   3.944   5.407
 9459TIP3    H228331   6.439   4.028   5.362
 9460TIP3   OH228332   7.146   3.664   5.938
 9460TIP3    H128333   7.127   3.668   6.035
 9460TIP3    H228334   7.239   3.639   5.939
 9461TIP3   OH228335   7.121   3.572   4.820
 9461TIP3    H128336   7.173   3.547   4.899
 9461TIP3    H228337   7.033   3.537   4.843
 9462TIP3   OH228338   7.389   4.209   5.994
 9462TIP3    H128339   7.313   4.150   5.981
 9462TIP3    H228340   7.380   4.269   5.917
 9463TIP3   OH228341   7.460   4.039   4.638
 9463TIP3    H128342   7.497   4.112   4.586
 9463TIP3    H228343   7.380   4.084   4.672
 9464TIP3   OH228344   6.478   2.816   6.502
 9464TIP3    H128345   6.381   2.819   6.515
 9464TIP3    H228346   6.505   2.760   6.576
 9465TIP3   OH228347   7.290   3.515   5.040
 9465TIP3    H128348   7.283   3.428   5.081
 9465TIP3    H228349   7.386   3.514   5.017
 9466TIP3   OH228350   6.198   3.898   6.134
 9466TIP3    H128351   6.252   3.826   6.172
 9466TIP3    H228352   6.220   3.971   6.193
 9467TIP3   OH228353   6.482   3.548   4.820
 9467TIP3    H128354   6.498   3.455   4.791
 9467TIP3    H228355   6.465   3.535   4.915
 9468TIP3   OH228356   6.430   3.552   5.092
 9468TIP3    H128357   6.502   3.522   5.148
 9468TIP3    H228358   6.436   3.650   5.102
 9469TIP3   OH228359   6.165   3.244   5.295
 9469TIP3    H128360   6.098   3.288   5.352
 9469TIP3    H228361   6.177   3.313   5.227
 9470TIP3   OH228362   7.314   2.888   6.189
 9470TIP3    H128363   7.402   2.922   6.213
 9470TIP3    H228364   7.306   2.805   6.241
 9471TIP3   OH228365   7.197   2.630   5.357
 9471TIP3    H128366   7.184   2.650   5.263
 9471TIP3    H228367   7.238   2.712   5.391
 9472TIP3   OH228368   6.700   3.745   5.040
 9472TIP3    H128369   6.613   3.772   5.077
 9472TIP3    H228370   6.714   3.816   4.977
 9473TIP3   OH228371   6.888   2.816   5.456
 9473TIP3    H128372   6.951   2.889   5.443
 9473TIP3    H228373   6.891   2.805   5.554
 9474TIP3   OH228374   7.157   3.132   6.253
 9474TIP3    H128375   7.182   3.179   6.335
 9474TIP3    H228376   7.208   3.049   6.259
 9475TIP3   OH228377   7.028   2.534   5.556
 9475TIP3    H128378   7.031   2.608   5.618
 9475TIP3    H228379   7.088   2.567   5.485
 9476TIP3   OH228380   6.447   3.824   5.113
 9476TIP3    H128381   6.416   3.897   5.055
 9476TIP3    H228382   6.430   3.863   5.201
 9477TIP3   OH228383   6.542   2.539   5.344
 9477TIP3    H128384   6.540   2.628   5.385
 9477TIP3    H228385   6.638   2.520   5.352
 9478TIP3   OH228386   7.790   3.030   6.231
 9478TIP3    H128387   7.692   3.030   6.238
 9478TIP3    H228388   7.800   2.966   6.160
 9479TIP3   OH228389   7.439   3.225   5.630
 9479TIP3    H128390   7.372   3.158   5.647
 9479TIP3    H228391   7.518   3.186   5.675
 9480TIP3   OH228392   6.161   3.450   5.098
 9480TIP3    H128393   6.234   3.514   5.110
 9480TIP3    H228394   6.204   3.391   5.032
 9481TIP3   OH228395   6.104   2.729   5.234
 9481TIP3    H128396   6.102   2.827   5.232
 9481TIP3    H228397   6.022   2.707   5.188
 9482TIP3   OH228398   7.414   4.182   5.577
 9482TIP3    H128399   7.374   4.230   5.501
 9482TIP3    H228400   7.509   4.200   5.559
 9483TIP3   OH228401   6.492   2.449   6.104
 9483TIP3    H128402   6.461   2.413   6.018
 9483TIP3    H228403   6.482   2.371   6.163
 9484TIP3   OH228404   6.027   3.666   5.482
 9484TIP3    H128405   5.966   3.695   5.551
 9484TIP3    H228406   5.989   3.710   5.402
 9485TIP3   OH228407   6.188   4.212   6.558
 9485TIP3    H128408   6.275   4.211   6.604
 9485TIP3    H228409   6.166   4.118   6.558
 9486TIP3   OH228410   6.671   4.168   6.605
 9486TIP3    H128411   6.764   4.144   6.605
 9486TIP3    H228412   6.638   4.110   6.533
 9487TIP3   OH228413   6.650   3.748   4.731
 9487TIP3    H128414   6.596   3.674   4.768
 9487TIP3    H228415   6.727   3.698   4.696
 9488TIP3   OH228416   7.305   4.083   6.338
 9488TIP3    H128417   7.297   4.011   6.404
 9488TIP3    H228418   7.385   4.130   6.368
 9489TIP3   OH228419   7.084   3.790   4.643
 9489TIP3    H128420   7.128   3.725   4.702
 9489TIP3    H228421   7.140   3.786   4.562
 9490TIP3   OH228422   6.318   3.618   6.758
 9490TIP3    H128423   6.333   3.522   6.768
 9490TIP3    H228424   6.231   3.620   6.713
 9491TIP3   OH228425   6.296   3.266   4.954
 9491TIP3    H128426   6.351   3.231   5.026
 9491TIP3    H228427   6.363   3.270   4.882
 9492TIP3   OH228428   6.924   3.703   6.533
 9492TIP3    H128429   6.883   3.722   6.446
 9492TIP3    H228430   6.955   3.611   6.523
 9493TIP3   OH228431   6.809   3.467   4.764
 9493TIP3    H128432   6.811   3.475   4.861
 9493TIP3    H228433   6.812   3.369   4.754
 9494TIP3   OH228434   7.410   3.707   6.138
 9494TIP3    H128435   7.488   3.744   6.092
 9494TIP3    H228436   7.349   3.782   6.126
 9495TIP3   OH228437   6.440   3.356   6.741
 9495TIP3    H128438   6.509   3.292   6.722
 9495TIP3    H228439   6.467   3.388   6.830
 9496TIP3   OH228440   6.504   3.172   5.175
 9496TIP3    H128441   6.474   3.130   5.257
 9496TIP3    H228442   6.540   3.096   5.125
 9497TIP3   OH228443   6.774   3.237   6.405
 9497TIP3    H128444   6.694   3.293   6.402
 9497TIP3    H228445   6.825   3.271   6.328
 9498TIP3   OH228446   6.604   2.968   5.013
 9498TIP3    H128447   6.580   2.973   4.919
 9498TIP3    H228448   6.702   2.966   5.007
 9499TIP3   OH228449   7.292   3.636   6.538
 9499TIP3    H128450   7.364   3.601   6.485
 9499TIP3    H228451   7.289   3.573   6.613
 9500TIP3   OH228452   7.423   3.294   4.682
 9500TIP3    H128453   7.412   3.248   4.597
 9500TIP3    H228454   7.388   3.383   4.657
 9501TIP3   OH228455   6.895   3.023   6.525
 9501TIP3    H128456   6.894   2.945   6.467
 9501TIP3    H228457   6.850   3.091   6.469
 9502TIP3   OH228458   6.899   2.812   6.335
 9502TIP3    H128459   6.926   2.850   6.250
 9502TIP3    H228460   6.805   2.788   6.318
 9503TIP3   OH228461   6.921   3.343   6.210
 9503TIP3    H128462   7.007   3.356   6.168
 9503TIP3    H228463   6.865   3.409   6.164
 9504TIP3   OH228464   7.508   3.312   6.579
 9504TIP3    H128465   7.532   3.222   6.549
 9504TIP3    H228466   7.577   3.365   6.537
 9505TIP3   OH228467   7.553   3.576   6.330
 9505TIP3    H128468   7.494   3.625   6.269
 9505TIP3    H228469   7.640   3.600   6.290
 9506TIP3   OH228470   6.776   3.132   6.760
 9506TIP3    H128471   6.707   3.064   6.778
 9506TIP3    H228472   6.807   3.104   6.672
 9507TIP3   OH228473   7.029   2.572   6.404
 9507TIP3    H128474   6.976   2.652   6.383
 9507TIP3    H228475   6.961   2.501   6.392
 9508TIP3   OH228476   7.152   3.079   6.609
 9508TIP3    H128477   7.146   3.060   6.705
 9508TIP3    H228478   7.061   3.053   6.583
 9509TIP3   OH228479   7.403   3.035   6.499
 9509TIP3    H128480   7.315   3.049   6.539
 9509TIP3    H228481   7.436   2.965   6.557
 9510TIP3   OH228482   6.614   2.913   6.813
 9510TIP3    H128483   6.614   2.820   6.782
 9510TIP3    H228484   6.647   2.901   6.904
 9511TIP3   OH228485   7.121   2.580   6.662
 9511TIP3    H128486   7.166   2.495   6.677
 9511TIP3    H228487   7.087   2.570   6.571
 9512TIP3   OH228488   7.179   2.798   6.814
 9512TIP3    H128489   7.165   2.722   6.753
 9512TIP3    H228490   7.097   2.850   6.800
 9513TIP3   OH228491   6.412   4.029   4.930
 9513TIP3    H128492   6.504   4.023   4.897
 9513TIP3    H228493   6.361   4.034   4.849
 9514TIP3   OH228494   5.891   3.410   5.132
 9514TIP3    H128495   5.986   3.429   5.120
 9514TIP3    H228496   5.884   3.320   5.094
 9515TIP3   OH228497   5.810   4.020   5.551
 9515TIP3    H128498   5.743   3.960   5.513
 9515TIP3    H228499   5.853   3.961   5.616
 9516TIP3   OH228500   5.943   3.867   5.738
 9516TIP3    H128501   5.929   3.797   5.805
 9516TIP3    H228502   5.995   3.930   5.791
 9517TIP3   OH228503   7.669   4.273   5.539
 9517TIP3    H128504   7.693   4.305   5.628
 9517TIP3    H228505   7.733   4.318   5.483
 9518TIP3   OH228506   7.698   4.295   5.817
 9518TIP3    H128507   7.651   4.208   5.814
 9518TIP3    H228508   7.774   4.269   5.872
 9519TIP3   OH228509   7.754   3.976   6.401
 9519TIP3    H128510   7.670   3.981   6.450
 9519TIP3    H228511   7.789   4.067   6.409
 9520TIP3   OH228512   7.558   3.487   5.012
 9520TIP3    H128513   7.628   3.547   4.979
 9520TIP3    H228514   7.605   3.445   5.088
 9521TIP3   OH228515   7.680   3.352   5.213
 9521TIP3    H128516   7.620   3.308   5.277
 9521TIP3    H228517   7.751   3.387   5.271
 9522TIP3   OH228518   7.698   3.720   5.617
 9522TIP3    H128519   7.780   3.666   5.612
 9522TIP3    H228520   7.723   3.801   5.571
 9523TIP3   OH228521   7.577   4.052   5.832
 9523TIP3    H128522   7.506   4.066   5.897
 9523TIP3    H228523   7.536   3.987   5.771
 9524TIP3   OH228524   7.622   3.254   4.867
 9524TIP3    H128525   7.556   3.256   4.795
 9524TIP3    H228526   7.596   3.334   4.916
 9525TIP3   OH228527   7.489   2.932   4.819
 9525TIP3    H128528   7.470   2.965   4.730
 9525TIP3    H228529   7.464   2.837   4.809
 9526TIP3   OH228530   7.499   3.208   5.359
 9526TIP3    H128531   7.501   3.113   5.343
 9526TIP3    H228532   7.482   3.214   5.456
 9527TIP3   OH228533   6.127   3.279   6.110
 9527TIP3    H128534   6.124   3.245   6.018
 9527TIP3    H228535   6.224   3.279   6.126
 9528TIP3   OH228536   7.797   3.641   6.206
 9528TIP3    H128537   7.861   3.569   6.188
 9528TIP3    H228538   7.808   3.694   6.124
 9529TIP3   OH228539   7.943   3.406   6.230
 9529TIP3    H128540   7.877   3.367   6.290
 9529TIP3    H228541   8.024   3.400   6.284
 9530TIP3   OH228542   7.436   2.667   4.801
 9530TIP3    H128543   7.511   2.632   4.853
 9530TIP3    H228544   7.364   2.603   4.817
 9531TIP3   OH228545   7.499   2.922   5.250
 9531TIP3    H128546   7.539   2.834   5.267
 9531TIP3    H228547   7.560   2.954   5.180
 9532TIP3   OH228548   7.653   3.102   5.748
 9532TIP3    H128549   7.741   3.123   5.709
 9532TIP3    H228550   7.669   3.136   5.838
 9533TIP3   OH228551   7.728   3.236   5.980
 9533TIP3    H128552   7.655   3.277   6.029
 9533TIP3    H228553   7.764   3.313   5.931
 9534TIP3   OH228554   6.349   2.968   6.786
 9534TIP3    H128555   6.447   2.960   6.789
 9534TIP3    H228556   6.324   2.881   6.821
 9535TIP3   OH228557   7.604   2.673   5.294
 9535TIP3    H128558   7.653   2.661   5.378
 9535TIP3    H228559   7.541   2.599   5.299
 9536TIP3   OH228560   6.307   2.657   6.112
 9536TIP3    H128561   6.368   2.581   6.122
 9536TIP3    H228562   6.371   2.730   6.105
 9537TIP3   OH228563   6.108   2.930   6.185
 9537TIP3    H128564   6.158   2.927   6.101
 9537TIP3    H228565   6.138   3.013   6.223
 9538TIP3   OH228566   7.682   2.608   4.925
 9538TIP3    H128567   7.730   2.535   4.881
 9538TIP3    H228568   7.747   2.680   4.921
 9539TIP3   OH228569   6.095   2.439   5.691
 9539TIP3    H128570   6.002   2.429   5.717
 9539TIP3    H228571   6.088   2.495   5.611
 9540TIP3   OH228572   7.252   4.140   5.193
 9540TIP3    H128573   7.305   4.132   5.111
 9540TIP3    H228574   7.303   4.205   5.244
 9541TIP3   OH228575   6.315   2.516   6.502
 9541TIP3    H128576   6.263   2.509   6.584
 9541TIP3    H228577   6.248   2.552   6.441
 9542TIP3   OH228578   6.354   3.945   6.579
 9542TIP3    H128579   6.261   3.919   6.562
 9542TIP3    H228580   6.364   3.921   6.672
 9543TIP3   OH228581   6.534   3.977   6.126
 9543TIP3    H128582   6.485   4.053   6.087
 9543TIP3    H228583   6.620   3.992   6.082
 9544TIP3   OH228584   6.975   4.219   6.265
 9544TIP3    H128585   7.017   4.219   6.353
 9544TIP3    H228586   7.041   4.270   6.213
 9545TIP3   OH228587   7.155   4.372   6.124
 9545TIP3    H128588   7.228   4.322   6.083
 9545TIP3    H228589   7.206   4.432   6.183
 9546TIP3   OH228590   6.207   4.233   6.150
 9546TIP3    H128591   6.117   4.265   6.128
 9546TIP3    H228592   6.219   4.274   6.237
 9547TIP3   OH228593   6.444   4.211   6.010
 9547TIP3    H128594   6.357   4.223   6.053
 9547TIP3    H228595   6.426   4.243   5.919
 9548TIP3   OH228596   6.870   4.238   5.806
 9548TIP3    H128597   6.799   4.257   5.742
 9548TIP3    H228598   6.882   4.326   5.848
 9549TIP3   OH228599   7.140   4.173   5.856
 9549TIP3    H128600   7.047   4.196   5.838
 9549TIP3    H228601   7.187   4.248   5.818
 9550TIP3   OH228602   7.342   4.366   5.771
 9550TIP3    H128603   7.329   4.450   5.722
 9550TIP3    H228604   7.372   4.305   5.700
 9551TIP3   OH228605   6.120   4.025   5.894
 9551TIP3    H128606   6.146   3.998   5.984
 9551TIP3    H228607   6.192   3.980   5.843
 9552TIP3   OH228608   6.315   3.897   5.753
 9552TIP3    H128609   6.329   3.814   5.804
 9552TIP3    H228610   6.407   3.932   5.750
 9553TIP3   OH228611   6.582   3.989   5.758
 9553TIP3    H128612   6.612   3.896   5.750
 9553TIP3    H228613   6.629   4.013   5.840
 9554TIP3   OH228614   7.147   2.643   5.836
 9554TIP3    H128615   7.110   2.572   5.892
 9554TIP3    H228616   7.227   2.601   5.799
 9555TIP3   OH228617   7.675   2.524   5.739
 9555TIP3    H128618   7.708   2.580   5.666
 9555TIP3    H228619   7.580   2.548   5.741
 9556TIP3   OH228620   7.766   2.639   5.511
 9556TIP3    H128621   7.838   2.585   5.472
 9556TIP3    H228622   7.798   2.729   5.491
 9557TIP3   OH228623   6.402   2.355   5.857
 9557TIP3    H128624   6.310   2.322   5.861
 9557TIP3    H228625   6.450   2.269   5.853
 9558TIP3   OH228626   6.190   2.234   5.505
 9558TIP3    H128627   6.223   2.291   5.433
 9558TIP3    H228628   6.169   2.298   5.575
 9559TIP3   OH228629   6.849   2.387   5.739
 9559TIP3    H128630   6.906   2.435   5.677
 9559TIP3    H228631   6.875   2.425   5.825
 9560TIP3   OH228632   7.386   2.537   5.723
 9560TIP3    H128633   7.393   2.493   5.637
 9560TIP3    H228634   7.376   2.459   5.783
 9561TIP3   OH228635   7.415   2.465   5.296
 9561TIP3    H128636   7.328   2.505   5.311
 9561TIP3    H228637   7.403   2.376   5.337
 9562TIP3   OH228638   5.910   3.799   5.280
 9562TIP3    H128639   5.822   3.767   5.251
 9562TIP3    H228640   5.898   3.894   5.263
 9563TIP3   OH228641   6.310   2.388   5.266
 9563TIP3    H128642   6.356   2.321   5.212
 9563TIP3    H228643   6.385   2.439   5.302
 9564TIP3   OH228644   6.820   2.566   5.368
 9564TIP3    H128645   6.877   2.516   5.428
 9564TIP3    H228646   6.845   2.657   5.394
 9565TIP3   OH228647   6.672   3.991   4.852
 9565TIP3    H128648   6.765   4.009   4.827
 9565TIP3    H228649   6.658   3.909   4.799
 9566TIP3   OH228650   7.399   4.106   4.962
 9566TIP3    H128651   7.390   4.009   4.951
 9566TIP3    H228652   7.354   4.138   4.881
 9567TIP3   OH228653   6.610   2.642   6.750
 9567TIP3    H128654   6.573   2.569   6.803
 9567TIP3    H228655   6.704   2.639   6.778
 9568TIP3   OH228656   6.861   2.637   6.868
 9568TIP3    H128657   6.942   2.607   6.824
 9568TIP3    H228658   6.845   2.566   6.933
 9569TIP3   OH228659   5.987   3.832   4.921
 9569TIP3    H128660   5.976   3.844   5.017
 9569TIP3    H228661   6.072   3.785   4.915
 9570TIP3   OH228662   7.623   4.245   6.151
 9570TIP3    H128663   7.545   4.216   6.100
 9570TIP3    H228664   7.605   4.342   6.153
 9571TIP3   OH228665   8.178   3.533   5.623
 9571TIP3    H128666   8.186   3.455   5.680
 9571TIP3    H228667   8.233   3.595   5.674
 9572TIP3   OH228668   8.164   3.919   5.368
 9572TIP3    H128669   8.159   3.823   5.354
 9572TIP3    H228670   8.198   3.924   5.460
 9573TIP3   OH228671   7.862   3.125   5.164
 9573TIP3    H128672   7.818   3.210   5.180
 9573TIP3    H228673   7.791   3.075   5.120
 9574TIP3   OH228674   7.914   3.422   5.334
 9574TIP3    H128675   7.957   3.343   5.372
 9574TIP3    H228676   7.983   3.456   5.275
 9575TIP3   OH228677   8.052   3.219   5.448
 9575TIP3    H128678   8.132   3.215   5.505
 9575TIP3    H228679   8.080   3.160   5.374
 9576TIP3   OH228680   8.283   3.948   5.605
 9576TIP3    H128681   8.292   4.046   5.609
 9576TIP3    H228682   8.234   3.934   5.689
 9577TIP3   OH228683   7.758   3.654   4.905
 9577TIP3    H128684   7.725   3.680   4.817
 9577TIP3    H228685   7.795   3.739   4.938
 9578TIP3   OH228686   8.278   3.672   5.898
 9578TIP3    H128687   8.293   3.754   5.950
 9578TIP3    H228688   8.180   3.668   5.902
 9579TIP3   OH228689   8.366   4.269   5.911
 9579TIP3    H128690   8.349   4.246   5.818
 9579TIP3    H228691   8.287   4.232   5.957
 9580TIP3   OH228692   7.798   3.979   5.470
 9580TIP3    H128693   7.893   3.963   5.476
 9580TIP3    H228694   7.787   4.053   5.531
 9581TIP3   OH228695   7.960   4.188   5.022
 9581TIP3    H128696   8.015   4.177   5.103
 9581TIP3    H228697   7.911   4.104   5.022
 9582TIP3   OH228698   8.153   3.969   5.837
 9582TIP3    H128699   8.209   3.966   5.917
 9582TIP3    H228700   8.078   3.913   5.867
 9583TIP3   OH228701   8.183   3.383   5.899
 9583TIP3    H128702   8.276   3.400   5.874
 9583TIP3    H228703   8.186   3.299   5.945
 9584TIP3   OH228704   7.882   2.856   5.406
 9584TIP3    H128705   7.936   2.885   5.483
 9584TIP3    H228706   7.949   2.822   5.346
 9585TIP3   OH228707   7.860   2.837   4.934
 9585TIP3    H128708   7.935   2.887   4.895
 9585TIP3    H228709   7.799   2.911   4.956
 9586TIP3   OH228710   8.124   3.074   5.222
 9586TIP3    H128711   8.030   3.086   5.195
 9586TIP3    H228712   8.141   2.982   5.200
 9587TIP3   OH228713   8.316   3.890   6.059
 9587TIP3    H128714   8.397   3.936   6.087
 9587TIP3    H228715   8.256   3.904   6.134
 9588TIP3   OH228716   8.184   3.639   5.364
 9588TIP3    H128717   8.268   3.596   5.341
 9588TIP3    H228718   8.170   3.602   5.453
 9589TIP3   OH228719   8.197   3.926   4.991
 9589TIP3    H128720   8.244   3.989   4.934
 9589TIP3    H228721   8.106   3.937   4.962
 9590TIP3   OH228722   7.847   3.241   4.699
 9590TIP3    H128723   7.900   3.321   4.719
 9590TIP3    H228724   7.776   3.249   4.765
 9591TIP3   OH228725   8.168   4.207   4.840
 9591TIP3    H128726   8.090   4.212   4.899
 9591TIP3    H228727   8.206   4.297   4.845
 9592TIP3   OH228728   8.253   3.124   6.024
 9592TIP3    H128729   8.156   3.109   6.026
 9592TIP3    H228730   8.287   3.032   6.021
 9593TIP3   OH228731   7.996   4.150   5.624
 9593TIP3    H128732   8.039   4.082   5.679
 9593TIP3    H228733   8.015   4.230   5.676
 9594TIP3   OH228734   7.954   3.487   4.784
 9594TIP3    H128735   7.892   3.541   4.836
 9594TIP3    H228736   7.996   3.552   4.726
 9595TIP3   OH228737   8.152   4.109   4.578
 9595TIP3    H128738   8.225   4.153   4.535
 9595TIP3    H228739   8.164   4.136   4.671
 9596TIP3   OH228740   7.962   3.723   4.585
 9596TIP3    H128741   8.010   3.801   4.618
 9596TIP3    H228742   8.032   3.678   4.535
 9597TIP3   OH228743   7.827   2.968   4.621
 9597TIP3    H128744   7.857   3.055   4.654
 9597TIP3    H228745   7.792   2.929   4.702
 9598TIP3   OH228746   7.827   3.925   4.968
 9598TIP3    H128747   7.765   3.950   5.037
 9598TIP3    H228748   7.787   3.969   4.889
 9599TIP3   OH228749   7.991   4.463   6.059
 9599TIP3    H128750   8.065   4.440   6.121
 9599TIP3    H228751   7.963   4.374   6.032
 9600TIP3   OH228752   8.084   3.872   6.233
 9600TIP3    H128753   8.106   3.777   6.233
 9600TIP3    H228754   8.007   3.871   6.172
 9601TIP3   OH228755   8.186   3.611   6.214
 9601TIP3    H128756   8.166   3.585   6.122
 9601TIP3    H228757   8.282   3.630   6.212
 9602TIP3   OH228758   7.690   3.666   4.624
 9602TIP3    H128759   7.785   3.685   4.606
 9602TIP3    H228760   7.681   3.576   4.585
 9603TIP3   OH228761   7.605   4.276   5.041
 9603TIP3    H128762   7.539   4.215   5.001
 9603TIP3    H228763   7.649   4.216   5.105
 9604TIP3   OH228764   7.736   4.120   5.229
 9604TIP3    H128765   7.730   4.052   5.299
 9604TIP3    H228766   7.789   4.187   5.277
 9605TIP3   OH228767   7.909   3.545   5.587
 9605TIP3    H128768   7.902   3.510   5.496
 9605TIP3    H228769   8.006   3.544   5.600
 9606TIP3   OH228770   8.039   2.898   5.626
 9606TIP3    H128771   8.103   2.843   5.676
 9606TIP3    H228772   8.097   2.973   5.607
 9607TIP3   OH228773   7.902   3.185   5.679
 9607TIP3    H128774   7.947   3.200   5.594
 9607TIP3    H228775   7.911   3.272   5.723
 9608TIP3   OH228776   7.894   2.684   5.156
 9608TIP3    H128777   7.812   2.684   5.208
 9608TIP3    H228778   7.874   2.749   5.086
 9609TIP3   OH228779   8.047   2.751   6.006
 9609TIP3    H128780   8.025   2.796   6.089
 9609TIP3    H228781   7.996   2.806   5.943
 9610TIP3   OH228782   8.148   4.189   6.066
 9610TIP3    H128783   8.056   4.161   6.048
 9610TIP3    H228784   8.147   4.199   6.162
 9611TIP3   OH228785   8.322   4.217   5.627
 9611TIP3    H128786   8.269   4.295   5.604
 9611TIP3    H228787   8.394   4.229   5.562
 9612TIP3   OH228788   8.001   4.482   5.634
 9612TIP3    H128789   7.908   4.508   5.615
 9612TIP3    H228790   8.021   4.550   5.702
 9613TIP3   OH228791   8.235   4.453   5.497
 9613TIP3    H128792   8.150   4.465   5.545
 9613TIP3    H228793   8.214   4.502   5.414
 9614TIP3   OH228794   7.916   4.280   5.380
 9614TIP3    H128795   7.942   4.255   5.471
 9614TIP3    H228796   7.988   4.235   5.330
 9615TIP3   OH228797   8.118   4.154   5.244
 9615TIP3    H128798   8.131   4.062   5.279
 9615TIP3    H228799   8.204   4.193   5.264
 9616TIP3   OH228800   0.350   4.002   6.501
 9616TIP3    H128801   0.419   4.057   6.461
 9616TIP3    H228802   0.323   4.058   6.576
 9617TIP3   OH228803   7.703   4.057   4.770
 9617TIP3    H128804   7.617   4.025   4.736
 9617TIP3    H228805   7.694   4.151   4.749
 9618TIP3   OH228806   7.770   4.087   4.418
 9618TIP3    H128807   7.768   4.106   4.513
 9618TIP3    H228808   7.861   4.052   4.406
 9619TIP3   OH228809   1.344   4.408   6.602
 9619TIP3    H128810   1.314   4.499   6.583
 9619TIP3    H228811   1.268   4.358   6.568
 9620TIP3   OH228812   1.336   4.411   6.985
 9620TIP3    H128813   1.377   4.392   7.072
 9620TIP3    H228814   1.299   4.325   6.961
 9621TIP3   OH228815   0.637   4.326   7.303
 9621TIP3    H128816   0.611   4.269   7.377
 9621TIP3    H228817   0.728   4.348   7.327
 9622TIP3   OH228818   1.586   4.714   6.669
 9622TIP3    H128819   1.575   4.645   6.736
 9622TIP3    H228820   1.622   4.787   6.722
 9623TIP3   OH228821   0.672   4.705   7.122
 9623TIP3    H128822   0.692   4.610   7.107
 9623TIP3    H228823   0.750   4.745   7.079
 9624TIP3   OH228824   1.242   5.174   6.687
 9624TIP3    H128825   1.283   5.104   6.632
 9624TIP3    H228826   1.233   5.129   6.772
 9625TIP3   OH228827   1.145   4.636   7.031
 9625TIP3    H128828   1.188   4.559   6.989
 9625TIP3    H228829   1.227   4.684   7.057
 9626TIP3   OH228830   2.153   3.954   7.033
 9626TIP3    H128831   2.182   4.035   7.079
 9626TIP3    H228832   2.175   3.974   6.941
 9627TIP3   OH228833   1.556   4.133   7.063
 9627TIP3    H128834   1.599   4.047   7.081
 9627TIP3    H228835   1.522   4.118   6.972
 9628TIP3   OH228836   0.905   3.793   7.023
 9628TIP3    H128837   0.879   3.867   6.965
 9628TIP3    H228838   0.853   3.720   6.982
 9629TIP3   OH228839   1.589   3.889   6.651
 9629TIP3    H128840   1.660   3.873   6.717
 9629TIP3    H228841   1.643   3.922   6.577
 9630TIP3   OH228842   0.533   4.003   7.136
 9630TIP3    H128843   0.611   3.980   7.190
 9630TIP3    H228844   0.559   3.961   7.052
 9631TIP3   OH228845   0.969   4.195   6.924
 9631TIP3    H128846   1.063   4.169   6.935
 9631TIP3    H228847   0.928   4.110   6.896
 9632TIP3   OH228848   2.224   4.158   7.213
 9632TIP3    H128849   2.143   4.210   7.194
 9632TIP3    H228850   2.267   4.213   7.282
 9633TIP3   OH228851   1.230   4.628   6.472
 9633TIP3    H128852   1.192   4.617   6.384
 9633TIP3    H228853   1.187   4.712   6.501
 9634TIP3   OH228854   1.019   4.540   7.251
 9634TIP3    H128855   0.965   4.610   7.294
 9634TIP3    H228856   1.056   4.588   7.174
 9635TIP3   OH228857   1.795   3.892   6.827
 9635TIP3    H128858   1.780   3.850   6.912
 9635TIP3    H228859   1.847   3.970   6.852
 9636TIP3   OH228860   0.768   3.895   7.237
 9636TIP3    H128861   0.836   3.950   7.280
 9636TIP3    H228862   0.822   3.851   7.168
 9637TIP3   OH228863   0.858   4.721   7.376
 9637TIP3    H128864   0.825   4.793   7.319
 9637TIP3    H228865   0.776   4.694   7.424
 9638TIP3   OH228866   1.653   4.957   6.833
 9638TIP3    H128867   1.563   4.947   6.871
 9638TIP3    H228868   1.645   5.044   6.788
 9639TIP3   OH228869   1.946   3.850   7.193
 9639TIP3    H128870   1.860   3.879   7.158
 9639TIP3    H228871   2.009   3.886   7.127
 9640TIP3   OH228872   1.265   3.499   7.164
 9640TIP3    H128873   1.247   3.402   7.163
 9640TIP3    H228874   1.181   3.531   7.204
 9641TIP3   OH228875   1.354   5.001   6.504
 9641TIP3    H128876   1.404   4.917   6.487
 9641TIP3    H228877   1.418   5.065   6.465
 9642TIP3   OH228878   1.499   4.786   6.418
 9642TIP3    H128879   1.465   4.705   6.379
 9642TIP3    H228880   1.537   4.752   6.503
 9643TIP3   OH228881   1.877   4.869   7.180
 9643TIP3    H128882   1.879   4.791   7.121
 9643TIP3    H228883   1.869   4.942   7.115
 9644TIP3   OH228884   1.175   4.260   6.437
 9644TIP3    H128885   1.096   4.313   6.415
 9644TIP3    H228886   1.221   4.257   6.351
 9645TIP3   OH228887   1.133   4.047   6.148
 9645TIP3    H128888   1.199   4.099   6.197
 9645TIP3    H228889   1.192   3.984   6.101
 9646TIP3   OH228890   2.073   4.495   7.019
 9646TIP3    H128891   1.996   4.555   7.028
 9646TIP3    H228892   2.111   4.530   6.935
 9647TIP3   OH228893   1.523   4.344   6.405
 9647TIP3    H128894   1.468   4.367   6.484
 9647TIP3    H228895   1.607   4.320   6.448
 9648TIP3   OH228896   1.755   4.371   7.323
 9648TIP3    H128897   1.762   4.450   7.381
 9648TIP3    H228898   1.673   4.392   7.274
 9649TIP3   OH228899   0.761   4.330   6.802
 9649TIP3    H128900   0.723   4.266   6.739
 9649TIP3    H228901   0.838   4.281   6.838
 9650TIP3   OH228902   0.893   4.758   6.970
 9650TIP3    H128903   0.871   4.728   6.880
 9650TIP3    H228904   0.981   4.715   6.985
 9651TIP3   OH228905   0.920   4.296   7.179
 9651TIP3    H128906   0.947   4.275   7.086
 9651TIP3    H228907   0.962   4.384   7.193
 9652TIP3   OH228908   1.411   4.950   6.955
 9652TIP3    H128909   1.406   5.029   7.013
 9652TIP3    H228910   1.399   4.877   7.018
 9653TIP3   OH228911   1.037   4.892   7.496
 9653TIP3    H128912   0.971   4.921   7.560
 9653TIP3    H228913   0.986   4.824   7.447
 9654TIP3   OH228914   1.360   4.203   6.232
 9654TIP3    H128915   1.420   4.263   6.282
 9654TIP3    H228916   1.387   4.223   6.139
 9655TIP3   OH228917   1.107   4.878   6.509
 9655TIP3    H128918   1.190   4.929   6.517
 9655TIP3    H228919   1.047   4.941   6.468
 9656TIP3   OH228920   1.878   3.441   6.282
 9656TIP3    H128921   1.796   3.464   6.331
 9656TIP3    H228922   1.894   3.523   6.231
 9657TIP3   OH228923   0.617   4.176   6.617
 9657TIP3    H128924   0.547   4.234   6.585
 9657TIP3    H228925   0.569   4.106   6.662
 9658TIP3   OH228926   1.678   4.808   5.831
 9658TIP3    H128927   1.687   4.904   5.815
 9658TIP3    H228928   1.771   4.778   5.818
 9659TIP3   OH228929   2.113   5.214   7.217
 9659TIP3    H128930   2.118   5.117   7.231
 9659TIP3    H228931   2.031   5.235   7.266
 9660TIP3   OH228932   1.233   4.999   7.347
 9660TIP3    H128933   1.228   5.092   7.377
 9660TIP3    H228934   1.161   4.960   7.402
 9661TIP3   OH228935   0.988   5.123   6.311
 9661TIP3    H128936   0.942   5.114   6.226
 9661TIP3    H228937   0.964   5.214   6.339
 9662TIP3   OH228938   1.185   5.027   5.950
 9662TIP3    H128939   1.245   4.957   5.914
 9662TIP3    H228940   1.221   5.038   6.040
 9663TIP3   OH228941   1.240   5.076   6.219
 9663TIP3    H128942   1.151   5.084   6.260
 9663TIP3    H228943   1.291   5.037   6.292
 9664TIP3   OH228944   2.016   4.329   7.503
 9664TIP3    H128945   1.930   4.362   7.476
 9664TIP3    H228946   2.016   4.236   7.470
 9665TIP3   OH228947   1.030   3.563   7.278
 9665TIP3    H128948   0.932   3.559   7.280
 9665TIP3    H228949   1.048   3.652   7.316
 9666TIP3   OH228950   1.756   4.115   7.435
 9666TIP3    H128951   1.750   4.152   7.524
 9666TIP3    H228952   1.744   4.196   7.381
 9667TIP3   OH228953   1.439   4.246   5.978
 9667TIP3    H128954   1.403   4.223   5.890
 9667TIP3    H228955   1.522   4.289   5.953
 9668TIP3   OH228956   1.150   3.620   6.282
 9668TIP3    H128957   1.113   3.616   6.372
 9668TIP3    H228958   1.110   3.540   6.244
 9669TIP3   OH228959   0.945   4.082   7.337
 9669TIP3    H128960   0.882   4.106   7.406
 9669TIP3    H228961   0.935   4.157   7.275
 9670TIP3   OH228962   0.824   3.977   6.839
 9670TIP3    H128963   0.734   3.946   6.861
 9670TIP3    H228964   0.834   3.935   6.750
 9671TIP3   OH228965   1.312   4.059   6.570
 9671TIP3    H128966   1.262   4.131   6.526
 9671TIP3    H228967   1.368   4.026   6.497
 9672TIP3   OH228968   1.466   4.088   6.807
 9672TIP3    H128969   1.405   4.117   6.737
 9672TIP3    H228970   1.502   4.008   6.762
 9673TIP3   OH228971   0.810   3.595   6.247
 9673TIP3    H128972   0.792   3.595   6.343
 9673TIP3    H228973   0.735   3.649   6.214
 9674TIP3   OH228974   0.414   3.639   6.669
 9674TIP3    H128975   0.438   3.671   6.581
 9674TIP3    H228976   0.321   3.663   6.675
 9675TIP3   OH228977   1.474   4.340   7.216
 9675TIP3    H128978   1.510   4.268   7.159
 9675TIP3    H228979   1.468   4.291   7.301
 9676TIP3   OH228980   1.155   3.794   6.899
 9676TIP3    H128981   1.072   3.793   6.951
 9676TIP3    H228982   1.222   3.798   6.969
 9677TIP3   OH228983   0.598   3.844   6.903
 9677TIP3    H128984   0.513   3.837   6.858
 9677TIP3    H228985   0.632   3.752   6.896
 9678TIP3   OH228986   0.847   3.847   6.598
 9678TIP3    H128987   0.941   3.863   6.576
 9678TIP3    H228988   0.800   3.873   6.516
 9679TIP3   OH228989   1.643   3.872   7.099
 9679TIP3    H128990   1.618   3.874   7.194
 9679TIP3    H228991   1.574   3.813   7.063
 9680TIP3   OH228992   0.692   3.892   6.378
 9680TIP3    H128993   0.627   3.835   6.333
 9680TIP3    H228994   0.744   3.924   6.302
 9681TIP3   OH228995   1.817   5.564   7.322
 9681TIP3    H128996   1.815   5.586   7.227
 9681TIP3    H228997   1.900   5.607   7.350
 9682TIP3   OH228998   1.228   4.128   6.994
 9682TIP3    H128999   1.306   4.090   6.950
 9682TIP3    H229000   1.232   4.087   7.083
 9683TIP3   OH229001   0.758   3.612   6.879
 9683TIP3    H129002   0.726   3.531   6.922
 9683TIP3    H229003   0.796   3.579   6.797
 9684TIP3   OH229004   1.215   4.042   7.267
 9684TIP3    H129005   1.122   4.061   7.291
 9684TIP3    H229006   1.264   4.101   7.326
 9685TIP3   OH229007   0.944   4.408   6.380
 9685TIP3    H129008   0.870   4.345   6.369
 9685TIP3    H229009   0.926   4.444   6.470
 9686TIP3   OH229010   1.846   4.651   7.012
 9686TIP3    H129011   1.872   4.701   6.931
 9686TIP3    H229012   1.762   4.610   6.984
 9687TIP3   OH229013   1.402   3.722   6.253
 9687TIP3    H129014   1.306   3.704   6.260
 9687TIP3    H229015   1.410   3.817   6.275
 9688TIP3   OH229016   1.339   4.736   7.383
 9688TIP3    H129017   1.343   4.719   7.478
 9688TIP3    H229018   1.300   4.825   7.381
 9689TIP3   OH229019   1.470   3.974   6.353
 9689TIP3    H129020   1.567   3.980   6.368
 9689TIP3    H229021   1.452   4.055   6.301
 9690TIP3   OH229022   0.708   4.449   7.045
 9690TIP3    H129023   0.723   4.408   6.957
 9690TIP3    H229024   0.732   4.376   7.104
 9691TIP3   OH229025   1.089   4.562   6.206
 9691TIP3    H129026   1.041   4.648   6.210
 9691TIP3    H229027   1.035   4.507   6.267
 9692TIP3   OH229028   1.501   4.997   7.267
 9692TIP3    H129029   1.405   4.991   7.287
 9692TIP3    H229030   1.533   5.044   7.347
 9693TIP3   OH229031   1.911   4.067   6.188
 9693TIP3    H129032   1.850   4.024   6.124
 9693TIP3    H229033   1.909   4.157   6.148
 9694TIP3   OH229034   2.128   4.934   7.268
 9694TIP3    H129035   2.031   4.924   7.265
 9694TIP3    H229036   2.151   4.894   7.181
 9695TIP3   OH229037   1.614   4.883   6.095
 9695TIP3    H129038   1.587   4.813   6.157
 9695TIP3    H229039   1.627   4.836   6.011
 9696TIP3   OH229040   1.609   4.513   6.928
 9696TIP3    H129041   1.515   4.490   6.939
 9696TIP3    H229042   1.643   4.433   6.883
 9697TIP3   OH229043   0.754   4.742   6.699
 9697TIP3    H129044   0.728   4.814   6.639
 9697TIP3    H229045   0.669   4.696   6.713
 9698TIP3   OH229046   0.874   4.505   6.618
 9698TIP3    H129047   0.852   4.597   6.646
 9698TIP3    H229048   0.841   4.453   6.694
 9699TIP3   OH229049   1.026   5.091   7.144
 9699TIP3    H129050   1.066   5.162   7.089
 9699TIP3    H229051   1.104   5.057   7.189
 9700TIP3   OH229052   0.654   4.961   6.541
 9700TIP3    H129053   0.568   5.003   6.549
 9700TIP3    H229054   0.713   5.039   6.556
 9701TIP3   OH229055   1.394   4.717   7.114
 9701TIP3    H129056   1.385   4.715   7.212
 9701TIP3    H229057   1.476   4.666   7.102
 9702TIP3   OH229058   1.372   4.613   5.997
 9702TIP3    H129059   1.426   4.586   6.075
 9702TIP3    H229060   1.284   4.584   6.026
 9703TIP3   OH229061   1.640   5.253   7.168
 9703TIP3    H129062   1.562   5.195   7.157
 9703TIP3    H229063   1.627   5.314   7.092
 9704TIP3   OH229064   1.710   5.084   5.815
 9704TIP3    H129065   1.748   5.158   5.765
 9704TIP3    H229066   1.629   5.127   5.849
 9705TIP3   OH229067   1.533   4.544   6.212
 9705TIP3    H129068   1.522   4.478   6.283
 9705TIP3    H229069   1.630   4.540   6.199
 9706TIP3   OH229070   0.727   4.592   5.986
 9706TIP3    H129071   0.748   4.500   5.962
 9706TIP3    H229072   0.723   4.584   6.084
 9707TIP3   OH229073   0.708   4.598   6.258
 9707TIP3    H129074   0.772   4.572   6.325
 9707TIP3    H229075   0.709   4.696   6.267
 9708TIP3   OH229076   1.584   3.901   7.369
 9708TIP3    H129077   1.639   3.980   7.384
 9708TIP3    H229078   1.532   3.898   7.450
 9709TIP3   OH229079   1.448   3.673   6.533
 9709TIP3    H129080   1.434   3.694   6.439
 9709TIP3    H229081   1.486   3.757   6.567
 9710TIP3   OH229082   0.952   4.795   6.215
 9710TIP3    H129083   0.866   4.822   6.253
 9710TIP3    H229084   0.968   4.871   6.156
 9711TIP3   OH229085   1.131   3.858   6.631
 9711TIP3    H129086   1.196   3.930   6.613
 9711TIP3    H229087   1.140   3.849   6.729
 9712TIP3   OH229088   1.444   4.193   7.446
 9712TIP3    H129089   1.407   4.248   7.516
 9712TIP3    H229090   1.420   4.105   7.479
 9713TIP3   OH229091   1.276   3.578   6.731
 9713TIP3    H129092   1.265   3.657   6.788
 9713TIP3    H229093   1.339   3.613   6.664
 9714TIP3   OH229094   0.697   4.869   6.281
 9714TIP3    H129095   0.653   4.932   6.221
 9714TIP3    H229096   0.673   4.904   6.370
 9715TIP3   OH229097   0.788   3.583   6.524
 9715TIP3    H129098   0.787   3.675   6.559
 9715TIP3    H229099   0.885   3.565   6.528
 9716TIP3   OH229100   2.033   4.068   7.426
 9716TIP3    H129101   1.938   4.049   7.420
 9716TIP3    H229102   2.064   4.046   7.337
 9717TIP3   OH229103   1.695   4.269   6.807
 9717TIP3    H129104   1.620   4.208   6.820
 9717TIP3    H229105   1.767   4.223   6.856
 9718TIP3   OH229106   0.450   4.505   6.334
 9718TIP3    H129107   0.504   4.585   6.328
 9718TIP3    H229108   0.486   4.455   6.259
 9719TIP3   OH229109   0.414   3.755   6.395
 9719TIP3    H129110   0.401   3.849   6.415
 9719TIP3    H229111   0.326   3.728   6.366
 9720TIP3   OH229112   1.663   5.229   6.755
 9720TIP3    H129113   1.621   5.275   6.680
 9720TIP3    H229114   1.758   5.249   6.735
 9721TIP3   OH229115   0.749   3.510   7.301
 9721TIP3    H129116   0.710   3.503   7.211
 9721TIP3    H229117   0.678   3.479   7.359
 9722TIP3   OH229118   0.900   4.793   5.907
 9722TIP3    H129119   0.842   4.721   5.941
 9722TIP3    H229120   0.977   4.741   5.876
 9723TIP3   OH229121   1.581   5.105   7.509
 9723TIP3    H129122   1.615   5.030   7.559
 9723TIP3    H229123   1.646   5.175   7.528
 9724TIP3   OH229124   1.333   4.832   5.820
 9724TIP3    H129125   1.376   4.769   5.881
 9724TIP3    H229126   1.391   4.829   5.741
 9725TIP3   OH229127   0.554   4.310   6.143
 9725TIP3    H129128   0.615   4.283   6.214
 9725TIP3    H229129   0.617   4.316   6.068
 9726TIP3   OH229130   1.053   4.511   5.938
 9726TIP3    H129131   1.059   4.521   6.036
 9726TIP3    H229132   1.057   4.413   5.931
 9727TIP3   OH229133   1.663   4.763   7.318
 9727TIP3    H129134   1.741   4.800   7.270
 9727TIP3    H229135   1.595   4.828   7.294
 9728TIP3   OH229136   0.744   4.215   6.349
 9728TIP3    H129137   0.726   4.171   6.434
 9728TIP3    H229138   0.784   4.142   6.297
 9729TIP3   OH229139   0.854   4.013   6.192
 9729TIP3    H129140   0.829   4.017   6.097
 9729TIP3    H229141   0.952   4.013   6.184
 9730TIP3   OH229142   1.671   4.338   5.858
 9730TIP3    H129143   1.653   4.294   5.773
 9730TIP3    H229144   1.638   4.428   5.837
 9731TIP3   OH229145   1.121   3.796   7.384
 9731TIP3    H129146   1.174   3.866   7.342
 9731TIP3    H229147   1.097   3.837   7.468
 9732TIP3   OH229148   1.196   4.380   7.380
 9732TIP3    H129149   1.275   4.409   7.333
 9732TIP3    H229150   1.129   4.442   7.344
 9733TIP3   OH229151   1.806   4.593   7.478
 9733TIP3    H129152   1.741   4.654   7.434
 9733TIP3    H229153   1.890   4.630   7.444
 9734TIP3   OH229154   0.652   5.080   6.094
 9734TIP3    H129155   0.748   5.066   6.085
 9734TIP3    H229156   0.633   5.128   6.012
 9735TIP3   OH229157   1.916   5.324   6.716
 9735TIP3    H129158   1.948   5.349   6.804
 9735TIP3    H229159   1.989   5.351   6.658
 9736TIP3   OH229160   1.949   5.335   6.999
 9736TIP3    H129161   1.902   5.249   6.993
 9736TIP3    H229162   2.026   5.308   7.052
 9737TIP3   OH229163   1.994   5.015   7.569
 9737TIP3    H129164   1.922   5.024   7.634
 9737TIP3    H229165   2.037   5.102   7.573
 9738TIP3   OH229166   1.810   4.525   6.189
 9738TIP3    H129167   1.876   4.590   6.158
 9738TIP3    H229168   1.856   4.488   6.268
 9739TIP3   OH229169   1.938   4.392   6.394
 9739TIP3    H129170   1.871   4.351   6.452
 9739TIP3    H229171   2.001   4.430   6.458
 9740TIP3   OH229172   1.975   4.779   6.804
 9740TIP3    H129173   2.039   4.717   6.766
 9740TIP3    H229174   1.983   4.857   6.746
 9741TIP3   OH229175   1.821   5.089   7.016
 9741TIP3    H129176   1.747   5.122   7.068
 9741TIP3    H229177   1.775   5.039   6.945
 9742TIP3   OH229178   1.875   4.301   6.038
 9742TIP3    H129179   1.804   4.303   5.971
 9742TIP3    H229180   1.846   4.377   6.094
 9743TIP3   OH229181   1.745   3.975   5.993
 9743TIP3    H129182   1.702   4.009   5.914
 9743TIP3    H229183   1.723   3.880   5.986
 9744TIP3   OH229184   1.750   4.252   6.538
 9744TIP3    H129185   1.758   4.156   6.530
 9744TIP3    H229186   1.735   4.264   6.634
 9745TIP3   OH229187   2.047   4.680   7.386
 9745TIP3    H129188   2.116   4.611   7.378
 9745TIP3    H229189   2.074   4.745   7.318
 9746TIP3   OH229190   2.221   4.477   7.406
 9746TIP3    H129191   2.153   4.416   7.442
 9746TIP3    H229192   2.302   4.424   7.420
 9747TIP3   OH229193   1.689   3.709   5.978
 9747TIP3    H129194   1.763   3.676   6.032
 9747TIP3    H229195   1.616   3.648   5.998
 9748TIP3   OH229196   1.748   3.967   6.431
 9748TIP3    H129197   1.789   3.878   6.446
 9748TIP3    H229198   1.806   4.000   6.360
 9749TIP3   OH229199   1.907   4.138   6.929
 9749TIP3    H129200   1.993   4.162   6.887
 9749TIP3    H229201   1.922   4.177   7.017
 9750TIP3   OH229202   1.978   4.282   7.162
 9750TIP3    H129203   1.901   4.320   7.209
 9750TIP3    H229204   2.010   4.361   7.112
 9751TIP3   OH229205   2.468   3.898   7.705
 9751TIP3    H129206   2.521   3.828   7.662
 9751TIP3    H229207   2.441   3.954   7.631
 9752TIP3   OH229208   1.856   3.718   6.471
 9752TIP3    H129209   1.905   3.701   6.555
 9752TIP3    H229210   1.796   3.641   6.470
 9753TIP3   OH229211   0.559   3.716   7.256
 9753TIP3    H129212   0.603   3.653   7.313
 9753TIP3    H229213   0.627   3.786   7.251
 9754TIP3   OH229214   2.286   4.011   7.519
 9754TIP3    H129215   2.194   4.044   7.519
 9754TIP3    H229216   2.279   3.945   7.448
 9755TIP3   OH229217   1.935   3.648   6.105
 9755TIP3    H129218   1.975   3.578   6.049
 9755TIP3    H229219   2.003   3.718   6.102
 9756TIP3   OH229220   1.501   5.185   6.370
 9756TIP3    H129221   1.552   5.174   6.287
 9756TIP3    H229222   1.556   5.249   6.419
 9757TIP3   OH229223   0.823   4.988   7.305
 9757TIP3    H129224   0.794   5.072   7.348
 9757TIP3    H229225   0.895   5.020   7.248
 9758TIP3   OH229226   1.223   5.261   7.425
 9758TIP3    H129227   1.274   5.251   7.509
 9758TIP3    H229228   1.286   5.317   7.374
 9759TIP3   OH229229   1.409   5.417   7.297
 9759TIP3    H129230   1.479   5.365   7.255
 9759TIP3    H229231   1.461   5.473   7.358
 9760TIP3   OH229232   2.192   3.783   7.369
 9760TIP3    H129233   2.104   3.783   7.328
 9760TIP3    H229234   2.220   3.689   7.358
 9761TIP3   OH229235   1.131   5.290   6.983
 9761TIP3    H129236   1.058   5.304   6.919
 9761TIP3    H229237   1.144   5.380   7.017
 9762TIP3   OH229238   1.393   5.222   7.039
 9762TIP3    H129239   1.300   5.240   7.015
 9762TIP3    H229240   1.440   5.292   6.990
 9763TIP3   OH229241   1.594   5.412   6.948
 9763TIP3    H129242   1.579   5.496   6.899
 9763TIP3    H229243   1.622   5.352   6.876
 9764TIP3   OH229244   0.844   5.046   6.919
 9764TIP3    H129245   0.849   4.950   6.905
 9764TIP3    H229246   0.901   5.054   6.998
 9765TIP3   OH229247   1.411   3.696   7.022
 9765TIP3    H129248   1.364   3.622   7.067
 9765TIP3    H229249   1.483   3.649   6.975
 9766TIP3   OH229250   1.924   3.572   6.926
 9766TIP3    H129251   1.963   3.623   6.851
 9766TIP3    H229252   1.829   3.593   6.917
 9767TIP3   OH229253   2.020   3.670   6.690
 9767TIP3    H129254   2.094   3.619   6.650
 9767TIP3    H229255   2.053   3.762   6.675
 9768TIP3   OH229256   0.659   3.392   7.051
 9768TIP3    H129257   0.565   3.362   7.051
 9768TIP3    H229258   0.703   3.310   7.022
 9769TIP3   OH229259   0.463   3.274   6.692
 9769TIP3    H129260   0.493   3.312   6.607
 9769TIP3    H229261   0.415   3.350   6.728
 9770TIP3   OH229262   1.095   3.431   6.914
 9770TIP3    H129263   1.153   3.479   6.853
 9770TIP3    H229264   1.111   3.477   6.997
 9771TIP3   OH229265   1.639   3.583   6.896
 9771TIP3    H129266   1.643   3.544   6.807
 9771TIP3    H229267   1.627   3.503   6.952
 9772TIP3   OH229268   1.673   3.505   6.463
 9772TIP3    H129269   1.586   3.548   6.477
 9772TIP3    H229270   1.658   3.419   6.507
 9773TIP3   OH229271   0.551   3.417   6.456
 9773TIP3    H129272   0.599   3.362   6.391
 9773TIP3    H229273   0.622   3.477   6.488
 9774TIP3   OH229274   1.067   3.607   6.545
 9774TIP3    H129275   1.129   3.560   6.604
 9774TIP3    H229276   1.089   3.700   6.570
 9775TIP3   OH229277   0.924   5.030   6.042
 9775TIP3    H129278   1.013   5.051   6.009
 9775TIP3    H229279   0.903   4.953   5.985
 9776TIP3   OH229280   1.648   5.150   6.139
 9776TIP3    H129281   1.640   5.052   6.129
 9776TIP3    H229282   1.602   5.180   6.058
 9777TIP3   OH229283   1.868   5.293   7.326
 9777TIP3    H129284   1.791   5.263   7.272
 9777TIP3    H229285   1.852   5.389   7.327
 9778TIP3   OH229286   3.132   4.663   6.098
 9778TIP3    H129287   3.104   4.754   6.075
 9778TIP3    H229288   3.064   4.613   6.050
 9779TIP3   OH229289   3.087   4.582   6.471
 9779TIP3    H129290   3.133   4.607   6.553
 9779TIP3    H229291   3.155   4.594   6.404
 9780TIP3   OH229292   2.453   4.569   6.824
 9780TIP3    H129293   2.478   4.500   6.888
 9780TIP3    H229294   2.487   4.649   6.870
 9781TIP3   OH229295   3.383   4.969   6.157
 9781TIP3    H129296   3.379   4.902   6.226
 9781TIP3    H229297   3.413   5.047   6.207
 9782TIP3   OH229298   2.402   4.970   6.542
 9782TIP3    H129299   2.400   4.873   6.552
 9782TIP3    H229300   2.471   4.992   6.607
 9783TIP3   OH229301   2.120   4.172   6.343
 9783TIP3    H129302   2.071   4.254   6.363
 9783TIP3    H229303   2.050   4.119   6.302
 9784TIP3   OH229304   2.173   4.460   6.525
 9784TIP3    H129305   2.222   4.381   6.557
 9784TIP3    H229306   2.229   4.490   6.452
 9785TIP3   OH229307   3.035   5.432   6.171
 9785TIP3    H129308   3.077   5.359   6.122
 9785TIP3    H229309   3.020   5.393   6.258
 9786TIP3   OH229310   2.934   4.890   6.518
 9786TIP3    H129311   2.969   4.806   6.484
 9786TIP3    H229312   3.018   4.935   6.543
 9787TIP3   OH229313   3.954   4.211   6.519
 9787TIP3    H129314   3.984   4.295   6.559
 9787TIP3    H229315   3.975   4.226   6.425
 9788TIP3   OH229316   3.346   4.393   6.545
 9788TIP3    H129317   3.393   4.312   6.570
 9788TIP3    H229318   3.311   4.369   6.457
 9789TIP3   OH229319   2.688   4.056   6.512
 9789TIP3    H129320   2.662   4.125   6.449
 9789TIP3    H229321   2.642   3.978   6.473
 9790TIP3   OH229322   3.382   4.148   6.137
 9790TIP3    H129323   3.451   4.130   6.205
 9790TIP3    H229324   3.440   4.177   6.063
 9791TIP3   OH229325   2.322   4.254   6.624
 9791TIP3    H129326   2.403   4.234   6.674
 9791TIP3    H229327   2.337   4.198   6.544
 9792TIP3   OH229328   4.028   4.422   6.687
 9792TIP3    H129329   3.943   4.466   6.667
 9792TIP3    H229330   4.037   4.444   6.781
 9793TIP3   OH229331   2.684   4.034   6.951
 9793TIP3    H129332   2.623   4.071   6.885
 9793TIP3    H229333   2.633   4.052   7.033
 9794TIP3   OH229334   3.028   4.882   5.959
 9794TIP3    H129335   2.990   4.872   5.871
 9794TIP3    H229336   2.985   4.966   5.988
 9795TIP3   OH229337   2.769   4.816   6.767
 9795TIP3    H129338   2.691   4.862   6.809
 9795TIP3    H229339   2.794   4.884   6.702
 9796TIP3   OH229340   3.584   4.152   6.314
 9796TIP3    H129341   3.598   4.085   6.382
 9796TIP3    H229342   3.643   4.224   6.344
 9797TIP3   OH229343   2.554   4.150   6.736
 9797TIP3    H129344   2.615   4.223   6.762
 9797TIP3    H229345   2.605   4.110   6.661
 9798TIP3   OH229346   2.011   4.696   6.080
 9798TIP3    H129347   1.972   4.726   5.996
 9798TIP3    H229348   2.045   4.781   6.116
 9799TIP3   OH229349   3.452   5.212   6.317
 9799TIP3    H129350   3.363   5.203   6.359
 9799TIP3    H229351   3.443   5.300   6.274
 9800TIP3   OH229352   3.745   4.114   6.687
 9800TIP3    H129353   3.657   4.137   6.651
 9800TIP3    H229354   3.805   4.144   6.615
 9801TIP3   OH229355   3.037   3.751   6.664
 9801TIP3    H129356   3.023   3.657   6.686
 9801TIP3    H229357   2.961   3.791   6.711
 9802TIP3   OH229358   3.153   5.256   5.993
 9802TIP3    H129359   3.202   5.173   5.974
 9802TIP3    H229360   3.215   5.321   5.954
 9803TIP3   OH229361   3.297   5.040   5.904
 9803TIP3    H129362   3.264   4.960   5.862
 9803TIP3    H229363   3.332   5.005   5.989
 9804TIP3   OH229364   3.678   5.124   6.666
 9804TIP3    H129365   3.666   5.046   6.607
 9804TIP3    H229366   3.660   5.198   6.605
 9805TIP3   OH229367   2.973   4.522   5.923
 9805TIP3    H129368   2.893   4.574   5.902
 9805TIP3    H229369   3.016   4.515   5.835
 9806TIP3   OH229370   2.929   4.304   5.635
 9806TIP3    H129371   2.996   4.356   5.682
 9806TIP3    H229372   2.986   4.239   5.589
 9807TIP3   OH229373   3.874   4.763   6.511
 9807TIP3    H129374   3.790   4.814   6.515
 9807TIP3    H229375   3.904   4.787   6.420
 9808TIP3   OH229376   3.316   4.602   5.897
 9808TIP3    H129377   3.264   4.625   5.977
 9808TIP3    H229378   3.401   4.576   5.937
 9809TIP3   OH229379   3.551   4.639   6.809
 9809TIP3    H129380   3.550   4.720   6.863
 9809TIP3    H229381   3.466   4.646   6.763
 9810TIP3   OH229382   2.551   4.567   6.319
 9810TIP3    H129383   2.491   4.554   6.242
 9810TIP3    H229384   2.586   4.477   6.325
 9811TIP3   OH229385   2.699   5.029   6.444
 9811TIP3    H129386   2.659   4.975   6.375
 9811TIP3    H229387   2.780   4.979   6.468
 9812TIP3   OH229388   2.730   4.575   6.630
 9812TIP3    H129389   2.689   4.634   6.565
 9812TIP3    H229390   2.751   4.640   6.699
 9813TIP3   OH229391   3.215   5.204   6.445
 9813TIP3    H129392   3.199   5.287   6.492
 9813TIP3    H229393   3.191   5.136   6.510
 9814TIP3   OH229394   2.799   5.117   6.982
 9814TIP3    H129395   2.751   5.186   7.031
 9814TIP3    H229396   2.721   5.067   6.948
 9815TIP3   OH229397   3.156   4.460   5.720
 9815TIP3    H129398   3.214   4.520   5.770
 9815TIP3    H229399   3.183   4.481   5.627
 9816TIP3   OH229400   2.583   4.669   7.081
 9816TIP3    H129401   2.597   4.760   7.115
 9816TIP3    H229402   2.488   4.659   7.106
 9817TIP3   OH229403   2.905   5.132   5.994
 9817TIP3    H129404   2.986   5.186   6.005
 9817TIP3    H229405   2.843   5.195   5.956
 9818TIP3   OH229406   2.620   5.301   7.082
 9818TIP3    H129407   2.595   5.302   6.986
 9818TIP3    H229408   2.538   5.270   7.125
 9819TIP3   OH229409   2.407   4.445   6.119
 9819TIP3    H129410   2.340   4.485   6.059
 9819TIP3    H229411   2.377   4.354   6.124
 9820TIP3   OH229412   3.474   5.064   5.317
 9820TIP3    H129413   3.483   5.161   5.302
 9820TIP3    H229414   3.567   5.035   5.305
 9821TIP3   OH229415   2.159   4.801   7.040
 9821TIP3    H129416   2.137   4.799   6.946
 9821TIP3    H229417   2.238   4.744   7.045
 9822TIP3   OH229418   2.057   5.017   6.656
 9822TIP3    H129419   2.153   5.005   6.649
 9822TIP3    H229420   2.053   5.090   6.720
 9823TIP3   OH229421   3.916   5.470   6.713
 9823TIP3    H129422   3.915   5.374   6.728
 9823TIP3    H229423   3.833   5.496   6.758
 9824TIP3   OH229424   3.015   5.247   6.851
 9824TIP3    H129425   3.012   5.340   6.883
 9824TIP3    H229426   2.937   5.208   6.896
 9825TIP3   OH229427   2.786   5.383   5.798
 9825TIP3    H129428   2.738   5.366   5.715
 9825TIP3    H229429   2.751   5.469   5.826
 9826TIP3   OH229430   2.220   5.231   6.183
 9826TIP3    H129431   2.269   5.225   6.269
 9826TIP3    H229432   2.169   5.148   6.186
 9827TIP3   OH229433   2.984   5.285   5.436
 9827TIP3    H129434   3.043   5.215   5.401
 9827TIP3    H229435   3.018   5.295   5.527
 9828TIP3   OH229436   3.036   5.333   5.705
 9828TIP3    H129437   2.947   5.343   5.746
 9828TIP3    H229438   3.086   5.295   5.779
 9829TIP3   OH229439   3.806   4.598   6.986
 9829TIP3    H129440   3.722   4.607   6.940
 9829TIP3    H229441   3.823   4.502   6.976
 9830TIP3   OH229442   2.802   3.830   6.799
 9830TIP3    H129443   2.714   3.799   6.768
 9830TIP3    H229444   2.774   3.909   6.849
 9831TIP3   OH229445   3.337   3.944   6.990
 9831TIP3    H129446   3.406   3.917   7.053
 9831TIP3    H229447   3.254   3.925   7.039
 9832TIP3   OH229448   3.574   4.376   6.911
 9832TIP3    H129449   3.522   4.371   6.995
 9832TIP3    H229450   3.548   4.463   6.875
 9833TIP3   OH229451   3.234   4.503   5.465
 9833TIP3    H129452   3.199   4.478   5.377
 9833TIP3    H229453   3.319   4.545   5.440
 9834TIP3   OH229454   2.947   3.881   5.770
 9834TIP3    H129455   2.913   3.874   5.861
 9834TIP3    H229456   2.911   3.798   5.732
 9835TIP3   OH229457   2.727   4.353   6.807
 9835TIP3    H129458   2.679   4.375   6.889
 9835TIP3    H229459   2.719   4.435   6.755
 9836TIP3   OH229460   2.623   4.250   6.329
 9836TIP3    H129461   2.531   4.222   6.349
 9836TIP3    H229462   2.634   4.209   6.241
 9837TIP3   OH229463   3.107   4.319   6.059
 9837TIP3    H129464   3.060   4.390   6.010
 9837TIP3    H229465   3.165   4.282   5.988
 9838TIP3   OH229466   3.283   4.595   7.139
 9838TIP3    H129467   3.260   4.522   7.202
 9838TIP3    H229468   3.376   4.610   7.163
 9839TIP3   OH229469   3.262   4.350   6.286
 9839TIP3    H129470   3.204   4.369   6.209
 9839TIP3    H229471   3.303   4.268   6.251
 9840TIP3   OH229472   2.553   4.375   7.021
 9840TIP3    H129473   2.573   4.446   7.083
 9840TIP3    H229474   2.548   4.297   7.079
 9841TIP3   OH229475   2.602   3.852   5.731
 9841TIP3    H129476   2.593   3.851   5.828
 9841TIP3    H229477   2.524   3.907   5.707
 9842TIP3   OH229478   2.145   3.893   6.605
 9842TIP3    H129479   2.219   3.926   6.659
 9842TIP3    H229480   2.187   3.864   6.523
 9843TIP3   OH229481   2.112   3.876   6.123
 9843TIP3    H129482   2.159   3.912   6.045
 9843TIP3    H229483   2.052   3.951   6.141
 9844TIP3   OH229484   3.267   4.595   6.704
 9844TIP3    H129485   3.303   4.521   6.649
 9844TIP3    H229486   3.241   4.545   6.784
 9845TIP3   OH229487   2.948   4.138   6.426
 9845TIP3    H129488   2.870   4.082   6.446
 9845TIP3    H229489   3.020   4.072   6.440
 9846TIP3   OH229490   2.386   4.116   6.393
 9846TIP3    H129491   2.291   4.122   6.365
 9846TIP3    H229492   2.409   4.024   6.371
 9847TIP3   OH229493   2.642   4.114   6.091
 9847TIP3    H129494   2.736   4.116   6.065
 9847TIP3    H229495   2.595   4.128   6.005
 9848TIP3   OH229496   3.440   4.137   6.596
 9848TIP3    H129497   3.402   4.145   6.687
 9848TIP3    H229498   3.383   4.069   6.557
 9849TIP3   OH229499   2.493   4.143   5.864
 9849TIP3    H129500   2.422   4.095   5.816
 9849TIP3    H229501   2.545   4.178   5.789
 9850TIP3   OH229502   3.610   5.818   6.812
 9850TIP3    H129503   3.607   5.845   6.718
 9850TIP3    H229504   3.689   5.867   6.843
 9851TIP3   OH229505   2.593   4.897   7.245
 9851TIP3    H129506   2.660   4.945   7.298
 9851TIP3    H229507   2.511   4.921   7.290
 9852TIP3   OH229508   2.549   3.869   6.367
 9852TIP3    H129509   2.511   3.793   6.417
 9852TIP3    H229510   2.606   3.822   6.304
 9853TIP3   OH229511   2.996   4.278   6.785
 9853TIP3    H129512   2.909   4.320   6.800
 9853TIP3    H229513   3.059   4.342   6.823
 9854TIP3   OH229514   2.739   4.670   5.872
 9854TIP3    H129515   2.668   4.604   5.861
 9854TIP3    H229516   2.720   4.702   5.964
 9855TIP3   OH229517   3.643   4.910   6.499
 9855TIP3    H129518   3.669   4.961   6.419
 9855TIP3    H229519   3.561   4.865   6.468
 9856TIP3   OH229520   3.194   3.987   5.721
 9856TIP3    H129521   3.101   3.961   5.741
 9856TIP3    H229522   3.202   4.076   5.760
 9857TIP3   OH229523   3.140   4.990   6.867
 9857TIP3    H129524   3.162   4.968   6.958
 9857TIP3    H229525   3.096   5.077   6.876
 9858TIP3   OH229526   3.265   4.230   5.845
 9858TIP3    H129527   3.362   4.231   5.857
 9858TIP3    H229528   3.249   4.309   5.790
 9859TIP3   OH229529   2.434   4.689   6.549
 9859TIP3    H129530   2.474   4.643   6.473
 9859TIP3    H229531   2.456   4.633   6.625
 9860TIP3   OH229532   2.886   4.819   5.695
 9860TIP3    H129533   2.837   4.905   5.697
 9860TIP3    H229534   2.831   4.766   5.757
 9861TIP3   OH229535   2.328   4.608   7.157
 9861TIP3    H129536   2.353   4.608   7.252
 9861TIP3    H229537   2.250   4.550   7.157
 9862TIP3   OH229538   3.040   4.731   7.175
 9862TIP3    H129539   2.976   4.664   7.144
 9862TIP3    H229540   3.125   4.691   7.146
 9863TIP3   OH229541   3.297   5.245   6.767
 9863TIP3    H129542   3.201   5.244   6.783
 9863TIP3    H229543   3.327   5.298   6.843
 9864TIP3   OH229544   3.710   4.321   5.671
 9864TIP3    H129545   3.648   4.276   5.610
 9864TIP3    H229546   3.705   4.411   5.632
 9865TIP3   OH229547   3.929   5.180   6.753
 9865TIP3    H129548   3.831   5.174   6.745
 9865TIP3    H229549   3.954   5.149   6.663
 9866TIP3   OH229550   3.413   5.140   5.583
 9866TIP3    H129551   3.383   5.071   5.643
 9866TIP3    H229552   3.423   5.092   5.498
 9867TIP3   OH229553   3.424   4.775   6.406
 9867TIP3    H129554   3.342   4.751   6.451
 9867TIP3    H229555   3.451   4.690   6.365
 9868TIP3   OH229556   2.535   4.991   6.163
 9868TIP3    H129557   2.532   5.074   6.112
 9868TIP3    H229558   2.444   4.982   6.192
 9869TIP3   OH229559   2.100   4.300   5.878
 9869TIP3    H129560   2.143   4.386   5.899
 9869TIP3    H229561   2.022   4.303   5.939
 9870TIP3   OH229562   2.670   4.753   6.119
 9870TIP3    H129563   2.638   4.844   6.133
 9870TIP3    H229564   2.638   4.707   6.198
 9871TIP3   OH229565   2.808   5.342   6.627
 9871TIP3    H129566   2.856   5.412   6.580
 9871TIP3    H229567   2.878   5.302   6.681
 9872TIP3   OH229568   2.452   5.236   6.022
 9872TIP3    H129569   2.367   5.245   6.071
 9872TIP3    H229570   2.485   5.329   6.026
 9873TIP3   OH229571   3.191   4.959   6.602
 9873TIP3    H129572   3.171   4.967   6.698
 9873TIP3    H229573   3.286   4.942   6.606
 9874TIP3   OH229574   3.169   4.870   5.483
 9874TIP3    H129575   3.221   4.843   5.562
 9874TIP3    H229576   3.081   4.840   5.509
 9875TIP3   OH229577   3.439   5.504   6.648
 9875TIP3    H129578   3.358   5.450   6.642
 9875TIP3    H229579   3.424   5.569   6.577
 9876TIP3   OH229580   3.505   5.340   5.301
 9876TIP3    H129581   3.541   5.414   5.250
 9876TIP3    H229582   3.425   5.383   5.337
 9877TIP3   OH229583   2.528   4.115   7.167
 9877TIP3    H129584   2.433   4.116   7.186
 9877TIP3    H229585   2.563   4.066   7.244
 9878TIP3   OH229586   3.328   4.801   5.701
 9878TIP3    H129587   3.317   4.736   5.772
 9878TIP3    H229588   3.426   4.796   5.688
 9879TIP3   OH229589   2.259   5.186   6.801
 9879TIP3    H129590   2.327   5.117   6.817
 9879TIP3    H229591   2.295   5.257   6.855
 9880TIP3   OH229592   2.531   4.847   5.483
 9880TIP3    H129593   2.544   4.754   5.457
 9880TIP3    H229594   2.511   4.838   5.578
 9881TIP3   OH229595   2.475   4.853   5.754
 9881TIP3    H129596   2.550   4.827   5.811
 9881TIP3    H229597   2.478   4.951   5.762
 9882TIP3   OH229598   2.208   4.546   5.957
 9882TIP3    H129599   2.143   4.591   6.014
 9882TIP3    H229600   2.222   4.615   5.889
 9883TIP3   OH229601   3.362   4.182   6.854
 9883TIP3    H129602   3.443   4.220   6.892
 9883TIP3    H229603   3.349   4.101   6.908
 9884TIP3   OH229604   3.226   3.947   6.017
 9884TIP3    H129605   3.234   3.958   5.921
 9884TIP3    H229606   3.281   4.020   6.052
 9885TIP3   OH229607   2.743   5.048   5.702
 9885TIP3    H129608   2.656   5.072   5.740
 9885TIP3    H229609   2.758   5.125   5.644
 9886TIP3   OH229610   2.926   4.118   6.123
 9886TIP3    H129611   2.995   4.181   6.097
 9886TIP3    H229612   2.946   4.103   6.216
 9887TIP3   OH229613   3.206   4.436   6.918
 9887TIP3    H129614   3.228   4.486   6.999
 9887TIP3    H229615   3.254   4.352   6.931
 9888TIP3   OH229616   3.075   3.865   6.228
 9888TIP3    H129617   3.130   3.901   6.300
 9888TIP3    H229618   3.128   3.890   6.149
 9889TIP3   OH229619   2.489   5.125   5.773
 9889TIP3    H129620   2.458   5.195   5.711
 9889TIP3    H229621   2.472   5.167   5.860
 9890TIP3   OH229622   2.585   3.840   6.007
 9890TIP3    H129623   2.583   3.927   6.050
 9890TIP3    H229624   2.681   3.820   6.015
 9891TIP3   OH229625   3.840   4.331   6.903
 9891TIP3    H129626   3.742   4.332   6.915
 9891TIP3    H229627   3.846   4.279   6.822
 9892TIP3   OH229628   3.490   4.527   6.297
 9892TIP3    H129629   3.418   4.463   6.306
 9892TIP3    H229630   3.564   4.480   6.342
 9893TIP3   OH229631   2.205   4.750   5.762
 9893TIP3    H129632   2.273   4.819   5.773
 9893TIP3    H229633   2.249   4.694   5.695
 9894TIP3   OH229634   2.147   4.030   5.900
 9894TIP3    H129635   2.147   4.128   5.896
 9894TIP3    H229636   2.069   4.009   5.847
 9895TIP3   OH229637   3.461   5.483   6.242
 9895TIP3    H129638   3.418   5.529   6.166
 9895TIP3    H229639   3.555   5.501   6.221
 9896TIP3   OH229640   2.535   3.750   6.769
 9896TIP3    H129641   2.507   3.715   6.682
 9896TIP3    H229642   2.525   3.672   6.827
 9897TIP3   OH229643   2.070   4.963   6.145
 9897TIP3    H129644   2.010   4.995   6.214
 9897TIP3    H229645   2.036   5.009   6.065
 9898TIP3   OH229646   2.233   5.511   7.225
 9898TIP3    H129647   2.322   5.510   7.267
 9898TIP3    H229648   2.215   5.416   7.219
 9899TIP3   OH229649   2.710   5.475   7.269
 9899TIP3    H129650   2.804   5.452   7.271
 9899TIP3    H229651   2.679   5.415   7.198
 9900TIP3   OH229652   2.694   5.050   5.392
 9900TIP3    H129653   2.639   4.978   5.431
 9900TIP3    H229654   2.770   4.998   5.360
 9901TIP3   OH229655   3.354   5.381   6.999
 9901TIP3    H129656   3.345   5.312   7.069
 9901TIP3    H229657   3.430   5.433   7.031
 9902TIP3   OH229658   3.130   5.089   5.307
 9902TIP3    H129659   3.171   5.024   5.367
 9902TIP3    H229660   3.187   5.084   5.228
 9903TIP3   OH229661   2.363   4.929   7.419
 9903TIP3    H129662   2.386   4.835   7.426
 9903TIP3    H229663   2.278   4.926   7.371
 9904TIP3   OH229664   2.340   4.566   5.617
 9904TIP3    H129665   2.396   4.535   5.690
 9904TIP3    H229666   2.406   4.572   5.545
 9905TIP3   OH229667   2.964   5.008   7.189
 9905TIP3    H129668   2.911   5.019   7.108
 9905TIP3    H229669   2.994   4.915   7.183
 9906TIP3   OH229670   2.856   4.768   5.425
 9906TIP3    H129671   2.857   4.778   5.523
 9906TIP3    H229672   2.856   4.670   5.418
 9907TIP3   OH229673   3.460   5.012   6.798
 9907TIP3    H129674   3.537   5.056   6.758
 9907TIP3    H229675   3.392   5.082   6.790
 9908TIP3   OH229676   2.473   4.648   7.403
 9908TIP3    H129677   2.548   4.589   7.385
 9908TIP3    H229678   2.500   4.680   7.492
 9909TIP3   OH229679   2.549   4.471   5.838
 9909TIP3    H129680   2.519   4.424   5.918
 9909TIP3    H229681   2.588   4.398   5.786
 9910TIP3   OH229682   2.822   4.537   7.064
 9910TIP3    H129683   2.741   4.593   7.066
 9910TIP3    H229684   2.870   4.575   6.987
 9911TIP3   OH229685   2.650   4.268   5.677
 9911TIP3    H129686   2.625   4.275   5.582
 9911TIP3    H229687   2.748   4.268   5.670
 9912TIP3   OH229688   3.336   4.939   7.200
 9912TIP3    H129689   3.415   4.906   7.155
 9912TIP3    H229690   3.326   4.875   7.272
 9913TIP3   OH229691   3.468   4.595   5.345
 9913TIP3    H129692   3.449   4.551   5.260
 9913TIP3    H229693   3.434   4.685   5.323
 9914TIP3   OH229694   2.942   4.324   7.185
 9914TIP3    H129695   2.940   4.245   7.127
 9914TIP3    H229696   2.897   4.392   7.130
 9915TIP3   OH229697   2.942   4.107   7.002
 9915TIP3    H129698   2.971   4.152   6.920
 9915TIP3    H229699   2.849   4.086   6.982
 9916TIP3   OH229700   2.959   4.642   6.859
 9916TIP3    H129701   3.047   4.664   6.828
 9916TIP3    H229702   2.904   4.716   6.826
 9917TIP3   OH229703   3.548   4.611   7.249
 9917TIP3    H129704   3.595   4.530   7.272
 9917TIP3    H229705   3.619   4.667   7.216
 9918TIP3   OH229706   3.592   4.867   6.987
 9918TIP3    H129707   3.533   4.921   6.928
 9918TIP3    H229708   3.679   4.889   6.948
 9919TIP3   OH229709   2.826   4.433   7.423
 9919TIP3    H129710   2.746   4.381   7.444
 9919TIP3    H229711   2.850   4.398   7.335
 9920TIP3   OH229712   3.076   3.872   7.070
 9920TIP3    H129713   3.026   3.953   7.047
 9920TIP3    H229714   3.008   3.803   7.058
 9921TIP3   OH229715   3.202   4.376   7.279
 9921TIP3    H129716   3.186   4.362   7.374
 9921TIP3    H229717   3.113   4.353   7.245
 9922TIP3   OH229718   3.439   4.325   7.138
 9922TIP3    H129719   3.365   4.330   7.202
 9922TIP3    H229720   3.513   4.296   7.194
 9923TIP3   OH229721   3.673   4.268   7.282
 9923TIP3    H129722   3.684   4.173   7.302
 9923TIP3    H229723   3.664   4.308   7.372
 9924TIP3   OH229724   2.651   4.213   7.466
 9924TIP3    H129725   2.666   4.120   7.442
 9924TIP3    H229726   2.696   4.217   7.553
 9925TIP3   OH229727   3.168   3.881   7.329
 9925TIP3    H129728   3.236   3.811   7.319
 9925TIP3    H229729   3.128   3.879   7.240
 9926TIP3   OH229730   3.237   4.099   7.484
 9926TIP3    H129731   3.215   4.028   7.421
 9926TIP3    H229732   3.159   4.159   7.476
 9927TIP3   OH229733   2.457   5.328   5.584
 9927TIP3    H129734   2.553   5.319   5.566
 9927TIP3    H229735   2.430   5.380   5.506
 9928TIP3   OH229736   1.935   4.710   5.798
 9928TIP3    H129737   2.030   4.731   5.784
 9928TIP3    H229738   1.929   4.621   5.758
 9929TIP3   OH229739   1.853   5.321   6.217
 9929TIP3    H129740   1.787   5.259   6.178
 9929TIP3    H229741   1.897   5.261   6.282
 9930TIP3   OH229742   1.989   5.167   6.403
 9930TIP3    H129743   1.979   5.097   6.470
 9930TIP3    H229744   2.042   5.230   6.454
 9931TIP3   OH229745   3.716   5.570   6.202
 9931TIP3    H129746   3.740   5.602   6.291
 9931TIP3    H229747   3.779   5.618   6.146
 9932TIP3   OH229748   3.743   5.592   6.483
 9932TIP3    H129749   3.698   5.504   6.480
 9932TIP3    H229750   3.817   5.569   6.542
 9933TIP3   OH229751   3.789   5.269   7.057
 9933TIP3    H129752   3.717   5.279   7.123
 9933TIP3    H229753   3.832   5.357   7.061
 9934TIP3   OH229754   3.606   4.781   5.676
 9934TIP3    H129755   3.672   4.846   5.645
 9934TIP3    H229756   3.651   4.745   5.755
 9935TIP3   OH229757   3.733   4.650   5.881
 9935TIP3    H129758   3.667   4.608   5.940
 9935TIP3    H229759   3.799   4.685   5.945
 9936TIP3   OH229760   3.791   5.044   6.310
 9936TIP3    H129761   3.842   4.976   6.264
 9936TIP3    H229762   3.787   5.116   6.244
 9937TIP3   OH229763   3.617   5.343   6.505
 9937TIP3    H129764   3.546   5.385   6.556
 9937TIP3    H229765   3.568   5.297   6.434
 9938TIP3   OH229766   3.671   4.558   5.525
 9938TIP3    H129767   3.600   4.559   5.457
 9938TIP3    H229768   3.642   4.633   5.580
 9939TIP3   OH229769   3.541   4.229   5.478
 9939TIP3    H129770   3.493   4.257   5.399
 9939TIP3    H229771   3.520   4.133   5.479
 9940TIP3   OH229772   3.545   4.507   6.025
 9940TIP3    H129773   3.554   4.411   6.015
 9940TIP3    H229774   3.532   4.517   6.122
 9941TIP3   OH229775   2.179   4.582   6.777
 9941TIP3    H129776   2.172   4.548   6.685
 9941TIP3    H229777   2.277   4.585   6.787
 9942TIP3   OH229778   3.838   4.933   6.883
 9942TIP3    H129779   3.909   4.865   6.872
 9942TIP3    H229780   3.865   5.001   6.819
 9943TIP3   OH229781   4.021   4.734   6.892
 9943TIP3    H129782   3.946   4.685   6.932
 9943TIP3    H229783   4.094   4.670   6.910
 9944TIP3   OH229784   3.487   3.962   5.469
 9944TIP3    H129785   3.572   3.943   5.516
 9944TIP3    H229786   3.434   3.885   5.495
 9945TIP3   OH229787   3.544   4.221   5.918
 9945TIP3    H129788   3.584   4.132   5.935
 9945TIP3    H229789   3.603   4.250   5.846
 9946TIP3   OH229790   3.704   4.399   6.414
 9946TIP3    H129791   3.791   4.422   6.374
 9946TIP3    H229792   3.720   4.433   6.504
 9947TIP3   OH229793   3.776   4.541   6.646
 9947TIP3    H129794   3.699   4.574   6.696
 9947TIP3    H229795   3.809   4.623   6.602
 9948TIP3   OH229796   2.383   4.256   7.426
 9948TIP3    H129797   2.480   4.265   7.439
 9948TIP3    H229798   2.365   4.179   7.483
 9949TIP3   OH229799   4.228   4.135   7.201
 9949TIP3    H129800   4.287   4.069   7.159
 9949TIP3    H229801   4.196   4.186   7.123
 9950TIP3   OH229802   3.657   3.976   5.961
 9950TIP3    H129803   3.698   3.952   6.046
 9950TIP3    H229804   3.595   3.901   5.949
 9951TIP3   OH229805   2.350   3.958   6.779
 9951TIP3    H129806   2.412   3.882   6.787
 9951TIP3    H229807   2.413   4.032   6.771
 9952TIP3   OH229808   2.153   4.229   6.850
 9952TIP3    H129809   2.204   4.231   6.767
 9952TIP3    H229810   2.173   4.315   6.888
 9953TIP3   OH229811   4.095   4.269   7.005
 9953TIP3    H129812   4.011   4.313   7.027
 9953TIP3    H229813   4.060   4.197   6.948
 9954TIP3   OH229814   3.738   3.932   5.571
 9954TIP3    H129815   3.776   3.847   5.539
 9954TIP3    H229816   3.817   3.988   5.578
 9955TIP3   OH229817   2.139   3.735   6.352
 9955TIP3    H129818   2.046   3.730   6.379
 9955TIP3    H229819   2.135   3.794   6.274
 9956TIP3   OH229820   3.298   5.440   5.857
 9956TIP3    H129821   3.351   5.431   5.775
 9956TIP3    H229822   3.349   5.506   5.906
 9957TIP3   OH229823   2.364   3.815   7.151
 9957TIP3    H129824   2.309   3.815   7.231
 9957TIP3    H229825   2.302   3.854   7.087
 9958TIP3   OH229826   2.396   5.254   7.247
 9958TIP3    H129827   2.313   5.212   7.219
 9958TIP3    H229828   2.410   5.214   7.334
 9959TIP3   OH229829   2.588   5.324   6.810
 9959TIP3    H129830   2.551   5.393   6.752
 9959TIP3    H229831   2.663   5.295   6.756
 9960TIP3   OH229832   3.020   5.518   6.928
 9960TIP3    H129833   3.062   5.519   7.016
 9960TIP3    H229834   3.085   5.571   6.876
 9961TIP3   OH229835   3.199   5.674   6.789
 9961TIP3    H129836   3.271   5.623   6.748
 9961TIP3    H229837   3.250   5.731   6.850
 9962TIP3   OH229838   3.995   4.033   6.886
 9962TIP3    H129839   3.905   4.022   6.852
 9962TIP3    H229840   4.029   3.941   6.877
 9963TIP3   OH229841   2.250   5.537   6.804
 9963TIP3    H129842   2.160   5.574   6.791
 9963TIP3    H229843   2.266   5.559   6.897
 9964TIP3   OH229844   2.488   5.528   6.665
 9964TIP3    H129845   2.399   5.532   6.708
 9964TIP3    H229846   2.467   5.553   6.573
 9965TIP3   OH229847   2.919   5.543   6.466
 9965TIP3    H129848   2.844   5.559   6.405
 9965TIP3    H229849   2.927   5.630   6.510
 9966TIP3   OH229850   3.185   5.475   6.521
 9966TIP3    H129851   3.091   5.496   6.502
 9966TIP3    H229852   3.229   5.551   6.480
 9967TIP3   OH229853   3.390   5.669   6.435
 9967TIP3    H129854   3.376   5.754   6.388
 9967TIP3    H229855   3.417   5.609   6.362
 9968TIP3   OH229856   2.163   5.321   6.564
 9968TIP3    H129857   2.196   5.295   6.652
 9968TIP3    H229858   2.236   5.281   6.510
 9969TIP3   OH229859   2.359   5.204   6.414
 9969TIP3    H129860   2.372   5.116   6.458
 9969TIP3    H229861   2.452   5.236   6.414
 9970TIP3   OH229862   2.627   5.291   6.421
 9970TIP3    H129863   2.655   5.197   6.415
 9970TIP3    H229864   2.678   5.315   6.501
 9971TIP3   OH229865   3.180   3.938   6.476
 9971TIP3    H129866   3.150   3.875   6.544
 9971TIP3    H229867   3.268   3.900   6.452
 9972TIP3   OH229868   3.721   3.851   6.425
 9972TIP3    H129869   3.760   3.883   6.341
 9972TIP3    H229870   3.628   3.840   6.400
 9973TIP3   OH229871   3.823   3.935   6.184
 9973TIP3    H129872   3.890   3.879   6.139
 9973TIP3    H229873   3.855   4.025   6.160
 9974TIP3   OH229874   2.447   3.659   6.521
 9974TIP3    H129875   2.354   3.626   6.524
 9974TIP3    H229876   2.495   3.573   6.517
 9975TIP3   OH229877   2.236   3.528   6.172
 9975TIP3    H129878   2.266   3.583   6.098
 9975TIP3    H229879   2.211   3.595   6.238
 9976TIP3   OH229880   2.882   3.701   6.407
 9976TIP3    H129881   2.940   3.717   6.331
 9976TIP3    H229882   2.937   3.730   6.481
 9977TIP3   OH229883   3.432   3.829   6.383
 9977TIP3    H129884   3.464   3.790   6.299
 9977TIP3    H229885   3.425   3.747   6.437
 9978TIP3   OH229886   3.474   3.771   5.957
 9978TIP3    H129887   3.378   3.774   5.954
 9978TIP3    H229888   3.491   3.693   6.011
 9979TIP3   OH229889   1.953   5.102   5.947
 9979TIP3    H129890   1.867   5.069   5.915
 9979TIP3    H229891   1.944   5.196   5.925
 9980TIP3   OH229892   2.355   3.684   5.932
 9980TIP3    H129893   2.402   3.621   5.875
 9980TIP3    H229894   2.429   3.738   5.967
 9981TIP3   OH229895   2.861   3.862   6.032
 9981TIP3    H129896   2.918   3.802   6.084
 9981TIP3    H229897   2.894   3.949   6.063
 9982TIP3   OH229898   2.724   5.284   5.532
 9982TIP3    H129899   2.812   5.307   5.496
 9982TIP3    H229900   2.702   5.209   5.471
 9983TIP3   OH229901   3.446   5.407   5.625
 9983TIP3    H129902   3.438   5.309   5.616
 9983TIP3    H229903   3.398   5.437   5.545
 9984TIP3   OH229904   2.654   3.930   7.407
 9984TIP3    H129905   2.624   3.858   7.465
 9984TIP3    H229906   2.749   3.935   7.434
 9985TIP3   OH229907   2.903   3.934   7.521
 9985TIP3    H129908   2.993   3.915   7.490
 9985TIP3    H229909   2.891   3.865   7.590
 9986TIP3   OH229910   2.028   5.122   5.585
 9986TIP3    H129911   2.031   5.143   5.680
 9986TIP3    H229912   2.116   5.080   5.571
 9987TIP3   OH229913   3.733   3.997   7.315
 9987TIP3    H129914   3.752   3.967   7.406
 9987TIP3    H229915   3.822   3.993   7.274
 9988TIP3   OH229916   3.668   5.549   6.811
 9988TIP3    H129917   3.590   5.519   6.761
 9988TIP3    H229918   3.649   5.645   6.818
 9989TIP3   OH229919   4.938   4.924   5.573
 9989TIP3    H129920   4.908   5.015   5.554
 9989TIP3    H229921   4.861   4.873   5.544
 9990TIP3   OH229922   4.938   4.921   5.961
 9990TIP3    H129923   4.972   4.898   6.050
 9990TIP3    H229924   4.894   4.838   5.935
 9991TIP3   OH229925   4.233   4.815   6.324
 9991TIP3    H129926   4.262   4.745   6.385
 9991TIP3    H229927   4.312   4.871   6.322
 9992TIP3   OH229928   5.181   5.229   5.640
 9992TIP3    H129929   5.162   5.160   5.705
 9992TIP3    H229930   5.210   5.302   5.697
 9993TIP3   OH229931   4.206   5.228   6.045
 9993TIP3    H129932   4.198   5.130   6.046
 9993TIP3    H229933   4.303   5.238   6.044
 9994TIP3   OH229934   3.915   4.431   5.829
 9994TIP3    H129935   3.863   4.511   5.847
 9994TIP3    H229936   3.846   4.374   5.790
 9995TIP3   OH229937   3.970   4.716   6.010
 9995TIP3    H129938   4.018   4.637   6.043
 9995TIP3    H229939   4.028   4.748   5.940
 9996TIP3   OH229940   4.831   5.688   5.658
 9996TIP3    H129941   4.875   5.615   5.610
 9996TIP3    H229942   4.819   5.649   5.746
 9997TIP3   OH229943   4.733   5.149   6.008
 9997TIP3    H129944   4.774   5.072   5.965
 9997TIP3    H229945   4.816   5.196   6.033
 9998TIP3   OH229946   5.750   4.468   6.006
 9998TIP3    H129947   5.779   4.551   6.049
 9998TIP3    H229948   5.769   4.486   5.913
 9999TIP3   OH229949   5.149   4.649   6.037
 9999TIP3    H129950   5.189   4.563   6.058
 9999TIP3    H229951   5.115   4.631   5.947
10000TIP3   OH229952   4.489   4.309   6.002
10000TIP3    H129953   4.466   4.381   5.940
10000TIP3    H229954   4.440   4.235   5.960
10001TIP3   OH229955   5.181   4.401   5.624
10001TIP3    H129956   5.251   4.384   5.691
10001TIP3    H229957   5.236   4.436   5.551
10002TIP3   OH229958   4.118   4.510   6.110
10002TIP3    H129959   4.201   4.490   6.159
10002TIP3    H229960   4.132   4.453   6.031
10003TIP3   OH229961   4.558   4.708   5.906
10003TIP3    H129962   4.652   4.683   5.919
10003TIP3    H229963   4.519   4.623   5.874
10004TIP3   OH229964   5.823   4.678   6.174
10004TIP3    H129965   5.738   4.723   6.155
10004TIP3    H229966   5.836   4.705   6.266
10005TIP3   OH229967   4.482   4.292   6.439
10005TIP3    H129968   4.421   4.329   6.372
10005TIP3    H229969   4.429   4.308   6.520
10006TIP3   OH229970   4.833   5.150   5.439
10006TIP3    H129971   4.782   5.127   5.360
10006TIP3    H229972   4.784   5.229   5.470
10007TIP3   OH229973   4.589   5.069   6.231
10007TIP3    H129974   4.528   5.136   6.269
10007TIP3    H229975   4.630   5.118   6.157
10008TIP3   OH229976   5.387   4.404   5.801
10008TIP3    H129977   5.368   4.361   5.885
10008TIP3    H229978   5.437   4.483   5.830
10009TIP3   OH229979   4.354   4.407   6.221
10009TIP3    H129980   4.416   4.479   6.247
10009TIP3    H229981   4.403   4.367   6.146
10010TIP3   OH229982   4.417   5.264   6.331
10010TIP3    H129983   4.391   5.352   6.296
10010TIP3    H229984   4.338   5.246   6.386
10011TIP3   OH229985   3.807   4.953   5.566
10011TIP3    H129986   3.767   4.982   5.483
10011TIP3    H229987   3.840   5.038   5.603
10012TIP3   OH229988   5.248   5.469   5.804
10012TIP3    H129989   5.159   5.460   5.846
10012TIP3    H229990   5.239   5.557   5.762
10013TIP3   OH229991   5.541   4.368   6.171
10013TIP3    H129992   5.454   4.394   6.139
10013TIP3    H229993   5.601   4.401   6.101
10014TIP3   OH229994   4.835   4.009   6.156
10014TIP3    H129995   4.818   3.914   6.173
10014TIP3    H229996   4.758   4.049   6.202
10015TIP3   OH229997   4.950   5.512   5.479
10015TIP3    H129998   5.001   5.429   5.462
10015TIP3    H229999   5.013   5.576   5.439
10016TIP3   OH230000   5.097   5.295   5.387
10016TIP3    H130001   5.035   5.223   5.368
10016TIP3    H230002   5.137   5.265   5.471
10017TIP3   OH230003   5.475   5.379   6.152
10017TIP3    H130004   5.462   5.302   6.093
10017TIP3    H230005   5.456   5.454   6.092
10018TIP3   OH230006   4.767   4.774   5.410
10018TIP3    H130007   4.686   4.826   5.391
10018TIP3    H230008   4.810   4.771   5.323
10019TIP3   OH230009   4.725   4.560   5.121
10019TIP3    H130010   4.790   4.612   5.170
10019TIP3    H230011   4.784   4.497   5.074
10020TIP3   OH230012   5.670   5.019   5.996
10020TIP3    H130013   5.586   5.069   6.001
10020TIP3    H230014   5.700   5.044   5.906
10021TIP3   OH230015   5.117   4.859   5.378
10021TIP3    H130016   5.060   4.881   5.455
10021TIP3    H230017   5.200   4.833   5.423
10022TIP3   OH230018   5.348   4.894   6.295
10022TIP3    H130019   5.345   4.978   6.346
10022TIP3    H230020   5.261   4.898   6.250
10023TIP3   OH230021   4.348   4.854   5.797
10023TIP3    H130022   4.306   4.795   5.730
10023TIP3    H230023   4.423   4.799   5.828
10024TIP3   OH230024   4.478   5.268   5.944
10024TIP3    H130025   4.456   5.228   5.859
10024TIP3    H230026   4.567   5.230   5.962
10025TIP3   OH230027   4.484   4.824   6.153
10025TIP3    H130028   4.516   4.801   6.063
10025TIP3    H230029   4.527   4.911   6.169
10026TIP3   OH230030   5.010   5.462   5.928
10026TIP3    H130031   4.996   5.543   5.980
10026TIP3    H230032   4.991   5.391   5.993
10027TIP3   OH230033   4.622   5.380   6.476
10027TIP3    H130034   4.562   5.442   6.522
10027TIP3    H230035   4.557   5.328   6.425
10028TIP3   OH230036   4.954   4.715   5.206
10028TIP3    H130037   5.012   4.776   5.256
10028TIP3    H230038   4.981   4.736   5.114
10029TIP3   OH230039   4.377   4.936   6.579
10029TIP3    H130040   4.381   5.024   6.621
10029TIP3    H230041   4.282   4.915   6.594
10030TIP3   OH230042   4.701   5.389   5.481
10030TIP3    H130043   4.780   5.445   5.494
10030TIP3    H230044   4.638   5.451   5.442
10031TIP3   OH230045   4.415   5.545   6.563
10031TIP3    H130046   4.378   5.550   6.473
10031TIP3    H230047   4.335   5.526   6.617
10032TIP3   OH230048   5.469   3.953   5.256
10032TIP3    H130049   5.388   3.974   5.305
10032TIP3    H230050   5.484   4.037   5.207
10033TIP3   OH230051   4.214   4.697   5.599
10033TIP3    H130052   4.144   4.739   5.546
10033TIP3    H230053   4.177   4.610   5.616
10034TIP3   OH230054   5.256   5.329   4.798
10034TIP3    H130055   5.258   5.427   4.796
10034TIP3    H230056   5.337   5.308   4.750
10035TIP3   OH230057   3.993   5.080   6.510
10035TIP3    H130058   3.926   5.059   6.442
10035TIP3    H230059   4.031   4.993   6.532
10036TIP3   OH230060   3.848   5.274   6.140
10036TIP3    H130061   3.944   5.269   6.134
10036TIP3    H230062   3.836   5.352   6.196
10037TIP3   OH230063   5.714   5.727   6.202
10037TIP3    H130064   5.711   5.631   6.216
10037TIP3    H230065   5.629   5.754   6.245
10038TIP3   OH230066   4.817   5.509   6.333
10038TIP3    H130067   4.815   5.602   6.366
10038TIP3    H230068   4.746   5.469   6.387
10039TIP3   OH230069   4.584   5.641   5.283
10039TIP3    H130070   4.532   5.623   5.202
10039TIP3    H230071   4.547   5.727   5.313
10040TIP3   OH230072   4.018   5.487   5.671
10040TIP3    H130073   4.065   5.479   5.757
10040TIP3    H230074   3.965   5.406   5.671
10041TIP3   OH230075   4.781   5.544   4.923
10041TIP3    H130076   4.840   5.472   4.889
10041TIP3    H230077   4.812   5.552   5.016
10042TIP3   OH230078   4.833   5.588   5.192
10042TIP3    H130079   4.743   5.600   5.231
10042TIP3    H230080   4.880   5.550   5.268
10043TIP3   OH230081   5.601   4.855   6.473
10043TIP3    H130082   5.517   4.866   6.426
10043TIP3    H230083   5.617   4.759   6.463
10044TIP3   OH230084   4.198   5.263   6.494
10044TIP3    H130085   4.246   5.248   6.578
10044TIP3    H230086   4.123   5.200   6.503
10045TIP3   OH230087   4.598   4.087   6.283
10045TIP3    H130088   4.510   4.056   6.254
10045TIP3    H230089   4.570   4.167   6.333
10046TIP3   OH230090   5.132   4.201   6.478
10046TIP3    H130091   5.201   4.173   6.542
10046TIP3    H230092   5.049   4.182   6.525
10047TIP3   OH230093   5.371   4.633   6.398
10047TIP3    H130094   5.318   4.629   6.481
10047TIP3    H230095   5.345   4.719   6.360
10048TIP3   OH230096   5.033   4.759   4.953
10048TIP3    H130097   4.995   4.736   4.866
10048TIP3    H230098   5.116   4.803   4.926
10049TIP3   OH230099   4.744   4.133   5.255
10049TIP3    H130100   4.709   4.130   5.346
10049TIP3    H230101   4.702   4.053   5.218
10050TIP3   OH230102   4.531   4.603   6.302
10050TIP3    H130103   4.479   4.623   6.383
10050TIP3    H230104   4.515   4.684   6.249
10051TIP3   OH230105   4.412   4.489   5.815
10051TIP3    H130106   4.320   4.462   5.834
10051TIP3    H230107   4.424   4.448   5.726
10052TIP3   OH230108   4.905   4.575   5.545
10052TIP3    H130109   4.854   4.646   5.501
10052TIP3    H230110   4.959   4.540   5.471
10053TIP3   OH230111   5.079   4.849   6.627
10053TIP3    H130112   5.056   4.778   6.690
10053TIP3    H230113   5.172   4.865   6.650
10054TIP3   OH230114   5.060   4.601   5.781
10054TIP3    H130115   4.997   4.629   5.711
10054TIP3    H230116   5.095   4.521   5.736
10055TIP3   OH230117   4.349   4.630   6.508
10055TIP3    H130118   4.375   4.694   6.577
10055TIP3    H230119   4.337   4.548   6.560
10056TIP3   OH230120   4.399   4.110   5.219
10056TIP3    H130121   4.388   4.107   5.316
10056TIP3    H230122   4.321   4.163   5.194
10057TIP3   OH230123   3.940   4.159   6.089
10057TIP3    H130124   4.019   4.184   6.140
10057TIP3    H230125   3.975   4.120   6.007
10058TIP3   OH230126   3.922   4.140   5.612
10058TIP3    H130127   3.964   4.175   5.531
10058TIP3    H230128   3.854   4.208   5.628
10059TIP3   OH230129   5.072   4.847   6.202
10059TIP3    H130130   5.105   4.776   6.143
10059TIP3    H230131   5.041   4.792   6.278
10060TIP3   OH230132   4.744   4.310   5.875
10060TIP3    H130133   4.661   4.310   5.926
10060TIP3    H230134   4.811   4.305   5.945
10061TIP3   OH230135   4.175   4.367   5.882
10061TIP3    H130136   4.081   4.376   5.855
10061TIP3    H230137   4.194   4.274   5.862
10062TIP3   OH230138   4.441   4.362   5.574
10062TIP3    H130139   4.534   4.377   5.549
10062TIP3    H230140   4.392   4.382   5.491
10063TIP3   OH230141   5.232   4.386   6.076
10063TIP3    H130142   5.202   4.399   6.169
10063TIP3    H230143   5.163   4.326   6.044
10064TIP3   OH230144   4.290   4.398   5.352
10064TIP3    H130145   4.217   4.352   5.308
10064TIP3    H230146   4.339   4.433   5.275
10065TIP3   OH230147   5.410   6.074   6.297
10065TIP3    H130148   5.404   6.101   6.204
10065TIP3    H230149   5.482   6.131   6.330
10066TIP3   OH230150   4.361   5.186   6.717
10066TIP3    H130151   4.440   5.216   6.766
10066TIP3    H230152   4.296   5.184   6.790
10067TIP3   OH230153   4.822   4.641   5.975
10067TIP3    H130154   4.895   4.599   5.928
10067TIP3    H230155   4.824   4.597   6.062
10068TIP3   OH230156   4.346   4.124   5.857
10068TIP3    H130157   4.305   4.049   5.907
10068TIP3    H230158   4.387   4.077   5.783
10069TIP3   OH230159   4.800   4.541   6.258
10069TIP3    H130160   4.709   4.574   6.276
10069TIP3    H230161   4.855   4.602   6.311
10070TIP3   OH230162   4.537   4.925   5.358
10070TIP3    H130163   4.465   4.859   5.346
10070TIP3    H230164   4.516   4.960   5.449
10071TIP3   OH230165   5.436   5.162   5.985
10071TIP3    H130166   5.458   5.214   5.905
10071TIP3    H230167   5.351   5.119   5.959
10072TIP3   OH230168   4.993   4.238   5.221
10072TIP3    H130169   4.897   4.217   5.232
10072TIP3    H230170   4.999   4.331   5.249
10073TIP3   OH230171   4.936   5.246   6.354
10073TIP3    H130172   4.962   5.226   6.445
10073TIP3    H230173   4.896   5.335   6.363
10074TIP3   OH230174   5.062   4.486   5.327
10074TIP3    H130175   5.158   4.493   5.343
10074TIP3    H230176   5.043   4.567   5.276
10075TIP3   OH230177   4.231   4.952   6.032
10075TIP3    H130178   4.269   4.920   5.948
10075TIP3    H230179   4.270   4.890   6.096
10076TIP3   OH230180   4.681   5.076   5.182
10076TIP3    H130181   4.632   5.161   5.184
10076TIP3    H230182   4.626   5.021   5.242
10077TIP3   OH230183   4.113   4.867   6.647
10077TIP3    H130184   4.129   4.854   6.742
10077TIP3    H230185   4.043   4.802   6.630
10078TIP3   OH230186   4.837   4.985   6.666
10078TIP3    H130187   4.775   4.924   6.623
10078TIP3    H230188   4.923   4.948   6.636
10079TIP3   OH230189   5.094   5.504   6.250
10079TIP3    H130190   4.998   5.503   6.266
10079TIP3    H230191   5.125   5.555   6.328
10080TIP3   OH230192   5.504   4.578   5.159
10080TIP3    H130193   5.442   4.535   5.096
10080TIP3    H230194   5.500   4.669   5.121
10081TIP3   OH230195   5.725   5.436   6.241
10081TIP3    H130196   5.627   5.430   6.232
10081TIP3    H230197   5.751   5.406   6.150
10082TIP3   OH230198   5.216   5.394   5.077
10082TIP3    H130199   5.175   5.337   5.144
10082TIP3    H230200   5.210   5.340   4.996
10083TIP3   OH230201   5.202   5.026   5.901
10083TIP3    H130202   5.109   5.002   5.916
10083TIP3    H230203   5.235   4.944   5.858
10084TIP3   OH230204   4.331   5.254   5.656
10084TIP3    H130205   4.325   5.335   5.603
10084TIP3    H230206   4.238   5.235   5.674
10085TIP3   OH230207   3.895   4.557   5.365
10085TIP3    H130208   3.939   4.642   5.387
10085TIP3    H230209   3.818   4.560   5.426
10086TIP3   OH230210   4.466   5.017   5.601
10086TIP3    H130211   4.430   5.106   5.620
10086TIP3    H230212   4.430   4.966   5.675
10087TIP3   OH230213   4.601   5.596   6.126
10087TIP3    H130214   4.644   5.669   6.078
10087TIP3    H230215   4.676   5.559   6.176
10088TIP3   OH230216   4.248   5.493   5.509
10088TIP3    H130217   4.163   5.501   5.557
10088TIP3    H230218   4.280   5.586   5.512
10089TIP3   OH230219   4.985   5.229   6.087
10089TIP3    H130220   4.973   5.229   6.185
10089TIP3    H230221   5.066   5.177   6.078
10090TIP3   OH230222   4.962   5.129   4.967
10090TIP3    H130223   5.015   5.100   5.045
10090TIP3    H230224   4.874   5.097   4.992
10091TIP3   OH230225   5.236   5.760   6.135
10091TIP3    H130226   5.155   5.705   6.130
10091TIP3    H230227   5.219   5.825   6.064
10092TIP3   OH230228   5.298   5.604   4.784
10092TIP3    H130229   5.333   5.681   4.737
10092TIP3    H230230   5.218   5.645   4.825
10093TIP3   OH230231   4.319   4.374   6.652
10093TIP3    H130232   4.222   4.377   6.664
10093TIP3    H230233   4.346   4.317   6.726
10094TIP3   OH230234   5.125   5.052   5.176
10094TIP3    H130235   5.112   4.992   5.253
10094TIP3    H230236   5.223   5.053   5.172
10095TIP3   OH230237   4.039   5.456   6.285
10095TIP3    H130238   4.093   5.385   6.322
10095TIP3    H230239   4.061   5.530   6.342
10096TIP3   OH230240   4.329   5.104   4.970
10096TIP3    H130241   4.339   5.010   4.943
10096TIP3    H230242   4.308   5.094   5.065
10097TIP3   OH230243   4.272   5.110   5.241
10097TIP3    H130244   4.343   5.082   5.300
10097TIP3    H230245   4.276   5.208   5.249
10098TIP3   OH230246   4.006   4.802   5.446
10098TIP3    H130247   3.939   4.846   5.503
10098TIP3    H230248   4.018   4.870   5.377
10099TIP3   OH230249   5.163   4.436   6.336
10099TIP3    H130250   5.241   4.475   6.380
10099TIP3    H230251   5.147   4.356   6.391
10100TIP3   OH230252   5.044   4.185   5.505
10100TIP3    H130253   5.027   4.209   5.412
10100TIP3    H230254   5.080   4.269   5.541
10101TIP3   OH230255   4.541   5.306   5.189
10101TIP3    H130256   4.453   5.328   5.227
10101TIP3    H230257   4.552   5.382   5.130
10102TIP3   OH230258   4.728   4.371   5.606
10102TIP3    H130259   4.790   4.445   5.591
10102TIP3    H230260   4.731   4.362   5.703
10103TIP3   OH230261   4.998   4.687   6.410
10103TIP3    H130262   5.021   4.741   6.489
10103TIP3    H230263   5.050   4.606   6.425
10104TIP3   OH230264   4.869   4.093   5.706
10104TIP3    H130265   4.861   4.171   5.763
10104TIP3    H230266   4.931   4.126   5.638
10105TIP3   OH230267   4.287   5.382   5.260
10105TIP3    H130268   4.255   5.451   5.198
10105TIP3    H230269   4.269   5.423   5.347
10106TIP3   OH230270   4.385   4.097   5.495
10106TIP3    H130271   4.381   4.186   5.535
10106TIP3    H230272   4.481   4.080   5.504
10107TIP3   OH230273   5.637   4.588   6.393
10107TIP3    H130274   5.539   4.588   6.403
10107TIP3    H230275   5.645   4.541   6.309
10108TIP3   OH230276   5.288   4.782   5.780
10108TIP3    H130277   5.211   4.723   5.794
10108TIP3    H230278   5.358   4.734   5.829
10109TIP3   OH230279   4.001   5.007   5.249
10109TIP3    H130280   4.070   5.075   5.259
10109TIP3    H230281   4.045   4.950   5.182
10110TIP3   OH230282   3.945   4.287   5.381
10110TIP3    H130283   3.943   4.385   5.380
10110TIP3    H230284   3.858   4.266   5.345
10111TIP3   OH230285   5.257   5.739   5.728
10111TIP3    H130286   5.215   5.785   5.652
10111TIP3    H230287   5.352   5.759   5.708
10112TIP3   OH230288   4.334   4.007   6.254
10112TIP3    H130289   4.302   3.971   6.168
10112TIP3    H230290   4.323   3.929   6.313
10113TIP3   OH230291   3.868   5.223   5.632
10113TIP3    H130292   3.806   5.253   5.700
10113TIP3    H230293   3.832   5.267   5.552
10114TIP3   OH230294   4.030   5.772   6.709
10114TIP3    H130295   4.117   5.773   6.756
10114TIP3    H230296   4.011   5.677   6.709
10115TIP3   OH230297   4.504   5.729   6.754
10115TIP3    H130298   4.600   5.718   6.762
10115TIP3    H230299   4.483   5.666   6.682
10116TIP3   OH230300   4.491   5.306   4.879
10116TIP3    H130301   4.434   5.235   4.918
10116TIP3    H230302   4.565   5.252   4.847
10117TIP3   OH230303   5.153   5.635   6.484
10117TIP3    H130304   5.142   5.569   6.556
10117TIP3    H230305   5.225   5.691   6.518
10118TIP3   OH230306   4.927   5.346   4.797
10118TIP3    H130307   4.960   5.274   4.855
10118TIP3    H230308   4.982   5.336   4.717
10119TIP3   OH230309   4.159   5.175   6.909
10119TIP3    H130310   4.174   5.079   6.917
10119TIP3    H230311   4.072   5.177   6.864
10120TIP3   OH230312   4.137   4.823   5.104
10120TIP3    H130313   4.192   4.791   5.178
10120TIP3    H230314   4.204   4.828   5.033
10121TIP3   OH230315   4.766   5.261   6.683
10121TIP3    H130316   4.724   5.281   6.597
10121TIP3    H230317   4.795   5.168   6.672
10122TIP3   OH230318   4.656   5.025   4.912
10122TIP3    H130319   4.653   5.035   5.010
10122TIP3    H230320   4.654   4.927   4.905
10123TIP3   OH230321   5.258   5.270   6.291
10123TIP3    H130322   5.334   5.314   6.248
10123TIP3    H230323   5.188   5.336   6.276
10124TIP3   OH230324   4.279   4.912   6.893
10124TIP3    H130325   4.354   4.855   6.869
10124TIP3    H230326   4.308   4.944   6.981
10125TIP3   OH230327   4.345   4.730   5.325
10125TIP3    H130328   4.314   4.690   5.408
10125TIP3    H230329   4.380   4.652   5.276
10126TIP3   OH230330   4.615   4.794   6.554
10126TIP3    H130331   4.535   4.851   6.552
10126TIP3    H230332   4.666   4.829   6.478
10127TIP3   OH230333   4.445   4.524   5.163
10127TIP3    H130334   4.420   4.531   5.069
10127TIP3    H230335   4.543   4.525   5.156
10128TIP3   OH230336   5.131   5.195   6.687
10128TIP3    H130337   5.208   5.163   6.639
10128TIP3    H230338   5.123   5.130   6.759
10129TIP3   OH230339   5.267   4.852   4.830
10129TIP3    H130340   5.246   4.807   4.746
10129TIP3    H230341   5.231   4.942   4.810
10130TIP3   OH230342   4.739   4.583   6.676
10130TIP3    H130343   4.737   4.504   6.619
10130TIP3    H230344   4.693   4.650   6.620
10131TIP3   OH230345   4.740   4.369   6.486
10131TIP3    H130346   4.767   4.409   6.402
10131TIP3    H230347   4.646   4.346   6.469
10132TIP3   OH230348   4.763   4.901   6.360
10132TIP3    H130349   4.848   4.915   6.318
10132TIP3    H230350   4.706   4.967   6.314
10133TIP3   OH230351   5.345   4.868   6.738
10133TIP3    H130352   5.394   4.785   6.752
10133TIP3    H230353   5.414   4.926   6.703
10134TIP3   OH230354   5.388   5.124   6.477
10134TIP3    H130355   5.330   5.178   6.418
10134TIP3    H230356   5.476   5.145   6.437
10135TIP3   OH230357   4.617   4.688   6.912
10135TIP3    H130358   4.548   4.620   6.927
10135TIP3    H230359   4.649   4.664   6.823
10136TIP3   OH230360   4.871   4.130   6.555
10136TIP3    H130361   4.820   4.211   6.532
10136TIP3    H230362   4.802   4.060   6.544
10137TIP3   OH230363   4.998   4.632   6.771
10137TIP3    H130364   4.982   4.618   6.866
10137TIP3    H230365   4.909   4.610   6.737
10138TIP3   OH230366   5.235   4.583   6.625
10138TIP3    H130367   5.161   4.586   6.689
10138TIP3    H230368   5.310   4.553   6.682
10139TIP3   OH230369   5.468   4.527   6.773
10139TIP3    H130370   5.479   4.431   6.790
10139TIP3    H230371   5.462   4.563   6.864
10140TIP3   OH230372   4.455   4.470   6.965
10140TIP3    H130373   4.457   4.377   6.933
10140TIP3    H230374   4.492   4.458   7.055
10141TIP3   OH230375   4.966   4.141   6.813
10141TIP3    H130376   5.031   4.068   6.807
10141TIP3    H230377   4.925   4.136   6.724
10142TIP3   OH230378   5.033   4.357   6.971
10142TIP3    H130379   5.012   4.285   6.907
10142TIP3    H230380   4.953   4.413   6.965
10143TIP3   OH230381   4.254   5.586   5.072
10143TIP3    H130382   4.349   5.577   5.052
10143TIP3    H230383   4.225   5.636   4.994
10144TIP3   OH230384   3.732   4.967   5.285
10144TIP3    H130385   3.827   4.987   5.271
10144TIP3    H230386   3.725   4.878   5.245
10145TIP3   OH230387   3.651   5.578   5.701
10145TIP3    H130388   3.584   5.518   5.663
10145TIP3    H230389   3.694   5.519   5.766
10146TIP3   OH230390   3.784   5.425   5.888
10146TIP3    H130391   3.770   5.355   5.955
10146TIP3    H230392   3.836   5.488   5.941
10147TIP3   OH230393   5.512   5.829   5.688
10147TIP3    H130394   5.533   5.860   5.778
10147TIP3    H230395   5.575   5.879   5.635
10148TIP3   OH230396   5.535   5.848   5.969
10148TIP3    H130397   5.494   5.759   5.969
10148TIP3    H230398   5.614   5.830   6.023
10149TIP3   OH230399   5.586   5.523   6.545
10149TIP3    H130400   5.512   5.534   6.608
10149TIP3    H230401   5.628   5.612   6.549
10150TIP3   OH230402   5.410   5.040   5.168
10150TIP3    H130403   5.486   5.098   5.158
10150TIP3    H230404   5.438   4.989   5.248
10151TIP3   OH230405   5.528   4.904   5.369
10151TIP3    H130406   5.463   4.862   5.430
10151TIP3    H230407   5.595   4.940   5.430
10152TIP3   OH230408   5.587   5.301   5.798
10152TIP3    H130409   5.639   5.233   5.751
10152TIP3    H230410   5.580   5.372   5.732
10153TIP3   OH230411   5.413   5.598   5.993
10153TIP3    H130412   5.342   5.642   6.044
10153TIP3    H230413   5.363   5.553   5.922
10154TIP3   OH230414   5.467   4.814   5.013
10154TIP3    H130415   5.396   4.815   4.945
10154TIP3    H230416   5.439   4.891   5.066
10155TIP3   OH230417   5.341   4.486   4.961
10155TIP3    H130418   5.290   4.520   4.887
10155TIP3    H230419   5.318   4.391   4.957
10156TIP3   OH230420   5.343   4.764   5.512
10156TIP3    H130421   5.349   4.667   5.504
10156TIP3    H230422   5.328   4.776   5.608
10157TIP3   OH230423   3.968   4.837   6.261
10157TIP3    H130424   3.965   4.803   6.168
10157TIP3    H230425   4.065   4.838   6.276
10158TIP3   OH230426   5.634   5.189   6.370
10158TIP3    H130427   5.705   5.122   6.359
10158TIP3    H230428   5.658   5.257   6.306
10159TIP3   OH230429   5.817   4.990   6.379
10159TIP3    H130430   5.742   4.941   6.420
10159TIP3    H230431   5.890   4.926   6.397
10160TIP3   OH230432   5.282   4.220   4.948
10160TIP3    H130433   5.353   4.189   5.008
10160TIP3    H230434   5.206   4.163   4.970
10161TIP3   OH230435   5.341   4.480   5.405
10161TIP3    H130436   5.380   4.391   5.421
10161TIP3    H230437   5.399   4.511   5.334
10162TIP3   OH230438   5.500   4.649   5.902
10162TIP3    H130439   5.586   4.675   5.861
10162TIP3    H230440   5.513   4.688   5.991
10163TIP3   OH230441   5.571   4.797   6.131
10163TIP3    H130442   5.494   4.830   6.181
10163TIP3    H230443   5.604   4.879   6.088
10164TIP3   OH230444   4.189   4.523   6.938
10164TIP3    H130445   4.286   4.516   6.939
10164TIP3    H230446   4.164   4.436   6.973
10165TIP3   OH230447   6.026   4.393   6.689
10165TIP3    H130448   6.085   4.326   6.646
10165TIP3    H230449   5.993   4.442   6.611
10166TIP3   OH230450   5.449   4.230   5.443
10166TIP3    H130451   5.496   4.214   5.527
10166TIP3    H230452   5.387   4.154   5.443
10167TIP3   OH230453   4.149   4.215   6.264
10167TIP3    H130454   4.210   4.139   6.273
10167TIP3    H230455   4.212   4.288   6.256
10168TIP3   OH230456   3.951   4.488   6.336
10168TIP3    H130457   4.000   4.484   6.251
10168TIP3    H230458   3.982   4.572   6.372
10169TIP3   OH230459   5.890   4.524   6.493
10169TIP3    H130460   5.806   4.570   6.514
10169TIP3    H230461   5.856   4.453   6.436
10170TIP3   OH230462   5.527   4.162   5.079
10170TIP3    H130463   5.567   4.092   5.024
10170TIP3    H230464   5.595   4.232   5.076
10171TIP3   OH230465   3.934   3.999   5.844
10171TIP3    H130466   3.840   3.987   5.866
10171TIP3    H230467   3.928   4.055   5.764
10172TIP3   OH230468   5.096   5.695   5.342
10172TIP3    H130469   5.152   5.691   5.262
10172TIP3    H230470   5.140   5.762   5.396
10173TIP3   OH230471   4.156   4.073   6.652
10173TIP3    H130472   4.104   4.067   6.734
10173TIP3    H230473   4.090   4.110   6.591
10174TIP3   OH230474   4.195   5.501   6.727
10174TIP3    H130475   4.101   5.476   6.712
10174TIP3    H230476   4.206   5.483   6.821
10175TIP3   OH230477   4.374   5.534   6.275
10175TIP3    H130478   4.326   5.611   6.236
10175TIP3    H230479   4.460   5.549   6.231
10176TIP3   OH230480   4.814   5.777   6.411
10176TIP3    H130481   4.855   5.776   6.501
10176TIP3    H230482   4.881   5.830   6.362
10177TIP3   OH230483   4.995   5.930   6.273
10177TIP3    H130484   5.067   5.879   6.234
10177TIP3    H230485   5.045   5.987   6.335
10178TIP3   OH230486   5.792   4.289   6.373
10178TIP3    H130487   5.701   4.279   6.339
10178TIP3    H230488   5.825   4.197   6.364
10179TIP3   OH230489   4.048   5.790   6.301
10179TIP3    H130490   3.957   5.822   6.279
10179TIP3    H230491   4.062   5.834   6.386
10180TIP3   OH230492   4.285   5.769   6.160
10180TIP3    H130493   4.198   5.781   6.203
10180TIP3    H230494   4.266   5.801   6.069
10181TIP3   OH230495   4.712   5.796   5.956
10181TIP3    H130496   4.639   5.815   5.893
10181TIP3    H230497   4.722   5.884   5.999
10182TIP3   OH230498   4.981   5.733   6.008
10182TIP3    H130499   4.887   5.753   5.989
10182TIP3    H230500   5.026   5.809   5.968
10183TIP3   OH230501   5.184   5.924   5.922
10183TIP3    H130502   5.171   6.009   5.874
10183TIP3    H230503   5.212   5.865   5.850
10184TIP3   OH230504   3.961   5.583   6.044
10184TIP3    H130505   3.986   5.556   6.135
10184TIP3    H230506   4.033   5.538   5.994
10185TIP3   OH230507   4.156   5.455   5.904
10185TIP3    H130508   4.170   5.371   5.954
10185TIP3    H230509   4.248   5.490   5.900
10186TIP3   OH230510   4.424   5.547   5.908
10186TIP3    H130511   4.453   5.455   5.899
10186TIP3    H230512   4.470   5.571   5.991
10187TIP3   OH230513   4.997   4.204   5.995
10187TIP3    H130514   4.952   4.135   6.047
10187TIP3    H230515   5.070   4.156   5.953
10188TIP3   OH230516   5.518   4.084   5.895
10188TIP3    H130517   5.553   4.138   5.821
10188TIP3    H230518   5.422   4.103   5.890
10189TIP3   OH230519   5.614   4.185   5.659
10189TIP3    H130520   5.689   4.134   5.622
10189TIP3    H230521   5.646   4.277   5.646
10190TIP3   OH230522   4.244   3.914   6.007
10190TIP3    H130523   4.151   3.882   6.011
10190TIP3    H230524   4.290   3.828   6.002
10191TIP3   OH230525   4.047   3.785   5.668
10191TIP3    H130526   4.054   3.836   5.586
10191TIP3    H230527   4.012   3.851   5.731
10192TIP3   OH230528   4.692   3.943   5.889
10192TIP3    H130529   4.749   3.994   5.829
10192TIP3    H230530   4.710   3.985   5.974
10193TIP3   OH230531   5.235   4.094   5.871
10193TIP3    H130532   5.233   4.052   5.785
10193TIP3    H230533   5.223   4.016   5.931
10194TIP3   OH230534   5.265   4.018   5.436
10194TIP3    H130535   5.179   4.062   5.453
10194TIP3    H230536   5.251   3.932   5.481
10195TIP3   OH230537   3.749   5.358   5.432
10195TIP3    H130538   3.663   5.325   5.402
10195TIP3    H230539   3.739   5.452   5.411
10196TIP3   OH230540   4.150   3.951   5.412
10196TIP3    H130541   4.196   3.882   5.361
10196TIP3    H230542   4.225   3.999   5.453
10197TIP3   OH230543   4.662   4.121   5.517
10197TIP3    H130544   4.719   4.072   5.580
10197TIP3    H230545   4.684   4.213   5.544
10198TIP3   OH230546   4.520   5.540   5.017
10198TIP3    H130547   4.608   5.565   4.981
10198TIP3    H230548   4.498   5.466   4.957
10199TIP3   OH230549   5.247   5.663   5.110
10199TIP3    H130550   5.239   5.565   5.104
10199TIP3    H230551   5.191   5.691   5.034
10200TIP3   OH230552   4.452   4.197   6.901
10200TIP3    H130553   4.415   4.126   6.956
10200TIP3    H230554   4.546   4.195   6.930
10201TIP3   OH230555   4.703   4.192   7.020
10201TIP3    H130556   4.788   4.164   6.981
10201TIP3    H230557   4.689   4.122   7.087
10202TIP3   OH230558   3.824   5.380   5.072
10202TIP3    H130559   3.824   5.400   5.167
10202TIP3    H230560   3.912   5.337   5.059
10203TIP3   OH230561   5.529   4.255   6.806
10203TIP3    H130562   5.545   4.223   6.898
10203TIP3    H230563   5.618   4.248   6.767
10204TIP3   OH230564   5.465   5.805   6.298
10204TIP3    H130565   5.386   5.775   6.247
10204TIP3    H230566   5.447   5.901   6.304
10205TIP3   OH230567   6.726   5.178   5.060
10205TIP3    H130568   6.701   5.271   5.039
10205TIP3    H230569   6.645   5.132   5.035
10206TIP3   OH230570   6.722   5.185   5.453
10206TIP3    H130571   6.766   5.162   5.538
10206TIP3    H230572   6.688   5.099   5.424
10207TIP3   OH230573   6.029   5.072   5.811
10207TIP3    H130574   6.059   5.002   5.873
10207TIP3    H230575   6.107   5.130   5.811
10208TIP3   OH230576   6.979   5.496   5.119
10208TIP3    H130577   6.962   5.419   5.175
10208TIP3    H230578   7.009   5.563   5.184
10209TIP3   OH230579   5.999   5.484   5.525
10209TIP3    H130580   5.993   5.386   5.532
10209TIP3    H230581   6.095   5.496   5.534
10210TIP3   OH230582   5.710   4.684   5.315
10210TIP3    H130583   5.664   4.767   5.336
10210TIP3    H230584   5.637   4.632   5.277
10211TIP3   OH230585   5.767   4.972   5.492
10211TIP3    H130586   5.814   4.893   5.528
10211TIP3    H230587   5.834   5.011   5.435
10212TIP3   OH230588   6.626   5.938   5.135
10212TIP3    H130589   6.691   5.868   5.126
10212TIP3    H230590   6.597   5.929   5.227
10213TIP3   OH230591   6.525   5.405   5.497
10213TIP3    H130592   6.579   5.333   5.459
10213TIP3    H230593   6.594   5.464   5.531
10214TIP3   OH230594   7.545   4.731   5.495
10214TIP3    H130595   7.578   4.815   5.533
10214TIP3    H230596   7.569   4.743   5.401
10215TIP3   OH230597   6.944   4.903   5.524
10215TIP3    H130598   6.987   4.819   5.545
10215TIP3    H230599   6.912   4.886   5.434
10216TIP3   OH230600   6.284   4.565   5.490
10216TIP3    H130601   6.263   4.638   5.428
10216TIP3    H230602   6.235   4.492   5.447
10217TIP3   OH230603   6.977   4.656   5.111
10217TIP3    H130604   7.047   4.641   5.179
10217TIP3    H230605   7.032   4.692   5.038
10218TIP3   OH230606   5.914   4.767   5.597
10218TIP3    H130607   5.996   4.749   5.647
10218TIP3    H230608   5.930   4.711   5.518
10219TIP3   OH230609   6.354   4.964   5.395
10219TIP3    H130610   6.449   4.940   5.406
10219TIP3    H230611   6.317   4.879   5.361
10220TIP3   OH230612   7.625   4.936   5.671
10220TIP3    H130613   7.540   4.981   5.655
10220TIP3    H230614   7.612   4.907   5.763
10221TIP3   OH230615   6.277   4.549   5.926
10221TIP3    H130616   6.217   4.586   5.858
10221TIP3    H230617   6.225   4.565   6.007
10222TIP3   OH230618   6.387   5.324   5.719
10222TIP3    H130619   6.324   5.393   5.753
10222TIP3    H230620   6.424   5.370   5.640
10223TIP3   OH230621   7.181   4.661   5.289
10223TIP3    H130622   7.165   4.621   5.375
10223TIP3    H230623   7.234   4.740   5.313
10224TIP3   OH230624   6.149   4.664   5.709
10224TIP3    H130625   6.210   4.737   5.734
10224TIP3    H230626   6.199   4.624   5.634
10225TIP3   OH230627   6.209   5.513   5.806
10225TIP3    H130628   6.196   5.607   5.784
10225TIP3    H230629   6.134   5.501   5.868
10226TIP3   OH230630   5.618   5.219   5.031
10226TIP3    H130631   5.525   5.241   5.021
10226TIP3    H230632   5.650   5.301   5.076
10227TIP3   OH230633   7.023   5.714   5.290
10227TIP3    H130634   6.946   5.722   5.346
10227TIP3    H230635   7.030   5.803   5.249
10228TIP3   OH230636   7.338   4.625   5.659
10228TIP3    H130637   7.251   4.651   5.624
10228TIP3    H230638   7.399   4.659   5.590
10229TIP3   OH230639   6.631   4.265   5.642
10229TIP3    H130640   6.614   4.171   5.660
10229TIP3    H230641   6.554   4.305   5.688
10230TIP3   OH230642   6.813   5.787   4.930
10230TIP3    H130643   6.786   5.706   4.976
10230TIP3    H230644   6.727   5.826   4.910
10231TIP3   OH230645   6.918   5.539   4.864
10231TIP3    H130646   6.831   5.492   4.852
10231TIP3    H230647   6.936   5.511   4.956
10232TIP3   OH230648   7.211   5.620   5.651
10232TIP3    H130649   7.248   5.551   5.594
10232TIP3    H230650   7.241   5.701   5.607
10233TIP3   OH230651   6.556   5.019   4.891
10233TIP3    H130652   6.479   5.078   4.876
10233TIP3    H230653   6.613   5.041   4.815
10234TIP3   OH230654   6.521   4.812   4.602
10234TIP3    H130655   6.569   4.865   4.668
10234TIP3    H230656   6.595   4.764   4.560
10235TIP3   OH230657   7.458   5.257   5.469
10235TIP3    H130658   7.373   5.307   5.471
10235TIP3    H230659   7.489   5.284   5.379
10236TIP3   OH230660   6.908   5.115   4.864
10236TIP3    H130661   6.852   5.141   4.941
10236TIP3    H230662   6.992   5.093   4.910
10237TIP3   OH230663   7.135   5.135   5.763
10237TIP3    H130664   7.135   5.211   5.826
10237TIP3    H230665   7.054   5.156   5.713
10238TIP3   OH230666   6.138   5.105   5.290
10238TIP3    H130667   6.101   5.046   5.222
10238TIP3    H230668   6.216   5.054   5.321
10239TIP3   OH230669   6.273   5.526   5.429
10239TIP3    H130670   6.251   5.488   5.343
10239TIP3    H230671   6.360   5.484   5.448
10240TIP3   OH230672   6.279   5.083   5.639
10240TIP3    H130673   6.313   5.058   5.550
10240TIP3    H230674   6.323   5.169   5.656
10241TIP3   OH230675   6.756   4.969   4.691
10241TIP3    H130676   6.812   5.032   4.742
10241TIP3    H230677   6.780   4.993   4.599
10242TIP3   OH230678   6.173   5.191   6.068
10242TIP3    H130679   6.178   5.280   6.108
10242TIP3    H230680   6.078   5.171   6.081
10243TIP3   OH230681   6.207   5.807   6.048
10243TIP3    H130682   6.183   5.795   5.955
10243TIP3    H230683   6.128   5.776   6.096
10244TIP3   OH230684   7.266   4.211   4.742
10244TIP3    H130685   7.185   4.235   4.791
10244TIP3    H230686   7.282   4.294   4.692
10245TIP3   OH230687   6.012   4.944   5.089
10245TIP3    H130688   5.937   4.980   5.037
10245TIP3    H230689   5.979   4.856   5.113
10246TIP3   OH230690   7.066   5.583   4.316
10246TIP3    H130691   7.073   5.677   4.287
10246TIP3    H230692   7.156   5.551   4.297
10247TIP3   OH230693   5.790   5.337   5.997
10247TIP3    H130694   5.722   5.317   5.930
10247TIP3    H230695   5.827   5.249   6.018
10248TIP3   OH230696   5.645   5.535   5.622
10248TIP3    H130697   5.741   5.527   5.621
10248TIP3    H230698   5.633   5.610   5.682
10249TIP3   OH230699   6.389   5.918   4.749
10249TIP3    H130700   6.331   5.897   4.674
10249TIP3    H230701   6.347   5.996   4.790
10250TIP3   OH230702   5.802   5.739   5.167
10250TIP3    H130703   5.870   5.733   5.237
10250TIP3    H230704   5.729   5.696   5.215
10251TIP3   OH230705   6.576   5.795   4.416
10251TIP3    H130706   6.632   5.727   4.372
10251TIP3    H230707   6.623   5.807   4.500
10252TIP3   OH230708   6.635   5.825   4.710
10252TIP3    H130709   6.548   5.867   4.731
10252TIP3    H230710   6.615   5.733   4.734
10253TIP3   OH230711   7.383   5.106   5.934
10253TIP3    H130712   7.312   5.123   5.871
10253TIP3    H230713   7.416   5.020   5.901
10254TIP3   OH230714   5.995   5.520   5.979
10254TIP3    H130715   6.044   5.508   6.063
10254TIP3    H230716   5.921   5.457   5.989
10255TIP3   OH230717   6.394   4.343   5.771
10255TIP3    H130718   6.305   4.313   5.742
10255TIP3    H230719   6.368   4.424   5.819
10256TIP3   OH230720   6.930   4.457   5.965
10256TIP3    H130721   6.999   4.428   6.029
10256TIP3    H230722   6.846   4.438   6.013
10257TIP3   OH230723   7.152   4.882   5.878
10257TIP3    H130724   7.103   4.884   5.963
10257TIP3    H230725   7.132   4.969   5.839
10258TIP3   OH230726   6.821   5.014   4.433
10258TIP3    H130727   6.792   4.991   4.342
10258TIP3    H230728   6.906   5.059   4.414
10259TIP3   OH230729   6.515   4.382   4.720
10259TIP3    H130730   6.476   4.398   4.809
10259TIP3    H230731   6.561   4.299   4.737
10260TIP3   OH230732   6.326   4.861   5.788
10260TIP3    H130733   6.276   4.881   5.869
10260TIP3    H230734   6.309   4.942   5.735
10261TIP3   OH230735   6.210   4.745   5.301
10261TIP3    H130736   6.117   4.718   5.322
10261TIP3    H230737   6.221   4.702   5.214
10262TIP3   OH230738   6.699   4.828   5.028
10262TIP3    H130739   6.647   4.899   4.985
10262TIP3    H230740   6.757   4.799   4.955
10263TIP3   OH230741   6.875   5.100   6.110
10263TIP3    H130742   6.843   5.031   6.172
10263TIP3    H230743   6.969   5.100   6.134
10264TIP3   OH230744   6.854   4.855   5.269
10264TIP3    H130745   6.794   4.888   5.199
10264TIP3    H230746   6.888   4.776   5.222
10265TIP3   OH230747   6.145   4.887   5.995
10265TIP3    H130748   6.172   4.952   6.062
10265TIP3    H230749   6.134   4.806   6.048
10266TIP3   OH230750   5.739   4.408   5.575
10266TIP3    H130751   5.812   4.441   5.631
10266TIP3    H230752   5.783   4.377   5.495
10267TIP3   OH230753   5.706   4.390   5.094
10267TIP3    H130754   5.754   4.426   5.017
10267TIP3    H230755   5.645   4.464   5.113
10268TIP3   OH230756   6.846   5.096   5.683
10268TIP3    H130757   6.890   5.028   5.628
10268TIP3    H230758   6.826   5.043   5.763
10269TIP3   OH230759   6.538   4.564   5.360
10269TIP3    H130760   6.457   4.565   5.414
10269TIP3    H230761   6.608   4.564   5.428
10270TIP3   OH230762   5.971   4.625   5.369
10270TIP3    H130763   5.877   4.632   5.342
10270TIP3    H230764   5.993   4.532   5.349
10271TIP3   OH230765   6.237   4.616   5.061
10271TIP3    H130766   6.331   4.634   5.040
10271TIP3    H230767   6.190   4.639   4.977
10272TIP3   OH230768   7.030   4.641   5.563
10272TIP3    H130769   6.998   4.655   5.656
10272TIP3    H230770   6.960   4.583   5.530
10273TIP3   OH230771   6.086   4.655   4.839
10273TIP3    H130772   6.018   4.601   4.797
10273TIP3    H230773   6.135   4.688   4.761
10274TIP3   OH230774   6.156   5.442   6.206
10274TIP3    H130775   6.232   5.477   6.256
10274TIP3    H230776   6.089   5.440   6.277
10275TIP3   OH230777   6.618   4.894   5.458
10275TIP3    H130778   6.696   4.860   5.412
10275TIP3    H230779   6.626   4.852   5.546
10276TIP3   OH230780   6.139   4.383   5.343
10276TIP3    H130781   6.102   4.306   5.392
10276TIP3    H230782   6.180   4.340   5.267
10277TIP3   OH230783   6.595   4.794   5.749
10277TIP3    H130784   6.506   4.830   5.764
10277TIP3    H230785   6.653   4.855   5.800
10278TIP3   OH230786   6.335   5.175   4.841
10278TIP3    H130787   6.257   5.116   4.838
10278TIP3    H230788   6.321   5.219   4.929
10279TIP3   OH230789   7.240   5.410   5.469
10279TIP3    H130790   7.256   5.471   5.394
10279TIP3    H230791   7.149   5.378   5.450
10280TIP3   OH230792   6.782   4.494   4.713
10280TIP3    H130793   6.685   4.500   4.709
10280TIP3    H230794   6.809   4.586   4.733
10281TIP3   OH230795   6.863   4.740   4.807
10281TIP3    H130796   6.958   4.750   4.827
10281TIP3    H230797   6.843   4.823   4.759
10282TIP3   OH230798   6.020   5.203   5.523
10282TIP3    H130799   6.060   5.174   5.438
10282TIP3    H230800   6.068   5.148   5.587
10283TIP3   OH230801   6.471   5.323   4.639
10283TIP3    H130802   6.459   5.413   4.674
10283TIP3    H230803   6.448   5.272   4.720
10284TIP3   OH230804   5.909   5.123   6.133
10284TIP3    H130805   5.925   5.110   6.229
10284TIP3    H230806   5.838   5.059   6.117
10285TIP3   OH230807   6.626   5.230   6.164
10285TIP3    H130808   6.567   5.175   6.111
10285TIP3    H230809   6.713   5.210   6.124
10286TIP3   OH230810   7.299   4.837   4.648
10286TIP3    H130811   7.237   4.794   4.585
10286TIP3    H230812   7.297   4.927   4.608
10287TIP3   OH230813   7.000   5.643   4.609
10287TIP3    H130814   6.982   5.547   4.603
10287TIP3    H230815   7.028   5.659   4.517
10288TIP3   OH230816   7.006   5.285   5.377
10288TIP3    H130817   6.914   5.269   5.404
10288TIP3    H230818   7.029   5.201   5.334
10289TIP3   OH230819   6.135   5.512   5.148
10289TIP3    H130820   6.136   5.592   5.093
10289TIP3    H230821   6.041   5.503   5.170
10290TIP3   OH230822   5.689   4.809   4.852
10290TIP3    H130823   5.735   4.894   4.872
10290TIP3    H230824   5.613   4.814   4.914
10291TIP3   OH230825   6.247   5.262   5.078
10291TIP3    H130826   6.234   5.355   5.101
10291TIP3    H230827   6.214   5.217   5.158
10292TIP3   OH230828   6.396   5.858   5.606
10292TIP3    H130829   6.439   5.932   5.558
10292TIP3    H230830   6.474   5.815   5.646
10293TIP3   OH230831   6.040   5.751   4.991
10293TIP3    H130832   5.958   5.761   5.044
10293TIP3    H230833   6.077   5.842   4.999
10294TIP3   OH230834   6.755   5.381   4.459
10294TIP3    H130835   6.813   5.355   4.535
10294TIP3    H230836   6.669   5.358   4.497
10295TIP3   OH230837   7.031   6.000   5.595
10295TIP3    H130838   6.936   5.981   5.579
10295TIP3    H230839   7.032   6.095   5.576
10296TIP3   OH230840   7.094   5.854   4.280
10296TIP3    H130841   7.124   5.921   4.217
10296TIP3    H230842   7.018   5.903   4.320
10297TIP3   OH230843   6.115   4.630   6.139
10297TIP3    H130844   6.018   4.634   6.152
10297TIP3    H230845   6.143   4.574   6.213
10298TIP3   OH230846   6.926   5.313   4.660
10298TIP3    H130847   6.906   5.261   4.740
10298TIP3    H230848   7.024   5.306   4.658
10299TIP3   OH230849   5.835   5.711   5.772
10299TIP3    H130850   5.894   5.647   5.814
10299TIP3    H230851   5.855   5.792   5.821
10300TIP3   OH230852   6.117   5.361   4.463
10300TIP3    H130853   6.141   5.273   4.428
10300TIP3    H230854   6.110   5.342   4.558
10301TIP3   OH230855   6.039   5.371   4.738
10301TIP3    H130856   6.119   5.328   4.774
10301TIP3    H230857   6.065   5.465   4.749
10302TIP3   OH230858   5.813   5.047   4.931
10302TIP3    H130859   5.744   5.109   4.964
10302TIP3    H230860   5.873   5.105   4.883
10303TIP3   OH230861   6.955   4.692   5.821
10303TIP3    H130862   7.035   4.735   5.856
10303TIP3    H230863   6.946   4.613   5.879
10304TIP3   OH230864   6.839   4.443   4.993
10304TIP3    H130865   6.826   4.470   4.900
10304TIP3    H230866   6.879   4.525   5.032
10305TIP3   OH230867   6.325   5.570   4.671
10305TIP3    H130868   6.247   5.597   4.721
10305TIP3    H230869   6.340   5.648   4.616
10306TIP3   OH230870   6.521   4.627   5.091
10306TIP3    H130871   6.585   4.700   5.076
10306TIP3    H230872   6.526   4.617   5.188
10307TIP3   OH230873   6.790   4.938   5.896
10307TIP3    H130874   6.816   4.994   5.973
10307TIP3    H230875   6.845   4.859   5.908
10308TIP3   OH230876   6.664   4.348   5.192
10308TIP3    H130877   6.660   4.423   5.253
10308TIP3    H230878   6.726   4.383   5.124
10309TIP3   OH230879   6.051   5.636   4.744
10309TIP3    H130880   6.044   5.714   4.683
10309TIP3    H230881   6.053   5.681   4.832
10310TIP3   OH230882   6.177   4.344   4.991
10310TIP3    H130883   6.174   4.438   5.015
10310TIP3    H230884   6.273   4.331   4.986
10311TIP3   OH230885   7.419   4.846   5.855
10311TIP3    H130886   7.322   4.851   5.872
10311TIP3    H230887   7.421   4.776   5.789
10312TIP3   OH230888   7.083   5.034   5.266
10312TIP3    H130889   7.008   4.974   5.282
10312TIP3    H230890   7.156   4.990   5.315
10313TIP3   OH230891   5.741   4.540   4.862
10313TIP3    H130892   5.740   4.638   4.866
10313TIP3    H230893   5.652   4.520   4.831
10314TIP3   OH230894   7.046   5.974   5.208
10314TIP3    H130895   7.006   6.025   5.134
10314TIP3    H230896   7.126   6.029   5.221
10315TIP3   OH230897   6.130   4.263   5.741
10315TIP3    H130898   6.098   4.228   5.656
10315TIP3    H230899   6.119   4.186   5.800
10316TIP3   OH230900   5.654   5.466   5.134
10316TIP3    H130901   5.603   5.509   5.204
10316TIP3    H230902   5.646   5.527   5.059
10317TIP3   OH230903   5.826   6.024   6.200
10317TIP3    H130904   5.914   6.023   6.244
10317TIP3    H230905   5.806   5.929   6.196
10318TIP3   OH230906   6.294   5.963   6.252
10318TIP3    H130907   6.389   5.967   6.239
10318TIP3    H230908   6.266   5.910   6.174
10319TIP3   OH230909   6.284   5.561   4.363
10319TIP3    H130910   6.234   5.490   4.408
10319TIP3    H230911   6.363   5.512   4.334
10320TIP3   OH230912   6.721   5.603   4.283
10320TIP3    H130913   6.765   5.536   4.339
10320TIP3    H230914   6.775   5.601   4.201
10321TIP3   OH230915   5.954   5.428   6.396
10321TIP3    H130916   5.969   5.332   6.402
10321TIP3    H230917   5.867   5.432   6.350
10322TIP3   OH230918   5.930   5.080   4.595
10322TIP3    H130919   5.984   5.045   4.668
10322TIP3    H230920   5.997   5.082   4.523
10323TIP3   OH230921   6.428   5.269   4.380
10323TIP3    H130922   6.439   5.288   4.476
10323TIP3    H230923   6.432   5.172   4.382
10324TIP3   OH230924   7.019   5.454   5.752
10324TIP3    H130925   7.088   5.521   5.730
10324TIP3    H230926   6.939   5.504   5.733
10325TIP3   OH230927   6.074   5.167   6.380
10325TIP3    H130928   6.149   5.112   6.354
10325TIP3    H230929   6.103   5.200   6.467
10326TIP3   OH230930   6.119   4.983   4.809
10326TIP3    H130931   6.105   4.944   4.897
10326TIP3    H230932   6.162   4.909   4.762
10327TIP3   OH230933   6.409   5.047   6.037
10327TIP3    H130934   6.331   5.106   6.038
10327TIP3    H230935   6.462   5.085   5.963
10328TIP3   OH230936   6.243   4.783   4.650
10328TIP3    H130937   6.218   4.792   4.556
10328TIP3    H230938   6.340   4.788   4.645
10329TIP3   OH230939   6.894   5.408   6.142
10329TIP3    H130940   6.928   5.341   6.082
10329TIP3    H230941   6.887   5.359   6.225
10330TIP3   OH230942   7.057   5.108   4.320
10330TIP3    H130943   7.042   5.066   4.233
10330TIP3    H230944   7.026   5.199   4.299
10331TIP3   OH230945   6.536   4.839   6.162
10331TIP3    H130946   6.534   4.760   6.105
10331TIP3    H230947   6.490   4.906   6.105
10332TIP3   OH230948   6.536   4.625   5.975
10332TIP3    H130949   6.564   4.666   5.891
10332TIP3    H230950   6.442   4.602   5.955
10333TIP3   OH230951   6.564   5.164   5.853
10333TIP3    H130952   6.646   5.166   5.801
10333TIP3    H230953   6.505   5.222   5.800
10334TIP3   OH230954   7.136   5.110   6.229
10334TIP3    H130955   7.180   5.027   6.205
10334TIP3    H230956   7.191   5.174   6.181
10335TIP3   OH230957   7.172   5.330   5.946
10335TIP3    H130958   7.122   5.401   5.899
10335TIP3    H230959   7.262   5.363   5.934
10336TIP3   OH230960   6.415   4.944   6.399
10336TIP3    H130961   6.345   4.877   6.414
10336TIP3    H230962   6.445   4.920   6.309
10337TIP3   OH230963   6.667   4.386   6.043
10337TIP3    H130964   6.617   4.467   6.020
10337TIP3    H230965   6.599   4.317   6.032
10338TIP3   OH230966   6.791   4.887   6.260
10338TIP3    H130967   6.769   4.872   6.354
10338TIP3    H230968   6.704   4.864   6.221
10339TIP3   OH230969   7.027   4.843   6.114
10339TIP3    H130970   6.952   4.840   6.177
10339TIP3    H230971   7.101   4.810   6.170
10340TIP3   OH230972   7.243   4.786   6.268
10340TIP3    H130973   7.270   4.692   6.271
10340TIP3    H230974   7.247   4.811   6.361
10341TIP3   OH230975   6.250   4.726   6.451
10341TIP3    H130976   6.253   4.634   6.419
10341TIP3    H230977   6.286   4.716   6.541
10342TIP3   OH230978   6.762   4.398   6.301
10342TIP3    H130979   6.828   4.326   6.295
10342TIP3    H230980   6.722   4.393   6.212
10343TIP3   OH230981   6.830   4.615   6.458
10343TIP3    H130982   6.809   4.543   6.395
10343TIP3    H230983   6.751   4.672   6.452
10344TIP3   OH230984   6.045   5.830   4.551
10344TIP3    H130985   6.142   5.826   4.535
10344TIP3    H230986   6.022   5.894   4.480
10345TIP3   OH230987   5.453   5.829   5.185
10345TIP3    H130988   5.380   5.773   5.150
10345TIP3    H230989   5.489   5.770   5.255
10346TIP3   OH230990   5.594   5.675   5.367
10346TIP3    H130991   5.572   5.610   5.437
10346TIP3    H230992   5.640   5.741   5.422
10347TIP3   OH230993   7.382   6.041   5.128
10347TIP3    H130994   7.333   6.069   5.207
10347TIP3    H230995   7.401   6.127   5.090
10348TIP3   OH230996   7.201   5.295   4.649
10348TIP3    H130997   7.268   5.359   4.616
10348TIP3    H230998   7.246   5.259   4.728
10349TIP3   OH230999   7.326   5.161   4.852
10349TIP3    H131000   7.260   5.122   4.913
10349TIP3    H231001   7.394   5.197   4.912
10350TIP3   OH231002   7.375   5.557   5.276
10350TIP3    H131003   7.424   5.488   5.229
10350TIP3    H231004   7.381   5.633   5.214
10351TIP3   OH231005   7.214   5.835   5.476
10351TIP3    H131006   7.142   5.886   5.520
10351TIP3    H231007   7.165   5.785   5.409
10352TIP3   OH231008   7.263   5.071   4.499
10352TIP3    H131009   7.191   5.074   4.431
10352TIP3    H231010   7.236   5.146   4.555
10353TIP3   OH231011   7.132   4.745   4.454
10353TIP3    H131012   7.093   4.781   4.374
10353TIP3    H231013   7.109   4.650   4.445
10354TIP3   OH231014   7.137   5.023   4.998
10354TIP3    H131015   7.148   4.926   4.991
10354TIP3    H231016   7.123   5.035   5.095
10355TIP3   OH231017   5.764   5.092   5.746
10355TIP3    H131018   5.763   5.061   5.654
10355TIP3    H231019   5.862   5.094   5.763
10356TIP3   OH231020   7.078   4.478   4.441
10356TIP3    H131021   7.158   4.450   4.490
10356TIP3    H231022   7.012   4.411   4.464
10357TIP3   OH231023   7.136   4.736   4.892
10357TIP3    H131024   7.177   4.648   4.906
10357TIP3    H231025   7.195   4.771   4.822
10358TIP3   OH231026   7.296   4.904   5.388
10358TIP3    H131027   7.382   4.928   5.347
10358TIP3    H231028   7.312   4.939   5.478
10359TIP3   OH231029   7.366   5.047   5.617
10359TIP3    H131030   7.282   5.080   5.656
10359TIP3    H231031   7.395   5.124   5.564
10360TIP3   OH231032   5.983   4.778   6.421
10360TIP3    H131033   6.081   4.773   6.424
10360TIP3    H231034   5.960   4.691   6.460
10361TIP3   OH231035   7.810   4.611   6.214
10361TIP3    H131036   7.870   4.568   6.149
10361TIP3    H231037   7.817   4.705   6.189
10362TIP3   OH231038   7.245   4.487   4.930
10362TIP3    H131039   7.294   4.472   5.014
10362TIP3    H231040   7.185   4.410   4.930
10363TIP3   OH231041   5.944   4.472   5.748
10363TIP3    H131042   6.006   4.397   5.759
10363TIP3    H231043   6.007   4.546   5.742
10364TIP3   OH231044   5.746   4.744   5.823
10364TIP3    H131045   5.796   4.743   5.739
10364TIP3    H231046   5.773   4.828   5.862
10365TIP3   OH231047   7.695   4.785   5.931
10365TIP3    H131048   7.632   4.810   6.000
10365TIP3    H231049   7.659   4.698   5.904
10366TIP3   OH231050   7.323   4.419   4.563
10366TIP3    H131051   7.364   4.349   4.509
10366TIP3    H231052   7.391   4.489   4.562
10367TIP3   OH231053   5.731   4.246   5.322
10367TIP3    H131054   5.639   4.242   5.354
10367TIP3    H231055   5.725   4.307   5.246
10368TIP3   OH231056   5.952   4.328   6.138
10368TIP3    H131057   5.901   4.323   6.220
10368TIP3    H231058   5.886   4.367   6.077
10369TIP3   OH231059   5.991   5.750   6.216
10369TIP3    H131060   5.897   5.729   6.199
10369TIP3    H231061   5.995   5.746   6.312
10370TIP3   OH231062   6.173   5.788   5.759
10370TIP3    H131063   6.123   5.864   5.726
10370TIP3    H231064   6.258   5.806   5.715
10371TIP3   OH231065   6.615   6.069   5.848
10371TIP3    H131066   6.667   6.062   5.931
10371TIP3    H231067   6.675   6.029   5.783
10372TIP3   OH231068   7.580   4.540   5.859
10372TIP3    H131069   7.492   4.523   5.821
10372TIP3    H231070   7.621   4.451   5.849
10373TIP3   OH231071   5.846   6.038   5.793
10373TIP3    H131072   5.760   6.075   5.761
10373TIP3    H231073   5.861   6.095   5.869
10374TIP3   OH231074   6.079   6.025   5.641
10374TIP3    H131075   5.994   6.037   5.692
10374TIP3    H231076   6.052   6.057   5.553
10375TIP3   OH231077   6.509   6.050   5.429
10375TIP3    H131078   6.433   6.076   5.375
10375TIP3    H231079   6.528   6.135   5.477
10376TIP3   OH231080   6.780   6.011   5.499
10376TIP3    H131081   6.686   6.016   5.475
10376TIP3    H231082   6.817   6.087   5.452
10377TIP3   OH231083   6.949   6.208   5.386
10377TIP3    H131084   6.999   6.278   5.339
10377TIP3    H231085   6.989   6.131   5.341
10378TIP3   OH231086   5.756   5.835   5.527
10378TIP3    H131087   5.779   5.811   5.620
10378TIP3    H231088   5.832   5.794   5.481
10379TIP3   OH231089   5.955   5.711   5.385
10379TIP3    H131090   5.967   5.628   5.437
10379TIP3    H231091   6.046   5.748   5.388
10380TIP3   OH231092   6.218   5.803   5.394
10380TIP3    H131093   6.249   5.709   5.388
10380TIP3    H231094   6.265   5.828   5.476
10381TIP3   OH231095   6.791   4.460   5.477
10381TIP3    H131096   6.749   4.390   5.530
10381TIP3    H231097   6.868   4.415   5.438
10382TIP3   OH231098   7.312   4.339   5.381
10382TIP3    H131099   7.349   4.392   5.307
10382TIP3    H231100   7.218   4.364   5.377
10383TIP3   OH231101   7.409   4.440   5.147
10383TIP3    H131102   7.484   4.389   5.110
10383TIP3    H231103   7.442   4.532   5.132
10384TIP3   OH231104   6.040   4.169   5.493
10384TIP3    H131105   5.948   4.137   5.499
10384TIP3    H231106   6.088   4.084   5.490
10385TIP3   OH231107   5.828   4.043   5.144
10385TIP3    H131108   5.857   4.102   5.073
10385TIP3    H231109   5.801   4.107   5.213
10386TIP3   OH231110   6.488   4.199   5.377
10386TIP3    H131111   6.543   4.251   5.316
10386TIP3    H231112   6.508   4.242   5.461
10387TIP3   OH231113   7.026   4.350   5.360
10387TIP3    H131114   7.032   4.310   5.273
10387TIP3    H231115   7.015   4.271   5.418
10388TIP3   OH231116   7.060   4.275   4.923
10388TIP3    H131117   6.976   4.319   4.943
10388TIP3    H231118   7.046   4.188   4.967
10389TIP3   OH231119   5.564   5.596   4.891
10389TIP3    H131120   5.473   5.572   4.868
10389TIP3    H231121   5.554   5.690   4.909
10390TIP3   OH231122   5.948   4.203   4.904
10390TIP3    H131123   5.999   4.137   4.853
10390TIP3    H231124   6.020   4.258   4.941
10391TIP3   OH231125   6.462   4.380   4.993
10391TIP3    H131126   6.514   4.330   5.058
10391TIP3    H231127   6.482   4.471   5.024
10392TIP3   OH231128   6.311   5.797   4.498
10392TIP3    H131129   6.401   5.821   4.467
10392TIP3    H231130   6.294   5.721   4.437
10393TIP3   OH231131   6.248   4.453   6.387
10393TIP3    H131132   6.211   4.382   6.443
10393TIP3    H231133   6.342   4.451   6.416
10394TIP3   OH231134   6.499   4.449   6.506
10394TIP3    H131135   6.584   4.422   6.467
10394TIP3    H231136   6.485   4.380   6.573
10395TIP3   OH231137   5.623   5.615   4.584
10395TIP3    H131138   5.631   5.668   4.666
10395TIP3    H231139   5.714   5.612   4.548
10396TIP3   OH231140   7.321   4.521   6.286
10396TIP3    H131141   7.338   4.481   6.375
10396TIP3    H231142   7.409   4.513   6.244
10397TIP3   OH231143   7.815   5.306   5.305
10397TIP3    H131144   7.876   5.232   5.321
10397TIP3    H231145   7.874   5.374   5.271
10398TIP3   OH231146   7.793   5.730   5.026
10398TIP3    H131147   7.784   5.634   5.013
10398TIP3    H231148   7.873   5.736   5.082
10399TIP3   OH231149   7.506   4.938   4.803
10399TIP3    H131150   7.462   5.023   4.823
10399TIP3    H231151   7.432   4.891   4.760
10400TIP3   OH231152   7.563   5.226   4.974
10400TIP3    H131153   7.614   5.151   5.011
10400TIP3    H231154   7.630   5.273   4.922
10401TIP3   OH231155   8.076   4.817   4.974
10401TIP3    H131156   8.058   4.894   4.915
10401TIP3    H231157   8.024   4.748   4.928
10402TIP3   OH231158   7.711   5.024   5.085
10402TIP3    H131159   7.792   5.000   5.134
10402TIP3    H231160   7.724   4.970   5.005
10403TIP3   OH231161   8.151   5.216   4.890
10403TIP3    H131162   8.243   5.187   4.908
10403TIP3    H231163   8.113   5.134   4.851
10404TIP3   OH231164   8.065   4.815   5.426
10404TIP3    H131165   8.013   4.851   5.351
10404TIP3    H231166   8.000   4.825   5.499
10405TIP3   OH231167   7.940   4.906   5.194
10405TIP3    H131168   8.001   4.983   5.205
10405TIP3    H231169   7.987   4.863   5.119
10406TIP3   OH231170   7.399   5.463   4.539
10406TIP3    H131171   7.363   5.493   4.453
10406TIP3    H231172   7.432   5.547   4.577
10407TIP3   OH231173   8.362   4.579   5.083
10407TIP3    H131174   8.409   4.496   5.110
10407TIP3    H231175   8.298   4.592   5.155
10408TIP3   OH231176   8.272   5.188   4.345
10408TIP3    H131177   8.220   5.271   4.343
10408TIP3    H231178   8.360   5.223   4.327
10409TIP3   OH231179   7.937   5.363   4.774
10409TIP3    H131180   7.899   5.308   4.703
10409TIP3    H231181   8.014   5.310   4.802
10410TIP3   OH231182   8.059   5.354   5.111
10410TIP3    H131183   8.084   5.306   5.029
10410TIP3    H231184   8.130   5.423   5.111
10411TIP3   OH231185   7.808   5.208   4.571
10411TIP3    H131186   7.741   5.254   4.516
10411TIP3    H231187   7.764   5.124   4.587
10412TIP3   OH231188   7.615   5.562   5.428
10412TIP3    H131189   7.528   5.556   5.384
10412TIP3    H231190   7.622   5.478   5.476
10413TIP3   OH231191   7.437   5.774   5.105
10413TIP3    H131192   7.532   5.775   5.120
10413TIP3    H231193   7.413   5.867   5.125
10414TIP3   OH231194   8.093   6.192   4.253
10414TIP3    H131195   8.102   6.130   4.179
10414TIP3    H231196   8.176   6.240   4.250
10415TIP3   OH231197   7.599   5.998   4.636
10415TIP3    H131198   7.653   5.990   4.719
10415TIP3    H231199   7.544   5.919   4.648
10416TIP3   OH231200   8.167   4.597   5.277
10416TIP3    H131201   8.074   4.579   5.253
10416TIP3    H231202   8.158   4.683   5.324
10417TIP3   OH231203   8.112   5.108   5.225
10417TIP3    H131204   8.087   5.121   5.318
10417TIP3    H231205   8.110   5.199   5.190
10418TIP3   OH231206   8.003   5.003   4.789
10418TIP3    H131207   7.911   4.981   4.814
10418TIP3    H231208   8.005   4.961   4.700
10419TIP3   OH231209   7.981   5.102   5.466
10419TIP3    H131210   7.953   5.179   5.519
10419TIP3    H231211   7.946   5.028   5.519
10420TIP3   OH231212   7.996   4.631   4.193
10420TIP3    H131213   7.978   4.630   4.289
10420TIP3    H231214   7.918   4.681   4.162
10421TIP3   OH231215   7.533   4.662   5.063
10421TIP3    H131216   7.603   4.699   5.120
10421TIP3    H231217   7.580   4.638   4.982
10422TIP3   OH231218   7.500   4.646   4.583
10422TIP3    H131219   7.546   4.683   4.504
10422TIP3    H231220   7.441   4.721   4.603
10423TIP3   OH231221   8.324   4.797   4.838
10423TIP3    H131222   8.242   4.797   4.892
10423TIP3    H231223   8.384   4.841   4.900
10424TIP3   OH231224   7.766   4.882   4.859
10424TIP3    H131225   7.672   4.890   4.829
10424TIP3    H231226   7.790   4.791   4.833
10425TIP3   OH231227   7.993   4.865   4.552
10425TIP3    H131228   8.088   4.873   4.531
10425TIP3    H231229   7.949   4.892   4.468
10426TIP3   OH231230   7.873   4.911   4.316
10426TIP3    H131231   7.806   4.866   4.262
10426TIP3    H231232   7.931   4.948   4.246
10427TIP3   OH231233   8.419   5.123   4.965
10427TIP3    H131234   8.483   5.141   4.895
10427TIP3    H231235   8.471   5.069   5.027
10428TIP3   OH231236   7.928   4.638   4.830
10428TIP3    H131237   7.890   4.564   4.882
10428TIP3    H231238   7.977   4.590   4.762
10429TIP3   OH231239   8.128   5.434   4.333
10429TIP3    H131240   8.048   5.380   4.317
10429TIP3    H231241   8.109   5.470   4.423
10430TIP3   OH231242   7.810   5.446   5.004
10430TIP3    H131243   7.845   5.432   4.913
10430TIP3    H231244   7.883   5.407   5.055
10431TIP3   OH231245   8.281   5.596   4.165
10431TIP3    H131246   8.230   5.680   4.175
10431TIP3    H231247   8.231   5.537   4.224
10432TIP3   OH231248   7.638   5.373   5.643
10432TIP3    H131249   7.610   5.371   5.736
10432TIP3    H231250   7.567   5.323   5.598
10433TIP3   OH231251   7.920   5.767   4.608
10433TIP3    H131252   7.894   5.838   4.546
10433TIP3    H231253   7.837   5.749   4.653
10434TIP3   OH231254   7.489   5.069   4.338
10434TIP3    H131255   7.534   5.154   4.357
10434TIP3    H231256   7.412   5.075   4.399
10435TIP3   OH231257   8.057   5.528   4.576
10435TIP3    H131258   8.021   5.619   4.587
10435TIP3    H231259   8.023   5.485   4.657
10436TIP3   OH231260   7.832   5.994   4.479
10436TIP3    H131261   7.748   6.015   4.525
10436TIP3    H231262   7.888   6.070   4.501
10437TIP3   OH231263   7.899   4.881   5.634
10437TIP3    H131264   7.802   4.889   5.650
10437TIP3    H231265   7.925   4.828   5.712
10438TIP3   OH231266   7.894   5.647   3.950
10438TIP3    H131267   7.952   5.585   3.901
10438TIP3    H231268   7.890   5.605   4.038
10439TIP3   OH231269   7.861   5.619   4.235
10439TIP3    H131270   7.947   5.604   4.276
10439TIP3    H231271   7.861   5.718   4.227
10440TIP3   OH231272   7.600   5.313   4.420
10440TIP3    H131273   7.533   5.361   4.474
10440TIP3    H231274   7.616   5.381   4.351
10441TIP3   OH231275   8.128   5.817   4.179
10441TIP3    H131276   8.040   5.849   4.205
10441TIP3    H231277   8.138   5.861   4.092
10442TIP3   OH231278   8.266   4.855   4.562
10442TIP3    H131279   8.306   4.942   4.543
10442TIP3    H231280   8.294   4.845   4.655
10443TIP3   OH231281   7.871   5.891   4.228
10443TIP3    H131282   7.844   5.960   4.163
10443TIP3    H231283   7.855   5.937   4.313
10444TIP3   OH231284   7.968   4.607   4.466
10444TIP3    H131285   7.959   4.696   4.507
10444TIP3    H231286   8.061   4.588   4.484
10445TIP3   OH231287   7.593   5.523   4.225
10445TIP3    H131288   7.670   5.583   4.236
10445TIP3    H231289   7.631   5.464   4.156
10446TIP3   OH231290   7.535   4.799   4.359
10446TIP3    H131291   7.540   4.896   4.357
10446TIP3    H231292   7.457   4.783   4.306
10447TIP3   OH231293   7.908   4.519   5.231
10447TIP3    H131294   7.885   4.484   5.143
10447TIP3    H231295   7.904   4.438   5.287
10448TIP3   OH231296   7.464   5.721   4.605
10448TIP3    H131297   7.398   5.769   4.654
10448TIP3    H231298   7.461   5.766   4.519
10449TIP3   OH231299   8.089   5.825   3.875
10449TIP3    H131300   8.010   5.773   3.901
10449TIP3    H231301   8.138   5.755   3.829
10450TIP3   OH231302   7.724   5.337   4.082
10450TIP3    H131303   7.789   5.312   4.151
10450TIP3    H231304   7.783   5.338   4.003
10451TIP3   OH231305   8.174   5.545   3.907
10451TIP3    H131306   8.220   5.552   3.992
10451TIP3    H231307   8.233   5.484   3.858
10452TIP3   OH231308   7.930   5.240   4.296
10452TIP3    H131309   7.907   5.207   4.384
10452TIP3    H231310   7.969   5.162   4.254
10453TIP3   OH231311   8.042   5.027   4.138
10453TIP3    H131312   8.016   5.028   4.042
10453TIP3    H231313   8.125   5.077   4.135
10454TIP3   OH231314   8.337   4.843   5.375
10454TIP3    H131315   8.366   4.935   5.363
10454TIP3    H231316   8.242   4.855   5.391
10455TIP3   OH231317   8.481   4.645   5.504
10455TIP3    H131318   8.442   4.728   5.466
10455TIP3    H231319   8.401   4.602   5.537
10456TIP3   OH231320   7.844   6.094   4.046
10456TIP3    H131321   7.941   6.095   4.040
10456TIP3    H231322   7.822   6.146   3.967
10457TIP3   OH231323   7.323   5.481   4.261
10457TIP3    H131324   7.417   5.503   4.245
10457TIP3    H231325   7.317   5.392   4.221
10458TIP3   OH231326   7.227   6.083   4.679
10458TIP3    H131327   7.227   6.034   4.595
10458TIP3    H231328   7.275   6.023   4.738
10459TIP3   OH231329   7.368   5.921   4.853
10459TIP3    H131330   7.381   5.849   4.918
10459TIP3    H231331   7.399   5.995   4.907
10460TIP3   OH231332   7.550   5.341   5.227
10460TIP3    H131333   7.553   5.314   5.133
10460TIP3    H231334   7.645   5.346   5.249
10461TIP3   OH231335   7.730   4.729   5.242
10461TIP3    H131336   7.789   4.651   5.249
10461TIP3    H231337   7.797   4.800   5.231
10462TIP3   OH231338   7.542   4.997   5.310
10462TIP3    H131339   7.594   4.999   5.227
10462TIP3    H231340   7.556   5.086   5.344
10463TIP3   OH231341   7.528   4.500   4.808
10463TIP3    H131342   7.436   4.500   4.840
10463TIP3    H231343   7.523   4.562   4.733
10464TIP3   OH231344   7.744   4.577   5.617
10464TIP3    H131345   7.705   4.583   5.705
10464TIP3    H231346   7.676   4.623   5.563
10465TIP3   OH231347   7.738   5.942   4.856
10465TIP3    H131348   7.760   5.868   4.917
10465TIP3    H231349   7.796   6.013   4.887
10466TIP3   OH231350   7.832   4.427   4.977
10466TIP3    H131351   7.739   4.397   4.981
10466TIP3    H231352   7.877   4.341   4.980
10467TIP3   OH231353   7.624   4.299   4.632
10467TIP3    H131354   7.652   4.356   4.558
10467TIP3    H231355   7.598   4.365   4.699
10468TIP3   OH231356   8.271   4.475   4.846
10468TIP3    H131357   8.351   4.526   4.827
10468TIP3    H231358   8.263   4.498   4.940
10469TIP3   OH231359   7.319   5.893   4.437
10469TIP3    H131360   7.242   5.854   4.390
10469TIP3    H231361   7.328   5.975   4.383
10470TIP3   OH231362   7.736   4.455   4.396
10470TIP3    H131363   7.782   4.392   4.337
10470TIP3    H231364   7.811   4.510   4.428
10471TIP3   OH231365   8.275   4.594   4.450
10471TIP3    H131366   8.280   4.548   4.536
10471TIP3    H231367   8.288   4.687   4.480
10472TIP3   OH231368   8.120   6.062   3.997
10472TIP3    H131369   8.192   6.099   3.946
10472TIP3    H231370   8.100   5.982   3.943
10473TIP3   OH231371   8.028   4.663   5.829
10473TIP3    H131372   8.011   4.609   5.909
10473TIP3    H231373   8.094   4.726   5.863
10474TIP3   OH231374   7.419   5.887   4.044
10474TIP3    H131375   7.434   5.923   4.133
10474TIP3    H231376   7.506   5.846   4.024
10475TIP3   OH231377   0.953   6.210   6.238
10475TIP3    H131378   0.999   6.296   6.234
10475TIP3    H231379   0.872   6.239   6.283
10476TIP3   OH231380   1.016   6.204   6.611
10476TIP3    H131381   1.021   6.217   6.707
10476TIP3    H231382   0.922   6.178   6.601
10477TIP3   OH231383   1.216   6.505   6.299
10477TIP3    H131384   1.222   6.450   6.379
10477TIP3    H231385   1.244   6.592   6.336
10478TIP3   OH231386   1.792   5.767   6.669
10478TIP3    H131387   1.823   5.850   6.710
10478TIP3    H231388   1.817   5.782   6.576
10479TIP3   OH231389   1.197   5.949   6.713
10479TIP3    H131390   1.241   5.862   6.721
10479TIP3    H231391   1.168   5.947   6.620
10480TIP3   OH231392   1.226   5.701   6.284
10480TIP3    H131393   1.295   5.684   6.353
10480TIP3    H231394   1.284   5.732   6.211
10481TIP3   OH231395   1.865   5.975   6.842
10481TIP3    H131396   1.782   6.022   6.820
10481TIP3    H231397   1.890   6.017   6.926
10482TIP3   OH231398   0.921   6.482   6.144
10482TIP3    H131399   0.943   6.448   6.057
10482TIP3    H231400   0.974   6.564   6.143
10483TIP3   OH231401   1.431   5.706   6.463
10483TIP3    H131402   1.417   5.660   6.546
10483TIP3    H231403   1.483   5.784   6.490
10484TIP3   OH231404   1.285   6.736   6.424
10484TIP3    H131405   1.259   6.745   6.517
10484TIP3    H231406   1.284   6.829   6.392
10485TIP3   OH231407   1.586   5.668   6.834
10485TIP3    H131408   1.500   5.695   6.799
10485TIP3    H231409   1.648   5.701   6.765
10486TIP3   OH231410   0.905   5.316   6.829
10486TIP3    H131411   0.890   5.220   6.815
10486TIP3    H231412   0.819   5.343   6.861
10487TIP3   OH231413   0.994   6.795   6.137
10487TIP3    H131414   1.061   6.735   6.100
10487TIP3    H231415   1.042   6.880   6.134
10488TIP3   OH231416   1.155   6.592   6.045
10488TIP3    H131417   1.171   6.515   5.988
10488TIP3    H231418   1.191   6.561   6.131
10489TIP3   OH231419   1.545   6.615   6.820
10489TIP3    H131420   1.525   6.547   6.754
10489TIP3    H231421   1.499   6.694   6.782
10490TIP3   OH231422   1.722   6.318   6.659
10490TIP3    H131423   1.633   6.359   6.658
10490TIP3    H231424   1.753   6.343   6.569
10491TIP3   OH231425   1.158   6.151   6.042
10491TIP3    H131426   1.099   6.160   6.119
10491TIP3    H231427   1.243   6.126   6.083
10492TIP3   OH231428   1.405   6.196   6.961
10492TIP3    H131429   1.412   6.292   6.979
10492TIP3    H231430   1.312   6.190   6.929
10493TIP3   OH231431   1.515   5.255   5.918
10493TIP3    H131432   1.433   5.277   5.968
10493TIP3    H231433   1.530   5.338   5.869
10494TIP3   OH231434   1.316   6.622   5.468
10494TIP3    H131435   1.324   6.719   5.451
10494TIP3    H231436   1.409   6.594   5.456
10495TIP3   OH231437   0.833   6.833   5.590
10495TIP3    H131438   0.894   6.762   5.558
10495TIP3    H231439   0.871   6.859   5.675
10496TIP3   OH231440   0.902   6.900   5.870
10496TIP3    H131441   0.841   6.935   5.936
10496TIP3    H231442   0.982   6.888   5.926
10497TIP3   OH231443   1.674   6.157   7.123
10497TIP3    H131444   1.589   6.189   7.090
10497TIP3    H231445   1.666   6.061   7.113
10498TIP3   OH231446   1.201   5.506   7.144
10498TIP3    H131447   1.277   5.473   7.196
10498TIP3    H231448   1.124   5.474   7.196
10499TIP3   OH231449   1.414   5.931   7.054
10499TIP3    H131450   1.363   5.930   7.137
10499TIP3    H231451   1.401   6.022   7.021
10500TIP3   OH231452   1.070   6.056   5.613
10500TIP3    H131453   1.050   6.028   5.522
10500TIP3    H231454   1.156   6.100   5.600
10501TIP3   OH231455   0.768   5.444   5.908
10501TIP3    H131456   0.754   5.431   6.004
10501TIP3    H231457   0.736   5.358   5.875
10502TIP3   OH231458   0.963   5.889   6.191
10502TIP3    H131459   0.952   5.982   6.165
10502TIP3    H231460   1.017   5.853   6.118
10503TIP3   OH231461   1.117   5.900   6.448
10503TIP3    H131462   1.052   5.933   6.384
10503TIP3    H231463   1.150   5.822   6.398
10504TIP3   OH231464   1.141   6.157   6.883
10504TIP3    H131465   1.153   6.078   6.826
10504TIP3    H231466   1.052   6.145   6.921
10505TIP3   OH231467   0.821   5.619   6.528
10505TIP3    H131468   0.751   5.608   6.593
10505TIP3    H231469   0.898   5.636   6.586
10506TIP3   OH231470   1.281   5.683   6.731
10506TIP3    H131471   1.254   5.697   6.824
10506TIP3    H231472   1.212   5.620   6.702
10507TIP3   OH231473   0.910   5.880   6.653
10507TIP3    H131474   0.990   5.874   6.600
10507TIP3    H231475   0.938   5.850   6.742
10508TIP3   OH231476   0.859   5.830   6.927
10508TIP3    H131477   0.792   5.899   6.943
10508TIP3    H231478   0.933   5.862   6.984
10509TIP3   OH231479   1.480   6.439   6.626
10509TIP3    H131480   1.505   6.499   6.552
10509TIP3    H231481   1.394   6.404   6.595
10510TIP3   OH231482   1.030   5.546   5.896
10510TIP3    H131483   0.933   5.531   5.894
10510TIP3    H231484   1.038   5.642   5.906
10511TIP3   OH231485   1.114   5.811   5.971
10511TIP3    H131486   1.204   5.796   6.006
10511TIP3    H231487   1.132   5.878   5.903
10512TIP3   OH231488   1.547   5.882   5.825
10512TIP3    H131489   1.486   5.838   5.762
10512TIP3    H231490   1.545   5.972   5.784
10513TIP3   OH231491   1.764   6.754   6.897
10513TIP3    H131492   1.673   6.720   6.890
10513TIP3    H231493   1.797   6.726   6.810
10514TIP3   OH231494   1.247   6.700   5.729
10514TIP3    H131495   1.230   6.628   5.791
10514TIP3    H231496   1.264   6.654   5.645
10515TIP3   OH231497   1.245   6.327   6.538
10515TIP3    H131498   1.159   6.287   6.560
10515TIP3    H231499   1.291   6.246   6.505
10516TIP3   OH231500   1.013   6.482   6.700
10516TIP3    H131501   1.010   6.487   6.798
10516TIP3    H231502   1.094   6.433   6.683
10517TIP3   OH231503   1.014   6.419   5.627
10517TIP3    H131504   1.056   6.397   5.713
10517TIP3    H231505   0.923   6.389   5.641
10518TIP3   OH231506   1.347   6.898   5.451
10518TIP3    H131507   1.384   6.972   5.400
10518TIP3    H231508   1.267   6.942   5.487
10519TIP3   OH231509   1.164   6.366   5.868
10519TIP3    H131510   1.151   6.283   5.919
10519TIP3    H231511   1.258   6.355   5.843
10520TIP3   OH231512   1.221   5.730   6.988
10520TIP3    H131513   1.297   5.777   7.025
10520TIP3    H231514   1.209   5.655   7.050
10521TIP3   OH231515   1.096   5.479   6.166
10521TIP3    H131516   1.074   5.505   6.075
10521TIP3    H231517   1.129   5.563   6.204
10522TIP3   OH231518   0.825   5.652   6.249
10522TIP3    H131519   0.876   5.734   6.234
10522TIP3    H231520   0.803   5.661   6.344
10523TIP3   OH231521   1.027   5.934   7.107
10523TIP3    H131522   1.016   6.029   7.121
10523TIP3    H231523   1.122   5.920   7.106
10524TIP3   OH231524   0.925   5.387   6.371
10524TIP3    H131525   0.914   5.463   6.430
10524TIP3    H231526   0.980   5.427   6.300
10525TIP3   OH231527   1.681   5.886   7.063
10525TIP3    H131528   1.583   5.884   7.060
10525TIP3    H231529   1.701   5.850   6.975
10526TIP3   OH231530   1.336   6.084   6.443
10526TIP3    H131531   1.260   6.024   6.458
10526TIP3    H231532   1.408   6.037   6.491
10527TIP3   OH231533   1.281   7.006   6.334
10527TIP3    H131534   1.227   7.083   6.307
10527TIP3    H231535   1.364   7.027   6.289
10528TIP3   OH231536   0.972   6.642   5.451
10528TIP3    H131537   1.021   6.582   5.510
10528TIP3    H231538   1.028   6.644   5.370
10529TIP3   OH231539   0.742   6.333   5.638
10529TIP3    H131540   0.655   6.377   5.641
10529TIP3    H231541   0.722   6.259   5.578
10530TIP3   OH231542   1.308   6.151   5.497
10530TIP3    H131543   1.290   6.108   5.411
10530TIP3    H231544   1.277   6.242   5.474
10531TIP3   OH231545   0.945   5.435   7.226
10531TIP3    H131546   0.900   5.516   7.197
10531TIP3    H231547   0.881   5.369   7.194
10532TIP3   OH231548   1.279   5.860   7.283
10532TIP3    H131549   1.211   5.799   7.315
10532TIP3    H231550   1.357   5.831   7.335
10533TIP3   OH231551   1.486   5.810   7.448
10533TIP3    H131552   1.510   5.715   7.454
10533TIP3    H231553   1.542   5.849   7.517
10534TIP3   OH231554   1.013   5.428   7.491
10534TIP3    H131555   1.085   5.362   7.483
10534TIP3    H231556   0.978   5.426   7.400
10535TIP3   OH231557   1.065   5.685   7.574
10535TIP3    H131558   1.060   5.594   7.539
10535TIP3    H231559   0.971   5.705   7.586
10536TIP3   OH231560   1.542   7.122   6.301
10536TIP3    H131561   1.497   7.136   6.387
10536TIP3    H231562   1.518   7.204   6.256
10537TIP3   OH231563   1.442   6.341   5.826
10537TIP3    H131564   1.509   6.405   5.793
10537TIP3    H231565   1.489   6.304   5.904
10538TIP3   OH231566   1.574   6.208   6.029
10538TIP3    H131567   1.508   6.167   6.089
10538TIP3    H231568   1.641   6.243   6.091
10539TIP3   OH231569   1.632   6.601   6.461
10539TIP3    H131570   1.686   6.533   6.416
10539TIP3    H231571   1.631   6.674   6.396
10540TIP3   OH231572   1.512   6.116   5.676
10540TIP3    H131573   1.441   6.117   5.608
10540TIP3    H231574   1.483   6.191   5.731
10541TIP3   OH231575   1.379   5.790   5.633
10541TIP3    H131576   1.340   5.825   5.552
10541TIP3    H231577   1.357   5.694   5.624
10542TIP3   OH231578   1.385   6.065   6.175
10542TIP3    H131579   1.397   5.969   6.170
10542TIP3    H231580   1.374   6.079   6.272
10543TIP3   OH231581   1.649   6.439   7.021
10543TIP3    H131582   1.743   6.424   7.039
10543TIP3    H231583   1.649   6.528   6.981
10544TIP3   OH231584   1.890   6.299   7.041
10544TIP3    H131585   1.803   6.259   7.062
10544TIP3    H231586   1.947   6.221   7.057
10545TIP3   OH231587   1.326   5.523   5.615
10545TIP3    H131588   1.402   5.492   5.668
10545TIP3    H231589   1.255   5.460   5.636
10546TIP3   OH231590   1.379   5.776   6.065
10546TIP3    H131591   1.421   5.688   6.079
10546TIP3    H231592   1.438   5.812   5.996
10547TIP3   OH231593   1.545   5.953   6.565
10547TIP3    H131594   1.631   5.976   6.524
10547TIP3    H231595   1.560   5.990   6.654
10548TIP3   OH231596   1.619   6.099   6.795
10548TIP3    H131597   1.544   6.133   6.847
10548TIP3    H231598   1.653   6.180   6.752
10549TIP3   OH231599   2.065   5.689   7.350
10549TIP3    H131600   2.127   5.623   7.311
10549TIP3    H231601   2.038   5.740   7.272
10550TIP3   OH231602   1.492   5.531   6.108
10550TIP3    H131603   1.541   5.515   6.191
10550TIP3    H231604   1.432   5.453   6.107
10551TIP3   OH231605   1.932   5.827   7.155
10551TIP3    H131606   1.843   5.868   7.155
10551TIP3    H231607   1.913   5.750   7.097
10552TIP3   OH231608   1.571   5.464   5.741
10552TIP3    H131609   1.612   5.393   5.687
10552TIP3    H231610   1.640   5.533   5.739
10553TIP3   OH231611   1.142   7.004   6.011
10553TIP3    H131612   1.201   6.986   5.935
10553TIP3    H231613   1.170   7.094   6.035
10554TIP3   OH231614   1.837   5.587   7.038
10554TIP3    H131615   1.748   5.576   7.001
10554TIP3    H231616   1.873   5.496   7.028
10555TIP3   OH231617   1.052   5.509   6.663
10555TIP3    H131618   1.004   5.438   6.710
10555TIP3    H231619   1.120   5.459   6.614
10556TIP3   OH231620   1.560   5.387   6.561
10556TIP3    H131621   1.598   5.438   6.485
10556TIP3    H231622   1.465   5.406   6.552
10557TIP3   OH231623   1.657   5.485   6.324
10557TIP3    H131624   1.732   5.433   6.287
10557TIP3    H231625   1.692   5.576   6.310
10558TIP3   OH231626   0.758   5.212   6.576
10558TIP3    H131627   0.803   5.249   6.500
10558TIP3    H231628   0.704   5.288   6.604
10559TIP3   OH231629   1.275   5.394   6.534
10559TIP3    H131630   1.279   5.351   6.448
10559TIP3    H231631   1.265   5.317   6.595
10560TIP3   OH231632   1.311   5.317   6.099
10560TIP3    H131633   1.228   5.365   6.120
10560TIP3    H231634   1.295   5.232   6.144
10561TIP3   OH231635   0.733   5.399   6.174
10561TIP3    H131636   0.791   5.369   6.246
10561TIP3    H231637   0.736   5.495   6.190
10562TIP3   OH231638   1.287   6.964   5.778
10562TIP3    H131639   1.274   6.868   5.762
10562TIP3    H231640   1.241   7.001   5.699
10563TIP3   OH231641   1.578   5.558   7.457
10563TIP3    H131642   1.596   5.531   7.550
10563TIP3    H231643   1.668   5.554   7.418
10564TIP3   OH231644   2.778   6.480   5.724
10564TIP3    H131645   2.749   6.572   5.706
10564TIP3    H231646   2.700   6.431   5.694
10565TIP3   OH231647   2.778   6.478   6.111
10565TIP3    H131648   2.812   6.458   6.200
10565TIP3    H231649   2.735   6.395   6.086
10566TIP3   OH231650   2.072   6.373   6.475
10566TIP3    H131651   2.102   6.304   6.537
10566TIP3    H231652   2.153   6.426   6.467
10567TIP3   OH231653   3.022   6.783   5.792
10567TIP3    H131654   3.004   6.717   5.861
10567TIP3    H231655   3.050   6.860   5.844
10568TIP3   OH231656   2.049   6.785   6.200
10568TIP3    H131657   2.040   6.687   6.200
10568TIP3    H231658   2.145   6.794   6.188
10569TIP3   OH231659   1.754   5.984   5.980
10569TIP3    H131660   1.708   6.067   5.999
10569TIP3    H231661   1.682   5.934   5.936
10570TIP3   OH231662   1.810   6.273   6.158
10570TIP3    H131663   1.860   6.196   6.192
10570TIP3    H231664   1.873   6.313   6.096
10571TIP3   OH231665   2.670   7.237   5.813
10571TIP3    H131666   2.716   7.169   5.760
10571TIP3    H231667   2.674   7.199   5.901
10572TIP3   OH231668   2.574   6.707   6.159
10572TIP3    H131669   2.616   6.631   6.115
10572TIP3    H231670   2.656   6.754   6.186
10573TIP3   OH231671   3.591   6.026   6.157
10573TIP3    H131672   3.620   6.109   6.200
10573TIP3    H231673   3.609   6.045   6.063
10574TIP3   OH231674   2.988   6.206   6.188
10574TIP3    H131675   3.030   6.120   6.209
10574TIP3    H231676   2.955   6.188   6.097
10575TIP3   OH231677   2.328   5.867   6.153
10575TIP3    H131678   2.308   5.939   6.091
10575TIP3    H231679   2.279   5.793   6.110
10576TIP3   OH231680   3.022   5.959   5.774
10576TIP3    H131681   3.092   5.942   5.842
10576TIP3    H231682   3.077   5.993   5.701
10577TIP3   OH231683   1.959   6.068   6.261
10577TIP3    H131684   2.042   6.050   6.310
10577TIP3    H231685   1.974   6.012   6.182
10578TIP3   OH231686   2.399   6.265   6.058
10578TIP3    H131687   2.493   6.241   6.069
10578TIP3    H231688   2.361   6.181   6.024
10579TIP3   OH231689   3.663   6.235   6.325
10579TIP3    H131690   3.579   6.281   6.306
10579TIP3    H231691   3.678   6.265   6.416
10580TIP3   OH231692   2.323   5.850   6.588
10580TIP3    H131693   2.263   5.888   6.521
10580TIP3    H231694   2.271   5.867   6.670
10581TIP3   OH231695   2.670   6.705   5.592
10581TIP3    H131696   2.623   6.690   5.509
10581TIP3    H231697   2.625   6.786   5.624
10582TIP3   OH231698   2.428   6.625   6.382
10582TIP3    H131699   2.369   6.694   6.419
10582TIP3    H231700   2.472   6.675   6.309
10583TIP3   OH231701   3.228   5.962   5.952
10583TIP3    H131702   3.208   5.921   6.037
10583TIP3    H231703   3.278   6.041   5.980
10584TIP3   OH231704   2.193   5.965   6.372
10584TIP3    H131705   2.255   6.037   6.397
10584TIP3    H231706   2.243   5.925   6.297
10585TIP3   OH231707   2.256   6.820   6.482
10585TIP3    H131708   2.231   6.903   6.436
10585TIP3    H231709   2.177   6.808   6.539
10586TIP3   OH231710   1.645   6.510   5.717
10586TIP3    H131711   1.609   6.539   5.632
10586TIP3    H231712   1.680   6.595   5.753
10587TIP3   OH231713   3.089   7.033   5.954
10587TIP3    H131714   3.000   7.021   5.996
10587TIP3    H231715   3.076   7.117   5.906
10588TIP3   OH231716   3.383   5.924   6.321
10588TIP3    H131717   3.295   5.952   6.290
10588TIP3    H231718   3.442   5.958   6.251
10589TIP3   OH231719   2.675   5.565   6.305
10589TIP3    H131720   2.659   5.471   6.325
10589TIP3    H231721   2.598   5.606   6.351
10590TIP3   OH231722   2.793   7.065   5.633
10590TIP3    H131723   2.845   6.985   5.610
10590TIP3    H231724   2.851   7.133   5.593
10591TIP3   OH231725   2.939   6.849   5.538
10591TIP3    H131726   2.880   6.776   5.516
10591TIP3    H231727   2.977   6.820   5.623
10592TIP3   OH231728   3.317   6.936   6.302
10592TIP3    H131729   3.302   6.859   6.243
10592TIP3    H231730   3.296   7.012   6.243
10593TIP3   OH231731   2.606   6.330   5.560
10593TIP3    H131732   2.527   6.384   5.541
10593TIP3    H231733   2.652   6.330   5.474
10594TIP3   OH231734   2.565   6.118   5.271
10594TIP3    H131735   2.630   6.170   5.322
10594TIP3    H231736   2.625   6.056   5.225
10595TIP3   OH231737   3.512   6.577   6.147
10595TIP3    H131738   3.427   6.626   6.152
10595TIP3    H231739   3.541   6.603   6.057
10596TIP3   OH231740   2.957   6.414   5.529
10596TIP3    H131741   2.901   6.438   5.607
10596TIP3    H231742   3.041   6.391   5.574
10597TIP3   OH231743   3.189   6.452   6.446
10597TIP3    H131744   3.188   6.534   6.498
10597TIP3    H231745   3.103   6.459   6.400
10598TIP3   OH231746   2.187   6.411   5.949
10598TIP3    H131747   2.147   6.353   5.881
10598TIP3    H231748   2.264   6.358   5.979
10599TIP3   OH231749   2.314   6.818   6.099
10599TIP3    H131750   2.298   6.787   6.008
10599TIP3    H231751   2.405   6.784   6.116
10600TIP3   OH231752   2.320   6.384   6.302
10600TIP3    H131753   2.355   6.359   6.214
10600TIP3    H231754   2.366   6.469   6.320
10601TIP3   OH231755   2.850   7.020   6.080
10601TIP3    H131756   2.839   7.101   6.133
10601TIP3    H231757   2.833   6.949   6.146
10602TIP3   OH231758   2.483   6.915   6.623
10602TIP3    H131759   2.429   6.987   6.665
10602TIP3    H231760   2.412   6.867   6.576
10603TIP3   OH231761   2.795   6.272   5.357
10603TIP3    H131762   2.853   6.334   5.407
10603TIP3    H231763   2.821   6.293   5.264
10604TIP3   OH231764   2.218   6.485   6.722
10604TIP3    H131765   2.228   6.576   6.759
10604TIP3    H231766   2.124   6.469   6.742
10605TIP3   OH231767   2.540   6.950   5.633
10605TIP3    H131768   2.622   7.002   5.645
10605TIP3    H231769   2.481   7.015   5.591
10606TIP3   OH231770   2.279   7.087   6.675
10606TIP3    H131771   2.235   7.087   6.588
10606TIP3    H231772   2.207   7.077   6.738
10607TIP3   OH231773   3.311   5.511   5.406
10607TIP3    H131774   3.229   5.533   5.455
10607TIP3    H231775   3.326   5.594   5.357
10608TIP3   OH231776   2.055   6.255   5.750
10608TIP3    H131777   1.986   6.299   5.696
10608TIP3    H231778   2.016   6.168   5.763
10609TIP3   OH231779   3.110   6.881   4.949
10609TIP3    H131780   3.114   6.978   4.941
10609TIP3    H231781   3.202   6.856   4.926
10610TIP3   OH231782   1.840   6.648   6.659
10610TIP3    H131783   1.770   6.623   6.596
10610TIP3    H231784   1.875   6.560   6.687
10611TIP3   OH231785   1.686   6.826   6.292
10611TIP3    H131786   1.783   6.826   6.289
10611TIP3    H231787   1.668   6.911   6.334
10612TIP3   OH231788   3.559   7.285   6.350
10612TIP3    H131789   3.553   7.189   6.365
10612TIP3    H231790   3.473   7.314   6.390
10613TIP3   OH231791   2.660   7.060   6.473
10613TIP3    H131792   2.657   7.154   6.501
10613TIP3    H231793   2.598   7.019   6.537
10614TIP3   OH231794   2.421   7.192   5.436
10614TIP3    H131795   2.375   7.183   5.351
10614TIP3    H231796   2.394   7.281   5.466
10615TIP3   OH231797   1.859   7.049   5.820
10615TIP3    H131798   1.908   7.038   5.905
10615TIP3    H231799   1.799   6.973   5.824
10616TIP3   OH231800   2.619   7.099   5.073
10616TIP3    H131801   2.680   7.030   5.039
10616TIP3    H231802   2.653   7.111   5.165
10617TIP3   OH231803   2.672   7.145   5.341
10617TIP3    H131804   2.586   7.157   5.385
10617TIP3    H231805   2.730   7.125   5.417
10618TIP3   OH231806   3.444   6.413   6.624
10618TIP3    H131807   3.359   6.426   6.580
10618TIP3    H231808   3.458   6.317   6.613
10619TIP3   OH231809   2.035   6.840   6.648
10619TIP3    H131810   2.094   6.809   6.720
10619TIP3    H231811   1.963   6.772   6.653
10620TIP3   OH231812   2.436   5.649   6.425
10620TIP3    H131813   2.346   5.618   6.399
10620TIP3    H231814   2.410   5.728   6.477
10621TIP3   OH231815   2.973   5.759   6.629
10621TIP3    H131816   3.042   5.731   6.693
10621TIP3    H231817   2.890   5.740   6.676
10622TIP3   OH231818   3.210   6.190   6.546
10622TIP3    H131819   3.159   6.187   6.630
10622TIP3    H231820   3.187   6.278   6.511
10623TIP3   OH231821   2.872   6.314   5.101
10623TIP3    H131822   2.837   6.292   5.013
10623TIP3    H231823   2.952   6.364   5.078
10624TIP3   OH231824   2.583   5.692   5.405
10624TIP3    H131825   2.549   5.687   5.497
10624TIP3    H231826   2.543   5.610   5.369
10625TIP3   OH231827   2.370   6.161   6.450
10625TIP3    H131828   2.321   6.183   6.532
10625TIP3    H231829   2.354   6.243   6.397
10626TIP3   OH231830   2.254   6.047   5.965
10626TIP3    H131831   2.162   6.021   5.984
10626TIP3    H231832   2.266   6.005   5.876
10627TIP3   OH231833   2.745   6.131   5.694
10627TIP3    H131834   2.694   6.203   5.650
10627TIP3    H231835   2.800   6.098   5.621
10628TIP3   OH231836   2.920   6.404   6.772
10628TIP3    H131837   2.900   6.334   6.838
10628TIP3    H231838   3.010   6.430   6.799
10629TIP3   OH231839   2.900   6.158   5.932
10629TIP3    H131840   2.838   6.188   5.862
10629TIP3    H231841   2.935   6.079   5.886
10630TIP3   OH231842   2.188   6.188   6.659
10630TIP3    H131843   2.224   6.254   6.720
10630TIP3    H231844   2.182   6.108   6.714
10631TIP3   OH231845   2.239   5.667   5.369
10631TIP3    H131846   2.229   5.666   5.466
10631TIP3    H231847   2.162   5.722   5.344
10632TIP3   OH231848   1.783   5.708   6.242
10632TIP3    H131849   1.857   5.742   6.296
10632TIP3    H231850   1.826   5.681   6.160
10633TIP3   OH231851   1.749   5.690   5.760
10633TIP3    H131852   1.795   5.726   5.681
10633TIP3    H231853   1.689   5.765   5.778
10634TIP3   OH231854   2.909   6.403   6.352
10634TIP3    H131855   2.944   6.333   6.293
10634TIP3    H231856   2.880   6.349   6.429
10635TIP3   OH231857   2.584   5.867   6.025
10635TIP3    H131858   2.503   5.867   6.079
10635TIP3    H231859   2.654   5.863   6.093
10636TIP3   OH231860   2.016   5.925   6.034
10636TIP3    H131861   1.921   5.932   6.005
10636TIP3    H231862   2.039   5.834   6.011
10637TIP3   OH231863   2.282   5.918   5.724
10637TIP3    H131864   2.375   5.934   5.702
10637TIP3    H231865   2.234   5.940   5.640
10638TIP3   OH231866   3.074   5.943   6.226
10638TIP3    H131867   3.045   5.957   6.319
10638TIP3    H231868   3.004   5.884   6.194
10639TIP3   OH231869   2.131   5.954   5.501
10639TIP3    H131870   2.060   5.909   5.452
10639TIP3    H231871   2.182   5.992   5.426
10640TIP3   OH231872   3.241   7.635   6.444
10640TIP3    H131873   3.246   7.653   6.348
10640TIP3    H231874   3.326   7.673   6.475
10641TIP3   OH231875   2.210   6.738   6.838
10641TIP3    H131876   2.294   6.754   6.887
10641TIP3    H231877   2.148   6.738   6.915
10642TIP3   OH231878   2.663   6.197   6.123
10642TIP3    H131879   2.738   6.160   6.076
10642TIP3    H231880   2.669   6.154   6.210
10643TIP3   OH231881   2.183   5.684   6.005
10643TIP3    H131882   2.148   5.607   6.055
10643TIP3    H231883   2.232   5.641   5.934
10644TIP3   OH231884   2.641   6.097   6.412
10644TIP3    H131885   2.551   6.133   6.427
10644TIP3    H231886   2.698   6.158   6.463
10645TIP3   OH231887   2.378   6.483   5.508
10645TIP3    H131888   2.305   6.418   5.496
10645TIP3    H231889   2.357   6.518   5.599
10646TIP3   OH231890   3.277   6.718   6.136
10646TIP3    H131891   3.300   6.771   6.056
10646TIP3    H231892   3.192   6.677   6.109
10647TIP3   OH231893   2.834   5.795   5.373
10647TIP3    H131894   2.738   5.775   5.382
10647TIP3    H231895   2.842   5.889   5.399
10648TIP3   OH231896   2.776   6.799   6.508
10648TIP3    H131897   2.814   6.792   6.597
10648TIP3    H231898   2.738   6.889   6.509
10649TIP3   OH231899   2.903   6.044   5.476
10649TIP3    H131900   2.999   6.051   5.493
10649TIP3    H231901   2.884   6.126   5.426
10650TIP3   OH231902   2.068   6.505   6.182
10650TIP3    H131903   2.107   6.478   6.097
10650TIP3    H231904   2.118   6.449   6.244
10651TIP3   OH231905   2.522   6.633   5.330
10651TIP3    H131906   2.473   6.719   5.332
10651TIP3    H231907   2.468   6.579   5.392
10652TIP3   OH231908   1.945   6.429   6.795
10652TIP3    H131909   1.955   6.397   6.887
10652TIP3    H231910   1.873   6.371   6.764
10653TIP3   OH231911   2.679   6.533   6.813
10653TIP3    H131912   2.623   6.477   6.758
10653TIP3    H231913   2.769   6.504   6.783
10654TIP3   OH231914   2.936   7.056   6.395
10654TIP3    H131915   2.842   7.060   6.418
10654TIP3    H231916   2.975   7.104   6.472
10655TIP3   OH231917   3.345   6.137   5.310
10655TIP3    H131918   3.284   6.093   5.247
10655TIP3    H231919   3.341   6.227   5.272
10656TIP3   OH231920   3.567   6.994   6.391
10656TIP3    H131921   3.469   6.989   6.383
10656TIP3    H231922   3.592   6.963   6.300
10657TIP3   OH231923   3.055   6.952   5.221
10657TIP3    H131924   3.015   6.893   5.287
10657TIP3    H231925   3.055   6.900   5.140
10658TIP3   OH231926   3.043   6.584   6.051
10658TIP3    H131927   2.950   6.561   6.067
10658TIP3    H231928   3.075   6.502   6.007
10659TIP3   OH231929   2.173   6.813   5.809
10659TIP3    H131930   2.171   6.894   5.754
10659TIP3    H231931   2.079   6.794   5.819
10660TIP3   OH231932   1.737   6.114   5.514
10660TIP3    H131933   1.781   6.200   5.535
10660TIP3    H231934   1.660   6.118   5.576
10661TIP3   OH231935   2.304   6.574   5.750
10661TIP3    H131936   2.271   6.665   5.770
10661TIP3    H231937   2.270   6.525   5.827
10662TIP3   OH231938   2.440   7.158   6.277
10662TIP3    H131939   2.485   7.230   6.229
10662TIP3    H231940   2.515   7.121   6.327
10663TIP3   OH231941   2.091   7.051   5.660
10663TIP3    H131942   2.006   7.061   5.707
10663TIP3    H231943   2.125   7.143   5.663
10664TIP3   OH231944   2.824   6.785   6.240
10664TIP3    H131945   2.812   6.786   6.337
10664TIP3    H231946   2.909   6.740   6.232
10665TIP3   OH231947   2.805   6.683   5.118
10665TIP3    H131948   2.858   6.655   5.197
10665TIP3    H231949   2.716   6.657   5.146
10666TIP3   OH231950   3.077   7.319   6.282
10666TIP3    H131951   2.996   7.263   6.278
10666TIP3    H231952   3.059   7.382   6.209
10667TIP3   OH231953   3.144   7.158   4.939
10667TIP3    H131954   3.176   7.237   4.893
10667TIP3    H231955   3.061   7.196   4.976
10668TIP3   OH231956   2.162   5.933   6.806
10668TIP3    H131957   2.065   5.929   6.814
10668TIP3    H231958   2.190   5.870   6.874
10669TIP3   OH231959   2.966   6.606   5.328
10669TIP3    H131960   2.954   6.548   5.405
10669TIP3    H231961   3.063   6.609   5.323
10670TIP3   OH231962   1.892   6.990   6.432
10670TIP3    H131963   1.953   6.921   6.460
10670TIP3    H231964   1.908   7.057   6.500
10671TIP3   OH231965   2.169   6.661   5.120
10671TIP3    H131966   2.182   6.568   5.095
10671TIP3    H231967   2.149   6.653   5.215
10672TIP3   OH231968   2.113   6.667   5.391
10672TIP3    H131969   2.188   6.642   5.448
10672TIP3    H231970   2.115   6.765   5.399
10673TIP3   OH231971   1.846   6.359   5.597
10673TIP3    H131972   1.780   6.405   5.653
10673TIP3    H231973   1.859   6.428   5.528
10674TIP3   OH231974   3.005   5.993   6.486
10674TIP3    H131975   3.081   6.035   6.530
10674TIP3    H231976   2.989   5.914   6.542
10675TIP3   OH231977   2.883   5.744   5.656
10675TIP3    H131978   2.869   5.767   5.562
10675TIP3    H231979   2.921   5.827   5.692
10676TIP3   OH231980   2.379   6.862   5.338
10676TIP3    H131981   2.293   6.886   5.376
10676TIP3    H231982   2.399   6.942   5.287
10677TIP3   OH231983   2.566   5.929   5.756
10677TIP3    H131984   2.630   6.002   5.740
10677TIP3    H231985   2.572   5.919   5.853
10678TIP3   OH231986   2.837   6.243   6.561
10678TIP3    H131987   2.863   6.300   6.637
10678TIP3    H231988   2.891   6.164   6.575
10679TIP3   OH231989   2.710   5.649   5.855
10679TIP3    H131990   2.703   5.726   5.914
10679TIP3    H231991   2.772   5.683   5.787
10680TIP3   OH231992   2.125   6.938   5.410
10680TIP3    H131993   2.096   7.008   5.348
10680TIP3    H231994   2.110   6.982   5.497
10681TIP3   OH231995   2.224   5.655   5.645
10681TIP3    H131996   2.222   5.745   5.684
10681TIP3    H231997   2.320   5.636   5.653
10682TIP3   OH231998   3.477   6.145   6.544
10682TIP3    H131999   3.379   6.145   6.552
10682TIP3    H232000   3.486   6.102   6.458
10683TIP3   OH232001   3.129   6.338   5.930
10683TIP3    H132002   3.052   6.281   5.945
10683TIP3    H232003   3.200   6.292   5.980
10684TIP3   OH232004   1.842   6.565   5.400
10684TIP3    H132005   1.909   6.635   5.410
10684TIP3    H232006   1.887   6.509   5.333
10685TIP3   OH232007   1.783   5.844   5.536
10685TIP3    H132008   1.787   5.942   5.533
10685TIP3    H232009   1.705   5.826   5.484
10686TIP3   OH232010   3.092   7.308   5.862
10686TIP3    H132011   3.058   7.356   5.784
10686TIP3    H232012   3.188   7.317   5.848
10687TIP3   OH232013   2.171   5.564   6.407
10687TIP3    H132014   2.143   5.527   6.321
10687TIP3    H232015   2.163   5.486   6.466
10688TIP3   OH232016   1.707   6.774   5.782
10688TIP3    H132017   1.645   6.809   5.847
10688TIP3    H232018   1.676   6.819   5.700
10689TIP3   OH232019   2.331   6.864   5.028
10689TIP3    H132020   2.275   6.794   5.068
10689TIP3    H232021   2.407   6.812   4.999
10690TIP3   OH232022   3.016   7.182   6.619
10690TIP3    H132023   2.971   7.131   6.690
10690TIP3    H232024   3.055   7.255   6.671
10691TIP3   OH232025   2.768   6.903   4.945
10691TIP3    H132026   2.807   6.837   5.005
10691TIP3    H232027   2.826   6.899   4.866
10692TIP3   OH232028   2.002   6.710   7.016
10692TIP3    H132029   1.998   6.620   6.980
10692TIP3    H232030   1.918   6.748   6.986
10693TIP3   OH232031   1.978   6.380   5.255
10693TIP3    H132032   2.035   6.352   5.329
10693TIP3    H232033   2.044   6.386   5.183
10694TIP3   OH232034   2.615   6.805   6.835
10694TIP3    H132035   2.580   6.833   6.748
10694TIP3    H232036   2.646   6.714   6.818
10695TIP3   OH232037   2.493   6.582   5.062
10695TIP3    H132038   2.494   6.593   5.159
10695TIP3    H232039   2.492   6.484   5.055
10696TIP3   OH232040   3.098   6.827   6.438
10696TIP3    H132041   3.175   6.873   6.398
10696TIP3    H232042   3.029   6.895   6.427
10697TIP3   OH232043   2.135   6.453   7.024
10697TIP3    H132044   2.210   6.393   7.015
10697TIP3    H232045   2.073   6.407   7.083
10698TIP3   OH232046   2.183   6.288   5.474
10698TIP3    H132047   2.157   6.247   5.558
10698TIP3    H232048   2.221   6.211   5.425
10699TIP3   OH232049   2.452   6.345   6.700
10699TIP3    H132050   2.376   6.406   6.699
10699TIP3    H232051   2.507   6.381   6.626
10700TIP3   OH232052   2.287   6.081   5.315
10700TIP3    H132053   2.262   6.090   5.220
10700TIP3    H232054   2.385   6.083   5.308
10701TIP3   OH232055   2.963   6.738   6.834
10701TIP3    H132056   3.053   6.730   6.799
10701TIP3    H232057   2.966   6.681   6.913
10702TIP3   OH232058   3.109   6.410   4.980
10702TIP3    H132059   3.087   6.365   4.896
10702TIP3    H232060   3.073   6.500   4.960
10703TIP3   OH232061   2.575   6.141   6.832
10703TIP3    H132062   2.579   6.063   6.774
10703TIP3    H232063   2.533   6.207   6.773
10704TIP3   OH232064   2.580   5.929   6.640
10704TIP3    H132065   2.610   5.969   6.555
10704TIP3    H232066   2.488   5.904   6.619
10705TIP3   OH232067   2.603   6.458   6.511
10705TIP3    H132068   2.690   6.475   6.474
10705TIP3    H232069   2.547   6.524   6.466
10706TIP3   OH232070   3.188   6.426   6.888
10706TIP3    H132071   3.241   6.345   6.898
10706TIP3    H232072   3.254   6.489   6.856
10707TIP3   OH232073   3.229   6.676   6.619
10707TIP3    H132074   3.169   6.733   6.565
10707TIP3    H232075   3.316   6.703   6.581
10708TIP3   OH232076   2.442   6.248   7.064
10708TIP3    H132077   2.390   6.166   7.072
10708TIP3    H232078   2.485   6.234   6.977
10709TIP3   OH232079   2.713   5.688   6.705
10709TIP3    H132080   2.662   5.769   6.683
10709TIP3    H232081   2.644   5.619   6.693
10710TIP3   OH232082   2.840   6.189   6.921
10710TIP3    H132083   2.829   6.178   7.017
10710TIP3    H232084   2.750   6.165   6.891
10711TIP3   OH232085   3.076   6.136   6.774
10711TIP3    H132086   3.002   6.143   6.838
10711TIP3    H232087   3.151   6.111   6.831
10712TIP3   OH232088   3.308   6.085   6.924
10712TIP3    H132089   3.320   5.989   6.941
10712TIP3    H232090   3.302   6.122   7.015
10713TIP3   OH232091   2.295   6.024   7.120
10713TIP3    H132092   2.298   5.933   7.084
10713TIP3    H232093   2.337   6.009   7.207
10714TIP3   OH232094   2.807   5.699   6.962
10714TIP3    H132095   2.871   5.625   6.957
10714TIP3    H232096   2.766   5.693   6.874
10715TIP3   OH232097   2.873   5.913   7.123
10715TIP3    H132098   2.854   5.842   7.057
10715TIP3    H232099   2.795   5.970   7.115
10716TIP3   OH232100   2.093   7.139   5.222
10716TIP3    H132101   2.189   7.132   5.204
10716TIP3    H232102   2.067   7.193   5.145
10717TIP3   OH232103   1.573   6.523   5.437
10717TIP3    H132104   1.668   6.545   5.422
10717TIP3    H232105   1.567   6.435   5.396
10718TIP3   OH232106   1.513   7.117   5.831
10718TIP3    H132107   1.436   7.063   5.803
10718TIP3    H232108   1.551   7.061   5.902
10719TIP3   OH232109   1.628   6.980   6.043
10719TIP3    H132110   1.608   6.905   6.101
10719TIP3    H232111   1.657   7.044   6.110
10720TIP3   OH232112   3.360   7.366   5.840
10720TIP3    H132113   3.382   7.406   5.926
10720TIP3    H232114   3.374   7.439   5.779
10721TIP3   OH232115   3.380   7.405   6.120
10721TIP3    H132116   3.334   7.319   6.116
10721TIP3    H232117   3.451   7.382   6.182
10722TIP3   OH232118   3.426   7.082   6.696
10722TIP3    H132119   3.349   7.093   6.755
10722TIP3    H232120   3.466   7.171   6.703
10723TIP3   OH232121   3.247   6.596   5.314
10723TIP3    H132122   3.315   6.662   5.293
10723TIP3    H232123   3.286   6.554   5.395
10724TIP3   OH232124   3.371   6.463   5.518
10724TIP3    H132125   3.304   6.421   5.577
10724TIP3    H232126   3.435   6.500   5.582
10725TIP3   OH232127   3.429   6.859   5.951
10725TIP3    H132128   3.478   6.792   5.900
10725TIP3    H232129   3.425   6.934   5.888
10726TIP3   OH232130   3.255   7.156   6.143
10726TIP3    H132131   3.184   7.201   6.195
10726TIP3    H232132   3.203   7.112   6.072
10727TIP3   OH232133   3.309   6.372   5.162
10727TIP3    H132134   3.237   6.373   5.095
10727TIP3    H232135   3.279   6.447   5.218
10728TIP3   OH232136   3.182   6.044   5.113
10728TIP3    H132137   3.131   6.079   5.039
10728TIP3    H232138   3.159   5.949   5.107
10729TIP3   OH232139   3.185   6.322   5.662
10729TIP3    H132140   3.190   6.226   5.655
10729TIP3    H232141   3.169   6.335   5.758
10730TIP3   OH232142   1.809   6.394   6.410
10730TIP3    H132143   1.807   6.362   6.318
10730TIP3    H232144   1.906   6.397   6.426
10731TIP3   OH232145   3.475   6.747   6.520
10731TIP3    H132146   3.547   6.681   6.508
10731TIP3    H232147   3.499   6.816   6.456
10732TIP3   OH232148   3.659   6.548   6.527
10732TIP3    H132149   3.584   6.501   6.569
10732TIP3    H232150   3.731   6.484   6.545
10733TIP3   OH232151   3.122   5.779   5.099
10733TIP3    H132152   3.194   5.746   5.157
10733TIP3    H232153   3.048   5.720   5.121
10734TIP3   OH232154   3.181   6.038   5.556
10734TIP3    H132155   3.221   5.949   5.571
10734TIP3    H232156   3.240   6.070   5.485
10735TIP3   OH232157   3.341   6.207   6.053
10735TIP3    H132158   3.427   6.232   6.012
10735TIP3    H232159   3.354   6.246   6.141
10736TIP3   OH232160   3.412   6.355   6.281
10736TIP3    H132161   3.335   6.388   6.332
10736TIP3    H232162   3.444   6.437   6.238
10737TIP3   OH232163   2.031   6.074   7.078
10737TIP3    H132164   2.129   6.062   7.079
10737TIP3    H232165   2.004   5.990   7.121
10738TIP3   OH232166   3.863   5.948   6.838
10738TIP3    H132167   3.924   5.884   6.797
10738TIP3    H232168   3.832   6.000   6.761
10739TIP3   OH232169   3.290   5.788   5.593
10739TIP3    H132170   3.338   5.772   5.678
10739TIP3    H232171   3.229   5.712   5.593
10740TIP3   OH232172   1.988   5.774   6.417
10740TIP3    H132173   2.049   5.698   6.425
10740TIP3    H232174   2.052   5.847   6.406
10741TIP3   OH232175   1.790   6.046   6.486
10741TIP3    H132176   1.840   6.043   6.402
10741TIP3    H232177   1.820   6.130   6.523
10742TIP3   OH232178   3.732   6.084   6.642
10742TIP3    H132179   3.648   6.129   6.666
10742TIP3    H232180   3.696   6.012   6.586
10743TIP3   OH232181   3.368   5.720   5.229
10743TIP3    H132182   3.407   5.649   5.173
10743TIP3    H232183   3.436   5.789   5.226
10744TIP3   OH232184   1.776   5.548   5.987
10744TIP3    H132185   1.684   5.544   6.016
10744TIP3    H232186   1.771   5.608   5.910
10745TIP3   OH232187   2.930   7.245   5.488
10745TIP3    H132188   2.989   7.242   5.411
10745TIP3    H232189   2.961   7.327   5.532
10746TIP3   OH232190   1.998   5.638   6.807
10746TIP3    H132191   1.942   5.625   6.885
10746TIP3    H232192   1.931   5.668   6.742
10747TIP3   OH232193   2.207   7.088   6.406
10747TIP3    H132194   2.163   7.167   6.370
10747TIP3    H232195   2.296   7.099   6.366
10748TIP3   OH232196   2.659   7.331   6.525
10748TIP3    H132197   2.692   7.320   6.618
10748TIP3    H232198   2.735   7.379   6.486
10749TIP3   OH232199   2.848   7.496   6.412
10749TIP3    H132200   2.917   7.441   6.371
10749TIP3    H232201   2.899   7.538   6.485
10750TIP3   OH232202   3.633   5.848   6.523
10750TIP3    H132203   3.542   5.839   6.489
10750TIP3    H232204   3.665   5.755   6.514
10751TIP3   OH232205   2.092   7.328   6.315
10751TIP3    H132206   2.003   7.292   6.302
10751TIP3    H232207   2.102   7.380   6.233
10752TIP3   OH232208   2.554   7.350   6.105
10752TIP3    H132209   2.487   7.368   6.038
10752TIP3    H232210   2.560   7.437   6.150
10753TIP3   OH232211   2.823   7.292   6.158
10753TIP3    H132212   2.728   7.310   6.138
10753TIP3    H232213   2.866   7.366   6.112
10754TIP3   OH232214   3.029   7.485   6.067
10754TIP3    H132215   3.009   7.570   6.022
10754TIP3    H232216   3.050   7.427   5.991
10755TIP3   OH232217   1.834   7.145   6.214
10755TIP3    H132218   1.851   7.082   6.288
10755TIP3    H232219   1.887   7.101   6.144
10756TIP3   OH232220   1.999   7.008   6.050
10756TIP3    H132221   2.013   6.926   6.102
10756TIP3    H232222   2.089   7.046   6.049
10757TIP3   OH232223   2.263   7.105   6.065
10757TIP3    H132224   2.292   7.014   6.046
10757TIP3    H232225   2.322   7.125   6.141
10758TIP3   OH232226   2.836   5.762   6.143
10758TIP3    H132227   2.794   5.692   6.196
10758TIP3    H232228   2.912   5.715   6.103
10759TIP3   OH232229   3.358   5.640   6.045
10759TIP3    H132230   3.394   5.695   5.972
10759TIP3    H232231   3.263   5.662   6.042
10760TIP3   OH232232   3.454   5.742   5.810
10760TIP3    H132233   3.529   5.692   5.772
10760TIP3    H232234   3.487   5.834   5.797
10761TIP3   OH232235   2.085   5.471   6.157
10761TIP3    H132236   1.993   5.438   6.162
10761TIP3    H232237   2.133   5.385   6.154
10762TIP3   OH232238   1.872   5.343   5.807
10762TIP3    H132239   1.903   5.400   5.734
10762TIP3    H232240   1.847   5.410   5.875
10763TIP3   OH232241   2.531   5.503   6.041
10763TIP3    H132242   2.587   5.551   5.979
10763TIP3    H232243   2.556   5.541   6.126
10764TIP3   OH232244   3.074   5.652   6.022
10764TIP3    H132245   3.074   5.611   5.935
10764TIP3    H232246   3.063   5.573   6.081
10765TIP3   OH232247   3.106   5.576   5.586
10765TIP3    H132248   3.020   5.620   5.603
10765TIP3    H232249   3.091   5.490   5.631
10766TIP3   OH232250   1.590   6.912   5.584
10766TIP3    H132251   1.504   6.885   5.547
10766TIP3    H232252   1.583   7.008   5.575
10767TIP3   OH232253   1.992   5.500   5.569
10767TIP3    H132254   2.039   5.437   5.512
10767TIP3    H232255   2.065   5.554   5.605
10768TIP3   OH232256   2.501   5.678   5.669
10768TIP3    H132257   2.561   5.631   5.729
10768TIP3    H232258   2.523   5.771   5.694
10769TIP3   OH232259   2.360   7.099   5.168
10769TIP3    H132260   2.449   7.122   5.133
10769TIP3    H232261   2.340   7.024   5.108
10770TIP3   OH232262   3.083   7.223   5.259
10770TIP3    H132263   3.076   7.125   5.252
10770TIP3    H232264   3.031   7.252   5.182
10771TIP3   OH232265   2.291   5.756   7.055
10771TIP3    H132266   2.258   5.680   7.105
10771TIP3    H232267   2.386   5.753   7.080
10772TIP3   OH232268   2.543   5.753   7.169
10772TIP3    H132269   2.627   5.726   7.128
10772TIP3    H232270   2.531   5.682   7.236
10773TIP3   OH232271   1.664   6.936   5.222
10773TIP3    H132272   1.665   6.961   5.316
10773TIP3    H232273   1.753   6.895   5.210
10774TIP3   OH232274   3.370   5.813   6.956
10774TIP3    H132275   3.387   5.782   7.048
10774TIP3    H232276   3.459   5.807   6.917
10775TIP3   OH232277   3.313   7.367   6.434
10775TIP3    H132278   3.230   7.332   6.396
10775TIP3    H232279   3.285   7.458   6.454
10776TIP3   OH232280   4.575   6.737   5.212
10776TIP3    H132281   4.546   6.828   5.194
10776TIP3    H232282   4.497   6.687   5.182
10777TIP3   OH232283   4.573   6.735   5.598
10777TIP3    H132284   4.608   6.713   5.687
10777TIP3    H232285   4.531   6.652   5.572
10778TIP3   OH232286   3.872   6.629   5.959
10778TIP3    H132287   3.900   6.560   6.021
10778TIP3    H232288   3.947   6.689   5.964
10779TIP3   OH232289   4.817   7.043   5.278
10779TIP3    H132290   4.801   6.975   5.345
10779TIP3    H232291   4.846   7.118   5.332
10780TIP3   OH232292   3.845   7.042   5.680
10780TIP3    H132293   3.835   6.944   5.684
10780TIP3    H232294   3.942   7.051   5.681
10781TIP3   OH232295   3.552   6.243   5.465
10781TIP3    H132296   3.504   6.325   5.487
10781TIP3    H232297   3.480   6.190   5.426
10782TIP3   OH232298   3.607   6.530   5.644
10782TIP3    H132299   3.656   6.452   5.680
10782TIP3    H232300   3.671   6.567   5.582
10783TIP3   OH232301   4.464   7.501   5.292
10783TIP3    H132302   4.511   7.427   5.247
10783TIP3    H232303   4.455   7.467   5.382
10784TIP3   OH232304   4.371   6.963   5.645
10784TIP3    H132305   4.413   6.886   5.602
10784TIP3    H232306   4.453   7.010   5.671
10785TIP3   OH232307   5.386   6.281   5.643
10785TIP3    H132308   5.415   6.363   5.689
10785TIP3    H232309   5.412   6.300   5.552
10786TIP3   OH232310   4.785   6.464   5.674
10786TIP3    H132311   4.825   6.378   5.696
10786TIP3    H232312   4.751   6.446   5.584
10787TIP3   OH232313   4.125   6.123   5.639
10787TIP3    H132314   4.103   6.196   5.577
10787TIP3    H232315   4.076   6.050   5.597
10788TIP3   OH232316   4.819   6.215   5.262
10788TIP3    H132317   4.889   6.199   5.329
10788TIP3    H232318   4.873   6.250   5.189
10789TIP3   OH232319   3.756   6.325   5.747
10789TIP3    H132320   3.837   6.306   5.797
10789TIP3    H232321   3.771   6.268   5.669
10790TIP3   OH232322   4.196   6.522   5.541
10790TIP3    H132323   4.290   6.497   5.555
10790TIP3    H232324   4.157   6.437   5.510
10791TIP3   OH232325   5.455   6.487   5.818
10791TIP3    H132326   5.372   6.537   5.801
10791TIP3    H232327   5.489   6.534   5.897
10792TIP3   OH232328   4.118   6.106   6.076
10792TIP3    H132329   4.058   6.144   6.009
10792TIP3    H232330   4.066   6.122   6.157
10793TIP3   OH232331   4.466   6.960   5.082
10793TIP3    H132332   4.422   6.942   4.997
10793TIP3    H232333   4.420   7.043   5.108
10794TIP3   OH232334   4.226   6.883   5.868
10794TIP3    H132335   4.165   6.951   5.906
10794TIP3    H232336   4.267   6.932   5.794
10795TIP3   OH232337   5.026   6.218   5.439
10795TIP3    H132338   5.003   6.180   5.525
10795TIP3    H232339   5.076   6.297   5.465
10796TIP3   OH232340   3.990   6.222   5.859
10796TIP3    H132341   4.052   6.294   5.884
10796TIP3    H232342   4.040   6.182   5.784
10797TIP3   OH232343   4.055   7.079   5.968
10797TIP3    H132344   4.030   7.167   5.933
10797TIP3    H232345   3.975   7.060   6.023
10798TIP3   OH232346   3.452   6.773   5.189
10798TIP3    H132347   3.374   6.813   5.150
10798TIP3    H232348   3.487   6.852   5.238
10799TIP3   OH232349   4.880   7.280   5.434
10799TIP3    H132350   4.792   7.273   5.478
10799TIP3    H232351   4.873   7.369   5.394
10800TIP3   OH232352   5.178   6.177   5.805
10800TIP3    H132353   5.093   6.210   5.775
10800TIP3    H232354   5.240   6.214   5.738
10801TIP3   OH232355   4.471   5.823   5.792
10801TIP3    H132356   4.455   5.729   5.810
10801TIP3    H232357   4.395   5.863   5.839
10802TIP3   OH232358   4.587   7.325   5.114
10802TIP3    H132359   4.638   7.243   5.097
10802TIP3    H232360   4.651   7.390   5.077
10803TIP3   OH232361   4.735   7.111   5.024
10803TIP3    H132362   4.687   7.033   4.995
10803TIP3    H232363   4.773   7.080   5.109
10804TIP3   OH232364   5.095   7.191   5.783
10804TIP3    H132365   5.087   7.115   5.722
10804TIP3    H232366   5.083   7.268   5.722
10805TIP3   OH232367   4.405   6.586   5.048
10805TIP3    H132368   4.325   6.640   5.028
10805TIP3    H232369   4.450   6.585   4.962
10806TIP3   OH232370   4.361   6.376   4.759
10806TIP3    H132371   4.427   6.427   4.808
10806TIP3    H232372   4.420   6.313   4.712
10807TIP3   OH232373   5.309   6.833   5.632
10807TIP3    H132374   5.225   6.883   5.639
10807TIP3    H232375   5.335   6.856   5.540
10808TIP3   OH232376   4.753   6.670   5.016
10808TIP3    H132377   4.698   6.694   5.094
10808TIP3    H232378   4.837   6.647   5.059
10809TIP3   OH232379   4.985   6.709   5.931
10809TIP3    H132380   4.982   6.795   5.976
10809TIP3    H232381   4.897   6.710   5.887
10810TIP3   OH232382   3.986   6.667   5.434
10810TIP3    H132383   3.945   6.607   5.368
10810TIP3    H232384   4.062   6.614   5.466
10811TIP3   OH232385   4.118   7.081   5.582
10811TIP3    H132386   4.095   7.041   5.497
10811TIP3    H232387   4.206   7.044   5.600
10812TIP3   OH232388   4.123   6.638   5.788
10812TIP3    H132389   4.156   6.616   5.699
10812TIP3    H232390   4.165   6.725   5.806
10813TIP3   OH232391   4.645   7.277   5.566
10813TIP3    H132392   4.631   7.359   5.617
10813TIP3    H232393   4.628   7.207   5.631
10814TIP3   OH232394   4.258   7.196   6.115
10814TIP3    H132395   4.195   7.257   6.159
10814TIP3    H232396   4.195   7.142   6.062
10815TIP3   OH232397   4.590   6.530   4.843
10815TIP3    H132398   4.649   6.590   4.893
10815TIP3    H232399   4.618   6.550   4.750
10816TIP3   OH232400   4.013   6.750   6.215
10816TIP3    H132401   4.018   6.838   6.257
10816TIP3    H232402   3.919   6.728   6.232
10817TIP3   OH232403   4.335   7.207   5.107
10817TIP3    H132404   4.418   7.256   5.126
10817TIP3    H232405   4.274   7.279   5.086
10818TIP3   OH232406   4.053   7.362   6.202
10818TIP3    H132407   4.017   7.367   6.111
10818TIP3    H232408   3.973   7.339   6.255
10819TIP3   OH232409   5.104   5.768   4.892
10819TIP3    H132410   5.023   5.787   4.943
10819TIP3    H232411   5.119   5.854   4.848
10820TIP3   OH232412   3.850   6.507   5.237
10820TIP3    H132413   3.774   6.539   5.185
10820TIP3    H232414   3.821   6.418   5.261
10821TIP3   OH232415   4.904   7.119   4.445
10821TIP3    H132416   4.899   7.209   4.412
10821TIP3    H232417   4.998   7.095   4.429
10822TIP3   OH232418   3.631   6.895   6.147
10822TIP3    H132419   3.561   6.876   6.080
10822TIP3    H232420   3.667   6.806   6.166
10823TIP3   OH232421   3.481   7.088   5.784
10823TIP3    H132422   3.578   7.097   5.779
10823TIP3    H232423   3.457   7.172   5.827
10824TIP3   OH232424   5.285   7.492   5.791
10824TIP3    H132425   5.302   7.408   5.837
10824TIP3    H232426   5.220   7.535   5.850
10825TIP3   OH232427   4.456   7.320   5.973
10825TIP3    H132428   4.448   7.415   5.998
10825TIP3    H232429   4.383   7.281   6.026
10826TIP3   OH232430   4.217   7.451   4.919
10826TIP3    H132431   4.174   7.445   4.833
10826TIP3    H232432   4.186   7.537   4.952
10827TIP3   OH232433   3.655   7.302   5.309
10827TIP3    H132434   3.708   7.291   5.391
10827TIP3    H232435   3.574   7.255   5.335
10828TIP3   OH232436   4.406   7.348   4.578
10828TIP3    H132437   4.463   7.298   4.516
10828TIP3    H232438   4.461   7.356   4.657
10829TIP3   OH232439   4.475   7.406   4.844
10829TIP3    H132440   4.383   7.415   4.877
10829TIP3    H232441   4.520   7.369   4.922
10830TIP3   OH232442   5.245   6.677   6.091
10830TIP3    H132443   5.160   6.680   6.045
10830TIP3    H232444   5.263   6.580   6.092
10831TIP3   OH232445   3.836   7.077   6.130
10831TIP3    H132446   3.883   7.062   6.215
10831TIP3    H232447   3.760   7.015   6.139
10832TIP3   OH232448   4.235   5.902   5.921
10832TIP3    H132449   4.146   5.871   5.892
10832TIP3    H232450   4.208   5.982   5.970
10833TIP3   OH232451   4.770   6.015   6.115
10833TIP3    H132452   4.840   5.987   6.178
10833TIP3    H232453   4.687   5.996   6.163
10834TIP3   OH232454   5.003   6.444   6.030
10834TIP3    H132455   4.955   6.443   6.116
10834TIP3    H232456   4.982   6.533   5.996
10835TIP3   OH232457   4.669   6.570   4.589
10835TIP3    H132458   4.633   6.550   4.500
10835TIP3    H232459   4.751   6.618   4.564
10836TIP3   OH232460   4.381   5.947   4.893
10836TIP3    H132461   4.345   5.943   4.983
10836TIP3    H232462   4.339   5.867   4.855
10837TIP3   OH232463   4.168   6.417   5.939
10837TIP3    H132464   4.116   6.438   6.020
10837TIP3    H232465   4.152   6.499   5.886
10838TIP3   OH232466   4.049   6.304   5.451
10838TIP3    H132467   3.958   6.276   5.472
10838TIP3    H232468   4.061   6.261   5.363
10839TIP3   OH232469   4.542   6.388   5.182
10839TIP3    H132470   4.491   6.459   5.138
10839TIP3    H232471   4.596   6.354   5.108
10840TIP3   OH232472   4.718   6.668   6.269
10840TIP3    H132473   4.695   6.594   6.329
10840TIP3    H232474   4.814   6.673   6.282
10841TIP3   OH232475   4.697   6.415   5.418
10841TIP3    H132476   4.635   6.444   5.349
10841TIP3    H232477   4.731   6.335   5.374
10842TIP3   OH232478   3.987   6.445   6.146
10842TIP3    H132479   4.008   6.510   6.214
10842TIP3    H232480   3.975   6.363   6.198
10843TIP3   OH232481   4.037   5.925   4.856
10843TIP3    H132482   4.025   5.923   4.953
10843TIP3    H232483   3.958   5.977   4.829
10844TIP3   OH232484   3.579   5.966   5.726
10844TIP3    H132485   3.653   5.998   5.781
10844TIP3    H232486   3.622   5.934   5.646
10845TIP3   OH232487   3.547   5.947   5.246
10845TIP3    H132488   3.593   5.984   5.168
10845TIP3    H232489   3.486   6.021   5.265
10846TIP3   OH232490   4.707   6.661   5.839
10846TIP3    H132491   4.741   6.590   5.780
10846TIP3    H232492   4.677   6.606   5.915
10847TIP3   OH232493   4.381   6.124   5.512
10847TIP3    H132494   4.299   6.124   5.565
10847TIP3    H232495   4.449   6.120   5.581
10848TIP3   OH232496   3.813   6.183   5.518
10848TIP3    H132497   3.718   6.191   5.492
10848TIP3    H232498   3.833   6.089   5.498
10849TIP3   OH232499   4.078   6.176   5.211
10849TIP3    H132500   4.171   6.191   5.188
10849TIP3    H232501   4.030   6.197   5.127
10850TIP3   OH232502   4.867   6.201   5.712
10850TIP3    H132503   4.839   6.214   5.806
10850TIP3    H232504   4.798   6.141   5.681
10851TIP3   OH232505   3.926   6.214   4.988
10851TIP3    H132506   3.855   6.166   4.942
10851TIP3    H232507   3.977   6.250   4.912
10852TIP3   OH232508   3.999   6.999   6.354
10852TIP3    H132509   4.076   7.031   6.404
10852TIP3    H232510   3.932   6.996   6.425
10853TIP3   OH232511   4.459   6.455   5.611
10853TIP3    H132512   4.534   6.415   5.564
10853TIP3    H232513   4.463   6.411   5.698
10854TIP3   OH232514   3.981   5.940   5.493
10854TIP3    H132515   3.943   5.864   5.543
10854TIP3    H232516   4.027   5.894   5.421
10855TIP3   OH232517   4.437   6.355   5.896
10855TIP3    H132518   4.346   6.388   5.913
10855TIP3    H232519   4.493   6.415   5.949
10856TIP3   OH232520   4.176   6.736   4.994
10856TIP3    H132521   4.101   6.674   4.985
10856TIP3    H232522   4.155   6.776   5.083
10857TIP3   OH232523   5.073   6.972   5.619
10857TIP3    H132524   5.096   7.025   5.540
10857TIP3    H232525   4.988   6.931   5.592
10858TIP3   OH232526   4.630   6.052   4.858
10858TIP3    H132527   4.534   6.032   4.869
10858TIP3    H232528   4.637   6.146   4.885
10859TIP3   OH232529   4.571   7.059   5.992
10859TIP3    H132530   4.593   7.041   6.083
10859TIP3    H232531   4.533   7.149   5.996
10860TIP3   OH232532   4.699   6.301   4.963
10860TIP3    H132533   4.795   6.308   4.980
10860TIP3    H232534   4.680   6.383   4.913
10861TIP3   OH232535   3.867   6.763   5.670
10861TIP3    H132536   3.908   6.732   5.586
10861TIP3    H232537   3.908   6.704   5.735
10862TIP3   OH232538   4.320   6.890   4.822
10862TIP3    H132539   4.267   6.973   4.820
10862TIP3    H232540   4.267   6.835   4.884
10863TIP3   OH232541   3.751   6.679   6.282
10863TIP3    H132542   3.764   6.667   6.378
10863TIP3    H232543   3.678   6.617   6.265
10864TIP3   OH232544   4.473   6.800   6.301
10864TIP3    H132545   4.409   6.739   6.261
10864TIP3    H232546   4.558   6.761   6.273
10865TIP3   OH232547   4.731   7.318   5.892
10865TIP3    H132548   4.635   7.316   5.907
10865TIP3    H232549   4.761   7.370   5.969
10866TIP3   OH232550   5.142   6.390   4.795
10866TIP3    H132551   5.080   6.348   4.731
10866TIP3    H232552   5.139   6.481   4.758
10867TIP3   OH232553   5.338   7.237   5.878
10867TIP3    H132554   5.243   7.228   5.855
10867TIP3    H232555   5.380   7.211   5.793
10868TIP3   OH232556   4.853   7.206   4.710
10868TIP3    H132557   4.817   7.153   4.782
10868TIP3    H232558   4.851   7.145   4.635
10869TIP3   OH232559   4.838   6.840   5.538
10869TIP3    H132560   4.745   6.816   5.553
10869TIP3    H232561   4.871   6.759   5.495
10870TIP3   OH232562   3.966   7.066   5.291
10870TIP3    H132563   3.962   7.147   5.237
10870TIP3    H232564   3.875   7.060   5.322
10871TIP3   OH232565   3.531   6.368   5.003
10871TIP3    H132566   3.573   6.453   5.027
10871TIP3    H232567   3.453   6.370   5.062
10872TIP3   OH232568   4.101   6.830   5.235
10872TIP3    H132569   4.065   6.919   5.253
10872TIP3    H232570   4.070   6.781   5.313
10873TIP3   OH232571   4.237   7.413   5.762
10873TIP3    H132572   4.279   7.486   5.712
10873TIP3    H232573   4.314   7.376   5.808
10874TIP3   OH232574   3.884   7.300   5.135
10874TIP3    H132575   3.801   7.310   5.186
10874TIP3    H232576   3.919   7.391   5.140
10875TIP3   OH232577   4.622   7.044   5.724
10875TIP3    H132578   4.611   7.043   5.822
10875TIP3    H232579   4.704   6.994   5.714
10876TIP3   OH232580   4.605   6.932   4.607
10876TIP3    H132581   4.658   6.907   4.686
10876TIP3    H232582   4.516   6.915   4.639
10877TIP3   OH232583   4.863   7.584   5.778
10877TIP3    H132584   4.787   7.524   5.762
10877TIP3    H232585   4.855   7.644   5.700
10878TIP3   OH232586   3.956   6.187   6.290
10878TIP3    H132587   3.860   6.191   6.304
10878TIP3    H232588   3.985   6.132   6.364
10879TIP3   OH232589   4.763   6.867   4.821
10879TIP3    H132590   4.753   6.804   4.894
10879TIP3    H232591   4.860   6.867   4.811
10880TIP3   OH232592   3.682   7.270   5.919
10880TIP3    H132593   3.731   7.200   5.964
10880TIP3    H232594   3.696   7.345   5.976
10881TIP3   OH232595   3.644   6.613   5.079
10881TIP3    H132596   3.574   6.659   5.131
10881TIP3    H232597   3.702   6.686   5.056
10882TIP3   OH232598   4.799   6.250   5.973
10882TIP3    H132599   4.879   6.291   6.012
10882TIP3    H232600   4.786   6.171   6.029
10883TIP3   OH232601   4.683   5.999   5.142
10883TIP3    H132602   4.665   6.024   5.049
10883TIP3    H232603   4.719   6.083   5.179
10884TIP3   OH232604   4.160   7.110   4.802
10884TIP3    H132605   4.085   7.131   4.861
10884TIP3    H232606   4.191   7.200   4.780
10885TIP3   OH232607   4.363   6.186   5.243
10885TIP3    H132608   4.426   6.259   5.227
10885TIP3    H232609   4.368   6.176   5.340
10886TIP3   OH232610   4.635   6.501   6.048
10886TIP3    H132611   4.656   6.552   6.129
10886TIP3    H232612   4.688   6.420   6.061
10887TIP3   OH232613   4.506   5.907   5.342
10887TIP3    H132614   4.500   5.984   5.402
10887TIP3    H232615   4.569   5.941   5.275
10888TIP3   OH232616   3.878   7.166   4.877
10888TIP3    H132617   3.870   7.246   4.820
10888TIP3    H232618   3.876   7.208   4.966
10889TIP3   OH232619   4.020   5.911   5.132
10889TIP3    H132620   4.018   6.000   5.172
10889TIP3    H232621   4.116   5.893   5.140
10890TIP3   OH232622   5.272   6.404   6.039
10890TIP3    H132623   5.174   6.397   6.040
10890TIP3    H232624   5.292   6.372   5.951
10891TIP3   OH232625   4.924   6.597   5.418
10891TIP3    H132626   4.848   6.538   5.432
10891TIP3    H232627   4.996   6.551   5.466
10892TIP3   OH232628   3.581   6.100   5.020
10892TIP3    H132629   3.579   6.197   5.019
10892TIP3    H232630   3.498   6.077   4.977
10893TIP3   OH232631   4.896   7.553   5.365
10893TIP3    H132632   4.854   7.599   5.289
10893TIP3    H232633   4.991   7.569   5.345
10894TIP3   OH232634   3.971   5.821   5.892
10894TIP3    H132635   3.940   5.786   5.806
10894TIP3    H232636   3.960   5.743   5.951
10895TIP3   OH232637   3.494   7.023   5.274
10895TIP3    H132638   3.451   7.069   5.347
10895TIP3    H232639   3.462   7.075   5.196
10896TIP3   OH232640   3.672   7.585   6.339
10896TIP3    H132641   3.757   7.584   6.390
10896TIP3    H232642   3.648   7.491   6.341
10897TIP3   OH232643   4.145   7.541   6.397
10897TIP3    H132644   4.241   7.535   6.388
10897TIP3    H232645   4.115   7.481   6.326
10898TIP3   OH232646   4.127   7.112   4.513
10898TIP3    H132647   4.146   7.069   4.598
10898TIP3    H232648   4.202   7.080   4.459
10899TIP3   OH232649   4.796   7.444   6.129
10899TIP3    H132650   4.781   7.383   6.205
10899TIP3    H232651   4.893   7.451   6.131
10900TIP3   OH232652   4.555   7.158   4.433
10900TIP3    H132653   4.610   7.093   4.480
10900TIP3    H232654   4.607   7.180   4.354
10901TIP3   OH232655   3.797   6.990   6.546
10901TIP3    H132656   3.810   6.894   6.556
10901TIP3    H232657   3.710   6.994   6.501
10902TIP3   OH232658   3.816   6.718   4.755
10902TIP3    H132659   3.828   6.650   4.823
10902TIP3    H232660   3.858   6.669   4.679
10903TIP3   OH232661   4.402   7.076   6.320
10903TIP3    H132662   4.359   7.096   6.235
10903TIP3    H232663   4.430   6.982   6.308
10904TIP3   OH232664   4.275   6.838   4.556
10904TIP3    H132665   4.292   6.845   4.652
10904TIP3    H232666   4.280   6.741   4.544
10905TIP3   OH232667   4.892   7.084   5.930
10905TIP3    H132668   4.968   7.124   5.884
10905TIP3    H232669   4.824   7.152   5.914
10906TIP3   OH232670   3.918   6.726   6.529
10906TIP3    H132671   3.991   6.668   6.508
10906TIP3    H232672   3.944   6.759   6.618
10907TIP3   OH232673   3.969   6.548   4.959
10907TIP3    H132674   3.952   6.505   5.045
10907TIP3    H232675   4.010   6.475   4.909
10908TIP3   OH232676   4.253   6.611   6.192
10908TIP3    H132677   4.172   6.666   6.189
10908TIP3    H232678   4.304   6.645   6.114
10909TIP3   OH232679   4.082   6.344   4.802
10909TIP3    H132680   4.059   6.345   4.707
10909TIP3    H232681   4.180   6.341   4.796
10910TIP3   OH232682   4.775   7.012   6.325
10910TIP3    H132683   4.831   6.968   6.260
10910TIP3    H232684   4.767   6.945   6.396
10911TIP3   OH232685   4.903   6.664   4.468
10911TIP3    H132686   4.883   6.620   4.383
10911TIP3    H232687   4.867   6.754   4.447
10912TIP3   OH232688   4.375   6.398   6.313
10912TIP3    H132689   4.374   6.318   6.256
10912TIP3    H232690   4.329   6.464   6.257
10913TIP3   OH232691   4.377   6.183   6.124
10913TIP3    H132692   4.404   6.224   6.039
10913TIP3    H232693   4.283   6.160   6.106
10914TIP3   OH232694   4.401   6.716   5.996
10914TIP3    H132695   4.486   6.731   5.953
10914TIP3    H232696   4.343   6.782   5.951
10915TIP3   OH232697   4.991   6.686   6.370
10915TIP3    H132698   5.020   6.604   6.416
10915TIP3    H232699   5.076   6.717   6.337
10916TIP3   OH232700   5.024   6.941   6.113
10916TIP3    H132701   4.966   6.997   6.056
10916TIP3    H232702   5.110   6.955   6.066
10917TIP3   OH232703   4.254   6.503   6.548
10917TIP3    H132704   4.185   6.435   6.565
10917TIP3    H232705   4.286   6.477   6.460
10918TIP3   OH232706   4.508   5.943   6.191
10918TIP3    H132707   4.458   6.025   6.170
10918TIP3    H232708   4.439   5.875   6.182
10919TIP3   OH232709   4.633   6.449   6.408
10919TIP3    H132710   4.619   6.431   6.503
10919TIP3    H232711   4.544   6.426   6.375
10920TIP3   OH232712   4.872   6.404   6.262
10920TIP3    H132713   4.800   6.400   6.328
10920TIP3    H232714   4.949   6.370   6.313
10921TIP3   OH232715   5.101   6.330   6.397
10921TIP3    H132716   5.115   6.236   6.421
10921TIP3    H232717   5.094   6.375   6.484
10922TIP3   OH232718   4.092   6.284   6.602
10922TIP3    H132719   4.095   6.191   6.571
10922TIP3    H232720   4.129   6.274   6.692
10923TIP3   OH232721   4.602   5.956   6.450
10923TIP3    H132722   4.668   5.884   6.445
10923TIP3    H232723   4.562   5.949   6.361
10924TIP3   OH232724   4.672   6.173   6.605
10924TIP3    H132725   4.649   6.100   6.544
10924TIP3    H232726   4.591   6.228   6.602
10925TIP3   OH232727   3.884   7.381   4.700
10925TIP3    H132728   3.981   7.382   4.690
10925TIP3    H232729   3.861   7.446   4.630
10926TIP3   OH232730   3.368   6.783   4.887
10926TIP3    H132731   3.446   6.768   4.941
10926TIP3    H232732   3.349   6.691   4.856
10927TIP3   OH232733   3.315   7.372   5.304
10927TIP3    H132734   3.225   7.336   5.286
10927TIP3    H232735   3.331   7.333   5.392
10928TIP3   OH232736   3.434   7.235   5.521
10928TIP3    H132737   3.403   7.175   5.590
10928TIP3    H232738   3.480   7.301   5.576
10929TIP3   OH232739   5.155   7.635   5.325
10929TIP3    H132740   5.161   7.663   5.419
10929TIP3    H232741   5.194   7.713   5.282
10930TIP3   OH232742   5.166   7.661   5.600
10930TIP3    H132743   5.140   7.567   5.610
10930TIP3    H232744   5.239   7.664   5.665
10931TIP3   OH232745   5.040   6.852   4.800
10931TIP3    H132746   5.108   6.916   4.769
10931TIP3    H232747   5.085   6.815   4.879
10932TIP3   OH232748   5.167   6.720   5.003
10932TIP3    H132749   5.102   6.679   5.065
10932TIP3    H232750   5.234   6.757   5.064
10933TIP3   OH232751   5.225   7.115   5.437
10933TIP3    H132752   5.276   7.047   5.390
10933TIP3    H232753   5.220   7.187   5.371
10934TIP3   OH232754   5.041   7.407   5.623
10934TIP3    H132755   4.974   7.453   5.676
10934TIP3    H232756   4.989   7.364   5.553
10935TIP3   OH232757   5.102   6.624   4.653
10935TIP3    H132758   5.033   6.630   4.583
10935TIP3    H232759   5.076   6.702   4.708
10936TIP3   OH232760   4.979   6.295   4.599
10936TIP3    H132761   4.930   6.341   4.530
10936TIP3    H232762   4.954   6.202   4.582
10937TIP3   OH232763   4.979   6.580   5.150
10937TIP3    H132764   4.988   6.483   5.144
10937TIP3    H232765   4.964   6.594   5.246
10938TIP3   OH232766   3.606   6.647   5.898
10938TIP3    H132767   3.603   6.617   5.805
10938TIP3    H232768   3.704   6.650   5.913
10939TIP3   OH232769   5.263   6.989   5.980
10939TIP3    H132770   5.341   6.933   5.960
10939TIP3    H232771   5.293   7.076   5.945
10940TIP3   OH232772   5.470   6.813   6.011
10940TIP3    H132773   5.392   6.767   6.049
10940TIP3    H232774   5.538   6.744   6.028
10941TIP3   OH232775   4.923   6.024   4.573
10941TIP3    H132776   4.987   6.004   4.644
10941TIP3    H232777   4.841   5.980   4.601
10942TIP3   OH232778   4.977   6.293   5.042
10942TIP3    H132779   5.018   6.205   5.056
10942TIP3    H232780   5.036   6.328   4.973
10943TIP3   OH232781   5.136   6.464   5.538
10943TIP3    H132782   5.222   6.489   5.497
10943TIP3    H232783   5.150   6.502   5.627
10944TIP3   OH232784   5.207   6.613   5.768
10944TIP3    H132785   5.130   6.647   5.816
10944TIP3    H232786   5.241   6.694   5.723
10945TIP3   OH232787   3.826   6.335   6.570
10945TIP3    H132788   3.923   6.330   6.575
10945TIP3    H232789   3.801   6.249   6.609
10946TIP3   OH232790   5.674   6.211   6.321
10946TIP3    H132791   5.728   6.146   6.270
10946TIP3    H232792   5.633   6.264   6.249
10947TIP3   OH232793   5.088   6.043   5.079
10947TIP3    H132794   5.135   6.029   5.164
10947TIP3    H232795   5.025   5.969   5.080
10948TIP3   OH232796   3.786   6.029   5.898
10948TIP3    H132797   3.847   5.954   5.909
10948TIP3    H232798   3.848   6.104   5.893
10949TIP3   OH232799   3.587   6.301   5.973
10949TIP3    H132800   3.637   6.302   5.890
10949TIP3    H232801   3.610   6.387   6.011
10950TIP3   OH232802   5.521   6.337   6.136
10950TIP3    H132803   5.435   6.384   6.143
10950TIP3    H232804   5.494   6.266   6.074
10951TIP3   OH232805   5.164   5.976   4.718
10951TIP3    H132806   5.216   5.915   4.662
10951TIP3    H232807   5.224   6.053   4.723
10952TIP3   OH232808   3.573   5.805   5.474
10952TIP3    H132809   3.480   5.800   5.504
10952TIP3    H232810   3.566   5.865   5.397
10953TIP3   OH232811   4.742   7.503   4.981
10953TIP3    H132812   4.793   7.507   4.898
10953TIP3    H232813   4.778   7.577   5.033
10954TIP3   OH232814   3.793   5.885   6.288
10954TIP3    H132815   3.742   5.882   6.371
10954TIP3    H232816   3.726   5.924   6.228
10955TIP3   OH232817   3.834   7.312   6.365
10955TIP3    H132818   3.740   7.291   6.347
10955TIP3    H232819   3.839   7.298   6.460
10956TIP3   OH232820   4.014   7.349   5.914
10956TIP3    H132821   3.961   7.422   5.875
10956TIP3    H232822   4.098   7.366   5.867
10957TIP3   OH232823   4.448   7.591   6.037
10957TIP3    H132824   4.484   7.598   6.128
10957TIP3    H232825   4.516   7.642   5.988
10958TIP3   OH232826   4.640   7.741   5.910
10958TIP3    H132827   4.710   7.687   5.869
10958TIP3    H232828   4.690   7.817   5.943
10959TIP3   OH232829   5.428   6.104   6.009
10959TIP3    H132830   5.337   6.095   5.975
10959TIP3    H232831   5.460   6.012   6.000
10960TIP3   OH232832   3.687   7.604   5.939
10960TIP3    H132833   3.596   7.633   5.913
10960TIP3    H232834   3.694   7.648   6.025
10961TIP3   OH232835   3.922   7.582   5.796
10961TIP3    H132836   3.835   7.594   5.841
10961TIP3    H232837   3.903   7.615   5.706
10962TIP3   OH232838   4.349   7.610   5.593
10962TIP3    H132839   4.277   7.627   5.528
10962TIP3    H232840   4.359   7.698   5.634
10963TIP3   OH232841   4.617   7.546   5.645
10963TIP3    H132842   4.524   7.568   5.626
10963TIP3    H232843   4.663   7.621   5.603
10964TIP3   OH232844   4.817   7.738   5.560
10964TIP3    H132845   4.806   7.824   5.513
10964TIP3    H232846   4.849   7.681   5.486
10965TIP3   OH232847   3.604   7.400   5.674
10965TIP3    H132848   3.620   7.374   5.767
10965TIP3    H232849   3.677   7.352   5.630
10966TIP3   OH232850   3.796   7.266   5.537
10966TIP3    H132851   3.809   7.184   5.591
10966TIP3    H232852   3.887   7.303   5.537
10967TIP3   OH232853   4.060   7.360   5.546
10967TIP3    H132854   4.091   7.267   5.540
10967TIP3    H232855   4.105   7.387   5.628
10968TIP3   OH232856   4.633   6.018   5.630
10968TIP3    H132857   4.589   5.949   5.683
10968TIP3    H232858   4.708   5.971   5.590
10969TIP3   OH232859   5.154   5.892   5.527
10969TIP3    H132860   5.190   5.950   5.457
10969TIP3    H232861   5.060   5.918   5.529
10970TIP3   OH232862   5.253   5.997   5.294
10970TIP3    H132863   5.330   5.949   5.257
10970TIP3    H232864   5.285   6.090   5.282
10971TIP3   OH232865   3.881   5.728   5.643
10971TIP3    H132866   3.789   5.695   5.648
10971TIP3    H232867   3.929   5.642   5.640
10972TIP3   OH232868   3.670   5.600   5.296
10972TIP3    H132869   3.698   5.657   5.222
10972TIP3    H232870   3.643   5.666   5.363
10973TIP3   OH232871   4.328   5.758   5.527
10973TIP3    H132872   4.384   5.808   5.466
10973TIP3    H232873   4.350   5.799   5.612
10974TIP3   OH232874   4.870   5.908   5.510
10974TIP3    H132875   4.868   5.867   5.423
10974TIP3    H232876   4.858   5.830   5.569
10975TIP3   OH232877   4.903   5.831   5.073
10975TIP3    H132878   4.818   5.876   5.090
10975TIP3    H232879   4.887   5.746   5.119
10976TIP3   OH232880   3.394   7.164   5.065
10976TIP3    H132881   3.305   7.143   5.031
10976TIP3    H232882   3.384   7.259   5.082
10977TIP3   OH232883   3.788   5.757   5.055
10977TIP3    H132884   3.835   5.693   4.998
10977TIP3    H232885   3.862   5.810   5.091
10978TIP3   OH232886   4.298   5.935   5.155
10978TIP3    H132887   4.356   5.887   5.216
10978TIP3    H232888   4.320   6.027   5.181
10979TIP3   OH232889   4.151   7.356   4.655
10979TIP3    H132890   4.243   7.375   4.624
10979TIP3    H232891   4.129   7.287   4.589
10980TIP3   OH232892   4.892   7.473   4.738
10980TIP3    H132893   4.869   7.378   4.736
10980TIP3    H232894   4.836   7.508   4.665
10981TIP3   OH232895   4.090   6.010   6.536
10981TIP3    H132896   4.052   5.940   6.593
10981TIP3    H232897   4.183   6.008   6.566
10982TIP3   OH232898   4.339   6.005   6.656
10982TIP3    H132899   4.426   5.980   6.620
10982TIP3    H232900   4.326   5.936   6.724
10983TIP3   OH232901   3.468   7.212   4.727
10983TIP3    H132902   3.410   7.255   4.793
10983TIP3    H232903   3.542   7.185   4.783
10984TIP3   OH232904   5.166   6.065   6.438
10984TIP3    H132905   5.180   6.037   6.532
10984TIP3    H232906   5.257   6.060   6.403
10985TIP3   OH232907   5.096   7.633   5.926
10985TIP3    H132908   5.009   7.609   5.887
10985TIP3    H232909   5.094   7.729   5.924
10986TIP3   OH232910   6.375   6.994   4.700
10986TIP3    H132911   6.339   7.085   4.694
10986TIP3    H232912   6.299   6.942   4.671
10987TIP3   OH232913   6.354   7.128   5.002
10987TIP3    H132914   6.403   7.107   5.082
10987TIP3    H232915   6.336   7.040   4.961
10988TIP3   OH232916   5.660   6.884   5.447
10988TIP3    H132917   5.681   6.814   5.515
10988TIP3    H232918   5.748   6.923   5.436
10989TIP3   OH232919   5.646   7.296   5.191
10989TIP3    H132920   5.635   7.198   5.182
10989TIP3    H232921   5.729   7.308   5.140
10990TIP3   OH232922   5.344   6.491   4.957
10990TIP3    H132923   5.306   6.579   4.972
10990TIP3    H232924   5.270   6.448   4.911
10991TIP3   OH232925   5.403   6.789   5.127
10991TIP3    H132926   5.452   6.711   5.163
10991TIP3    H232927   5.464   6.819   5.059
10992TIP3   OH232928   6.112   7.223   5.107
10992TIP3    H132929   6.186   7.187   5.055
10992TIP3    H232930   6.157   7.266   5.180
10993TIP3   OH232931   6.610   6.725   5.149
10993TIP3    H132932   6.632   6.641   5.193
10993TIP3    H232933   6.545   6.695   5.082
10994TIP3   OH232934   5.923   6.375   5.121
10994TIP3    H132935   5.901   6.451   5.062
10994TIP3    H232936   5.865   6.305   5.080
10995TIP3   OH232937   6.608   6.469   4.747
10995TIP3    H132938   6.676   6.458   4.817
10995TIP3    H232939   6.663   6.512   4.679
10996TIP3   OH232940   5.546   6.581   5.233
10996TIP3    H132941   5.629   6.562   5.281
10996TIP3    H232942   5.561   6.528   5.152
10997TIP3   OH232943   5.973   6.785   5.031
10997TIP3    H132944   6.063   6.793   4.994
10997TIP3    H232945   5.943   6.697   4.997
10998TIP3   OH232946   5.840   6.310   5.567
10998TIP3    H132947   5.827   6.377   5.501
10998TIP3    H232948   5.795   6.352   5.646
10999TIP3   OH232949   6.270   7.225   4.573
10999TIP3    H132950   6.226   7.192   4.493
10999TIP3    H232951   6.212   7.301   4.596
11000TIP3   OH232952   6.023   7.113   5.389
11000TIP3    H132953   5.949   7.176   5.403
11000TIP3    H232954   6.091   7.174   5.354
11001TIP3   OH232955   6.811   6.466   4.920
11001TIP3    H132956   6.799   6.429   5.008
11001TIP3    H232957   6.902   6.499   4.918
11002TIP3   OH232958   5.782   6.474   5.339
11002TIP3    H132959   5.840   6.547   5.365
11002TIP3    H232960   5.834   6.433   5.268
11003TIP3   OH232961   5.805   7.286   5.412
11003TIP3    H132962   5.753   7.291   5.330
11003TIP3    H232963   5.736   7.261   5.475
11004TIP3   OH232964   5.242   7.018   4.690
11004TIP3    H132965   5.203   7.049   4.607
11004TIP3    H232966   5.269   7.103   4.730
11005TIP3   OH232967   7.022   6.462   5.250
11005TIP3    H132968   6.954   6.492   5.313
11005TIP3    H232969   6.976   6.463   5.166
11006TIP3   OH232970   6.266   6.079   5.277
11006TIP3    H132971   6.249   5.985   5.297
11006TIP3    H232972   6.189   6.120   5.322
11007TIP3   OH232973   6.389   7.586   4.576
11007TIP3    H132974   6.440   7.504   4.562
11007TIP3    H232975   6.398   7.631   4.491
11008TIP3   OH232976   6.536   7.351   4.528
11008TIP3    H132977   6.522   7.298   4.448
11008TIP3    H232978   6.494   7.294   4.595
11009TIP3   OH232979   6.204   6.847   4.532
11009TIP3    H132980   6.119   6.890   4.511
11009TIP3    H232981   6.243   6.837   4.444
11010TIP3   OH232982   6.177   6.649   4.233
11010TIP3    H132983   6.248   6.692   4.284
11010TIP3    H232984   6.222   6.570   4.199
11011TIP3   OH232985   6.551   6.936   4.500
11011TIP3    H132986   6.497   6.953   4.581
11011TIP3    H232987   6.635   6.905   4.541
11012TIP3   OH232988   5.771   6.937   4.920
11012TIP3    H132989   5.720   6.876   4.863
11012TIP3    H232990   5.842   6.878   4.955
11013TIP3   OH232991   5.871   7.338   5.056
11013TIP3    H132992   5.865   7.314   4.962
11013TIP3    H232993   5.955   7.292   5.083
11014TIP3   OH232994   5.902   6.896   5.275
11014TIP3    H132995   5.933   6.870   5.188
11014TIP3    H232996   5.956   6.974   5.297
11015TIP3   OH232997   6.398   6.784   4.332
11015TIP3    H132998   6.453   6.848   4.382
11015TIP3    H232999   6.422   6.807   4.238
11016TIP3   OH233000   5.779   7.011   5.696
11016TIP3    H133001   5.782   7.076   5.766
11016TIP3    H233002   5.693   6.968   5.710
11017TIP3   OH233003   6.131   7.459   4.604
11017TIP3    H133004   6.207   7.515   4.629
11017TIP3    H233005   6.066   7.524   4.573
11018TIP3   OH233006   6.902   6.023   4.376
11018TIP3    H133007   6.829   6.046   4.436
11018TIP3    H233008   6.918   6.108   4.331
11019TIP3   OH233009   5.623   6.767   4.756
11019TIP3    H133010   5.571   6.805   4.682
11019TIP3    H233011   5.655   6.686   4.713
11020TIP3   OH233012   6.706   7.392   3.933
11020TIP3    H133013   6.714   7.489   3.919
11020TIP3    H233014   6.799   7.364   3.921
11021TIP3   OH233015   5.427   7.149   5.631
11021TIP3    H133016   5.355   7.127   5.569
11021TIP3    H233017   5.458   7.061   5.661
11022TIP3   OH233018   5.277   7.348   5.262
11022TIP3    H133019   5.373   7.354   5.260
11022TIP3    H233020   5.252   7.429   5.310
11023TIP3   OH233021   6.013   7.707   4.404
11023TIP3    H133022   5.968   7.686   4.320
11023TIP3    H233023   5.978   7.796   4.424
11024TIP3   OH233024   5.443   7.550   4.797
11024TIP3    H133025   5.509   7.558   4.870
11024TIP3    H233026   5.382   7.489   4.841
11025TIP3   OH233027   6.211   7.608   4.048
11025TIP3    H133028   6.270   7.540   4.010
11025TIP3    H233029   6.258   7.631   4.131
11026TIP3   OH233030   6.265   7.650   4.330
11026TIP3    H133031   6.180   7.684   4.364
11026TIP3    H233032   6.260   7.559   4.362
11027TIP3   OH233033   5.617   7.341   5.627
11027TIP3    H133034   5.688   7.293   5.672
11027TIP3    H233035   5.544   7.274   5.627
11028TIP3   OH233036   6.032   6.153   5.401
11028TIP3    H133037   5.937   6.137   5.389
11028TIP3    H233038   6.032   6.245   5.427
11029TIP3   OH233039   6.563   6.264   5.599
11029TIP3    H133040   6.615   6.295   5.675
11029TIP3    H233041   6.483   6.230   5.643
11030TIP3   OH233042   6.464   6.831   4.075
11030TIP3    H133043   6.428   6.807   3.988
11030TIP3    H233044   6.548   6.873   4.048
11031TIP3   OH233045   6.173   6.205   4.376
11031TIP3    H133046   6.143   6.201   4.469
11031TIP3    H233047   6.134   6.121   4.343
11032TIP3   OH233048   5.942   6.671   5.427
11032TIP3    H133049   5.907   6.692   5.506
11032TIP3    H233050   5.927   6.757   5.371
11033TIP3   OH233051   5.847   6.554   4.933
11033TIP3    H133052   5.754   6.533   4.952
11033TIP3    H233053   5.857   6.512   4.845
11034TIP3   OH233054   6.335   6.646   4.665
11034TIP3    H133055   6.286   6.720   4.621
11034TIP3    H233056   6.391   6.613   4.592
11035TIP3   OH233057   6.466   6.663   4.900
11035TIP3    H133058   6.419   6.681   4.817
11035TIP3    H233059   6.516   6.585   4.871
11036TIP3   OH233060   5.754   6.692   5.639
11036TIP3    H133061   5.830   6.733   5.687
11036TIP3    H233062   5.746   6.609   5.686
11037TIP3   OH233063   5.794   6.171   4.351
11037TIP3    H133064   5.804   6.166   4.448
11037TIP3    H233065   5.764   6.263   4.341
11038TIP3   OH233066   5.381   6.218   5.212
11038TIP3    H133067   5.446   6.254   5.276
11038TIP3    H233068   5.435   6.204   5.133
11039TIP3   OH233069   5.343   6.200   4.730
11039TIP3    H133070   5.378   6.238   4.646
11039TIP3    H233071   5.284   6.274   4.756
11040TIP3   OH233072   6.172   6.381   4.993
11040TIP3    H133073   6.088   6.370   5.042
11040TIP3    H233074   6.230   6.417   5.062
11041TIP3   OH233075   5.607   6.438   5.008
11041TIP3    H133076   5.514   6.446   4.977
11041TIP3    H233077   5.632   6.347   4.983
11042TIP3   OH233078   5.886   6.423   4.694
11042TIP3    H133079   5.980   6.444   4.682
11042TIP3    H233080   5.845   6.476   4.620
11043TIP3   OH233081   6.682   6.437   5.196
11043TIP3    H133082   6.657   6.455   5.289
11043TIP3    H233083   6.615   6.371   5.172
11044TIP3   OH233084   6.263   6.833   5.000
11044TIP3    H133085   6.319   6.767   4.954
11044TIP3    H233086   6.251   6.788   5.084
11045TIP3   OH233087   5.768   6.200   4.975
11045TIP3    H133088   5.740   6.120   5.024
11045TIP3    H233089   5.820   6.164   4.902
11046TIP3   OH233090   6.223   6.721   5.547
11046TIP3    H133091   6.248   6.645   5.485
11046TIP3    H233092   6.228   6.794   5.505
11047TIP3   OH233093   5.966   6.994   4.481
11047TIP3    H133094   5.906   6.918   4.481
11047TIP3    H233095   5.948   7.032   4.570
11048TIP3   OH233096   6.427   6.306   4.347
11048TIP3    H133097   6.330   6.291   4.353
11048TIP3    H233098   6.437   6.401   4.371
11049TIP3   OH233099   6.497   6.555   4.451
11049TIP3    H133100   6.593   6.562   4.467
11049TIP3    H233101   6.478   6.637   4.401
11050TIP3   OH233102   5.661   7.026   5.156
11050TIP3    H133103   5.697   6.999   5.069
11050TIP3    H233104   5.708   6.966   5.216
11051TIP3   OH233105   6.115   7.146   4.306
11051TIP3    H133106   6.066   7.231   4.309
11051TIP3    H233107   6.059   7.090   4.365
11052TIP3   OH233108   5.528   6.930   5.771
11052TIP3    H133109   5.523   6.900   5.864
11052TIP3    H233110   5.465   6.868   5.728
11053TIP3   OH233111   6.939   6.652   4.283
11053TIP3    H133112   6.877   6.607   4.220
11053TIP3    H233113   6.933   6.742   4.243
11054TIP3   OH233114   6.629   7.465   4.194
11054TIP3    H133115   6.623   7.384   4.245
11054TIP3    H233116   6.653   7.433   4.106
11055TIP3   OH233117   5.767   7.328   4.787
11055TIP3    H133118   5.764   7.408   4.730
11055TIP3    H233119   5.673   7.305   4.791
11056TIP3   OH233120   5.321   6.625   4.483
11056TIP3    H133121   5.380   6.700   4.506
11056TIP3    H233122   5.254   6.631   4.554
11057TIP3   OH233123   5.899   7.090   4.722
11057TIP3    H133124   5.867   7.179   4.746
11057TIP3    H233125   5.868   7.038   4.798
11058TIP3   OH233126   5.679   7.560   4.634
11058TIP3    H133127   5.595   7.573   4.681
11058TIP3    H233128   5.709   7.654   4.625
11059TIP3   OH233129   6.398   7.196   4.094
11059TIP3    H133130   6.449   7.172   4.174
11059TIP3    H233131   6.310   7.164   4.118
11060TIP3   OH233132   6.737   7.664   3.918
11060TIP3    H133133   6.767   7.713   3.839
11060TIP3    H233134   6.664   7.721   3.949
11061TIP3   OH233135   5.745   6.447   5.783
11061TIP3    H133136   5.653   6.452   5.816
11061TIP3    H233137   5.792   6.410   5.860
11062TIP3   OH233138   6.558   7.141   4.315
11062TIP3    H133139   6.546   7.069   4.381
11062TIP3    H233140   6.653   7.128   4.296
11063TIP3   OH233141   5.484   7.530   5.403
11063TIP3    H133142   5.511   7.447   5.444
11063TIP3    H233143   5.474   7.588   5.479
11064TIP3   OH233144   5.761   7.173   4.096
11064TIP3    H133145   5.772   7.080   4.068
11064TIP3    H233146   5.739   7.162   4.190
11065TIP3   OH233147   5.703   7.182   4.370
11065TIP3    H133148   5.782   7.153   4.418
11065TIP3    H233149   5.710   7.280   4.376
11066TIP3   OH233150   5.439   6.871   4.562
11066TIP3    H133151   5.376   6.912   4.624
11066TIP3    H233152   5.450   6.942   4.497
11067TIP3   OH233153   6.574   6.500   5.439
11067TIP3    H133154   6.615   6.569   5.495
11067TIP3    H233155   6.573   6.424   5.499
11068TIP3   OH233156   6.479   6.254   4.629
11068TIP3    H133157   6.462   6.278   4.535
11068TIP3    H233158   6.517   6.337   4.665
11069TIP3   OH233159   5.974   7.378   4.313
11069TIP3    H133160   5.888   7.402   4.352
11069TIP3    H233161   5.984   7.449   4.248
11070TIP3   OH233162   6.163   6.438   4.725
11070TIP3    H133163   6.223   6.514   4.707
11070TIP3    H233164   6.168   6.432   4.822
11071TIP3   OH233165   6.300   6.167   4.831
11071TIP3    H133166   6.285   6.246   4.886
11071TIP3    H233167   6.364   6.202   4.765
11072TIP3   OH233168   5.719   7.453   4.383
11072TIP3    H133169   5.689   7.524   4.322
11072TIP3    H233170   5.704   7.497   4.470
11073TIP3   OH233171   5.829   6.166   4.622
11073TIP3    H133172   5.823   6.260   4.651
11073TIP3    H233173   5.926   6.154   4.629
11074TIP3   OH233174   6.707   6.811   4.869
11074TIP3    H133175   6.621   6.782   4.901
11074TIP3    H233176   6.755   6.830   4.951
11075TIP3   OH233177   5.438   7.082   4.370
11075TIP3    H133178   5.514   7.142   4.379
11075TIP3    H233179   5.478   7.017   4.307
11076TIP3   OH233180   5.353   6.335   4.491
11076TIP3    H133181   5.415   6.409   4.478
11076TIP3    H233182   5.269   6.382   4.480
11077TIP3   OH233183   5.767   6.073   5.373
11077TIP3    H133184   5.734   6.038   5.288
11077TIP3    H233185   5.757   5.996   5.433
11078TIP3   OH233186   5.279   7.280   4.748
11078TIP3    H133187   5.241   7.332   4.820
11078TIP3    H233188   5.308   7.345   4.683
11079TIP3   OH233189   5.923   7.375   4.004
11079TIP3    H133190   5.866   7.303   4.041
11079TIP3    H233191   5.999   7.324   3.974
11080TIP3   OH233192   6.359   7.417   3.919
11080TIP3    H133193   6.402   7.353   3.979
11080TIP3    H233194   6.416   7.413   3.840
11081TIP3   OH233195   5.564   6.888   4.227
11081TIP3    H133196   5.604   6.821   4.285
11081TIP3    H233197   5.636   6.900   4.161
11082TIP3   OH233198   6.085   7.096   4.035
11082TIP3    H133199   6.085   7.104   4.132
11082TIP3    H233200   6.084   6.998   4.026
11083TIP3   OH233201   5.982   6.823   5.705
11083TIP3    H133202   5.939   6.911   5.681
11083TIP3    H233203   6.051   6.811   5.643
11084TIP3   OH233204   6.697   6.923   3.955
11084TIP3    H133205   6.677   6.879   3.870
11084TIP3    H233206   6.663   7.013   3.934
11085TIP3   OH233207   6.091   6.554   5.780
11085TIP3    H133208   6.098   6.544   5.873
11085TIP3    H233209   6.147   6.634   5.763
11086TIP3   OH233210   6.166   6.395   5.543
11086TIP3    H133211   6.111   6.472   5.575
11086TIP3    H233212   6.118   6.324   5.578
11087TIP3   OH233213   6.297   6.666   5.216
11087TIP3    H133214   6.262   6.680   5.303
11087TIP3    H233215   6.357   6.588   5.230
11088TIP3   OH233216   6.307   6.180   5.678
11088TIP3    H133217   6.262   6.270   5.656
11088TIP3    H233218   6.245   6.117   5.649
11089TIP3   OH233219   5.874   6.549   6.091
11089TIP3    H133220   5.897   6.456   6.070
11089TIP3    H233221   5.898   6.556   6.184
11090TIP3   OH233222   6.381   6.186   5.939
11090TIP3    H133223   6.458   6.128   5.919
11090TIP3    H233224   6.339   6.183   5.852
11091TIP3   OH233225   5.686   7.654   4.196
11091TIP3    H133226   5.782   7.646   4.179
11091TIP3    H233227   5.661   7.708   4.119
11092TIP3   OH233228   5.167   7.044   4.405
11092TIP3    H133229   5.262   7.062   4.390
11092TIP3    H233230   5.159   6.953   4.369
11093TIP3   OH233231   5.095   7.639   4.813
11093TIP3    H133232   5.015   7.587   4.786
11093TIP3    H233233   5.127   7.586   4.889
11094TIP3   OH233234   5.224   7.489   5.006
11094TIP3    H133235   5.200   7.427   5.077
11094TIP3    H233236   5.270   7.556   5.060
11095TIP3   OH233237   6.830   7.113   4.281
11095TIP3    H133238   6.897   7.176   4.247
11095TIP3    H233239   6.877   7.077   4.360
11096TIP3   OH233240   6.961   6.989   4.488
11096TIP3    H133241   6.891   6.934   4.531
11096TIP3    H233242   7.001   7.030   4.566
11097TIP3   OH233243   6.899   6.886   4.137
11097TIP3    H133244   6.828   6.887   4.068
11097TIP3    H233245   6.870   6.962   4.191
11098TIP3   OH233246   6.773   6.558   4.088
11098TIP3    H133247   6.725   6.593   4.013
11098TIP3    H233248   6.751   6.463   4.081
11099TIP3   OH233249   6.779   6.829   4.611
11099TIP3    H133250   6.789   6.734   4.600
11099TIP3    H233251   6.759   6.833   4.709
11100TIP3   OH233252   5.398   6.908   5.380
11100TIP3    H133253   5.397   6.874   5.288
11100TIP3    H233254   5.495   6.909   5.397
11101TIP3   OH233255   6.716   6.292   4.071
11101TIP3    H133256   6.790   6.261   4.128
11101TIP3    H233257   6.643   6.232   4.095
11102TIP3   OH233258   6.775   6.554   4.525
11102TIP3    H133259   6.812   6.465   4.542
11102TIP3    H233260   6.836   6.585   4.456
11103TIP3   OH233261   5.611   6.583   6.038
11103TIP3    H133262   5.709   6.590   6.046
11103TIP3    H233263   5.596   6.505   6.095
11104TIP3   OH233264   6.880   6.304   4.567
11104TIP3    H133265   6.930   6.290   4.650
11104TIP3    H233266   6.821   6.227   4.568
11105TIP3   OH233267   5.579   6.283   5.390
11105TIP3    H133268   5.644   6.212   5.410
11105TIP3    H233269   5.638   6.359   5.382
11106TIP3   OH233270   5.381   6.559   5.458
11106TIP3    H133271   5.430   6.560   5.373
11106TIP3    H233272   5.417   6.636   5.503
11107TIP3   OH233273   6.958   6.234   4.202
11107TIP3    H133274   7.001   6.164   4.149
11107TIP3    H233275   7.025   6.305   4.202
11108TIP3   OH233276   5.360   6.043   4.954
11108TIP3    H133277   5.273   6.055   4.996
11108TIP3    H233278   5.360   6.113   4.885
11109TIP3   OH233279   5.587   6.135   5.773
11109TIP3    H133280   5.537   6.138   5.856
11109TIP3    H233281   5.524   6.179   5.713
11110TIP3   OH233282   5.397   7.649   5.157
11110TIP3    H133283   5.419   7.628   5.250
11110TIP3    H233284   5.473   7.606   5.112
11111TIP3   OH233285   5.592   7.519   5.021
11111TIP3    H133286   5.610   7.443   5.080
11111TIP3    H233287   5.681   7.563   5.020
11112TIP3   OH233288   5.849   7.612   5.035
11112TIP3    H133289   5.875   7.519   5.024
11112TIP3    H233290   5.907   7.640   5.107
11113TIP3   OH233291   6.436   6.274   5.127
11113TIP3    H133292   6.383   6.205   5.171
11113TIP3    H233293   6.502   6.223   5.078
11114TIP3   OH233294   6.951   6.146   5.021
11114TIP3    H133295   6.987   6.189   4.940
11114TIP3    H233296   6.857   6.166   5.012
11115TIP3   OH233297   7.043   6.263   4.785
11115TIP3    H133298   7.108   6.198   4.750
11115TIP3    H233299   7.094   6.346   4.771
11116TIP3   OH233300   5.678   5.980   5.121
11116TIP3    H133301   5.586   5.948   5.134
11116TIP3    H233302   5.726   5.895   5.123
11117TIP3   OH233303   5.470   5.865   4.782
11117TIP3    H133304   5.514   5.947   4.757
11117TIP3    H233305   5.418   5.901   4.858
11118TIP3   OH233306   6.124   6.013   5.015
11118TIP3    H133307   6.178   6.066   4.954
11118TIP3    H233308   6.144   6.056   5.100
11119TIP3   OH233309   6.669   6.163   4.993
11119TIP3    H133310   6.645   6.134   4.904
11119TIP3    H233311   6.660   6.080   5.046
11120TIP3   OH233312   6.698   6.087   4.566
11120TIP3    H133313   6.614   6.137   4.579
11120TIP3    H233314   6.680   6.005   4.614
11121TIP3   OH233315   5.120   7.430   4.532
11121TIP3    H133316   5.075   7.377   4.600
11121TIP3    H233317   5.151   7.506   4.584
11122TIP3   OH233318   6.102   6.186   4.641
11122TIP3    H133319   6.164   6.150   4.707
11122TIP3    H233320   6.116   6.282   4.660
11123TIP3   OH233321   5.952   7.610   4.142
11123TIP3    H133322   6.041   7.632   4.108
11123TIP3    H233323   5.930   7.536   4.080
11124TIP3   OH233324   6.663   7.733   4.272
11124TIP3    H133325   6.659   7.638   4.249
11124TIP3    H233326   6.635   7.772   4.187
11125TIP3   OH233327   5.875   6.262   6.016
11125TIP3    H133328   5.835   6.196   6.074
11125TIP3    H233329   5.970   6.252   6.042
11126TIP3   OH233330   6.121   6.222   6.126
11126TIP3    H133331   6.217   6.210   6.122
11126TIP3    H233332   6.100   6.182   6.213
11127TIP3   OH233333   7.116   6.748   4.473
11127TIP3    H133334   7.079   6.838   4.466
11127TIP3    H233335   7.064   6.700   4.407
11128TIP3   OH233336   7.024   7.284   4.168
11128TIP3    H133337   6.990   7.302   4.078
11128TIP3    H233338   7.048   7.373   4.196
11129TIP3   OH233339   7.453   7.010   4.172
11129TIP3    H133340   7.367   7.047   4.145
11129TIP3    H233341   7.428   6.940   4.234
11130TIP3   OH233342   7.939   6.474   3.821
11130TIP3    H133343   7.953   6.491   3.915
11130TIP3    H233344   7.910   6.380   3.825
11131TIP3   OH233345   7.611   6.424   3.824
11131TIP3    H133346   7.620   6.426   3.921
11131TIP3    H233347   7.543   6.492   3.811
11132TIP3   OH233348   7.198   6.473   4.705
11132TIP3    H133349   7.241   6.560   4.713
11132TIP3    H233350   7.217   6.449   4.613
11133TIP3   OH233351   7.135   6.455   4.215
11133TIP3    H133352   7.196   6.490   4.147
11133TIP3    H233353   7.083   6.535   4.235
11134TIP3   OH233354   7.410   6.703   4.413
11134TIP3    H133355   7.335   6.701   4.474
11134TIP3    H233356   7.452   6.615   4.427
11135TIP3   OH233357   7.712   6.669   4.152
11135TIP3    H133358   7.738   6.754   4.190
11135TIP3    H233359   7.632   6.693   4.101
11136TIP3   OH233360   7.511   6.718   3.970
11136TIP3    H133361   7.434   6.684   3.922
11136TIP3    H233362   7.566   6.751   3.896
11137TIP3   OH233363   7.547   6.465   4.458
11137TIP3    H133364   7.528   6.387   4.513
11137TIP3    H233365   7.631   6.441   4.417
11138TIP3   OH233366   7.122   6.884   3.973
11138TIP3    H133367   7.170   6.966   3.996
11138TIP3    H233368   7.048   6.888   4.038
11139TIP3   OH233369   7.228   7.128   4.058
11139TIP3    H133370   7.163   7.176   4.113
11139TIP3    H233371   7.247   7.197   3.991
11140TIP3   OH233372   7.616   6.411   4.098
11140TIP3    H133373   7.624   6.502   4.133
11140TIP3    H233374   7.709   6.384   4.106
11141TIP3   OH233375   7.237   7.336   3.867
11141TIP3    H133376   7.286   7.420   3.854
11141TIP3    H233377   7.280   7.282   3.798
11142TIP3   OH233378   7.177   6.614   3.985
11142TIP3    H133379   7.179   6.711   3.988
11142TIP3    H233380   7.085   6.597   3.961
11143TIP3   OH233381   7.367   7.144   3.711
11143TIP3    H133382   7.416   7.109   3.789
11143TIP3    H233383   7.440   7.171   3.654
11144TIP3   OH233384   7.531   7.052   3.909
11144TIP3    H133385   7.509   7.034   4.003
11144TIP3    H233386   7.578   6.970   3.884
11145TIP3   OH233387   7.670   6.845   3.780
11145TIP3    H133388   7.647   6.850   3.685
11145TIP3    H233389   7.767   6.854   3.776
11146TIP3   OH233390   6.963   7.289   3.893
11146TIP3    H133391   7.056   7.319   3.878
11146TIP3    H233392   6.967   7.197   3.859
11147TIP3   OH233393   7.160   6.312   4.444
11147TIP3    H133394   7.067   6.313   4.470
11147TIP3    H233395   7.161   6.374   4.368
11148TIP3   OH233396   7.485   6.249   4.612
11148TIP3    H133397   7.391   6.228   4.624
11148TIP3    H233398   7.526   6.160   4.617
11149TIP3   OH233399   7.268   6.112   4.272
11149TIP3    H133400   7.297   6.168   4.197
11149TIP3    H233401   7.238   6.180   4.336
11150TIP3   OH233402   6.969   7.639   4.072
11150TIP3    H133403   6.889   7.642   4.017
11150TIP3    H233404   6.989   7.733   4.083
11151TIP3   OH233405   7.380   6.268   4.030
11151TIP3    H133406   7.429   6.208   3.971
11151TIP3    H233407   7.454   6.323   4.066
11152TIP3   OH233408   7.895   6.436   4.122
11152TIP3    H133409   7.945   6.394   4.193
11152TIP3    H233410   7.869   6.521   4.160
11153TIP3   OH233411   1.159   7.071   5.555
11153TIP3    H133412   1.077   7.096   5.603
11153TIP3    H233413   1.176   7.153   5.504
11154TIP3   OH233414   1.187   7.668   5.466
11154TIP3    H133415   1.118   7.650   5.398
11154TIP3    H233416   1.233   7.744   5.427
11155TIP3   OH233417   1.020   7.601   5.262
11155TIP3    H133418   0.984   7.612   5.173
11155TIP3    H233419   0.997   7.506   5.273
11156TIP3   OH233420   0.976   7.328   5.269
11156TIP3    H133421   1.060   7.307   5.315
11156TIP3    H233422   0.912   7.273   5.315
11157TIP3   OH233423   1.057   7.617   5.725
11157TIP3    H133424   1.069   7.521   5.728
11157TIP3    H233425   1.094   7.637   5.638
11158TIP3   OH233426   1.121   7.349   5.716
11158TIP3    H133427   1.181   7.326   5.790
11158TIP3    H233428   1.053   7.280   5.724
11159TIP3   OH233429   1.218   7.276   5.380
11159TIP3    H133430   1.258   7.208   5.322
11159TIP3    H233431   1.284   7.349   5.377
11160TIP3   OH233432   1.301   7.292   5.907
11160TIP3    H133433   1.388   7.252   5.889
11160TIP3    H233434   1.310   7.329   5.997
11161TIP3   OH233435   0.949   7.130   5.720
11161TIP3    H133436   0.853   7.133   5.695
11161TIP3    H233437   0.946   7.054   5.781
11162TIP3   OH233438   3.231   7.839   5.798
11162TIP3    H133439   3.261   7.926   5.830
11162TIP3    H233440   3.250   7.845   5.703
11163TIP3   OH233441   2.620   8.035   5.813
11163TIP3    H133442   2.671   7.963   5.855
11163TIP3    H233443   2.585   7.988   5.735
11164TIP3   OH233444   1.985   7.672   5.799
11164TIP3    H133445   1.947   7.746   5.746
11164TIP3    H233446   1.924   7.602   5.770
11165TIP3   OH233447   2.656   7.768   5.411
11165TIP3    H133448   2.724   7.753   5.482
11165TIP3    H233449   2.713   7.804   5.341
11166TIP3   OH233450   3.312   8.055   5.962
11166TIP3    H133451   3.230   8.099   5.935
11166TIP3    H233452   3.322   8.090   6.052
11167TIP3   OH233453   2.867   7.769   5.575
11167TIP3    H133454   2.920   7.688   5.594
11167TIP3    H233455   2.916   7.837   5.624
11168TIP3   OH233456   3.009   7.742   5.951
11168TIP3    H133457   2.922   7.751   5.907
11168TIP3    H233458   3.071   7.763   5.878
11169TIP3   OH233459   2.310   7.377   5.937
11169TIP3    H133460   2.297   7.283   5.957
11169TIP3    H233461   2.246   7.418   5.998
11170TIP3   OH233462   2.216   7.914   4.939
11170TIP3    H133463   2.166   7.921   5.022
11170TIP3    H233464   2.197   7.824   4.912
11171TIP3   OH233465   2.944   7.324   5.041
11171TIP3    H133466   2.864   7.348   5.092
11171TIP3    H233467   2.964   7.408   4.996
11172TIP3   OH233468   2.079   7.471   6.078
11172TIP3    H133469   1.990   7.431   6.061
11172TIP3    H233470   2.069   7.552   6.025
11173TIP3   OH233471   2.631   7.573   6.258
11173TIP3    H133472   2.708   7.544   6.311
11173TIP3    H233473   2.558   7.557   6.321
11174TIP3   OH233474   2.222   7.513   5.046
11174TIP3    H133475   2.192   7.500   5.139
11174TIP3    H233476   2.185   7.432   5.006
11175TIP3   OH233477   1.877   7.838   5.602
11175TIP3    H133478   1.784   7.805   5.601
11175TIP3    H233479   1.908   7.798   5.518
11176TIP3   OH233480   2.377   7.922   5.329
11176TIP3    H133481   2.316   7.990   5.297
11176TIP3    H233482   2.441   7.912   5.255
11177TIP3   OH233483   2.525   7.949   5.570
11177TIP3    H133484   2.487   7.987   5.489
11177TIP3    H233485   2.563   7.868   5.530
11178TIP3   OH233486   1.869   7.488   5.015
11178TIP3    H133487   1.861   7.473   5.112
11178TIP3    H233488   1.780   7.520   4.991
11179TIP3   OH233489   1.440   7.580   5.837
11179TIP3    H133490   1.522   7.578   5.888
11179TIP3    H233491   1.440   7.494   5.791
11180TIP3   OH233492   1.391   7.495   5.390
11180TIP3    H133493   1.446   7.542   5.325
11180TIP3    H233494   1.330   7.566   5.419
11181TIP3   OH233495   2.221   7.677   5.655
11181TIP3    H133496   2.143   7.677   5.715
11181TIP3    H233497   2.294   7.681   5.719
11182TIP3   OH233498   1.632   7.722   5.627
11182TIP3    H133499   1.566   7.707   5.697
11182TIP3    H233500   1.684   7.639   5.633
11183TIP3   OH233501   1.926   7.725   5.360
11183TIP3    H133502   2.022   7.744   5.350
11183TIP3    H233503   1.883   7.782   5.294
11184TIP3   OH233504   2.718   7.775   5.873
11184TIP3    H133505   2.670   7.774   5.958
11184TIP3    H233506   2.675   7.704   5.824
11185TIP3   OH233507   1.733   7.750   5.155
11185TIP3    H133508   1.642   7.721   5.133
11185TIP3    H233509   1.786   7.678   5.118
11186TIP3   OH233510   2.328   7.968   5.758
11186TIP3    H133511   2.386   7.942   5.683
11186TIP3    H233512   2.394   8.000   5.820
11187TIP3   OH233513   1.816   7.506   5.648
11187TIP3    H133514   1.780   7.428   5.695
11187TIP3    H233515   1.869   7.465   5.579
11188TIP3   OH233516   2.471   7.616   5.005
11188TIP3    H133517   2.377   7.594   5.021
11188TIP3    H233518   2.478   7.708   5.038
11189TIP3   OH233519   2.552   7.861   5.115
11189TIP3    H133520   2.647   7.860   5.136
11189TIP3    H233521   2.549   7.910   5.031
11190TIP3   OH233522   2.979   7.934   4.963
11190TIP3    H133523   2.912   7.908   4.895
11190TIP3    H233524   3.028   8.002   4.913
11191TIP3   OH233525   2.620   7.813   6.125
11191TIP3    H133526   2.690   7.859   6.174
11191TIP3    H233527   2.615   7.727   6.172
11192TIP3   OH233528   2.521   7.557   5.291
11192TIP3    H133529   2.511   7.588   5.200
11192TIP3    H233530   2.560   7.637   5.335
11193TIP3   OH233531   2.194   7.735   5.393
11193TIP3    H133532   2.265   7.801   5.376
11193TIP3    H233533   2.205   7.720   5.490
11194TIP3   OH233534   2.346   7.458   5.490
11194TIP3    H133535   2.347   7.530   5.556
11194TIP3    H233536   2.414   7.492   5.427
11195TIP3   OH233537   1.862   7.466   5.286
11195TIP3    H133538   1.866   7.556   5.326
11195TIP3    H233539   1.956   7.442   5.295
11196TIP3   OH233540   3.106   7.937   6.161
11196TIP3    H133541   3.034   8.000   6.147
11196TIP3    H233542   3.102   7.885   6.078
11197TIP3   OH233543   2.761   8.122   5.554
11197TIP3    H133544   2.700   8.065   5.603
11197TIP3    H233545   2.842   8.110   5.607
11198TIP3   OH233546   1.436   7.662   5.157
11198TIP3    H133547   1.409   7.735   5.216
11198TIP3    H233548   1.351   7.624   5.132
11199TIP3   OH233549   1.832   7.370   6.040
11199TIP3    H133550   1.784   7.355   5.956
11199TIP3    H233551   1.799   7.298   6.096
11200TIP3   OH233552   2.347   7.487   6.272
11200TIP3    H133553   2.335   7.553   6.341
11200TIP3    H233554   2.282   7.420   6.294
11201TIP3   OH233555   2.823   7.853   4.757
11201TIP3    H133556   2.806   7.880   4.666
11201TIP3    H233557   2.788   7.762   4.752
11202TIP3   OH233558   2.878   8.109   5.302
11202TIP3    H133559   2.884   8.012   5.303
11202TIP3    H233560   2.867   8.128   5.397
11203TIP3   OH233561   2.770   7.576   4.736
11203TIP3    H133562   2.841   7.556   4.800
11203TIP3    H233563   2.692   7.531   4.772
11204TIP3   OH233564   2.826   7.840   5.190
11204TIP3    H133565   2.870   7.755   5.211
11204TIP3    H233566   2.881   7.871   5.115
11205TIP3   OH233567   2.980   8.035   5.688
11205TIP3    H133568   3.068   8.061   5.651
11205TIP3    H233569   2.991   8.067   5.779
11206TIP3   OH233570   3.043   8.166   5.928
11206TIP3    H133571   2.972   8.203   5.982
11206TIP3    H233572   3.092   8.246   5.902
11207TIP3   OH233573   3.492   7.738   6.476
11207TIP3    H133574   3.554   7.690   6.418
11207TIP3    H233575   3.471   7.817   6.424
11208TIP3   OH233576   2.942   7.595   5.251
11208TIP3    H133577   2.973   7.582   5.342
11208TIP3    H233578   2.876   7.523   5.243
11209TIP3   OH233579   3.358   7.903   6.277
11209TIP3    H133580   3.269   7.940   6.257
11209TIP3    H233581   3.349   7.818   6.230
11210TIP3   OH233582   3.008   7.533   4.869
11210TIP3    H133583   3.051   7.465   4.814
11210TIP3    H233584   3.075   7.605   4.869
11211TIP3   OH233585   1.414   7.366   5.628
11211TIP3    H133586   1.319   7.360   5.650
11211TIP3    H233587   1.411   7.423   5.549
11212TIP3   OH233588   3.275   7.659   6.163
11212TIP3    H133589   3.184   7.655   6.127
11212TIP3    H233590   3.304   7.566   6.150
11213TIP3   OH233591   2.456   7.582   5.777
11213TIP3    H133592   2.424   7.506   5.830
11213TIP3    H233593   2.532   7.542   5.729
11214TIP3   OH233594   1.724   7.289   5.791
11214TIP3    H133595   1.635   7.247   5.789
11214TIP3    H233596   1.779   7.208   5.791
11215TIP3   OH233597   1.510   7.158   5.444
11215TIP3    H133598   1.537   7.216   5.370
11215TIP3    H233599   1.484   7.223   5.512
11216TIP3   OH233600   2.170   7.316   5.679
11216TIP3    H133601   2.221   7.363   5.611
11216TIP3    H233602   2.202   7.358   5.760
11217TIP3   OH233603   2.670   7.461   5.652
11217TIP3    H133604   2.763   7.466   5.626
11217TIP3    H233605   2.669   7.380   5.706
11218TIP3   OH233606   2.743   7.392   5.222
11218TIP3    H133607   2.661   7.438   5.246
11218TIP3    H233608   2.731   7.308   5.271
11219TIP3   OH233609   1.629   7.313   5.206
11219TIP3    H133610   1.677   7.248   5.150
11219TIP3    H233611   1.702   7.362   5.247
11220TIP3   OH233612   2.139   7.484   5.307
11220TIP3    H133613   2.204   7.443   5.367
11220TIP3    H233614   2.153   7.578   5.332
11221TIP3   OH233615   3.018   7.594   6.606
11221TIP3    H133616   3.040   7.529   6.676
11221TIP3    H233617   3.105   7.603   6.561
11222TIP3   OH233618   3.182   8.079   5.113
11222TIP3    H133619   3.141   8.147   5.168
11222TIP3    H233620   3.113   8.011   5.110
11223TIP3   OH233621   5.023   8.115   5.282
11223TIP3    H133622   5.006   8.210   5.284
11223TIP3    H233623   5.051   8.104   5.189
11224TIP3   OH233624   4.446   8.292   5.284
11224TIP3    H133625   4.479   8.215   5.333
11224TIP3    H233626   4.386   8.249   5.220
11225TIP3   OH233627   3.763   7.935   5.278
11225TIP3    H133628   3.740   8.005   5.212
11225TIP3    H233629   3.714   7.860   5.238
11226TIP3   OH233630   4.458   8.021   4.902
11226TIP3    H133631   4.532   8.011   4.967
11226TIP3    H233632   4.504   8.067   4.830
11227TIP3   OH233633   3.383   8.123   5.394
11227TIP3    H133634   3.471   8.115   5.432
11227TIP3    H233635   3.394   8.077   5.309
11228TIP3   OH233636   3.756   7.921   5.714
11228TIP3    H133637   3.697   7.955   5.644
11228TIP3    H233638   3.700   7.935   5.792
11229TIP3   OH233639   4.668   8.030   5.079
11229TIP3    H133640   4.634   7.999   5.164
11229TIP3    H233641   4.708   8.115   5.104
11230TIP3   OH233642   3.630   8.035   5.497
11230TIP3    H133643   3.689   8.110   5.517
11230TIP3    H233644   3.678   7.996   5.420
11231TIP3   OH233645   4.808   7.982   5.437
11231TIP3    H133646   4.722   8.022   5.415
11231TIP3    H233647   4.870   8.030   5.380
11232TIP3   OH233648   4.111   7.638   5.432
11232TIP3    H133649   4.090   7.544   5.446
11232TIP3    H233650   4.034   7.680   5.476
11233TIP3   OH233651   4.009   8.169   4.422
11233TIP3    H133652   3.958   8.181   4.504
11233TIP3    H233653   4.005   8.073   4.410
11234TIP3   OH233654   4.755   7.588   4.534
11234TIP3    H133655   4.666   7.603   4.573
11234TIP3    H233656   4.765   7.666   4.477
11235TIP3   OH233657   3.873   7.714   5.558
11235TIP3    H133658   3.784   7.685   5.529
11235TIP3    H233659   3.848   7.797   5.604
11236TIP3   OH233660   4.405   7.830   5.751
11236TIP3    H133661   4.471   7.803   5.818
11236TIP3    H233662   4.320   7.811   5.795
11237TIP3   OH233663   4.644   8.211   5.675
11237TIP3    H133664   4.609   8.213   5.766
11237TIP3    H233665   4.639   8.304   5.646
11238TIP3   OH233666   4.016   7.772   4.533
11238TIP3    H133667   3.986   7.759   4.625
11238TIP3    H233668   3.982   7.690   4.493
11239TIP3   OH233669   3.803   8.244   5.574
11239TIP3    H133670   3.748   8.262   5.654
11239TIP3    H233671   3.792   8.325   5.523
11240TIP3   OH233672   3.673   8.090   5.078
11240TIP3    H133673   3.581   8.055   5.091
11240TIP3    H233674   3.695   8.049   4.992
11241TIP3   OH233675   4.168   8.172   4.810
11241TIP3    H133676   4.106   8.245   4.790
11241TIP3    H233677   4.237   8.183   4.742
11242TIP3   OH233678   4.310   8.198   5.068
11242TIP3    H133679   4.274   8.245   4.991
11242TIP3    H233680   4.349   8.122   5.021
11243TIP3   OH233681   3.658   8.258   5.810
11243TIP3    H133682   3.620   8.306   5.884
11243TIP3    H233683   3.633   8.166   5.833
11244TIP3   OH233684   3.660   7.735   4.502
11244TIP3    H133685   3.656   7.734   4.600
11244TIP3    H233686   3.580   7.786   4.480
11245TIP3   OH233687   3.244   7.819   5.315
11245TIP3    H133688   3.284   7.834   5.402
11245TIP3    H233689   3.242   7.723   5.309
11246TIP3   OH233690   3.187   7.759   4.878
11246TIP3    H133691   3.243   7.801   4.810
11246TIP3    H233692   3.129   7.832   4.905
11247TIP3   OH233693   4.018   7.921   5.154
11247TIP3    H133694   3.934   7.932   5.204
11247TIP3    H233695   4.083   7.950   5.220
11248TIP3   OH233696   3.436   7.989   5.152
11248TIP3    H133697   3.339   7.999   5.136
11248TIP3    H233698   3.446   7.893   5.156
11249TIP3   OH233699   3.727   7.980   4.839
11249TIP3    H133700   3.821   8.008   4.834
11249TIP3    H233701   3.680   8.043   4.782
11250TIP3   OH233702   4.504   8.014   5.350
11250TIP3    H133703   4.470   8.028   5.441
11250TIP3    H233704   4.435   7.955   5.316
11251TIP3   OH233705   3.517   7.982   4.650
11251TIP3    H133706   3.434   7.966   4.604
11251TIP3    H233707   3.582   7.977   4.578
11252TIP3   OH233708   4.106   8.245   5.252
11252TIP3    H133709   4.189   8.226   5.205
11252TIP3    H233710   4.129   8.233   5.346
11253TIP3   OH233711   3.622   7.752   5.134
11253TIP3    H133712   3.579   7.677   5.181
11253TIP3    H233713   3.662   7.707   5.058
11254TIP3   OH233714   4.071   8.157   5.548
11254TIP3    H133715   3.983   8.199   5.537
11254TIP3    H233716   4.123   8.226   5.594
11255TIP3   OH233717   4.270   7.867   4.496
11255TIP3    H133718   4.173   7.849   4.506
11255TIP3    H233719   4.279   7.960   4.524
11256TIP3   OH233720   4.352   8.114   4.595
11256TIP3    H133721   4.447   8.121   4.618
11256TIP3    H233722   4.346   8.168   4.514
11257TIP3   OH233723   4.781   8.194   4.449
11257TIP3    H133724   4.711   8.166   4.385
11257TIP3    H233725   4.826   8.262   4.394
11258TIP3   OH233726   3.589   7.999   5.922
11258TIP3    H133727   3.492   8.006   5.934
11258TIP3    H233728   3.613   7.942   5.997
11259TIP3   OH233729   4.419   8.070   5.607
11259TIP3    H133730   4.506   8.105   5.635
11259TIP3    H233731   4.412   7.989   5.661
11260TIP3   OH233732   4.319   7.813   4.779
11260TIP3    H133733   4.303   7.841   4.687
11260TIP3    H233734   4.356   7.896   4.818
11261TIP3   OH233735   3.994   7.984   4.886
11261TIP3    H133736   4.061   8.053   4.863
11261TIP3    H233737   4.001   7.983   4.984
11262TIP3   OH233738   4.247   8.302   5.706
11262TIP3    H133739   4.306   8.344   5.771
11262TIP3    H233740   4.305   8.233   5.669
11263TIP3   OH233741   4.145   7.719   4.981
11263TIP3    H133742   4.126   7.797   5.036
11263TIP3    H233743   4.206   7.757   4.914
11264TIP3   OH233744   3.659   7.721   4.775
11264TIP3    H133745   3.658   7.815   4.804
11264TIP3    H233746   3.755   7.704   4.784
11265TIP3   OH233747   4.912   8.211   5.602
11265TIP3    H133748   4.826   8.193   5.644
11265TIP3    H233749   4.942   8.121   5.582
11266TIP3   OH233750   4.557   8.372   5.034
11266TIP3    H133751   4.497   8.344   5.106
11266TIP3    H233752   4.640   8.376   5.085
11267TIP3   OH233753   3.219   7.912   4.631
11267TIP3    H133754   3.212   7.990   4.688
11267TIP3    H233755   3.126   7.884   4.626
11268TIP3   OH233756   3.609   7.638   5.527
11268TIP3    H133757   3.576   7.603   5.441
11268TIP3    H233758   3.599   7.560   5.585
11269TIP3   OH233759   4.009   8.207   5.939
11269TIP3    H133760   4.020   8.112   5.916
11269TIP3    H233761   3.981   8.240   5.853
11270TIP3   OH233762   4.015   7.990   5.765
11270TIP3    H133763   4.042   8.037   5.683
11270TIP3    H233764   3.920   7.971   5.745
11271TIP3   OH233765   3.889   8.311   6.170
11271TIP3    H133766   3.814   8.248   6.176
11271TIP3    H233767   3.924   8.291   6.081
11272TIP3   OH233768   4.144   7.756   5.825
11272TIP3    H133769   4.094   7.837   5.803
11272TIP3    H233770   4.075   7.688   5.815
11273TIP3   OH233771   4.272   8.253   6.040
11273TIP3    H133772   4.251   8.235   6.133
11273TIP3    H233773   4.184   8.240   5.999
11274TIP3   OH233774   4.522   8.157   5.927
11274TIP3    H133775   4.431   8.145   5.959
11274TIP3    H233776   4.570   8.151   6.013
11275TIP3   OH233777   3.721   8.095   6.217
11275TIP3    H133778   3.724   8.001   6.189
11275TIP3    H233779   3.750   8.087   6.310
11276TIP3   OH233780   4.234   7.762   6.081
11276TIP3    H133781   4.301   7.692   6.070
11276TIP3    H233782   4.193   7.761   5.992
11277TIP3   OH233783   4.288   7.963   6.255
11277TIP3    H133784   4.275   7.898   6.183
11277TIP3    H233785   4.219   8.029   6.237
11278TIP3   OH233786   4.624   8.110   4.246
11278TIP3    H133787   4.603   8.138   4.156
11278TIP3    H233788   4.585   8.020   4.244
11279TIP3   OH233789   4.680   8.366   4.784
11279TIP3    H133790   4.674   8.269   4.783
11279TIP3    H233791   4.662   8.385   4.879
11280TIP3   OH233792   4.559   7.840   4.234
11280TIP3    H133793   4.626   7.806   4.295
11280TIP3    H233794   4.483   7.781   4.248
11281TIP3   OH233795   4.623   8.105   4.678
11281TIP3    H133796   4.660   8.015   4.694
11281TIP3    H233797   4.678   8.133   4.603
11282TIP3   OH233798   4.777   8.279   5.179
11282TIP3    H133799   4.863   8.313   5.147
11282TIP3    H233800   4.761   8.334   5.257
11283TIP3   OH233801   3.452   8.160   6.213
11283TIP3    H133802   3.550   8.154   6.206
11283TIP3    H233803   3.431   8.071   6.248
11284TIP3   OH233804   4.729   7.855   4.715
11284TIP3    H133805   4.771   7.841   4.802
11284TIP3    H233806   4.664   7.781   4.714
11285TIP3   OH233807   3.414   7.840   5.547
11285TIP3    H133808   3.480   7.768   5.550
11285TIP3    H233809   3.472   7.917   5.531
11286TIP3   OH233810   3.226   8.130   5.619
11286TIP3    H133811   3.274   8.120   5.534
11286TIP3    H233812   3.248   8.221   5.641
11287TIP3   OH233813   4.808   7.794   4.349
11287TIP3    H133814   4.839   7.765   4.262
11287TIP3    H233815   4.856   7.878   4.359
11288TIP3   OH233816   3.204   7.595   5.097
11288TIP3    H133817   3.119   7.605   5.142
11288TIP3    H233818   3.203   7.669   5.033
11289TIP3   OH233819   3.430   7.696   5.926
11289TIP3    H133820   3.379   7.694   6.008
11289TIP3    H233821   3.366   7.740   5.866
11290TIP3   OH233822   5.059   7.912   5.627
11290TIP3    H133823   4.966   7.890   5.628
11290TIP3    H233824   5.100   7.823   5.627
11291TIP3   OH233825   4.283   7.837   5.278
11291TIP3    H133826   4.228   7.769   5.321
11291TIP3    H233827   4.348   7.784   5.228
11292TIP3   OH233828   4.793   7.705   5.164
11292TIP3    H133829   4.827   7.765   5.095
11292TIP3    H233830   4.699   7.731   5.168
11293TIP3   OH233831   4.894   7.810   4.931
11293TIP3    H133832   4.971   7.767   4.890
11293TIP3    H233833   4.919   7.904   4.920
11294TIP3   OH233834   3.523   7.543   5.278
11294TIP3    H133835   3.432   7.506   5.278
11294TIP3    H233836   3.574   7.459   5.273
11295TIP3   OH233837   3.305   7.411   4.913
11295TIP3    H133838   3.332   7.481   4.851
11295TIP3    H233839   3.275   7.466   4.990
11296TIP3   OH233840   3.968   7.567   5.163
11296TIP3    H133841   4.021   7.622   5.104
11296TIP3    H233842   3.977   7.615   5.246
11297TIP3   OH233843   4.512   7.721   5.146
11297TIP3    H133844   4.501   7.685   5.057
11297TIP3    H233845   4.497   7.642   5.202
11298TIP3   OH233846   4.541   7.645   4.712
11298TIP3    H133847   4.456   7.691   4.725
11298TIP3    H233848   4.523   7.560   4.757
11299TIP3   OH233849   3.425   7.576   4.692
11299TIP3    H133850   3.474   7.515   4.634
11299TIP3    H233851   3.497   7.627   4.733
11300TIP3   OH233852   3.937   7.736   4.794
11300TIP3    H133853   4.001   7.698   4.857
11300TIP3    H233854   3.946   7.831   4.820
11301TIP3   OH233855   3.725   7.820   6.175
11301TIP3    H133856   3.690   7.746   6.229
11301TIP3    H233857   3.819   7.819   6.203
11302TIP3   OH233858   3.975   7.818   6.293
11302TIP3    H133859   4.063   7.801   6.254
11302TIP3    H233860   3.967   7.742   6.355
11303TIP3   OH233861   4.976   8.323   4.609
11303TIP3    H133862   4.936   8.400   4.651
11303TIP3    H233863   4.898   8.273   4.579
11304TIP3   OH233864   5.519   8.192   4.779
11304TIP3    H133865   5.503   8.272   4.726
11304TIP3    H233866   5.467   8.126   4.730
11305TIP3   OH233867   5.215   8.369   4.898
11305TIP3    H133868   5.292   8.426   4.886
11305TIP3    H233869   5.202   8.335   4.808
11306TIP3   OH233870   5.879   7.852   4.843
11306TIP3    H133871   5.888   7.799   4.923
11306TIP3    H233872   5.851   7.938   4.880
11307TIP3   OH233873   5.797   8.427   3.907
11307TIP3    H133874   5.756   8.440   3.994
11307TIP3    H233875   5.789   8.332   3.894
11308TIP3   OH233876   6.545   7.840   4.026
11308TIP3    H133877   6.462   7.850   4.079
11308TIP3    H233878   6.545   7.923   3.977
11309TIP3   OH233879   5.645   7.924   5.126
11309TIP3    H133880   5.563   7.886   5.092
11309TIP3    H233881   5.624   8.018   5.118
11310TIP3   OH233882   5.809   8.027   4.016
11310TIP3    H133883   5.774   8.018   4.107
11310TIP3    H233884   5.778   7.943   3.978
11311TIP3   OH233885   5.471   8.355   4.565
11311TIP3    H133886   5.380   8.320   4.576
11311TIP3    H233887   5.498   8.311   4.482
11312TIP3   OH233888   5.456   7.991   3.986
11312TIP3    H133889   5.450   7.990   4.084
11312TIP3    H233890   5.378   8.044   3.963
11313TIP3   OH233891   5.017   8.034   4.845
11313TIP3    H133892   5.079   8.074   4.909
11313TIP3    H233893   5.074   8.010   4.771
11314TIP3   OH233894   4.983   8.016   4.367
11314TIP3    H133895   5.030   8.055   4.292
11314TIP3    H233896   4.924   8.089   4.393
11315TIP3   OH233897   5.772   8.148   4.678
11315TIP3    H133898   5.680   8.172   4.700
11315TIP3    H233899   5.798   8.115   4.767
11316TIP3   OH233900   5.233   8.250   4.636
11316TIP3    H133901   5.138   8.260   4.614
11316TIP3    H233902   5.252   8.156   4.617
11317TIP3   OH233903   5.525   8.239   4.329
11317TIP3    H133904   5.616   8.272   4.317
11317TIP3    H233905   5.471   8.293   4.269
11318TIP3   OH233906   5.317   8.242   4.138
11318TIP3    H133907   5.235   8.224   4.090
11318TIP3    H233908   5.383   8.231   4.068
11319TIP3   OH233909   5.402   8.011   4.610
11319TIP3    H133910   5.375   7.932   4.662
11319TIP3    H233911   5.475   7.975   4.557
11320TIP3   OH233912   6.061   8.120   3.974
11320TIP3    H133913   5.965   8.106   3.993
11320TIP3    H233914   6.080   8.209   4.010
11321TIP3   OH233915   6.157   8.349   4.089
11321TIP3    H133916   6.243   8.388   4.108
11321TIP3    H233917   6.123   8.409   4.019
11322TIP3   OH233918   6.120   8.084   4.254
11322TIP3    H133919   6.105   8.089   4.158
11322TIP3    H233920   6.155   8.172   4.272
11323TIP3   OH233921   5.798   8.260   4.361
11323TIP3    H133922   5.867   8.326   4.345
11323TIP3    H233923   5.814   8.243   4.456
11324TIP3   OH233924   5.942   7.968   4.438
11324TIP3    H133925   5.989   7.992   4.521
11324TIP3    H233926   5.998   8.015   4.373
11325TIP3   OH233927   5.446   7.978   4.259
11325TIP3    H133928   5.447   8.071   4.293
11325TIP3    H233929   5.542   7.959   4.268
11326TIP3   OH233930   5.014   8.161   4.129
11326TIP3    H133931   5.011   8.245   4.178
11326TIP3    H233932   4.922   8.148   4.106
11327TIP3   OH233933   5.385   7.887   5.019
11327TIP3    H133934   5.366   7.857   4.928
11327TIP3    H233935   5.371   7.806   5.072
11328TIP3   OH233936   6.341   8.117   3.730
11328TIP3    H133937   6.409   8.055   3.755
11328TIP3    H233938   6.261   8.062   3.728
11329TIP3   OH233939   5.208   8.101   5.034
11329TIP3    H133940   5.279   8.032   5.036
11329TIP3    H233941   5.255   8.179   5.002
11330TIP3   OH233942   5.022   8.381   5.112
11330TIP3    H133943   5.085   8.371   5.037
11330TIP3    H233944   5.031   8.476   5.129
11331TIP3   OH233945   5.001   7.854   4.584
11331TIP3    H133946   4.914   7.862   4.626
11331TIP3    H233947   4.998   7.927   4.518
11332TIP3   OH233948   5.203   7.926   5.385
11332TIP3    H133949   5.179   7.931   5.479
11332TIP3    H233950   5.135   7.984   5.346
11333TIP3   OH233951   5.316   7.796   4.761
11333TIP3    H133952   5.224   7.762   4.767
11333TIP3    H233953   5.366   7.712   4.760
11334TIP3   OH233954   5.086   7.689   4.380
11334TIP3    H133955   5.122   7.759   4.321
11334TIP3    H233956   5.047   7.746   4.452
11335TIP3   OH233957   5.734   7.825   4.618
11335TIP3    H133958   5.771   7.899   4.569
11335TIP3    H233959   5.785   7.833   4.702
11336TIP3   OH233960   6.321   7.886   4.181
11336TIP3    H133961   6.257   7.950   4.216
11336TIP3    H233962   6.314   7.813   4.245
11337TIP3   OH233963   5.228   7.821   4.182
11337TIP3    H133964   5.281   7.758   4.130
11337TIP3    H233965   5.298   7.878   4.219
11338TIP3   OH233966   5.722   8.008   4.274
11338TIP3    H133967   5.791   7.969   4.332
11338TIP3    H233968   5.732   8.102   4.299
11339TIP3   OH233969   4.728   2.160   7.767
11339TIP3    H133970   4.761   2.251   7.754
11339TIP3    H233971   4.635   2.178   7.791
11340TIP3   OH233972   5.932   2.252   7.899
11340TIP3    H133973   5.905   2.210   7.983
11340TIP3    H233974   5.849   2.295   7.871
11341TIP3   OH233975   6.419   2.150   7.275
11341TIP3    H133976   6.404   2.246   7.262
11341TIP3    H233977   6.479   2.131   7.201
11342TIP3   OH233978   5.747   2.460   7.777
11342TIP3    H133979   5.694   2.448   7.696
11342TIP3    H233980   5.712   2.544   7.813
11343TIP3   OH233981   5.949   2.363   7.425
11343TIP3    H133982   6.009   2.293   7.391
11343TIP3    H233983   5.984   2.377   7.516
11344TIP3   OH233984   6.001   2.421   7.690
11344TIP3    H133985   5.909   2.444   7.717
11344TIP3    H233986   6.023   2.362   7.764
11345TIP3   OH233987   5.653   1.830   7.859
11345TIP3    H133988   5.628   1.737   7.843
11345TIP3    H233989   5.715   1.821   7.934
11346TIP3   OH233990   5.861   1.892   7.691
11346TIP3    H133991   5.824   1.983   7.685
11346TIP3    H233992   5.793   1.855   7.752
11347TIP3   OH233993   6.118   1.944   7.449
11347TIP3    H133994   6.137   1.915   7.540
11347TIP3    H233995   6.026   1.911   7.440
11348TIP3   OH233996   6.442   2.422   7.280
11348TIP3    H133997   6.509   2.489   7.260
11348TIP3    H233998   6.366   2.480   7.297
11349TIP3   OH233999   5.506   1.916   7.469
11349TIP3    H134000   5.509   1.822   7.446
11349TIP3    H234001   5.476   1.912   7.563
11350TIP3   OH234002   5.433   1.932   7.732
11350TIP3    H134003   5.511   1.897   7.781
11350TIP3    H234004   5.440   2.028   7.751
11351TIP3   OH234005   5.717   2.122   7.685
11351TIP3    H134006   5.628   2.134   7.724
11351TIP3    H234007   5.722   2.201   7.629
11352TIP3   OH234008   5.459   2.202   7.755
11352TIP3    H134009   5.434   2.261   7.680
11352TIP3    H234010   5.419   2.250   7.828
11353TIP3   OH234011   5.168   1.833   7.744
11353TIP3    H134012   5.240   1.897   7.760
11353TIP3    H234013   5.218   1.769   7.689
11354TIP3   OH234014   5.661   2.124   7.380
11354TIP3    H134015   5.608   2.051   7.419
11354TIP3    H234016   5.735   2.074   7.341
11355TIP3   OH234017   6.096   2.172   7.298
11355TIP3    H134018   6.132   2.097   7.351
11355TIP3    H234019   6.145   2.165   7.213
11356TIP3   OH234020   5.308   1.644   7.604
11356TIP3    H134021   5.367   1.630   7.682
11356TIP3    H234022   5.376   1.645   7.534
11357TIP3   OH234023   5.847   1.841   7.417
11357TIP3    H134024   5.818   1.848   7.510
11357TIP3    H234025   5.845   1.744   7.404
11358TIP3   OH234026   5.504   1.594   7.782
11358TIP3    H134027   5.506   1.562   7.873
11358TIP3    H234028   5.577   1.544   7.743
11359TIP3   OH234029   5.615   1.343   7.677
11359TIP3    H134030   5.585   1.351   7.583
11359TIP3    H234031   5.710   1.355   7.669
11360TIP3   OH234032   5.424   2.397   7.569
11360TIP3    H134033   5.519   2.395   7.548
11360TIP3    H234034   5.392   2.451   7.494
11361TIP3   OH234035   4.905   1.815   7.687
11361TIP3    H134036   4.999   1.832   7.711
11361TIP3    H234037   4.905   1.718   7.674
11362TIP3   OH234038   5.689   2.358   7.516
11362TIP3    H134039   5.778   2.381   7.481
11362TIP3    H234040   5.668   2.283   7.457
11363TIP3   OH234041   6.345   2.448   7.567
11363TIP3    H134042   6.312   2.371   7.520
11363TIP3    H234043   6.305   2.519   7.512
11364TIP3   OH234044   4.997   2.199   7.573
11364TIP3    H134045   4.988   2.208   7.669
11364TIP3    H234046   5.085   2.156   7.565
11365TIP3   OH234047   6.780   2.461   7.064
11365TIP3    H134048   6.737   2.498   7.144
11365TIP3    H234049   6.829   2.385   7.099
11366TIP3   OH234050   3.759   2.941   7.777
11366TIP3    H134051   3.826   2.999   7.820
11366TIP3    H234052   3.817   2.879   7.727
11367TIP3   OH234053   3.968   3.091   7.858
11367TIP3    H134054   4.039   3.030   7.878
11367TIP3    H234055   3.992   3.122   7.768
11368TIP3   OH234056   4.283   3.695   7.459
11368TIP3    H134057   4.291   3.791   7.439
11368TIP3    H234058   4.375   3.665   7.447
11369TIP3   OH234059   3.481   4.028   7.894
11369TIP3    H134060   3.512   4.006   7.805
11369TIP3    H234061   3.562   4.060   7.940
11370TIP3   OH234062   3.800   3.918   7.565
11370TIP3    H134063   3.860   3.846   7.534
11370TIP3    H234064   3.834   3.936   7.655
11371TIP3   OH234065   3.838   3.971   7.831
11371TIP3    H134066   3.755   3.986   7.877
11371TIP3    H234067   3.874   3.902   7.891
11372TIP3   OH234068   4.044   3.131   7.603
11372TIP3    H134069   4.007   3.107   7.516
11372TIP3    H234070   4.128   3.173   7.576
11373TIP3   OH234071   3.706   3.494   7.758
11373TIP3    H134072   3.661   3.575   7.790
11373TIP3    H234073   3.647   3.427   7.796
11374TIP3   OH234074   4.530   2.961   7.798
11374TIP3    H134075   4.461   2.914   7.747
11374TIP3    H234076   4.521   3.049   7.756
11375TIP3   OH234077   4.216   3.753   7.723
11375TIP3    H134078   4.183   3.671   7.764
11375TIP3    H234079   4.232   3.724   7.632
11376TIP3   OH234080   3.962   3.504   7.609
11376TIP3    H134081   4.029   3.483   7.678
11376TIP3    H234082   3.880   3.499   7.662
11377TIP3   OH234083   4.312   3.970   7.440
11377TIP3    H134084   4.348   4.042   7.386
11377TIP3    H234085   4.232   4.014   7.473
11378TIP3   OH234086   4.149   3.471   7.802
11378TIP3    H134087   4.095   3.427   7.872
11378TIP3    H234088   4.238   3.433   7.817
11379TIP3   OH234089   3.348   3.472   7.617
11379TIP3    H134090   3.371   3.387   7.575
11379TIP3    H234091   3.317   3.442   7.704
11380TIP3   OH234092   3.532   3.700   7.843
11380TIP3    H134093   3.487   3.760   7.904
11380TIP3    H234094   3.542   3.756   7.765
11381TIP3   OH234095   3.505   3.676   7.530
11381TIP3    H134096   3.450   3.604   7.568
11381TIP3    H234097   3.576   3.626   7.486
11382TIP3   OH234098   3.944   3.720   7.445
11382TIP3    H134099   3.976   3.647   7.502
11382TIP3    H234100   3.999   3.712   7.365
11383TIP3   OH234101   3.137   3.167   7.691
11383TIP3    H134102   3.182   3.117   7.760
11383TIP3    H234103   3.213   3.193   7.635
11384TIP3   OH234104   3.634   3.378   7.519
11384TIP3    H134105   3.664   3.415   7.605
11384TIP3    H234106   3.646   3.282   7.535
11385TIP3   OH234107   4.275   3.225   7.484
11385TIP3    H134108   4.256   3.181   7.398
11385TIP3    H234109   4.242   3.316   7.462
11386TIP3   OH234110   3.259   3.928   7.709
11386TIP3    H134111   3.354   3.943   7.708
11386TIP3    H234112   3.230   3.997   7.647
11387TIP3   OH234113   4.426   3.407   7.830
11387TIP3    H134114   4.489   3.474   7.795
11387TIP3    H234115   4.479   3.363   7.899
11388TIP3   OH234116   4.476   3.193   7.663
11388TIP3    H134117   4.406   3.191   7.594
11388TIP3    H234118   4.445   3.269   7.716
11389TIP3   OH234119   4.342   2.867   7.622
11389TIP3    H134120   4.303   2.898   7.540
11389TIP3    H234121   4.332   2.770   7.611
11390TIP3   OH234122   4.315   2.601   7.591
11390TIP3    H134123   4.384   2.568   7.652
11390TIP3    H234124   4.235   2.552   7.622
11391TIP3   OH234125   4.540   2.537   7.741
11391TIP3    H134126   4.583   2.470   7.685
11391TIP3    H234127   4.608   2.608   7.742
11392TIP3   OH234128   4.134   4.103   7.980
11392TIP3    H134129   4.160   4.073   7.891
11392TIP3    H234130   4.216   4.089   8.028
11393TIP3   OH234131   3.542   3.916   7.653
11393TIP3    H134132   3.631   3.932   7.615
11393TIP3    H234133   3.513   3.842   7.594
11394TIP3   OH234134   4.265   4.024   7.751
11394TIP3    H134135   4.251   3.927   7.742
11394TIP3    H234136   4.213   4.057   7.674
11395TIP3   OH234137   2.827   3.741   7.704
11395TIP3    H134138   2.849   3.779   7.792
11395TIP3    H234139   2.912   3.695   7.683
11396TIP3   OH234140   5.744   3.554   7.716
11396TIP3    H134141   5.715   3.645   7.695
11396TIP3    H234142   5.666   3.503   7.687
11397TIP3   OH234143   5.737   3.554   8.107
11397TIP3    H134144   5.752   3.503   8.187
11397TIP3    H234145   5.699   3.484   8.052
11398TIP3   OH234146   5.988   3.846   7.782
11398TIP3    H134147   5.982   3.781   7.854
11398TIP3    H234148   6.013   3.927   7.831
11399TIP3   OH234149   5.034   3.848   8.182
11399TIP3    H134150   5.044   3.749   8.179
11399TIP3    H234151   5.128   3.872   8.167
11400TIP3   OH234152   4.707   3.015   8.013
11400TIP3    H134153   4.702   3.109   8.032
11400TIP3    H234154   4.639   3.004   7.943
11401TIP3   OH234155   5.638   4.319   7.795
11401TIP3    H134156   5.678   4.249   7.739
11401TIP3    H234157   5.632   4.273   7.880
11402TIP3   OH234158   5.532   3.767   8.124
11402TIP3    H134159   5.571   3.688   8.083
11402TIP3    H234160   5.610   3.802   8.169
11403TIP3   OH234161   5.955   3.279   8.169
11403TIP3    H134162   5.959   3.182   8.158
11403TIP3    H234163   5.895   3.302   8.096
11404TIP3   OH234164   5.970   3.027   7.747
11404TIP3    H134165   6.042   3.013   7.813
11404TIP3    H234166   6.020   3.071   7.677
11405TIP3   OH234167   5.363   3.339   8.017
11405TIP3    H134168   5.449   3.314   8.052
11405TIP3    H234169   5.322   3.251   7.999
11406TIP3   OH234170   5.636   3.778   7.584
11406TIP3    H134171   5.587   3.753   7.505
11406TIP3    H234172   5.587   3.857   7.613
11407TIP3   OH234173   6.193   2.998   7.891
11407TIP3    H134174   6.183   2.915   7.941
11407TIP3    H234175   6.243   3.051   7.956
11408TIP3   OH234176   4.608   3.584   7.709
11408TIP3    H134177   4.571   3.608   7.622
11408TIP3    H234178   4.642   3.669   7.741
11409TIP3   OH234179   6.034   4.077   7.922
11409TIP3    H134180   5.982   4.092   8.001
11409TIP3    H234181   6.047   4.168   7.889
11410TIP3   OH234182   5.754   4.143   7.619
11410TIP3    H134183   5.805   4.059   7.605
11410TIP3    H234184   5.818   4.206   7.581
11411TIP3   OH234185   5.901   3.929   7.535
11411TIP3    H134186   5.851   3.852   7.504
11411TIP3    H234187   5.941   3.893   7.618
11412TIP3   OH234188   5.573   3.405   7.550
11412TIP3    H134189   5.491   3.454   7.530
11412TIP3    H234190   5.617   3.403   7.463
11413TIP3   OH234191   5.532   3.192   7.259
11413TIP3    H134192   5.597   3.243   7.311
11413TIP3    H234193   5.591   3.128   7.214
11414TIP3   OH234194   5.921   3.489   7.518
11414TIP3    H134195   5.867   3.511   7.598
11414TIP3    H234196   6.006   3.464   7.562
11415TIP3   OH234197   5.172   3.509   7.930
11415TIP3    H134198   5.105   3.441   7.916
11415TIP3    H234199   5.247   3.453   7.961
11416TIP3   OH234200   5.288   3.899   8.084
11416TIP3    H134201   5.263   3.860   7.999
11416TIP3    H234202   5.372   3.851   8.103
11417TIP3   OH234203   5.762   3.345   7.346
11417TIP3    H134204   5.819   3.406   7.397
11417TIP3    H234205   5.789   3.367   7.254
11418TIP3   OH234206   5.505   4.025   7.627
11418TIP3    H134207   5.589   4.074   7.627
11418TIP3    H234208   5.446   4.084   7.578
11419TIP3   OH234209   6.249   2.610   7.371
11419TIP3    H134210   6.170   2.640   7.421
11419TIP3    H234211   6.277   2.691   7.325
11420TIP3   OH234212   5.033   3.312   7.711
11420TIP3    H134213   4.946   3.341   7.678
11420TIP3    H234214   5.010   3.263   7.791
11421TIP3   OH234215   6.077   3.950   6.943
11421TIP3    H134216   6.086   4.047   6.930
11421TIP3    H234217   6.170   3.921   6.931
11422TIP3   OH234218   5.390   4.269   7.425
11422TIP3    H134219   5.341   4.251   7.343
11422TIP3    H234220   5.355   4.356   7.452
11423TIP3   OH234221   4.825   4.116   7.814
11423TIP3    H134222   4.869   4.105   7.900
11423TIP3    H234223   4.773   4.034   7.808
11424TIP3   OH234224   5.588   4.172   7.063
11424TIP3    H134225   5.646   4.102   7.028
11424TIP3    H234226   5.621   4.182   7.155
11425TIP3   OH234227   5.640   4.219   7.332
11425TIP3    H134228   5.551   4.230   7.373
11425TIP3    H234229   5.689   4.179   7.405
11426TIP3   OH234230   5.839   3.389   7.091
11426TIP3    H134231   5.803   3.365   7.003
11426TIP3    H234232   5.921   3.434   7.067
11427TIP3   OH234233   5.551   2.763   7.394
11427TIP3    H134234   5.516   2.760   7.486
11427TIP3    H234235   5.509   2.683   7.358
11428TIP3   OH234236   5.247   3.094   7.968
11428TIP3    H134237   5.149   3.096   7.972
11428TIP3    H234238   5.256   3.044   7.885
11429TIP3   OH234239   5.711   3.208   7.682
11429TIP3    H134240   5.658   3.278   7.639
11429TIP3    H234241   5.762   3.172   7.607
11430TIP3   OH234242   5.870   3.233   7.902
11430TIP3    H134243   5.803   3.258   7.836
11430TIP3    H234244   5.899   3.149   7.861
11431TIP3   OH234245   5.205   2.741   7.360
11431TIP3    H134246   5.196   2.739   7.457
11431TIP3    H234247   5.129   2.797   7.336
11432TIP3   OH234248   4.718   2.747   7.749
11432TIP3    H134249   4.774   2.786   7.679
11432TIP3    H234250   4.670   2.827   7.777
11433TIP3   OH234251   5.531   2.946   8.003
11433TIP3    H134252   5.449   2.977   8.044
11433TIP3    H234253   5.590   2.931   8.080
11434TIP3   OH234254   4.995   2.984   7.939
11434TIP3    H134255   4.920   3.023   7.988
11434TIP3    H234256   5.026   2.916   8.000
11435TIP3   OH234257   5.254   2.979   7.709
11435TIP3    H134258   5.341   3.014   7.682
11435TIP3    H234259   5.195   3.009   7.636
11436TIP3   OH234260   5.998   3.011   8.157
11436TIP3    H134261   6.022   2.987   8.248
11436TIP3    H234262   5.913   2.966   8.145
11437TIP3   OH234263   5.098   3.020   7.488
11437TIP3    H134264   5.020   2.983   7.442
11437TIP3    H234265   5.146   3.060   7.414
11438TIP3   OH234266   5.654   3.291   8.077
11438TIP3    H134267   5.712   3.224   8.037
11438TIP3    H234268   5.611   3.242   8.150
11439TIP3   OH234269   5.199   2.743   7.994
11439TIP3    H134270   5.127   2.685   8.027
11439TIP3    H234271   5.188   2.740   7.899
11440TIP3   OH234272   5.345   3.554   7.493
11440TIP3    H134273   5.273   3.488   7.486
11440TIP3    H234274   5.326   3.594   7.581
11441TIP3   OH234275   5.800   2.867   7.361
11441TIP3    H134276   5.704   2.847   7.371
11441TIP3    H234277   5.807   2.961   7.388
11442TIP3   OH234278   5.869   3.117   7.463
11442TIP3    H134279   5.965   3.125   7.479
11442TIP3    H234280   5.848   3.199   7.415
11443TIP3   OH234281   5.063   3.580   8.176
11443TIP3    H134282   5.099   3.562   8.086
11443TIP3    H234283   5.032   3.489   8.195
11444TIP3   OH234284   5.488   3.706   7.319
11444TIP3    H134285   5.439   3.791   7.324
11444TIP3    H234286   5.434   3.649   7.378
11445TIP3   OH234287   6.308   3.211   7.299
11445TIP3    H134288   6.250   3.164   7.235
11445TIP3    H234289   6.304   3.300   7.257
11446TIP3   OH234290   6.017   4.023   7.211
11446TIP3    H134291   5.985   3.957   7.274
11446TIP3    H234292   6.025   3.973   7.128
11447TIP3   OH234293   5.984   3.663   8.018
11447TIP3    H134294   5.898   3.629   8.050
11447TIP3    H234295   6.024   3.582   7.981
11448TIP3   OH234296   5.137   3.895   7.813
11448TIP3    H134297   5.131   3.970   7.751
11448TIP3    H234298   5.050   3.853   7.801
11449TIP3   OH234299   4.700   3.185   7.504
11449TIP3    H134300   4.748   3.267   7.527
11449TIP3    H234301   4.625   3.190   7.566
11450TIP3   OH234302   5.282   3.665   7.729
11450TIP3    H134303   5.249   3.750   7.763
11450TIP3    H234304   5.251   3.604   7.799
11451TIP3   OH234305   5.055   4.125   7.650
11451TIP3    H134306   4.970   4.134   7.697
11451TIP3    H234307   5.088   4.217   7.652
11452TIP3   OH234308   5.771   3.758   7.109
11452TIP3    H134309   5.825   3.730   7.187
11452TIP3    H234310   5.684   3.727   7.136
11453TIP3   OH234311   6.110   4.226   6.928
11453TIP3    H134312   6.141   4.299   6.872
11453TIP3    H234313   6.030   4.269   6.967
11454TIP3   OH234314   5.931   3.685   7.321
11454TIP3    H134315   5.919   3.623   7.396
11454TIP3    H234316   6.029   3.682   7.312
11455TIP3   OH234317   5.134   3.733   7.111
11455TIP3    H134318   5.147   3.640   7.084
11455TIP3    H234319   5.113   3.723   7.206
11456TIP3   OH234320   5.078   3.740   7.382
11456TIP3    H134321   5.152   3.708   7.436
11456TIP3    H234322   5.085   3.837   7.392
11457TIP3   OH234323   4.805   3.428   7.587
11457TIP3    H134324   4.741   3.475   7.645
11457TIP3    H234325   4.824   3.498   7.522
11458TIP3   OH234326   5.849   2.806   7.639
11458TIP3    H134327   5.829   2.831   7.547
11458TIP3    H234328   5.882   2.891   7.676
11459TIP3   OH234329   5.348   3.937   7.331
11459TIP3    H134330   5.261   3.960   7.368
11459TIP3    H234331   5.360   4.010   7.269
11460TIP3   OH234332   5.539   3.000   7.738
11460TIP3    H134333   5.600   3.076   7.729
11460TIP3    H234334   5.536   2.989   7.835
11461TIP3   OH234335   5.669   2.728   7.842
11461TIP3    H134336   5.665   2.803   7.904
11461TIP3    H234337   5.737   2.760   7.779
11462TIP3   OH234338   5.095   4.013   7.400
11462TIP3    H134339   5.063   4.081   7.338
11462TIP3    H234340   5.077   4.056   7.487
11463TIP3   OH234341   5.191   2.722   7.638
11463TIP3    H134342   5.189   2.815   7.668
11463TIP3    H234343   5.287   2.707   7.644
11464TIP3   OH234344   6.081   3.422   7.905
11464TIP3    H134345   6.015   3.353   7.925
11464TIP3    H234346   6.162   3.390   7.950
11465TIP3   OH234347   4.810   3.639   7.388
11465TIP3    H134348   4.883   3.703   7.397
11465TIP3    H234349   4.852   3.578   7.323
11466TIP3   OH234350   4.755   2.914   7.517
11466TIP3    H134351   4.758   3.011   7.520
11466TIP3    H234352   4.663   2.897   7.494
11467TIP3   OH234353   6.061   4.343   7.853
11467TIP3    H134354   6.014   4.405   7.794
11467TIP3    H234355   6.136   4.398   7.878
11468TIP3   OH234356   4.677   3.860   7.775
11468TIP3    H134357   4.603   3.887   7.831
11468TIP3    H234358   4.649   3.898   7.689
11469TIP3   OH234359   5.298   3.935   7.021
11469TIP3    H134360   5.241   3.864   7.059
11469TIP3    H234361   5.373   3.882   6.991
11470TIP3   OH234362   5.734   3.975   6.936
11470TIP3    H134363   5.771   3.908   6.996
11470TIP3    H234364   5.793   3.969   6.858
11471TIP3   OH234365   4.945   3.453   7.247
11471TIP3    H134366   5.000   3.420   7.321
11471TIP3    H234367   5.012   3.458   7.176
11472TIP3   OH234368   5.459   3.654   7.051
11472TIP3    H134369   5.460   3.665   7.148
11472TIP3    H234370   5.458   3.556   7.044
11473TIP3   OH234371   5.147   3.364   7.463
11473TIP3    H134372   5.114   3.335   7.551
11473TIP3    H234373   5.182   3.280   7.426
11474TIP3   OH234374   5.252   3.151   7.303
11474TIP3    H134375   5.228   3.162   7.209
11474TIP3    H234376   5.350   3.155   7.298
11475TIP3   OH234377   6.073   3.482   6.971
11475TIP3    H134378   6.053   3.438   6.887
11475TIP3    H234379   6.039   3.572   6.951
11476TIP3   OH234380   5.062   4.216   7.213
11476TIP3    H134381   5.156   4.207   7.193
11476TIP3    H234382   5.033   4.267   7.135
11477TIP3   OH234383   4.541   3.596   7.430
11477TIP3    H134384   4.636   3.617   7.412
11477TIP3    H234385   4.534   3.507   7.388
11478TIP3   OH234386   4.453   4.213   7.830
11478TIP3    H134387   4.391   4.149   7.789
11478TIP3    H234388   4.499   4.154   7.894
11479TIP3   OH234389   4.583   4.066   8.017
11479TIP3    H134390   4.554   3.993   8.073
11479TIP3    H234391   4.634   4.122   8.077
11480TIP3   OH234392   6.381   4.432   7.791
11480TIP3    H134393   6.367   4.432   7.887
11480TIP3    H234394   6.353   4.523   7.770
11481TIP3   OH234395   6.209   3.669   7.300
11481TIP3    H134396   6.276   3.734   7.271
11481TIP3    H234397   6.251   3.636   7.383
11482TIP3   OH234398   6.332   3.549   7.514
11482TIP3    H134399   6.263   3.503   7.566
11482TIP3    H234400   6.392   3.582   7.583
11483TIP3   OH234401   6.416   3.965   7.950
11483TIP3    H134402   6.437   3.872   7.931
11483TIP3    H234403   6.379   3.995   7.865
11484TIP3   OH234404   6.274   3.445   7.153
11484TIP3    H134405   6.203   3.445   7.085
11484TIP3    H234406   6.244   3.520   7.208
11485TIP3   OH234407   6.147   3.119   7.103
11485TIP3    H134408   6.099   3.154   7.027
11485TIP3    H234409   6.120   3.024   7.098
11486TIP3   OH234410   6.151   3.395   7.644
11486TIP3    H134411   6.159   3.299   7.643
11486TIP3    H234412   6.127   3.412   7.739
11487TIP3   OH234413   6.073   2.859   7.080
11487TIP3    H134414   6.154   2.826   7.124
11487TIP3    H234415   6.005   2.793   7.105
11488TIP3   OH234416   6.145   3.112   7.541
11488TIP3    H134417   6.189   3.027   7.560
11488TIP3    H234418   6.205   3.148   7.473
11489TIP3   OH234419   6.331   3.369   8.004
11489TIP3    H134420   6.418   3.397   7.972
11489TIP3    H234421   6.330   3.410   8.093
11490TIP3   OH234422   6.263   2.862   7.599
11490TIP3    H134423   6.260   2.886   7.693
11490TIP3    H234424   6.194   2.792   7.594
11491TIP3   OH234425   6.319   2.800   7.182
11491TIP3    H134426   6.363   2.723   7.141
11491TIP3    H234427   6.395   2.849   7.219
11492TIP3   OH234428   5.900   4.327   7.486
11492TIP3    H134429   5.951   4.317   7.402
11492TIP3    H234430   5.956   4.388   7.536
11493TIP3   OH234431   4.792   4.260   8.172
11493TIP3    H134432   4.834   4.291   8.254
11493TIP3    H234433   4.864   4.210   8.128
11494TIP3   OH234434   4.959   4.080   8.055
11494TIP3    H134435   4.981   3.990   8.089
11494TIP3    H234436   5.049   4.112   8.032
11495TIP3   OH234437   5.224   4.168   8.038
11495TIP3    H134438   5.256   4.077   8.021
11495TIP3    H234439   5.271   4.187   8.120
11496TIP3   OH234440   5.775   2.850   8.119
11496TIP3    H134441   5.774   2.823   8.213
11496TIP3    H234442   5.838   2.785   8.082
11497TIP3   OH234443   4.824   2.420   7.760
11497TIP3    H134444   4.864   2.479   7.693
11497TIP3    H234445   4.824   2.476   7.838
11498TIP3   OH234446   5.479   2.598   8.004
11498TIP3    H134447   5.527   2.650   7.938
11498TIP3    H234448   5.403   2.656   8.023
11499TIP3   OH234449   5.953   2.667   8.038
11499TIP3    H134450   6.026   2.709   7.989
11499TIP3    H234451   6.000   2.593   8.079
11500TIP3   OH234452   6.072   2.662   7.578
11500TIP3    H134453   5.985   2.704   7.598
11500TIP3    H234454   6.058   2.575   7.620
11501TIP3   OH234455   4.556   3.989   7.573
11501TIP3    H134456   4.470   3.955   7.544
11501TIP3    H234457   4.546   4.083   7.548
11502TIP3   OH234458   4.960   2.572   7.559
11502TIP3    H134459   5.008   2.511   7.501
11502TIP3    H234460   5.033   2.627   7.595
11503TIP3   OH234461   5.468   2.748   7.656
11503TIP3    H134462   5.534   2.709   7.716
11503TIP3    H234463   5.482   2.843   7.679
11504TIP3   OH234464   5.328   4.171   7.158
11504TIP3    H134465   5.416   4.194   7.122
11504TIP3    H234466   5.305   4.097   7.098
11505TIP3   OH234467   6.046   4.290   7.254
11505TIP3    H134468   6.039   4.192   7.243
11505TIP3    H234469   5.999   4.320   7.174
11506TIP3   OH234470   4.632   4.010   7.213
11506TIP3    H134471   4.633   4.031   7.307
11506TIP3    H234472   4.720   3.967   7.199
11507TIP3   OH234473   6.805   4.113   7.667
11507TIP3    H134474   6.797   4.015   7.660
11507TIP3    H234475   6.883   4.119   7.726
11508TIP3   OH234476   6.487   3.319   7.474
11508TIP3    H134477   6.434   3.399   7.487
11508TIP3    H234478   6.425   3.264   7.422
11509TIP3   OH234479   6.591   3.587   7.636
11509TIP3    H134480   6.637   3.504   7.658
11509TIP3    H234481   6.628   3.608   7.550
11510TIP3   OH234482   7.457   4.048   7.045
11510TIP3    H134483   7.442   3.952   7.036
11510TIP3    H234484   7.368   4.082   7.053
11511TIP3   OH234485   6.412   3.841   7.193
11511TIP3    H134486   6.369   3.867   7.109
11511TIP3    H234487   6.446   3.927   7.226
11512TIP3   OH234488   7.375   3.729   6.985
11512TIP3    H134489   7.279   3.742   6.974
11512TIP3    H234490   7.387   3.636   6.961
11513TIP3   OH234491   7.327   3.441   6.749
11513TIP3    H134492   7.397   3.487   6.799
11513TIP3    H234493   7.383   3.374   6.707
11514TIP3   OH234494   6.929   3.766   7.405
11514TIP3    H134495   6.892   3.703   7.340
11514TIP3    H234496   6.985   3.705   7.459
11515TIP3   OH234497   7.553   3.572   6.833
11515TIP3    H134498   7.561   3.651   6.889
11515TIP3    H234499   7.585   3.604   6.745
11516TIP3   OH234500   6.818   3.585   7.219
11516TIP3    H134501   6.740   3.616   7.169
11516TIP3    H234502   6.788   3.499   7.252
11517TIP3   OH234503   7.869   4.225   6.441
11517TIP3    H134504   7.880   4.300   6.382
11517TIP3    H234505   7.954   4.177   6.425
11518TIP3   OH234506   6.455   4.164   7.737
11518TIP3    H134507   6.540   4.148   7.781
11518TIP3    H234508   6.426   4.247   7.779
11519TIP3   OH234509   7.086   4.569   6.888
11519TIP3    H134510   7.105   4.515   6.810
11519TIP3    H234511   7.172   4.608   6.906
11520TIP3   OH234512   7.378   4.426   6.537
11520TIP3    H134513   7.441   4.355   6.510
11520TIP3    H234514   7.418   4.463   6.618
11521TIP3   OH234515   7.639   3.658   6.590
11521TIP3    H134516   7.595   3.631   6.507
11521TIP3    H234517   7.725   3.687   6.554
11522TIP3   OH234518   7.357   3.011   6.820
11522TIP3    H134519   7.335   3.077   6.889
11522TIP3    H234520   7.289   2.942   6.833
11523TIP3   OH234521   7.001   3.389   7.395
11523TIP3    H134522   6.914   3.352   7.425
11523TIP3    H234523   7.015   3.334   7.316
11524TIP3   OH234524   7.001   3.003   6.842
11524TIP3    H134525   6.986   2.995   6.939
11524TIP3    H234526   6.922   3.056   6.817
11525TIP3   OH234527   6.534   3.102   7.752
11525TIP3    H134528   6.609   3.160   7.766
11525TIP3    H234529   6.566   3.045   7.680
11526TIP3   OH234530   6.530   3.037   7.242
11526TIP3    H134531   6.572   3.069   7.160
11526TIP3    H234532   6.466   3.108   7.258
11527TIP3   OH234533   6.754   3.292   7.449
11527TIP3    H134534   6.656   3.293   7.457
11527TIP3    H234535   6.776   3.207   7.490
11528TIP3   OH234536   7.079   3.249   7.162
11528TIP3    H134537   7.126   3.326   7.126
11528TIP3    H234538   7.001   3.249   7.101
11529TIP3   OH234539   6.887   3.288   6.979
11529TIP3    H134540   6.812   3.242   6.937
11529TIP3    H234541   6.935   3.320   6.901
11530TIP3   OH234542   7.100   3.840   6.970
11530TIP3    H134543   7.041   3.761   6.967
11530TIP3    H234544   7.096   3.864   7.065
11531TIP3   OH234545   6.842   3.830   7.664
11531TIP3    H134546   6.866   3.822   7.570
11531TIP3    H234547   6.884   3.750   7.699
11532TIP3   OH234548   7.275   3.962   6.792
11532TIP3    H134549   7.237   4.051   6.807
11532TIP3    H234550   7.225   3.911   6.859
11533TIP3   OH234551   6.930   4.143   7.269
11533TIP3    H134552   6.909   4.179   7.182
11533TIP3    H234553   6.847   4.100   7.295
11534TIP3   OH234554   6.497   3.444   6.992
11534TIP3    H134555   6.541   3.529   7.014
11534TIP3    H234556   6.420   3.447   7.053
11535TIP3   OH234557   7.082   3.912   7.228
11535TIP3    H134558   7.048   3.999   7.255
11535TIP3    H234559   7.041   3.854   7.296
11536TIP3   OH234560   7.552   4.017   6.586
11536TIP3    H134561   7.596   4.015   6.673
11536TIP3    H234562   7.465   3.981   6.608
11537TIP3   OH234563   7.710   3.948   6.801
11537TIP3    H134564   7.665   3.863   6.786
11537TIP3    H234565   7.798   3.931   6.765
11538TIP3   OH234566   6.929   3.989   6.598
11538TIP3    H134567   6.943   3.897   6.570
11538TIP3    H234568   6.906   3.977   6.692
11539TIP3   OH234569   6.876   3.995   6.871
11539TIP3    H134570   6.959   3.958   6.905
11539TIP3    H234571   6.887   4.091   6.884
11540TIP3   OH234572   6.607   3.687   7.071
11540TIP3    H134573   6.541   3.732   7.128
11540TIP3    H234574   6.620   3.757   7.004
11541TIP3   OH234575   7.147   4.198   6.827
11541TIP3    H134576   7.059   4.225   6.858
11541TIP3    H234577   7.161   4.263   6.756
11542TIP3   OH234578   6.889   4.277   6.887
11542TIP3    H134579   6.856   4.318   6.804
11542TIP3    H234580   6.891   4.356   6.942
11543TIP3   OH234581   6.972   2.971   7.115
11543TIP3    H134582   7.000   3.052   7.160
11543TIP3    H234583   7.052   2.914   7.122
11544TIP3   OH234584   6.606   3.893   6.876
11544TIP3    H134585   6.679   3.957   6.885
11544TIP3    H234586   6.646   3.835   6.808
11545TIP3   OH234587   6.551   3.175   7.001
11545TIP3    H134588   6.545   3.273   7.003
11545TIP3    H234589   6.464   3.151   6.968
11546TIP3   OH234590   6.485   4.114   7.256
11546TIP3    H134591   6.441   4.150   7.333
11546TIP3    H234592   6.442   4.163   7.183
11547TIP3   OH234593   7.095   4.190   6.509
11547TIP3    H134594   7.039   4.117   6.544
11547TIP3    H234595   7.170   4.140   6.472
11548TIP3   OH234596   7.535   4.235   6.419
11548TIP3    H134597   7.577   4.166   6.474
11548TIP3    H234598   7.586   4.229   6.335
11549TIP3   OH234599   6.740   3.710   6.731
11549TIP3    H134600   6.795   3.676   6.804
11549TIP3    H234601   6.807   3.714   6.659
11550TIP3   OH234602   7.253   3.906   6.530
11550TIP3    H134603   7.251   3.921   6.628
11550TIP3    H234604   7.254   3.808   6.528
11551TIP3   OH234605   6.948   3.613   6.955
11551TIP3    H134606   6.912   3.574   7.037
11551TIP3    H234607   6.982   3.534   6.907
11552TIP3   OH234608   7.049   3.410   6.791
11552TIP3    H134609   7.024   3.418   6.697
11552TIP3    H234610   7.147   3.410   6.784
11553TIP3   OH234611   7.867   3.740   6.467
11553TIP3    H134612   7.866   3.698   6.379
11553TIP3    H234613   7.836   3.830   6.440
11554TIP3   OH234614   6.853   4.465   6.690
11554TIP3    H134615   6.950   4.471   6.687
11554TIP3    H234616   6.830   4.518   6.612
11555TIP3   OH234617   6.336   3.854   6.912
11555TIP3    H134618   6.431   3.874   6.898
11555TIP3    H234619   6.329   3.765   6.873
11556TIP3   OH234620   6.247   4.456   7.337
11556TIP3    H134621   6.183   4.392   7.298
11556TIP3    H234622   6.297   4.400   7.399
11557TIP3   OH234623   6.410   4.327   7.521
11557TIP3    H134624   6.398   4.238   7.559
11557TIP3    H234625   6.406   4.376   7.606
11558TIP3   OH234626   6.590   3.725   7.878
11558TIP3    H134627   6.575   3.679   7.793
11558TIP3    H234628   6.675   3.767   7.861
11559TIP3   OH234629   6.479   2.829   7.411
11559TIP3    H134630   6.409   2.859   7.471
11559TIP3    H234631   6.515   2.914   7.377
11560TIP3   OH234632   6.744   4.322   7.501
11560TIP3    H134633   6.754   4.235   7.549
11560TIP3    H234634   6.824   4.366   7.535
11561TIP3   OH234635   6.616   2.656   7.239
11561TIP3    H134636   6.654   2.726   7.183
11561TIP3    H234637   6.579   2.709   7.313
11562TIP3   OH234638   6.354   4.250   7.061
11562TIP3    H134639   6.271   4.209   7.029
11562TIP3    H234640   6.337   4.342   7.035
11563TIP3   OH234641   6.746   2.827   7.043
11563TIP3    H134642   6.798   2.769   6.984
11563TIP3    H234643   6.816   2.886   7.078
11564TIP3   OH234644   7.126   4.424   6.648
11564TIP3    H134645   7.212   4.447   6.607
11564TIP3    H234646   7.100   4.351   6.586
11565TIP3   OH234647   6.429   4.267   6.699
11565TIP3    H134648   6.425   4.286   6.793
11565TIP3    H234649   6.516   4.223   6.689
11566TIP3   OH234650   8.100   4.107   6.368
11566TIP3    H134651   8.195   4.122   6.378
11566TIP3    H234652   8.096   4.016   6.330
11567TIP3   OH234653   2.123   5.254   7.619
11567TIP3    H134654   2.132   5.347   7.590
11567TIP3    H234655   2.214   5.220   7.602
11568TIP3   OH234656   1.645   5.469   7.703
11568TIP3    H134657   1.692   5.396   7.657
11568TIP3    H234658   1.688   5.463   7.791
11569TIP3   OH234659   1.886   4.724   7.729
11569TIP3    H134660   1.849   4.663   7.662
11569TIP3    H234661   1.974   4.742   7.691
11570TIP3   OH234662   2.080   5.317   7.887
11570TIP3    H134663   1.992   5.278   7.898
11570TIP3    H234664   2.103   5.287   7.796
11571TIP3   OH234665   1.818   5.057   7.782
11571TIP3    H134666   1.857   4.995   7.845
11571TIP3    H234667   1.724   5.043   7.797
11572TIP3   OH234668   2.155   5.523   7.589
11572TIP3    H134669   2.200   5.592   7.536
11572TIP3    H234670   2.078   5.576   7.619
11573TIP3   OH234671   1.356   5.244   7.658
11573TIP3    H134672   1.310   5.233   7.743
11573TIP3    H234673   1.443   5.204   7.676
11574TIP3   OH234674   1.784   5.270   7.587
11574TIP3    H134675   1.838   5.219   7.648
11574TIP3    H234676   1.837   5.269   7.504
11575TIP3   OH234677   2.131   4.787   7.622
11575TIP3    H134678   2.116   4.742   7.537
11575TIP3    H234679   2.095   4.876   7.599
11576TIP3   OH234680   2.339   4.819   7.803
11576TIP3    H134681   2.264   4.805   7.741
11576TIP3    H234682   2.316   4.760   7.877
11577TIP3   OH234683   2.157   4.375   7.734
11577TIP3    H134684   2.193   4.435   7.667
11577TIP3    H234685   2.078   4.342   7.686
11578TIP3   OH234686   1.374   5.512   7.737
11578TIP3    H134687   1.472   5.505   7.733
11578TIP3    H234688   1.351   5.428   7.694
11579TIP3   OH234689   2.083   5.593   7.914
11579TIP3    H134690   2.090   5.496   7.905
11579TIP3    H234691   2.048   5.619   7.827
11580TIP3   OH234692   3.579   5.115   7.869
11580TIP3    H134693   3.551   5.205   7.841
11580TIP3    H234694   3.506   5.062   7.833
11581TIP3   OH234695   3.825   5.406   7.932
11581TIP3    H134696   3.821   5.338   8.003
11581TIP3    H234697   3.860   5.483   7.982
11582TIP3   OH234698   3.481   5.878   7.947
11582TIP3    H134699   3.520   5.809   7.888
11582TIP3    H234700   3.458   5.826   8.025
11583TIP3   OH234701   3.830   4.584   7.919
11583TIP3    H134702   3.899   4.573   7.988
11583TIP3    H234703   3.882   4.627   7.849
11584TIP3   OH234704   3.470   5.332   7.737
11584TIP3    H134705   3.429   5.315   7.651
11584TIP3    H234706   3.424   5.414   7.764
11585TIP3   OH234707   4.040   4.597   8.100
11585TIP3    H134708   4.108   4.554   8.152
11585TIP3    H234709   4.078   4.687   8.093
11586TIP3   OH234710   2.423   5.173   7.856
11586TIP3    H134711   2.402   5.157   7.762
11586TIP3    H234712   2.508   5.220   7.852
11587TIP3   OH234713   3.879   5.640   8.074
11587TIP3    H134714   3.808   5.647   8.137
11587TIP3    H234715   3.894   5.733   8.049
11588TIP3   OH234716   3.595   5.701   7.771
11588TIP3    H134717   3.644   5.617   7.755
11588TIP3    H234718   3.659   5.764   7.732
11589TIP3   OH234719   3.739   5.486   7.687
11589TIP3    H134720   3.705   5.406   7.645
11589TIP3    H234721   3.776   5.450   7.771
11590TIP3   OH234722   3.416   4.968   7.698
11590TIP3    H134723   3.333   5.017   7.678
11590TIP3    H234724   3.457   4.962   7.610
11591TIP3   OH234725   3.374   4.751   7.409
11591TIP3    H134726   3.440   4.801   7.460
11591TIP3    H234727   3.432   4.687   7.363
11592TIP3   OH234728   3.761   5.047   7.673
11592TIP3    H134729   3.708   5.069   7.752
11592TIP3    H234730   3.846   5.022   7.715
11593TIP3   OH234731   2.961   5.087   8.037
11593TIP3    H134732   2.916   5.022   7.979
11593TIP3    H234733   3.024   5.028   8.083
11594TIP3   OH234734   3.603   4.903   7.497
11594TIP3    H134735   3.660   4.965   7.548
11594TIP3    H234736   3.630   4.925   7.405
11595TIP3   OH234737   3.347   5.582   7.778
11595TIP3    H134738   3.430   5.633   7.778
11595TIP3    H234739   3.286   5.639   7.728
11596TIP3   OH234740   4.121   4.141   7.545
11596TIP3    H134741   4.039   4.164   7.594
11596TIP3    H234742   4.136   4.223   7.495
11597TIP3   OH234743   2.870   4.874   7.881
11597TIP3    H134744   2.787   4.896   7.833
11597TIP3    H234745   2.843   4.798   7.935
11598TIP3   OH234746   3.918   5.508   7.094
11598TIP3    H134747   3.927   5.605   7.080
11598TIP3    H234748   4.011   5.479   7.083
11599TIP3   OH234749   3.230   5.825   7.577
11599TIP3    H134750   3.184   5.806   7.493
11599TIP3    H234751   3.197   5.914   7.599
11600TIP3   OH234752   2.673   5.678   7.935
11600TIP3    H134753   2.673   5.696   8.031
11600TIP3    H234754   2.640   5.585   7.932
11601TIP3   OH234755   3.428   5.730   7.213
11601TIP3    H134756   3.487   5.660   7.178
11601TIP3    H234757   3.463   5.740   7.304
11602TIP3   OH234758   3.480   5.777   7.482
11602TIP3    H134759   3.391   5.787   7.524
11602TIP3    H234760   3.531   5.737   7.555
11603TIP3   OH234761   3.679   4.946   7.241
11603TIP3    H134762   3.644   4.923   7.153
11603TIP3    H234763   3.762   4.991   7.217
11604TIP3   OH234764   3.394   4.319   7.540
11604TIP3    H134765   3.359   4.315   7.631
11604TIP3    H234766   3.352   4.238   7.504
11605TIP3   OH234767   3.566   4.778   7.826
11605TIP3    H134768   3.512   4.849   7.785
11605TIP3    H234769   3.618   4.745   7.750
11606TIP3   OH234770   3.715   4.806   8.056
11606TIP3    H134771   3.645   4.820   7.989
11606TIP3    H234772   3.743   4.717   8.030
11607TIP3   OH234773   3.051   4.298   7.496
11607TIP3    H134774   3.040   4.298   7.593
11607TIP3    H234775   2.973   4.353   7.470
11608TIP3   OH234776   3.108   4.541   7.864
11608TIP3    H134777   3.186   4.580   7.821
11608TIP3    H234778   3.036   4.571   7.804
11609TIP3   OH234779   2.948   4.595   7.651
11609TIP3    H134780   2.871   4.547   7.618
11609TIP3    H234781   2.991   4.622   7.567
11610TIP3   OH234782   3.183   5.118   7.650
11610TIP3    H134783   3.113   5.048   7.645
11610TIP3    H234784   3.169   5.155   7.741
11611TIP3   OH234785   3.637   4.434   7.498
11611TIP3    H134786   3.543   4.409   7.515
11611TIP3    H234787   3.642   4.526   7.531
11612TIP3   OH234788   3.714   4.675   7.613
11612TIP3    H134789   3.810   4.681   7.631
11612TIP3    H234790   3.696   4.756   7.562
11613TIP3   OH234791   3.329   5.264   7.472
11613TIP3    H134792   3.281   5.350   7.475
11613TIP3    H234793   3.274   5.209   7.533
11614TIP3   OH234794   4.153   4.767   7.451
11614TIP3    H134795   4.091   4.724   7.387
11614TIP3    H234796   4.149   4.858   7.412
11615TIP3   OH234797   3.856   5.583   7.360
11615TIP3    H134798   3.828   5.514   7.421
11615TIP3    H234799   3.868   5.536   7.276
11616TIP3   OH234800   3.830   5.220   8.135
11616TIP3    H134801   3.774   5.176   8.199
11616TIP3    H234802   3.870   5.143   8.090
11617TIP3   OH234803   2.971   5.456   7.952
11617TIP3    H134804   2.970   5.533   7.892
11617TIP3    H234805   2.884   5.418   7.937
11618TIP3   OH234806   2.552   4.750   7.645
11618TIP3    H134807   2.611   4.826   7.665
11618TIP3    H234808   2.478   4.772   7.705
11619TIP3   OH234809   3.137   5.233   7.893
11619TIP3    H134810   3.103   5.322   7.914
11619TIP3    H234811   3.074   5.177   7.944
11620TIP3   OH234812   2.908   5.686   7.794
11620TIP3    H134813   2.820   5.690   7.839
11620TIP3    H234814   2.936   5.779   7.801
11621TIP3   OH234815   3.614   5.314   7.261
11621TIP3    H134816   3.665   5.287   7.340
11621TIP3    H234817   3.525   5.284   7.286
11622TIP3   OH234818   3.949   5.784   7.079
11622TIP3    H134819   3.987   5.858   7.028
11622TIP3    H234820   3.869   5.828   7.114
11623TIP3   OH234821   3.773   5.245   7.477
11623TIP3    H134822   3.762   5.181   7.550
11623TIP3    H234823   3.870   5.241   7.465
11624TIP3   OH234824   2.977   5.290   7.262
11624TIP3    H134825   2.986   5.197   7.233
11624TIP3    H234826   2.951   5.278   7.355
11625TIP3   OH234827   2.917   5.299   7.535
11625TIP3    H134828   2.995   5.268   7.583
11625TIP3    H234829   2.925   5.396   7.541
11626TIP3   OH234830   2.656   4.988   7.738
11626TIP3    H134831   2.589   5.016   7.801
11626TIP3    H234832   2.662   5.064   7.676
11627TIP3   OH234833   3.717   4.380   7.766
11627TIP3    H134834   3.691   4.406   7.676
11627TIP3    H234835   3.746   4.465   7.806
11628TIP3   OH234836   3.190   5.495   7.483
11628TIP3    H134837   3.102   5.519   7.518
11628TIP3    H234838   3.202   5.565   7.417
11629TIP3   OH234839   3.397   4.565   7.837
11629TIP3    H134840   3.453   4.645   7.834
11629TIP3    H234841   3.401   4.543   7.931
11630TIP3   OH234842   3.553   4.331   7.974
11630TIP3    H134843   3.599   4.391   8.034
11630TIP3    H234844   3.614   4.331   7.897
11631TIP3   OH234845   2.936   5.570   7.548
11631TIP3    H134846   2.904   5.639   7.486
11631TIP3    H234847   2.923   5.615   7.634
11632TIP3   OH234848   3.034   4.292   7.766
11632TIP3    H134849   3.031   4.380   7.808
11632TIP3    H234850   3.125   4.266   7.789
11633TIP3   OH234851   3.929   4.976   8.061
11633TIP3    H134852   3.855   4.913   8.077
11633TIP3    H234853   4.005   4.931   8.104
11634TIP3   OH234854   2.650   5.198   7.545
11634TIP3    H134855   2.723   5.262   7.550
11634TIP3    H234856   2.691   5.137   7.480
11635TIP3   OH234857   2.575   4.470   7.628
11635TIP3    H134858   2.608   4.560   7.640
11635TIP3    H234859   2.520   4.460   7.706
11636TIP3   OH234860   3.907   5.910   8.025
11636TIP3    H134861   3.863   5.970   7.961
11636TIP3    H234862   4.000   5.930   8.007
11637TIP3   OH234863   2.535   5.439   7.930
11637TIP3    H134864   2.471   5.398   7.991
11637TIP3    H234865   2.477   5.473   7.858
11638TIP3   OH234866   3.139   5.493   7.172
11638TIP3    H134867   3.082   5.421   7.209
11638TIP3    H234868   3.215   5.441   7.141
11639TIP3   OH234869   3.575   5.533   7.086
11639TIP3    H134870   3.615   5.468   7.146
11639TIP3    H234871   3.633   5.529   7.007
11640TIP3   OH234872   2.790   5.022   7.399
11640TIP3    H134873   2.844   4.979   7.467
11640TIP3    H234874   2.855   5.026   7.325
11641TIP3   OH234875   3.302   5.213   7.202
11641TIP3    H134876   3.301   5.222   7.299
11641TIP3    H234877   3.300   5.115   7.194
11642TIP3   OH234878   2.998   4.915   7.622
11642TIP3    H134879   2.961   4.875   7.704
11642TIP3    H234880   3.031   4.836   7.574
11643TIP3   OH234881   3.095   4.714   7.449
11643TIP3    H134882   3.071   4.724   7.355
11643TIP3    H234883   3.193   4.716   7.443
11644TIP3   OH234884   3.913   5.039   7.122
11644TIP3    H134885   3.893   4.996   7.037
11644TIP3    H234886   3.879   5.130   7.101
11645TIP3   OH234887   2.902   5.774   7.364
11645TIP3    H134888   2.997   5.766   7.345
11645TIP3    H234889   2.874   5.824   7.285
11646TIP3   OH234890   2.380   5.153   7.583
11646TIP3    H134891   2.473   5.176   7.562
11646TIP3    H234892   2.373   5.065   7.539
11647TIP3   OH234893   2.277   5.750   8.025
11647TIP3    H134894   2.200   5.718   7.973
11647TIP3    H234895   2.330   5.670   8.026
11648TIP3   OH234896   4.169   6.005   7.993
11648TIP3    H134897   4.164   6.083   8.049
11648TIP3    H234898   4.200   6.040   7.909
11649TIP3   OH234899   4.050   5.226   7.453
11649TIP3    H134900   4.117   5.290   7.423
11649TIP3    H234901   4.095   5.188   7.533
11650TIP3   OH234902   4.177   5.093   7.656
11650TIP3    H134903   4.110   5.052   7.716
11650TIP3    H234904   4.242   5.129   7.719
11651TIP3   OH234905   4.250   5.505   8.098
11651TIP3    H134906   4.285   5.418   8.074
11651TIP3    H234907   4.214   5.539   8.015
11652TIP3   OH234908   4.116   5.002   7.302
11652TIP3    H134909   4.044   5.004   7.235
11652TIP3    H234910   4.087   5.077   7.359
11653TIP3   OH234911   3.988   4.674   7.255
11653TIP3    H134912   3.941   4.709   7.179
11653TIP3    H234913   3.965   4.579   7.248
11654TIP3   OH234914   3.990   4.953   7.798
11654TIP3    H134915   3.996   4.856   7.793
11654TIP3    H234916   3.972   4.967   7.894
11655TIP3   OH234917   3.931   4.408   7.239
11655TIP3    H134918   4.001   4.376   7.299
11655TIP3    H234919   3.854   4.351   7.260
11656TIP3   OH234920   3.989   4.669   7.697
11656TIP3    H134921   4.028   4.580   7.711
11656TIP3    H234922   4.047   4.701   7.625
11657TIP3   OH234923   4.154   4.847   8.154
11657TIP3    H134924   4.244   4.886   8.148
11657TIP3    H234925   4.151   4.818   8.247
11658TIP3   OH234926   4.102   4.421   7.735
11658TIP3    H134927   4.146   4.401   7.820
11658TIP3    H234928   4.039   4.346   7.729
11659TIP3   OH234929   4.177   4.349   7.370
11659TIP3    H134930   4.215   4.280   7.312
11659TIP3    H234931   4.244   4.420   7.366
11660TIP3   OH234932   3.741   5.886   7.636
11660TIP3    H134933   3.791   5.873   7.553
11660TIP3    H234934   3.797   5.948   7.684
11661TIP3   OH234935   3.087   5.757   8.105
11661TIP3    H134936   3.065   5.665   8.089
11661TIP3    H234937   3.094   5.761   8.202
11662TIP3   OH234938   4.183   4.305   8.203
11662TIP3    H134939   4.215   4.333   8.114
11662TIP3    H234940   4.109   4.248   8.178
11663TIP3   OH234941   4.268   4.377   7.954
11663TIP3    H134942   4.334   4.324   7.905
11663TIP3    H234943   4.301   4.468   7.933
11664TIP3   OH234944   3.920   4.213   7.717
11664TIP3    H134945   3.840   4.268   7.734
11664TIP3    H234946   3.896   4.131   7.766
11665TIP3   OH234947   2.388   5.547   7.732
11665TIP3    H134948   2.308   5.508   7.694
11665TIP3    H234949   2.389   5.632   7.684
11666TIP3   OH234950   2.797   4.159   7.691
11666TIP3    H134951   2.840   4.079   7.658
11666TIP3    H234952   2.872   4.205   7.733
11667TIP3   OH234953   3.320   4.308   7.803
11667TIP3    H134954   3.393   4.272   7.857
11667TIP3    H234955   3.342   4.404   7.807
11668TIP3   OH234956   3.169   5.729   7.310
11668TIP3    H134957   3.257   5.752   7.273
11668TIP3    H234958   3.146   5.655   7.249
11669TIP3   OH234959   3.887   5.851   7.404
11669TIP3    H134960   3.881   5.753   7.393
11669TIP3    H234961   3.841   5.881   7.323
11670TIP3   OH234962   2.474   5.570   7.363
11670TIP3    H134963   2.482   5.590   7.457
11670TIP3    H234964   2.560   5.525   7.344
11671TIP3   OH234965   5.383   5.367   7.346
11671TIP3    H134966   5.350   5.459   7.335
11671TIP3    H234967   5.303   5.317   7.322
11672TIP3   OH234968   5.328   5.358   7.717
11672TIP3    H134969   5.379   5.347   7.798
11672TIP3    H234970   5.307   5.266   7.693
11673TIP3   OH234971   4.661   5.671   7.836
11673TIP3    H134972   4.649   5.574   7.836
11673TIP3    H234973   4.755   5.677   7.808
11674TIP3   OH234974   4.359   4.872   7.607
11674TIP3    H134975   4.312   4.955   7.628
11674TIP3    H234976   4.286   4.821   7.566
11675TIP3   OH234977   4.414   5.158   7.777
11675TIP3    H134978   4.463   5.082   7.815
11675TIP3    H234979   4.477   5.193   7.714
11676TIP3   OH234980   5.161   5.580   7.746
11676TIP3    H134981   5.226   5.511   7.724
11676TIP3    H234982   5.187   5.609   7.836
11677TIP3   OH234983   5.572   5.073   7.799
11677TIP3    H134984   5.615   4.986   7.812
11677TIP3    H234985   5.538   5.063   7.708
11678TIP3   OH234986   4.935   4.755   7.786
11678TIP3    H134987   4.912   4.826   7.722
11678TIP3    H234988   4.887   4.680   7.744
11679TIP3   OH234989   5.623   4.846   7.398
11679TIP3    H134990   5.692   4.828   7.467
11679TIP3    H234991   5.679   4.885   7.329
11680TIP3   OH234992   4.561   4.956   7.886
11680TIP3    H134993   4.644   4.936   7.934
11680TIP3    H234994   4.576   4.899   7.807
11681TIP3   OH234995   4.999   5.147   7.687
11681TIP3    H134996   5.094   5.124   7.692
11681TIP3    H234997   4.961   5.065   7.649
11682TIP3   OH234998   5.285   5.603   7.223
11682TIP3    H134999   5.236   5.579   7.143
11682TIP3    H235000   5.231   5.678   7.255
11683TIP3   OH235001   5.825   4.835   7.579
11683TIP3    H135002   5.802   4.803   7.667
11683TIP3    H235003   5.888   4.905   7.599
11684TIP3   OH235004   4.795   4.864   8.000
11684TIP3    H135005   4.852   4.936   8.027
11684TIP3    H235006   4.849   4.820   7.930
11685TIP3   OH235007   4.252   5.397   7.344
11685TIP3    H135008   4.212   5.426   7.261
11685TIP3    H235009   4.285   5.482   7.381
11686TIP3   OH235010   5.265   4.461   7.904
11686TIP3    H135011   5.272   4.368   7.932
11686TIP3    H235012   5.195   4.493   7.965
11687TIP3   OH235013   5.376   5.925   7.211
11687TIP3    H135014   5.464   5.888   7.198
11687TIP3    H235015   5.396   6.019   7.224
11688TIP3   OH235016   5.566   5.714   7.177
11688TIP3    H135017   5.526   5.663   7.105
11688TIP3    H235018   5.505   5.692   7.249
11689TIP3   OH235019   5.208   5.218   7.185
11689TIP3    H135020   5.128   5.271   7.167
11689TIP3    H235021   5.252   5.219   7.098
11690TIP3   OH235022   5.169   5.005   6.898
11690TIP3    H135023   5.234   5.057   6.948
11690TIP3    H235024   5.229   4.942   6.852
11691TIP3   OH235025   5.561   5.303   7.152
11691TIP3    H135026   5.505   5.324   7.231
11691TIP3    H235027   5.645   5.276   7.195
11692TIP3   OH235028   4.788   5.300   7.575
11692TIP3    H135029   4.750   5.241   7.507
11692TIP3    H235030   4.864   5.248   7.609
11693TIP3   OH235031   4.913   5.692   7.726
11693TIP3    H135032   4.900   5.670   7.633
11693TIP3    H235033   5.003   5.656   7.741
11694TIP3   OH235034   4.906   5.284   7.909
11694TIP3    H135035   4.946   5.238   7.833
11694TIP3    H235036   4.982   5.324   7.952
11695TIP3   OH235037   5.399   5.159   6.983
11695TIP3    H135038   5.457   5.220   7.033
11695TIP3    H235039   5.425   5.180   6.890
11696TIP3   OH235040   5.126   5.832   7.269
11696TIP3    H135041   5.214   5.874   7.262
11696TIP3    H235042   5.069   5.899   7.230
11697TIP3   OH235043   5.915   4.397   7.034
11697TIP3    H135044   5.833   4.419   7.083
11697TIP3    H235045   5.929   4.480   6.984
11698TIP3   OH235046   4.659   5.140   7.377
11698TIP3    H135047   4.590   5.185   7.323
11698TIP3    H235048   4.618   5.054   7.392
11699TIP3   OH235049   5.715   5.763   6.585
11699TIP3    H135050   5.721   5.857   6.556
11699TIP3    H235051   5.806   5.732   6.567
11700TIP3   OH235052   4.291   5.735   7.889
11700TIP3    H135053   4.377   5.703   7.919
11700TIP3    H235054   4.259   5.788   7.962
11701TIP3   OH235055   4.937   6.089   7.049
11701TIP3    H135056   4.964   6.065   6.959
11701TIP3    H235057   5.020   6.123   7.087
11702TIP3   OH235058   4.459   5.932   7.448
11702TIP3    H135059   4.509   5.920   7.532
11702TIP3    H235060   4.410   5.848   7.445
11703TIP3   OH235061   5.221   5.984   6.690
11703TIP3    H135062   5.283   5.915   6.660
11703TIP3    H235063   5.246   5.992   6.785
11704TIP3   OH235064   5.269   5.996   6.956
11704TIP3    H135065   5.230   6.062   7.017
11704TIP3    H235066   5.332   5.956   7.018
11705TIP3   OH235067   5.053   4.535   8.058
11705TIP3    H135068   4.961   4.510   8.032
11705TIP3    H235069   5.042   4.629   8.076
11706TIP3   OH235070   5.476   5.203   6.729
11706TIP3    H135071   5.440   5.179   6.641
11706TIP3    H235072   5.559   5.248   6.703
11707TIP3   OH235073   5.188   4.578   7.033
11707TIP3    H135074   5.152   4.574   7.124
11707TIP3    H235075   5.147   4.497   6.996
11708TIP3   OH235076   4.859   4.930   7.593
11708TIP3    H135077   4.765   4.906   7.612
11708TIP3    H235078   4.869   4.890   7.504
11709TIP3   OH235079   5.343   5.017   7.312
11709TIP3    H135080   5.293   5.090   7.267
11709TIP3    H235081   5.399   4.984   7.239
11710TIP3   OH235082   5.470   5.028   7.551
11710TIP3    H135083   5.415   5.052   7.472
11710TIP3    H235084   5.524   4.958   7.508
11711TIP3   OH235085   4.843   4.555   6.997
11711TIP3    H135086   4.832   4.553   7.094
11711TIP3    H235087   4.766   4.608   6.971
11712TIP3   OH235088   4.387   4.599   7.867
11712TIP3    H135089   4.458   4.638   7.922
11712TIP3    H235090   4.432   4.573   7.786
11713TIP3   OH235091   4.355   4.578   7.387
11713TIP3    H135092   4.400   4.615   7.309
11713TIP3    H235093   4.293   4.652   7.406
11714TIP3   OH235094   5.190   4.750   7.649
11714TIP3    H135095   5.107   4.751   7.701
11714TIP3    H235096   5.257   4.745   7.719
11715TIP3   OH235097   4.619   4.812   7.659
11715TIP3    H135098   4.525   4.821   7.632
11715TIP3    H235099   4.640   4.720   7.637
11716TIP3   OH235100   4.885   4.805   7.351
11716TIP3    H135101   4.978   4.821   7.327
11716TIP3    H235102   4.836   4.827   7.269
11717TIP3   OH235103   5.653   4.819   7.852
11717TIP3    H135104   5.646   4.807   7.947
11717TIP3    H235105   5.583   4.759   7.819
11718TIP3   OH235106   4.735   4.841   7.129
11718TIP3    H135107   4.662   4.796   7.082
11718TIP3    H235108   4.785   4.877   7.054
11719TIP3   OH235109   5.266   5.076   7.733
11719TIP3    H135110   5.333   5.044   7.670
11719TIP3    H235111   5.306   5.053   7.818
11720TIP3   OH235112   4.792   4.571   7.636
11720TIP3    H135113   4.752   4.493   7.680
11720TIP3    H235114   4.835   4.530   7.559
11721TIP3   OH235115   4.981   5.369   7.135
11721TIP3    H135116   4.908   5.304   7.123
11721TIP3    H235117   4.959   5.405   7.225
11722TIP3   OH235118   5.438   4.681   7.000
11722TIP3    H135119   5.342   4.661   7.010
11722TIP3    H235120   5.444   4.775   7.026
11723TIP3   OH235121   5.507   4.931   7.102
11723TIP3    H135122   5.603   4.938   7.119
11723TIP3    H235123   5.488   5.012   7.051
11724TIP3   OH235124   4.675   5.389   7.818
11724TIP3    H135125   4.697   5.367   7.726
11724TIP3    H235126   4.757   5.355   7.862
11725TIP3   OH235127   5.126   5.519   6.958
11725TIP3    H135128   5.077   5.605   6.960
11725TIP3    H235129   5.071   5.466   7.020
11726TIP3   OH235130   5.950   5.024   6.937
11726TIP3    H135131   5.889   4.979   6.875
11726TIP3    H235132   5.946   5.113   6.895
11727TIP3   OH235133   5.659   5.812   6.851
11727TIP3    H135134   5.591   5.747   6.875
11727TIP3    H235135   5.669   5.793   6.755
11728TIP3   OH235136   4.777   5.701   7.441
11728TIP3    H135137   4.778   5.781   7.384
11728TIP3    H235138   4.683   5.680   7.440
11729TIP3   OH235139   4.340   5.001   7.143
11729TIP3    H135140   4.384   5.086   7.164
11729TIP3    H235141   4.263   5.004   7.203
11730TIP3   OH235142   4.907   5.462   7.376
11730TIP3    H135143   4.878   5.553   7.398
11730TIP3    H235144   4.875   5.413   7.454
11731TIP3   OH235145   4.697   5.937   7.289
11731TIP3    H135146   4.611   5.952   7.333
11731TIP3    H235147   4.730   6.029   7.283
11732TIP3   OH235148   5.408   5.571   6.746
11732TIP3    H135149   5.458   5.538   6.825
11732TIP3    H235150   5.318   5.545   6.770
11733TIP3   OH235151   5.728   6.031   6.532
11733TIP3    H135152   5.758   6.086   6.457
11733TIP3    H235153   5.653   6.086   6.563
11734TIP3   OH235154   5.566   5.504   6.961
11734TIP3    H135155   5.554   5.438   7.032
11734TIP3    H235156   5.662   5.494   6.944
11735TIP3   OH235157   4.773   5.547   6.747
11735TIP3    H135158   4.784   5.453   6.723
11735TIP3    H235159   4.752   5.540   6.842
11736TIP3   OH235160   4.717   5.554   7.018
11736TIP3    H135161   4.791   5.530   7.076
11736TIP3    H235162   4.717   5.652   7.025
11737TIP3   OH235163   4.451   5.246   7.224
11737TIP3    H135164   4.384   5.290   7.280
11737TIP3    H235165   4.463   5.315   7.155
11738TIP3   OH235166   5.486   4.629   7.283
11738TIP3    H135167   5.471   4.652   7.189
11738TIP3    H235168   5.524   4.713   7.317
11739TIP3   OH235169   4.983   5.749   6.966
11739TIP3    H135170   4.898   5.776   7.004
11739TIP3    H235171   5.008   5.831   6.921
11740TIP3   OH235172   5.170   4.815   7.382
11740TIP3    H135173   5.232   4.888   7.364
11740TIP3    H235174   5.176   4.807   7.479
11741TIP3   OH235175   5.313   4.536   7.482
11741TIP3    H135176   5.300   4.615   7.537
11741TIP3    H235177   5.376   4.570   7.414
11742TIP3   OH235178   4.726   5.824   7.037
11742TIP3    H135179   4.701   5.896   6.975
11742TIP3    H235180   4.718   5.871   7.123
11743TIP3   OH235181   4.827   4.541   7.274
11743TIP3    H135182   4.825   4.631   7.311
11743TIP3    H235183   4.924   4.523   7.281
11744TIP3   OH235184   5.723   5.174   7.523
11744TIP3    H135185   5.632   5.163   7.554
11744TIP3    H235186   5.768   5.213   7.599
11745TIP3   OH235187   4.446   5.451   7.027
11745TIP3    H135188   4.514   5.520   7.037
11745TIP3    H235189   4.491   5.395   6.960
11746TIP3   OH235190   4.388   4.731   7.162
11746TIP3    H135191   4.388   4.828   7.160
11746TIP3    H235192   4.306   4.710   7.116
11747TIP3   OH235193   4.786   4.478   8.007
11747TIP3    H135194   4.755   4.442   7.921
11747TIP3    H235195   4.773   4.401   8.066
11748TIP3   OH235196   4.314   5.670   7.411
11748TIP3    H135197   4.248   5.699   7.476
11748TIP3    H235198   4.279   5.712   7.329
11749TIP3   OH235199   4.933   5.750   6.653
11749TIP3    H135200   4.877   5.681   6.696
11749TIP3    H235201   5.011   5.697   6.629
11750TIP3   OH235202   5.374   5.788   6.571
11750TIP3    H135203   5.413   5.720   6.628
11750TIP3    H235204   5.429   5.783   6.490
11751TIP3   OH235205   4.581   5.267   6.882
11751TIP3    H135206   4.637   5.237   6.956
11751TIP3    H235207   4.648   5.273   6.811
11752TIP3   OH235208   5.099   5.470   6.689
11752TIP3    H135209   5.096   5.481   6.786
11752TIP3    H235210   5.096   5.372   6.682
11753TIP3   OH235211   4.787   5.174   7.101
11753TIP3    H135212   4.759   5.134   7.186
11753TIP3    H235213   4.824   5.097   7.053
11754TIP3   OH235214   4.890   4.968   6.942
11754TIP3    H135215   4.865   4.976   6.848
11754TIP3    H235216   4.988   4.969   6.935
11755TIP3   OH235217   5.710   5.294   6.608
11755TIP3    H135218   5.690   5.251   6.523
11755TIP3    H235219   5.677   5.385   6.588
11756TIP3   OH235220   4.695   6.023   6.842
11756TIP3    H135221   4.792   6.022   6.840
11756TIP3    H235222   4.676   6.079   6.765
11757TIP3   OH235223   4.177   5.411   7.063
11757TIP3    H135224   4.271   5.432   7.049
11757TIP3    H235225   4.170   5.322   7.023
11758TIP3   OH235226   4.093   6.023   7.478
11758TIP3    H135227   4.027   5.962   7.439
11758TIP3    H235228   4.137   5.963   7.542
11759TIP3   OH235229   4.221   5.869   7.665
11759TIP3    H135230   4.219   5.797   7.730
11759TIP3    H235231   4.282   5.929   7.711
11760TIP3   OH235232   5.840   5.479   6.934
11760TIP3    H135233   5.904   5.543   6.895
11760TIP3    H235234   5.891   5.444   7.010
11761TIP3   OH235235   5.974   5.370   7.149
11761TIP3    H135236   5.902   5.315   7.186
11761TIP3    H235237   6.018   5.398   7.231
11762TIP3   OH235238   5.912   5.256   6.787
11762TIP3    H135239   5.842   5.254   6.717
11762TIP3    H235240   5.879   5.332   6.839
11763TIP3   OH235241   5.785   4.931   6.743
11763TIP3    H135242   5.737   4.967   6.667
11763TIP3    H235243   5.762   4.835   6.735
11764TIP3   OH235244   5.794   5.202   7.264
11764TIP3    H135245   5.801   5.106   7.248
11764TIP3    H235246   5.775   5.201   7.361
11765TIP3   OH235247   4.425   5.286   8.020
11765TIP3    H135248   4.407   5.249   7.931
11765TIP3    H235249   4.515   5.318   8.009
11766TIP3   OH235250   5.727   4.665   6.727
11766TIP3    H135251   5.797   4.632   6.786
11766TIP3    H235252   5.650   4.608   6.747
11767TIP3   OH235253   5.788   4.925   7.179
11767TIP3    H135254   5.824   4.835   7.197
11767TIP3    H235255   5.847   4.952   7.106
11768TIP3   OH235256   5.894   4.675   7.221
11768TIP3    H135257   5.941   4.658   7.305
11768TIP3    H235258   5.831   4.599   7.220
11769TIP3   OH235259   4.595   4.674   8.034
11769TIP3    H135260   4.659   4.601   8.031
11769TIP3    H235261   4.656   4.750   8.036
11770TIP3   OH235262   4.413   4.956   8.128
11770TIP3    H135263   4.458   4.936   8.043
11770TIP3    H235264   4.415   5.053   8.128
11771TIP3   OH235265   5.973   4.606   6.859
11771TIP3    H135266   6.011   4.537   6.800
11771TIP3    H235267   6.037   4.678   6.851
11772TIP3   OH235268   4.380   4.434   7.614
11772TIP3    H135269   4.288   4.431   7.645
11772TIP3    H235270   4.374   4.495   7.537
11773TIP3   OH235271   4.406   6.024   7.813
11773TIP3    H135272   4.441   6.012   7.902
11773TIP3    H235273   4.473   5.976   7.760
11774TIP3   OH235274   4.596   5.889   7.681
11774TIP3    H135275   4.616   5.806   7.729
11774TIP3    H235276   4.686   5.931   7.680
11775TIP3   OH235277   4.854   5.979   7.704
11775TIP3    H135278   4.886   5.899   7.659
11775TIP3    H235279   4.932   6.005   7.753
11776TIP3   OH235280   5.441   4.649   7.777
11776TIP3    H135281   5.391   4.579   7.824
11776TIP3    H235282   5.508   4.598   7.729
11777TIP3   OH235283   5.961   4.531   7.674
11777TIP3    H135284   5.993   4.581   7.596
11777TIP3    H235285   5.865   4.549   7.671
11778TIP3   OH235286   6.059   4.630   7.437
11778TIP3    H135287   6.129   4.571   7.399
11778TIP3    H235288   6.105   4.716   7.427
11779TIP3   OH235289   4.688   4.358   7.780
11779TIP3    H135290   4.594   4.328   7.782
11779TIP3    H235291   4.734   4.271   7.779
11780TIP3   OH235292   4.481   4.229   7.439
11780TIP3    H135293   4.507   4.285   7.363
11780TIP3    H235294   4.451   4.295   7.504
11781TIP3   OH235295   5.136   4.389   7.669
11781TIP3    H135296   5.190   4.437   7.604
11781TIP3    H235297   5.171   4.426   7.753
11782TIP3   OH235298   5.676   4.540   7.648
11782TIP3    H135299   5.681   4.500   7.560
11782TIP3    H235300   5.665   4.461   7.706
11783TIP3   OH235301   5.710   4.462   7.214
11783TIP3    H135302   5.623   4.505   7.229
11783TIP3    H235303   5.695   4.376   7.259
11784TIP3   OH235304   4.193   5.802   7.212
11784TIP3    H135305   4.106   5.770   7.180
11784TIP3    H235306   4.185   5.896   7.189
11785TIP3   OH235307   4.595   4.386   7.197
11785TIP3    H135308   4.642   4.323   7.139
11785TIP3    H235309   4.669   4.440   7.232
11786TIP3   OH235310   5.105   4.565   7.295
11786TIP3    H135311   5.164   4.517   7.355
11786TIP3    H235312   5.127   4.657   7.321
11787TIP3   OH235313   4.967   5.986   6.792
11787TIP3    H135314   5.055   6.008   6.754
11787TIP3    H235315   4.944   5.909   6.734
11788TIP3   OH235316   5.725   6.096   6.829
11788TIP3    H135317   5.735   5.999   6.833
11788TIP3    H235318   5.665   6.106   6.752
11789TIP3   OH235319   4.268   5.823   6.850
11789TIP3    H135320   4.271   5.846   6.944
11789TIP3    H235321   4.356   5.782   6.835
11790TIP3   OH235322   6.142   5.130   7.111
11790TIP3    H135323   6.096   5.215   7.114
11790TIP3    H235324   6.079   5.077   7.060
11791TIP3   OH235325   6.035   5.637   6.804
11791TIP3    H135326   6.001   5.664   6.716
11791TIP3    H235327   6.038   5.721   6.853
11792TIP3   OH235328   6.948   5.251   6.374
11792TIP3    H135329   6.994   5.303   6.442
11792TIP3    H235330   7.021   5.198   6.334
11793TIP3   OH235331   6.469   5.369   6.819
11793TIP3    H135332   6.388   5.411   6.784
11793TIP3    H235333   6.433   5.312   6.889
11794TIP3   OH235334   7.001   4.828   6.520
11794TIP3    H135335   6.959   4.828   6.609
11794TIP3    H235336   6.954   4.752   6.481
11795TIP3   OH235337   6.640   4.814   6.484
11795TIP3    H135338   6.625   4.807   6.580
11795TIP3    H235339   6.563   4.868   6.458
11796TIP3   OH235340   6.212   4.845   7.362
11796TIP3    H135341   6.239   4.937   7.358
11796TIP3    H235342   6.213   4.817   7.269
11797TIP3   OH235343   6.147   4.830   6.868
11797TIP3    H135344   6.198   4.868   6.793
11797TIP3    H235345   6.091   4.907   6.889
11798TIP3   OH235346   6.420   5.057   7.073
11798TIP3    H135347   6.331   5.089   7.099
11798TIP3    H235348   6.433   4.983   7.134
11799TIP3   OH235349   6.696   5.024   6.827
11799TIP3    H135350   6.777   5.077   6.823
11799TIP3    H235351   6.639   5.062   6.756
11800TIP3   OH235352   6.535   5.094   6.621
11800TIP3    H135353   6.456   5.056   6.578
11800TIP3    H235354   6.581   5.132   6.543
11801TIP3   OH235355   6.604   4.795   7.119
11801TIP3    H135356   6.534   4.733   7.096
11801TIP3    H235357   6.627   4.832   7.032
11802TIP3   OH235358   7.218   4.979   6.479
11802TIP3    H135359   7.136   4.926   6.494
11802TIP3    H235360   7.188   5.039   6.408
11803TIP3   OH235361   6.137   5.256   6.628
11803TIP3    H135362   6.183   5.340   6.649
11803TIP3    H235363   6.060   5.261   6.689
11804TIP3   OH235364   6.584   5.780   6.239
11804TIP3    H135365   6.662   5.729   6.264
11804TIP3    H235366   6.576   5.840   6.315
11805TIP3   OH235367   6.252   5.500   6.706
11805TIP3    H135368   6.180   5.544   6.756
11805TIP3    H235369   6.262   5.564   6.632
11806TIP3   OH235370   6.624   4.773   6.758
11806TIP3    H135371   6.633   4.867   6.788
11806TIP3    H235372   6.717   4.746   6.762
11807TIP3   OH235373   6.240   5.712   6.522
11807TIP3    H135374   6.288   5.794   6.547
11807TIP3    H235375   6.292   5.680   6.446
11808TIP3   OH235376   6.187   4.987   6.646
11808TIP3    H135377   6.188   5.085   6.646
11808TIP3    H235378   6.102   4.969   6.604
11809TIP3   OH235379   6.383   5.519   6.371
11809TIP3    H135380   6.436   5.490   6.450
11809TIP3    H235381   6.449   5.506   6.302
11810TIP3   OH235382   6.548   5.428   6.564
11810TIP3    H135383   6.529   5.399   6.656
11810TIP3    H235384   6.599   5.353   6.529
11811TIP3   OH235385   6.685   5.222   6.433
11811TIP3    H135386   6.651   5.227   6.341
11811TIP3    H235387   6.781   5.217   6.414
11812TIP3   OH235388   5.970   5.667   6.536
11812TIP3    H135389   6.066   5.686   6.524
11812TIP3    H235390   5.964   5.578   6.496
11813TIP3   OH235391   7.544   4.824   6.198
11813TIP3    H135392   7.594   4.897   6.236
11813TIP3    H235393   7.456   4.863   6.184
11814TIP3   OH235394   6.175   4.708   7.107
11814TIP3    H135395   6.082   4.687   7.128
11814TIP3    H235396   6.167   4.758   7.023
11815TIP3   OH235397   6.280   4.489   6.926
11815TIP3    H135398   6.302   4.544   6.848
11815TIP3    H235399   6.248   4.555   6.989
11816TIP3   OH235400   6.388   4.640   6.684
11816TIP3    H135401   6.435   4.578   6.625
11816TIP3    H235402   6.464   4.692   6.720
11817TIP3   OH235403   6.915   4.823   6.781
11817TIP3    H135404   6.960   4.765   6.845
11817TIP3    H235405   6.903   4.906   6.830
11818TIP3   OH235406   6.075   6.076   6.357
11818TIP3    H135407   6.108   6.102   6.445
11818TIP3    H235408   6.155   6.029   6.323
11819TIP3   OH235409   1.972   5.696   7.686
11819TIP3    H135410   1.885   5.714   7.730
11819TIP3    H235411   1.982   5.778   7.632
11820TIP3   OH235412   1.874   6.219   7.339
11820TIP3    H135413   1.820   6.234   7.260
11820TIP3    H235414   1.843   6.129   7.363
11821TIP3   OH235415   1.772   5.975   7.409
11821TIP3    H135416   1.852   5.946   7.458
11821TIP3    H235417   1.721   5.895   7.398
11822TIP3   OH235418   2.016   5.905   7.517
11822TIP3    H135419   2.055   5.837   7.457
11822TIP3    H235420   2.079   5.979   7.511
11823TIP3   OH235421   3.475   6.384   7.549
11823TIP3    H135422   3.547   6.376   7.616
11823TIP3    H235423   3.522   6.435   7.481
11824TIP3   OH235424   3.670   6.399   7.736
11824TIP3    H135425   3.676   6.356   7.822
11824TIP3    H235426   3.727   6.477   7.752
11825TIP3   OH235427   3.105   6.018   8.049
11825TIP3    H135428   3.105   5.919   8.061
11825TIP3    H235429   3.075   6.047   8.136
11826TIP3   OH235430   3.056   6.719   7.312
11826TIP3    H135431   2.995   6.795   7.302
11826TIP3    H235432   3.122   6.737   7.244
11827TIP3   OH235433   3.005   6.555   7.043
11827TIP3    H135434   3.057   6.606   7.108
11827TIP3    H235435   3.076   6.501   7.001
11828TIP3   OH235436   3.408   6.853   7.286
11828TIP3    H135437   3.360   6.909   7.352
11828TIP3    H235438   3.486   6.824   7.338
11829TIP3   OH235439   3.253   6.703   7.123
11829TIP3    H135440   3.311   6.768   7.169
11829TIP3    H235441   3.271   6.727   7.029
11830TIP3   OH235442   3.755   5.956   7.184
11830TIP3    H135443   3.674   5.979   7.233
11830TIP3    H235444   3.771   6.038   7.134
11831TIP3   OH235445   3.557   7.322   6.736
11831TIP3    H135446   3.569   7.415   6.707
11831TIP3    H235447   3.648   7.287   6.725
11832TIP3   OH235448   3.316   6.758   6.868
11832TIP3    H135449   3.283   6.737   6.779
11832TIP3    H235450   3.393   6.814   6.847
11833TIP3   OH235451   3.027   6.135   7.181
11833TIP3    H135452   2.993   6.131   7.273
11833TIP3    H235453   2.988   6.053   7.146
11834TIP3   OH235454   3.206   6.566   7.478
11834TIP3    H135455   3.148   6.628   7.427
11834TIP3    H235456   3.262   6.530   7.407
11835TIP3   OH235457   3.345   6.578   7.709
11835TIP3    H135458   3.291   6.578   7.627
11835TIP3    H235459   3.389   6.492   7.695
11836TIP3   OH235460   2.682   6.110   7.147
11836TIP3    H135461   2.676   6.110   7.245
11836TIP3    H235462   2.604   6.164   7.124
11837TIP3   OH235463   2.184   6.132   7.538
11837TIP3    H135464   2.237   6.159   7.460
11837TIP3    H235465   2.140   6.217   7.557
11838TIP3   OH235466   3.036   6.324   7.792
11838TIP3    H135467   2.954   6.314   7.842
11838TIP3    H235468   3.105   6.302   7.858
11839TIP3   OH235469   2.731   6.344   7.489
11839TIP3    H135470   2.820   6.382   7.484
11839TIP3    H235471   2.679   6.396   7.425
11840TIP3   OH235472   3.506   6.358   8.017
11840TIP3    H135473   3.422   6.403   8.030
11840TIP3    H235474   3.486   6.299   7.943
11841TIP3   OH235475   2.558   6.404   7.262
11841TIP3    H135476   2.505   6.351   7.199
11841TIP3    H235477   2.630   6.433   7.202
11842TIP3   OH235478   2.639   6.135   7.795
11842TIP3    H135479   2.610   6.048   7.828
11842TIP3    H235480   2.682   6.112   7.711
11843TIP3   OH235481   3.279   6.238   7.152
11843TIP3    H135482   3.182   6.220   7.160
11843TIP3    H235483   3.287   6.332   7.177
11844TIP3   OH235484   3.350   6.485   7.259
11844TIP3    H135485   3.447   6.497   7.269
11844TIP3    H235486   3.325   6.563   7.205
11845TIP3   OH235487   2.992   7.068   7.058
11845TIP3    H135488   2.976   7.166   7.056
11845TIP3    H235489   2.947   7.041   7.140
11846TIP3   OH235490   3.786   6.583   7.088
11846TIP3    H135491   3.727   6.538   7.023
11846TIP3    H235492   3.782   6.673   7.048
11847TIP3   OH235493   3.519   7.374   7.012
11847TIP3    H135494   3.461   7.299   7.033
11847TIP3    H235495   3.524   7.366   6.915
11848TIP3   OH235496   3.243   7.132   6.891
11848TIP3    H135497   3.294   7.100   6.969
11848TIP3    H235498   3.152   7.125   6.925
11849TIP3   OH235499   3.597   7.590   6.696
11849TIP3    H135500   3.598   7.648   6.618
11849TIP3    H235501   3.520   7.627   6.741
11850TIP3   OH235502   3.412   7.071   7.100
11850TIP3    H135503   3.393   7.009   7.173
11850TIP3    H235504   3.509   7.061   7.093
11851TIP3   OH235505   2.630   7.080   6.893
11851TIP3    H135506   2.649   6.988   6.868
11851TIP3    H235507   2.609   7.074   6.986
11852TIP3   OH235508   3.325   6.184   7.432
11852TIP3    H135509   3.310   6.209   7.339
11852TIP3    H235510   3.369   6.264   7.468
11853TIP3   OH235511   3.015   6.373   7.526
11853TIP3    H135512   3.081   6.442   7.509
11853TIP3    H235513   3.022   6.364   7.624
11854TIP3   OH235514   3.154   6.094   7.630
11854TIP3    H135515   3.151   6.173   7.686
11854TIP3    H235516   3.216   6.125   7.559
11855TIP3   OH235517   2.667   6.090   7.422
11855TIP3    H135518   2.673   6.183   7.453
11855TIP3    H235519   2.762   6.067   7.431
11856TIP3   OH235520   3.585   6.721   7.694
11856TIP3    H135521   3.503   6.675   7.719
11856TIP3    H235522   3.653   6.679   7.751
11857TIP3   OH235523   2.228   6.282   7.302
11857TIP3    H135524   2.283   6.331   7.240
11857TIP3    H235525   2.162   6.239   7.247
11858TIP3   OH235526   2.748   7.295   6.773
11858TIP3    H135527   2.707   7.214   6.812
11858TIP3    H235528   2.812   7.319   6.844
11859TIP3   OH235529   3.216   7.375   6.706
11859TIP3    H135530   3.225   7.314   6.781
11859TIP3    H235531   3.275   7.337   6.640
11860TIP3   OH235532   2.408   6.807   7.010
11860TIP3    H135533   2.444   6.810   7.100
11860TIP3    H235534   2.490   6.809   6.956
11861TIP3   OH235535   2.914   7.006   6.804
11861TIP3    H135536   2.934   7.036   6.895
11861TIP3    H235537   2.921   6.909   6.816
11862TIP3   OH235538   2.633   6.686   7.269
11862TIP3    H135539   2.559   6.626   7.290
11862TIP3    H235540   2.679   6.636   7.199
11863TIP3   OH235541   2.737   6.503   7.084
11863TIP3    H135542   2.713   6.517   6.991
11863TIP3    H235543   2.835   6.510   7.078
11864TIP3   OH235544   3.557   6.856   6.755
11864TIP3    H135545   3.532   6.812   6.672
11864TIP3    H235546   3.521   6.946   6.738
11865TIP3   OH235547   3.685   7.045   7.081
11865TIP3    H135548   3.754   7.109   7.055
11865TIP3    H235549   3.724   7.004   7.161
11866TIP3   OH235550   3.794   6.910   7.285
11866TIP3    H135551   3.734   6.858   7.343
11866TIP3    H235552   3.871   6.927   7.343
11867TIP3   OH235553   3.753   6.816   6.940
11867TIP3    H135554   3.683   6.819   6.871
11867TIP3    H235555   3.723   6.892   6.994
11868TIP3   OH235556   3.628   6.487   6.890
11868TIP3    H135557   3.575   6.527   6.820
11868TIP3    H235558   3.603   6.393   6.881
11869TIP3   OH235559   3.626   6.754   7.431
11869TIP3    H135560   3.634   6.659   7.411
11869TIP3    H235561   3.615   6.752   7.529
11870TIP3   OH235562   3.567   6.221   6.875
11870TIP3    H135563   3.639   6.191   6.935
11870TIP3    H235564   3.492   6.164   6.898
11871TIP3   OH235565   3.630   6.485   7.331
11871TIP3    H135566   3.668   6.396   7.348
11871TIP3    H235567   3.687   6.513   7.256
11872TIP3   OH235568   3.801   6.614   7.835
11872TIP3    H135569   3.887   6.655   7.811
11872TIP3    H235570   3.795   6.631   7.931
11873TIP3   OH235571   3.735   6.234   7.372
11873TIP3    H135572   3.782   6.217   7.456
11873TIP3    H235573   3.673   6.158   7.371
11874TIP3   OH235574   3.812   6.164   7.008
11874TIP3    H135575   3.852   6.094   6.952
11874TIP3    H235576   3.879   6.235   7.005
11875TIP3   OH235577   2.227   5.958   7.743
11875TIP3    H135578   2.132   5.947   7.758
11875TIP3    H235579   2.228   6.030   7.676
11876TIP3   OH235580   3.265   6.205   7.912
11876TIP3    H135581   3.229   6.133   7.967
11876TIP3    H235582   3.345   6.164   7.875
11877TIP3   OH235583   3.807   6.087   7.830
11877TIP3    H135584   3.841   6.136   7.752
11877TIP3    H235585   3.711   6.106   7.825
11878TIP3   OH235586   3.899   6.186   7.591
11878TIP3    H135587   3.972   6.135   7.549
11878TIP3    H235588   3.932   6.278   7.575
11879TIP3   OH235589   2.517   5.917   7.924
11879TIP3    H135590   2.426   5.884   7.926
11879TIP3    H235591   2.568   5.834   7.915
11880TIP3   OH235592   2.331   5.766   7.573
11880TIP3    H135593   2.361   5.824   7.500
11880TIP3    H235594   2.300   5.832   7.638
11881TIP3   OH235595   2.977   5.956   7.820
11881TIP3    H135596   3.029   5.998   7.749
11881TIP3    H235597   3.032   5.975   7.898
11882TIP3   OH235598   3.512   6.105   7.803
11882TIP3    H135599   3.521   6.067   7.715
11882TIP3    H235600   3.502   6.023   7.858
11883TIP3   OH235601   3.551   6.021   7.364
11883TIP3    H135602   3.464   6.064   7.378
11883TIP3    H235603   3.535   5.935   7.409
11884TIP3   OH235604   2.437   5.944   7.348
11884TIP3    H135605   2.485   5.881   7.290
11884TIP3    H235606   2.511   5.997   7.383
11885TIP3   OH235607   2.947   6.118   7.444
11885TIP3    H135608   3.011   6.079   7.506
11885TIP3    H235609   2.960   6.213   7.466
11886TIP3   OH235610   3.991   6.672   7.246
11886TIP3    H135611   3.959   6.761   7.269
11886TIP3    H235612   3.914   6.635   7.199
11887TIP3   OH235613   4.034   6.940   7.411
11887TIP3    H135614   4.084   6.878   7.467
11887TIP3    H235615   4.093   7.017   7.412
11888TIP3   OH235616   4.515   6.596   7.454
11888TIP3    H135617   4.531   6.656   7.379
11888TIP3    H235618   4.495   6.514   7.405
11889TIP3   OH235619   4.223   6.753   7.518
11889TIP3    H135620   4.314   6.721   7.521
11889TIP3    H235621   4.197   6.712   7.433
11890TIP3   OH235622   3.889   7.211   6.978
11890TIP3    H135623   3.843   7.234   6.896
11890TIP3    H235624   3.906   7.299   7.018
11891TIP3   OH235625   4.873   7.055   6.774
11891TIP3    H135626   4.789   7.100   6.798
11891TIP3    H235627   4.843   6.998   6.703
11892TIP3   OH235628   4.814   6.820   6.545
11892TIP3    H135629   4.848   6.793   6.631
11892TIP3    H235630   4.873   6.771   6.484
11893TIP3   OH235631   0.572   2.417   2.068
11893TIP3    H135632   0.536   2.471   2.141
11893TIP3    H235633   0.521   2.450   1.993
11894TIP3   OH235634   5.544   6.204   6.652
11894TIP3    H135635   5.468   6.223   6.711
11894TIP3    H235636   5.557   6.292   6.610
11895TIP3   OH235637   4.303   6.949   6.986
11895TIP3    H135638   4.223   6.991   6.950
11895TIP3    H235639   4.267   6.876   7.037
11896TIP3   OH235640   5.098   7.028   6.354
11896TIP3    H135641   5.040   6.984   6.287
11896TIP3    H235642   5.116   7.110   6.305
11897TIP3   OH235643   4.823   6.398   6.672
11897TIP3    H135644   4.788   6.391   6.763
11897TIP3    H235645   4.785   6.315   6.635
11898TIP3   OH235646   4.489   6.755   7.226
11898TIP3    H135647   4.399   6.720   7.245
11898TIP3    H235648   4.506   6.709   7.141
11899TIP3   OH235649   4.480   6.369   6.633
11899TIP3    H135650   4.471   6.367   6.730
11899TIP3    H235651   4.402   6.423   6.609
11900TIP3   OH235652   4.026   6.408   7.508
11900TIP3    H135653   4.100   6.446   7.559
11900TIP3    H235654   4.066   6.382   7.424
11901TIP3   OH235655   3.990   6.392   7.023
11901TIP3    H135656   4.038   6.428   6.946
11901TIP3    H235657   3.930   6.467   7.043
11902TIP3   OH235658   4.254   6.624   7.281
11902TIP3    H135659   4.159   6.623   7.255
11902TIP3    H235660   4.283   6.532   7.266
11903TIP3   OH235661   4.521   6.617   6.990
11903TIP3    H135662   4.616   6.627   6.971
11903TIP3    H235663   4.476   6.640   6.905
11904TIP3   OH235664   4.372   6.658   6.765
11904TIP3    H135665   4.297   6.612   6.722
11904TIP3    H235666   4.421   6.690   6.686
11905TIP3   OH235667   4.427   6.391   7.275
11905TIP3    H135668   4.391   6.312   7.322
11905TIP3    H235669   4.484   6.349   7.209
11906TIP3   OH235670   4.618   7.169   6.789
11906TIP3    H135671   4.548   7.105   6.763
11906TIP3    H235672   4.588   7.196   6.877
11907TIP3   OH235673   5.059   6.513   6.598
11907TIP3    H135674   4.973   6.482   6.633
11907TIP3    H235675   5.083   6.589   6.652
11908TIP3   OH235676   5.189   6.732   6.731
11908TIP3    H135677   5.278   6.714   6.697
11908TIP3    H235678   5.172   6.820   6.694
11909TIP3   OH235679   3.976   6.815   6.780
11909TIP3    H135680   4.020   6.900   6.802
11909TIP3    H235681   3.899   6.818   6.840
11910TIP3   OH235682   4.413   7.353   6.387
11910TIP3    H135683   4.418   7.259   6.360
11910TIP3    H235684   4.380   7.347   6.478
11911TIP3   OH235685   4.352   7.377   6.660
11911TIP3    H135686   4.448   7.368   6.671
11911TIP3    H235687   4.343   7.474   6.669
11912TIP3   OH235688   4.085   7.062   6.859
11912TIP3    H135689   4.017   7.105   6.915
11912TIP3    H235690   4.095   7.129   6.789
11913TIP3   OH235691   5.155   6.438   6.875
11913TIP3    H135692   5.105   6.470   6.800
11913TIP3    H235693   5.111   6.477   6.952
11914TIP3   OH235694   4.804   6.626   7.024
11914TIP3    H135695   4.866   6.686   6.977
11914TIP3    H235696   4.835   6.639   7.116
11915TIP3   OH235697   4.337   7.649   6.685
11915TIP3    H135698   4.349   7.684   6.593
11915TIP3    H235699   4.282   7.720   6.719
11916TIP3   OH235700   4.464   6.356   6.907
11916TIP3    H135701   4.461   6.444   6.950
11916TIP3    H235702   4.559   6.336   6.917
11917TIP3   OH235703   4.084   7.266   6.665
11917TIP3    H135704   4.157   7.330   6.671
11917TIP3    H235705   4.122   7.207   6.596
11918TIP3   OH235706   4.025   6.545   6.797
11918TIP3    H135707   4.026   6.643   6.797
11918TIP3    H235708   3.941   6.526   6.756
11919TIP3   OH235709   4.385   6.265   7.680
11919TIP3    H135710   4.387   6.237   7.586
11919TIP3    H235711   4.401   6.181   7.727
11920TIP3   OH235712   3.938   7.473   7.050
11920TIP3    H135713   3.863   7.516   7.002
11920TIP3    H235714   4.011   7.515   7.003
11921TIP3   OH235715   4.575   7.548   6.276
11921TIP3    H135716   4.517   7.477   6.313
11921TIP3    H235717   4.636   7.497   6.219
11922TIP3   OH235718   4.218   7.083   6.519
11922TIP3    H135719   4.271   7.048   6.592
11922TIP3    H235720   4.285   7.085   6.448
11923TIP3   OH235721   4.720   7.279   6.327
11923TIP3    H135722   4.684   7.289   6.416
11923TIP3    H235723   4.739   7.182   6.324
11924TIP3   OH235724   4.424   6.982   6.739
11924TIP3    H135725   4.385   6.950   6.823
11924TIP3    H235726   4.454   6.899   6.697
11925TIP3   OH235727   4.526   6.781   6.574
11925TIP3    H135728   4.498   6.789   6.481
11925TIP3    H235729   4.623   6.786   6.565
11926TIP3   OH235730   5.356   7.002   6.234
11926TIP3    H135731   5.330   6.981   6.138
11926TIP3    H235732   5.372   7.102   6.222
11927TIP3   OH235733   4.343   7.822   6.480
11927TIP3    H135734   4.425   7.868   6.503
11927TIP3    H235735   4.318   7.870   6.397
11928TIP3   OH235736   3.813   7.223   6.703
11928TIP3    H135737   3.907   7.244   6.686
11928TIP3    H235738   3.805   7.135   6.661
11929TIP3   OH235739   5.283   6.765   6.421
11929TIP3    H135740   5.358   6.754   6.361
11929TIP3    H235741   5.298   6.651   6.440
11930TIP3   OH235742   5.354   6.494   6.381
11930TIP3    H135743   5.434   6.469   6.428
11930TIP3    H235744   5.294   6.423   6.392
11931TIP3   OH235745   4.238   6.488   7.675
11931TIP3    H135746   4.279   6.399   7.682
11931TIP3    H235747   4.315   6.541   7.654
11932TIP3   OH235748   4.037   6.749   7.761
11932TIP3    H135749   4.080   6.706   7.685
11932TIP3    H235750   4.075   6.838   7.756
11933TIP3   OH235751   5.598   6.422   6.489
11933TIP3    H135752   5.649   6.363   6.431
11933TIP3    H235753   5.645   6.507   6.479
11934TIP3   OH235754   4.016   6.250   7.252
11934TIP3    H135755   3.923   6.246   7.280
11934TIP3    H235756   4.011   6.310   7.175
11935TIP3   OH235757   4.329   6.175   7.419
11935TIP3    H135758   4.236   6.144   7.425
11935TIP3    H235759   4.376   6.089   7.417
11936TIP3   OH235760   4.114   6.044   7.073
11936TIP3    H135761   4.144   6.101   7.000
11936TIP3    H235762   4.088   6.110   7.141
11937TIP3   OH235763   4.754   6.210   7.318
11937TIP3    H135764   4.840   6.246   7.290
11937TIP3    H235765   4.743   6.254   7.403
11938TIP3   OH235766   5.355   6.259   6.844
11938TIP3    H135767   5.283   6.326   6.852
11938TIP3    H235768   5.327   6.199   6.914
11939TIP3   OH235769   3.803   7.628   6.873
11939TIP3    H135770   3.733   7.600   6.810
11939TIP3    H235771   3.839   7.704   6.823
11940TIP3   OH235772   4.232   6.201   6.833
11940TIP3    H135773   4.280   6.138   6.776
11940TIP3    H235774   4.306   6.255   6.869
11941TIP3   OH235775   4.743   6.373   6.933
11941TIP3    H135776   4.792   6.307   6.985
11941TIP3    H235777   4.772   6.457   6.975
11942TIP3   OH235778   3.903   7.634   6.487
11942TIP3    H135779   3.900   7.688   6.568
11942TIP3    H235780   3.993   7.596   6.486
11943TIP3   OH235781   4.098   8.156   6.247
11943TIP3    H135782   4.097   8.175   6.342
11943TIP3    H235783   4.025   8.214   6.216
11944TIP3   OH235784   3.824   7.828   6.679
11944TIP3    H135785   3.832   7.902   6.616
11944TIP3    H235786   3.735   7.845   6.716
11945TIP3   OH235787   3.867   8.016   6.458
11945TIP3    H135788   3.908   7.950   6.397
11945TIP3    H235789   3.945   8.069   6.484
   7.90000   7.44819   6.45032   0.00000   0.00000  -2.63333   0.00000  -2.63333  -3.72410
