Title t= 180.00000 step= 90000
46055
    1GLY      N    1   2.642   2.824   1.008
    1GLY    HT1    2   2.644   2.739   1.068
    1GLY    HT2    3   2.741   2.835   0.980
    1GLY    HT3    4   2.577   2.808   0.928
    1GLY     CA    5   2.603   2.936   1.097
    1GLY    HA1    6   2.497   2.929   1.113
    1GLY    HA2    7   2.645   3.023   1.047
    1GLY      C    8   2.664   2.922   1.238
    1GLY      O    9   2.728   2.822   1.263
    2PRO      N   10   2.649   3.014   1.326
    2PRO     CD   11   2.588   3.141   1.298
    2PRO    HD1   12   2.479   3.117   1.294
    2PRO    HD2   13   2.617   3.203   1.211
    2PRO     CA   14   2.713   3.012   1.453
    2PRO     HA   15   2.814   3.040   1.426
    2PRO     CB   16   2.641   3.124   1.544
    2PRO    HB1   17   2.715   3.172   1.611
    2PRO    HB2   18   2.554   3.087   1.603
    2PRO     CG   19   2.612   3.228   1.429
    2PRO    HG1   20   2.530   3.297   1.458
    2PRO    HG2   21   2.706   3.287   1.426
    2PRO      C   22   2.741   2.882   1.530
    2PRO      O   23   2.647   2.807   1.548
    3GLY      N   24   2.867   2.856   1.573
    3GLY     HN   25   2.946   2.912   1.549
    3GLY     CA   26   2.911   2.730   1.640
    3GLY    HA1   27   3.019   2.728   1.639
    3GLY    HA2   28   2.874   2.644   1.586
    3GLY      C   29   2.856   2.702   1.775
    3GLY      O   30   2.780   2.777   1.837
    4ALA      N   31   2.901   2.593   1.831
    4ALA     HN   32   2.966   2.533   1.784
    4ALA     CA   33   2.861   2.558   1.969
    4ALA     HA   34   2.753   2.561   1.974
    4ALA     CB   35   2.898   2.410   2.007
    4ALA    HB1   36   2.856   2.392   2.109
    4ALA    HB2   37   3.004   2.379   1.996
    4ALA    HB3   38   2.841   2.352   1.932
    4ALA      C   39   2.923   2.656   2.071
    4ALA      O   40   3.041   2.682   2.050
    5PRO      N   41   2.850   2.719   2.164
    5PRO     CD   42   2.709   2.719   2.170
    5PRO    HD1   43   2.668   2.620   2.200
    5PRO    HD2   44   2.669   2.737   2.068
    5PRO     CA   45   2.912   2.792   2.274
    5PRO     HA   46   2.960   2.882   2.239
    5PRO     CB   47   2.787   2.832   2.365
    5PRO    HB1   48   2.807   2.933   2.407
    5PRO    HB2   49   2.777   2.766   2.454
    5PRO     CG   50   2.667   2.828   2.268
    5PRO    HG1   51   2.565   2.816   2.309
    5PRO    HG2   52   2.661   2.925   2.215
    5PRO      C   53   3.018   2.719   2.355
    5PRO      O   54   3.011   2.601   2.395
    6GLY      N   55   3.113   2.792   2.410
    6GLY     HN   56   3.110   2.890   2.392
    6GLY     CA   57   3.200   2.756   2.518
    6GLY    HA1   58   3.294   2.805   2.498
    6GLY    HA2   59   3.213   2.649   2.519
    6GLY      C   60   3.136   2.782   2.655
    6GLY      O   61   3.011   2.771   2.670
    7PRO      N   62   3.218   2.820   2.751
    7PRO     CD   63   3.362   2.792   2.745
    7PRO    HD1   64   3.419   2.875   2.698
    7PRO    HD2   65   3.394   2.695   2.700
    7PRO     CA   66   3.171   2.845   2.887
    7PRO     HA   67   3.144   2.746   2.922
    7PRO     CB   68   3.304   2.886   2.953
    7PRO    HB1   69   3.281   2.862   3.059
    7PRO    HB2   70   3.326   2.993   2.938
    7PRO     CG   71   3.409   2.794   2.891
    7PRO    HG1   72   3.507   2.846   2.901
    7PRO    HG2   73   3.416   2.692   2.935
    7PRO      C   74   3.055   2.947   2.909
    7PRO      O   75   2.999   3.002   2.816
    8GLY      N   76   3.020   2.975   3.039
    8GLY     HN   77   3.052   2.923   3.118
    8GLY     CA   78   2.948   3.098   3.067
    8GLY    HA1   79   2.922   3.093   3.172
    8GLY    HA2   80   2.858   3.093   3.007
    8GLY      C   81   3.008   3.230   3.056
    8GLY      O   82   3.131   3.257   3.043
    9ALA      N   83   2.925   3.330   3.056
    9ALA     HN   84   2.827   3.311   3.059
    9ALA     CA   85   2.961   3.472   3.051
    9ALA     HA   86   3.039   3.479   2.976
    9ALA     CB   87   2.845   3.556   2.998
    9ALA    HB1   88   2.831   3.543   2.889
    9ALA    HB2   89   2.856   3.664   3.021
    9ALA    HB3   90   2.747   3.525   3.040
    9ALA      C   91   3.019   3.534   3.179
    9ALA      O   92   2.989   3.484   3.290
   10PRO      N   93   3.102   3.638   3.176
   10PRO     CD   94   3.167   3.686   3.050
   10PRO    HD1   95   3.089   3.746   2.998
   10PRO    HD2   96   3.200   3.603   2.985
   10PRO     CA   97   3.149   3.721   3.292
   10PRO     HA   98   3.226   3.672   3.350
   10PRO     CB   99   3.223   3.839   3.225
   10PRO    HB1  100   3.290   3.899   3.291
   10PRO    HB2  101   3.147   3.908   3.183
   10PRO     CG  102   3.283   3.773   3.103
   10PRO    HG1  103   3.331   3.839   3.026
   10PRO    HG2  104   3.358   3.698   3.136
   10PRO      C  105   3.032   3.752   3.391
   10PRO      O  106   2.927   3.796   3.349
   11GLY      N  107   3.059   3.735   3.517
   11GLY     HN  108   3.148   3.693   3.533
   11GLY     CA  109   2.969   3.771   3.625
   11GLY    HA1  110   3.032   3.747   3.709
   11GLY    HA2  111   2.885   3.703   3.613
   11GLY      C  112   2.929   3.921   3.638
   11GLY      O  113   3.004   4.004   3.596
   12PRO      N  114   2.813   3.950   3.702
   12PRO     CD  115   2.735   3.854   3.773
   12PRO    HD1  116   2.794   3.800   3.850
   12PRO    HD2  117   2.696   3.783   3.697
   12PRO     CA  118   2.742   4.071   3.676
   12PRO     HA  119   2.749   4.093   3.570
   12PRO     CB  120   2.603   4.048   3.729
   12PRO    HB1  121   2.550   4.004   3.642
   12PRO    HB2  122   2.561   4.143   3.770
   12PRO     CG  123   2.630   3.933   3.831
   12PRO    HG1  124   2.657   3.983   3.927
   12PRO    HG2  125   2.539   3.875   3.857
   12PRO      C  126   2.809   4.181   3.759
   12PRO      O  127   2.870   4.162   3.861
   13GLY      N  128   2.796   4.304   3.716
   13GLY     HN  129   2.780   4.315   3.618
   13GLY     CA  130   2.824   4.424   3.788
   13GLY    HA1  131   2.795   4.498   3.715
   13GLY    HA2  132   2.928   4.428   3.820
   13GLY      C  133   2.742   4.443   3.914
   13GLY      O  134   2.643   4.380   3.941
   14ALA      N  135   2.777   4.535   4.002
   14ALA     HN  136   2.857   4.590   3.980
   14ALA     CA  137   2.712   4.555   4.129
   14ALA     HA  138   2.609   4.523   4.128
   14ALA     CB  139   2.777   4.491   4.257
   14ALA    HB1  140   2.871   4.537   4.295
   14ALA    HB2  141   2.804   4.386   4.236
   14ALA    HB3  142   2.706   4.512   4.340
   14ALA      C  143   2.689   4.703   4.154
   14ALA      O  144   2.792   4.769   4.181
   15PRO      N  145   2.572   4.769   4.152
   15PRO     CD  146   2.468   4.726   4.068
   15PRO    HD1  147   2.389   4.674   4.125
   15PRO    HD2  148   2.498   4.656   3.987
   15PRO     CA  149   2.562   4.911   4.177
   15PRO     HA  150   2.632   4.977   4.127
   15PRO     CB  151   2.422   4.946   4.130
   15PRO    HB1  152   2.403   5.053   4.107
   15PRO    HB2  153   2.346   4.908   4.203
   15PRO     CG  154   2.405   4.855   4.009
   15PRO    HG1  155   2.299   4.836   3.983
   15PRO    HG2  156   2.463   4.901   3.925
   15PRO      C  157   2.581   4.932   4.331
   15PRO    OT1  158   2.526   4.859   4.418
   15PRO    OT2  159   2.657   5.024   4.372
   16LIT    LIT  160   5.431   5.029   2.903
   17LIT    LIT  161   3.333   5.869   3.836
   18LIT    LIT  162   3.949   1.416   0.742
   19LIT    LIT  163   4.962   5.355   1.382
   20LIT    LIT  164   2.423   5.683   1.865
   21LIT    LIT  165   1.793   4.916   2.396
   22LIT    LIT  166   3.005   1.042   5.126
   23LIT    LIT  167   7.081   4.372   3.660
   24LIT    LIT  168   4.741   5.737   3.307
   25LIT    LIT  169   5.367   0.355   5.919
   26LIT    LIT  170   6.182   2.549   4.738
   27LIT    LIT  171   0.379   4.530   2.392
   28LIT    LIT  172   0.814   6.689   4.869
   29LIT    LIT  173   5.543   1.585   1.956
   30LIT    LIT  174   3.567   5.475   3.046
   31LIT    LIT  175   7.939   2.951   4.604
   32LIT    LIT  176   0.391   3.205   5.465
   33LIT    LIT  177   5.601   6.978   2.546
   34LIT    LIT  178   7.452   5.993   0.621
   35LIT    LIT  179   5.922   7.090   3.987
   36LIT    LIT  180   7.764   6.228   4.593
   37LIT    LIT  181   2.455   6.642   2.638
   38LIT    LIT  182   0.149   5.313   1.490
   39LIT    LIT  183   2.682   1.932   5.649
   40LIT    LIT  184   7.804   6.287   6.427
   41LIT    LIT  185   1.809   1.993   6.099
   42LIT    LIT  186   6.009   4.534   1.463
   43LIT    LIT  187   1.632   7.653   1.241
   44LIT    LIT  188   4.989   7.805   0.990
   45LIT    LIT  189   8.212   7.125   2.130
   46LIT    LIT  190   1.913   3.993   4.213
   47LIT    LIT  191   0.988   1.210   1.862
   48LIT    LIT  192   0.804   6.571   1.541
   49LIT    LIT  193   5.315   7.676   5.211
   50LIT    LIT  194   4.101   5.829   2.357
   51LIT    LIT  195   0.973   3.169   6.651
   52LIT    LIT  196   7.023   0.469   5.577
   53LIT    LIT  197   4.055   6.981   5.269
   54LIT    LIT  198   5.372   1.898   6.503
   55LIT    LIT  199   3.544   0.664   3.223
   56LIT    LIT  200   6.965   5.510   3.978
   57LIT    LIT  201   3.528   4.893   0.589
   58LIT    LIT  202   2.583   4.976   4.543
   59CLA    CLA  203   4.168   5.848   1.885
   60CLA    CLA  204   3.551   6.402   4.022
   61CLA    CLA  205   5.649   7.354   1.071
   62CLA    CLA  206   5.864   0.193   5.043
   63CLA    CLA  207   8.272   7.085   2.746
   64CLA    CLA  208   2.936   7.232   5.188
   65CLA    CLA  209   1.612   2.847   6.256
   66CLA    CLA  210   5.600   2.683   6.670
   67CLA    CLA  211   6.707   4.065   4.054
   68CLA    CLA  212   7.111   4.809   3.509
   69CLA    CLA  213   6.679   7.443   3.940
   70CLA    CLA  214   7.949   3.073   5.895
   71CLA    CLA  215   2.041   2.633   1.422
   72CLA    CLA  216   6.210   5.881   4.304
   73CLA    CLA  217   0.630   6.652   4.739
   74CLA    CLA  218   4.998   7.814   1.537
   75CLA    CLA  219   5.275   6.681   6.178
   76CLA    CLA  220   3.878   6.100   6.579
   77CLA    CLA  221   2.957   1.796   5.023
   78CLA    CLA  222   0.112   1.503   4.759
   79CLA    CLA  223   6.613   5.172   1.067
   80CLA    CLA  224   6.999   5.924   0.564
   81CLA    CLA  225   2.742   1.538   1.482
   82CLA    CLA  226   4.469   5.260   2.736
   83CLA    CLA  227   8.160   6.548   5.434
   84CLA    CLA  228   8.177   6.775   1.931
   85CLA    CLA  229   0.097   6.180   2.126
   86CLA    CLA  230   7.486   3.383   5.973
   87CLA    CLA  231   0.191   1.233   6.408
   88CLA    CLA  232   5.515   4.825   2.536
   89CLA    CLA  233   3.128   2.296   0.953
   90CLA    CLA  234   4.776   6.155   0.587
   91CLA    CLA  235   2.651   4.033   6.776
   92CLA    CLA  236   4.869   4.916   1.819
   93CLA    CLA  237   2.700   0.768   5.336
   94CLA    CLA  238   5.064   6.392   3.987
   95CLA    CLA  239   4.612   0.281   1.291
   96CLA    CLA  240   6.187   2.369   4.336
   97CLA    CLA  241   1.725   1.957   5.147
   98CLA    CLA  242   6.986   3.137   5.741
   99CLA    CLA  243   1.376   4.964   2.134
  100CLA    CLA  244   5.031   0.463   6.180
  101CLA    CLA  245   2.231   0.151   3.157
  102TIP3   OH2  246   5.052   6.583   5.844
  102TIP3    H1  247   5.002   6.574   5.763
  102TIP3    H2  248   5.128   6.527   5.832
  103TIP3   OH2  249   1.064   4.620   5.588
  103TIP3    H1  250   1.071   4.532   5.626
  103TIP3    H2  251   0.970   4.640   5.590
  104TIP3   OH2  252   3.632   1.648   4.841
  104TIP3    H1  253   3.576   1.597   4.783
  104TIP3    H2  254   3.599   1.738   4.833
  105TIP3   OH2  255   1.207   5.370   6.609
  105TIP3    H1  256   1.265   5.294   6.599
  105TIP3    H2  257   1.159   5.354   6.690
  106TIP3   OH2  258   1.798   7.377   1.446
  106TIP3    H1  259   1.746   7.357   1.524
  106TIP3    H2  260   1.884   7.339   1.465
  107TIP3   OH2  261   2.297   1.806   0.439
  107TIP3    H1  262   2.218   1.808   0.385
  107TIP3    H2  263   2.307   1.896   0.470
  108TIP3   OH2  264   1.778   2.615   5.466
  108TIP3    H1  265   1.794   2.523   5.446
  108TIP3    H2  266   1.750   2.615   5.558
  109TIP3   OH2  267   6.380   6.078   4.179
  109TIP3    H1  268   6.396   6.120   4.263
  109TIP3    H2  269   6.325   6.003   4.200
  110TIP3   OH2  270   3.892   2.702   1.339
  110TIP3    H1  271   3.851   2.620   1.309
  110TIP3    H2  272   3.951   2.727   1.268
  111TIP3   OH2  273   6.047   5.343   0.080
  111TIP3    H1  274   6.135   5.381   0.084
  111TIP3    H2  275   5.993   5.403   0.131
  112TIP3   OH2  276   2.796   6.980   3.226
  112TIP3    H1  277   2.860   6.909   3.218
  112TIP3    H2  278   2.848   7.060   3.216
  113TIP3   OH2  279   4.168   0.355   0.301
  113TIP3    H1  280   4.180   0.269   0.260
  113TIP3    H2  281   4.236   0.359   0.368
  114TIP3   OH2  282   3.203   2.232   2.090
  114TIP3    H1  283   3.196   2.319   2.130
  114TIP3    H2  284   3.251   2.247   2.008
  115TIP3   OH2  285   2.779   4.212   0.198
  115TIP3    H1  286   2.824   4.130   0.176
  115TIP3    H2  287   2.804   4.273   0.128
  116TIP3   OH2  288   1.455   0.529   5.751
  116TIP3    H1  289   1.504   0.559   5.827
  116TIP3    H2  290   1.494   0.445   5.728
  117TIP3   OH2  291   6.358   6.883   0.767
  117TIP3    H1  292   6.347   6.852   0.677
  117TIP3    H2  293   6.333   6.809   0.822
  118TIP3   OH2  294   2.738   6.556   0.862
  118TIP3    H1  295   2.792   6.524   0.934
  118TIP3    H2  296   2.796   6.552   0.786
  119TIP3   OH2  297   2.618   1.144   0.690
  119TIP3    H1  298   2.591   1.052   0.690
  119TIP3    H2  299   2.688   1.148   0.756
  120TIP3   OH2  300   7.531   1.785   2.341
  120TIP3    H1  301   7.539   1.847   2.414
  120TIP3    H2  302   7.568   1.832   2.267
  121TIP3   OH2  303   0.556   7.238   5.257
  121TIP3    H1  304   0.647   7.247   5.229
  121TIP3    H2  305   0.506   7.289   5.194
  122TIP3   OH2  306   1.627   1.517   3.802
  122TIP3    H1  307   1.573   1.580   3.849
  122TIP3    H2  308   1.579   1.434   3.808
  123TIP3   OH2  309   6.516   6.760   1.855
  123TIP3    H1  310   6.544   6.691   1.916
  123TIP3    H2  311   6.585   6.763   1.789
  124TIP3   OH2  312   5.544   4.991   3.342
  124TIP3    H1  313   5.569   5.002   3.251
  124TIP3    H2  314   5.464   4.938   3.339
  125TIP3   OH2  315   1.814   5.129   6.319
  125TIP3    H1  316   1.877   5.130   6.246
  125TIP3    H2  317   1.805   5.037   6.341
  126TIP3   OH2  318   2.394   4.715   0.659
  126TIP3    H1  319   2.408   4.792   0.715
  126TIP3    H2  320   2.446   4.646   0.699
  127TIP3   OH2  321   7.008   7.682   5.717
  127TIP3    H1  322   7.001   7.638   5.632
  127TIP3    H2  323   6.932   7.652   5.766
  128TIP3   OH2  324   8.004   3.716   3.550
  128TIP3    H1  325   8.014   3.631   3.594
  128TIP3    H2  326   7.910   3.730   3.546
  129TIP3   OH2  327   0.222   0.042   0.582
  129TIP3    H1  328   0.276   0.063   0.658
  129TIP3    H2  329   0.198   0.127   0.545
  130TIP3   OH2  330   3.977   0.649   6.633
  130TIP3    H1  331   4.047   0.714   6.635
  130TIP3    H2  332   3.920   0.678   6.561
  131TIP3   OH2  333   5.328   1.898   5.072
  131TIP3    H1  334   5.340   1.960   5.144
  131TIP3    H2  335   5.240   1.863   5.085
  132TIP3   OH2  336   8.173   0.452   6.576
  132TIP3    H1  337   8.079   0.442   6.590
  132TIP3    H2  338   8.188   0.419   6.487
  133TIP3   OH2  339   6.465   0.537   3.460
  133TIP3    H1  340   6.483   0.450   3.423
  133TIP3    H2  341   6.375   0.532   3.490
  134TIP3   OH2  342   8.040   5.050   1.625
  134TIP3    H1  343   8.038   5.063   1.530
  134TIP3    H2  344   8.130   5.026   1.645
  135TIP3   OH2  345   7.342   7.650   5.706
  135TIP3    H1  346   7.278   7.720   5.690
  135TIP3    H2  347   7.418   7.695   5.741
  136TIP3   OH2  348   7.274   2.003   1.707
  136TIP3    H1  349   7.346   1.954   1.747
  136TIP3    H2  350   7.292   2.094   1.728
  137TIP3   OH2  351   5.878   5.291   4.498
  137TIP3    H1  352   5.839   5.347   4.431
  137TIP3    H2  353   5.809   5.282   4.565
  138TIP3   OH2  354   6.933   5.904   1.366
  138TIP3    H1  355   7.002   5.895   1.431
  138TIP3    H2  356   6.852   5.907   1.417
  139TIP3   OH2  357   4.289   4.754   1.297
  139TIP3    H1  358   4.377   4.792   1.289
  139TIP3    H2  359   4.278   4.738   1.390
  140TIP3   OH2  360   5.862   1.145   2.940
  140TIP3    H1  361   5.879   1.116   3.029
  140TIP3    H2  362   5.948   1.147   2.898
  141TIP3   OH2  363   6.875   7.606   0.446
  141TIP3    H1  364   6.827   7.523   0.446
  141TIP3    H2  365   6.966   7.581   0.433
  142TIP3   OH2  366   3.726   0.162   3.702
  142TIP3    H1  367   3.783   0.239   3.711
  142TIP3    H2  368   3.746   0.108   3.778
  143TIP3   OH2  369   5.807   1.138   5.658
  143TIP3    H1  370   5.809   1.178   5.571
  143TIP3    H2  371   5.729   1.174   5.699
  144TIP3   OH2  372   8.012   0.866   6.521
  144TIP3    H1  373   7.952   0.794   6.502
  144TIP3    H2  374   7.989   0.894   6.609
  145TIP3   OH2  375   2.778   5.258   3.378
  145TIP3    H1  376   2.861   5.282   3.420
  145TIP3    H2  377   2.731   5.209   3.446
  146TIP3   OH2  378   1.643   5.317   2.926
  146TIP3    H1  379   1.719   5.294   2.873
  146TIP3    H2  380   1.591   5.375   2.870
  147TIP3   OH2  381   4.642   2.695   0.418
  147TIP3    H1  382   4.566   2.721   0.469
  147TIP3    H2  383   4.616   2.613   0.376
  148TIP3   OH2  384   7.000   6.156   5.223
  148TIP3    H1  385   6.937   6.151   5.151
  148TIP3    H2  386   6.967   6.226   5.279
  149TIP3   OH2  387   4.731   4.225   1.977
  149TIP3    H1  388   4.725   4.129   1.975
  149TIP3    H2  389   4.740   4.247   2.070
  150TIP3   OH2  390   6.466   4.234   4.045
  150TIP3    H1  391   6.542   4.177   4.055
  150TIP3    H2  392   6.411   4.189   3.981
  151TIP3   OH2  393   3.242   5.397   1.163
  151TIP3    H1  394   3.285   5.460   1.221
  151TIP3    H2  395   3.152   5.394   1.194
  152TIP3   OH2  396   6.591   4.022   2.282
  152TIP3    H1  397   6.542   4.088   2.233
  152TIP3    H2  398   6.566   3.939   2.241
  153TIP3   OH2  399   6.943   3.144   1.568
  153TIP3    H1  400   6.993   3.062   1.559
  153TIP3    H2  401   6.961   3.173   1.657
  154TIP3   OH2  402   6.266   3.767   6.388
  154TIP3    H1  403   6.342   3.768   6.331
  154TIP3    H2  404   6.212   3.841   6.359
  155TIP3   OH2  405   2.101   2.189   4.572
  155TIP3    H1  406   2.136   2.103   4.546
  155TIP3    H2  407   2.162   2.252   4.533
  156TIP3   OH2  408   6.396   6.859   5.095
  156TIP3    H1  409   6.397   6.806   5.174
  156TIP3    H2  410   6.303   6.864   5.070
  157TIP3   OH2  411   0.021   1.065   1.471
  157TIP3    H1  412  -0.035   1.121   1.524
  157TIP3    H2  413   0.091   1.122   1.441
  158TIP3   OH2  414   2.010   3.152   1.001
  158TIP3    H1  415   2.093   3.179   1.041
  158TIP3    H2  416   2.034   3.084   0.939
  159TIP3   OH2  417   5.932   7.083   3.793
  159TIP3    H1  418   5.982   7.003   3.773
  159TIP3    H2  419   5.899   7.112   3.709
  160TIP3   OH2  420   1.759   3.300   5.171
  160TIP3    H1  421   1.692   3.260   5.116
  160TIP3    H2  422   1.828   3.234   5.176
  161TIP3   OH2  423   3.136   4.828   3.605
  161TIP3    H1  424   3.221   4.866   3.627
  161TIP3    H2  425   3.074   4.899   3.620
  162TIP3   OH2  426   3.642   2.221   2.709
  162TIP3    H1  427   3.705   2.265   2.652
  162TIP3    H2  428   3.653   2.262   2.794
  163TIP3   OH2  429   3.947   5.911   0.711
  163TIP3    H1  430   3.911   5.970   0.645
  163TIP3    H2  431   4.023   5.958   0.746
  164TIP3   OH2  432   5.317   1.703   6.535
  164TIP3    H1  433   5.245   1.666   6.483
  164TIP3    H2  434   5.348   1.629   6.587
  165TIP3   OH2  435   1.352   2.100   3.380
  165TIP3    H1  436   1.439   2.107   3.342
  165TIP3    H2  437   1.316   2.189   3.374
  166TIP3   OH2  438   4.464   4.998   6.157
  166TIP3    H1  439   4.461   4.904   6.177
  166TIP3    H2  440   4.379   5.016   6.116
  167TIP3   OH2  441   5.793   4.202   3.964
  167TIP3    H1  442   5.855   4.183   4.035
  167TIP3    H2  443   5.730   4.130   3.968
  168TIP3   OH2  444   3.692   3.085   1.961
  168TIP3    H1  445   3.626   3.075   1.892
  168TIP3    H2  446   3.713   3.178   1.961
  169TIP3   OH2  447   1.426   4.506   3.485
  169TIP3    H1  448   1.428   4.601   3.473
  169TIP3    H2  449   1.457   4.492   3.574
  170TIP3   OH2  450   4.689   1.514   4.223
  170TIP3    H1  451   4.647   1.449   4.279
  170TIP3    H2  452   4.648   1.501   4.137
  171TIP3   OH2  453   6.251   6.183   4.615
  171TIP3    H1  454   6.297   6.100   4.605
  171TIP3    H2  455   6.163   6.158   4.645
  172TIP3   OH2  456   6.467   2.528   2.920
  172TIP3    H1  457   6.470   2.573   2.836
  172TIP3    H2  458   6.387   2.475   2.916
  173TIP3   OH2  459   4.098   1.597   4.012
  173TIP3    H1  460   4.057   1.630   4.092
  173TIP3    H2  461   4.027   1.590   3.949
  174TIP3   OH2  462   3.212   2.799   5.908
  174TIP3    H1  463   3.138   2.859   5.907
  174TIP3    H2  464   3.277   2.842   5.964
  175TIP3   OH2  465   7.354   1.208   1.031
  175TIP3    H1  466   7.313   1.144   0.973
  175TIP3    H2  467   7.421   1.249   0.978
  176TIP3   OH2  468   1.724   2.968   0.286
  176TIP3    H1  469   1.647   2.990   0.232
  176TIP3    H2  470   1.789   3.034   0.262
  177TIP3   OH2  471   2.547   0.633   4.009
  177TIP3    H1  472   2.617   0.575   4.042
  177TIP3    H2  473   2.575   0.721   4.034
  178TIP3   OH2  474   4.231   6.712   5.019
  178TIP3    H1  475   4.155   6.668   4.982
  178TIP3    H2  476   4.304   6.651   5.003
  179TIP3   OH2  477   3.037   7.576   0.916
  179TIP3    H1  478   3.038   7.594   1.010
  179TIP3    H2  479   2.945   7.585   0.891
  180TIP3   OH2  480   3.375   5.994   0.022
  180TIP3    H1  481   3.387   6.007  -0.072
  180TIP3    H2  482   3.444   6.047   0.063
  181TIP3   OH2  483   8.153   2.413   2.893
  181TIP3    H1  484   8.133   2.419   2.799
  181TIP3    H2  485   8.191   2.326   2.904
  182TIP3   OH2  486   7.994   4.672   4.592
  182TIP3    H1  487   7.958   4.589   4.560
  182TIP3    H2  488   8.010   4.657   4.685
  183TIP3   OH2  489   1.164   6.969   1.596
  183TIP3    H1  490   1.069   6.966   1.580
  183TIP3    H2  491   1.175   7.039   1.661
  184TIP3   OH2  492   2.046   6.580   6.645
  184TIP3    H1  493   2.015   6.622   6.564
  184TIP3    H2  494   1.966   6.561   6.694
  185TIP3   OH2  495   7.737   7.743   4.632
  185TIP3    H1  496   7.810   7.751   4.693
  185TIP3    H2  497   7.707   7.652   4.642
  186TIP3   OH2  498   2.277   3.209   1.773
  186TIP3    H1  499   2.286   3.139   1.837
  186TIP3    H2  500   2.356   3.261   1.783
  187TIP3   OH2  501   5.535   3.768   2.256
  187TIP3    H1  502   5.454   3.736   2.216
  187TIP3    H2  503   5.506   3.831   2.321
  188TIP3   OH2  504   1.199   7.276   0.977
  188TIP3    H1  505   1.199   7.357   0.925
  188TIP3    H2  506   1.291   7.253   0.986
  189TIP3   OH2  507   4.927   4.344   3.660
  189TIP3    H1  508   4.850   4.327   3.714
  189TIP3    H2  509   4.891   4.383   3.580
  190TIP3   OH2  510   2.348   0.700   4.482
  190TIP3    H1  511   2.293   0.731   4.553
  190TIP3    H2  512   2.314   0.745   4.404
  191TIP3   OH2  513   1.399   4.156   4.628
  191TIP3    H1  514   1.465   4.193   4.688
  191TIP3    H2  515   1.367   4.078   4.673
  192TIP3   OH2  516   3.570   2.764   3.795
  192TIP3    H1  517   3.533   2.685   3.755
  192TIP3    H2  518   3.567   2.747   3.889
  193TIP3   OH2  519   7.106   0.193   2.460
  193TIP3    H1  520   7.155   0.159   2.385
  193TIP3    H2  521   7.014   0.182   2.436
  194TIP3   OH2  522   0.964   4.479   2.615
  194TIP3    H1  523   0.999   4.435   2.693
  194TIP3    H2  524   1.032   4.468   2.549
  195TIP3   OH2  525   1.057   5.349   3.010
  195TIP3    H1  526   1.100   5.273   2.969
  195TIP3    H2  527   1.088   5.348   3.100
  196TIP3   OH2  528   5.698   5.241   1.895
  196TIP3    H1  529   5.635   5.314   1.902
  196TIP3    H2  530   5.780   5.279   1.927
  197TIP3   OH2  531   3.807   2.359   2.866
  197TIP3    H1  532   3.880   2.323   2.816
  197TIP3    H2  533   3.790   2.294   2.934
  198TIP3   OH2  534   3.908   3.469   0.471
  198TIP3    H1  535   3.908   3.483   0.376
  198TIP3    H2  536   3.818   3.443   0.492
  199TIP3   OH2  537   2.907   6.039   6.137
  199TIP3    H1  538   2.913   5.944   6.140
  199TIP3    H2  539   2.959   6.069   6.213
  200TIP3   OH2  540   3.420   0.116   2.891
  200TIP3    H1  541   3.370   0.168   2.828
  200TIP3    H2  542   3.356   0.056   2.929
  201TIP3   OH2  543   2.249   7.282   1.499
  201TIP3    H1  544   2.262   7.241   1.584
  201TIP3    H2  545   2.201   7.217   1.448
  202TIP3   OH2  546   0.675   0.268   5.723
  202TIP3    H1  547   0.598   0.320   5.698
  202TIP3    H2  548   0.672   0.191   5.665
  203TIP3   OH2  549   4.017   6.165   3.590
  203TIP3    H1  550   4.103   6.185   3.626
  203TIP3    H2  551   3.956   6.187   3.660
  204TIP3   OH2  552   2.331   2.323   4.155
  204TIP3    H1  553   2.342   2.311   4.061
  204TIP3    H2  554   2.398   2.386   4.180
  205TIP3   OH2  555   7.765   4.429   6.297
  205TIP3    H1  556   7.669   4.430   6.293
  205TIP3    H2  557   7.793   4.427   6.205
  206TIP3   OH2  558   0.441   1.591   3.834
  206TIP3    H1  559   0.445   1.684   3.856
  206TIP3    H2  560   0.393   1.588   3.751
  207TIP3   OH2  561   4.326   1.371   3.145
  207TIP3    H1  562   4.370   1.353   3.062
  207TIP3    H2  563   4.393   1.357   3.211
  208TIP3   OH2  564   7.415   1.262   0.281
  208TIP3    H1  565   7.388   1.256   0.372
  208TIP3    H2  566   7.509   1.241   0.282
  209TIP3   OH2  567   5.835   6.882   6.730
  209TIP3    H1  568   5.741   6.867   6.737
  209TIP3    H2  569   5.868   6.865   6.818
  210TIP3   OH2  570   6.831   2.178   1.223
  210TIP3    H1  571   6.786   2.117   1.282
  210TIP3    H2  572   6.916   2.193   1.265
  211TIP3   OH2  573   5.829   6.703   3.057
  211TIP3    H1  574   5.817   6.798   3.057
  211TIP3    H2  575   5.916   6.690   3.019
  212TIP3   OH2  576   8.250   3.651   4.954
  212TIP3    H1  577   8.284   3.738   4.975
  212TIP3    H2  578   8.245   3.606   5.038
  213TIP3   OH2  579   0.982   4.636   6.588
  213TIP3    H1  580   0.925   4.657   6.513
  213TIP3    H2  581   1.068   4.621   6.549
  214TIP3   OH2  582   2.458   5.567   3.786
  214TIP3    H1  583   2.541   5.526   3.810
  214TIP3    H2  584   2.425   5.604   3.868
  215TIP3   OH2  585   0.220   5.574   4.285
  215TIP3    H1  586   0.266   5.529   4.356
  215TIP3    H2  587   0.129   5.545   4.294
  216TIP3   OH2  588   4.473   7.530   4.262
  216TIP3    H1  589   4.393   7.478   4.253
  216TIP3    H2  590   4.542   7.466   4.281
  217TIP3   OH2  591   3.390   5.032   2.055
  217TIP3    H1  592   3.464   4.990   2.011
  217TIP3    H2  593   3.336   4.959   2.086
  218TIP3   OH2  594   6.752   1.329   0.612
  218TIP3    H1  595   6.782   1.282   0.534
  218TIP3    H2  596   6.657   1.317   0.612
  219TIP3   OH2  597   5.403   3.185   4.158
  219TIP3    H1  598   5.426   3.190   4.251
  219TIP3    H2  599   5.338   3.255   4.147
  220TIP3   OH2  600   8.052   0.622   4.786
  220TIP3    H1  601   8.069   0.542   4.736
  220TIP3    H2  602   8.025   0.686   4.721
  221TIP3   OH2  603   0.701   2.079   0.442
  221TIP3    H1  604   0.770   2.075   0.376
  221TIP3    H2  605   0.740   2.036   0.519
  222TIP3   OH2  606   7.229   5.178   3.310
  222TIP3    H1  607   7.245   5.151   3.400
  222TIP3    H2  608   7.147   5.135   3.286
  223TIP3   OH2  609   6.867   6.583   1.146
  223TIP3    H1  610   6.911   6.665   1.128
  223TIP3    H2  611   6.913   6.546   1.221
  224TIP3   OH2  612   7.547   5.106   0.821
  224TIP3    H1  613   7.624   5.054   0.842
  224TIP3    H2  614   7.523   5.079   0.733
  225TIP3   OH2  615   3.934   0.256   6.068
  225TIP3    H1  616   3.945   0.167   6.102
  225TIP3    H2  617   4.003   0.307   6.112
  226TIP3   OH2  618   3.124   7.454   4.046
  226TIP3    H1  619   3.091   7.523   3.987
  226TIP3    H2  620   3.219   7.461   4.039
  227TIP3   OH2  621   4.959   5.812   1.286
  227TIP3    H1  622   4.879   5.833   1.237
  227TIP3    H2  623   5.005   5.895   1.294
  228TIP3   OH2  624   1.538   7.591   2.538
  228TIP3    H1  625   1.468   7.641   2.496
  228TIP3    H2  626   1.494   7.513   2.573
  229TIP3   OH2  627   3.267   4.700   0.339
  229TIP3    H1  628   3.175   4.675   0.343
  229TIP3    H2  629   3.272   4.762   0.266
  230TIP3   OH2  630   3.935   3.775   0.612
  230TIP3    H1  631   3.840   3.764   0.611
  230TIP3    H2  632   3.958   3.771   0.705
  231TIP3   OH2  633   7.736   2.142   4.470
  231TIP3    H1  634   7.821   2.102   4.452
  231TIP3    H2  635   7.721   2.199   4.394
  232TIP3   OH2  636   0.369   6.252   5.588
  232TIP3    H1  637   0.410   6.295   5.663
  232TIP3    H2  638   0.441   6.236   5.527
  233TIP3   OH2  639   5.629   6.986   0.732
  233TIP3    H1  640   5.665   7.034   0.657
  233TIP3    H2  641   5.557   6.935   0.696
  234TIP3   OH2  642   7.767   6.696   3.955
  234TIP3    H1  643   7.855   6.716   3.987
  234TIP3    H2  644   7.776   6.612   3.911
  235TIP3   OH2  645   7.123   1.207   2.731
  235TIP3    H1  646   7.092   1.295   2.755
  235TIP3    H2  647   7.141   1.213   2.638
  236TIP3   OH2  648   5.726   2.396   2.047
  236TIP3    H1  649   5.723   2.395   2.143
  236TIP3    H2  650   5.681   2.316   2.020
  237TIP3   OH2  651   3.575   1.516   4.226
  237TIP3    H1  652   3.639   1.447   4.210
  237TIP3    H2  653   3.615   1.595   4.190
  238TIP3   OH2  654   3.071   7.493   0.175
  238TIP3    H1  655   3.121   7.570   0.149
  238TIP3    H2  656   2.980   7.516   0.159
  239TIP3   OH2  657   5.488   0.216   4.273
  239TIP3    H1  658   5.484   0.136   4.220
  239TIP3    H2  659   5.513   0.284   4.210
  240TIP3   OH2  660   6.711   6.074   0.095
  240TIP3    H1  661   6.719   6.059   0.189
  240TIP3    H2  662   6.747   6.161   0.081
  241TIP3   OH2  663   1.445   6.844   1.603
  241TIP3    H1  664   1.466   6.878   1.690
  241TIP3    H2  665   1.349   6.833   1.604
  242TIP3   OH2  666   6.037   4.781   1.787
  242TIP3    H1  667   5.999   4.842   1.850
  242TIP3    H2  668   5.989   4.700   1.800
  243TIP3   OH2  669   8.047   4.508   5.216
  243TIP3    H1  670   8.050   4.585   5.160
  243TIP3    H2  671   7.974   4.524   5.276
  244TIP3   OH2  672   3.336   1.461   6.547
  244TIP3    H1  673   3.410   1.416   6.506
  244TIP3    H2  674   3.377   1.526   6.605
  245TIP3   OH2  675   0.473   2.528   5.733
  245TIP3    H1  676   0.417   2.560   5.662
  245TIP3    H2  677   0.418   2.467   5.781
  246TIP3   OH2  678   3.769   0.196   5.752
  246TIP3    H1  679   3.724   0.279   5.767
  246TIP3    H2  680   3.732   0.136   5.817
  247TIP3   OH2  681   5.145   4.123   0.122
  247TIP3    H1  682   5.231   4.085   0.110
  247TIP3    H2  683   5.129   4.175   0.043
  248TIP3   OH2  684   2.060   5.824   2.526
  248TIP3    H1  685   1.980   5.776   2.505
  248TIP3    H2  686   2.036   5.881   2.599
  249TIP3   OH2  687   3.276   7.438   3.617
  249TIP3    H1  688   3.292   7.369   3.681
  249TIP3    H2  689   3.345   7.503   3.633
  250TIP3   OH2  690   6.809   6.768   5.544
  250TIP3    H1  691   6.904   6.769   5.560
  250TIP3    H2  692   6.780   6.857   5.565
  251TIP3   OH2  693   4.073   3.653   4.275
  251TIP3    H1  694   3.984   3.668   4.308
  251TIP3    H2  695   4.062   3.590   4.204
  252TIP3   OH2  696   4.325   5.168   5.213
  252TIP3    H1  697   4.280   5.137   5.135
  252TIP3    H2  698   4.336   5.090   5.268
  253TIP3   OH2  699   4.622   0.068   0.885
  253TIP3    H1  700   4.706   0.102   0.855
  253TIP3    H2  701   4.616  -0.019   0.845
  254TIP3   OH2  702   7.709   5.882   5.854
  254TIP3    H1  703   7.795   5.922   5.865
  254TIP3    H2  704   7.728   5.796   5.816
  255TIP3   OH2  705   4.199   2.396   2.974
  255TIP3    H1  706   4.290   2.423   2.963
  255TIP3    H2  707   4.174   2.362   2.888
  256TIP3   OH2  708   2.801   6.475   5.313
  256TIP3    H1  709   2.800   6.414   5.239
  256TIP3    H2  710   2.846   6.552   5.280
  257TIP3   OH2  711   7.945   0.745   4.996
  257TIP3    H1  712   8.010   0.809   5.024
  257TIP3    H2  713   7.984   0.703   4.920
  258TIP3   OH2  714   5.619   3.617   4.527
  258TIP3    H1  715   5.614   3.522   4.517
  258TIP3    H2  716   5.534   3.649   4.497
  259TIP3   OH2  717   6.219   4.958   4.674
  259TIP3    H1  718   6.165   4.880   4.657
  259TIP3    H2  719   6.189   5.022   4.609
  260TIP3   OH2  720   4.624   7.430   3.939
  260TIP3    H1  721   4.588   7.408   3.853
  260TIP3    H2  722   4.713   7.460   3.920
  261TIP3   OH2  723   4.877   0.377   5.399
  261TIP3    H1  724   4.833   0.461   5.384
  261TIP3    H2  725   4.961   0.386   5.355
  262TIP3   OH2  726   6.546   1.023   4.705
  262TIP3    H1  727   6.576   0.937   4.678
  262TIP3    H2  728   6.620   1.081   4.689
  263TIP3   OH2  729   4.632   5.894   3.388
  263TIP3    H1  730   4.633   5.990   3.388
  263TIP3    H2  731   4.539   5.871   3.392
  264TIP3   OH2  732   2.007   3.664   0.062
  264TIP3    H1  733   1.935   3.691   0.120
  264TIP3    H2  734   2.086   3.691   0.108
  265TIP3   OH2  735   1.267   4.299   2.124
  265TIP3    H1  736   1.253   4.254   2.040
  265TIP3    H2  737   1.321   4.238   2.174
  266TIP3   OH2  738   1.277   1.471   0.172
  266TIP3    H1  739   1.230   1.391   0.194
  266TIP3    H2  740   1.356   1.470   0.227
  267TIP3   OH2  741   2.317   1.035   4.026
  267TIP3    H1  742   2.244   0.973   4.023
  267TIP3    H2  743   2.291   1.099   4.093
  268TIP3   OH2  744   5.680   0.237   4.477
  268TIP3    H1  745   5.630   0.212   4.399
  268TIP3    H2  746   5.645   0.181   4.546
  269TIP3   OH2  747   2.404   4.677   5.821
  269TIP3    H1  748   2.431   4.586   5.826
  269TIP3    H2  749   2.467   4.718   5.760
  270TIP3   OH2  750   0.808   7.237   5.102
  270TIP3    H1  751   0.902   7.250   5.109
  270TIP3    H2  752   0.789   7.247   5.008
  271TIP3   OH2  753   1.777   7.557   3.820
  271TIP3    H1  754   1.716   7.526   3.754
  271TIP3    H2  755   1.754   7.507   3.899
  272TIP3   OH2  756   3.750   5.221   0.746
  272TIP3    H1  757   3.757   5.316   0.735
  272TIP3    H2  758   3.830   5.196   0.792
  273TIP3   OH2  759   7.334   0.212   1.174
  273TIP3    H1  760   7.392   0.255   1.236
  273TIP3    H2  761   7.303   0.134   1.220
  274TIP3   OH2  762   2.222   1.286   2.070
  274TIP3    H1  763   2.222   1.329   1.984
  274TIP3    H2  764   2.208   1.194   2.050
  275TIP3   OH2  765   1.348   7.577   2.885
  275TIP3    H1  766   1.379   7.667   2.870
  275TIP3    H2  767   1.272   7.588   2.941
  276TIP3   OH2  768   5.228   1.196   2.177
  276TIP3    H1  769   5.205   1.288   2.167
  276TIP3    H2  770   5.321   1.197   2.201
  277TIP3   OH2  771   1.478   7.292   3.235
  277TIP3    H1  772   1.550   7.269   3.295
  277TIP3    H2  773   1.412   7.330   3.292
  278TIP3   OH2  774   7.294   4.567   4.490
  278TIP3    H1  775   7.327   4.613   4.413
  278TIP3    H2  776   7.200   4.558   4.474
  279TIP3   OH2  777   2.911   6.899   6.292
  279TIP3    H1  778   2.896   6.855   6.208
  279TIP3    H2  779   2.905   6.992   6.272
  280TIP3   OH2  780   5.838   3.366   4.568
  280TIP3    H1  781   5.866   3.426   4.500
  280TIP3    H2  782   5.865   3.408   4.650
  281TIP3   OH2  783   0.444   2.876   2.272
  281TIP3    H1  784   0.367   2.922   2.239
  281TIP3    H2  785   0.409   2.812   2.334
  282TIP3   OH2  786   5.756   2.997   6.316
  282TIP3    H1  787   5.818   3.062   6.283
  282TIP3    H2  788   5.771   2.995   6.411
  283TIP3   OH2  789   7.258   5.086   5.343
  283TIP3    H1  790   7.164   5.072   5.354
  283TIP3    H2  791   7.265   5.166   5.291
  284TIP3   OH2  792   7.108   7.216   3.712
  284TIP3    H1  793   7.165   7.252   3.645
  284TIP3    H2  794   7.019   7.232   3.679
  285TIP3   OH2  795   8.008   6.041   4.335
  285TIP3    H1  796   8.045   6.055   4.248
  285TIP3    H2  797   8.083   6.017   4.389
  286TIP3   OH2  798   1.466   5.306   6.141
  286TIP3    H1  799   1.442   5.392   6.106
  286TIP3    H2  800   1.559   5.315   6.164
  287TIP3   OH2  801   0.785   7.738   6.344
  287TIP3    H1  802   0.815   7.680   6.415
  287TIP3    H2  803   0.699   7.768   6.372
  288TIP3   OH2  804   7.512   4.785   4.454
  288TIP3    H1  805   7.571   4.721   4.413
  288TIP3    H2  806   7.568   4.860   4.473
  289TIP3   OH2  807   4.244   0.635   4.865
  289TIP3    H1  808   4.193   0.565   4.905
  289TIP3    H2  809   4.179   0.703   4.845
  290TIP3   OH2  810   4.962   4.014   2.387
  290TIP3    H1  811   5.042   4.065   2.394
  290TIP3    H2  812   4.981   3.949   2.319
  291TIP3   OH2  813   7.067   3.446   3.214
  291TIP3    H1  814   7.067   3.527   3.163
  291TIP3    H2  815   7.155   3.441   3.252
  292TIP3   OH2  816   4.788   3.950   1.911
  292TIP3    H1  817   4.873   3.992   1.919
  292TIP3    H2  818   4.771   3.945   1.817
  293TIP3   OH2  819   6.399   2.266   0.790
  293TIP3    H1  820   6.361   2.291   0.706
  293TIP3    H2  821   6.396   2.170   0.791
  294TIP3   OH2  822   4.291   7.215   4.289
  294TIP3    H1  823   4.294   7.250   4.200
  294TIP3    H2  824   4.203   7.178   4.298
  295TIP3   OH2  825   2.794   4.893   3.195
  295TIP3    H1  826   2.823   4.834   3.125
  295TIP3    H2  827   2.875   4.927   3.233
  296TIP3   OH2  828   7.730   0.310   4.862
  296TIP3    H1  829   7.659   0.272   4.913
  296TIP3    H2  830   7.800   0.246   4.865
  297TIP3   OH2  831   1.876   2.840   3.128
  297TIP3    H1  832   1.829   2.807   3.204
  297TIP3    H2  833   1.959   2.872   3.163
  298TIP3   OH2  834   8.363   7.140   0.331
  298TIP3    H1  835   8.451   7.175   0.335
  298TIP3    H2  836   8.368   7.071   0.265
  299TIP3   OH2  837   5.567   0.122   3.883
  299TIP3    H1  838   5.535   0.061   3.949
  299TIP3    H2  839   5.490   0.173   3.857
  300TIP3   OH2  840   2.578   5.862   1.357
  300TIP3    H1  841   2.519   5.791   1.384
  300TIP3    H2  842   2.565   5.930   1.423
  301TIP3   OH2  843   5.624   3.998   4.273
  301TIP3    H1  844   5.691   3.975   4.209
  301TIP3    H2  845   5.565   4.057   4.226
  302TIP3   OH2  846   2.857   6.746   6.068
  302TIP3    H1  847   2.766   6.718   6.068
  302TIP3    H2  848   2.866   6.796   5.986
  303TIP3   OH2  849   2.668   6.977   5.927
  303TIP3    H1  850   2.626   6.933   6.001
  303TIP3    H2  851   2.622   7.061   5.921
  304TIP3   OH2  852   2.503   6.479   3.207
  304TIP3    H1  853   2.576   6.540   3.195
  304TIP3    H2  854   2.425   6.535   3.204
  305TIP3   OH2  855   4.719   7.502   4.870
  305TIP3    H1  856   4.726   7.412   4.837
  305TIP3    H2  857   4.789   7.550   4.826
  306TIP3   OH2  858   7.066   6.689   0.251
  306TIP3    H1  859   7.013   6.610   0.244
  306TIP3    H2  860   7.082   6.715   0.160
  307TIP3   OH2  861   1.955   4.834   3.322
  307TIP3    H1  862   1.941   4.750   3.278
  307TIP3    H2  863   1.986   4.893   3.254
  308TIP3   OH2  864   6.472   5.912   6.447
  308TIP3    H1  865   6.447   5.929   6.356
  308TIP3    H2  866   6.445   5.991   6.494
  309TIP3   OH2  867   4.451   2.632   1.147
  309TIP3    H1  868   4.441   2.724   1.124
  309TIP3    H2  869   4.538   2.608   1.113
  310TIP3   OH2  870   4.829   6.437   3.356
  310TIP3    H1  871   4.794   6.472   3.274
  310TIP3    H2  872   4.856   6.348   3.333
  311TIP3   OH2  873   1.631   5.693   6.266
  311TIP3    H1  874   1.564   5.649   6.212
  311TIP3    H2  875   1.714   5.672   6.222
  312TIP3   OH2  876   5.813   0.962   2.578
  312TIP3    H1  877   5.905   0.938   2.579
  312TIP3    H2  878   5.812   1.056   2.598
  313TIP3   OH2  879   6.621   3.300   3.015
  313TIP3    H1  880   6.541   3.346   2.990
  313TIP3    H2  881   6.654   3.263   2.933
  314TIP3   OH2  882   5.814   1.503   5.913
  314TIP3    H1  883   5.843   1.449   5.986
  314TIP3    H2  884   5.719   1.494   5.912
  315TIP3   OH2  885   5.475   5.125   5.732
  315TIP3    H1  886   5.546   5.184   5.756
  315TIP3    H2  887   5.446   5.155   5.646
  316TIP3   OH2  888   4.047   6.477   2.205
  316TIP3    H1  889   4.065   6.534   2.279
  316TIP3    H2  890   4.064   6.530   2.128
  317TIP3   OH2  891   3.097   2.591   1.093
  317TIP3    H1  892   3.192   2.603   1.086
  317TIP3    H2  893   3.082   2.505   1.054
  318TIP3   OH2  894   8.031   2.939   5.625
  318TIP3    H1  895   7.974   2.865   5.603
  318TIP3    H2  896   7.994   2.975   5.705
  319TIP3   OH2  897   1.822   5.922   0.687
  319TIP3    H1  898   1.799   6.015   0.683
  319TIP3    H2  899   1.799   5.895   0.776
  320TIP3   OH2  900   4.175   4.485   0.420
  320TIP3    H1  901   4.095   4.480   0.474
  320TIP3    H2  902   4.246   4.476   0.483
  321TIP3   OH2  903   6.091   6.833   6.186
  321TIP3    H1  904   6.099   6.820   6.092
  321TIP3    H2  905   6.070   6.747   6.221
  322TIP3   OH2  906   5.247   5.190   1.934
  322TIP3    H1  907   5.179   5.171   1.869
  322TIP3    H2  908   5.214   5.151   2.015
  323TIP3   OH2  909   7.558   5.976   0.464
  323TIP3    H1  910   7.587   6.059   0.427
  323TIP3    H2  911   7.611   5.910   0.421
  324TIP3   OH2  912   1.800   2.480   2.977
  324TIP3    H1  913   1.801   2.394   2.935
  324TIP3    H2  914   1.853   2.536   2.919
  325TIP3   OH2  915   2.146   5.087   0.144
  325TIP3    H1  916   2.191   5.093   0.228
  325TIP3    H2  917   2.125   4.994   0.134
  326TIP3   OH2  918   3.896   3.869   0.164
  326TIP3    H1  919   3.843   3.840   0.089
  326TIP3    H2  920   3.971   3.913   0.124
  327TIP3   OH2  921   3.634   7.321   1.800
  327TIP3    H1  922   3.577   7.279   1.736
  327TIP3    H2  923   3.721   7.316   1.761
  328TIP3   OH2  924   6.202   7.827   0.981
  328TIP3    H1  925   6.161   7.809   1.065
  328TIP3    H2  926   6.141   7.794   0.916
  329TIP3   OH2  927   3.079   6.701   4.160
  329TIP3    H1  928   3.122   6.760   4.221
  329TIP3    H2  929   3.150   6.650   4.121
  330TIP3   OH2  930   7.607   6.607   6.267
  330TIP3    H1  931   7.530   6.550   6.265
  330TIP3    H2  932   7.681   6.547   6.274
  331TIP3   OH2  933   4.278   0.789   2.751
  331TIP3    H1  934   4.245   0.820   2.836
  331TIP3    H2  935   4.252   0.697   2.748
  332TIP3   OH2  936   5.023   1.581   5.446
  332TIP3    H1  937   4.955   1.640   5.413
  332TIP3    H2  938   5.001   1.568   5.538
  333TIP3   OH2  939   3.904   7.718   1.492
  333TIP3    H1  940   3.907   7.663   1.414
  333TIP3    H2  941   3.841   7.674   1.550
  334TIP3   OH2  942   0.177   5.865   1.877
  334TIP3    H1  943   0.105   5.922   1.904
  334TIP3    H2  944   0.135   5.798   1.824
  335TIP3   OH2  945   7.337   1.148   6.388
  335TIP3    H1  946   7.344   1.083   6.319
  335TIP3    H2  947   7.242   1.160   6.400
  336TIP3   OH2  948   7.146   3.523   1.807
  336TIP3    H1  949   7.229   3.475   1.809
  336TIP3    H2  950   7.085   3.468   1.856
  337TIP3   OH2  951   7.663   1.924   5.249
  337TIP3    H1  952   7.696   1.857   5.308
  337TIP3    H2  953   7.578   1.948   5.285
  338TIP3   OH2  954   6.532   2.063   2.457
  338TIP3    H1  955   6.464   1.996   2.450
  338TIP3    H2  956   6.614   2.014   2.454
  339TIP3   OH2  957   4.189   4.543   4.659
  339TIP3    H1  958   4.216   4.455   4.632
  339TIP3    H2  959   4.214   4.548   4.751
  340TIP3   OH2  960   7.033   4.805   5.211
  340TIP3    H1  961   7.121   4.829   5.180
  340TIP3    H2  962   7.040   4.808   5.307
  341TIP3   OH2  963   0.103   0.158   1.609
  341TIP3    H1  964   0.163   0.159   1.534
  341TIP3    H2  965   0.083   0.251   1.624
  342TIP3   OH2  966   5.497   5.798   1.458
  342TIP3    H1  967   5.532   5.882   1.429
  342TIP3    H2  968   5.416   5.788   1.409
  343TIP3   OH2  969   6.240   5.184   0.281
  343TIP3    H1  970   6.252   5.127   0.205
  343TIP3    H2  971   6.149   5.168   0.309
  344TIP3   OH2  972   1.228   4.663   1.355
  344TIP3    H1  973   1.194   4.701   1.436
  344TIP3    H2  974   1.270   4.581   1.382
  345TIP3   OH2  975   7.214   6.319   4.517
  345TIP3    H1  976   7.192   6.238   4.562
  345TIP3    H2  977   7.195   6.388   4.580
  346TIP3   OH2  978   5.887   4.792   5.325
  346TIP3    H1  979   5.867   4.728   5.257
  346TIP3    H2  980   5.963   4.755   5.370
  347TIP3   OH2  981   6.349   4.792   0.397
  347TIP3    H1  982   6.437   4.774   0.365
  347TIP3    H2  983   6.291   4.746   0.336
  348TIP3   OH2  984   6.093   6.011   6.602
  348TIP3    H1  985   6.178   5.967   6.598
  348TIP3    H2  986   6.106   6.092   6.553
  349TIP3   OH2  987   7.838   3.049   6.192
  349TIP3    H1  988   7.862   3.076   6.103
  349TIP3    H2  989   7.885   2.967   6.205
  350TIP3   OH2  990   1.817   3.944   4.059
  350TIP3    H1  991   1.829   3.871   3.998
  350TIP3    H2  992   1.730   3.978   4.037
  351TIP3   OH2  993   7.389   5.330   0.849
  351TIP3    H1  994   7.371   5.338   0.943
  351TIP3    H2  995   7.446   5.254   0.842
  352TIP3   OH2  996   4.954   6.540   3.573
  352TIP3    H1  997   4.999   6.614   3.534
  352TIP3    H2  998   4.924   6.487   3.499
  353TIP3   OH2  999   6.638   7.454   2.453
  353TIP3    H1 1000   6.692   7.406   2.391
  353TIP3    H2 1001   6.576   7.502   2.399
  354TIP3   OH2 1002   6.482   1.164   5.188
  354TIP3    H1 1003   6.446   1.124   5.109
  354TIP3    H2 1004   6.455   1.256   5.184
  355TIP3   OH2 1005   2.545   0.879   5.573
  355TIP3    H1 1006   2.613   0.852   5.512
  355TIP3    H2 1007   2.486   0.804   5.579
  356TIP3   OH2 1008   2.927   2.007   1.014
  356TIP3    H1 1009   2.902   2.096   1.038
  356TIP3    H2 1010   3.020   2.001   1.035
  357TIP3   OH2 1011   3.387   4.947   0.162
  357TIP3    H1 1012   3.300   4.945   0.123
  357TIP3    H2 1013   3.445   4.974   0.090
  358TIP3   OH2 1014   1.083   6.210   0.350
  358TIP3    H1 1015   1.150   6.201   0.283
  358TIP3    H2 1016   1.013   6.262   0.309
  359TIP3   OH2 1017   5.915   2.353   0.319
  359TIP3    H1 1018   5.960   2.269   0.320
  359TIP3    H2 1019   5.967   2.409   0.377
  360TIP3   OH2 1020   3.120   0.950   5.013
  360TIP3    H1 1021   3.162   0.865   5.002
  360TIP3    H2 1022   3.113   0.984   4.924
  361TIP3   OH2 1023   2.886   0.203   4.643
  361TIP3    H1 1024   2.892   0.226   4.735
  361TIP3    H2 1025   2.792   0.211   4.623
  362TIP3   OH2 1026   5.024   6.609   1.057
  362TIP3    H1 1027   4.942   6.638   1.098
  362TIP3    H2 1028   5.033   6.665   0.980
  363TIP3   OH2 1029   0.001   1.601   2.637
  363TIP3    H1 1030   0.040   1.680   2.599
  363TIP3    H2 1031   0.029   1.603   2.729
  364TIP3   OH2 1032   2.727   3.651   6.189
  364TIP3    H1 1033   2.671   3.582   6.223
  364TIP3    H2 1034   2.806   3.606   6.159
  365TIP3   OH2 1035   2.434   0.956   5.208
  365TIP3    H1 1036   2.504   0.910   5.256
  365TIP3    H2 1037   2.354   0.913   5.236
  366TIP3   OH2 1038   6.704   0.029   2.937
  366TIP3    H1 1039   6.673   0.096   2.875
  366TIP3    H2 1040   6.781   0.069   2.977
  367TIP3   OH2 1041   2.668   4.952   2.862
  367TIP3    H1 1042   2.618   4.904   2.796
  367TIP3    H2 1043   2.734   5.000   2.812
  368TIP3   OH2 1044   0.665   6.032   2.074
  368TIP3    H1 1045   0.637   6.081   2.151
  368TIP3    H2 1046   0.661   5.940   2.101
  369TIP3   OH2 1047   7.444   5.927   3.623
  369TIP3    H1 1048   7.425   5.833   3.620
  369TIP3    H2 1049   7.521   5.937   3.567
  370TIP3   OH2 1050   3.575   4.836   1.971
  370TIP3    H1 1051   3.593   4.808   1.881
  370TIP3    H2 1052   3.645   4.797   2.023
  371TIP3   OH2 1053   2.385   7.795   3.317
  371TIP3    H1 1054   2.300   7.834   3.335
  371TIP3    H2 1055   2.441   7.825   3.389
  372TIP3   OH2 1056   2.075   4.573   4.912
  372TIP3    H1 1057   2.160   4.539   4.940
  372TIP3    H2 1058   2.011   4.521   4.961
  373TIP3   OH2 1059   2.646   2.742   0.758
  373TIP3    H1 1060   2.716   2.720   0.696
  373TIP3    H2 1061   2.572   2.688   0.731
  374TIP3   OH2 1062   2.962   7.459   0.441
  374TIP3    H1 1063   3.000   7.443   0.354
  374TIP3    H2 1064   2.948   7.371   0.477
  375TIP3   OH2 1065   2.606   4.376   2.669
  375TIP3    H1 1066   2.611   4.343   2.579
  375TIP3    H2 1067   2.599   4.471   2.659
  376TIP3   OH2 1068   4.120   5.823   1.382
  376TIP3    H1 1069   4.049   5.771   1.343
  376TIP3    H2 1070   4.113   5.909   1.339
  377TIP3   OH2 1071   2.245   0.183   0.557
  377TIP3    H1 1072   2.204   0.137   0.630
  377TIP3    H2 1073   2.316   0.125   0.529
  378TIP3   OH2 1074   7.997   7.705   2.678
  378TIP3    H1 1075   7.943   7.771   2.634
  378TIP3    H2 1076   8.069   7.689   2.618
  379TIP3   OH2 1077   1.832   6.961   2.036
  379TIP3    H1 1078   1.778   6.894   2.079
  379TIP3    H2 1079   1.883   6.913   1.971
  380TIP3   OH2 1080   7.077   1.930   6.693
  380TIP3    H1 1081   7.157   1.965   6.655
  380TIP3    H2 1082   7.106   1.883   6.771
  381TIP3   OH2 1083   5.211   4.874   1.749
  381TIP3    H1 1084   5.172   4.904   1.831
  381TIP3    H2 1085   5.136   4.852   1.694
  382TIP3   OH2 1086  -0.003   4.583   0.178
  382TIP3    H1 1087  -0.057   4.541   0.245
  382TIP3    H2 1088   0.087   4.570   0.208
  383TIP3   OH2 1089   0.742   5.615   4.096
  383TIP3    H1 1090   0.815   5.583   4.148
  383TIP3    H2 1091   0.665   5.599   4.150
  384TIP3   OH2 1092   3.700   4.047   5.471
  384TIP3    H1 1093   3.752   4.054   5.391
  384TIP3    H2 1094   3.619   4.003   5.443
  385TIP3   OH2 1095   6.318   2.753   1.425
  385TIP3    H1 1096   6.386   2.716   1.482
  385TIP3    H2 1097   6.331   2.709   1.341
  386TIP3   OH2 1098   1.986   2.812   3.457
  386TIP3    H1 1099   2.074   2.827   3.490
  386TIP3    H2 1100   1.936   2.784   3.534
  387TIP3   OH2 1101   4.433   3.932   1.943
  387TIP3    H1 1102   4.488   3.963   2.014
  387TIP3    H2 1103   4.490   3.876   1.890
  388TIP3   OH2 1104   4.072   1.448   6.172
  388TIP3    H1 1105   4.095   1.360   6.143
  388TIP3    H2 1106   4.133   1.466   6.244
  389TIP3   OH2 1107   3.221   5.413   3.134
  389TIP3    H1 1108   3.138   5.457   3.114
  389TIP3    H2 1109   3.195   5.339   3.189
  390TIP3   OH2 1110   8.380   4.604   3.489
  390TIP3    H1 1111   8.321   4.676   3.469
  390TIP3    H2 1112   8.431   4.634   3.564
  391TIP3   OH2 1113   7.155   2.105   0.965
  391TIP3    H1 1114   7.080   2.109   0.905
  391TIP3    H2 1115   7.211   2.178   0.938
  392TIP3   OH2 1116   3.511   6.089   5.783
  392TIP3    H1 1117   3.510   6.185   5.789
  392TIP3    H2 1118   3.601   6.064   5.807
  393TIP3   OH2 1119   2.366   5.086   5.235
  393TIP3    H1 1120   2.429   5.058   5.301
  393TIP3    H2 1121   2.306   5.012   5.226
  394TIP3   OH2 1122   3.757   6.695   4.787
  394TIP3    H1 1123   3.725   6.653   4.707
  394TIP3    H2 1124   3.704   6.775   4.794
  395TIP3   OH2 1125   7.057   1.723   2.583
  395TIP3    H1 1126   6.992   1.721   2.512
  395TIP3    H2 1127   7.050   1.638   2.625
  396TIP3   OH2 1128   5.775   0.528   0.670
  396TIP3    H1 1129   5.847   0.499   0.726
  396TIP3    H2 1130   5.739   0.446   0.634
  397TIP3   OH2 1131   6.755   4.681   0.681
  397TIP3    H1 1132   6.850   4.672   0.693
  397TIP3    H2 1133   6.730   4.752   0.739
  398TIP3   OH2 1134   6.843   6.997   0.359
  398TIP3    H1 1135   6.823   6.968   0.270
  398TIP3    H2 1136   6.772   6.963   0.412
  399TIP3   OH2 1137   4.996   0.271   3.291
  399TIP3    H1 1138   5.035   0.257   3.205
  399TIP3    H2 1139   4.928   0.337   3.276
  400TIP3   OH2 1140   0.576   4.486   2.420
  400TIP3    H1 1141   0.616   4.460   2.503
  400TIP3    H2 1142   0.635   4.554   2.385
  401TIP3   OH2 1143   7.405   4.740   4.718
  401TIP3    H1 1144   7.488   4.759   4.674
  401TIP3    H2 1145   7.343   4.725   4.647
  402TIP3   OH2 1146   4.278   3.535   1.043
  402TIP3    H1 1147   4.235   3.531   1.129
  402TIP3    H2 1148   4.339   3.609   1.050
  403TIP3   OH2 1149   3.098   6.380   5.373
  403TIP3    H1 1150   3.096   6.319   5.299
  403TIP3    H2 1151   3.130   6.328   5.447
  404TIP3   OH2 1152   2.040   5.808   5.609
  404TIP3    H1 1153   2.001   5.896   5.611
  404TIP3    H2 1154   2.091   5.803   5.690
  405TIP3   OH2 1155   2.740   0.485   2.312
  405TIP3    H1 1156   2.688   0.557   2.347
  405TIP3    H2 1157   2.805   0.468   2.380
  406TIP3   OH2 1158   3.673   4.040   2.172
  406TIP3    H1 1159   3.757   4.068   2.208
  406TIP3    H2 1160   3.695   3.965   2.116
  407TIP3   OH2 1161   4.950   1.798   1.223
  407TIP3    H1 1162   4.994   1.749   1.154
  407TIP3    H2 1163   4.999   1.777   1.302
  408TIP3   OH2 1164   5.860   1.881   4.413
  408TIP3    H1 1165   5.779   1.899   4.366
  408TIP3    H2 1166   5.929   1.899   4.349
  409TIP3   OH2 1167   7.703   1.265   0.331
  409TIP3    H1 1168   7.798   1.262   0.327
  409TIP3    H2 1169   7.683   1.357   0.352
  410TIP3   OH2 1170   3.869   7.549   5.037
  410TIP3    H1 1171   3.900   7.624   4.986
  410TIP3    H2 1172   3.916   7.474   5.001
  411TIP3   OH2 1173   6.897   7.254   0.440
  411TIP3    H1 1174   6.869   7.168   0.409
  411TIP3    H2 1175   6.816   7.302   0.455
  412TIP3   OH2 1176   0.724   0.239   1.808
  412TIP3    H1 1177   0.681   0.154   1.819
  412TIP3    H2 1178   0.736   0.248   1.713
  413TIP3   OH2 1179   5.018   7.797   2.313
  413TIP3    H1 1180   5.109   7.769   2.299
  413TIP3    H2 1181   5.002   7.779   2.406
  414TIP3   OH2 1182   4.404   1.978   1.262
  414TIP3    H1 1183   4.494   1.946   1.253
  414TIP3    H2 1184   4.350   1.904   1.234
  415TIP3   OH2 1185   2.988   0.427   0.653
  415TIP3    H1 1186   2.960   0.514   0.625
  415TIP3    H2 1187   2.963   0.369   0.582
  416TIP3   OH2 1188   1.187   2.593   5.013
  416TIP3    H1 1189   1.260   2.624   4.959
  416TIP3    H2 1190   1.216   2.609   5.103
  417TIP3   OH2 1191   4.773   5.130   2.059
  417TIP3    H1 1192   4.797   5.207   2.007
  417TIP3    H2 1193   4.773   5.058   1.996
  418TIP3   OH2 1194   7.325   1.538   1.235
  418TIP3    H1 1195   7.338   1.614   1.292
  418TIP3    H2 1196   7.371   1.561   1.154
  419TIP3   OH2 1197   4.680   4.556   2.860
  419TIP3    H1 1198   4.700   4.593   2.774
  419TIP3    H2 1199   4.749   4.492   2.876
  420TIP3   OH2 1200   2.504   6.853   3.021
  420TIP3    H1 1201   2.424   6.808   3.050
  420TIP3    H2 1202   2.498   6.940   3.059
  421TIP3   OH2 1203   2.790   0.080   0.880
  421TIP3    H1 1204   2.846   0.009   0.910
  421TIP3    H2 1205   2.847   0.157   0.880
  422TIP3   OH2 1206   4.777   1.679   6.422
  422TIP3    H1 1207   4.747   1.670   6.512
  422TIP3    H2 1208   4.838   1.606   6.410
  423TIP3   OH2 1209   1.525   5.818   5.818
  423TIP3    H1 1210   1.576   5.855   5.890
  423TIP3    H2 1211   1.449   5.876   5.811
  424TIP3   OH2 1212   3.571   0.559   0.478
  424TIP3    H1 1213   3.641   0.560   0.412
  424TIP3    H2 1214   3.600   0.494   0.541
  425TIP3   OH2 1215   0.039   2.990   6.047
  425TIP3    H1 1216   0.027   3.025   6.135
  425TIP3    H2 1217   0.116   3.036   6.013
  426TIP3   OH2 1218   1.903   6.652   6.422
  426TIP3    H1 1219   1.851   6.584   6.379
  426TIP3    H2 1220   1.840   6.719   6.446
  427TIP3   OH2 1221   0.988   2.047   1.258
  427TIP3    H1 1222   1.020   2.002   1.180
  427TIP3    H2 1223   1.066   2.079   1.301
  428TIP3   OH2 1224   7.911   2.168   3.562
  428TIP3    H1 1225   7.856   2.171   3.640
  428TIP3    H2 1226   7.882   2.089   3.516
  429TIP3   OH2 1227   8.195   4.887   6.074
  429TIP3    H1 1228   8.179   4.981   6.069
  429TIP3    H2 1229   8.160   4.853   5.992
  430TIP3   OH2 1230   2.704   4.632   6.384
  430TIP3    H1 1231   2.726   4.710   6.435
  430TIP3    H2 1232   2.627   4.596   6.426
  431TIP3   OH2 1233   7.453   6.346   1.574
  431TIP3    H1 1234   7.439   6.432   1.535
  431TIP3    H2 1235   7.507   6.364   1.652
  432TIP3   OH2 1236   0.841   4.343   2.878
  432TIP3    H1 1237   0.926   4.388   2.881
  432TIP3    H2 1238   0.781   4.402   2.922
  433TIP3   OH2 1239   0.887   0.176   6.179
  433TIP3    H1 1240   0.855   0.207   6.095
  433TIP3    H2 1241   0.951   0.108   6.158
  434TIP3   OH2 1242   2.211   5.553   0.698
  434TIP3    H1 1243   2.165   5.550   0.614
  434TIP3    H2 1244   2.154   5.506   0.758
  435TIP3   OH2 1245   4.219   5.900   2.194
  435TIP3    H1 1246   4.177   5.897   2.108
  435TIP3    H2 1247   4.242   5.993   2.206
  436TIP3   OH2 1248   1.267   0.401   3.379
  436TIP3    H1 1249   1.276   0.380   3.286
  436TIP3    H2 1250   1.218   0.483   3.381
  437TIP3   OH2 1251   3.882   2.100   1.512
  437TIP3    H1 1252   3.877   2.122   1.605
  437TIP3    H2 1253   3.951   2.035   1.506
  438TIP3   OH2 1254   3.822   5.867   0.187
  438TIP3    H1 1255   3.829   5.819   0.105
  438TIP3    H2 1256   3.765   5.813   0.242
  439TIP3   OH2 1257   2.663   7.490   1.997
  439TIP3    H1 1258   2.730   7.485   1.930
  439TIP3    H2 1259   2.591   7.436   1.964
  440TIP3   OH2 1260   5.202   0.537   2.875
  440TIP3    H1 1261   5.165   0.592   2.807
  440TIP3    H2 1262   5.137   0.540   2.946
  441TIP3   OH2 1263   3.735   5.016   1.722
  441TIP3    H1 1264   3.819   5.051   1.751
  441TIP3    H2 1265   3.757   4.936   1.676
  442TIP3   OH2 1266   2.807   4.363   3.427
  442TIP3    H1 1267   2.768   4.449   3.414
  442TIP3    H2 1268   2.799   4.319   3.342
  443TIP3   OH2 1269   3.129   6.792   5.074
  443TIP3    H1 1270   3.087   6.862   5.024
  443TIP3    H2 1271   3.208   6.832   5.110
  444TIP3   OH2 1272   5.272   1.548   3.106
  444TIP3    H1 1273   5.279   1.475   3.044
  444TIP3    H2 1274   5.281   1.626   3.051
  445TIP3   OH2 1275   4.039   1.148   5.616
  445TIP3    H1 1276   4.056   1.067   5.567
  445TIP3    H2 1277   3.945   1.163   5.606
  446TIP3   OH2 1278   4.435   0.785   3.119
  446TIP3    H1 1279   4.464   0.823   3.202
  446TIP3    H2 1280   4.369   0.846   3.086
  447TIP3   OH2 1281   6.052   3.951   2.405
  447TIP3    H1 1282   6.106   3.916   2.333
  447TIP3    H2 1283   6.114   3.966   2.476
  448TIP3   OH2 1284   2.067   3.479   1.312
  448TIP3    H1 1285   2.114   3.555   1.277
  448TIP3    H2 1286   2.024   3.511   1.391
  449TIP3   OH2 1287   3.769   6.673   0.254
  449TIP3    H1 1288   3.708   6.733   0.211
  449TIP3    H2 1289   3.722   6.642   0.331
  450TIP3   OH2 1290   5.045   1.163   3.061
  450TIP3    H1 1291   4.955   1.160   3.027
  450TIP3    H2 1292   5.095   1.111   2.998
  451TIP3   OH2 1293   3.202   3.152   3.405
  451TIP3    H1 1294   3.167   3.224   3.458
  451TIP3    H2 1295   3.272   3.193   3.353
  452TIP3   OH2 1296   8.068   4.478   3.805
  452TIP3    H1 1297   7.975   4.459   3.812
  452TIP3    H2 1298   8.091   4.518   3.888
  453TIP3   OH2 1299   0.428   5.335   6.463
  453TIP3    H1 1300   0.418   5.321   6.369
  453TIP3    H2 1301   0.468   5.421   6.471
  454TIP3   OH2 1302   1.031   1.663   5.363
  454TIP3    H1 1303   0.969   1.703   5.424
  454TIP3    H2 1304   1.114   1.661   5.411
  455TIP3   OH2 1305   0.069   1.186   3.424
  455TIP3    H1 1306   0.079   1.104   3.375
  455TIP3    H2 1307  -0.025   1.204   3.420
  456TIP3   OH2 1308   1.878   1.678   5.845
  456TIP3    H1 1309   1.923   1.597   5.819
  456TIP3    H2 1310   1.805   1.685   5.784
  457TIP3   OH2 1311   0.877   3.491   2.306
  457TIP3    H1 1312   0.919   3.469   2.389
  457TIP3    H2 1313   0.947   3.528   2.252
  458TIP3   OH2 1314   0.168   0.360   2.937
  458TIP3    H1 1315   0.082   0.397   2.917
  458TIP3    H2 1316   0.213   0.359   2.853
  459TIP3   OH2 1317   6.418   4.174   5.073
  459TIP3    H1 1318   6.503   4.217   5.080
  459TIP3    H2 1319   6.416   4.113   5.146
  460TIP3   OH2 1320   8.244   2.718   4.799
  460TIP3    H1 1321   8.213   2.677   4.879
  460TIP3    H2 1322   8.265   2.808   4.824
  461TIP3   OH2 1323   5.774   0.812   1.156
  461TIP3    H1 1324   5.754   0.718   1.153
  461TIP3    H2 1325   5.837   0.825   1.085
  462TIP3   OH2 1326   6.201   3.627   2.858
  462TIP3    H1 1327   6.122   3.604   2.906
  462TIP3    H2 1328   6.253   3.677   2.921
  463TIP3   OH2 1329   1.491   1.603   2.428
  463TIP3    H1 1330   1.486   1.539   2.356
  463TIP3    H2 1331   1.469   1.686   2.387
  464TIP3   OH2 1332   1.173   4.311   6.622
  464TIP3    H1 1333   1.223   4.230   6.610
  464TIP3    H2 1334   1.145   4.335   6.534
  465TIP3   OH2 1335   8.254   1.305   1.894
  465TIP3    H1 1336   8.275   1.302   1.987
  465TIP3    H2 1337   8.169   1.349   1.891
  466TIP3   OH2 1338   5.611   1.517   2.884
  466TIP3    H1 1339   5.704   1.524   2.865
  466TIP3    H2 1340   5.590   1.424   2.870
  467TIP3   OH2 1341   3.588   4.457   6.764
  467TIP3    H1 1342   3.572   4.437   6.856
  467TIP3    H2 1343   3.520   4.411   6.717
  468TIP3   OH2 1344   7.311   3.304   1.666
  468TIP3    H1 1345   7.252   3.251   1.612
  468TIP3    H2 1346   7.396   3.261   1.658
  469TIP3   OH2 1347   3.952   4.478   2.812
  469TIP3    H1 1348   4.035   4.482   2.859
  469TIP3    H2 1349   3.915   4.392   2.835
  470TIP3   OH2 1350   0.366   4.755   0.211
  470TIP3    H1 1351   0.374   4.737   0.118
  470TIP3    H2 1352   0.319   4.679   0.246
  471TIP3   OH2 1353   6.274   4.999   1.661
  471TIP3    H1 1354   6.286   5.041   1.576
  471TIP3    H2 1355   6.180   4.998   1.675
  472TIP3   OH2 1356   1.331   0.530   2.602
  472TIP3    H1 1357   1.417   0.488   2.603
  472TIP3    H2 1358   1.269   0.458   2.610
  473TIP3   OH2 1359   5.108   4.437   2.125
  473TIP3    H1 1360   5.189   4.463   2.081
  473TIP3    H2 1361   5.055   4.517   2.126
  474TIP3   OH2 1362   5.578   1.388   0.707
  474TIP3    H1 1363   5.637   1.321   0.741
  474TIP3    H2 1364   5.595   1.465   0.761
  475TIP3   OH2 1365   5.251   1.188   5.983
  475TIP3    H1 1366   5.250   1.093   5.983
  475TIP3    H2 1367   5.248   1.212   6.076
  476TIP3   OH2 1368   5.053   7.739   4.543
  476TIP3    H1 1369   5.053   7.754   4.448
  476TIP3    H2 1370   5.145   7.727   4.565
  477TIP3   OH2 1371   6.573   7.217   5.434
  477TIP3    H1 1372   6.484   7.203   5.404
  477TIP3    H2 1373   6.626   7.216   5.354
  478TIP3   OH2 1374   5.564   1.275   4.117
  478TIP3    H1 1375   5.619   1.320   4.053
  478TIP3    H2 1376   5.623   1.256   4.190
  479TIP3   OH2 1377   5.718   7.412   1.776
  479TIP3    H1 1378   5.649   7.388   1.837
  479TIP3    H2 1379   5.726   7.337   1.717
  480TIP3   OH2 1380   0.279   6.008   2.871
  480TIP3    H1 1381   0.282   6.102   2.852
  480TIP3    H2 1382   0.319   5.999   2.957
  481TIP3   OH2 1383   7.458   5.937   6.309
  481TIP3    H1 1384   7.481   5.851   6.345
  481TIP3    H2 1385   7.471   5.926   6.214
  482TIP3   OH2 1386   5.344   7.145   5.859
  482TIP3    H1 1387   5.260   7.125   5.818
  482TIP3    H2 1388   5.382   7.059   5.879
  483TIP3   OH2 1389   6.273   0.760   5.493
  483TIP3    H1 1390   6.338   0.690   5.484
  483TIP3    H2 1391   6.306   0.830   5.437
  484TIP3   OH2 1392   5.031   7.052   3.503
  484TIP3    H1 1393   5.073   7.066   3.418
  484TIP3    H2 1394   4.962   7.118   3.507
  485TIP3   OH2 1395   2.361   0.307   1.364
  485TIP3    H1 1396   2.274   0.296   1.324
  485TIP3    H2 1397   2.380   0.223   1.405
  486TIP3   OH2 1398   1.717   6.828   2.926
  486TIP3    H1 1399   1.679   6.896   2.982
  486TIP3    H2 1400   1.714   6.865   2.838
  487TIP3   OH2 1401   0.615   0.052   2.240
  487TIP3    H1 1402   0.599  -0.018   2.303
  487TIP3    H2 1403   0.539   0.110   2.249
  488TIP3   OH2 1404   1.853   5.650   2.415
  488TIP3    H1 1405   1.774   5.703   2.403
  488TIP3    H2 1406   1.828   5.563   2.385
  489TIP3   OH2 1407   5.737   3.290   0.803
  489TIP3    H1 1408   5.677   3.265   0.734
  489TIP3    H2 1409   5.690   3.274   0.884
  490TIP3   OH2 1410   2.098   2.179   6.224
  490TIP3    H1 1411   2.075   2.087   6.210
  490TIP3    H2 1412   2.049   2.204   6.302
  491TIP3   OH2 1413   8.042   2.413   0.604
  491TIP3    H1 1414   8.134   2.403   0.584
  491TIP3    H2 1415   8.001   2.438   0.521
  492TIP3   OH2 1416   4.204   2.483   3.599
  492TIP3    H1 1417   4.256   2.554   3.638
  492TIP3    H2 1418   4.220   2.490   3.505
  493TIP3   OH2 1419   0.886   6.395   0.586
  493TIP3    H1 1420   0.880   6.420   0.493
  493TIP3    H2 1421   0.801   6.355   0.605
  494TIP3   OH2 1422   0.967   1.035   4.414
  494TIP3    H1 1423   0.893   0.980   4.389
  494TIP3    H2 1424   0.972   1.100   4.345
  495TIP3   OH2 1425   0.535   4.362  -0.010
  495TIP3    H1 1426   0.519   4.353   0.084
  495TIP3    H2 1427   0.527   4.456  -0.026
  496TIP3   OH2 1428   3.932   2.162   5.011
  496TIP3    H1 1429   3.904   2.243   5.053
  496TIP3    H2 1430   3.942   2.185   4.918
  497TIP3   OH2 1431   3.057   7.370   5.921
  497TIP3    H1 1432   3.093   7.403   5.838
  497TIP3    H2 1433   2.994   7.304   5.895
  498TIP3   OH2 1434   1.877   0.795   2.530
  498TIP3    H1 1435   1.788   0.782   2.562
  498TIP3    H2 1436   1.867   0.814   2.437
  499TIP3   OH2 1437   2.519   3.098   3.496
  499TIP3    H1 1438   2.552   3.157   3.564
  499TIP3    H2 1439   2.434   3.134   3.472
  500TIP3   OH2 1440   0.011   4.445   4.945
  500TIP3    H1 1441   0.013   4.533   4.982
  500TIP3    H2 1442   0.062   4.452   4.864
  501TIP3   OH2 1443   3.154   4.882   4.286
  501TIP3    H1 1444   3.222   4.918   4.342
  501TIP3    H2 1445   3.079   4.867   4.344
  502TIP3   OH2 1446   4.743   5.040   1.381
  502TIP3    H1 1447   4.675   5.069   1.441
  502TIP3    H2 1448   4.820   5.093   1.402
  503TIP3   OH2 1449   5.195   5.455   4.424
  503TIP3    H1 1450   5.113   5.421   4.462
  503TIP3    H2 1451   5.197   5.547   4.451
  504TIP3   OH2 1452   3.259   1.014   3.011
  504TIP3    H1 1453   3.192   1.074   3.045
  504TIP3    H2 1454   3.249   1.019   2.916
  505TIP3   OH2 1455   4.252   7.692   2.992
  505TIP3    H1 1456   4.301   7.689   3.074
  505TIP3    H2 1457   4.309   7.742   2.933
  506TIP3   OH2 1458   3.317   0.046   4.587
  506TIP3    H1 1459   3.368  -0.031   4.562
  506TIP3    H2 1460   3.373   0.093   4.648
  507TIP3   OH2 1461   0.251   1.856   0.691
  507TIP3    H1 1462   0.296   1.887   0.769
  507TIP3    H2 1463   0.240   1.762   0.704
  508TIP3   OH2 1464   2.216   6.313   5.126
  508TIP3    H1 1465   2.285   6.333   5.189
  508TIP3    H2 1466   2.183   6.399   5.099
  509TIP3   OH2 1467   1.639   3.591   3.308
  509TIP3    H1 1468   1.719   3.538   3.302
  509TIP3    H2 1469   1.570   3.535   3.273
  510TIP3   OH2 1470   7.337   2.775   6.674
  510TIP3    H1 1471   7.372   2.847   6.726
  510TIP3    H2 1472   7.392   2.774   6.595
  511TIP3   OH2 1473   4.742   7.519   1.991
  511TIP3    H1 1474   4.684   7.579   2.038
  511TIP3    H2 1475   4.783   7.572   1.923
  512TIP3   OH2 1476   1.412   0.708   2.110
  512TIP3    H1 1477   1.403   0.651   2.186
  512TIP3    H2 1478   1.422   0.647   2.036
  513TIP3   OH2 1479   5.829   4.960   0.482
  513TIP3    H1 1480   5.815   4.886   0.423
  513TIP3    H2 1481   5.742   4.979   0.516
  514TIP3   OH2 1482   7.125   2.231   1.214
  514TIP3    H1 1483   7.099   2.313   1.172
  514TIP3    H2 1484   7.148   2.173   1.142
  515TIP3   OH2 1485   6.370   0.075   6.641
  515TIP3    H1 1486   6.370   0.091   6.547
  515TIP3    H2 1487   6.403  -0.014   6.651
  516TIP3   OH2 1488   0.425   0.486   4.570
  516TIP3    H1 1489   0.413   0.436   4.651
  516TIP3    H2 1490   0.516   0.515   4.573
  517TIP3   OH2 1491   0.948   6.427   6.335
  517TIP3    H1 1492   0.929   6.512   6.375
  517TIP3    H2 1493   1.005   6.448   6.261
  518TIP3   OH2 1494   1.747   5.779   1.219
  518TIP3    H1 1495   1.682   5.744   1.280
  518TIP3    H2 1496   1.770   5.705   1.164
  519TIP3   OH2 1497   4.026   4.670   4.876
  519TIP3    H1 1498   3.980   4.596   4.836
  519TIP3    H2 1499   3.959   4.738   4.884
  520TIP3   OH2 1500   5.171   5.354   1.605
  520TIP3    H1 1501   5.127   5.288   1.660
  520TIP3    H2 1502   5.190   5.426   1.665
  521TIP3   OH2 1503   1.232   2.420   1.842
  521TIP3    H1 1504   1.230   2.479   1.767
  521TIP3    H2 1505   1.290   2.348   1.815
  522TIP3   OH2 1506   2.296   4.279  -0.005
  522TIP3    H1 1507   2.332   4.324   0.071
  522TIP3    H2 1508   2.342   4.195  -0.008
  523TIP3   OH2 1509   8.303   6.778   0.661
  523TIP3    H1 1510   8.227   6.725   0.639
  523TIP3    H2 1511   8.363   6.767   0.587
  524TIP3   OH2 1512   5.982   2.404   1.152
  524TIP3    H1 1513   5.941   2.351   1.084
  524TIP3    H2 1514   5.916   2.407   1.222
  525TIP3   OH2 1515   3.983   5.638   0.898
  525TIP3    H1 1516   3.981   5.730   0.922
  525TIP3    H2 1517   4.062   5.628   0.845
  526TIP3   OH2 1518   8.224   6.287   3.434
  526TIP3    H1 1519   8.201   6.300   3.342
  526TIP3    H2 1520   8.319   6.280   3.435
  527TIP3   OH2 1521   1.486   0.538   2.866
  527TIP3    H1 1522   1.546   0.464   2.857
  527TIP3    H2 1523   1.417   0.522   2.801
  528TIP3   OH2 1524   6.686   4.865   1.168
  528TIP3    H1 1525   6.607   4.812   1.158
  528TIP3    H2 1526   6.654   4.955   1.167
  529TIP3   OH2 1527   0.337   1.326   3.797
  529TIP3    H1 1528   0.281   1.277   3.856
  529TIP3    H2 1529   0.369   1.399   3.849
  530TIP3   OH2 1530   0.644   3.117   1.842
  530TIP3    H1 1531   0.655   3.206   1.807
  530TIP3    H2 1532   0.588   3.128   1.919
  531TIP3   OH2 1533   8.196   6.764   6.825
  531TIP3    H1 1534   8.266   6.703   6.848
  531TIP3    H2 1535   8.122   6.738   6.880
  532TIP3   OH2 1536   7.019   4.375   4.367
  532TIP3    H1 1537   7.070   4.323   4.430
  532TIP3    H2 1538   6.945   4.407   4.418
  533TIP3   OH2 1539   5.207   6.380   3.566
  533TIP3    H1 1540   5.282   6.397   3.623
  533TIP3    H2 1541   5.165   6.303   3.604
  534TIP3   OH2 1542   5.596   3.659   2.953
  534TIP3    H1 1543   5.622   3.620   3.036
  534TIP3    H2 1544   5.571   3.749   2.975
  535TIP3   OH2 1545   5.807   2.727   4.499
  535TIP3    H1 1546   5.785   2.805   4.549
  535TIP3    H2 1547   5.805   2.755   4.407
  536TIP3   OH2 1548   5.812   0.802   4.335
  536TIP3    H1 1549   5.729   0.802   4.288
  536TIP3    H2 1550   5.789   0.775   4.424
  537TIP3   OH2 1551   7.697   2.193   5.286
  537TIP3    H1 1552   7.708   2.103   5.258
  537TIP3    H2 1553   7.715   2.191   5.380
  538TIP3   OH2 1554   4.725   6.761   1.793
  538TIP3    H1 1555   4.712   6.842   1.841
  538TIP3    H2 1556   4.664   6.699   1.832
  539TIP3   OH2 1557   6.498   1.013   3.010
  539TIP3    H1 1558   6.504   1.090   3.066
  539TIP3    H2 1559   6.532   0.941   3.064
  540TIP3   OH2 1560   4.784   7.635   5.577
  540TIP3    H1 1561   4.755   7.585   5.654
  540TIP3    H2 1562   4.774   7.574   5.504
  541TIP3   OH2 1563   7.113   6.082   5.759
  541TIP3    H1 1564   7.063   6.163   5.748
  541TIP3    H2 1565   7.203   6.112   5.774
  542TIP3   OH2 1566   8.343   6.625   0.097
  542TIP3    H1 1567   8.370   6.535   0.113
  542TIP3    H2 1568   8.372   6.643   0.008
  543TIP3   OH2 1569   6.039   6.763   1.991
  543TIP3    H1 1570   5.953   6.730   2.018
  543TIP3    H2 1571   6.020   6.832   1.928
  544TIP3   OH2 1572   7.691   2.857   4.987
  544TIP3    H1 1573   7.736   2.795   4.929
  544TIP3    H2 1574   7.615   2.808   5.019
  545TIP3   OH2 1575   8.120   1.664   6.310
  545TIP3    H1 1576   8.183   1.592   6.306
  545TIP3    H2 1577   8.059   1.639   6.379
  546TIP3   OH2 1578   0.585   7.219   5.866
  546TIP3    H1 1579   0.600   7.152   5.800
  546TIP3    H2 1580   0.491   7.214   5.883
  547TIP3   OH2 1581   2.124   2.170   3.822
  547TIP3    H1 1582   2.055   2.107   3.802
  547TIP3    H2 1583   2.103   2.246   3.769
  548TIP3   OH2 1584   4.743   1.859   4.818
  548TIP3    H1 1585   4.794   1.875   4.738
  548TIP3    H2 1586   4.657   1.832   4.786
  549TIP3   OH2 1587   7.911   3.868   5.131
  549TIP3    H1 1588   7.940   3.781   5.160
  549TIP3    H2 1589   7.865   3.903   5.208
  550TIP3   OH2 1590   5.027   7.831   3.217
  550TIP3    H1 1591   5.005   7.881   3.296
  550TIP3    H2 1592   5.054   7.898   3.153
  551TIP3   OH2 1593   2.337   5.524   5.975
  551TIP3    H1 1594   2.360   5.579   6.049
  551TIP3    H2 1595   2.420   5.494   5.939
  552TIP3   OH2 1596   7.892   3.580   5.478
  552TIP3    H1 1597   7.855   3.660   5.514
  552TIP3    H2 1598   7.867   3.512   5.540
  553TIP3   OH2 1599   1.334   6.729   2.321
  553TIP3    H1 1600   1.341   6.644   2.364
  553TIP3    H2 1601   1.357   6.712   2.230
  554TIP3   OH2 1602   7.754   3.603   4.458
  554TIP3    H1 1603   7.740   3.605   4.363
  554TIP3    H2 1604   7.682   3.550   4.492
  555TIP3   OH2 1605   0.648   1.029   4.947
  555TIP3    H1 1606   0.631   0.941   4.980
  555TIP3    H2 1607   0.743   1.031   4.933
  556TIP3   OH2 1608   7.488   1.066   3.011
  556TIP3    H1 1609   7.419   1.130   3.029
  556TIP3    H2 1610   7.564   1.099   3.058
  557TIP3   OH2 1611   3.394   1.244   4.279
  557TIP3    H1 1612   3.311   1.209   4.314
  557TIP3    H2 1613   3.368   1.321   4.229
  558TIP3   OH2 1614   5.568   6.464   0.539
  558TIP3    H1 1615   5.475   6.456   0.519
  558TIP3    H2 1616   5.610   6.473   0.454
  559TIP3   OH2 1617   2.771   0.865   6.663
  559TIP3    H1 1618   2.836   0.935   6.673
  559TIP3    H2 1619   2.733   0.880   6.576
  560TIP3   OH2 1620   3.205   7.343   0.866
  560TIP3    H1 1621   3.222   7.372   0.776
  560TIP3    H2 1622   3.123   7.385   0.889
  561TIP3   OH2 1623   2.597   0.294   3.760
  561TIP3    H1 1624   2.665   0.230   3.737
  561TIP3    H2 1625   2.516   0.242   3.761
  562TIP3   OH2 1626   2.886   1.978   5.366
  562TIP3    H1 1627   2.944   1.973   5.442
  562TIP3    H2 1628   2.939   2.020   5.299
  563TIP3   OH2 1629   2.889   7.452   5.000
  563TIP3    H1 1630   2.857   7.517   5.062
  563TIP3    H2 1631   2.907   7.375   5.053
  564TIP3   OH2 1632   6.377   0.038   1.846
  564TIP3    H1 1633   6.354   0.110   1.787
  564TIP3    H2 1634   6.472   0.027   1.834
  565TIP3   OH2 1635   4.480   7.896   1.289
  565TIP3    H1 1636   4.399   7.874   1.335
  565TIP3    H2 1637   4.546   7.901   1.358
  566TIP3   OH2 1638   6.195   3.310   5.913
  566TIP3    H1 1639   6.273   3.332   5.862
  566TIP3    H2 1640   6.213   3.347   6.000
  567TIP3   OH2 1641   5.807   3.186   1.690
  567TIP3    H1 1642   5.852   3.220   1.612
  567TIP3    H2 1643   5.726   3.238   1.694
  568TIP3   OH2 1644   6.845   7.554   2.075
  568TIP3    H1 1645   6.798   7.565   1.992
  568TIP3    H2 1646   6.808   7.475   2.113
  569TIP3   OH2 1647   1.482   5.183   5.895
  569TIP3    H1 1648   1.503   5.217   5.982
  569TIP3    H2 1649   1.394   5.215   5.877
  570TIP3   OH2 1650   1.965   2.977   4.929
  570TIP3    H1 1651   2.016   3.036   4.985
  570TIP3    H2 1652   1.958   2.896   4.980
  571TIP3   OH2 1653   1.962   2.662   6.171
  571TIP3    H1 1654   2.050   2.669   6.133
  571TIP3    H2 1655   1.903   2.684   6.099
  572TIP3   OH2 1656   6.718   4.147   0.219
  572TIP3    H1 1657   6.723   4.082   0.289
  572TIP3    H2 1658   6.649   4.207   0.246
  573TIP3   OH2 1659   6.400   3.771   4.639
  573TIP3    H1 1660   6.370   3.851   4.596
  573TIP3    H2 1661   6.463   3.734   4.578
  574TIP3   OH2 1662   7.373   5.298   1.141
  574TIP3    H1 1663   7.292   5.265   1.178
  574TIP3    H2 1664   7.419   5.338   1.216
  575TIP3   OH2 1665   4.554   2.649   6.059
  575TIP3    H1 1666   4.602   2.566   6.057
  575TIP3    H2 1667   4.620   2.716   6.041
  576TIP3   OH2 1668   5.232   4.635   6.183
  576TIP3    H1 1669   5.304   4.582   6.217
  576TIP3    H2 1670   5.190   4.671   6.262
  577TIP3   OH2 1671   4.460   3.953   0.815
  577TIP3    H1 1672   4.449   4.047   0.801
  577TIP3    H2 1673   4.532   3.946   0.877
  578TIP3   OH2 1674   2.079   4.189   4.594
  578TIP3    H1 1675   2.044   4.105   4.624
  578TIP3    H2 1676   2.133   4.167   4.518
  579TIP3   OH2 1677   7.772   5.226   0.152
  579TIP3    H1 1678   7.692   5.261   0.192
  579TIP3    H2 1679   7.824   5.195   0.226
  580TIP3   OH2 1680   4.075   2.216   3.142
  580TIP3    H1 1681   4.115   2.250   3.063
  580TIP3    H2 1682   4.050   2.126   3.120
  581TIP3   OH2 1683   5.700   4.463   3.668
  581TIP3    H1 1684   5.646   4.422   3.601
  581TIP3    H2 1685   5.775   4.499   3.620
  582TIP3   OH2 1686   2.339   3.781   4.166
  582TIP3    H1 1687   2.278   3.708   4.161
  582TIP3    H2 1688   2.421   3.747   4.131
  583TIP3   OH2 1689   0.213   5.436   0.309
  583TIP3    H1 1690   0.289   5.443   0.252
  583TIP3    H2 1691   0.245   5.389   0.387
  584TIP3   OH2 1692   1.800   6.237   6.404
  584TIP3    H1 1693   1.775   6.173   6.338
  584TIP3    H2 1694   1.728   6.299   6.408
  585TIP3   OH2 1695   7.990   5.944   3.901
  585TIP3    H1 1696   7.929   5.900   3.959
  585TIP3    H2 1697   7.957   6.034   3.894
  586TIP3   OH2 1698   7.680   0.894   6.659
  586TIP3    H1 1699   7.628   0.833   6.712
  586TIP3    H2 1700   7.753   0.918   6.716
  587TIP3   OH2 1701   5.594   1.960   0.906
  587TIP3    H1 1702   5.636   2.023   0.964
  587TIP3    H2 1703   5.603   1.876   0.952
  588TIP3   OH2 1704   0.571   2.906   0.855
  588TIP3    H1 1705   0.554   2.998   0.840
  588TIP3    H2 1706   0.518   2.883   0.931
  589TIP3   OH2 1707   0.621   6.870   4.177
  589TIP3    H1 1708   0.675   6.801   4.215
  589TIP3    H2 1709   0.683   6.942   4.161
  590TIP3   OH2 1710   0.442   2.275   1.494
  590TIP3    H1 1711   0.503   2.212   1.456
  590TIP3    H2 1712   0.457   2.355   1.445
  591TIP3   OH2 1713   5.176   2.857   4.302
  591TIP3    H1 1714   5.128   2.933   4.266
  591TIP3    H2 1715   5.152   2.856   4.394
  592TIP3   OH2 1716   1.409   2.846   1.116
  592TIP3    H1 1717   1.412   2.774   1.179
  592TIP3    H2 1718   1.500   2.868   1.099
  593TIP3   OH2 1719   1.119   6.513   2.406
  593TIP3    H1 1720   1.088   6.518   2.316
  593TIP3    H2 1721   1.211   6.491   2.399
  594TIP3   OH2 1722   0.552   7.340   4.856
  594TIP3    H1 1723   0.511   7.406   4.800
  594TIP3    H2 1724   0.484   7.275   4.873
  595TIP3   OH2 1725   3.112   6.274   2.441
  595TIP3    H1 1726   3.118   6.369   2.432
  595TIP3    H2 1727   3.161   6.239   2.367
  596TIP3   OH2 1728   1.512   6.165   0.150
  596TIP3    H1 1729   1.522   6.253   0.187
  596TIP3    H2 1730   1.579   6.161   0.081
  597TIP3   OH2 1731   3.880   2.673   0.801
  597TIP3    H1 1732   3.847   2.588   0.828
  597TIP3    H2 1733   3.944   2.654   0.732
  598TIP3   OH2 1734   0.568   1.961   3.257
  598TIP3    H1 1735   0.499   2.009   3.210
  598TIP3    H2 1736   0.624   1.926   3.188
  599TIP3   OH2 1737   5.967   6.041   5.428
  599TIP3    H1 1738   5.988   6.134   5.416
  599TIP3    H2 1739   6.010   6.017   5.510
  600TIP3   OH2 1740   0.359   3.682   1.606
  600TIP3    H1 1741   0.425   3.748   1.588
  600TIP3    H2 1742   0.341   3.691   1.700
  601TIP3   OH2 1743   2.233   5.759   5.830
  601TIP3    H1 1744   2.264   5.812   5.903
  601TIP3    H2 1745   2.253   5.669   5.855
  602TIP3   OH2 1746   6.397   4.831   6.081
  602TIP3    H1 1747   6.459   4.881   6.135
  602TIP3    H2 1748   6.313   4.841   6.125
  603TIP3   OH2 1749   0.105   0.003   0.144
  603TIP3    H1 1750   0.026  -0.011   0.092
  603TIP3    H2 1751   0.102   0.095   0.169
  604TIP3   OH2 1752   4.611   6.449   3.720
  604TIP3    H1 1753   4.582   6.375   3.667
  604TIP3    H2 1754   4.699   6.424   3.750
  605TIP3   OH2 1755   0.022   3.448   4.309
  605TIP3    H1 1756  -0.028   3.382   4.357
  605TIP3    H2 1757   0.107   3.449   4.352
  606TIP3   OH2 1758   8.209   6.464   5.007
  606TIP3    H1 1759   8.185   6.430   4.920
  606TIP3    H2 1760   8.291   6.512   4.991
  607TIP3   OH2 1761   6.379   3.409   6.129
  607TIP3    H1 1762   6.459   3.460   6.128
  607TIP3    H2 1763   6.344   3.420   6.217
  608TIP3   OH2 1764   7.424   2.154   5.437
  608TIP3    H1 1765   7.408   2.164   5.343
  608TIP3    H2 1766   7.353   2.202   5.478
  609TIP3   OH2 1767   6.369   0.736   3.205
  609TIP3    H1 1768   6.463   0.734   3.225
  609TIP3    H2 1769   6.329   0.683   3.274
  610TIP3   OH2 1770   5.117   3.844   6.382
  610TIP3    H1 1771   5.202   3.851   6.426
  610TIP3    H2 1772   5.057   3.817   6.451
  611TIP3   OH2 1773   3.651   7.084   5.998
  611TIP3    H1 1774   3.594   7.060   6.071
  611TIP3    H2 1775   3.632   7.177   5.983
  612TIP3   OH2 1776   5.932   1.527   0.070
  612TIP3    H1 1777   6.003   1.547   0.132
  612TIP3    H2 1778   5.858   1.579   0.101
  613TIP3   OH2 1779   7.949   5.338   5.535
  613TIP3    H1 1780   7.955   5.243   5.530
  613TIP3    H2 1781   8.003   5.362   5.610
  614TIP3   OH2 1782   4.636   0.760   5.977
  614TIP3    H1 1783   4.629   0.721   6.064
  614TIP3    H2 1784   4.610   0.851   5.989
  615TIP3   OH2 1785   5.706   7.387   2.395
  615TIP3    H1 1786   5.792   7.355   2.367
  615TIP3    H2 1787   5.719   7.417   2.484
  616TIP3   OH2 1788   7.624   1.835   3.233
  616TIP3    H1 1789   7.581   1.903   3.183
  616TIP3    H2 1790   7.614   1.862   3.324
  617TIP3   OH2 1791   7.566   4.957   1.397
  617TIP3    H1 1792   7.613   5.038   1.413
  617TIP3    H2 1793   7.591   4.932   1.308
  618TIP3   OH2 1794   4.822   0.736   3.439
  618TIP3    H1 1795   4.797   0.772   3.354
  618TIP3    H2 1796   4.748   0.682   3.466
  619TIP3   OH2 1797   2.443   5.672   4.867
  619TIP3    H1 1798   2.351   5.693   4.854
  619TIP3    H2 1799   2.485   5.695   4.784
  620TIP3   OH2 1800   4.399   7.227   4.555
  620TIP3    H1 1801   4.352   7.219   4.472
  620TIP3    H2 1802   4.424   7.319   4.561
  621TIP3   OH2 1803   4.220   5.628   0.792
  621TIP3    H1 1804   4.248   5.705   0.843
  621TIP3    H2 1805   4.276   5.630   0.714
  622TIP3   OH2 1806   4.814   5.948   5.247
  622TIP3    H1 1807   4.811   6.027   5.193
  622TIP3    H2 1808   4.802   5.876   5.186
  623TIP3   OH2 1809   5.564   2.457   5.862
  623TIP3    H1 1810   5.642   2.403   5.853
  623TIP3    H2 1811   5.511   2.435   5.785
  624TIP3   OH2 1812   3.696   2.678   3.184
  624TIP3    H1 1813   3.663   2.595   3.150
  624TIP3    H2 1814   3.653   2.689   3.269
  625TIP3   OH2 1815   1.097   5.281   5.562
  625TIP3    H1 1816   1.055   5.250   5.482
  625TIP3    H2 1817   1.029   5.334   5.605
  626TIP3   OH2 1818   6.881   5.568   5.744
  626TIP3    H1 1819   6.832   5.541   5.666
  626TIP3    H2 1820   6.824   5.631   5.787
  627TIP3   OH2 1821   8.381   4.233   5.106
  627TIP3    H1 1822   8.395   4.287   5.028
  627TIP3    H2 1823   8.286   4.225   5.113
  628TIP3   OH2 1824   3.406   0.228   1.615
  628TIP3    H1 1825   3.385   0.303   1.671
  628TIP3    H2 1826   3.321   0.186   1.600
  629TIP3   OH2 1827   1.644   5.526   4.244
  629TIP3    H1 1828   1.669   5.442   4.206
  629TIP3    H2 1829   1.638   5.585   4.168
  630TIP3   OH2 1830   4.048   1.673   2.447
  630TIP3    H1 1831   4.026   1.761   2.417
  630TIP3    H2 1832   3.982   1.617   2.408
  631TIP3   OH2 1833   4.367   4.313   5.415
  631TIP3    H1 1834   4.337   4.244   5.475
  631TIP3    H2 1835   4.442   4.274   5.371
  632TIP3   OH2 1836   3.727   2.942   5.386
  632TIP3    H1 1837   3.783   2.878   5.343
  632TIP3    H2 1838   3.685   2.893   5.457
  633TIP3   OH2 1839   3.198   6.923   1.644
  633TIP3    H1 1840   3.237   6.878   1.719
  633TIP3    H2 1841   3.128   6.976   1.681
  634TIP3   OH2 1842   8.020   2.306   3.351
  634TIP3    H1 1843   7.986   2.262   3.430
  634TIP3    H2 1844   7.979   2.259   3.278
  635TIP3   OH2 1845   4.947   7.243   3.078
  635TIP3    H1 1846   4.905   7.166   3.114
  635TIP3    H2 1847   4.875   7.301   3.054
  636TIP3   OH2 1848   6.110   4.719   5.441
  636TIP3    H1 1849   6.093   4.642   5.495
  636TIP3    H2 1850   6.205   4.734   5.449
  637TIP3   OH2 1851   2.080   6.253   2.982
  637TIP3    H1 1852   2.143   6.319   3.012
  637TIP3    H2 1853   1.994   6.295   2.994
  638TIP3   OH2 1854   2.674   6.765   0.538
  638TIP3    H1 1855   2.603   6.826   0.519
  638TIP3    H2 1856   2.648   6.684   0.494
  639TIP3   OH2 1857   6.699   2.794   4.186
  639TIP3    H1 1858   6.784   2.829   4.159
  639TIP3    H2 1859   6.656   2.770   4.104
  640TIP3   OH2 1860   2.037   3.098   5.501
  640TIP3    H1 1861   2.063   3.013   5.465
  640TIP3    H2 1862   2.113   3.155   5.486
  641TIP3   OH2 1863   5.066   2.337   5.540
  641TIP3    H1 1864   4.977   2.306   5.559
  641TIP3    H2 1865   5.100   2.274   5.476
  642TIP3   OH2 1866   8.416   0.352   3.211
  642TIP3    H1 1867   8.335   0.401   3.226
  642TIP3    H2 1868   8.439   0.371   3.120
  643TIP3   OH2 1869   4.728   6.783   6.141
  643TIP3    H1 1870   4.662   6.840   6.180
  643TIP3    H2 1871   4.695   6.695   6.154
  644TIP3   OH2 1872   0.781   0.692   6.470
  644TIP3    H1 1873   0.818   0.679   6.557
  644TIP3    H2 1874   0.857   0.698   6.412
  645TIP3   OH2 1875   0.647   2.321   0.003
  645TIP3    H1 1876   0.681   2.368   0.079
  645TIP3    H2 1877   0.584   2.259   0.039
  646TIP3   OH2 1878   1.238   3.256   2.762
  646TIP3    H1 1879   1.272   3.180   2.809
  646TIP3    H2 1880   1.212   3.222   2.676
  647TIP3   OH2 1881   0.578   6.955   4.713
  647TIP3    H1 1882   0.579   6.865   4.745
  647TIP3    H2 1883   0.487   6.984   4.724
  648TIP3   OH2 1884   5.773   6.664   0.631
  648TIP3    H1 1885   5.743   6.573   0.620
  648TIP3    H2 1886   5.723   6.714   0.566
  649TIP3   OH2 1887   5.778   7.212   5.441
  649TIP3    H1 1888   5.844   7.206   5.510
  649TIP3    H2 1889   5.713   7.146   5.463
  650TIP3   OH2 1890   2.590   5.358   1.766
  650TIP3    H1 1891   2.597   5.314   1.681
  650TIP3    H2 1892   2.499   5.345   1.792
  651TIP3   OH2 1893   4.491   1.008   5.052
  651TIP3    H1 1894   4.582   0.979   5.045
  651TIP3    H2 1895   4.463   0.977   5.139
  652TIP3   OH2 1896   3.290   2.874   4.879
  652TIP3    H1 1897   3.291   2.970   4.881
  652TIP3    H2 1898   3.198   2.851   4.893
  653TIP3   OH2 1899   6.673   2.818   5.504
  653TIP3    H1 1900   6.726   2.771   5.568
  653TIP3    H2 1901   6.691   2.910   5.521
  654TIP3   OH2 1902   2.139   7.368   2.458
  654TIP3    H1 1903   2.046   7.380   2.476
  654TIP3    H2 1904   2.150   7.273   2.450
  655TIP3   OH2 1905   6.366   2.857   3.590
  655TIP3    H1 1906   6.459   2.866   3.571
  655TIP3    H2 1907   6.333   2.800   3.521
  656TIP3   OH2 1908   4.328   0.516   1.895
  656TIP3    H1 1909   4.367   0.524   1.808
  656TIP3    H2 1910   4.293   0.426   1.898
  657TIP3   OH2 1911   2.103   1.686   3.087
  657TIP3    H1 1912   2.131   1.597   3.066
  657TIP3    H2 1913   2.050   1.713   3.012
  658TIP3   OH2 1914   6.494   0.415   4.160
  658TIP3    H1 1915   6.467   0.326   4.182
  658TIP3    H2 1916   6.509   0.457   4.244
  659TIP3   OH2 1917   3.115   4.878   0.134
  659TIP3    H1 1918   3.026   4.845   0.142
  659TIP3    H2 1919   3.156   4.820   0.070
  660TIP3   OH2 1920   6.804   1.908   5.405
  660TIP3    H1 1921   6.731   1.936   5.460
  660TIP3    H2 1922   6.773   1.826   5.365
  661TIP3   OH2 1923   8.286   0.402   1.641
  661TIP3    H1 1924   8.232   0.467   1.686
  661TIP3    H2 1925   8.267   0.416   1.548
  662TIP3   OH2 1926   5.984   1.098   1.892
  662TIP3    H1 1927   5.934   1.041   1.949
  662TIP3    H2 1928   6.002   1.045   1.815
  663TIP3   OH2 1929   0.432   6.079   5.285
  663TIP3    H1 1930   0.445   5.998   5.334
  663TIP3    H2 1931   0.361   6.060   5.224
  664TIP3   OH2 1932   3.686   4.484   2.367
  664TIP3    H1 1933   3.614   4.427   2.394
  664TIP3    H2 1934   3.661   4.513   2.279
  665TIP3   OH2 1935   7.299   2.241   3.180
  665TIP3    H1 1936   7.248   2.162   3.165
  665TIP3    H2 1937   7.234   2.306   3.207
  666TIP3   OH2 1938   7.331   2.360   5.149
  666TIP3    H1 1939   7.422   2.334   5.132
  666TIP3    H2 1940   7.282   2.278   5.146
  667TIP3   OH2 1941   5.200   4.630   4.899
  667TIP3    H1 1942   5.206   4.535   4.891
  667TIP3    H2 1943   5.271   4.654   4.959
  668TIP3   OH2 1944   7.607   3.514   2.055
  668TIP3    H1 1945   7.686   3.557   2.089
  668TIP3    H2 1946   7.537   3.546   2.113
  669TIP3   OH2 1947   5.538   0.405   6.431
  669TIP3    H1 1948   5.590   0.452   6.497
  669TIP3    H2 1949   5.463   0.370   6.479
  670TIP3   OH2 1950   4.424   6.022   1.940
  670TIP3    H1 1951   4.482   5.981   1.876
  670TIP3    H2 1952   4.344   5.970   1.937
  671TIP3   OH2 1953   6.898   6.656   0.506
  671TIP3    H1 1954   6.936   6.631   0.591
  671TIP3    H2 1955   6.971   6.694   0.458
  672TIP3   OH2 1956   0.056   3.033   4.695
  672TIP3    H1 1957   0.133   2.989   4.732
  672TIP3    H2 1958  -0.010   3.026   4.765
  673TIP3   OH2 1959   7.217   4.098   2.801
  673TIP3    H1 1960   7.144   4.088   2.862
  673TIP3    H2 1961   7.245   4.189   2.812
  674TIP3   OH2 1962   2.882   5.959   0.511
  674TIP3    H1 1963   2.941   5.891   0.480
  674TIP3    H2 1964   2.912   5.979   0.600
  675TIP3   OH2 1965   4.005   1.569   0.641
  675TIP3    H1 1966   4.050   1.646   0.675
  675TIP3    H2 1967   3.976   1.595   0.553
  676TIP3   OH2 1968   7.226   7.245   2.031
  676TIP3    H1 1969   7.197   7.325   2.075
  676TIP3    H2 1970   7.228   7.179   2.100
  677TIP3   OH2 1971   6.888   3.076   0.167
  677TIP3    H1 1972   6.856   2.988   0.148
  677TIP3    H2 1973   6.831   3.108   0.236
  678TIP3   OH2 1974   7.257   2.579   0.147
  678TIP3    H1 1975   7.351   2.574   0.166
  678TIP3    H2 1976   7.231   2.488   0.131
  679TIP3   OH2 1977   1.895   6.070   5.653
  679TIP3    H1 1978   1.962   6.051   5.719
  679TIP3    H2 1979   1.873   6.162   5.668
  680TIP3   OH2 1980   1.876   6.848   5.276
  680TIP3    H1 1981   1.876   6.779   5.343
  680TIP3    H2 1982   1.899   6.803   5.195
  681TIP3   OH2 1983   1.096   7.332   6.345
  681TIP3    H1 1984   1.069   7.384   6.421
  681TIP3    H2 1985   1.024   7.341   6.283
  682TIP3   OH2 1986   3.893   5.392   3.349
  682TIP3    H1 1987   3.883   5.450   3.425
  682TIP3    H2 1988   3.935   5.314   3.384
  683TIP3   OH2 1989   7.080   7.587   6.025
  683TIP3    H1 1990   7.168   7.552   6.034
  683TIP3    H2 1991   7.080   7.628   5.938
  684TIP3   OH2 1992   8.388   1.708   1.640
  684TIP3    H1 1993   8.394   1.776   1.573
  684TIP3    H2 1994   8.343   1.750   1.713
  685TIP3   OH2 1995   5.653   3.796   5.387
  685TIP3    H1 1996   5.685   3.813   5.475
  685TIP3    H2 1997   5.646   3.701   5.382
  686TIP3   OH2 1998   8.140   1.375   2.424
  686TIP3    H1 1999   8.134   1.319   2.501
  686TIP3    H2 2000   8.065   1.433   2.430
  687TIP3   OH2 2001   0.532   7.275   1.343
  687TIP3    H1 2002   0.524   7.189   1.302
  687TIP3    H2 2003   0.595   7.322   1.288
  688TIP3   OH2 2004   2.694   1.161   1.061
  688TIP3    H1 2005   2.639   1.230   1.024
  688TIP3    H2 2006   2.721   1.195   1.146
  689TIP3   OH2 2007   5.554   6.169   1.073
  689TIP3    H1 2008   5.649   6.174   1.081
  689TIP3    H2 2009   5.539   6.108   1.001
  690TIP3   OH2 2010   1.728   2.241   4.459
  690TIP3    H1 2011   1.701   2.266   4.371
  690TIP3    H2 2012   1.808   2.189   4.445
  691TIP3   OH2 2013   4.214   4.727   2.060
  691TIP3    H1 2014   4.145   4.734   1.994
  691TIP3    H2 2015   4.170   4.750   2.142
  692TIP3   OH2 2016   6.183   7.845   3.136
  692TIP3    H1 2017   6.109   7.904   3.149
  692TIP3    H2 2018   6.253   7.882   3.190
  693TIP3   OH2 2019   0.824   2.640   0.875
  693TIP3    H1 2020   0.731   2.639   0.899
  693TIP3    H2 2021   0.865   2.579   0.936
  694TIP3   OH2 2022   5.214   4.925   4.751
  694TIP3    H1 2023   5.302   4.887   4.742
  694TIP3    H2 2024   5.155   4.852   4.735
  695TIP3   OH2 2025   6.031   0.449   2.122
  695TIP3    H1 2026   6.089   0.467   2.048
  695TIP3    H2 2027   6.073   0.491   2.196
  696TIP3   OH2 2028   4.273   3.241   4.950
  696TIP3    H1 2029   4.295   3.148   4.943
  696TIP3    H2 2030   4.197   3.252   4.893
  697TIP3   OH2 2031   7.710   5.869   2.311
  697TIP3    H1 2032   7.678   5.782   2.287
  697TIP3    H2 2033   7.710   5.869   2.407
  698TIP3   OH2 2034   0.251   7.833   2.576
  698TIP3    H1 2035   0.166   7.788   2.574
  698TIP3    H2 2036   0.257   7.867   2.665
  699TIP3   OH2 2037   5.990   5.562   3.230
  699TIP3    H1 2038   6.062   5.526   3.282
  699TIP3    H2 2039   5.922   5.494   3.234
  700TIP3   OH2 2040   7.832   2.889   2.430
  700TIP3    H1 2041   7.811   2.889   2.523
  700TIP3    H2 2042   7.749   2.874   2.386
  701TIP3   OH2 2043   2.062   3.869   4.225
  701TIP3    H1 2044   2.151   3.851   4.194
  701TIP3    H2 2045   2.046   3.802   4.292
  702TIP3   OH2 2046   7.427   3.625   2.229
  702TIP3    H1 2047   7.383   3.707   2.250
  702TIP3    H2 2048   7.476   3.603   2.309
  703TIP3   OH2 2049   0.319   6.360   4.489
  703TIP3    H1 2050   0.333   6.336   4.580
  703TIP3    H2 2051   0.274   6.285   4.450
  704TIP3   OH2 2052   7.346   3.601   5.294
  704TIP3    H1 2053   7.287   3.632   5.363
  704TIP3    H2 2054   7.432   3.598   5.335
  705TIP3   OH2 2055   6.869   3.570   3.970
  705TIP3    H1 2056   6.839   3.571   4.061
  705TIP3    H2 2057   6.899   3.480   3.956
  706TIP3   OH2 2058   8.374   1.067   5.395
  706TIP3    H1 2059   8.349   1.008   5.466
  706TIP3    H2 2060   8.451   1.026   5.355
  707TIP3   OH2 2061   0.310   2.402   2.981
  707TIP3    H1 2062   0.241   2.392   3.046
  707TIP3    H2 2063   0.266   2.390   2.897
  708TIP3   OH2 2064   5.582   5.071   0.546
  708TIP3    H1 2065   5.555   5.155   0.582
  708TIP3    H2 2066   5.553   5.006   0.611
  709TIP3   OH2 2067   1.341   4.546   6.528
  709TIP3    H1 2068   1.283   4.476   6.499
  709TIP3    H2 2069   1.407   4.553   6.459
  710TIP3   OH2 2070   0.179   3.282   6.123
  710TIP3    H1 2071   0.110   3.236   6.171
  710TIP3    H2 2072   0.138   3.364   6.094
  711TIP3   OH2 2073   0.310   7.075   6.518
  711TIP3    H1 2074   0.254   7.114   6.450
  711TIP3    H2 2075   0.260   6.999   6.548
  712TIP3   OH2 2076   4.639   4.105   4.664
  712TIP3    H1 2077   4.607   4.194   4.681
  712TIP3    H2 2078   4.671   4.075   4.749
  713TIP3   OH2 2079   5.848   3.565   0.062
  713TIP3    H1 2080   5.793   3.539  -0.012
  713TIP3    H2 2081   5.935   3.573   0.024
  714TIP3   OH2 2082   0.958   2.760   4.947
  714TIP3    H1 2083   1.049   2.743   4.973
  714TIP3    H2 2084   0.948   2.855   4.957
  715TIP3   OH2 2085   3.019   2.888   4.942
  715TIP3    H1 2086   2.969   2.809   4.922
  715TIP3    H2 2087   2.995   2.911   5.032
  716TIP3   OH2 2088   0.155   2.691   5.391
  716TIP3    H1 2089   0.182   2.610   5.348
  716TIP3    H2 2090   0.059   2.689   5.387
  717TIP3   OH2 2091   6.602   5.066   4.131
  717TIP3    H1 2092   6.559   5.032   4.210
  717TIP3    H2 2093   6.538   5.127   4.093
  718TIP3   OH2 2094   0.801   0.945   0.130
  718TIP3    H1 2095   0.886   0.957   0.172
  718TIP3    H2 2096   0.783   0.852   0.138
  719TIP3   OH2 2097   7.073   4.745   4.131
  719TIP3    H1 2098   7.066   4.813   4.198
  719TIP3    H2 2099   7.086   4.794   4.049
  720TIP3   OH2 2100   3.228   1.300   3.304
  720TIP3    H1 2101   3.216   1.296   3.209
  720TIP3    H2 2102   3.148   1.342   3.336
  721TIP3   OH2 2103   5.221   4.400   0.688
  721TIP3    H1 2104   5.146   4.441   0.731
  721TIP3    H2 2105   5.198   4.307   0.684
  722TIP3   OH2 2106   5.342   2.702   1.436
  722TIP3    H1 2107   5.310   2.690   1.525
  722TIP3    H2 2108   5.265   2.723   1.384
  723TIP3   OH2 2109   0.186   1.523   6.495
  723TIP3    H1 2110   0.218   1.565   6.415
  723TIP3    H2 2111   0.184   1.430   6.473
  724TIP3   OH2 2112   7.440   1.250   1.846
  724TIP3    H1 2113   7.531   1.230   1.866
  724TIP3    H2 2114   7.396   1.165   1.846
  725TIP3   OH2 2115   8.295   1.947   6.460
  725TIP3    H1 2116   8.348   2.021   6.430
  725TIP3    H2 2117   8.219   1.946   6.402
  726TIP3   OH2 2118   1.201   0.467   0.104
  726TIP3    H1 2119   1.131   0.418   0.063
  726TIP3    H2 2120   1.238   0.520   0.034
  727TIP3   OH2 2121   3.403   0.163   5.576
  727TIP3    H1 2122   3.358   0.106   5.513
  727TIP3    H2 2123   3.353   0.244   5.574
  728TIP3   OH2 2124   3.930  -0.017   3.043
  728TIP3    H1 2125   3.850   0.035   3.034
  728TIP3    H2 2126   3.996   0.045   3.074
  729TIP3   OH2 2127   0.780   3.560   1.201
  729TIP3    H1 2128   0.768   3.488   1.263
  729TIP3    H2 2129   0.870   3.551   1.171
  730TIP3   OH2 2130   2.565   5.909   3.329
  730TIP3    H1 2131   2.523   5.870   3.407
  730TIP3    H2 2132   2.496   5.961   3.288
  731TIP3   OH2 2133   8.282   5.145   2.357
  731TIP3    H1 2134   8.301   5.199   2.280
  731TIP3    H2 2135   8.202   5.182   2.394
  732TIP3   OH2 2136   0.575   3.704   0.621
  732TIP3    H1 2137   0.591   3.797   0.638
  732TIP3    H2 2138   0.517   3.677   0.693
  733TIP3   OH2 2139   7.515   0.536   1.563
  733TIP3    H1 2140   7.478   0.480   1.631
  733TIP3    H2 2141   7.609   0.532   1.577
  734TIP3   OH2 2142   3.554   6.861   3.066
  734TIP3    H1 2143   3.579   6.849   2.974
  734TIP3    H2 2144   3.565   6.775   3.105
  735TIP3   OH2 2145   3.025   5.141   0.447
  735TIP3    H1 2146   3.088   5.148   0.375
  735TIP3    H2 2147   2.941   5.128   0.405
  736TIP3   OH2 2148   6.946   5.129   3.130
  736TIP3    H1 2149   6.989   5.060   3.080
  736TIP3    H2 2150   6.974   5.211   3.088
  737TIP3   OH2 2151   5.322   3.185   3.872
  737TIP3    H1 2152   5.234   3.180   3.907
  737TIP3    H2 2153   5.379   3.184   3.949
  738TIP3   OH2 2154   1.114   7.362   2.596
  738TIP3    H1 2155   1.209   7.352   2.609
  738TIP3    H2 2156   1.093   7.442   2.645
  739TIP3   OH2 2157   7.118   1.767   5.955
  739TIP3    H1 2158   7.189   1.803   6.009
  739TIP3    H2 2159   7.116   1.674   5.979
  740TIP3   OH2 2160   3.739   5.419   0.194
  740TIP3    H1 2161   3.676   5.365   0.147
  740TIP3    H2 2162   3.814   5.361   0.209
  741TIP3   OH2 2163   6.438   2.018   6.088
  741TIP3    H1 2164   6.521   1.982   6.118
  741TIP3    H2 2165   6.372   1.958   6.122
  742TIP3   OH2 2166   0.050   6.500   5.981
  742TIP3    H1 2167   0.107   6.519   6.055
  742TIP3    H2 2168   0.109   6.481   5.908
  743TIP3   OH2 2169   5.205   2.891   6.772
  743TIP3    H1 2170   5.205   2.801   6.739
  743TIP3    H2 2171   5.177   2.943   6.697
  744TIP3   OH2 2172   6.339   0.987   0.659
  744TIP3    H1 2173   6.419   0.935   0.646
  744TIP3    H2 2174   6.294   0.983   0.574
  745TIP3   OH2 2175   4.666   1.590   0.173
  745TIP3    H1 2176   4.589   1.541   0.202
  745TIP3    H2 2177   4.636   1.635   0.094
  746TIP3   OH2 2178   7.382   4.009   3.434
  746TIP3    H1 2179   7.333   4.083   3.399
  746TIP3    H2 2180   7.466   4.012   3.388
  747TIP3   OH2 2181   3.835   3.957   3.125
  747TIP3    H1 2182   3.832   3.874   3.174
  747TIP3    H2 2183   3.880   4.018   3.183
  748TIP3   OH2 2184   8.246   0.270   2.661
  748TIP3    H1 2185   8.188   0.300   2.591
  748TIP3    H2 2186   8.322   0.329   2.656
  749TIP3   OH2 2187   3.335   2.057   2.427
  749TIP3    H1 2188   3.275   2.131   2.422
  749TIP3    H2 2189   3.316   2.005   2.349
  750TIP3   OH2 2190   1.243   7.162   6.770
  750TIP3    H1 2191   1.209   7.103   6.703
  750TIP3    H2 2192   1.247   7.109   6.850
  751TIP3   OH2 2193   7.655   0.601   2.338
  751TIP3    H1 2194   7.598   0.664   2.382
  751TIP3    H2 2195   7.659   0.526   2.396
  752TIP3   OH2 2196   4.223   3.013   2.171
  752TIP3    H1 2197   4.141   2.989   2.128
  752TIP3    H2 2198   4.286   2.947   2.142
  753TIP3   OH2 2199   6.579   2.559   3.717
  753TIP3    H1 2200   6.598   2.579   3.626
  753TIP3    H2 2201   6.512   2.491   3.713
  754TIP3   OH2 2202   6.141   0.754   6.353
  754TIP3    H1 2203   6.100   0.837   6.373
  754TIP3    H2 2204   6.155   0.756   6.258
  755TIP3   OH2 2205   7.040   2.311   4.194
  755TIP3    H1 2206   6.984   2.248   4.239
  755TIP3    H2 2207   6.999   2.396   4.210
  756TIP3   OH2 2208   1.504   0.994   2.979
  756TIP3    H1 2209   1.589   0.964   2.947
  756TIP3    H2 2210   1.521   1.082   3.013
  757TIP3   OH2 2211   4.887   5.681   4.662
  757TIP3    H1 2212   4.830   5.718   4.731
  757TIP3    H2 2213   4.915   5.597   4.697
  758TIP3   OH2 2214   0.147   2.286   3.253
  758TIP3    H1 2215   0.129   2.372   3.215
  758TIP3    H2 2216   0.155   2.302   3.347
  759TIP3   OH2 2217   2.069   2.002   2.601
  759TIP3    H1 2218   2.111   1.987   2.686
  759TIP3    H2 2219   2.142   2.021   2.542
  760TIP3   OH2 2220   5.560   5.886   3.334
  760TIP3    H1 2221   5.543   5.938   3.255
  760TIP3    H2 2222   5.647   5.849   3.320
  761TIP3   OH2 2223   3.856   3.130   1.659
  761TIP3    H1 2224   3.868   3.038   1.634
  761TIP3    H2 2225   3.761   3.140   1.665
  762TIP3   OH2 2226   2.446   4.198   5.200
  762TIP3    H1 2227   2.422   4.196   5.292
  762TIP3    H2 2228   2.365   4.178   5.153
  763TIP3   OH2 2229   2.401   5.743   0.773
  763TIP3    H1 2230   2.351   5.672   0.733
  763TIP3    H2 2231   2.366   5.822   0.731
  764TIP3   OH2 2232   2.440   0.080   5.322
  764TIP3    H1 2233   2.425   0.076   5.416
  764TIP3    H2 2234   2.475  -0.006   5.300
  765TIP3   OH2 2235   1.347   6.217   5.252
  765TIP3    H1 2236   1.305   6.203   5.337
  765TIP3    H2 2237   1.425   6.269   5.272
  766TIP3   OH2 2238   4.777   6.642   1.197
  766TIP3    H1 2239   4.789   6.613   1.287
  766TIP3    H2 2240   4.692   6.605   1.170
  767TIP3   OH2 2241   1.643   3.328   2.348
  767TIP3    H1 2242   1.574   3.345   2.413
  767TIP3    H2 2243   1.715   3.291   2.399
  768TIP3   OH2 2244   4.361   1.234   3.984
  768TIP3    H1 2245   4.347   1.244   4.078
  768TIP3    H2 2246   4.355   1.140   3.969
  769TIP3   OH2 2247   1.787   0.657   5.266
  769TIP3    H1 2248   1.721   0.703   5.215
  769TIP3    H2 2249   1.749   0.646   5.353
  770TIP3   OH2 2250   5.515   3.175   4.428
  770TIP3    H1 2251   5.469   3.132   4.500
  770TIP3    H2 2252   5.576   3.109   4.396
  771TIP3   OH2 2253   7.537   0.084   4.507
  771TIP3    H1 2254   7.505  -0.005   4.526
  771TIP3    H2 2255   7.474   0.142   4.549
  772TIP3   OH2 2256   1.470   1.672   3.273
  772TIP3    H1 2257   1.466   1.636   3.362
  772TIP3    H2 2258   1.528   1.748   3.280
  773TIP3   OH2 2259   0.839   7.214   0.935
  773TIP3    H1 2260   0.747   7.237   0.937
  773TIP3    H2 2261   0.862   7.197   1.026
  774TIP3   OH2 2262   4.372   2.714   0.500
  774TIP3    H1 2263   4.322   2.776   0.446
  774TIP3    H2 2264   4.323   2.707   0.581
  775TIP3   OH2 2265   1.439   7.101   2.032
  775TIP3    H1 2266   1.348   7.084   2.056
  775TIP3    H2 2267   1.486   7.106   2.116
  776TIP3   OH2 2268   4.083   2.041   6.739
  776TIP3    H1 2269   4.093   1.946   6.741
  776TIP3    H2 2270   4.004   2.058   6.791
  777TIP3   OH2 2271   4.677   4.071   6.394
  777TIP3    H1 2272   4.617   4.091   6.322
  777TIP3    H2 2273   4.665   3.978   6.411
  778TIP3   OH2 2274   2.451   5.986   0.170
  778TIP3    H1 2275   2.362   6.010   0.145
  778TIP3    H2 2276   2.498   6.070   0.175
  779TIP3   OH2 2277   0.197   3.056   1.399
  779TIP3    H1 2278   0.284   3.091   1.379
  779TIP3    H2 2279   0.138   3.104   1.341
  780TIP3   OH2 2280   4.993   4.038   1.546
  780TIP3    H1 2281   5.011   4.105   1.612
  780TIP3    H2 2282   5.068   3.979   1.550
  781TIP3   OH2 2283   8.178   0.201   5.419
  781TIP3    H1 2284   8.135   0.269   5.366
  781TIP3    H2 2285   8.109   0.169   5.477
  782TIP3   OH2 2286   0.312   2.078   3.122
  782TIP3    H1 2287   0.287   2.106   3.034
  782TIP3    H2 2288   0.265   2.137   3.181
  783TIP3   OH2 2289   4.395   6.364   0.240
  783TIP3    H1 2290   4.462   6.348   0.307
  783TIP3    H2 2291   4.371   6.456   0.251
  784TIP3   OH2 2292   7.220   5.093   3.013
  784TIP3    H1 2293   7.232   5.002   2.985
  784TIP3    H2 2294   7.277   5.102   3.089
  785TIP3   OH2 2295   0.083   4.918   6.443
  785TIP3    H1 2296  -0.012   4.923   6.431
  785TIP3    H2 2297   0.096   4.839   6.495
  786TIP3   OH2 2298   4.233   6.757   1.782
  786TIP3    H1 2299   4.217   6.682   1.839
  786TIP3    H2 2300   4.209   6.727   1.695
  787TIP3   OH2 2301   2.913   2.154   2.641
  787TIP3    H1 2302   2.963   2.218   2.693
  787TIP3    H2 2303   2.872   2.206   2.572
  788TIP3   OH2 2304   7.335   6.629   5.310
  788TIP3    H1 2305   7.352   6.714   5.349
  788TIP3    H2 2306   7.422   6.592   5.294
  789TIP3   OH2 2307   1.690   1.707   4.227
  789TIP3    H1 2308   1.751   1.728   4.298
  789TIP3    H2 2309   1.741   1.655   4.166
  790TIP3   OH2 2310   2.909   5.225   4.969
  790TIP3    H1 2311   2.974   5.292   4.992
  790TIP3    H2 2312   2.956   5.142   4.979
  791TIP3   OH2 2313   5.585   6.683   1.303
  791TIP3    H1 2314   5.615   6.623   1.235
  791TIP3    H2 2315   5.532   6.748   1.256
  792TIP3   OH2 2316   6.025   4.712   2.591
  792TIP3    H1 2317   6.020   4.618   2.577
  792TIP3    H2 2318   5.963   4.748   2.527
  793TIP3   OH2 2319   3.557   4.451   3.960
  793TIP3    H1 2320   3.652   4.439   3.959
  793TIP3    H2 2321   3.544   4.536   4.002
  794TIP3   OH2 2322   1.420   5.306   3.368
  794TIP3    H1 2323   1.493   5.368   3.370
  794TIP3    H2 2324   1.460   5.221   3.353
  795TIP3   OH2 2325   6.000   4.617   2.168
  795TIP3    H1 2326   6.070   4.683   2.177
  795TIP3    H2 2327   5.937   4.641   2.236
  796TIP3   OH2 2328   7.846   1.958   3.380
  796TIP3    H1 2329   7.940   1.949   3.395
  796TIP3    H2 2330   7.808   1.879   3.417
  797TIP3   OH2 2331   5.658   1.543   0.473
  797TIP3    H1 2332   5.638   1.465   0.525
  797TIP3    H2 2333   5.621   1.616   0.523
  798TIP3   OH2 2334   0.132   4.769   4.880
  798TIP3    H1 2335   0.105   4.739   4.793
  798TIP3    H2 2336   0.053   4.809   4.917
  799TIP3   OH2 2337   4.448   6.347   5.953
  799TIP3    H1 2338   4.507   6.422   5.938
  799TIP3    H2 2339   4.469   6.317   6.041
  800TIP3   OH2 2340   2.363   2.604   5.802
  800TIP3    H1 2341   2.423   2.530   5.794
  800TIP3    H2 2342   2.309   2.600   5.724
  801TIP3   OH2 2343   3.311   2.669   6.154
  801TIP3    H1 2344   3.241   2.679   6.089
  801TIP3    H2 2345   3.319   2.756   6.194
  802TIP3   OH2 2346   4.437   5.659   4.944
  802TIP3    H1 2347   4.344   5.662   4.966
  802TIP3    H2 2348   4.482   5.652   5.028
  803TIP3   OH2 2349   5.063   0.033   0.887
  803TIP3    H1 2350   5.157   0.027   0.872
  803TIP3    H2 2351   5.023  -0.002   0.808
  804TIP3   OH2 2352   7.183   1.646   0.493
  804TIP3    H1 2353   7.133   1.572   0.529
  804TIP3    H2 2354   7.116   1.710   0.468
  805TIP3   OH2 2355   3.480   6.708   1.537
  805TIP3    H1 2356   3.438   6.708   1.623
  805TIP3    H2 2357   3.477   6.799   1.509
  806TIP3   OH2 2358   6.405   6.626   0.944
  806TIP3    H1 2359   6.404   6.552   0.883
  806TIP3    H2 2360   6.498   6.647   0.954
  807TIP3   OH2 2361   2.964   0.238   2.137
  807TIP3    H1 2362   2.972   0.215   2.229
  807TIP3    H2 2363   2.870   0.231   2.118
  808TIP3   OH2 2364   6.589   2.888   6.491
  808TIP3    H1 2365   6.530   2.909   6.419
  808TIP3    H2 2366   6.676   2.883   6.451
  809TIP3   OH2 2367   5.102   5.156   2.171
  809TIP3    H1 2368   5.019   5.196   2.196
  809TIP3    H2 2369   5.167   5.200   2.225
  810TIP3   OH2 2370   7.456   5.301   5.697
  810TIP3    H1 2371   7.470   5.250   5.777
  810TIP3    H2 2372   7.492   5.247   5.627
  811TIP3   OH2 2373   6.250   1.223   6.230
  811TIP3    H1 2374   6.302   1.300   6.253
  811TIP3    H2 2375   6.229   1.235   6.138
  812TIP3   OH2 2376   3.511   3.688   5.131
  812TIP3    H1 2377   3.484   3.687   5.223
  812TIP3    H2 2378   3.589   3.744   5.130
  813TIP3   OH2 2379   2.427   1.246   3.534
  813TIP3    H1 2380   2.429   1.189   3.611
  813TIP3    H2 2381   2.338   1.281   3.533
  814TIP3   OH2 2382   5.634   4.992   4.651
  814TIP3    H1 2383   5.597   5.080   4.652
  814TIP3    H2 2384   5.706   4.996   4.588
  815TIP3   OH2 2385   3.521   6.968   6.882
  815TIP3    H1 2386   3.525   6.877   6.853
  815TIP3    H2 2387   3.583   7.014   6.825
  816TIP3   OH2 2388   7.567   5.262   3.119
  816TIP3    H1 2389   7.554   5.168   3.135
  816TIP3    H2 2390   7.479   5.299   3.123
  817TIP3   OH2 2391   3.215   2.495   2.184
  817TIP3    H1 2392   3.156   2.566   2.160
  817TIP3    H2 2393   3.300   2.522   2.148
  818TIP3   OH2 2394   5.558   4.639   2.290
  818TIP3    H1 2395   5.516   4.708   2.342
  818TIP3    H2 2396   5.562   4.563   2.349
  819TIP3   OH2 2397   4.280   0.717   5.144
  819TIP3    H1 2398   4.314   0.676   5.064
  819TIP3    H2 2399   4.205   0.663   5.168
  820TIP3   OH2 2400   4.144   1.317   1.980
  820TIP3    H1 2401   4.195   1.363   1.913
  820TIP3    H2 2402   4.102   1.388   2.030
  821TIP3   OH2 2403   8.081   4.464   6.333
  821TIP3    H1 2404   8.062   4.532   6.269
  821TIP3    H2 2405   7.995   4.430   6.358
  822TIP3   OH2 2406   2.479   2.914   6.718
  822TIP3    H1 2407   2.419   2.985   6.694
  822TIP3    H2 2408   2.523   2.891   6.636
  823TIP3   OH2 2409   6.980   1.311   1.285
  823TIP3    H1 2410   6.936   1.269   1.212
  823TIP3    H2 2411   7.072   1.315   1.259
  824TIP3   OH2 2412   4.180   5.659   4.541
  824TIP3    H1 2413   4.206   5.702   4.459
  824TIP3    H2 2414   4.164   5.568   4.515
  825TIP3   OH2 2415   1.248   7.309   3.826
  825TIP3    H1 2416   1.184   7.239   3.839
  825TIP3    H2 2417   1.206   7.368   3.763
  826TIP3   OH2 2418   6.195   6.808   4.863
  826TIP3    H1 2419   6.234   6.788   4.777
  826TIP3    H2 2420   6.197   6.724   4.909
  827TIP3   OH2 2421   0.473   2.482   4.464
  827TIP3    H1 2422   0.452   2.562   4.417
  827TIP3    H2 2423   0.545   2.443   4.414
  828TIP3   OH2 2424   7.082   6.736   5.624
  828TIP3    H1 2425   7.168   6.766   5.655
  828TIP3    H2 2426   7.101   6.690   5.542
  829TIP3   OH2 2427   5.231   2.914   0.831
  829TIP3    H1 2428   5.260   2.904   0.740
  829TIP3    H2 2429   5.226   2.825   0.865
  830TIP3   OH2 2430   0.503   0.864   4.098
  830TIP3    H1 2431   0.504   0.950   4.139
  830TIP3    H2 2432   0.581   0.863   4.043
  831TIP3   OH2 2433   4.497   7.636   2.846
  831TIP3    H1 2434   4.589   7.662   2.832
  831TIP3    H2 2435   4.465   7.615   2.758
  832TIP3   OH2 2436   4.608   5.208   4.081
  832TIP3    H1 2437   4.570   5.259   4.153
  832TIP3    H2 2438   4.571   5.247   4.002
  833TIP3   OH2 2439   8.206   0.257   0.188
  833TIP3    H1 2440   8.208   0.340   0.141
  833TIP3    H2 2441   8.226   0.190   0.122
  834TIP3   OH2 2442   7.833   7.072   2.006
  834TIP3    H1 2443   7.804   6.989   2.042
  834TIP3    H2 2444   7.821   7.063   1.912
  835TIP3   OH2 2445   2.430   4.560   4.668
  835TIP3    H1 2446   2.520   4.534   4.649
  835TIP3    H2 2447   2.382   4.544   4.586
  836TIP3   OH2 2448   6.867   5.248   1.248
  836TIP3    H1 2449   6.792   5.244   1.189
  836TIP3    H2 2450   6.829   5.237   1.335
  837TIP3   OH2 2451   7.496   5.998   0.133
  837TIP3    H1 2452   7.474   6.090   0.116
  837TIP3    H2 2453   7.421   5.963   0.180
  838TIP3   OH2 2454   6.487   5.656   6.060
  838TIP3    H1 2455   6.567   5.705   6.042
  838TIP3    H2 2456   6.503   5.569   6.024
  839TIP3   OH2 2457   6.990   1.222   1.929
  839TIP3    H1 2458   6.986   1.167   1.851
  839TIP3    H2 2459   6.932   1.296   1.909
  840TIP3   OH2 2460   7.983   6.216   6.398
  840TIP3    H1 2461   8.017   6.178   6.317
  840TIP3    H2 2462   8.040   6.291   6.416
  841TIP3   OH2 2463   6.561   2.157   2.932
  841TIP3    H1 2464   6.587   2.177   2.842
  841TIP3    H2 2465   6.481   2.209   2.945
  842TIP3   OH2 2466   4.199   4.740   3.621
  842TIP3    H1 2467   4.128   4.794   3.586
  842TIP3    H2 2468   4.194   4.754   3.716
  843TIP3   OH2 2469   2.513   4.575   1.400
  843TIP3    H1 2470   2.531   4.575   1.494
  843TIP3    H2 2471   2.592   4.539   1.361
  844TIP3   OH2 2472   5.594   3.024   0.025
  844TIP3    H1 2473   5.591   2.967   0.102
  844TIP3    H2 2474   5.523   2.991  -0.031
  845TIP3   OH2 2475   5.931   4.891   1.509
  845TIP3    H1 2476   5.870   4.828   1.548
  845TIP3    H2 2477   5.956   4.948   1.581
  846TIP3   OH2 2478   6.542   4.035   0.672
  846TIP3    H1 2479   6.558   3.994   0.757
  846TIP3    H2 2480   6.627   4.069   0.645
  847TIP3   OH2 2481   5.140   1.950   4.382
  847TIP3    H1 2482   5.114   1.911   4.466
  847TIP3    H2 2483   5.069   1.929   4.322
  848TIP3   OH2 2484   3.090   0.543   5.397
  848TIP3    H1 2485   3.051   0.628   5.421
  848TIP3    H2 2486   3.026   0.503   5.339
  849TIP3   OH2 2487   5.240   2.007   6.601
  849TIP3    H1 2488   5.230   2.027   6.694
  849TIP3    H2 2489   5.238   2.092   6.558
  850TIP3   OH2 2490   0.321   5.902   0.958
  850TIP3    H1 2491   0.399   5.925   0.908
  850TIP3    H2 2492   0.248   5.937   0.906
  851TIP3   OH2 2493   1.634   5.693   5.375
  851TIP3    H1 2494   1.622   5.617   5.431
  851TIP3    H2 2495   1.665   5.761   5.435
  852TIP3   OH2 2496   6.249   6.332   4.147
  852TIP3    H1 2497   6.172   6.299   4.193
  852TIP3    H2 2498   6.321   6.276   4.176
  853TIP3   OH2 2499   2.283   6.430   0.517
  853TIP3    H1 2500   2.360   6.472   0.555
  853TIP3    H2 2501   2.309   6.338   0.506
  854TIP3   OH2 2502   0.601   7.816   5.196
  854TIP3    H1 2503   0.694   7.797   5.189
  854TIP3    H2 2504   0.589   7.894   5.142
  855TIP3   OH2 2505   6.636   2.592   3.452
  855TIP3    H1 2506   6.711   2.540   3.424
  855TIP3    H2 2507   6.600   2.627   3.371
  856TIP3   OH2 2508   7.500   5.579   5.640
  856TIP3    H1 2509   7.442   5.623   5.702
  856TIP3    H2 2510   7.487   5.486   5.658
  857TIP3   OH2 2511   7.835   0.127   6.522
  857TIP3    H1 2512   7.926   0.112   6.546
  857TIP3    H2 2513   7.793   0.042   6.535
  858TIP3   OH2 2514   7.313   1.872   2.943
  858TIP3    H1 2515   7.235   1.921   2.918
  858TIP3    H2 2516   7.366   1.934   2.993
  859TIP3   OH2 2517   2.861   0.500   1.838
  859TIP3    H1 2518   2.797   0.571   1.840
  859TIP3    H2 2519   2.896   0.496   1.927
  860TIP3   OH2 2520   5.798   2.263   1.791
  860TIP3    H1 2521   5.756   2.317   1.858
  860TIP3    H2 2522   5.741   2.270   1.715
  861TIP3   OH2 2523   0.731   2.622   4.861
  861TIP3    H1 2524   0.706   2.659   4.776
  861TIP3    H2 2525   0.826   2.635   4.865
  862TIP3   OH2 2526   1.104   6.781   5.297
  862TIP3    H1 2527   1.051   6.824   5.230
  862TIP3    H2 2528   1.110   6.846   5.367
  863TIP3   OH2 2529   4.895   6.252   6.622
  863TIP3    H1 2530   4.899   6.347   6.608
  863TIP3    H2 2531   4.901   6.215   6.535
  864TIP3   OH2 2532   8.252   0.871   4.746
  864TIP3    H1 2533   8.183   0.835   4.689
  864TIP3    H2 2534   8.318   0.801   4.750
  865TIP3   OH2 2535   0.940   7.191   3.690
  865TIP3    H1 2536   0.953   7.158   3.601
  865TIP3    H2 2537   0.957   7.115   3.746
  866TIP3   OH2 2538   0.559   0.362   6.357
  866TIP3    H1 2539   0.495   0.356   6.287
  866TIP3    H2 2540   0.583   0.271   6.376
  867TIP3   OH2 2541   4.116   2.486   1.862
  867TIP3    H1 2542   4.174   2.483   1.785
  867TIP3    H2 2543   4.061   2.563   1.847
  868TIP3   OH2 2544   2.933   3.638   4.129
  868TIP3    H1 2545   2.887   3.563   4.167
  868TIP3    H2 2546   2.891   3.714   4.169
  869TIP3   OH2 2547   8.307   6.256   0.015
  869TIP3    H1 2548   8.400   6.235   0.023
  869TIP3    H2 2549   8.265   6.171   0.002
  870TIP3   OH2 2550   5.859   3.596   0.453
  870TIP3    H1 2551   5.883   3.598   0.546
  870TIP3    H2 2552   5.934   3.637   0.409
  871TIP3   OH2 2553   4.538   6.150   3.392
  871TIP3    H1 2554   4.512   6.239   3.368
  871TIP3    H2 2555   4.580   6.159   3.478
  872TIP3   OH2 2556   5.027   2.499   2.778
  872TIP3    H1 2557   5.020   2.421   2.724
  872TIP3    H2 2558   4.999   2.571   2.722
  873TIP3   OH2 2559   6.871   5.643   0.666
  873TIP3    H1 2560   6.795   5.664   0.720
  873TIP3    H2 2561   6.916   5.727   0.653
  874TIP3   OH2 2562   1.650   6.777   2.147
  874TIP3    H1 2563   1.696   6.694   2.159
  874TIP3    H2 2564   1.581   6.757   2.084
  875TIP3   OH2 2565   0.862   7.674   1.304
  875TIP3    H1 2566   0.796   7.741   1.287
  875TIP3    H2 2567   0.912   7.667   1.222
  876TIP3   OH2 2568   6.379   0.489   2.776
  876TIP3    H1 2569   6.283   0.497   2.775
  876TIP3    H2 2570   6.406   0.535   2.855
  877TIP3   OH2 2571   3.005   5.677   4.851
  877TIP3    H1 2572   2.986   5.593   4.893
  877TIP3    H2 2573   2.931   5.733   4.872
  878TIP3   OH2 2574   5.328   0.853   0.611
  878TIP3    H1 2575   5.287   0.766   0.621
  878TIP3    H2 2576   5.272   0.898   0.548
  879TIP3   OH2 2577   1.565   7.365   1.591
  879TIP3    H1 2578   1.481   7.392   1.555
  879TIP3    H2 2579   1.543   7.326   1.675
  880TIP3   OH2 2580   0.408   1.062   0.059
  880TIP3    H1 2581   0.430   1.020  -0.025
  880TIP3    H2 2582   0.389   1.153   0.037
  881TIP3   OH2 2583   1.093   5.005   5.122
  881TIP3    H1 2584   1.103   4.989   5.028
  881TIP3    H2 2585   1.122   5.096   5.134
  882TIP3   OH2 2586   7.504   7.349   1.116
  882TIP3    H1 2587   7.472   7.352   1.206
  882TIP3    H2 2588   7.426   7.329   1.063
  883TIP3   OH2 2589   8.275   7.388   1.469
  883TIP3    H1 2590   8.213   7.400   1.540
  883TIP3    H2 2591   8.253   7.302   1.433
  884TIP3   OH2 2592   2.621   3.215   2.988
  884TIP3    H1 2593   2.632   3.198   3.081
  884TIP3    H2 2594   2.527   3.221   2.974
  885TIP3   OH2 2595   7.070   4.697   2.737
  885TIP3    H1 2596   7.006   4.650   2.791
  885TIP3    H2 2597   7.040   4.788   2.739
  886TIP3   OH2 2598   5.285   2.243   1.784
  886TIP3    H1 2599   5.194   2.216   1.799
  886TIP3    H2 2600   5.283   2.289   1.700
  887TIP3   OH2 2601   2.333   0.772   6.680
  887TIP3    H1 2602   2.325   0.867   6.683
  887TIP3    H2 2603   2.427   0.756   6.665
  888TIP3   OH2 2604   2.276   4.796   4.844
  888TIP3    H1 2605   2.202   4.743   4.874
  888TIP3    H2 2606   2.346   4.733   4.826
  889TIP3   OH2 2607   4.747   1.231   0.072
  889TIP3    H1 2608   4.739   1.139   0.098
  889TIP3    H2 2609   4.657   1.264   0.071
  890TIP3   OH2 2610   2.552   5.801   6.552
  890TIP3    H1 2611   2.515   5.873   6.603
  890TIP3    H2 2612   2.485   5.732   6.557
  891TIP3   OH2 2613   1.051   2.693   1.716
  891TIP3    H1 2614   1.071   2.727   1.803
  891TIP3    H2 2615   0.957   2.675   1.718
  892TIP3   OH2 2616   1.571   6.076   2.341
  892TIP3    H1 2617   1.552   6.142   2.408
  892TIP3    H2 2618   1.610   6.126   2.269
  893TIP3   OH2 2619   0.722   6.983   2.244
  893TIP3    H1 2620   0.651   6.940   2.293
  893TIP3    H2 2621   0.694   6.979   2.153
  894TIP3   OH2 2622   7.975   3.186   2.683
  894TIP3    H1 2623   8.052   3.147   2.725
  894TIP3    H2 2624   7.901   3.154   2.734
  895TIP3   OH2 2625   3.617   0.844   0.528
  895TIP3    H1 2626   3.574   0.759   0.534
  895TIP3    H2 2627   3.703   0.831   0.568
  896TIP3   OH2 2628   7.966   6.196   1.251
  896TIP3    H1 2629   8.002   6.266   1.306
  896TIP3    H2 2630   8.012   6.117   1.280
  897TIP3   OH2 2631   7.403   6.135   3.253
  897TIP3    H1 2632   7.429   6.131   3.161
  897TIP3    H2 2633   7.486   6.133   3.301
  898TIP3   OH2 2634   7.008   1.767   4.291
  898TIP3    H1 2635   6.951   1.746   4.366
  898TIP3    H2 2636   7.027   1.860   4.301
  899TIP3   OH2 2637   1.461   3.505   4.070
  899TIP3    H1 2638   1.450   3.413   4.092
  899TIP3    H2 2639   1.451   3.509   3.975
  900TIP3   OH2 2640   5.467   2.556   1.855
  900TIP3    H1 2641   5.514   2.635   1.829
  900TIP3    H2 2642   5.383   2.561   1.810
  901TIP3   OH2 2643   1.375   7.740   1.921
  901TIP3    H1 2644   1.379   7.720   2.015
  901TIP3    H2 2645   1.440   7.682   1.882
  902TIP3   OH2 2646   4.699   3.591   4.964
  902TIP3    H1 2647   4.649   3.541   4.900
  902TIP3    H2 2648   4.678   3.683   4.943
  903TIP3   OH2 2649   3.739   0.352   2.445
  903TIP3    H1 2650   3.778   0.274   2.406
  903TIP3    H2 2651   3.781   0.425   2.401
  904TIP3   OH2 2652   7.556   3.350   4.154
  904TIP3    H1 2653   7.639   3.399   4.157
  904TIP3    H2 2654   7.490   3.417   4.139
  905TIP3   OH2 2655   7.547   7.012   2.158
  905TIP3    H1 2656   7.593   6.938   2.198
  905TIP3    H2 2657   7.617   7.068   2.124
  906TIP3   OH2 2658   5.562   0.941   6.067
  906TIP3    H1 2659   5.618   1.013   6.038
  906TIP3    H2 2660   5.564   0.878   5.995
  907TIP3   OH2 2661   0.207   7.215   2.756
  907TIP3    H1 2662   0.181   7.307   2.749
  907TIP3    H2 2663   0.140   7.175   2.811
  908TIP3   OH2 2664   2.583   1.392   6.173
  908TIP3    H1 2665   2.535   1.358   6.097
  908TIP3    H2 2666   2.671   1.356   6.165
  909TIP3   OH2 2667   2.668   5.212   1.544
  909TIP3    H1 2668   2.690   5.125   1.575
  909TIP3    H2 2669   2.720   5.225   1.465
  910TIP3   OH2 2670   5.375   3.252   3.608
  910TIP3    H1 2671   5.325   3.228   3.685
  910TIP3    H2 2672   5.329   3.210   3.535
  911TIP3   OH2 2673   3.266   4.697   6.122
  911TIP3    H1 2674   3.247   4.628   6.059
  911TIP3    H2 2675   3.222   4.669   6.203
  912TIP3   OH2 2676   2.038   1.523   1.666
  912TIP3    H1 2677   2.092   1.479   1.731
  912TIP3    H2 2678   2.023   1.611   1.703
  913TIP3   OH2 2679   2.604   2.056   0.916
  913TIP3    H1 2680   2.610   2.046   0.821
  913TIP3    H2 2681   2.643   2.142   0.934
  914TIP3   OH2 2682   8.270   0.839   5.265
  914TIP3    H1 2683   8.252   0.932   5.280
  914TIP3    H2 2684   8.254   0.827   5.172
  915TIP3   OH2 2685   6.167   6.532   6.193
  915TIP3    H1 2686   6.094   6.479   6.161
  915TIP3    H2 2687   6.231   6.531   6.121
  916TIP3   OH2 2688   5.161   4.467   5.771
  916TIP3    H1 2689   5.143   4.444   5.862
  916TIP3    H2 2690   5.115   4.550   5.758
  917TIP3   OH2 2691   1.918   3.786   0.309
  917TIP3    H1 2692   1.981   3.811   0.377
  917TIP3    H2 2693   1.846   3.745   0.358
  918TIP3   OH2 2694   4.679   7.303   2.159
  918TIP3    H1 2695   4.714   7.387   2.128
  918TIP3    H2 2696   4.751   7.263   2.206
  919TIP3   OH2 2697   0.098   4.773   1.122
  919TIP3    H1 2698   0.077   4.784   1.029
  919TIP3    H2 2699   0.024   4.726   1.159
  920TIP3   OH2 2700   8.197   0.399   3.935
  920TIP3    H1 2701   8.136   0.445   3.993
  920TIP3    H2 2702   8.221   0.463   3.869
  921TIP3   OH2 2703   5.003   6.428   2.460
  921TIP3    H1 2704   5.034   6.351   2.413
  921TIP3    H2 2705   5.082   6.483   2.469
  922TIP3   OH2 2706   1.070   1.327   5.369
  922TIP3    H1 2707   1.048   1.296   5.456
  922TIP3    H2 2708   0.994   1.379   5.342
  923TIP3   OH2 2709   5.330   0.999   0.250
  923TIP3    H1 2710   5.377   0.930   0.203
  923TIP3    H2 2711   5.380   1.079   0.231
  924TIP3   OH2 2712   5.355   5.846   1.920
  924TIP3    H1 2713   5.414   5.801   1.859
  924TIP3    H2 2714   5.387   5.936   1.922
  925TIP3   OH2 2715   2.038   7.727   2.753
  925TIP3    H1 2716   1.948   7.703   2.731
  925TIP3    H2 2717   2.082   7.735   2.668
  926TIP3   OH2 2718   0.608   7.633   3.259
  926TIP3    H1 2719   0.691   7.656   3.300
  926TIP3    H2 2720   0.598   7.539   3.273
  927TIP3   OH2 2721   6.444   0.632   1.887
  927TIP3    H1 2722   6.379   0.569   1.917
  927TIP3    H2 2723   6.399   0.716   1.890
  928TIP3   OH2 2724   3.453   2.506   3.688
  928TIP3    H1 2725   3.398   2.445   3.638
  928TIP3    H2 2726   3.392   2.554   3.743
  929TIP3   OH2 2727   1.617   5.419   5.514
  929TIP3    H1 2728   1.580   5.457   5.594
  929TIP3    H2 2729   1.634   5.327   5.538
  930TIP3   OH2 2730   5.224   3.381   4.091
  930TIP3    H1 2731   5.266   3.438   4.028
  930TIP3    H2 2732   5.181   3.440   4.152
  931TIP3   OH2 2733   8.167   6.023   0.801
  931TIP3    H1 2734   8.171   6.059   0.890
  931TIP3    H2 2735   8.190   5.931   0.812
  932TIP3   OH2 2736   3.691   6.981   1.018
  932TIP3    H1 2737   3.604   6.940   1.011
  932TIP3    H2 2738   3.713   6.975   1.110
  933TIP3   OH2 2739   4.377   3.812   5.216
  933TIP3    H1 2740   4.455   3.758   5.228
  933TIP3    H2 2741   4.317   3.783   5.284
  934TIP3   OH2 2742   2.059   3.292   1.910
  934TIP3    H1 2743   2.143   3.308   1.866
  934TIP3    H2 2744   2.021   3.219   1.860
  935TIP3   OH2 2745   1.330   3.755   4.795
  935TIP3    H1 2746   1.323   3.666   4.830
  935TIP3    H2 2747   1.422   3.778   4.807
  936TIP3   OH2 2748   3.472   2.847   5.079
  936TIP3    H1 2749   3.429   2.848   4.993
  936TIP3    H2 2750   3.525   2.767   5.077
  937TIP3   OH2 2751   0.744   3.424   6.063
  937TIP3    H1 2752   0.706   3.343   6.097
  937TIP3    H2 2753   0.798   3.395   5.989
  938TIP3   OH2 2754   7.835   3.360   4.072
  938TIP3    H1 2755   7.789   3.299   4.014
  938TIP3    H2 2756   7.844   3.440   4.019
  939TIP3   OH2 2757   0.823   5.671   2.518
  939TIP3    H1 2758   0.795   5.597   2.571
  939TIP3    H2 2759   0.843   5.740   2.581
  940TIP3   OH2 2760   6.167   1.867   6.574
  940TIP3    H1 2761   6.075   1.877   6.550
  940TIP3    H2 2762   6.175   1.775   6.600
  941TIP3   OH2 2763   6.509   0.265   3.402
  941TIP3    H1 2764   6.454   0.245   3.327
  941TIP3    H2 2765   6.498   0.190   3.460
  942TIP3   OH2 2766   3.565   0.226   4.543
  942TIP3    H1 2767   3.592   0.173   4.468
  942TIP3    H2 2768   3.637   0.219   4.605
  943TIP3   OH2 2769   1.024   4.859   4.598
  943TIP3    H1 2770   1.029   4.912   4.519
  943TIP3    H2 2771   1.038   4.769   4.568
  944TIP3   OH2 2772   4.954   6.653   3.206
  944TIP3    H1 2773   4.876   6.656   3.262
  944TIP3    H2 2774   5.014   6.593   3.252
  945TIP3   OH2 2775   0.602   1.271   0.524
  945TIP3    H1 2776   0.634   1.223   0.447
  945TIP3    H2 2777   0.672   1.333   0.545
  946TIP3   OH2 2778   5.960   3.227   0.532
  946TIP3    H1 2779   5.869   3.203   0.517
  946TIP3    H2 2780   6.006   3.144   0.538
  947TIP3   OH2 2781   0.577   7.782   1.109
  947TIP3    H1 2782   0.495   7.733   1.121
  947TIP3    H2 2783   0.557   7.870   1.138
  948TIP3   OH2 2784   7.402   7.443   0.215
  948TIP3    H1 2785   7.477   7.389   0.241
  948TIP3    H2 2786   7.326   7.395   0.246
  949TIP3   OH2 2787   7.010   2.415   4.762
  949TIP3    H1 2788   7.097   2.415   4.802
  949TIP3    H2 2789   6.993   2.323   4.740
  950TIP3   OH2 2790   4.567   7.675   2.436
  950TIP3    H1 2791   4.504   7.627   2.491
  950TIP3    H2 2792   4.618   7.727   2.498
  951TIP3   OH2 2793   4.134   5.939   4.901
  951TIP3    H1 2794   4.185   6.016   4.877
  951TIP3    H2 2795   4.056   5.974   4.944
  952TIP3   OH2 2796   6.311   6.142   3.639
  952TIP3    H1 2797   6.406   6.146   3.654
  952TIP3    H2 2798   6.274   6.204   3.702
  953TIP3   OH2 2799   7.728   1.553   1.215
  953TIP3    H1 2800   7.750   1.495   1.288
  953TIP3    H2 2801   7.712   1.494   1.142
  954TIP3   OH2 2802   5.804   4.109   5.321
  954TIP3    H1 2803   5.871   4.166   5.359
  954TIP3    H2 2804   5.762   4.068   5.396
  955TIP3   OH2 2805   6.148   5.140   0.740
  955TIP3    H1 2806   6.194   5.148   0.657
  955TIP3    H2 2807   6.210   5.094   0.797
  956TIP3   OH2 2808   4.571   7.014   5.228
  956TIP3    H1 2809   4.568   7.008   5.323
  956TIP3    H2 2810   4.571   6.923   5.198
  957TIP3   OH2 2811   7.417   1.552   5.362
  957TIP3    H1 2812   7.372   1.633   5.386
  957TIP3    H2 2813   7.492   1.548   5.421
  958TIP3   OH2 2814   8.202   3.868   3.429
  958TIP3    H1 2815   8.147   3.818   3.489
  958TIP3    H2 2816   8.148   3.942   3.403
  959TIP3   OH2 2817   4.810   2.687   2.662
  959TIP3    H1 2818   4.748   2.628   2.705
  959TIP3    H2 2819   4.760   2.728   2.592
  960TIP3   OH2 2820   0.289   3.370   1.808
  960TIP3    H1 2821   0.209   3.418   1.827
  960TIP3    H2 2822   0.341   3.377   1.888
  961TIP3   OH2 2823   0.299   5.542   4.862
  961TIP3    H1 2824   0.357   5.521   4.789
  961TIP3    H2 2825   0.324   5.631   4.888
  962TIP3   OH2 2826   3.563   0.372   4.916
  962TIP3    H1 2827   3.564   0.418   4.833
  962TIP3    H2 2828   3.629   0.303   4.906
  963TIP3   OH2 2829   6.305   5.966   0.256
  963TIP3    H1 2830   6.323   5.928   0.342
  963TIP3    H2 2831   6.377   6.027   0.241
  964TIP3   OH2 2832   6.717   3.937   6.109
  964TIP3    H1 2833   6.664   3.983   6.043
  964TIP3    H2 2834   6.655   3.877   6.151
  965TIP3   OH2 2835   2.254   0.430   5.399
  965TIP3    H1 2836   2.271   0.423   5.306
  965TIP3    H2 2837   2.219   0.345   5.424
  966TIP3   OH2 2838   7.905   5.878   3.241
  966TIP3    H1 2839   7.934   5.944   3.304
  966TIP3    H2 2840   7.967   5.885   3.169
  967TIP3   OH2 2841   3.644   1.049   2.754
  967TIP3    H1 2842   3.656   0.989   2.828
  967TIP3    H2 2843   3.565   1.098   2.776
  968TIP3   OH2 2844   1.691   2.505   5.977
  968TIP3    H1 2845   1.668   2.597   5.986
  968TIP3    H2 2846   1.772   2.505   5.926
  969TIP3   OH2 2847   2.512   1.903   6.022
  969TIP3    H1 2848   2.571   1.951   6.081
  969TIP3    H2 2849   2.542   1.927   5.934
  970TIP3   OH2 2850   0.163   6.688   1.785
  970TIP3    H1 2851   0.241   6.636   1.766
  970TIP3    H2 2852   0.150   6.678   1.880
  971TIP3   OH2 2853   4.520   3.581   3.961
  971TIP3    H1 2854   4.509   3.529   4.040
  971TIP3    H2 2855   4.446   3.642   3.962
  972TIP3   OH2 2856   6.067   2.894   4.159
  972TIP3    H1 2857   6.114   2.971   4.189
  972TIP3    H2 2858   6.133   2.824   4.158
  973TIP3   OH2 2859   2.134   6.299   4.701
  973TIP3    H1 2860   2.062   6.350   4.739
  973TIP3    H2 2861   2.149   6.227   4.763
  974TIP3   OH2 2862   1.953   5.299   1.053
  974TIP3    H1 2863   2.024   5.342   1.101
  974TIP3    H2 2864   1.873   5.331   1.096
  975TIP3   OH2 2865   2.678   6.679   3.157
  975TIP3    H1 2866   2.623   6.743   3.113
  975TIP3    H2 2867   2.743   6.653   3.091
  976TIP3   OH2 2868   1.900   0.078   3.953
  976TIP3    H1 2869   1.988   0.041   3.962
  976TIP3    H2 2870   1.856   0.055   4.035
  977TIP3   OH2 2871   2.867   4.641   3.362
  977TIP3    H1 2872   2.813   4.668   3.287
  977TIP3    H2 2873   2.957   4.659   3.335
  978TIP3   OH2 2874   3.985   0.037   5.812
  978TIP3    H1 2875   4.045   0.101   5.775
  978TIP3    H2 2876   3.907   0.088   5.835
  979TIP3   OH2 2877   3.329   3.568   6.300
  979TIP3    H1 2878   3.419   3.587   6.327
  979TIP3    H2 2879   3.280   3.648   6.320
  980TIP3   OH2 2880   7.177   7.610   1.524
  980TIP3    H1 2881   7.188   7.589   1.617
  980TIP3    H2 2882   7.235   7.683   1.508
  981TIP3   OH2 2883   6.201   6.160   6.349
  981TIP3    H1 2884   6.270   6.168   6.283
  981TIP3    H2 2885   6.147   6.087   6.318
  982TIP3   OH2 2886   0.733   3.998   4.684
  982TIP3    H1 2887   0.696   4.029   4.766
  982TIP3    H2 2888   0.721   3.903   4.686
  983TIP3   OH2 2889   4.301   2.725   3.823
  983TIP3    H1 2890   4.310   2.730   3.728
  983TIP3    H2 2891   4.316   2.633   3.843
  984TIP3   OH2 2892   5.240   2.492   5.675
  984TIP3    H1 2893   5.317   2.437   5.665
  984TIP3    H2 2894   5.166   2.432   5.663
  985TIP3   OH2 2895   2.087   0.608   4.452
  985TIP3    H1 2896   2.027   0.536   4.472
  985TIP3    H2 2897   2.107   0.597   4.359
  986TIP3   OH2 2898   6.500   3.887   5.098
  986TIP3    H1 2899   6.570   3.823   5.084
  986TIP3    H2 2900   6.425   3.851   5.050
  987TIP3   OH2 2901   7.259   4.016   4.941
  987TIP3    H1 2902   7.268   4.104   4.903
  987TIP3    H2 2903   7.348   3.984   4.949
  988TIP3   OH2 2904   3.595   3.965   0.083
  988TIP3    H1 2905   3.616   3.994  -0.005
  988TIP3    H2 2906   3.675   3.924   0.115
  989TIP3   OH2 2907   5.622   2.460   4.280
  989TIP3    H1 2908   5.589   2.458   4.369
  989TIP3    H2 2909   5.708   2.501   4.287
  990TIP3   OH2 2910   2.437   1.807   5.124
  990TIP3    H1 2911   2.531   1.819   5.110
  990TIP3    H2 2912   2.397   1.880   5.076
  991TIP3   OH2 2913   7.108   1.060   4.316
  991TIP3    H1 2914   7.042   1.087   4.251
  991TIP3    H2 2915   7.057   1.038   4.394
  992TIP3   OH2 2916   7.720   3.724   0.487
  992TIP3    H1 2917   7.628   3.717   0.511
  992TIP3    H2 2918   7.720   3.732   0.391
  993TIP3   OH2 2919   4.289   3.522   4.401
  993TIP3    H1 2920   4.242   3.440   4.417
  993TIP3    H2 2921   4.223   3.582   4.367
  994TIP3   OH2 2922   5.107   1.673   0.062
  994TIP3    H1 2923   5.048   1.610   0.103
  994TIP3    H2 2924   5.182   1.621   0.034
  995TIP3   OH2 2925   2.359   6.084   3.087
  995TIP3    H1 2926   2.395   6.004   3.048
  995TIP3    H2 2927   2.270   6.061   3.113
  996TIP3   OH2 2928   6.150   7.792   4.983
  996TIP3    H1 2929   6.235   7.787   4.939
  996TIP3    H2 2930   6.172   7.820   5.072
  997TIP3   OH2 2931   5.650   7.128   5.799
  997TIP3    H1 2932   5.653   7.220   5.825
  997TIP3    H2 2933   5.692   7.081   5.871
  998TIP3   OH2 2934   6.684   3.382   2.124
  998TIP3    H1 2935   6.652   3.300   2.163
  998TIP3    H2 2936   6.618   3.447   2.148
  999TIP3   OH2 2937   7.660   5.493   5.016
  999TIP3    H1 2938   7.642   5.401   4.995
  999TIP3    H2 2939   7.642   5.500   5.109
 1000TIP3   OH2 2940   7.783   5.384   5.847
 1000TIP3    H1 2941   7.788   5.298   5.806
 1000TIP3    H2 2942   7.862   5.389   5.901
 1001TIP3   OH2 2943   3.059   1.035   4.358
 1001TIP3    H1 2944   3.059   1.128   4.377
 1001TIP3    H2 2945   3.070   1.030   4.263
 1002TIP3   OH2 2946   5.562   1.889   4.844
 1002TIP3    H1 2947   5.507   1.876   4.921
 1002TIP3    H2 2948   5.585   1.982   4.846
 1003TIP3   OH2 2949   5.123   7.236   6.704
 1003TIP3    H1 2950   5.136   7.321   6.746
 1003TIP3    H2 2951   5.100   7.258   6.614
 1004TIP3   OH2 2952   5.198   2.715   4.825
 1004TIP3    H1 2953   5.135   2.649   4.854
 1004TIP3    H2 2954   5.183   2.789   4.884
 1005TIP3   OH2 2955   1.406   5.915   4.024
 1005TIP3    H1 2956   1.345   5.875   4.086
 1005TIP3    H2 2957   1.480   5.854   4.020
 1006TIP3   OH2 2958   7.744   6.803   1.267
 1006TIP3    H1 2959   7.819   6.846   1.225
 1006TIP3    H2 2960   7.738   6.718   1.225
 1007TIP3   OH2 2961   5.155   4.785   0.558
 1007TIP3    H1 2962   5.158   4.737   0.475
 1007TIP3    H2 2963   5.121   4.722   0.621
 1008TIP3   OH2 2964   7.798   2.431   1.616
 1008TIP3    H1 2965   7.884   2.395   1.592
 1008TIP3    H2 2966   7.801   2.440   1.711
 1009TIP3   OH2 2967   5.669   6.513   5.303
 1009TIP3    H1 2968   5.593   6.571   5.302
 1009TIP3    H2 2969   5.696   6.507   5.211
 1010TIP3   OH2 2970   7.524   2.013   5.639
 1010TIP3    H1 2971   7.478   1.936   5.672
 1010TIP3    H2 2972   7.459   2.057   5.584
 1011TIP3   OH2 2973   4.161   3.874   2.647
 1011TIP3    H1 2974   4.163   3.950   2.590
 1011TIP3    H2 2975   4.240   3.883   2.702
 1012TIP3   OH2 2976   8.360   0.360   4.727
 1012TIP3    H1 2977   8.288   0.306   4.759
 1012TIP3    H2 2978   8.357   0.349   4.632
 1013TIP3   OH2 2979   5.532   2.432   4.024
 1013TIP3    H1 2980   5.570   2.506   3.977
 1013TIP3    H2 2981   5.573   2.436   4.111
 1014TIP3   OH2 2982   5.020   1.238   5.566
 1014TIP3    H1 2983   5.076   1.269   5.637
 1014TIP3    H2 2984   5.064   1.267   5.486
 1015TIP3   OH2 2985   2.055   3.362   5.821
 1015TIP3    H1 2986   2.066   3.375   5.727
 1015TIP3    H2 2987   2.070   3.449   5.859
 1016TIP3   OH2 2988   1.087   3.578   2.136
 1016TIP3    H1 2989   1.150   3.507   2.148
 1016TIP3    H2 2990   1.118   3.647   2.195
 1017TIP3   OH2 2991   5.541   1.600   6.191
 1017TIP3    H1 2992   5.519   1.516   6.231
 1017TIP3    H2 2993   5.558   1.579   6.099
 1018TIP3   OH2 2994   3.612   1.995   5.941
 1018TIP3    H1 2995   3.686   2.037   5.984
 1018TIP3    H2 2996   3.576   2.063   5.884
 1019TIP3   OH2 2997   7.304   4.361   3.120
 1019TIP3    H1 2998   7.226   4.406   3.153
 1019TIP3    H2 2999   7.373   4.385   3.182
 1020TIP3   OH2 3000   7.778   7.574   2.297
 1020TIP3    H1 3001   7.764   7.501   2.236
 1020TIP3    H2 3002   7.802   7.531   2.379
 1021TIP3   OH2 3003   4.879   6.094   4.859
 1021TIP3    H1 3004   4.873   6.164   4.794
 1021TIP3    H2 3005   4.813   6.030   4.833
 1022TIP3   OH2 3006   3.840   2.412   0.792
 1022TIP3    H1 3007   3.762   2.390   0.843
 1022TIP3    H2 3008   3.860   2.332   0.744
 1023TIP3   OH2 3009   1.918   7.589   6.113
 1023TIP3    H1 3010   1.967   7.538   6.049
 1023TIP3    H2 3011   1.858   7.526   6.154
 1024TIP3   OH2 3012   4.612   3.950   5.507
 1024TIP3    H1 3013   4.601   4.025   5.449
 1024TIP3    H2 3014   4.530   3.945   5.557
 1025TIP3   OH2 3015   5.050   4.834   2.781
 1025TIP3    H1 3016   5.055   4.742   2.756
 1025TIP3    H2 3017   5.036   4.881   2.699
 1026TIP3   OH2 3018   5.931   3.522   2.978
 1026TIP3    H1 3019   5.908   3.542   3.069
 1026TIP3    H2 3020   5.855   3.472   2.945
 1027TIP3   OH2 3021   7.627   3.487   2.938
 1027TIP3    H1 3022   7.574   3.433   2.878
 1027TIP3    H2 3023   7.598   3.461   3.025
 1028TIP3   OH2 3024   4.719   3.350   0.080
 1028TIP3    H1 3025   4.764   3.393   0.154
 1028TIP3    H2 3026   4.746   3.259   0.086
 1029TIP3   OH2 3027   0.848   1.821   0.506
 1029TIP3    H1 3028   0.881   1.878   0.574
 1029TIP3    H2 3029   0.914   1.824   0.437
 1030TIP3   OH2 3030   0.827   5.300   4.226
 1030TIP3    H1 3031   0.880   5.377   4.206
 1030TIP3    H2 3032   0.757   5.302   4.160
 1031TIP3   OH2 3033   6.434   3.109   3.925
 1031TIP3    H1 3034   6.439   3.028   3.975
 1031TIP3    H2 3035   6.364   3.159   3.965
 1032TIP3   OH2 3036   2.370   3.699   6.094
 1032TIP3    H1 3037   2.424   3.647   6.036
 1032TIP3    H2 3038   2.415   3.696   6.178
 1033TIP3   OH2 3039   3.786   5.393   6.749
 1033TIP3    H1 3040   3.794   5.304   6.716
 1033TIP3    H2 3041   3.695   5.400   6.778
 1034TIP3   OH2 3042   8.284   3.467   1.497
 1034TIP3    H1 3043   8.351   3.520   1.539
 1034TIP3    H2 3044   8.326   3.432   1.418
 1035TIP3   OH2 3045   0.605   2.364   1.052
 1035TIP3    H1 3046   0.672   2.313   1.099
 1035TIP3    H2 3047   0.530   2.304   1.045
 1036TIP3   OH2 3048   0.286   6.090   0.202
 1036TIP3    H1 3049   0.309   5.999   0.184
 1036TIP3    H2 3050   0.370   6.134   0.217
 1037TIP3   OH2 3051   4.853   3.806   2.896
 1037TIP3    H1 3052   4.889   3.864   2.829
 1037TIP3    H2 3053   4.808   3.737   2.847
 1038TIP3   OH2 3054   1.729   7.694   1.409
 1038TIP3    H1 3055   1.685   7.761   1.461
 1038TIP3    H2 3056   1.818   7.727   1.398
 1039TIP3   OH2 3057   0.293   5.429   1.457
 1039TIP3    H1 3058   0.314   5.518   1.486
 1039TIP3    H2 3059   0.369   5.402   1.407
 1040TIP3   OH2 3060   4.265   3.200   1.634
 1040TIP3    H1 3061   4.317   3.159   1.702
 1040TIP3    H2 3062   4.207   3.130   1.602
 1041TIP3   OH2 3063   4.188   7.337   5.192
 1041TIP3    H1 3064   4.224   7.402   5.133
 1041TIP3    H2 3065   4.118   7.382   5.239
 1042TIP3   OH2 3066   4.952   5.366   4.534
 1042TIP3    H1 3067   4.864   5.395   4.508
 1042TIP3    H2 3068   4.936   5.294   4.595
 1043TIP3   OH2 3069   3.710   6.105   0.678
 1043TIP3    H1 3070   3.679   6.196   0.686
 1043TIP3    H2 3071   3.727   6.094   0.585
 1044TIP3   OH2 3072   7.447   1.433   3.807
 1044TIP3    H1 3073   7.376   1.411   3.746
 1044TIP3    H2 3074   7.471   1.350   3.847
 1045TIP3   OH2 3075   4.994   1.515   1.792
 1045TIP3    H1 3076   4.901   1.531   1.805
 1045TIP3    H2 3077   5.012   1.433   1.837
 1046TIP3   OH2 3078   0.691   6.124   2.401
 1046TIP3    H1 3079   0.691   6.131   2.496
 1046TIP3    H2 3080   0.673   6.032   2.384
 1047TIP3   OH2 3081   0.616   1.174   2.796
 1047TIP3    H1 3082   0.682   1.113   2.764
 1047TIP3    H2 3083   0.613   1.244   2.730
 1048TIP3   OH2 3084   1.635   5.973   3.170
 1048TIP3    H1 3085   1.568   5.915   3.136
 1048TIP3    H2 3086   1.711   5.958   3.114
 1049TIP3   OH2 3087   4.371   5.288   1.207
 1049TIP3    H1 3088   4.320   5.334   1.141
 1049TIP3    H2 3089   4.387   5.201   1.169
 1050TIP3   OH2 3090   2.989   0.272   1.669
 1050TIP3    H1 3091   2.977   0.362   1.699
 1050TIP3    H2 3092   2.901   0.235   1.666
 1051TIP3   OH2 3093   6.889   4.433   0.645
 1051TIP3    H1 3094   6.812   4.489   0.656
 1051TIP3    H2 3095   6.942   4.448   0.723
 1052TIP3   OH2 3096   2.213   2.899   2.672
 1052TIP3    H1 3097   2.137   2.877   2.619
 1052TIP3    H2 3098   2.246   2.815   2.704
 1053TIP3   OH2 3099   2.135   0.061   6.618
 1053TIP3    H1 3100   2.119   0.156   6.623
 1053TIP3    H2 3101   2.082   0.032   6.543
 1054TIP3   OH2 3102   5.533   3.261   0.187
 1054TIP3    H1 3103   5.562   3.187   0.133
 1054TIP3    H2 3104   5.605   3.274   0.249
 1055TIP3   OH2 3105   0.831   0.554   0.986
 1055TIP3    H1 3106   0.816   0.545   1.080
 1055TIP3    H2 3107   0.875   0.472   0.961
 1056TIP3   OH2 3108   7.718   4.115   3.567
 1056TIP3    H1 3109   7.794   4.092   3.621
 1056TIP3    H2 3110   7.659   4.161   3.627
 1057TIP3   OH2 3111   6.925   3.604   4.594
 1057TIP3    H1 3112   6.960   3.527   4.550
 1057TIP3    H2 3113   6.912   3.577   4.685
 1058TIP3   OH2 3114   4.185   1.533   1.566
 1058TIP3    H1 3115   4.149   1.590   1.634
 1058TIP3    H2 3116   4.137   1.557   1.486
 1059TIP3   OH2 3117   4.554   2.884   3.449
 1059TIP3    H1 3118   4.543   2.975   3.476
 1059TIP3    H2 3119   4.646   2.876   3.426
 1060TIP3   OH2 3120   2.190   7.742   5.916
 1060TIP3    H1 3121   2.285   7.728   5.914
 1060TIP3    H2 3122   2.154   7.655   5.937
 1061TIP3   OH2 3123   2.030   4.455   1.889
 1061TIP3    H1 3124   2.010   4.455   1.982
 1061TIP3    H2 3125   1.960   4.507   1.849
 1062TIP3   OH2 3126   7.752   5.244   0.651
 1062TIP3    H1 3127   7.743   5.250   0.746
 1062TIP3    H2 3128   7.679   5.295   0.616
 1063TIP3   OH2 3129   3.593   7.368   6.300
 1063TIP3    H1 3130   3.526   7.330   6.356
 1063TIP3    H2 3131   3.545   7.406   6.227
 1064TIP3   OH2 3132   6.109   6.804   3.331
 1064TIP3    H1 3133   6.191   6.776   3.372
 1064TIP3    H2 3134   6.078   6.876   3.386
 1065TIP3   OH2 3135   5.477   3.623   5.809
 1065TIP3    H1 3136   5.427   3.544   5.791
 1065TIP3    H2 3137   5.469   3.676   5.730
 1066TIP3   OH2 3138   3.146   4.591   2.915
 1066TIP3    H1 3139   3.224   4.553   2.953
 1066TIP3    H2 3140   3.084   4.518   2.907
 1067TIP3   OH2 3141   7.908   1.921   0.015
 1067TIP3    H1 3142   7.947   1.970   0.088
 1067TIP3    H2 3143   7.953   1.837   0.016
 1068TIP3   OH2 3144   1.672   3.471   6.740
 1068TIP3    H1 3145   1.634   3.482   6.653
 1068TIP3    H2 3146   1.752   3.523   6.739
 1069TIP3   OH2 3147   4.767   1.712   5.934
 1069TIP3    H1 3148   4.678   1.680   5.946
 1069TIP3    H2 3149   4.757   1.804   5.911
 1070TIP3   OH2 3150   1.883   5.156   1.792
 1070TIP3    H1 3151   1.931   5.161   1.710
 1070TIP3    H2 3152   1.825   5.233   1.791
 1071TIP3   OH2 3153   7.855   4.581   4.251
 1071TIP3    H1 3154   7.778   4.576   4.307
 1071TIP3    H2 3155   7.862   4.494   4.211
 1072TIP3   OH2 3156   1.419   3.481   3.491
 1072TIP3    H1 3157   1.429   3.457   3.399
 1072TIP3    H2 3158   1.337   3.531   3.494
 1073TIP3   OH2 3159   2.349   3.302   5.131
 1073TIP3    H1 3160   2.384   3.330   5.216
 1073TIP3    H2 3161   2.335   3.384   5.083
 1074TIP3   OH2 3162   4.830   5.561   3.298
 1074TIP3    H1 3163   4.893   5.504   3.342
 1074TIP3    H2 3164   4.753   5.505   3.283
 1075TIP3   OH2 3165   0.606   4.245   3.812
 1075TIP3    H1 3166   0.512   4.252   3.801
 1075TIP3    H2 3167   0.636   4.336   3.817
 1076TIP3   OH2 3168   7.662   6.432   1.253
 1076TIP3    H1 3169   7.712   6.449   1.333
 1076TIP3    H2 3170   7.591   6.375   1.281
 1077TIP3   OH2 3171   8.060   5.694   0.819
 1077TIP3    H1 3172   7.978   5.732   0.787
 1077TIP3    H2 3173   8.090   5.637   0.748
 1078TIP3   OH2 3174   7.083   5.269   5.943
 1078TIP3    H1 3175   7.108   5.254   5.852
 1078TIP3    H2 3176   7.011   5.209   5.959
 1079TIP3   OH2 3177   0.257   7.415   5.758
 1079TIP3    H1 3178   0.251   7.505   5.789
 1079TIP3    H2 3179   0.294   7.423   5.670
 1080TIP3   OH2 3180   6.807   0.455   0.888
 1080TIP3    H1 3181   6.772   0.475   0.975
 1080TIP3    H2 3182   6.732   0.461   0.830
 1081TIP3   OH2 3183   8.191   0.054   1.876
 1081TIP3    H1 3184   8.219   0.002   1.801
 1081TIP3    H2 3185   8.141   0.126   1.839
 1082TIP3   OH2 3186   0.598   5.266   4.740
 1082TIP3    H1 3187   0.562   5.192   4.788
 1082TIP3    H2 3188   0.652   5.227   4.671
 1083TIP3   OH2 3189   7.663   3.562   5.027
 1083TIP3    H1 3190   7.626   3.474   5.037
 1083TIP3    H2 3191   7.681   3.591   5.116
 1084TIP3   OH2 3192   6.553   0.492   1.460
 1084TIP3    H1 3193   6.601   0.531   1.533
 1084TIP3    H2 3194   6.618   0.438   1.414
 1085TIP3   OH2 3195   0.887   6.407   5.232
 1085TIP3    H1 3196   0.970   6.450   5.255
 1085TIP3    H2 3197   0.821   6.451   5.285
 1086TIP3   OH2 3198   5.645   3.178   4.761
 1086TIP3    H1 3199   5.668   3.249   4.701
 1086TIP3    H2 3200   5.571   3.212   4.811
 1087TIP3   OH2 3201   5.336   5.894   5.572
 1087TIP3    H1 3202   5.420   5.918   5.612
 1087TIP3    H2 3203   5.331   5.949   5.493
 1088TIP3   OH2 3204   8.051   2.871   1.991
 1088TIP3    H1 3205   8.075   2.958   2.023
 1088TIP3    H2 3206   8.095   2.864   1.906
 1089TIP3   OH2 3207   5.988   4.916   6.088
 1089TIP3    H1 3208   5.938   4.862   6.026
 1089TIP3    H2 3209   6.039   4.853   6.139
 1090TIP3   OH2 3210   4.156   5.822   4.319
 1090TIP3    H1 3211   4.220   5.824   4.249
 1090TIP3    H2 3212   4.133   5.914   4.333
 1091TIP3   OH2 3213   7.538   5.824   6.057
 1091TIP3    H1 3214   7.546   5.729   6.043
 1091TIP3    H2 3215   7.604   5.862   6.000
 1092TIP3   OH2 3216   0.996   2.662   0.514
 1092TIP3    H1 3217   0.939   2.589   0.490
 1092TIP3    H2 3218   1.075   2.619   0.548
 1093TIP3   OH2 3219   7.310   1.280   4.920
 1093TIP3    H1 3220   7.246   1.323   4.977
 1093TIP3    H2 3221   7.340   1.205   4.970
 1094TIP3   OH2 3222   1.660   0.986   5.702
 1094TIP3    H1 3223   1.670   1.053   5.634
 1094TIP3    H2 3224   1.638   0.906   5.654
 1095TIP3   OH2 3225   3.034   2.424   5.953
 1095TIP3    H1 3226   2.968   2.386   6.011
 1095TIP3    H2 3227   3.005   2.514   5.938
 1096TIP3   OH2 3228   3.540   6.587   0.401
 1096TIP3    H1 3229   3.461   6.614   0.447
 1096TIP3    H2 3230   3.509   6.534   0.328
 1097TIP3   OH2 3231   4.777   7.338   5.525
 1097TIP3    H1 3232   4.726   7.346   5.444
 1097TIP3    H2 3233   4.859   7.298   5.498
 1098TIP3   OH2 3234   4.777   3.867   0.391
 1098TIP3    H1 3235   4.696   3.913   0.413
 1098TIP3    H2 3236   4.748   3.781   0.361
 1099TIP3   OH2 3237   0.980   1.145   2.942
 1099TIP3    H1 3238   0.943   1.225   2.905
 1099TIP3    H2 3239   0.929   1.128   3.021
 1100TIP3   OH2 3240   8.331   0.392   2.275
 1100TIP3    H1 3241   8.373   0.320   2.323
 1100TIP3    H2 3242   8.398   0.460   2.270
 1101TIP3   OH2 3243   5.236   5.117   0.533
 1101TIP3    H1 3244   5.235   5.021   0.526
 1101TIP3    H2 3245   5.250   5.134   0.626
 1102TIP3   OH2 3246   1.627   5.115   4.270
 1102TIP3    H1 3247   1.535   5.134   4.288
 1102TIP3    H2 3248   1.661   5.082   4.353
 1103TIP3   OH2 3249   2.808   3.006   6.739
 1103TIP3    H1 3250   2.823   3.058   6.660
 1103TIP3    H2 3251   2.718   2.974   6.730
 1104TIP3   OH2 3252   2.191   3.084   3.116
 1104TIP3    H1 3253   2.249   3.155   3.142
 1104TIP3    H2 3254   2.171   3.102   3.024
 1105TIP3   OH2 3255   2.587   1.514   3.118
 1105TIP3    H1 3256   2.499   1.496   3.084
 1105TIP3    H2 3257   2.582   1.489   3.210
 1106TIP3   OH2 3258   2.766   2.879   2.713
 1106TIP3    H1 3259   2.752   2.967   2.677
 1106TIP3    H2 3260   2.860   2.865   2.706
 1107TIP3   OH2 3261   3.394   7.761   2.140
 1107TIP3    H1 3262   3.489   7.749   2.143
 1107TIP3    H2 3263   3.359   7.672   2.129
 1108TIP3   OH2 3264   3.484   4.135   5.767
 1108TIP3    H1 3265   3.517   4.210   5.817
 1108TIP3    H2 3266   3.426   4.173   5.702
 1109TIP3   OH2 3267   3.364   2.226   1.444
 1109TIP3    H1 3268   3.456   2.244   1.463
 1109TIP3    H2 3269   3.341   2.288   1.374
 1110TIP3   OH2 3270   1.800   2.072   3.466
 1110TIP3    H1 3271   1.847   2.059   3.548
 1110TIP3    H2 3272   1.869   2.075   3.399
 1111TIP3   OH2 3273   4.591   2.908   0.214
 1111TIP3    H1 3274   4.665   2.968   0.199
 1111TIP3    H2 3275   4.622   2.849   0.282
 1112TIP3   OH2 3276   7.917   0.478   6.246
 1112TIP3    H1 3277   7.973   0.552   6.270
 1112TIP3    H2 3278   7.828   0.508   6.266
 1113TIP3   OH2 3279   2.554   4.014   4.561
 1113TIP3    H1 3280   2.490   4.074   4.522
 1113TIP3    H2 3281   2.532   3.929   4.522
 1114TIP3   OH2 3282   3.522   5.376   6.791
 1114TIP3    H1 3283   3.506   5.283   6.809
 1114TIP3    H2 3284   3.444   5.420   6.825
 1115TIP3   OH2 3285   5.695   3.618   4.957
 1115TIP3    H1 3286   5.709   3.689   5.019
 1115TIP3    H2 3287   5.603   3.627   4.931
 1116TIP3   OH2 3288   6.020   5.373   2.966
 1116TIP3    H1 3289   6.069   5.429   2.906
 1116TIP3    H2 3290   5.934   5.414   2.973
 1117TIP3   OH2 3291   3.699   4.969   3.638
 1117TIP3    H1 3292   3.690   4.926   3.723
 1117TIP3    H2 3293   3.685   4.899   3.574
 1118TIP3   OH2 3294   7.099   6.801   6.729
 1118TIP3    H1 3295   7.066   6.726   6.680
 1118TIP3    H2 3296   7.142   6.762   6.806
 1119TIP3   OH2 3297   3.043   2.520   4.750
 1119TIP3    H1 3298   3.005   2.463   4.684
 1119TIP3    H2 3299   3.083   2.592   4.700
 1120TIP3   OH2 3300   8.399   7.826   5.607
 1120TIP3    H1 3301   8.323   7.795   5.657
 1120TIP3    H2 3302   8.402   7.769   5.530
 1121TIP3   OH2 3303   5.381   7.683   0.954
 1121TIP3    H1 3304   5.299   7.634   0.955
 1121TIP3    H2 3305   5.427   7.656   1.033
 1122TIP3   OH2 3306   6.505   0.824   0.363
 1122TIP3    H1 3307   6.598   0.833   0.346
 1122TIP3    H2 3308   6.463   0.843   0.279
 1123TIP3   OH2 3309   5.892   1.937   2.150
 1123TIP3    H1 3310   5.952   1.885   2.096
 1123TIP3    H2 3311   5.807   1.926   2.106
 1124TIP3   OH2 3312   7.998   7.755   5.139
 1124TIP3    H1 3313   7.968   7.797   5.058
 1124TIP3    H2 3314   7.939   7.681   5.151
 1125TIP3   OH2 3315   0.628   7.692   2.866
 1125TIP3    H1 3316   0.614   7.695   2.961
 1125TIP3    H2 3317   0.713   7.735   2.853
 1126TIP3   OH2 3318   2.472   3.741   4.499
 1126TIP3    H1 3319   2.445   3.714   4.411
 1126TIP3    H2 3320   2.443   3.671   4.556
 1127TIP3   OH2 3321   5.801   5.263   5.447
 1127TIP3    H1 3322   5.848   5.236   5.368
 1127TIP3    H2 3323   5.710   5.272   5.418
 1128TIP3   OH2 3324   5.553   5.109   2.342
 1128TIP3    H1 3325   5.521   5.025   2.374
 1128TIP3    H2 3326   5.580   5.156   2.421
 1129TIP3   OH2 3327   7.496   3.053   5.915
 1129TIP3    H1 3328   7.420   2.996   5.922
 1129TIP3    H2 3329   7.471   3.132   5.963
 1130TIP3   OH2 3330   1.792   1.072   6.026
 1130TIP3    H1 3331   1.872   1.111   5.991
 1130TIP3    H2 3332   1.789   1.102   6.117
 1131TIP3   OH2 3333   6.562   2.428   6.524
 1131TIP3    H1 3334   6.536   2.345   6.484
 1131TIP3    H2 3335   6.627   2.404   6.590
 1132TIP3   OH2 3336   2.195   1.452   2.993
 1132TIP3    H1 3337   2.178   1.495   2.909
 1132TIP3    H2 3338   2.249   1.377   2.971
 1133TIP3   OH2 3339   0.171   6.534   1.327
 1133TIP3    H1 3340   0.215   6.506   1.246
 1133TIP3    H2 3341   0.230   6.506   1.397
 1134TIP3   OH2 3342   5.169   2.031   4.841
 1134TIP3    H1 3343   5.190   1.947   4.802
 1134TIP3    H2 3344   5.225   2.036   4.918
 1135TIP3   OH2 3345   8.025   3.855  -0.007
 1135TIP3    H1 3346   8.044   3.798   0.068
 1135TIP3    H2 3347   8.109   3.865  -0.051
 1136TIP3   OH2 3348   7.094   7.527   1.080
 1136TIP3    H1 3349   7.138   7.591   1.024
 1136TIP3    H2 3350   7.074   7.575   1.160
 1137TIP3   OH2 3351   1.158   1.149   0.653
 1137TIP3    H1 3352   1.100   1.219   0.682
 1137TIP3    H2 3353   1.234   1.156   0.712
 1138TIP3   OH2 3354   3.706   0.763   5.511
 1138TIP3    H1 3355   3.620   0.735   5.480
 1138TIP3    H2 3356   3.688   0.806   5.595
 1139TIP3   OH2 3357   5.897   1.835   6.572
 1139TIP3    H1 3358   5.876   1.760   6.517
 1139TIP3    H2 3359   5.868   1.810   6.660
 1140TIP3   OH2 3360   4.329   3.566   4.864
 1140TIP3    H1 3361   4.340   3.660   4.857
 1140TIP3    H2 3362   4.268   3.544   4.793
 1141TIP3   OH2 3363   2.499   1.532   5.468
 1141TIP3    H1 3364   2.446   1.567   5.397
 1141TIP3    H2 3365   2.487   1.437   5.463
 1142TIP3   OH2 3366   3.871   6.901   1.685
 1142TIP3    H1 3367   3.838   6.814   1.663
 1142TIP3    H2 3368   3.861   6.907   1.781
 1143TIP3   OH2 3369   5.778   3.972   2.261
 1143TIP3    H1 3370   5.695   3.952   2.219
 1143TIP3    H2 3371   5.783   3.912   2.335
 1144TIP3   OH2 3372   2.814   0.569   6.614
 1144TIP3    H1 3373   2.838   0.657   6.588
 1144TIP3    H2 3374   2.886   0.514   6.583
 1145TIP3   OH2 3375   1.031   5.611   3.762
 1145TIP3    H1 3376   1.014   5.517   3.755
 1145TIP3    H2 3377   0.975   5.651   3.696
 1146TIP3   OH2 3378   6.385   6.368   0.870
 1146TIP3    H1 3379   6.327   6.295   0.891
 1146TIP3    H2 3380   6.461   6.327   0.829
 1147TIP3   OH2 3381   1.998   5.205   1.444
 1147TIP3    H1 3382   1.952   5.288   1.431
 1147TIP3    H2 3383   2.091   5.229   1.442
 1148TIP3   OH2 3384   2.708   2.694   6.795
 1148TIP3    H1 3385   2.635   2.634   6.782
 1148TIP3    H2 3386   2.700   2.757   6.723
 1149TIP3   OH2 3387   3.459   7.077   6.172
 1149TIP3    H1 3388   3.374   7.116   6.195
 1149TIP3    H2 3389   3.502   7.062   6.257
 1150TIP3   OH2 3390   5.873   5.818   2.903
 1150TIP3    H1 3391   5.895   5.834   2.811
 1150TIP3    H2 3392   5.957   5.805   2.946
 1151TIP3   OH2 3393   1.300   1.816   4.575
 1151TIP3    H1 3394   1.240   1.748   4.545
 1151TIP3    H2 3395   1.277   1.830   4.666
 1152TIP3   OH2 3396   1.229   4.426   3.318
 1152TIP3    H1 3397   1.301   4.444   3.378
 1152TIP3    H2 3398   1.159   4.393   3.373
 1153TIP3   OH2 3399   4.674   7.185   5.032
 1153TIP3    H1 3400   4.648   7.130   5.105
 1153TIP3    H2 3401   4.635   7.271   5.051
 1154TIP3   OH2 3402   8.207   6.957   5.063
 1154TIP3    H1 3403   8.179   6.868   5.084
 1154TIP3    H2 3404   8.156   7.013   5.123
 1155TIP3   OH2 3405   7.948   4.946   6.806
 1155TIP3    H1 3406   8.001   4.877   6.846
 1155TIP3    H2 3407   7.874   4.900   6.766
 1156TIP3   OH2 3408   4.807   7.530   5.950
 1156TIP3    H1 3409   4.884   7.483   5.983
 1156TIP3    H2 3410   4.759   7.464   5.900
 1157TIP3   OH2 3411   1.486   0.353   6.763
 1157TIP3    H1 3412   1.483   0.393   6.850
 1157TIP3    H2 3413   1.395   0.342   6.737
 1158TIP3   OH2 3414   0.270   1.865   6.039
 1158TIP3    H1 3415   0.226   1.946   6.061
 1158TIP3    H2 3416   0.220   1.829   5.966
 1159TIP3   OH2 3417   1.631   4.306   2.743
 1159TIP3    H1 3418   1.564   4.291   2.676
 1159TIP3    H2 3419   1.686   4.228   2.738
 1160TIP3   OH2 3420   6.473   4.450   5.909
 1160TIP3    H1 3421   6.562   4.443   5.873
 1160TIP3    H2 3422   6.462   4.370   5.960
 1161TIP3   OH2 3423   3.213   2.042   1.104
 1161TIP3    H1 3424   3.206   2.123   1.053
 1161TIP3    H2 3425   3.305   2.015   1.093
 1162TIP3   OH2 3426   8.162   3.137   0.056
 1162TIP3    H1 3427   8.079   3.090   0.052
 1162TIP3    H2 3428   8.227   3.070   0.075
 1163TIP3   OH2 3429   4.249   0.755   0.237
 1163TIP3    H1 3430   4.311   0.701   0.286
 1163TIP3    H2 3431   4.202   0.804   0.304
 1164TIP3   OH2 3432   8.127   3.572   6.267
 1164TIP3    H1 3433   8.043   3.606   6.299
 1164TIP3    H2 3434   8.103   3.505   6.204
 1165TIP3   OH2 3435   3.267   5.559   3.560
 1165TIP3    H1 3436   3.339   5.522   3.609
 1165TIP3    H2 3437   3.298   5.646   3.534
 1166TIP3   OH2 3438   1.667   3.752   2.980
 1166TIP3    H1 3439   1.656   3.736   3.074
 1166TIP3    H2 3440   1.610   3.826   2.961
 1167TIP3   OH2 3441   6.440   7.152   6.820
 1167TIP3    H1 3442   6.462   7.244   6.833
 1167TIP3    H2 3443   6.431   7.144   6.725
 1168TIP3   OH2 3444   1.636   1.664   1.996
 1168TIP3    H1 3445   1.698   1.613   1.943
 1168TIP3    H2 3446   1.550   1.637   1.965
 1169TIP3   OH2 3447   4.120   0.921   5.458
 1169TIP3    H1 3448   4.163   0.947   5.376
 1169TIP3    H2 3449   4.026   0.924   5.438
 1170TIP3   OH2 3450   7.297   1.044   1.391
 1170TIP3    H1 3451   7.279   1.132   1.358
 1170TIP3    H2 3452   7.213   0.999   1.383
 1171TIP3   OH2 3453   0.566   6.711   2.785
 1171TIP3    H1 3454   0.483   6.668   2.805
 1171TIP3    H2 3455   0.549   6.804   2.800
 1172TIP3   OH2 3456   2.298   2.465   1.306
 1172TIP3    H1 3457   2.220   2.520   1.315
 1172TIP3    H2 3458   2.303   2.417   1.388
 1173TIP3   OH2 3459   3.222   5.282   5.712
 1173TIP3    H1 3460   3.271   5.324   5.782
 1173TIP3    H2 3461   3.271   5.301   5.632
 1174TIP3   OH2 3462   4.843   1.789   2.538
 1174TIP3    H1 3463   4.761   1.789   2.588
 1174TIP3    H2 3464   4.900   1.729   2.587
 1175TIP3   OH2 3465   5.103   0.244   3.666
 1175TIP3    H1 3466   5.069   0.164   3.626
 1175TIP3    H2 3467   5.154   0.214   3.741
 1176TIP3   OH2 3468   2.188   3.528   0.934
 1176TIP3    H1 3469   2.237   3.445   0.934
 1176TIP3    H2 3470   2.250   3.592   0.969
 1177TIP3   OH2 3471   7.861   4.284   3.148
 1177TIP3    H1 3472   7.954   4.285   3.123
 1177TIP3    H2 3473   7.816   4.250   3.071
 1178TIP3   OH2 3474   1.230   3.329   2.136
 1178TIP3    H1 3475   1.271   3.244   2.150
 1178TIP3    H2 3476   1.154   3.310   2.081
 1179TIP3   OH2 3477   5.390   2.934   5.540
 1179TIP3    H1 3478   5.295   2.935   5.550
 1179TIP3    H2 3479   5.405   2.939   5.446
 1180TIP3   OH2 3480   6.133   0.995   2.622
 1180TIP3    H1 3481   6.228   0.986   2.611
 1180TIP3    H2 3482   6.123   1.036   2.708
 1181TIP3   OH2 3483   4.756   5.594   6.388
 1181TIP3    H1 3484   4.765   5.562   6.299
 1181TIP3    H2 3485   4.661   5.598   6.403
 1182TIP3   OH2 3486   7.510   4.423   6.577
 1182TIP3    H1 3487   7.452   4.479   6.629
 1182TIP3    H2 3488   7.454   4.349   6.550
 1183TIP3   OH2 3489   7.058   6.562   6.566
 1183TIP3    H1 3490   7.002   6.511   6.507
 1183TIP3    H2 3491   7.078   6.502   6.638
 1184TIP3   OH2 3492   5.541   6.814   6.672
 1184TIP3    H1 3493   5.526   6.834   6.765
 1184TIP3    H2 3494   5.471   6.862   6.626
 1185TIP3   OH2 3495   7.414   5.474   3.335
 1185TIP3    H1 3496   7.427   5.557   3.289
 1185TIP3    H2 3497   7.491   5.465   3.390
 1186TIP3   OH2 3498   4.238   0.970   3.672
 1186TIP3    H1 3499   4.302   0.920   3.722
 1186TIP3    H2 3500   4.289   1.011   3.602
 1187TIP3   OH2 3501   5.507   1.631   2.485
 1187TIP3    H1 3502   5.575   1.598   2.427
 1187TIP3    H2 3503   5.431   1.574   2.468
 1188TIP3   OH2 3504   2.395   5.111   2.826
 1188TIP3    H1 3505   2.446   5.170   2.882
 1188TIP3    H2 3506   2.461   5.063   2.776
 1189TIP3   OH2 3507   8.219   0.478   1.392
 1189TIP3    H1 3508   8.127   0.505   1.391
 1189TIP3    H2 3509   8.268   0.558   1.372
 1190TIP3   OH2 3510   3.892   7.017   6.692
 1190TIP3    H1 3511   3.889   7.091   6.753
 1190TIP3    H2 3512   3.906   7.058   6.606
 1191TIP3   OH2 3513   0.838   7.851   0.600
 1191TIP3    H1 3514   0.854   7.890   0.514
 1191TIP3    H2 3515   0.781   7.914   0.645
 1192TIP3   OH2 3516   3.924   1.033   2.491
 1192TIP3    H1 3517   3.945   0.952   2.537
 1192TIP3    H2 3518   3.996   1.092   2.513
 1193TIP3   OH2 3519   4.143   3.882   6.772
 1193TIP3    H1 3520   4.228   3.913   6.804
 1193TIP3    H2 3521   4.156   3.789   6.756
 1194TIP3   OH2 3522   1.643   5.900   4.405
 1194TIP3    H1 3523   1.699   5.847   4.463
 1194TIP3    H2 3524   1.704   5.959   4.360
 1195TIP3   OH2 3525   1.794   4.092   2.738
 1195TIP3    H1 3526   1.789   4.022   2.673
 1195TIP3    H2 3527   1.883   4.087   2.771
 1196TIP3   OH2 3528   3.493   5.142   3.314
 1196TIP3    H1 3529   3.546   5.141   3.394
 1196TIP3    H2 3530   3.403   5.143   3.345
 1197TIP3   OH2 3531   0.770   4.801   3.496
 1197TIP3    H1 3532   0.697   4.796   3.434
 1197TIP3    H2 3533   0.833   4.737   3.464
 1198TIP3   OH2 3534   3.613   3.903   4.167
 1198TIP3    H1 3535   3.653   3.989   4.169
 1198TIP3    H2 3536   3.598   3.885   4.074
 1199TIP3   OH2 3537   7.576   4.465   0.343
 1199TIP3    H1 3538   7.556   4.496   0.255
 1199TIP3    H2 3539   7.551   4.372   0.341
 1200TIP3   OH2 3540   5.132   5.426   4.137
 1200TIP3    H1 3541   5.140   5.521   4.152
 1200TIP3    H2 3542   5.104   5.391   4.222
 1201TIP3   OH2 3543   5.420   5.778   4.297
 1201TIP3    H1 3544   5.437   5.869   4.272
 1201TIP3    H2 3545   5.341   5.754   4.248
 1202TIP3   OH2 3546   6.717   7.597   0.173
 1202TIP3    H1 3547   6.640   7.635   0.132
 1202TIP3    H2 3548   6.693   7.506   0.189
 1203TIP3   OH2 3549   4.521   3.017   5.980
 1203TIP3    H1 3550   4.565   3.087   5.931
 1203TIP3    H2 3551   4.513   3.052   6.069
 1204TIP3   OH2 3552   3.939   4.133   6.355
 1204TIP3    H1 3553   3.992   4.097   6.427
 1204TIP3    H2 3554   3.849   4.108   6.376
 1205TIP3   OH2 3555   4.175   2.464   6.142
 1205TIP3    H1 3556   4.183   2.528   6.213
 1205TIP3    H2 3557   4.172   2.379   6.187
 1206TIP3   OH2 3558   0.576   7.152   6.131
 1206TIP3    H1 3559   0.493   7.106   6.118
 1206TIP3    H2 3560   0.607   7.172   6.043
 1207TIP3   OH2 3561   0.327   7.857   0.616
 1207TIP3    H1 3562   0.382   7.864   0.538
 1207TIP3    H2 3563   0.344   7.938   0.665
 1208TIP3   OH2 3564   1.579   0.173   1.812
 1208TIP3    H1 3565   1.604   0.225   1.888
 1208TIP3    H2 3566   1.501   0.126   1.840
 1209TIP3   OH2 3567   2.336   1.341   6.335
 1209TIP3    H1 3568   2.426   1.367   6.319
 1209TIP3    H2 3569   2.283   1.414   6.302
 1210TIP3   OH2 3570   6.047   0.656   4.989
 1210TIP3    H1 3571   6.045   0.585   4.926
 1210TIP3    H2 3572   6.035   0.735   4.936
 1211TIP3   OH2 3573   7.570   3.745   3.888
 1211TIP3    H1 3574   7.664   3.760   3.896
 1211TIP3    H2 3575   7.540   3.810   3.825
 1212TIP3   OH2 3576   2.761   0.766   4.977
 1212TIP3    H1 3577   2.790   0.778   5.067
 1212TIP3    H2 3578   2.794   0.679   4.953
 1213TIP3   OH2 3579   6.061   7.555   6.084
 1213TIP3    H1 3580   6.062   7.487   6.151
 1213TIP3    H2 3581   6.020   7.630   6.127
 1214TIP3   OH2 3582   0.507   6.995   4.414
 1214TIP3    H1 3583   0.544   6.943   4.485
 1214TIP3    H2 3584   0.542   6.954   4.334
 1215TIP3   OH2 3585   1.011   0.496   3.756
 1215TIP3    H1 3586   1.040   0.407   3.777
 1215TIP3    H2 3587   1.030   0.546   3.836
 1216TIP3   OH2 3588   1.326   6.319   3.129
 1216TIP3    H1 3589   1.236   6.324   3.162
 1216TIP3    H2 3590   1.346   6.409   3.103
 1217TIP3   OH2 3591   5.209   0.969   4.683
 1217TIP3    H1 3592   5.301   0.954   4.664
 1217TIP3    H2 3593   5.183   0.897   4.739
 1218TIP3   OH2 3594   6.082   4.887   6.771
 1218TIP3    H1 3595   6.004   4.881   6.716
 1218TIP3    H2 3596   6.082   4.805   6.822
 1219TIP3   OH2 3597   0.982   4.140   5.747
 1219TIP3    H1 3598   0.940   4.225   5.760
 1219TIP3    H2 3599   1.011   4.140   5.656
 1220TIP3   OH2 3600   1.151   6.712   6.602
 1220TIP3    H1 3601   1.065   6.691   6.566
 1220TIP3    H2 3602   1.144   6.803   6.630
 1221TIP3   OH2 3603   7.854   0.141   2.282
 1221TIP3    H1 3604   7.949   0.127   2.276
 1221TIP3    H2 3605   7.817   0.053   2.283
 1222TIP3   OH2 3606   3.082   7.655   4.471
 1222TIP3    H1 3607   3.019   7.699   4.414
 1222TIP3    H2 3608   3.100   7.572   4.427
 1223TIP3   OH2 3609   3.430   7.743   6.782
 1223TIP3    H1 3610   3.474   7.764   6.865
 1223TIP3    H2 3611   3.357   7.685   6.808
 1224TIP3   OH2 3612   2.735   4.116   5.341
 1224TIP3    H1 3613   2.719   4.167   5.261
 1224TIP3    H2 3614   2.812   4.062   5.320
 1225TIP3   OH2 3615   1.376   3.672   0.065
 1225TIP3    H1 3616   1.296   3.625   0.040
 1225TIP3    H2 3617   1.352   3.718   0.145
 1226TIP3   OH2 3618   2.205   1.674   0.772
 1226TIP3    H1 3619   2.297   1.683   0.749
 1226TIP3    H2 3620   2.183   1.754   0.820
 1227TIP3   OH2 3621   5.690   2.186   4.254
 1227TIP3    H1 3622   5.639   2.263   4.228
 1227TIP3    H2 3623   5.780   2.216   4.256
 1228TIP3   OH2 3624   3.334   6.757   3.654
 1228TIP3    H1 3625   3.266   6.699   3.620
 1228TIP3    H2 3626   3.373   6.707   3.726
 1229TIP3   OH2 3627   5.690   4.637   6.650
 1229TIP3    H1 3628   5.767   4.690   6.631
 1229TIP3    H2 3629   5.647   4.681   6.722
 1230TIP3   OH2 3630   2.709   2.497   4.621
 1230TIP3    H1 3631   2.719   2.510   4.527
 1230TIP3    H2 3632   2.688   2.583   4.655
 1231TIP3   OH2 3633   6.937   4.573   6.054
 1231TIP3    H1 3634   6.934   4.564   5.959
 1231TIP3    H2 3635   6.855   4.536   6.085
 1232TIP3   OH2 3636   8.179   4.677   6.481
 1232TIP3    H1 3637   8.149   4.594   6.444
 1232TIP3    H2 3638   8.220   4.653   6.564
 1233TIP3   OH2 3639   0.058   1.252   0.428
 1233TIP3    H1 3640   0.025   1.339   0.450
 1233TIP3    H2 3641   0.082   1.213   0.512
 1234TIP3   OH2 3642   1.593   2.445   1.982
 1234TIP3    H1 3643   1.523   2.385   1.958
 1234TIP3    H2 3644   1.603   2.503   1.906
 1235TIP3   OH2 3645   5.855   0.086   4.753
 1235TIP3    H1 3646   5.945   0.075   4.723
 1235TIP3    H2 3647   5.863   0.118   4.843
 1236TIP3   OH2 3648   5.264   2.680   6.233
 1236TIP3    H1 3649   5.280   2.627   6.155
 1236TIP3    H2 3650   5.351   2.709   6.260
 1237TIP3   OH2 3651   6.327   7.301   2.971
 1237TIP3    H1 3652   6.409   7.270   2.932
 1237TIP3    H2 3653   6.336   7.280   3.064
 1238TIP3   OH2 3654   8.334   0.828   1.357
 1238TIP3    H1 3655   8.286   0.805   1.437
 1238TIP3    H2 3656   8.346   0.923   1.363
 1239TIP3   OH2 3657   1.184   2.334   5.308
 1239TIP3    H1 3658   1.128   2.256   5.299
 1239TIP3    H2 3659   1.242   2.313   5.381
 1240TIP3   OH2 3660   6.517   4.664   4.020
 1240TIP3    H1 3661   6.506   4.741   3.965
 1240TIP3    H2 3662   6.499   4.694   4.109
 1241TIP3   OH2 3663   6.019   5.470   4.668
 1241TIP3    H1 3664   5.970   5.390   4.648
 1241TIP3    H2 3665   6.059   5.495   4.585
 1242TIP3   OH2 3666   4.392   1.342   6.714
 1242TIP3    H1 3667   4.389   1.420   6.769
 1242TIP3    H2 3668   4.413   1.271   6.774
 1243TIP3   OH2 3669   1.145   2.610   0.068
 1243TIP3    H1 3670   1.169   2.667  -0.005
 1243TIP3    H2 3671   1.221   2.611   0.125
 1244TIP3   OH2 3672   1.262   1.033   3.170
 1244TIP3    H1 3673   1.241   0.956   3.118
 1244TIP3    H2 3674   1.287   0.998   3.256
 1245TIP3   OH2 3675   5.090   2.857   5.027
 1245TIP3    H1 3676   5.044   2.941   5.023
 1245TIP3    H2 3677   5.073   2.824   5.115
 1246TIP3   OH2 3678   0.429   0.436   5.667
 1246TIP3    H1 3679   0.450   0.507   5.727
 1246TIP3    H2 3680   0.334   0.444   5.653
 1247TIP3   OH2 3681   7.772   6.983   4.591
 1247TIP3    H1 3682   7.862   7.002   4.562
 1247TIP3    H2 3683   7.772   7.006   4.684
 1248TIP3   OH2 3684   5.651   0.644   4.890
 1248TIP3    H1 3685   5.659   0.713   4.956
 1248TIP3    H2 3686   5.557   0.630   4.881
 1249TIP3   OH2 3687   6.753   6.331   3.773
 1249TIP3    H1 3688   6.681   6.276   3.744
 1249TIP3    H2 3689   6.832   6.289   3.739
 1250TIP3   OH2 3690   1.307   3.094   1.334
 1250TIP3    H1 3691   1.375   3.029   1.355
 1250TIP3    H2 3692   1.345   3.145   1.262
 1251TIP3   OH2 3693   7.820   4.021   5.680
 1251TIP3    H1 3694   7.831   4.056   5.768
 1251TIP3    H2 3695   7.878   4.075   5.626
 1252TIP3   OH2 3696   7.893   5.285   4.150
 1252TIP3    H1 3697   7.909   5.242   4.234
 1252TIP3    H2 3698   7.962   5.350   4.142
 1253TIP3   OH2 3699   6.539   0.268   6.865
 1253TIP3    H1 3700   6.541   0.246   6.772
 1253TIP3    H2 3701   6.562   0.187   6.910
 1254TIP3   OH2 3702   7.955   2.535   3.493
 1254TIP3    H1 3703   8.008   2.609   3.463
 1254TIP3    H2 3704   7.984   2.461   3.440
 1255TIP3   OH2 3705   6.017   7.663   1.622
 1255TIP3    H1 3706   5.980   7.752   1.625
 1255TIP3    H2 3707   5.966   7.619   1.553
 1256TIP3   OH2 3708   1.528   6.645   2.849
 1256TIP3    H1 3709   1.463   6.695   2.799
 1256TIP3    H2 3710   1.588   6.711   2.883
 1257TIP3   OH2 3711   7.043   3.387   6.372
 1257TIP3    H1 3712   7.055   3.296   6.402
 1257TIP3    H2 3713   6.953   3.390   6.342
 1258TIP3   OH2 3714   5.559   7.454   4.167
 1258TIP3    H1 3715   5.530   7.405   4.090
 1258TIP3    H2 3716   5.654   7.461   4.157
 1259TIP3   OH2 3717   0.589   3.387   1.708
 1259TIP3    H1 3718   0.665   3.441   1.685
 1259TIP3    H2 3719   0.514   3.441   1.686
 1260TIP3   OH2 3720   4.665   6.529   2.368
 1260TIP3    H1 3721   4.751   6.560   2.341
 1260TIP3    H2 3722   4.681   6.441   2.401
 1261TIP3   OH2 3723   6.603   4.164   4.426
 1261TIP3    H1 3724   6.539   4.136   4.360
 1261TIP3    H2 3725   6.677   4.104   4.415
 1262TIP3   OH2 3726   8.189   5.309   5.780
 1262TIP3    H1 3727   8.171   5.374   5.847
 1262TIP3    H2 3728   8.239   5.356   5.713
 1263TIP3   OH2 3729   2.364   6.662   5.375
 1263TIP3    H1 3730   2.380   6.713   5.296
 1263TIP3    H2 3731   2.375   6.571   5.347
 1264TIP3   OH2 3732   0.305   3.793   1.840
 1264TIP3    H1 3733   0.361   3.870   1.853
 1264TIP3    H2 3734   0.299   3.753   1.927
 1265TIP3   OH2 3735   3.802   6.218   2.447
 1265TIP3    H1 3736   3.723   6.236   2.499
 1265TIP3    H2 3737   3.802   6.123   2.436
 1266TIP3   OH2 3738   2.094   4.739   4.210
 1266TIP3    H1 3739   2.139   4.675   4.155
 1266TIP3    H2 3740   2.072   4.690   4.289
 1267TIP3   OH2 3741   6.110   3.334   2.833
 1267TIP3    H1 3742   6.053   3.400   2.873
 1267TIP3    H2 3743   6.166   3.304   2.905
 1268TIP3   OH2 3744   3.060   3.012   1.291
 1268TIP3    H1 3745   3.067   3.091   1.345
 1268TIP3    H2 3746   3.026   3.044   1.207
 1269TIP3   OH2 3747   8.077   1.747   5.598
 1269TIP3    H1 3748   8.065   1.840   5.616
 1269TIP3    H2 3749   8.089   1.743   5.503
 1270TIP3   OH2 3750   5.738   2.717   2.052
 1270TIP3    H1 3751   5.772   2.758   1.973
 1270TIP3    H2 3752   5.652   2.685   2.027
 1271TIP3   OH2 3753   0.824   7.207   5.578
 1271TIP3    H1 3754   0.736   7.239   5.556
 1271TIP3    H2 3755   0.868   7.283   5.616
 1272TIP3   OH2 3756   3.555   2.368   5.686
 1272TIP3    H1 3757   3.487   2.323   5.737
 1272TIP3    H2 3758   3.517   2.378   5.599
 1273TIP3   OH2 3759   6.131   1.516   0.608
 1273TIP3    H1 3760   6.191   1.537   0.536
 1273TIP3    H2 3761   6.055   1.573   0.592
 1274TIP3   OH2 3762   2.375   1.424   4.965
 1274TIP3    H1 3763   2.291   1.397   5.002
 1274TIP3    H2 3764   2.388   1.365   4.891
 1275TIP3   OH2 3765   0.262   0.940   5.849
 1275TIP3    H1 3766   0.178   0.937   5.804
 1275TIP3    H2 3767   0.251   0.883   5.925
 1276TIP3   OH2 3768   4.091   6.926   1.224
 1276TIP3    H1 3769   4.183   6.921   1.199
 1276TIP3    H2 3770   4.093   6.924   1.320
 1277TIP3   OH2 3771   5.486   7.922   5.696
 1277TIP3    H1 3772   5.543   7.945   5.623
 1277TIP3    H2 3773   5.410   7.881   5.655
 1278TIP3   OH2 3774   1.285   0.714   0.651
 1278TIP3    H1 3775   1.298   0.672   0.567
 1278TIP3    H2 3776   1.212   0.774   0.637
 1279TIP3   OH2 3777   5.381   6.942   1.653
 1279TIP3    H1 3778   5.305   6.985   1.693
 1279TIP3    H2 3779   5.401   6.994   1.576
 1280TIP3   OH2 3780   7.792   0.079   1.797
 1280TIP3    H1 3781   7.794   0.047   1.707
 1280TIP3    H2 3782   7.740   0.160   1.792
 1281TIP3   OH2 3783   7.018   1.629   0.792
 1281TIP3    H1 3784   6.940   1.612   0.740
 1281TIP3    H2 3785   7.011   1.570   0.867
 1282TIP3   OH2 3786   1.500   1.110   6.715
 1282TIP3    H1 3787   1.407   1.110   6.739
 1282TIP3    H2 3788   1.538   1.040   6.768
 1283TIP3   OH2 3789   7.900   7.252   2.943
 1283TIP3    H1 3790   7.829   7.315   2.952
 1283TIP3    H2 3791   7.862   7.180   2.892
 1284TIP3   OH2 3792   0.953   5.702   4.818
 1284TIP3    H1 3793   0.974   5.621   4.865
 1284TIP3    H2 3794   0.965   5.771   4.883
 1285TIP3   OH2 3795   2.095   2.380   5.999
 1285TIP3    H1 3796   2.101   2.316   5.927
 1285TIP3    H2 3797   2.052   2.332   6.070
 1286TIP3   OH2 3798   4.804   2.883   4.403
 1286TIP3    H1 3799   4.895   2.906   4.424
 1286TIP3    H2 3800   4.777   2.950   4.341
 1287TIP3   OH2 3801   7.361   2.165   4.736
 1287TIP3    H1 3802   7.410   2.247   4.740
 1287TIP3    H2 3803   7.274   2.188   4.766
 1288TIP3   OH2 3804   3.584   5.183   5.133
 1288TIP3    H1 3805   3.532   5.125   5.077
 1288TIP3    H2 3806   3.520   5.243   5.172
 1289TIP3   OH2 3807   6.148   4.555   1.047
 1289TIP3    H1 3808   6.135   4.650   1.052
 1289TIP3    H2 3809   6.067   4.522   1.009
 1290TIP3   OH2 3810   3.004   3.410   2.089
 1290TIP3    H1 3811   3.044   3.339   2.138
 1290TIP3    H2 3812   3.059   3.421   2.012
 1291TIP3   OH2 3813   3.847   3.184   1.275
 1291TIP3    H1 3814   3.815   3.102   1.238
 1291TIP3    H2 3815   3.772   3.221   1.322
 1292TIP3   OH2 3816   0.784   3.664   6.255
 1292TIP3    H1 3817   0.873   3.699   6.264
 1292TIP3    H2 3818   0.790   3.603   6.181
 1293TIP3   OH2 3819   5.353   1.802   2.252
 1293TIP3    H1 3820   5.317   1.876   2.202
 1293TIP3    H2 3821   5.280   1.773   2.307
 1294TIP3   OH2 3822   4.761   4.574   1.278
 1294TIP3    H1 3823   4.737   4.541   1.191
 1294TIP3    H2 3824   4.857   4.575   1.278
 1295TIP3   OH2 3825   5.421   1.399   3.672
 1295TIP3    H1 3826   5.501   1.443   3.644
 1295TIP3    H2 3827   5.421   1.408   3.768
 1296TIP3   OH2 3828   0.899   4.970   6.303
 1296TIP3    H1 3829   0.993   4.987   6.307
 1296TIP3    H2 3830   0.862   5.047   6.262
 1297TIP3   OH2 3831   3.490   1.488   3.237
 1297TIP3    H1 3832   3.532   1.510   3.320
 1297TIP3    H2 3833   3.485   1.392   3.237
 1298TIP3   OH2 3834   6.129   5.292   6.402
 1298TIP3    H1 3835   6.102   5.233   6.473
 1298TIP3    H2 3836   6.098   5.249   6.322
 1299TIP3   OH2 3837   3.580   4.139   6.775
 1299TIP3    H1 3838   3.528   4.121   6.853
 1299TIP3    H2 3839   3.519   4.177   6.712
 1300TIP3   OH2 3840   1.169   0.858   1.903
 1300TIP3    H1 3841   1.200   0.894   1.986
 1300TIP3    H2 3842   1.246   0.860   1.846
 1301TIP3   OH2 3843   2.119   4.516   3.308
 1301TIP3    H1 3844   2.083   4.517   3.220
 1301TIP3    H2 3845   2.212   4.537   3.296
 1302TIP3   OH2 3846   4.111   3.269   4.325
 1302TIP3    H1 3847   4.141   3.289   4.236
 1302TIP3    H2 3848   4.020   3.300   4.328
 1303TIP3   OH2 3849   7.663   5.022   4.514
 1303TIP3    H1 3850   7.759   5.018   4.522
 1303TIP3    H2 3851   7.633   5.046   4.602
 1304TIP3   OH2 3852   0.315   1.849   2.353
 1304TIP3    H1 3853   0.288   1.767   2.393
 1304TIP3    H2 3854   0.234   1.892   2.326
 1305TIP3   OH2 3855   7.575   1.638   4.255
 1305TIP3    H1 3856   7.664   1.652   4.221
 1305TIP3    H2 3857   7.544   1.726   4.278
 1306TIP3   OH2 3858   1.516   4.535   4.427
 1306TIP3    H1 3859   1.498   4.511   4.518
 1306TIP3    H2 3860   1.446   4.597   4.404
 1307TIP3   OH2 3861   4.642   6.214   5.234
 1307TIP3    H1 3862   4.649   6.309   5.246
 1307TIP3    H2 3863   4.651   6.178   5.322
 1308TIP3   OH2 3864   1.352   2.991   4.268
 1308TIP3    H1 3865   1.443   2.973   4.289
 1308TIP3    H2 3866   1.302   2.941   4.333
 1309TIP3   OH2 3867   0.243   0.052   1.986
 1309TIP3    H1 3868   0.266   0.001   1.908
 1309TIP3    H2 3869   0.181   0.117   1.955
 1310TIP3   OH2 3870   3.321   0.295   3.607
 1310TIP3    H1 3871   3.242   0.256   3.570
 1310TIP3    H2 3872   3.360   0.225   3.659
 1311TIP3   OH2 3873   8.239   4.014   4.403
 1311TIP3    H1 3874   8.260   3.972   4.486
 1311TIP3    H2 3875   8.151   3.983   4.381
 1312TIP3   OH2 3876   7.316   5.538   0.579
 1312TIP3    H1 3877   7.267   5.592   0.518
 1312TIP3    H2 3878   7.284   5.449   0.564
 1313TIP3   OH2 3879   0.516   1.553   3.492
 1313TIP3    H1 3880   0.460   1.609   3.438
 1313TIP3    H2 3881   0.464   1.474   3.506
 1314TIP3   OH2 3882   3.122   5.408   5.032
 1314TIP3    H1 3883   3.209   5.393   4.996
 1314TIP3    H2 3884   3.133   5.399   5.127
 1315TIP3   OH2 3885   6.251   5.372   3.408
 1315TIP3    H1 3886   6.196   5.294   3.406
 1315TIP3    H2 3887   6.265   5.394   3.316
 1316TIP3   OH2 3888   8.295   1.498   6.184
 1316TIP3    H1 3889   8.320   1.427   6.243
 1316TIP3    H2 3890   8.339   1.478   6.102
 1317TIP3   OH2 3891   1.760   3.894   3.652
 1317TIP3    H1 3892   1.683   3.872   3.704
 1317TIP3    H2 3893   1.803   3.809   3.636
 1318TIP3   OH2 3894   5.163   6.836   1.911
 1318TIP3    H1 3895   5.253   6.818   1.940
 1318TIP3    H2 3896   5.132   6.903   1.972
 1319TIP3   OH2 3897   2.377   3.845   4.758
 1319TIP3    H1 3898   2.365   3.938   4.776
 1319TIP3    H2 3899   2.374   3.838   4.663
 1320TIP3   OH2 3900   2.315   1.145   1.089
 1320TIP3    H1 3901   2.345   1.061   1.056
 1320TIP3    H2 3902   2.282   1.190   1.011
 1321TIP3   OH2 3903   8.338   0.564   3.775
 1321TIP3    H1 3904   8.430   0.536   3.773
 1321TIP3    H2 3905   8.327   0.616   3.696
 1322TIP3   OH2 3906   1.347   0.808   5.762
 1322TIP3    H1 3907   1.357   0.737   5.699
 1322TIP3    H2 3908   1.262   0.792   5.803
 1323TIP3   OH2 3909   0.828   1.555   1.225
 1323TIP3    H1 3910   0.840   1.462   1.212
 1323TIP3    H2 3911   0.891   1.597   1.165
 1324TIP3   OH2 3912   3.336   2.916   5.618
 1324TIP3    H1 3913   3.327   2.868   5.701
 1324TIP3    H2 3914   3.370   2.851   5.557
 1325TIP3   OH2 3915   4.109   3.029   1.448
 1325TIP3    H1 3916   4.045   3.085   1.403
 1325TIP3    H2 3917   4.186   3.030   1.390
 1326TIP3   OH2 3918   5.629   3.589   0.641
 1326TIP3    H1 3919   5.689   3.617   0.572
 1326TIP3    H2 3920   5.660   3.634   0.719
 1327TIP3   OH2 3921   0.555   5.147   3.330
 1327TIP3    H1 3922   0.617   5.078   3.305
 1327TIP3    H2 3923   0.569   5.158   3.424
 1328TIP3   OH2 3924   2.228   0.445   3.274
 1328TIP3    H1 3925   2.181   0.419   3.353
 1328TIP3    H2 3926   2.233   0.365   3.221
 1329TIP3   OH2 3927   5.178   2.371   4.923
 1329TIP3    H1 3928   5.119   2.436   4.961
 1329TIP3    H2 3929   5.140   2.350   4.838
 1330TIP3   OH2 3930   3.563   3.911   4.464
 1330TIP3    H1 3931   3.625   3.838   4.472
 1330TIP3    H2 3932   3.597   3.963   4.392
 1331TIP3   OH2 3933   3.995   7.198   4.279
 1331TIP3    H1 3934   3.946   7.134   4.330
 1331TIP3    H2 3935   3.944   7.279   4.287
 1332TIP3   OH2 3936   2.167   6.570   1.207
 1332TIP3    H1 3937   2.175   6.665   1.215
 1332TIP3    H2 3938   2.089   6.556   1.154
 1333TIP3   OH2 3939   6.195   5.141   3.874
 1333TIP3    H1 3940   6.247   5.220   3.858
 1333TIP3    H2 3941   6.238   5.099   3.948
 1334TIP3   OH2 3942   2.365   3.912   0.711
 1334TIP3    H1 3943   2.389   3.956   0.793
 1334TIP3    H2 3944   2.269   3.911   0.711
 1335TIP3   OH2 3945   0.334   0.360   2.653
 1335TIP3    H1 3946   0.367   0.346   2.564
 1335TIP3    H2 3947   0.392   0.428   2.690
 1336TIP3   OH2 3948   0.418   5.941   2.380
 1336TIP3    H1 3949   0.360   5.896   2.318
 1336TIP3    H2 3950   0.506   5.914   2.354
 1337TIP3   OH2 3951   4.171   7.321   3.643
 1337TIP3    H1 3952   4.138   7.381   3.710
 1337TIP3    H2 3953   4.227   7.260   3.691
 1338TIP3   OH2 3954   1.166   1.828   5.652
 1338TIP3    H1 3955   1.130   1.745   5.683
 1338TIP3    H2 3956   1.108   1.895   5.689
 1339TIP3   OH2 3957   1.218   0.264   4.924
 1339TIP3    H1 3958   1.126   0.280   4.904
 1339TIP3    H2 3959   1.245   0.195   4.863
 1340TIP3   OH2 3960   5.838   3.572   3.222
 1340TIP3    H1 3961   5.865   3.569   3.314
 1340TIP3    H2 3962   5.754   3.525   3.221
 1341TIP3   OH2 3963   1.622   0.724   2.680
 1341TIP3    H1 3964   1.640   0.630   2.683
 1341TIP3    H2 3965   1.530   0.732   2.706
 1342TIP3   OH2 3966   1.747   5.922   5.467
 1342TIP3    H1 3967   1.785   5.939   5.380
 1342TIP3    H2 3968   1.800   5.975   5.527
 1343TIP3   OH2 3969   3.706   7.779   6.075
 1343TIP3    H1 3970   3.697   7.874   6.062
 1343TIP3    H2 3971   3.775   7.754   6.013
 1344TIP3   OH2 3972   3.341   6.274   1.123
 1344TIP3    H1 3973   3.398   6.230   1.186
 1344TIP3    H2 3974   3.325   6.209   1.055
 1345TIP3   OH2 3975   5.639   5.752   4.936
 1345TIP3    H1 3976   5.647   5.692   4.862
 1345TIP3    H2 3977   5.566   5.810   4.913
 1346TIP3   OH2 3978   1.730   1.853   2.915
 1346TIP3    H1 3979   1.720   1.778   2.974
 1346TIP3    H2 3980   1.799   1.826   2.854
 1347TIP3   OH2 3981   7.343   5.943   0.962
 1347TIP3    H1 3982   7.276   5.878   0.985
 1347TIP3    H2 3983   7.295   6.026   0.959
 1348TIP3   OH2 3984   6.271   0.142   3.208
 1348TIP3    H1 3985   6.304   0.080   3.143
 1348TIP3    H2 3986   6.191   0.102   3.240
 1349TIP3   OH2 3987   5.448   6.362   2.637
 1349TIP3    H1 3988   5.534   6.333   2.608
 1349TIP3    H2 3989   5.453   6.360   2.733
 1350TIP3   OH2 3990   6.216   4.577   4.148
 1350TIP3    H1 3991   6.296   4.530   4.172
 1350TIP3    H2 3992   6.216   4.654   4.204
 1351TIP3   OH2 3993   4.730   6.982   2.935
 1351TIP3    H1 3994   4.752   7.004   3.026
 1351TIP3    H2 3995   4.704   7.065   2.896
 1352TIP3   OH2 3996   0.357   2.388   6.379
 1352TIP3    H1 3997   0.278   2.374   6.327
 1352TIP3    H2 3998   0.349   2.477   6.413
 1353TIP3   OH2 3999   6.137   7.380   2.764
 1353TIP3    H1 4000   6.141   7.448   2.832
 1353TIP3    H2 4001   6.207   7.319   2.787
 1354TIP3   OH2 4002   7.455   7.776   4.366
 1354TIP3    H1 4003   7.502   7.695   4.389
 1354TIP3    H2 4004   7.431   7.765   4.274
 1355TIP3   OH2 4005   2.567   5.026   3.116
 1355TIP3    H1 4006   2.559   5.004   3.023
 1355TIP3    H2 4007   2.647   4.981   3.144
 1356TIP3   OH2 4008   4.150   7.754   0.765
 1356TIP3    H1 4009   4.094   7.798   0.701
 1356TIP3    H2 4010   4.229   7.731   0.715
 1357TIP3   OH2 4011   0.726   3.872   5.634
 1357TIP3    H1 4012   0.655   3.818   5.598
 1357TIP3    H2 4013   0.802   3.814   5.634
 1358TIP3   OH2 4014   0.788   6.893   6.614
 1358TIP3    H1 4015   0.693   6.886   6.614
 1358TIP3    H2 4016   0.813   6.891   6.706
 1359TIP3   OH2 4017   3.049   2.725   1.340
 1359TIP3    H1 4018   3.033   2.816   1.314
 1359TIP3    H2 4019   3.078   2.682   1.260
 1360TIP3   OH2 4020   3.201   0.840   6.095
 1360TIP3    H1 4021   3.154   0.920   6.074
 1360TIP3    H2 4022   3.255   0.823   6.018
 1361TIP3   OH2 4023   4.762   5.516   4.166
 1361TIP3    H1 4024   4.747   5.423   4.185
 1361TIP3    H2 4025   4.763   5.558   4.251
 1362TIP3   OH2 4026   6.641   7.252   1.121
 1362TIP3    H1 4027   6.726   7.264   1.080
 1362TIP3    H2 4028   6.585   7.219   1.051
 1363TIP3   OH2 4029   0.808   3.813   5.010
 1363TIP3    H1 4030   0.862   3.888   5.037
 1363TIP3    H2 4031   0.860   3.768   4.944
 1364TIP3   OH2 4032   6.517   6.826   5.524
 1364TIP3    H1 4033   6.485   6.817   5.434
 1364TIP3    H2 4034   6.577   6.752   5.536
 1365TIP3   OH2 4035   2.357   3.842   5.114
 1365TIP3    H1 4036   2.431   3.802   5.160
 1365TIP3    H2 4037   2.389   3.927   5.084
 1366TIP3   OH2 4038   4.189   5.501   4.786
 1366TIP3    H1 4039   4.167   5.567   4.720
 1366TIP3    H2 4040   4.216   5.551   4.863
 1367TIP3   OH2 4041   3.541   0.952   4.589
 1367TIP3    H1 4042   3.563   1.039   4.554
 1367TIP3    H2 4043   3.537   0.965   4.683
 1368TIP3   OH2 4044   0.317   2.223   4.465
 1368TIP3    H1 4045   0.223   2.241   4.465
 1368TIP3    H2 4046   0.358   2.308   4.451
 1369TIP3   OH2 4047   7.774   0.784   0.616
 1369TIP3    H1 4048   7.845   0.836   0.655
 1369TIP3    H2 4049   7.785   0.796   0.522
 1370TIP3   OH2 4050   4.680   3.511   1.163
 1370TIP3    H1 4051   4.749   3.497   1.098
 1370TIP3    H2 4052   4.618   3.570   1.120
 1371TIP3   OH2 4053   7.301   4.285   4.905
 1371TIP3    H1 4054   7.265   4.352   4.963
 1371TIP3    H2 4055   7.300   4.325   4.818
 1372TIP3   OH2 4056   3.596   0.634   1.884
 1372TIP3    H1 4057   3.531   0.614   1.816
 1372TIP3    H2 4058   3.606   0.729   1.882
 1373TIP3   OH2 4059   4.295   6.357   1.104
 1373TIP3    H1 4060   4.381   6.367   1.064
 1373TIP3    H2 4061   4.239   6.417   1.056
 1374TIP3   OH2 4062   6.733   2.246   5.268
 1374TIP3    H1 4063   6.673   2.208   5.332
 1374TIP3    H2 4064   6.689   2.325   5.238
 1375TIP3   OH2 4065   6.254   2.424   3.962
 1375TIP3    H1 4066   6.306   2.369   4.020
 1375TIP3    H2 4067   6.248   2.508   4.007
 1376TIP3   OH2 4068   5.881   7.492   3.108
 1376TIP3    H1 4069   5.832   7.561   3.152
 1376TIP3    H2 4070   5.964   7.532   3.084
 1377TIP3   OH2 4071   7.553   4.202   4.878
 1377TIP3    H1 4072   7.559   4.155   4.795
 1377TIP3    H2 4073   7.461   4.228   4.885
 1378TIP3   OH2 4074   0.708   5.097   1.655
 1378TIP3    H1 4075   0.779   5.117   1.594
 1378TIP3    H2 4076   0.708   5.001   1.661
 1379TIP3   OH2 4077   7.953   1.300   0.405
 1379TIP3    H1 4078   8.031   1.253   0.374
 1379TIP3    H2 4079   7.976   1.392   0.398
 1380TIP3   OH2 4080   2.140   3.421   2.849
 1380TIP3    H1 4081   2.064   3.420   2.907
 1380TIP3    H2 4082   2.167   3.329   2.843
 1381TIP3   OH2 4083   8.012   6.372   2.598
 1381TIP3    H1 4084   8.077   6.427   2.642
 1381TIP3    H2 4085   7.956   6.435   2.552
 1382TIP3   OH2 4086   2.467   1.599   4.554
 1382TIP3    H1 4087   2.469   1.574   4.462
 1382TIP3    H2 4088   2.473   1.695   4.553
 1383TIP3   OH2 4089   4.583   1.244   6.115
 1383TIP3    H1 4090   4.502   1.198   6.094
 1383TIP3    H2 4091   4.652   1.196   6.070
 1384TIP3   OH2 4092   6.611   3.989   5.817
 1384TIP3    H1 4093   6.562   4.003   5.736
 1384TIP3    H2 4094   6.629   3.895   5.818
 1385TIP3   OH2 4095   4.166   5.663   5.012
 1385TIP3    H1 4096   4.145   5.640   5.102
 1385TIP3    H2 4097   4.147   5.757   5.006
 1386TIP3   OH2 4098   0.885   2.892   3.534
 1386TIP3    H1 4099   0.851   2.835   3.465
 1386TIP3    H2 4100   0.957   2.940   3.493
 1387TIP3   OH2 4101   3.374   6.298   0.501
 1387TIP3    H1 4102   3.291   6.342   0.519
 1387TIP3    H2 4103   3.425   6.307   0.582
 1388TIP3   OH2 4104   7.727   2.596   6.204
 1388TIP3    H1 4105   7.735   2.542   6.283
 1388TIP3    H2 4106   7.683   2.539   6.141
 1389TIP3   OH2 4107   0.995   0.251   3.944
 1389TIP3    H1 4108   0.912   0.290   3.917
 1389TIP3    H2 4109   0.973   0.159   3.962
 1390TIP3   OH2 4110   2.911   5.095   0.706
 1390TIP3    H1 4111   2.985   5.095   0.767
 1390TIP3    H2 4112   2.948   5.123   0.623
 1391TIP3   OH2 4113   0.756   7.576   0.694
 1391TIP3    H1 4114   0.663   7.561   0.710
 1391TIP3    H2 4115   0.763   7.670   0.676
 1392TIP3   OH2 4116   0.638   2.906   6.826
 1392TIP3    H1 4117   0.714   2.895   6.769
 1392TIP3    H2 4118   0.612   2.998   6.814
 1393TIP3   OH2 4119   7.072   4.182   3.688
 1393TIP3    H1 4120   7.047   4.142   3.771
 1393TIP3    H2 4121   7.084   4.109   3.628
 1394TIP3   OH2 4122   6.087   7.867   1.395
 1394TIP3    H1 4123   6.159   7.928   1.380
 1394TIP3    H2 4124   6.009   7.923   1.401
 1395TIP3   OH2 4125   7.798   7.859   3.377
 1395TIP3    H1 4126   7.807   7.913   3.299
 1395TIP3    H2 4127   7.814   7.919   3.450
 1396TIP3   OH2 4128   7.302   3.011   1.801
 1396TIP3    H1 4129   7.286   3.057   1.883
 1396TIP3    H2 4130   7.397   3.015   1.790
 1397TIP3   OH2 4131   5.994   0.758   6.811
 1397TIP3    H1 4132   6.076   0.807   6.805
 1397TIP3    H2 4133   5.963   0.751   6.721
 1398TIP3   OH2 4134   2.665   6.933   5.468
 1398TIP3    H1 4135   2.666   6.967   5.378
 1398TIP3    H2 4136   2.739   6.977   5.510
 1399TIP3   OH2 4137   6.681   1.114   3.576
 1399TIP3    H1 4138   6.749   1.052   3.548
 1399TIP3    H2 4139   6.601   1.082   3.533
 1400TIP3   OH2 4140   7.555   2.163   6.277
 1400TIP3    H1 4141   7.474   2.213   6.267
 1400TIP3    H2 4142   7.570   2.159   6.371
 1401TIP3   OH2 4143   4.857   2.763   3.436
 1401TIP3    H1 4144   4.854   2.667   3.430
 1401TIP3    H2 4145   4.950   2.783   3.441
 1402TIP3   OH2 4146   0.382   6.536   1.526
 1402TIP3    H1 4147   0.353   6.484   1.601
 1402TIP3    H2 4148   0.397   6.623   1.562
 1403TIP3   OH2 4149   0.308   4.081   1.124
 1403TIP3    H1 4150   0.335   4.170   1.102
 1403TIP3    H2 4151   0.387   4.040   1.159
 1404TIP3   OH2 4152   6.753   7.363   2.704
 1404TIP3    H1 4153   6.847   7.360   2.687
 1404TIP3    H2 4154   6.718   7.418   2.634
 1405TIP3   OH2 4155   6.143   0.277   6.515
 1405TIP3    H1 4156   6.154   0.198   6.463
 1405TIP3    H2 4157   6.217   0.277   6.575
 1406TIP3   OH2 4158   7.922   2.214   0.022
 1406TIP3    H1 4159   7.931   2.293   0.074
 1406TIP3    H2 4160   7.835   2.222  -0.018
 1407TIP3   OH2 4161   6.916   0.588   6.446
 1407TIP3    H1 4162   6.835   0.561   6.489
 1407TIP3    H2 4163   6.912   0.548   6.359
 1408TIP3   OH2 4164   1.305   2.400   3.330
 1408TIP3    H1 4165   1.224   2.361   3.298
 1408TIP3    H2 4166   1.340   2.447   3.254
 1409TIP3   OH2 4167   7.876   4.832   3.065
 1409TIP3    H1 4168   7.968   4.851   3.080
 1409TIP3    H2 4169   7.875   4.774   2.989
 1410TIP3   OH2 4170   2.248   1.371   6.631
 1410TIP3    H1 4171   2.185   1.443   6.627
 1410TIP3    H2 4172   2.258   1.343   6.540
 1411TIP3   OH2 4173   1.608   6.415   0.178
 1411TIP3    H1 4174   1.630   6.460   0.259
 1411TIP3    H2 4175   1.674   6.444   0.116
 1412TIP3   OH2 4176   2.645   5.026   5.054
 1412TIP3    H1 4177   2.600   4.977   5.123
 1412TIP3    H2 4178   2.728   5.052   5.093
 1413TIP3   OH2 4179   8.058   7.872   2.338
 1413TIP3    H1 4180   7.971   7.859   2.374
 1413TIP3    H2 4181   8.115   7.881   2.415
 1414TIP3   OH2 4182   6.757   6.515   2.323
 1414TIP3    H1 4183   6.682   6.526   2.264
 1414TIP3    H2 4184   6.773   6.420   2.325
 1415TIP3   OH2 4185   5.945   7.503   0.480
 1415TIP3    H1 4186   6.008   7.565   0.441
 1415TIP3    H2 4187   5.880   7.559   0.522
 1416TIP3   OH2 4188   4.841   0.198   5.601
 1416TIP3    H1 4189   4.926   0.164   5.628
 1416TIP3    H2 4190   4.861   0.250   5.523
 1417TIP3   OH2 4191   3.235   5.334   2.384
 1417TIP3    H1 4192   3.228   5.254   2.436
 1417TIP3    H2 4193   3.297   5.313   2.315
 1418TIP3   OH2 4194   8.151   4.900   1.111
 1418TIP3    H1 4195   8.084   4.848   1.066
 1418TIP3    H2 4196   8.209   4.835   1.150
 1419TIP3   OH2 4197   5.267   1.582   1.292
 1419TIP3    H1 4198   5.292   1.674   1.277
 1419TIP3    H2 4199   5.335   1.532   1.247
 1420TIP3   OH2 4200   6.456   3.050   0.795
 1420TIP3    H1 4201   6.493   3.107   0.729
 1420TIP3    H2 4202   6.496   3.079   0.877
 1421TIP3   OH2 4203   6.366   1.277   3.665
 1421TIP3    H1 4204   6.383   1.371   3.656
 1421TIP3    H2 4205   6.303   1.258   3.596
 1422TIP3   OH2 4206   1.540   3.025   5.774
 1422TIP3    H1 4207   1.585   3.072   5.844
 1422TIP3    H2 4208   1.592   3.043   5.696
 1423TIP3   OH2 4209   4.458   4.445   5.799
 1423TIP3    H1 4210   4.421   4.374   5.852
 1423TIP3    H2 4211   4.547   4.416   5.779
 1424TIP3   OH2 4212   0.519   0.904   1.537
 1424TIP3    H1 4213   0.486   0.841   1.601
 1424TIP3    H2 4214   0.466   0.888   1.459
 1425TIP3   OH2 4215   5.304   0.321   3.484
 1425TIP3    H1 4216   5.296   0.280   3.398
 1425TIP3    H2 4217   5.243   0.272   3.540
 1426TIP3   OH2 4218   5.726   1.946   1.832
 1426TIP3    H1 4219   5.700   1.981   1.917
 1426TIP3    H2 4220   5.693   2.010   1.768
 1427TIP3   OH2 4221   4.319   2.326   2.647
 1427TIP3    H1 4222   4.253   2.334   2.579
 1427TIP3    H2 4223   4.296   2.245   2.694
 1428TIP3   OH2 4224   4.510   2.342   2.900
 1428TIP3    H1 4225   4.480   2.262   2.943
 1428TIP3    H2 4226   4.605   2.341   2.909
 1429TIP3   OH2 4227   7.413   5.311   6.109
 1429TIP3    H1 4228   7.362   5.267   6.041
 1429TIP3    H2 4229   7.500   5.271   6.102
 1430TIP3   OH2 4230   3.103   6.553   4.939
 1430TIP3    H1 4231   3.095   6.625   5.001
 1430TIP3    H2 4232   3.125   6.477   4.992
 1431TIP3   OH2 4233   1.824   2.361   5.437
 1431TIP3    H1 4234   1.863   2.337   5.353
 1431TIP3    H2 4235   1.754   2.297   5.450
 1432TIP3   OH2 4236   8.140   1.795   2.802
 1432TIP3    H1 4237   8.218   1.823   2.850
 1432TIP3    H2 4238   8.089   1.875   2.791
 1433TIP3   OH2 4239   5.218   5.496   1.157
 1433TIP3    H1 4240   5.220   5.551   1.235
 1433TIP3    H2 4241   5.155   5.539   1.099
 1434TIP3   OH2 4242   3.318   2.806   1.398
 1434TIP3    H1 4243   3.335   2.834   1.308
 1434TIP3    H2 4244   3.223   2.795   1.402
 1435TIP3   OH2 4245   7.407   7.734   4.098
 1435TIP3    H1 4246   7.485   7.701   4.053
 1435TIP3    H2 4247   7.351   7.657   4.109
 1436TIP3   OH2 4248   3.827   7.029   0.760
 1436TIP3    H1 4249   3.830   7.027   0.855
 1436TIP3    H2 4250   3.738   6.999   0.738
 1437TIP3   OH2 4251   8.067   4.430   4.814
 1437TIP3    H1 4252   8.027   4.357   4.862
 1437TIP3    H2 4253   8.150   4.395   4.781
 1438TIP3   OH2 4254   1.711   4.655   3.372
 1438TIP3    H1 4255   1.731   4.683   3.461
 1438TIP3    H2 4256   1.688   4.736   3.326
 1439TIP3   OH2 4257   7.972   4.577   1.784
 1439TIP3    H1 4258   8.022   4.530   1.851
 1439TIP3    H2 4259   7.992   4.531   1.702
 1440TIP3   OH2 4260   7.126   2.635   1.381
 1440TIP3    H1 4261   7.193   2.651   1.447
 1440TIP3    H2 4262   7.175   2.619   1.301
 1441TIP3   OH2 4263   6.635   2.876   3.328
 1441TIP3    H1 4264   6.668   2.883   3.417
 1441TIP3    H2 4265   6.618   2.966   3.301
 1442TIP3   OH2 4266   3.573   6.058   0.214
 1442TIP3    H1 4267   3.594   6.132   0.272
 1442TIP3    H2 4268   3.656   6.011   0.204
 1443TIP3   OH2 4269   5.093   1.769   6.252
 1443TIP3    H1 4270   5.006   1.736   6.271
 1443TIP3    H2 4271   5.148   1.691   6.248
 1444TIP3   OH2 4272   8.115   7.663   1.644
 1444TIP3    H1 4273   8.078   7.705   1.567
 1444TIP3    H2 4274   8.088   7.571   1.637
 1445TIP3   OH2 4275   7.394   0.396   6.387
 1445TIP3    H1 4276   7.348   0.381   6.470
 1445TIP3    H2 4277   7.330   0.442   6.333
 1446TIP3   OH2 4278   1.127   7.034   2.107
 1446TIP3    H1 4279   1.049   7.089   2.115
 1446TIP3    H2 4280   1.093   6.946   2.088
 1447TIP3   OH2 4281   7.556   5.418   0.632
 1447TIP3    H1 4282   7.497   5.456   0.566
 1447TIP3    H2 4283   7.501   5.406   0.709
 1448TIP3   OH2 4284   5.360   0.029   3.032
 1448TIP3    H1 4285   5.364   0.122   3.056
 1448TIP3    H2 4286   5.442   0.012   2.987
 1449TIP3   OH2 4287   7.452   0.168   4.259
 1449TIP3    H1 4288   7.526   0.212   4.215
 1449TIP3    H2 4289   7.486   0.143   4.345
 1450TIP3   OH2 4290   0.997   2.208   5.518
 1450TIP3    H1 4291   0.903   2.189   5.517
 1450TIP3    H2 4292   1.029   2.173   5.434
 1451TIP3   OH2 4293   5.328   2.817   2.869
 1451TIP3    H1 4294   5.318   2.862   2.953
 1451TIP3    H2 4295   5.311   2.725   2.889
 1452TIP3   OH2 4296   6.719   7.894   6.160
 1452TIP3    H1 4297   6.727   7.799   6.165
 1452TIP3    H2 4298   6.808   7.927   6.176
 1453TIP3   OH2 4299   7.386   3.937   6.314
 1453TIP3    H1 4300   7.370   3.875   6.243
 1453TIP3    H2 4301   7.301   3.977   6.331
 1454TIP3   OH2 4302   7.918   1.000   6.748
 1454TIP3    H1 4303   7.956   1.087   6.753
 1454TIP3    H2 4304   7.938   0.960   6.833
 1455TIP3   OH2 4305   3.258   4.739   4.086
 1455TIP3    H1 4306   3.183   4.699   4.042
 1455TIP3    H2 4307   3.223   4.773   4.168
 1456TIP3   OH2 4308   5.545   5.533   6.723
 1456TIP3    H1 4309   5.517   5.570   6.639
 1456TIP3    H2 4310   5.506   5.446   6.725
 1457TIP3   OH2 4311   0.181   6.156   6.067
 1457TIP3    H1 4312   0.170   6.087   6.002
 1457TIP3    H2 4313   0.237   6.220   6.024
 1458TIP3   OH2 4314   0.118   0.603   2.283
 1458TIP3    H1 4315   0.125   0.646   2.198
 1458TIP3    H2 4316   0.068   0.664   2.338
 1459TIP3   OH2 4317   6.489   6.958   2.876
 1459TIP3    H1 4318   6.504   7.051   2.895
 1459TIP3    H2 4319   6.574   6.917   2.888
 1460TIP3   OH2 4320   0.153   6.767   1.490
 1460TIP3    H1 4321   0.125   6.758   1.581
 1460TIP3    H2 4322   0.131   6.683   1.450
 1461TIP3   OH2 4323   5.457   4.144   2.738
 1461TIP3    H1 4324   5.519   4.176   2.803
 1461TIP3    H2 4325   5.463   4.049   2.743
 1462TIP3   OH2 4326   6.357   1.106   4.043
 1462TIP3    H1 4327   6.416   1.176   4.074
 1462TIP3    H2 4328   6.383   1.092   3.952
 1463TIP3   OH2 4329   2.612   4.753   5.634
 1463TIP3    H1 4330   2.682   4.808   5.669
 1463TIP3    H2 4331   2.652   4.667   5.626
 1464TIP3   OH2 4332   5.880   1.000   3.195
 1464TIP3    H1 4333   5.862   0.907   3.187
 1464TIP3    H2 4334   5.847   1.024   3.282
 1465TIP3   OH2 4335   7.478   2.850   3.833
 1465TIP3    H1 4336   7.569   2.822   3.823
 1465TIP3    H2 4337   7.471   2.927   3.776
 1466TIP3   OH2 4338   5.815   2.312   5.862
 1466TIP3    H1 4339   5.836   2.269   5.779
 1466TIP3    H2 4340   5.826   2.243   5.928
 1467TIP3   OH2 4341   3.780   7.240   6.858
 1467TIP3    H1 4342   3.713   7.244   6.926
 1467TIP3    H2 4343   3.744   7.291   6.785
 1468TIP3   OH2 4344   8.389   2.216   1.342
 1468TIP3    H1 4345   8.336   2.231   1.264
 1468TIP3    H2 4346   8.370   2.291   1.399
 1469TIP3   OH2 4347   4.251   1.608   5.587
 1469TIP3    H1 4348   4.222   1.690   5.627
 1469TIP3    H2 4349   4.171   1.557   5.576
 1470TIP3   OH2 4350   7.158   3.114   2.394
 1470TIP3    H1 4351   7.183   3.060   2.319
 1470TIP3    H2 4352   7.069   3.087   2.414
 1471TIP3   OH2 4353   5.935   5.519   5.828
 1471TIP3    H1 4354   6.029   5.501   5.819
 1471TIP3    H2 4355   5.898   5.489   5.745
 1472TIP3   OH2 4356   7.516   4.126   1.239
 1472TIP3    H1 4357   7.488   4.178   1.163
 1472TIP3    H2 4358   7.578   4.062   1.202
 1473TIP3   OH2 4359   7.629   2.085   0.668
 1473TIP3    H1 4360   7.570   2.159   0.651
 1473TIP3    H2 4361   7.710   2.127   0.698
 1474TIP3   OH2 4362   6.020   0.201   0.065
 1474TIP3    H1 4363   6.095   0.143   0.050
 1474TIP3    H2 4364   5.943   0.144   0.056
 1475TIP3   OH2 4365   6.532   1.728   0.598
 1475TIP3    H1 4366   6.535   1.823   0.604
 1475TIP3    H2 4367   6.494   1.710   0.512
 1476TIP3   OH2 4368   2.209   1.390   5.981
 1476TIP3    H1 4369   2.215   1.456   6.050
 1476TIP3    H2 4370   2.272   1.418   5.915
 1477TIP3   OH2 4371   5.986   6.243   3.270
 1477TIP3    H1 4372   5.926   6.179   3.234
 1477TIP3    H2 4373   6.071   6.199   3.273
 1478TIP3   OH2 4374   2.111   3.087   0.636
 1478TIP3    H1 4375   2.095   3.028   0.710
 1478TIP3    H2 4376   2.024   3.102   0.599
 1479TIP3   OH2 4377   5.316   3.336   0.316
 1479TIP3    H1 4378   5.395   3.327   0.263
 1479TIP3    H2 4379   5.318   3.261   0.375
 1480TIP3   OH2 4380   5.696   6.906   1.446
 1480TIP3    H1 4381   5.681   6.819   1.410
 1480TIP3    H2 4382   5.654   6.965   1.383
 1481TIP3   OH2 4383   1.286   2.643   4.552
 1481TIP3    H1 4384   1.343   2.570   4.528
 1481TIP3    H2 4385   1.249   2.673   4.469
 1482TIP3   OH2 4386   1.833   6.202   0.692
 1482TIP3    H1 4387   1.774   6.252   0.636
 1482TIP3    H2 4388   1.920   6.219   0.656
 1483TIP3   OH2 4389   5.695   2.858   3.775
 1483TIP3    H1 4390   5.758   2.920   3.812
 1483TIP3    H2 4391   5.692   2.880   3.682
 1484TIP3   OH2 4392   7.188   5.989   2.131
 1484TIP3    H1 4393   7.232   6.024   2.208
 1484TIP3    H2 4394   7.258   5.947   2.080
 1485TIP3   OH2 4395   1.019   7.453   0.035
 1485TIP3    H1 4396   1.080   7.421  -0.031
 1485TIP3    H2 4397   0.949   7.387   0.037
 1486TIP3   OH2 4398   4.394   2.249   6.711
 1486TIP3    H1 4399   4.452   2.174   6.696
 1486TIP3    H2 4400   4.416   2.311   6.642
 1487TIP3   OH2 4401   2.553   7.054   1.077
 1487TIP3    H1 4402   2.462   7.081   1.091
 1487TIP3    H2 4403   2.548   6.960   1.059
 1488TIP3   OH2 4404   4.800   5.917   1.541
 1488TIP3    H1 4405   4.778   6.010   1.535
 1488TIP3    H2 4406   4.896   5.915   1.539
 1489TIP3   OH2 4407   7.535   6.710   0.389
 1489TIP3    H1 4408   7.626   6.682   0.375
 1489TIP3    H2 4409   7.532   6.733   0.482
 1490TIP3   OH2 4410   1.553   5.431   0.195
 1490TIP3    H1 4411   1.536   5.471   0.281
 1490TIP3    H2 4412   1.647   5.442   0.182
 1491TIP3   OH2 4413   8.379   4.843   0.048
 1491TIP3    H1 4414   8.294   4.848   0.092
 1491TIP3    H2 4415   8.401   4.749   0.050
 1492TIP3   OH2 4416   1.858   6.842   6.090
 1492TIP3    H1 4417   1.834   6.874   6.003
 1492TIP3    H2 4418   1.874   6.749   6.077
 1493TIP3   OH2 4419   2.193   2.797   1.083
 1493TIP3    H1 4420   2.227   2.839   1.162
 1493TIP3    H2 4421   2.236   2.712   1.080
 1494TIP3   OH2 4422   5.654   3.228   6.181
 1494TIP3    H1 4423   5.592   3.214   6.253
 1494TIP3    H2 4424   5.599   3.233   6.103
 1495TIP3   OH2 4425   5.085   3.851   4.191
 1495TIP3    H1 4426   5.065   3.774   4.138
 1495TIP3    H2 4427   5.153   3.898   4.141
 1496TIP3   OH2 4428   7.382   6.541   0.223
 1496TIP3    H1 4429   7.443   6.596   0.272
 1496TIP3    H2 4430   7.295   6.572   0.251
 1497TIP3   OH2 4431   1.115   0.230   2.355
 1497TIP3    H1 4432   1.046   0.282   2.314
 1497TIP3    H2 4433   1.146   0.172   2.286
 1498TIP3   OH2 4434   7.600   5.297   2.719
 1498TIP3    H1 4435   7.658   5.328   2.789
 1498TIP3    H2 4436   7.610   5.202   2.720
 1499TIP3   OH2 4437   3.157   7.713   2.837
 1499TIP3    H1 4438   3.079   7.671   2.801
 1499TIP3    H2 4439   3.124   7.768   2.908
 1500TIP3   OH2 4440   5.390   6.712   3.561
 1500TIP3    H1 4441   5.382   6.620   3.587
 1500TIP3    H2 4442   5.401   6.759   3.644
 1501TIP3   OH2 4443   6.467   3.649   5.593
 1501TIP3    H1 4444   6.562   3.639   5.594
 1501TIP3    H2 4445   6.454   3.743   5.585
 1502TIP3   OH2 4446   7.087   5.736   6.488
 1502TIP3    H1 4447   7.057   5.777   6.408
 1502TIP3    H2 4448   7.177   5.768   6.499
 1503TIP3   OH2 4449   6.193   0.495   3.380
 1503TIP3    H1 4450   6.138   0.563   3.419
 1503TIP3    H2 4451   6.149   0.474   3.297
 1504TIP3   OH2 4452   3.069   0.318   0.192
 1504TIP3    H1 4453   3.029   0.270   0.120
 1504TIP3    H2 4454   3.033   0.279   0.271
 1505TIP3   OH2 4455   0.476   4.220   2.137
 1505TIP3    H1 4456   0.511   4.195   2.223
 1505TIP3    H2 4457   0.435   4.140   2.104
 1506TIP3   OH2 4458   5.000   4.933   6.736
 1506TIP3    H1 4459   5.013   4.880   6.658
 1506TIP3    H2 4460   5.074   4.910   6.793
 1507TIP3   OH2 4461   8.129   5.026   5.751
 1507TIP3    H1 4462   8.147   5.120   5.762
 1507TIP3    H2 4463   8.213   4.983   5.768
 1508TIP3   OH2 4464   7.116   4.737   0.179
 1508TIP3    H1 4465   7.198   4.776   0.210
 1508TIP3    H2 4466   7.048   4.780   0.230
 1509TIP3   OH2 4467   7.036   0.487   3.783
 1509TIP3    H1 4468   7.087   0.527   3.854
 1509TIP3    H2 4469   6.961   0.545   3.771
 1510TIP3   OH2 4470   7.288   1.109   1.676
 1510TIP3    H1 4471   7.359   1.130   1.615
 1510TIP3    H2 4472   7.213   1.157   1.642
 1511TIP3   OH2 4473   3.493   2.315   4.764
 1511TIP3    H1 4474   3.421   2.276   4.814
 1511TIP3    H2 4475   3.462   2.404   4.744
 1512TIP3   OH2 4476   5.663   3.554   2.449
 1512TIP3    H1 4477   5.663   3.634   2.397
 1512TIP3    H2 4478   5.669   3.584   2.540
 1513TIP3   OH2 4479   5.656   4.352   3.167
 1513TIP3    H1 4480   5.588   4.416   3.185
 1513TIP3    H2 4481   5.680   4.367   3.076
 1514TIP3   OH2 4482   0.812   7.046   5.286
 1514TIP3    H1 4483   0.813   7.094   5.203
 1514TIP3    H2 4484   0.841   7.110   5.351
 1515TIP3   OH2 4485   3.636   2.748   0.009
 1515TIP3    H1 4486   3.641   2.811   0.080
 1515TIP3    H2 4487   3.576   2.787  -0.054
 1516TIP3   OH2 4488   2.791   4.958   1.268
 1516TIP3    H1 4489   2.790   5.042   1.314
 1516TIP3    H2 4490   2.791   4.892   1.338
 1517TIP3   OH2 4491   7.682   5.995   4.963
 1517TIP3    H1 4492   7.642   5.977   5.048
 1517TIP3    H2 4493   7.712   5.909   4.932
 1518TIP3   OH2 4494   3.834   3.999   2.685
 1518TIP3    H1 4495   3.847   3.913   2.726
 1518TIP3    H2 4496   3.756   3.989   2.632
 1519TIP3   OH2 4497   0.472   5.018   3.862
 1519TIP3    H1 4498   0.408   5.077   3.902
 1519TIP3    H2 4499   0.483   4.948   3.926
 1520TIP3   OH2 4500   3.294   0.752   0.136
 1520TIP3    H1 4501   3.308   0.688   0.206
 1520TIP3    H2 4502   3.211   0.795   0.159
 1521TIP3   OH2 4503   7.689   4.218   0.091
 1521TIP3    H1 4504   7.750   4.145   0.101
 1521TIP3    H2 4505   7.740   4.287   0.049
 1522TIP3   OH2 4506   6.893   2.231   3.168
 1522TIP3    H1 4507   6.872   2.323   3.184
 1522TIP3    H2 4508   6.957   2.209   3.237
 1523TIP3   OH2 4509   6.589   1.835   6.477
 1523TIP3    H1 4510   6.534   1.759   6.460
 1523TIP3    H2 4511   6.675   1.810   6.444
 1524TIP3   OH2 4512   4.748   3.761   3.916
 1524TIP3    H1 4513   4.673   3.702   3.912
 1524TIP3    H2 4514   4.739   3.816   3.838
 1525TIP3   OH2 4515   1.985   0.484   6.222
 1525TIP3    H1 4516   1.893   0.472   6.247
 1525TIP3    H2 4517   2.014   0.396   6.196
 1526TIP3   OH2 4518   4.647   3.107   0.461
 1526TIP3    H1 4519   4.559   3.069   0.464
 1526TIP3    H2 4520   4.632   3.201   0.463
 1527TIP3   OH2 4521   5.986   6.631   3.493
 1527TIP3    H1 4522   6.020   6.670   3.412
 1527TIP3    H2 4523   5.935   6.555   3.463
 1528TIP3   OH2 4524   7.377   5.650   3.962
 1528TIP3    H1 4525   7.398   5.735   3.925
 1528TIP3    H2 4526   7.424   5.649   4.046
 1529TIP3   OH2 4527   4.789   3.734   1.664
 1529TIP3    H1 4528   4.767   3.784   1.585
 1529TIP3    H2 4529   4.882   3.715   1.654
 1530TIP3   OH2 4530   1.562   3.631   5.136
 1530TIP3    H1 4531   1.539   3.549   5.178
 1530TIP3    H2 4532   1.479   3.674   5.118
 1531TIP3   OH2 4533   0.555   6.154   5.845
 1531TIP3    H1 4534   0.641   6.137   5.885
 1531TIP3    H2 4535   0.551   6.249   5.838
 1532TIP3   OH2 4536   8.327   3.264   5.606
 1532TIP3    H1 4537   8.362   3.175   5.611
 1532TIP3    H2 4538   8.268   3.263   5.530
 1533TIP3   OH2 4539   2.533   7.884   3.517
 1533TIP3    H1 4540   2.468   7.905   3.583
 1533TIP3    H2 4541   2.586   7.815   3.557
 1534TIP3   OH2 4542   2.578   1.452   1.934
 1534TIP3    H1 4543   2.588   1.537   1.889
 1534TIP3    H2 4544   2.612   1.468   2.022
 1535TIP3   OH2 4545   1.363   1.302   3.402
 1535TIP3    H1 4546   1.445   1.254   3.412
 1535TIP3    H2 4547   1.331   1.313   3.492
 1536TIP3   OH2 4548   1.517   3.228   4.077
 1536TIP3    H1 4549   1.585   3.245   4.012
 1536TIP3    H2 4550   1.560   3.176   4.145
 1537TIP3   OH2 4551   0.315   6.928   4.818
 1537TIP3    H1 4552   0.321   7.024   4.818
 1537TIP3    H2 4553   0.343   6.903   4.906
 1538TIP3   OH2 4554   8.042   5.891   1.838
 1538TIP3    H1 4555   7.978   5.961   1.852
 1538TIP3    H2 4556   8.124   5.937   1.822
 1539TIP3   OH2 4557   1.604   6.442   6.647
 1539TIP3    H1 4558   1.680   6.494   6.674
 1539TIP3    H2 4559   1.565   6.412   6.729
 1540TIP3   OH2 4560   2.237   1.070   2.465
 1540TIP3    H1 4561   2.284   1.027   2.394
 1540TIP3    H2 4562   2.159   1.107   2.424
 1541TIP3   OH2 4563   3.710   7.546   2.445
 1541TIP3    H1 4564   3.701   7.457   2.409
 1541TIP3    H2 4565   3.764   7.592   2.381
 1542TIP3   OH2 4566   5.363   5.789   2.191
 1542TIP3    H1 4567   5.364   5.792   2.095
 1542TIP3    H2 4568   5.333   5.700   2.211
 1543TIP3   OH2 4569   1.279   2.606   1.611
 1543TIP3    H1 4570   1.190   2.642   1.615
 1543TIP3    H2 4571   1.288   2.575   1.521
 1544TIP3   OH2 4572   3.017   5.236   4.162
 1544TIP3    H1 4573   2.995   5.152   4.120
 1544TIP3    H2 4574   3.100   5.220   4.206
 1545TIP3   OH2 4575   6.213   3.460   3.209
 1545TIP3    H1 4576   6.219   3.383   3.153
 1545TIP3    H2 4577   6.146   3.438   3.273
 1546TIP3   OH2 4578   5.047   6.180   0.780
 1546TIP3    H1 4579   5.093   6.236   0.718
 1546TIP3    H2 4580   4.961   6.165   0.741
 1547TIP3   OH2 4581   5.913   1.700   1.259
 1547TIP3    H1 4582   5.904   1.795   1.258
 1547TIP3    H2 4583   5.853   1.671   1.328
 1548TIP3   OH2 4584   4.205   3.785   1.929
 1548TIP3    H1 4585   4.282   3.841   1.939
 1548TIP3    H2 4586   4.240   3.696   1.921
 1549TIP3   OH2 4587   6.693   5.979   1.662
 1549TIP3    H1 4588   6.778   6.022   1.656
 1549TIP3    H2 4589   6.676   5.947   1.573
 1550TIP3   OH2 4590   4.791   1.134   5.715
 1550TIP3    H1 4591   4.744   1.216   5.701
 1550TIP3    H2 4592   4.874   1.145   5.668
 1551TIP3   OH2 4593   4.805   0.499   0.814
 1551TIP3    H1 4594   4.720   0.456   0.828
 1551TIP3    H2 4595   4.796   0.542   0.729
 1552TIP3   OH2 4596   0.108   1.319   2.918
 1552TIP3    H1 4597   0.197   1.332   2.950
 1552TIP3    H2 4598   0.094   1.224   2.924
 1553TIP3   OH2 4599   6.397   4.104   4.267
 1553TIP3    H1 4600   6.439   4.157   4.199
 1553TIP3    H2 4601   6.322   4.065   4.223
 1554TIP3   OH2 4602   7.192   0.339   3.592
 1554TIP3    H1 4603   7.125   0.381   3.646
 1554TIP3    H2 4604   7.271   0.342   3.646
 1555TIP3   OH2 4605   1.643   1.182   6.302
 1555TIP3    H1 4606   1.673   1.256   6.355
 1555TIP3    H2 4607   1.723   1.132   6.284
 1556TIP3   OH2 4608   4.792   6.166   2.278
 1556TIP3    H1 4609   4.714   6.155   2.223
 1556TIP3    H2 4610   4.836   6.244   2.242
 1557TIP3   OH2 4611   5.027   7.395   3.329
 1557TIP3    H1 4612   5.119   7.376   3.348
 1557TIP3    H2 4613   5.012   7.353   3.244
 1558TIP3   OH2 4614   3.596   0.946   2.297
 1558TIP3    H1 4615   3.587   0.888   2.372
 1558TIP3    H2 4616   3.522   0.924   2.240
 1559TIP3   OH2 4617   3.440   0.952   1.026
 1559TIP3    H1 4618   3.465   0.953   0.933
 1559TIP3    H2 4619   3.434   0.860   1.049
 1560TIP3   OH2 4620   2.371   2.846   0.886
 1560TIP3    H1 4621   2.321   2.803   0.817
 1560TIP3    H2 4622   2.309   2.857   0.957
 1561TIP3   OH2 4623   7.586   4.498   3.037
 1561TIP3    H1 4624   7.575   4.420   3.092
 1561TIP3    H2 4625   7.594   4.570   3.100
 1562TIP3   OH2 4626   2.317   2.436   1.922
 1562TIP3    H1 4627   2.315   2.501   1.993
 1562TIP3    H2 4628   2.301   2.487   1.843
 1563TIP3   OH2 4629   2.937   4.812   5.018
 1563TIP3    H1 4630   2.960   4.846   4.931
 1563TIP3    H2 4631   2.844   4.792   5.012
 1564TIP3   OH2 4632   5.926   3.243   2.024
 1564TIP3    H1 4633   5.967   3.157   2.021
 1564TIP3    H2 4634   5.990   3.301   1.981
 1565TIP3   OH2 4635   5.977   7.748   5.301
 1565TIP3    H1 4636   5.906   7.774   5.360
 1565TIP3    H2 4637   5.987   7.654   5.315
 1566TIP3   OH2 4638   7.875   6.359   5.219
 1566TIP3    H1 4639   7.860   6.320   5.133
 1566TIP3    H2 4640   7.970   6.362   5.228
 1567TIP3   OH2 4641   1.709   4.278   1.837
 1567TIP3    H1 4642   1.714   4.374   1.836
 1567TIP3    H2 4643   1.750   4.251   1.755
 1568TIP3   OH2 4644   0.623   0.724   6.262
 1568TIP3    H1 4645   0.618   0.647   6.206
 1568TIP3    H2 4646   0.688   0.701   6.328
 1569TIP3   OH2 4647   5.736   0.558   1.990
 1569TIP3    H1 4648   5.693   0.482   1.950
 1569TIP3    H2 4649   5.667   0.623   1.998
 1570TIP3   OH2 4650   7.454   5.532   2.670
 1570TIP3    H1 4651   7.387   5.544   2.737
 1570TIP3    H2 4652   7.493   5.447   2.690
 1571TIP3   OH2 4653   7.585   0.571   6.482
 1571TIP3    H1 4654   7.528   0.648   6.477
 1571TIP3    H2 4655   7.543   0.506   6.426
 1572TIP3   OH2 4656   5.221   0.338   1.966
 1572TIP3    H1 4657   5.170   0.283   1.906
 1572TIP3    H2 4658   5.155   0.377   2.023
 1573TIP3   OH2 4659   1.339   6.596   3.046
 1573TIP3    H1 4660   1.391   6.607   2.966
 1573TIP3    H2 4661   1.338   6.683   3.086
 1574TIP3   OH2 4662   4.532   5.991   1.330
 1574TIP3    H1 4663   4.623   6.008   1.304
 1574TIP3    H2 4664   4.481   6.013   1.252
 1575TIP3   OH2 4665   3.950   5.959   2.302
 1575TIP3    H1 4666   3.979   6.047   2.280
 1575TIP3    H2 4667   3.861   5.954   2.268
 1576TIP3   OH2 4668   7.562   0.718   2.618
 1576TIP3    H1 4669   7.638   0.669   2.649
 1576TIP3    H2 4670   7.545   0.782   2.687
 1577TIP3   OH2 4671   7.386   2.824   2.577
 1577TIP3    H1 4672   7.439   2.899   2.606
 1577TIP3    H2 4673   7.314   2.820   2.640
 1578TIP3   OH2 4674   1.193   6.554   0.749
 1578TIP3    H1 4675   1.243   6.493   0.694
 1578TIP3    H2 4676   1.181   6.631   0.694
 1579TIP3   OH2 4677   5.146   6.631   5.258
 1579TIP3    H1 4678   5.212   6.563   5.250
 1579TIP3    H2 4679   5.188   6.710   5.224
 1580TIP3   OH2 4680   2.276   1.079   6.362
 1580TIP3    H1 4681   2.234   1.043   6.285
 1580TIP3    H2 4682   2.297   1.169   6.338
 1581TIP3   OH2 4683   0.226   3.823   6.533
 1581TIP3    H1 4684   0.264   3.879   6.602
 1581TIP3    H2 4685   0.140   3.862   6.516
 1582TIP3   OH2 4686   7.420   3.697   0.570
 1582TIP3    H1 4687   7.400   3.761   0.502
 1582TIP3    H2 4688   7.343   3.696   0.626
 1583TIP3   OH2 4689   8.162   3.886   5.286
 1583TIP3    H1 4690   8.140   3.828   5.359
 1583TIP3    H2 4691   8.083   3.889   5.233
 1584TIP3   OH2 4692   3.139   4.234   4.453
 1584TIP3    H1 4693   3.216   4.252   4.400
 1584TIP3    H2 4694   3.157   4.149   4.494
 1585TIP3   OH2 4695   3.876   0.046   0.883
 1585TIP3    H1 4696   3.822   0.108   0.834
 1585TIP3    H2 4697   3.867   0.073   0.974
 1586TIP3   OH2 4698   1.341   1.143   1.786
 1586TIP3    H1 4699   1.338   1.048   1.772
 1586TIP3    H2 4700   1.371   1.179   1.703
 1587TIP3   OH2 4701   1.065   4.059   1.160
 1587TIP3    H1 4702   1.112   3.987   1.118
 1587TIP3    H2 4703   0.973   4.045   1.135
 1588TIP3   OH2 4704   1.654   6.560   1.136
 1588TIP3    H1 4705   1.696   6.587   1.055
 1588TIP3    H2 4706   1.576   6.512   1.108
 1589TIP3   OH2 4707   5.058   6.490   6.095
 1589TIP3    H1 4708   5.106   6.569   6.118
 1589TIP3    H2 4709   5.039   6.499   6.002
 1590TIP3   OH2 4710   6.812   4.481   1.099
 1590TIP3    H1 4711   6.823   4.395   1.141
 1590TIP3    H2 4712   6.765   4.462   1.018
 1591TIP3   OH2 4713   7.365   6.335   4.051
 1591TIP3    H1 4714   7.282   6.361   4.013
 1591TIP3    H2 4715   7.418   6.305   3.977
 1592TIP3   OH2 4716   0.182   6.973   5.835
 1592TIP3    H1 4717   0.274   6.948   5.826
 1592TIP3    H2 4718   0.163   7.023   5.756
 1593TIP3   OH2 4719   3.936   3.719   1.104
 1593TIP3    H1 4720   3.877   3.795   1.100
 1593TIP3    H2 4721   3.924   3.684   1.192
 1594TIP3   OH2 4722   6.712   6.403   5.126
 1594TIP3    H1 4723   6.696   6.459   5.050
 1594TIP3    H2 4724   6.738   6.463   5.196
 1595TIP3   OH2 4725   6.084   4.266   6.124
 1595TIP3    H1 4726   5.995   4.231   6.117
 1595TIP3    H2 4727   6.078   4.336   6.189
 1596TIP3   OH2 4728   4.454   3.430   3.603
 1596TIP3    H1 4729   4.506   3.416   3.524
 1596TIP3    H2 4730   4.519   3.442   3.673
 1597TIP3   OH2 4731   3.970   3.494   0.207
 1597TIP3    H1 4732   4.025   3.559   0.164
 1597TIP3    H2 4733   4.023   3.415   0.210
 1598TIP3   OH2 4734   5.662   7.071   4.302
 1598TIP3    H1 4735   5.689   6.984   4.333
 1598TIP3    H2 4736   5.568   7.062   4.285
 1599TIP3   OH2 4737   5.716   5.628   5.916
 1599TIP3    H1 4738   5.740   5.597   6.003
 1599TIP3    H2 4739   5.797   5.620   5.865
 1600TIP3   OH2 4740   5.708   5.538   2.499
 1600TIP3    H1 4741   5.650   5.574   2.565
 1600TIP3    H2 4742   5.651   5.518   2.425
 1601TIP3   OH2 4743   3.781   1.815   5.266
 1601TIP3    H1 4744   3.849   1.825   5.199
 1601TIP3    H2 4745   3.806   1.736   5.314
 1602TIP3   OH2 4746   5.705   1.488   3.588
 1602TIP3    H1 4747   5.666   1.561   3.636
 1602TIP3    H2 4748   5.791   1.476   3.628
 1603TIP3   OH2 4749   5.135   7.060   2.385
 1603TIP3    H1 4750   5.100   7.014   2.309
 1603TIP3    H2 4751   5.058   7.082   2.438
 1604TIP3   OH2 4752   5.910   3.828   2.585
 1604TIP3    H1 4753   5.944   3.874   2.509
 1604TIP3    H2 4754   5.932   3.736   2.570
 1605TIP3   OH2 4755   3.625   5.550   2.518
 1605TIP3    H1 4756   3.697   5.559   2.580
 1605TIP3    H2 4757   3.565   5.488   2.558
 1606TIP3   OH2 4758   0.421   5.062   2.040
 1606TIP3    H1 4759   0.340   5.026   2.005
 1606TIP3    H2 4760   0.456   5.117   1.970
 1607TIP3   OH2 4761   4.926   7.865   4.179
 1607TIP3    H1 4762   4.996   7.813   4.218
 1607TIP3    H2 4763   4.969   7.948   4.156
 1608TIP3   OH2 4764   5.246   2.198   4.438
 1608TIP3    H1 4765   5.201   2.114   4.434
 1608TIP3    H2 4766   5.294   2.204   4.356
 1609TIP3   OH2 4767   3.720   3.027   4.064
 1609TIP3    H1 4768   3.775   2.949   4.062
 1609TIP3    H2 4769   3.771   3.092   4.112
 1610TIP3   OH2 4770   6.424   4.504   3.215
 1610TIP3    H1 4771   6.430   4.596   3.242
 1610TIP3    H2 4772   6.330   4.488   3.204
 1611TIP3   OH2 4773   0.889   7.051   6.166
 1611TIP3    H1 4774   0.877   7.035   6.072
 1611TIP3    H2 4775   0.961   6.994   6.191
 1612TIP3   OH2 4776   3.615   1.589   5.562
 1612TIP3    H1 4777   3.615   1.680   5.592
 1612TIP3    H2 4778   3.697   1.580   5.513
 1613TIP3   OH2 4779   1.124   6.411   4.706
 1613TIP3    H1 4780   1.103   6.427   4.613
 1613TIP3    H2 4781   1.190   6.477   4.727
 1614TIP3   OH2 4782   5.250   5.487   0.194
 1614TIP3    H1 4783   5.260   5.401   0.236
 1614TIP3    H2 4784   5.285   5.549   0.258
 1615TIP3   OH2 4785   5.720   2.695   1.707
 1615TIP3    H1 4786   5.727   2.787   1.683
 1615TIP3    H2 4787   5.643   2.663   1.660
 1616TIP3   OH2 4788   0.731   7.095   6.407
 1616TIP3    H1 4789   0.754   7.076   6.316
 1616TIP3    H2 4790   0.726   7.009   6.449
 1617TIP3   OH2 4791   6.456   3.673   3.841
 1617TIP3    H1 4792   6.431   3.659   3.933
 1617TIP3    H2 4793   6.489   3.763   3.838
 1618TIP3   OH2 4794   3.488   3.182   5.828
 1618TIP3    H1 4795   3.520   3.267   5.796
 1618TIP3    H2 4796   3.416   3.160   5.769
 1619TIP3   OH2 4797   7.858   1.750   4.174
 1619TIP3    H1 4798   7.888   1.660   4.159
 1619TIP3    H2 4799   7.915   1.782   4.244
 1620TIP3   OH2 4800   0.298   0.937   2.544
 1620TIP3    H1 4801   0.310   0.927   2.450
 1620TIP3    H2 4802   0.235   1.008   2.554
 1621TIP3   OH2 4803   7.603   6.859   0.636
 1621TIP3    H1 4804   7.689   6.816   0.634
 1621TIP3    H2 4805   7.557   6.818   0.709
 1622TIP3   OH2 4806   4.810   3.956   4.132
 1622TIP3    H1 4807   4.902   3.975   4.115
 1622TIP3    H2 4808   4.778   3.921   4.049
 1623TIP3   OH2 4809   7.478   1.219   2.190
 1623TIP3    H1 4810   7.496   1.278   2.263
 1623TIP3    H2 4811   7.382   1.218   2.183
 1624TIP3   OH2 4812   0.519   0.489   5.401
 1624TIP3    H1 4813   0.471   0.428   5.345
 1624TIP3    H2 4814   0.475   0.483   5.486
 1625TIP3   OH2 4815   1.008   0.912   3.997
 1625TIP3    H1 4816   1.076   0.950   3.942
 1625TIP3    H2 4817   1.052   0.892   4.080
 1626TIP3   OH2 4818   5.748   2.977   4.596
 1626TIP3    H1 4819   5.716   3.033   4.666
 1626TIP3    H2 4820   5.748   3.034   4.518
 1627TIP3   OH2 4821   2.469   7.211   4.573
 1627TIP3    H1 4822   2.562   7.232   4.573
 1627TIP3    H2 4823   2.425   7.294   4.593
 1628TIP3   OH2 4824   0.229   0.625   5.843
 1628TIP3    H1 4825   0.197   0.534   5.837
 1628TIP3    H2 4826   0.174   0.673   5.781
 1629TIP3   OH2 4827   5.777   7.330   6.289
 1629TIP3    H1 4828   5.758   7.347   6.381
 1629TIP3    H2 4829   5.771   7.235   6.281
 1630TIP3   OH2 4830   3.188   5.042   2.425
 1630TIP3    H1 4831   3.148   4.982   2.488
 1630TIP3    H2 4832   3.215   4.986   2.353
 1631TIP3   OH2 4833   2.909   3.957   0.170
 1631TIP3    H1 4834   3.004   3.950   0.171
 1631TIP3    H2 4835   2.882   3.928   0.257
 1632TIP3   OH2 4836   3.488   4.973   0.418
 1632TIP3    H1 4837   3.491   5.065   0.393
 1632TIP3    H2 4838   3.436   4.931   0.350
 1633TIP3   OH2 4839   0.226   1.578   0.673
 1633TIP3    H1 4840   0.292   1.522   0.714
 1633TIP3    H2 4841   0.145   1.557   0.720
 1634TIP3   OH2 4842   5.378   3.489   5.297
 1634TIP3    H1 4843   5.369   3.404   5.252
 1634TIP3    H2 4844   5.297   3.500   5.346
 1635TIP3   OH2 4845   4.241   3.100   3.940
 1635TIP3    H1 4846   4.250   3.165   3.871
 1635TIP3    H2 4847   4.186   3.032   3.902
 1636TIP3   OH2 4848   2.431   1.702   0.179
 1636TIP3    H1 4849   2.515   1.748   0.183
 1636TIP3    H2 4850   2.435   1.639   0.252
 1637TIP3   OH2 4851   6.329   7.857   3.799
 1637TIP3    H1 4852   6.362   7.865   3.709
 1637TIP3    H2 4853   6.359   7.771   3.828
 1638TIP3   OH2 4854   5.195   5.173   4.898
 1638TIP3    H1 4855   5.142   5.128   4.964
 1638TIP3    H2 4856   5.207   5.109   4.829
 1639TIP3   OH2 4857   3.172   7.125   4.256
 1639TIP3    H1 4858   3.245   7.093   4.202
 1639TIP3    H2 4859   3.097   7.126   4.196
 1640TIP3   OH2 4860   2.708   4.747   2.566
 1640TIP3    H1 4861   2.692   4.696   2.487
 1640TIP3    H2 4862   2.711   4.838   2.537
 1641TIP3   OH2 4863   7.197   0.592   5.988
 1641TIP3    H1 4864   7.106   0.617   5.970
 1641TIP3    H2 4865   7.246   0.623   5.912
 1642TIP3   OH2 4866   2.068   2.009   1.587
 1642TIP3    H1 4867   2.011   2.041   1.516
 1642TIP3    H2 4868   2.136   1.960   1.542
 1643TIP3   OH2 4869   5.043   6.572   6.376
 1643TIP3    H1 4870   4.978   6.545   6.311
 1643TIP3    H2 4871   5.110   6.618   6.326
 1644TIP3   OH2 4872   5.005   6.096   3.869
 1644TIP3    H1 4873   5.028   6.181   3.906
 1644TIP3    H2 4874   4.969   6.116   3.783
 1645TIP3   OH2 4875   7.281   3.205   2.017
 1645TIP3    H1 4876   7.225   3.280   2.038
 1645TIP3    H2 4877   7.337   3.195   2.094
 1646TIP3   OH2 4878   0.324   2.727   3.204
 1646TIP3    H1 4879   0.389   2.748   3.137
 1646TIP3    H2 4880   0.244   2.769   3.172
 1647TIP3   OH2 4881   7.972   0.969   0.119
 1647TIP3    H1 4882   7.949   1.061   0.106
 1647TIP3    H2 4883   7.973   0.958   0.214
 1648TIP3   OH2 4884   7.328   0.701   3.597
 1648TIP3    H1 4885   7.351   0.697   3.690
 1648TIP3    H2 4886   7.395   0.648   3.554
 1649TIP3   OH2 4887   1.560   5.220   1.067
 1649TIP3    H1 4888   1.599   5.241   0.982
 1649TIP3    H2 4889   1.554   5.124   1.067
 1650TIP3   OH2 4890   7.257   6.723   2.749
 1650TIP3    H1 4891   7.260   6.651   2.812
 1650TIP3    H2 4892   7.219   6.796   2.798
 1651TIP3   OH2 4893   3.133   6.997   0.814
 1651TIP3    H1 4894   3.213   7.050   0.816
 1651TIP3    H2 4895   3.135   6.947   0.895
 1652TIP3   OH2 4896   7.611   0.308   5.597
 1652TIP3    H1 4897   7.561   0.246   5.544
 1652TIP3    H2 4898   7.698   0.308   5.558
 1653TIP3   OH2 4899   4.186   6.930   6.060
 1653TIP3    H1 4900   4.146   6.873   6.126
 1653TIP3    H2 4901   4.193   6.875   5.982
 1654TIP3   OH2 4902   8.208   4.930   2.090
 1654TIP3    H1 4903   8.231   4.851   2.041
 1654TIP3    H2 4904   8.275   4.936   2.158
 1655TIP3   OH2 4905   8.428   7.294   5.147
 1655TIP3    H1 4906   8.386   7.322   5.066
 1655TIP3    H2 4907   8.377   7.335   5.216
 1656TIP3   OH2 4908   1.574   3.118   2.012
 1656TIP3    H1 4909   1.536   3.086   1.930
 1656TIP3    H2 4910   1.541   3.207   2.020
 1657TIP3   OH2 4911   2.504   7.333   3.196
 1657TIP3    H1 4912   2.567   7.335   3.268
 1657TIP3    H2 4913   2.455   7.415   3.206
 1658TIP3   OH2 4914   7.137   3.473   2.416
 1658TIP3    H1 4915   7.044   3.492   2.408
 1658TIP3    H2 4916   7.173   3.547   2.465
 1659TIP3   OH2 4917   4.565   4.527   5.204
 1659TIP3    H1 4918   4.590   4.618   5.190
 1659TIP3    H2 4919   4.599   4.480   5.128
 1660TIP3   OH2 4920   4.080   2.576   3.146
 1660TIP3    H1 4921   4.131   2.513   3.095
 1660TIP3    H2 4922   4.128   2.658   3.140
 1661TIP3   OH2 4923   4.625   6.443   5.467
 1661TIP3    H1 4924   4.531   6.430   5.453
 1661TIP3    H2 4925   4.636   6.538   5.470
 1662TIP3   OH2 4926   2.374   0.160   5.071
 1662TIP3    H1 4927   2.282   0.185   5.069
 1662TIP3    H2 4928   2.391   0.138   5.162
 1663TIP3   OH2 4929   4.053   7.448   3.867
 1663TIP3    H1 4930   3.969   7.409   3.886
 1663TIP3    H2 4931   4.090   7.471   3.952
 1664TIP3   OH2 4932   7.126   5.012   0.810
 1664TIP3    H1 4933   7.125   5.106   0.793
 1664TIP3    H2 4934   7.047   4.996   0.862
 1665TIP3   OH2 4935   1.116   0.054   0.034
 1665TIP3    H1 4936   1.171   0.032  -0.041
 1665TIP3    H2 4937   1.094   0.146   0.022
 1666TIP3   OH2 4938   8.272   0.761   3.098
 1666TIP3    H1 4939   8.267   0.731   3.008
 1666TIP3    H2 4940   8.186   0.740   3.135
 1667TIP3   OH2 4941   4.557   6.624   4.489
 1667TIP3    H1 4942   4.626   6.623   4.424
 1667TIP3    H2 4943   4.516   6.710   4.479
 1668TIP3   OH2 4944   7.779   0.901   1.191
 1668TIP3    H1 4945   7.802   0.960   1.262
 1668TIP3    H2 4946   7.790   0.953   1.111
 1669TIP3   OH2 4947   0.936   3.203   5.586
 1669TIP3    H1 4948   0.933   3.197   5.681
 1669TIP3    H2 4949   0.957   3.114   5.557
 1670TIP3   OH2 4950   4.692   0.977   5.308
 1670TIP3    H1 4951   4.711   0.966   5.401
 1670TIP3    H2 4952   4.616   1.035   5.306
 1671TIP3   OH2 4953   2.988   1.610   5.659
 1671TIP3    H1 4954   2.947   1.552   5.594
 1671TIP3    H2 4955   3.034   1.551   5.718
 1672TIP3   OH2 4956   4.025   2.287   4.739
 1672TIP3    H1 4957   4.120   2.285   4.727
 1672TIP3    H2 4958   4.006   2.377   4.766
 1673TIP3   OH2 4959   0.310   2.332   0.562
 1673TIP3    H1 4960   0.247   2.272   0.523
 1673TIP3    H2 4961   0.360   2.278   0.623
 1674TIP3   OH2 4962   7.918   2.305   3.928
 1674TIP3    H1 4963   7.992   2.330   3.873
 1674TIP3    H2 4964   7.868   2.243   3.876
 1675TIP3   OH2 4965   4.137   1.762   0.809
 1675TIP3    H1 4966   4.174   1.720   0.886
 1675TIP3    H2 4967   4.150   1.856   0.823
 1676TIP3   OH2 4968   5.299   0.059   5.352
 1676TIP3    H1 4969   5.225   0.039   5.295
 1676TIP3    H2 4970   5.368  -0.002   5.325
 1677TIP3   OH2 4971   0.104   2.046   1.903
 1677TIP3    H1 4972   0.142   1.972   1.951
 1677TIP3    H2 4973   0.013   2.021   1.887
 1678TIP3   OH2 4974   6.617   5.621   4.881
 1678TIP3    H1 4975   6.523   5.608   4.898
 1678TIP3    H2 4976   6.623   5.709   4.845
 1679TIP3   OH2 4977   2.530   6.312   3.432
 1679TIP3    H1 4978   2.583   6.387   3.457
 1679TIP3    H2 4979   2.495   6.336   3.346
 1680TIP3   OH2 4980   4.772   0.219   1.566
 1680TIP3    H1 4981   4.750   0.230   1.474
 1680TIP3    H2 4982   4.695   0.178   1.605
 1681TIP3   OH2 4983   2.814   0.826   3.201
 1681TIP3    H1 4984   2.731   0.865   3.227
 1681TIP3    H2 4985   2.809   0.736   3.233
 1682TIP3   OH2 4986   6.667   0.982   3.240
 1682TIP3    H1 4987   6.657   0.894   3.276
 1682TIP3    H2 4988   6.606   1.036   3.291
 1683TIP3   OH2 4989   2.053   6.462   3.326
 1683TIP3    H1 4990   2.076   6.467   3.419
 1683TIP3    H2 4991   1.965   6.423   3.325
 1684TIP3   OH2 4992   8.125   2.564   1.998
 1684TIP3    H1 4993   8.153   2.642   2.044
 1684TIP3    H2 4994   8.155   2.577   1.908
 1685TIP3   OH2 4995   4.225   2.701   0.724
 1685TIP3    H1 4996   4.143   2.686   0.677
 1685TIP3    H2 4997   4.208   2.671   0.813
 1686TIP3   OH2 4998   1.206   6.052   4.551
 1686TIP3    H1 4999   1.130   6.012   4.509
 1686TIP3    H2 5000   1.199   6.027   4.643
 1687TIP3   OH2 5001   2.084   3.881   5.174
 1687TIP3    H1 5002   2.065   3.945   5.105
 1687TIP3    H2 5003   2.179   3.869   5.170
 1688TIP3   OH2 5004   5.014   1.435   3.871
 1688TIP3    H1 5005   5.062   1.422   3.789
 1688TIP3    H2 5006   4.944   1.495   3.848
 1689TIP3   OH2 5007   2.612   5.285   3.611
 1689TIP3    H1 5008   2.646   5.375   3.617
 1689TIP3    H2 5009   2.643   5.244   3.692
 1690TIP3   OH2 5010   2.463   2.954   5.584
 1690TIP3    H1 5011   2.411   2.885   5.544
 1690TIP3    H2 5012   2.526   2.908   5.639
 1691TIP3   OH2 5013   3.507   3.982   1.520
 1691TIP3    H1 5014   3.442   3.920   1.486
 1691TIP3    H2 5015   3.552   3.934   1.590
 1692TIP3   OH2 5016   4.609   6.715   3.611
 1692TIP3    H1 5017   4.550   6.753   3.676
 1692TIP3    H2 5018   4.606   6.621   3.628
 1693TIP3   OH2 5019   1.481   5.008   4.026
 1693TIP3    H1 5020   1.453   5.071   4.093
 1693TIP3    H2 5021   1.399   4.978   3.986
 1694TIP3   OH2 5022   4.896   1.376   6.150
 1694TIP3    H1 5023   4.822   1.409   6.098
 1694TIP3    H2 5024   4.915   1.290   6.112
 1695TIP3   OH2 5025   2.638   2.760   4.649
 1695TIP3    H1 5026   2.655   2.793   4.737
 1695TIP3    H2 5027   2.662   2.832   4.591
 1696TIP3   OH2 5028   1.826   6.752   0.449
 1696TIP3    H1 5029   1.860   6.838   0.425
 1696TIP3    H2 5030   1.905   6.700   0.466
 1697TIP3   OH2 5031   4.744   5.896   2.444
 1697TIP3    H1 5032   4.667   5.916   2.497
 1697TIP3    H2 5033   4.710   5.881   2.356
 1698TIP3   OH2 5034   4.696   3.795   0.922
 1698TIP3    H1 5035   4.772   3.819   0.975
 1698TIP3    H2 5036   4.729   3.726   0.864
 1699TIP3   OH2 5037   6.213   7.219   6.062
 1699TIP3    H1 5038   6.178   7.292   6.113
 1699TIP3    H2 5039   6.141   7.157   6.057
 1700TIP3   OH2 5040   4.512   0.393   4.648
 1700TIP3    H1 5041   4.452   0.328   4.684
 1700TIP3    H2 5042   4.456   0.461   4.613
 1701TIP3   OH2 5043   4.044   5.119   0.641
 1701TIP3    H1 5044   4.077   5.201   0.677
 1701TIP3    H2 5045   4.053   5.129   0.546
 1702TIP3   OH2 5046   3.396   5.295   3.885
 1702TIP3    H1 5047   3.380   5.363   3.950
 1702TIP3    H2 5048   3.437   5.224   3.934
 1703TIP3   OH2 5049   0.396   2.041   2.520
 1703TIP3    H1 5050   0.311   2.074   2.551
 1703TIP3    H2 5051   0.373   1.972   2.458
 1704TIP3   OH2 5052   4.414   0.461   2.464
 1704TIP3    H1 5053   4.436   0.552   2.482
 1704TIP3    H2 5054   4.407   0.421   2.551
 1705TIP3   OH2 5055   7.358   2.444   2.180
 1705TIP3    H1 5056   7.407   2.446   2.262
 1705TIP3    H2 5057   7.310   2.526   2.178
 1706TIP3   OH2 5058   7.246   6.425   6.043
 1706TIP3    H1 5059   7.258   6.332   6.024
 1706TIP3    H2 5060   7.194   6.458   5.970
 1707TIP3   OH2 5061   1.401   1.368   5.863
 1707TIP3    H1 5062   1.464   1.438   5.879
 1707TIP3    H2 5063   1.451   1.287   5.873
 1708TIP3   OH2 5064   2.972   2.281   6.469
 1708TIP3    H1 5065   2.987   2.368   6.431
 1708TIP3    H2 5066   3.059   2.246   6.485
 1709TIP3   OH2 5067   8.071   1.963   5.804
 1709TIP3    H1 5068   8.164   1.959   5.781
 1709TIP3    H2 5069   8.044   2.051   5.779
 1710TIP3   OH2 5070   7.448   2.845   6.258
 1710TIP3    H1 5071   7.433   2.765   6.209
 1710TIP3    H2 5072   7.360   2.873   6.285
 1711TIP3   OH2 5073   6.786   5.781   4.316
 1711TIP3    H1 5074   6.757   5.872   4.316
 1711TIP3    H2 5075   6.753   5.745   4.398
 1712TIP3   OH2 5076   7.367   4.348   0.149
 1712TIP3    H1 5077   7.415   4.270   0.119
 1712TIP3    H2 5078   7.419   4.421   0.116
 1713TIP3   OH2 5079   7.055   4.133   5.336
 1713TIP3    H1 5080   7.042   4.045   5.374
 1713TIP3    H2 5081   7.102   4.117   5.255
 1714TIP3   OH2 5082   3.756   2.212   4.169
 1714TIP3    H1 5083   3.848   2.237   4.162
 1714TIP3    H2 5084   3.736   2.172   4.084
 1715TIP3   OH2 5085   0.612   5.145   6.094
 1715TIP3    H1 5086   0.662   5.225   6.081
 1715TIP3    H2 5087   0.583   5.149   6.185
 1716TIP3   OH2 5088   6.118   0.355   4.715
 1716TIP3    H1 5089   6.037   0.383   4.672
 1716TIP3    H2 5090   6.114   0.259   4.714
 1717TIP3   OH2 5091   2.987   1.555   2.686
 1717TIP3    H1 5092   3.037   1.497   2.743
 1717TIP3    H2 5093   3.052   1.590   2.625
 1718TIP3   OH2 5094   6.433   4.239   1.769
 1718TIP3    H1 5095   6.374   4.166   1.787
 1718TIP3    H2 5096   6.515   4.215   1.813
 1719TIP3   OH2 5097   5.528   5.685   6.212
 1719TIP3    H1 5098   5.467   5.680   6.139
 1719TIP3    H2 5099   5.589   5.613   6.197
 1720TIP3   OH2 5100   3.115   5.598   4.010
 1720TIP3    H1 5101   3.097   5.619   4.101
 1720TIP3    H2 5102   3.048   5.645   3.960
 1721TIP3   OH2 5103   5.902   7.212   1.677
 1721TIP3    H1 5104   5.968   7.179   1.737
 1721TIP3    H2 5105   5.941   7.202   1.590
 1722TIP3   OH2 5106   5.295   5.468   3.140
 1722TIP3    H1 5107   5.207   5.462   3.177
 1722TIP3    H2 5108   5.338   5.535   3.193
 1723TIP3   OH2 5109   6.250   5.906   2.089
 1723TIP3    H1 5110   6.262   5.920   2.182
 1723TIP3    H2 5111   6.249   5.994   2.051
 1724TIP3   OH2 5112   1.340   7.222   4.207
 1724TIP3    H1 5113   1.400   7.161   4.250
 1724TIP3    H2 5114   1.337   7.194   4.116
 1725TIP3   OH2 5115   0.077   0.082   2.572
 1725TIP3    H1 5116   0.159   0.068   2.619
 1725TIP3    H2 5117   0.009   0.073   2.638
 1726TIP3   OH2 5118   2.301   2.604   2.293
 1726TIP3    H1 5119   2.304   2.510   2.275
 1726TIP3    H2 5120   2.339   2.613   2.380
 1727TIP3   OH2 5121   4.756   4.994   3.016
 1727TIP3    H1 5122   4.849   5.011   3.003
 1727TIP3    H2 5123   4.750   4.898   3.023
 1728TIP3   OH2 5124   6.041   3.649   4.112
 1728TIP3    H1 5125   6.040   3.726   4.169
 1728TIP3    H2 5126   6.124   3.656   4.064
 1729TIP3   OH2 5127   2.120   4.791   0.396
 1729TIP3    H1 5128   2.151   4.787   0.306
 1729TIP3    H2 5129   2.068   4.711   0.407
 1730TIP3   OH2 5130   2.956   3.140   2.189
 1730TIP3    H1 5131   2.978   3.125   2.281
 1730TIP3    H2 5132   3.037   3.171   2.149
 1731TIP3   OH2 5133   0.846   4.002   6.624
 1731TIP3    H1 5134   0.793   3.971   6.550
 1731TIP3    H2 5135   0.857   4.096   6.607
 1732TIP3   OH2 5136   0.687   7.349   3.036
 1732TIP3    H1 5137   0.664   7.407   3.109
 1732TIP3    H2 5138   0.604   7.317   3.003
 1733TIP3   OH2 5139   5.153   1.351   5.360
 1733TIP3    H1 5140   5.174   1.380   5.272
 1733TIP3    H2 5141   5.108   1.425   5.400
 1734TIP3   OH2 5142   1.586   6.715   3.684
 1734TIP3    H1 5143   1.623   6.758   3.607
 1734TIP3    H2 5144   1.548   6.634   3.650
 1735TIP3   OH2 5145   5.197   6.221   4.228
 1735TIP3    H1 5146   5.208   6.142   4.175
 1735TIP3    H2 5147   5.170   6.289   4.166
 1736TIP3   OH2 5148   7.641   1.226   5.873
 1736TIP3    H1 5149   7.652   1.315   5.842
 1736TIP3    H2 5150   7.726   1.203   5.912
 1737TIP3   OH2 5151   8.232   1.013   6.419
 1737TIP3    H1 5152   8.149   0.966   6.422
 1737TIP3    H2 5153   8.246   1.043   6.509
 1738TIP3   OH2 5154   3.029   2.686   0.761
 1738TIP3    H1 5155   2.972   2.618   0.797
 1738TIP3    H2 5156   3.097   2.639   0.714
 1739TIP3   OH2 5157   0.992   3.722   1.361
 1739TIP3    H1 5158   1.060   3.708   1.427
 1739TIP3    H2 5159   0.912   3.690   1.403
 1740TIP3   OH2 5160   5.146   6.506   3.327
 1740TIP3    H1 5161   5.179   6.446   3.395
 1740TIP3    H2 5162   5.222   6.523   3.272
 1741TIP3   OH2 5163   7.943   4.680   0.988
 1741TIP3    H1 5164   7.989   4.708   0.909
 1741TIP3    H2 5165   7.875   4.621   0.957
 1742TIP3   OH2 5166   8.401   1.534   2.304
 1742TIP3    H1 5167   8.383   1.548   2.211
 1742TIP3    H2 5168   8.380   1.442   2.320
 1743TIP3   OH2 5169   3.701   7.764   0.514
 1743TIP3    H1 5170   3.735   7.683   0.553
 1743TIP3    H2 5171   3.613   7.773   0.550
 1744TIP3   OH2 5172   4.100   2.881   6.275
 1744TIP3    H1 5173   4.150   2.887   6.193
 1744TIP3    H2 5174   4.018   2.926   6.256
 1745TIP3   OH2 5175   3.848   1.607   0.093
 1745TIP3    H1 5176   3.777   1.562   0.137
 1745TIP3    H2 5177   3.866   1.554   0.015
 1746TIP3   OH2 5178   2.751   3.709   0.091
 1746TIP3    H1 5179   2.692   3.761   0.036
 1746TIP3    H2 5180   2.803   3.774   0.139
 1747TIP3   OH2 5181   3.356   6.157   4.106
 1747TIP3    H1 5182   3.427   6.217   4.080
 1747TIP3    H2 5183   3.281   6.184   4.053
 1748TIP3   OH2 5184   0.275   6.987   1.435
 1748TIP3    H1 5185   0.230   6.909   1.470
 1748TIP3    H2 5186   0.285   6.969   1.342
 1749TIP3   OH2 5187   6.866   0.753   1.521
 1749TIP3    H1 5188   6.819   0.711   1.593
 1749TIP3    H2 5189   6.901   0.681   1.470
 1750TIP3   OH2 5190   6.230   7.724   0.482
 1750TIP3    H1 5191   6.264   7.751   0.567
 1750TIP3    H2 5192   6.302   7.678   0.440
 1751TIP3   OH2 5193   6.389   5.433   4.684
 1751TIP3    H1 5194   6.426   5.404   4.600
 1751TIP3    H2 5195   6.328   5.503   4.660
 1752TIP3   OH2 5196   7.165   0.189   3.198
 1752TIP3    H1 5197   7.223   0.139   3.255
 1752TIP3    H2 5198   7.221   0.219   3.127
 1753TIP3   OH2 5199   2.439   2.528   3.852
 1753TIP3    H1 5200   2.492   2.594   3.807
 1753TIP3    H2 5201   2.361   2.518   3.797
 1754TIP3   OH2 5202   2.325   3.794   2.503
 1754TIP3    H1 5203   2.343   3.844   2.423
 1754TIP3    H2 5204   2.338   3.703   2.477
 1755TIP3   OH2 5205   5.748   6.816   4.402
 1755TIP3    H1 5206   5.654   6.796   4.405
 1755TIP3    H2 5207   5.784   6.773   4.480
 1756TIP3   OH2 5208   1.913   4.150   6.816
 1756TIP3    H1 5209   1.924   4.056   6.799
 1756TIP3    H2 5210   2.002   4.184   6.824
 1757TIP3   OH2 5211   8.400   2.774   3.746
 1757TIP3    H1 5212   8.308   2.767   3.719
 1757TIP3    H2 5213   8.429   2.857   3.708
 1758TIP3   OH2 5214   3.435   6.770   3.397
 1758TIP3    H1 5215   3.523   6.733   3.395
 1758TIP3    H2 5216   3.410   6.765   3.489
 1759TIP3   OH2 5217   3.751   6.617   4.088
 1759TIP3    H1 5218   3.772   6.618   4.182
 1759TIP3    H2 5219   3.694   6.540   4.078
 1760TIP3   OH2 5220   1.065   0.273   1.674
 1760TIP3    H1 5221   0.995   0.328   1.707
 1760TIP3    H2 5222   1.107   0.327   1.606
 1761TIP3   OH2 5223   1.449   3.757   4.509
 1761TIP3    H1 5224   1.482   3.822   4.570
 1761TIP3    H2 5225   1.426   3.807   4.431
 1762TIP3   OH2 5226   2.244   1.042   6.651
 1762TIP3    H1 5227   2.319   1.091   6.685
 1762TIP3    H2 5228   2.240   1.065   6.558
 1763TIP3   OH2 5229   1.016   1.717   1.099
 1763TIP3    H1 5230   1.077   1.791   1.106
 1763TIP3    H2 5231   1.045   1.669   1.021
 1764TIP3   OH2 5232   7.309   5.350   2.435
 1764TIP3    H1 5233   7.262   5.433   2.427
 1764TIP3    H2 5234   7.370   5.364   2.507
 1765TIP3   OH2 5235   6.262   7.620   4.201
 1765TIP3    H1 5236   6.199   7.682   4.162
 1765TIP3    H2 5237   6.237   7.616   4.293
 1766TIP3   OH2 5238   1.803   4.093   0.740
 1766TIP3    H1 5239   1.781   4.017   0.686
 1766TIP3    H2 5240   1.783   4.066   0.829
 1767TIP3   OH2 5241   5.357   5.503   1.757
 1767TIP3    H1 5242   5.373   5.465   1.843
 1767TIP3    H2 5243   5.410   5.582   1.755
 1768TIP3   OH2 5244   7.589   5.720   5.421
 1768TIP3    H1 5245   7.669   5.759   5.455
 1768TIP3    H2 5246   7.534   5.707   5.498
 1769TIP3   OH2 5247   6.157   7.446   5.450
 1769TIP3    H1 5248   6.076   7.427   5.402
 1769TIP3    H2 5249   6.136   7.423   5.541
 1770TIP3   OH2 5250   5.149   7.287   6.440
 1770TIP3    H1 5251   5.175   7.200   6.411
 1770TIP3    H2 5252   5.063   7.301   6.400
 1771TIP3   OH2 5253   2.332   2.945   1.862
 1771TIP3    H1 5254   2.402   2.882   1.874
 1771TIP3    H2 5255   2.265   2.920   1.926
 1772TIP3   OH2 5256   2.608   5.953   0.622
 1772TIP3    H1 5257   2.598   5.859   0.638
 1772TIP3    H2 5258   2.695   5.961   0.584
 1773TIP3   OH2 5259   1.092   7.170   1.184
 1773TIP3    H1 5260   1.005   7.209   1.185
 1773TIP3    H2 5261   1.120   7.174   1.092
 1774TIP3   OH2 5262   6.211   3.053   5.648
 1774TIP3    H1 5263   6.124   3.093   5.656
 1774TIP3    H2 5264   6.213   2.985   5.715
 1775TIP3   OH2 5265   0.335   7.495   4.021
 1775TIP3    H1 5266   0.425   7.500   4.053
 1775TIP3    H2 5267   0.304   7.585   4.021
 1776TIP3   OH2 5268   5.058   0.520   3.696
 1776TIP3    H1 5269   5.127   0.456   3.679
 1776TIP3    H2 5270   4.991   0.471   3.744
 1777TIP3   OH2 5271   3.169   0.841   4.550
 1777TIP3    H1 5272   3.123   0.892   4.484
 1777TIP3    H2 5273   3.108   0.770   4.572
 1778TIP3   OH2 5274   2.693   7.685   0.629
 1778TIP3    H1 5275   2.637   7.667   0.705
 1778TIP3    H2 5276   2.782   7.684   0.664
 1779TIP3   OH2 5277   2.276   6.340   2.493
 1779TIP3    H1 5278   2.307   6.341   2.584
 1779TIP3    H2 5279   2.190   6.298   2.497
 1780TIP3   OH2 5280   4.325   3.637   2.711
 1780TIP3    H1 5281   4.378   3.702   2.666
 1780TIP3    H2 5282   4.375   3.556   2.704
 1781TIP3   OH2 5283   2.546   7.269   5.097
 1781TIP3    H1 5284   2.608   7.233   5.161
 1781TIP3    H2 5285   2.565   7.222   5.016
 1782TIP3   OH2 5286   5.037   0.621   2.656
 1782TIP3    H1 5287   4.945   0.625   2.681
 1782TIP3    H2 5288   5.036   0.614   2.561
 1783TIP3   OH2 5289   8.283   5.581   1.434
 1783TIP3    H1 5290   8.196   5.541   1.441
 1783TIP3    H2 5291   8.343   5.511   1.462
 1784TIP3   OH2 5292   6.011   5.346   3.781
 1784TIP3    H1 5293   6.106   5.361   3.782
 1784TIP3    H2 5294   6.000   5.261   3.823
 1785TIP3   OH2 5295   0.221   3.302   2.121
 1785TIP3    H1 5296   0.143   3.247   2.119
 1785TIP3    H2 5297   0.235   3.321   2.213
 1786TIP3   OH2 5298   5.070   3.342   3.637
 1786TIP3    H1 5299   5.130   3.324   3.564
 1786TIP3    H2 5300   5.016   3.263   3.643
 1787TIP3   OH2 5301   7.688   0.341   1.805
 1787TIP3    H1 5302   7.709   0.396   1.730
 1787TIP3    H2 5303   7.731   0.384   1.879
 1788TIP3   OH2 5304   3.277   2.903   6.299
 1788TIP3    H1 5305   3.214   2.957   6.249
 1788TIP3    H2 5306   3.253   2.918   6.391
 1789TIP3   OH2 5307   6.810   3.243   5.333
 1789TIP3    H1 5308   6.784   3.170   5.277
 1789TIP3    H2 5309   6.906   3.241   5.333
 1790TIP3   OH2 5310   1.737   3.520   1.370
 1790TIP3    H1 5311   1.809   3.529   1.433
 1790TIP3    H2 5312   1.678   3.456   1.410
 1791TIP3   OH2 5313   3.552   2.531   0.846
 1791TIP3    H1 5314   3.587   2.607   0.799
 1791TIP3    H2 5315   3.533   2.467   0.778
 1792TIP3   OH2 5316   3.090   3.076   2.437
 1792TIP3    H1 5317   3.067   3.155   2.487
 1792TIP3    H2 5318   3.186   3.072   2.442
 1793TIP3   OH2 5319   4.596   3.660   5.954
 1793TIP3    H1 5320   4.660   3.634   6.019
 1793TIP3    H2 5321   4.524   3.697   6.005
 1794TIP3   OH2 5322   2.075   2.512   0.726
 1794TIP3    H1 5323   1.999   2.456   0.740
 1794TIP3    H2 5324   2.047   2.599   0.752
 1795TIP3   OH2 5325   7.614   1.658   6.822
 1795TIP3    H1 5326   7.698   1.620   6.794
 1795TIP3    H2 5327   7.551   1.627   6.757
 1796TIP3   OH2 5328   2.907   0.858   2.284
 1796TIP3    H1 5329   2.895   0.783   2.342
 1796TIP3    H2 5330   2.937   0.820   2.202
 1797TIP3   OH2 5331   6.538   5.213   6.334
 1797TIP3    H1 5332   6.626   5.251   6.338
 1797TIP3    H2 5333   6.553   5.120   6.321
 1798TIP3   OH2 5334   4.326   1.480   2.364
 1798TIP3    H1 5335   4.258   1.448   2.305
 1798TIP3    H2 5336   4.278   1.506   2.443
 1799TIP3   OH2 5337   3.963   2.850   2.119
 1799TIP3    H1 5338   3.970   2.770   2.171
 1799TIP3    H2 5339   3.882   2.892   2.150
 1800TIP3   OH2 5340   5.943   5.852   3.561
 1800TIP3    H1 5341   5.949   5.779   3.622
 1800TIP3    H2 5342   5.944   5.931   3.616
 1801TIP3   OH2 5343   6.155   7.616   5.831
 1801TIP3    H1 5344   6.140   7.592   5.922
 1801TIP3    H2 5345   6.101   7.554   5.781
 1802TIP3   OH2 5346   3.830   2.322   2.501
 1802TIP3    H1 5347   3.838   2.405   2.547
 1802TIP3    H2 5348   3.779   2.343   2.422
 1803TIP3   OH2 5349   6.789   3.737   6.354
 1803TIP3    H1 5350   6.783   3.671   6.423
 1803TIP3    H2 5351   6.804   3.686   6.274
 1804TIP3   OH2 5352   3.519   1.803   5.736
 1804TIP3    H1 5353   3.570   1.850   5.802
 1804TIP3    H2 5354   3.506   1.867   5.666
 1805TIP3   OH2 5355   8.053   0.605   0.581
 1805TIP3    H1 5356   8.079   0.691   0.614
 1805TIP3    H2 5357   7.989   0.573   0.645
 1806TIP3   OH2 5358   4.701   4.523   3.811
 1806TIP3    H1 5359   4.764   4.595   3.819
 1806TIP3    H2 5360   4.617   4.562   3.838
 1807TIP3   OH2 5361   3.062   5.305   6.538
 1807TIP3    H1 5362   3.069   5.362   6.462
 1807TIP3    H2 5363   3.135   5.329   6.594
 1808TIP3   OH2 5364   0.872   4.378   5.803
 1808TIP3    H1 5365   0.886   4.472   5.817
 1808TIP3    H2 5366   0.850   4.344   5.890
 1809TIP3   OH2 5367   4.995   7.030   4.441
 1809TIP3    H1 5368   4.971   7.009   4.351
 1809TIP3    H2 5369   4.958   7.116   4.457
 1810TIP3   OH2 5370   7.488   0.705   5.904
 1810TIP3    H1 5371   7.522   0.619   5.930
 1810TIP3    H2 5372   7.564   0.763   5.910
 1811TIP3   OH2 5373   7.960   5.303   2.157
 1811TIP3    H1 5374   7.961   5.211   2.132
 1811TIP3    H2 5375   7.905   5.345   2.090
 1812TIP3   OH2 5376   1.967   3.538   3.180
 1812TIP3    H1 5377   1.936   3.500   3.098
 1812TIP3    H2 5378   1.963   3.633   3.165
 1813TIP3   OH2 5379   7.540   3.131   2.201
 1813TIP3    H1 5380   7.613   3.171   2.155
 1813TIP3    H2 5381   7.573   3.046   2.230
 1814TIP3   OH2 5382   0.290   5.749   6.195
 1814TIP3    H1 5383   0.314   5.816   6.131
 1814TIP3    H2 5384   0.195   5.740   6.185
 1815TIP3   OH2 5385   5.778   1.290   6.405
 1815TIP3    H1 5386   5.696   1.307   6.360
 1815TIP3    H2 5387   5.784   1.195   6.410
 1816TIP3   OH2 5388   8.011   1.413   1.893
 1816TIP3    H1 5389   7.973   1.372   1.815
 1816TIP3    H2 5390   7.941   1.467   1.928
 1817TIP3   OH2 5391   0.926   7.090   6.794
 1817TIP3    H1 5392   0.954   7.148   6.865
 1817TIP3    H2 5393   0.888   7.148   6.728
 1818TIP3   OH2 5394   0.664   4.111   3.360
 1818TIP3    H1 5395   0.658   4.082   3.269
 1818TIP3    H2 5396   0.744   4.071   3.393
 1819TIP3   OH2 5397   4.853   7.591   2.280
 1819TIP3    H1 5398   4.757   7.591   2.276
 1819TIP3    H2 5399   4.878   7.669   2.230
 1820TIP3   OH2 5400   2.144   1.418   5.521
 1820TIP3    H1 5401   2.058   1.426   5.480
 1820TIP3    H2 5402   2.172   1.509   5.536
 1821TIP3   OH2 5403   0.449   4.761   2.772
 1821TIP3    H1 5404   0.383   4.831   2.780
 1821TIP3    H2 5405   0.457   4.725   2.860
 1822TIP3   OH2 5406   5.648   4.873   1.850
 1822TIP3    H1 5407   5.636   4.951   1.905
 1822TIP3    H2 5408   5.655   4.800   1.912
 1823TIP3   OH2 5409   0.740   4.274   1.991
 1823TIP3    H1 5410   0.702   4.259   2.078
 1823TIP3    H2 5411   0.762   4.367   1.990
 1824TIP3   OH2 5412   5.029   7.376   5.762
 1824TIP3    H1 5413   4.935   7.391   5.753
 1824TIP3    H2 5414   5.036   7.288   5.797
 1825TIP3   OH2 5415   6.346   6.643   1.652
 1825TIP3    H1 5416   6.406   6.709   1.686
 1825TIP3    H2 5417   6.280   6.631   1.721
 1826TIP3   OH2 5418   2.088   3.947   4.896
 1826TIP3    H1 5419   2.021   3.879   4.886
 1826TIP3    H2 5420   2.160   3.919   4.841
 1827TIP3   OH2 5421   1.067   4.833   4.892
 1827TIP3    H1 5422   0.975   4.806   4.890
 1827TIP3    H2 5423   1.093   4.833   4.800
 1828TIP3   OH2 5424   2.746   1.262   2.734
 1828TIP3    H1 5425   2.719   1.258   2.642
 1828TIP3    H2 5426   2.689   1.328   2.773
 1829TIP3   OH2 5427   0.589   4.867   6.764
 1829TIP3    H1 5428   0.649   4.918   6.710
 1829TIP3    H2 5429   0.645   4.810   6.815
 1830TIP3   OH2 5430   0.525   7.029   1.236
 1830TIP3    H1 5431   0.471   7.034   1.156
 1830TIP3    H2 5432   0.506   6.943   1.272
 1831TIP3   OH2 5433   4.370   5.414   1.759
 1831TIP3    H1 5434   4.413   5.372   1.684
 1831TIP3    H2 5435   4.366   5.506   1.735
 1832TIP3   OH2 5436   3.563   4.316   1.053
 1832TIP3    H1 5437   3.584   4.273   1.136
 1832TIP3    H2 5438   3.633   4.381   1.041
 1833TIP3   OH2 5439   0.229   4.886   4.578
 1833TIP3    H1 5440   0.193   4.865   4.492
 1833TIP3    H2 5441   0.154   4.919   4.628
 1834TIP3   OH2 5442   2.951   5.293   5.616
 1834TIP3    H1 5443   3.029   5.322   5.664
 1834TIP3    H2 5444   2.917   5.220   5.667
 1835TIP3   OH2 5445   8.243   7.753   4.717
 1835TIP3    H1 5446   8.246   7.839   4.675
 1835TIP3    H2 5447   8.276   7.693   4.651
 1836TIP3   OH2 5448   1.989   6.956   1.627
 1836TIP3    H1 5449   2.067   6.915   1.664
 1836TIP3    H2 5450   1.964   6.900   1.554
 1837TIP3   OH2 5451   2.072   0.773   6.711
 1837TIP3    H1 5452   2.165   0.766   6.689
 1837TIP3    H2 5453   2.059   0.866   6.730
 1838TIP3   OH2 5454   6.816   5.335   4.372
 1838TIP3    H1 5455   6.754   5.323   4.443
 1838TIP3    H2 5456   6.803   5.258   4.316
 1839TIP3   OH2 5457   2.799   5.284   4.734
 1839TIP3    H1 5458   2.877   5.273   4.681
 1839TIP3    H2 5459   2.831   5.287   4.824
 1840TIP3   OH2 5460   1.999   3.696   0.780
 1840TIP3    H1 5461   2.071   3.646   0.818
 1840TIP3    H2 5462   2.034   3.785   0.771
 1841TIP3   OH2 5463   7.496   5.284   5.064
 1841TIP3    H1 5464   7.459   5.299   4.977
 1841TIP3    H2 5465   7.433   5.323   5.124
 1842TIP3   OH2 5466   4.610   3.747   1.396
 1842TIP3    H1 5467   4.602   3.652   1.402
 1842TIP3    H2 5468   4.672   3.761   1.324
 1843TIP3   OH2 5469   6.880   7.661   3.829
 1843TIP3    H1 5470   6.834   7.610   3.895
 1843TIP3    H2 5471   6.970   7.667   3.861
 1844TIP3   OH2 5472   2.268   7.115   5.487
 1844TIP3    H1 5473   2.345   7.093   5.540
 1844TIP3    H2 5474   2.305   7.150   5.406
 1845TIP3   OH2 5475   3.081   5.707   2.252
 1845TIP3    H1 5476   3.055   5.615   2.253
 1845TIP3    H2 5477   3.170   5.706   2.216
 1846TIP3   OH2 5478   5.304   1.949   0.032
 1846TIP3    H1 5479   5.265   1.871  -0.006
 1846TIP3    H2 5480   5.236   2.016   0.023
 1847TIP3   OH2 5481   4.424   0.612   4.463
 1847TIP3    H1 5482   4.518   0.622   4.451
 1847TIP3    H2 5483   4.387   0.623   4.375
 1848TIP3   OH2 5484   4.141   0.065   3.670
 1848TIP3    H1 5485   4.200  -0.009   3.678
 1848TIP3    H2 5486   4.072   0.048   3.735
 1849TIP3   OH2 5487   0.054   1.902   1.112
 1849TIP3    H1 5488   0.038   1.973   1.050
 1849TIP3    H2 5489   0.008   1.827   1.074
 1850TIP3   OH2 5490   5.810   3.157   2.246
 1850TIP3    H1 5491   5.845   3.197   2.166
 1850TIP3    H2 5492   5.823   3.063   2.234
 1851TIP3   OH2 5493   2.115   7.877   3.362
 1851TIP3    H1 5494   2.058   7.931   3.417
 1851TIP3    H2 5495   2.075   7.881   3.275
 1852TIP3   OH2 5496   0.370   4.273   0.190
 1852TIP3    H1 5497   0.351   4.245   0.280
 1852TIP3    H2 5498   0.358   4.195   0.137
 1853TIP3   OH2 5499   6.089   5.017   2.695
 1853TIP3    H1 5500   6.036   4.951   2.651
 1853TIP3    H2 5501   6.137   4.969   2.762
 1854TIP3   OH2 5502   0.681   2.195   0.824
 1854TIP3    H1 5503   0.703   2.226   0.912
 1854TIP3    H2 5504   0.757   2.219   0.771
 1855TIP3   OH2 5505   5.633   3.137   5.206
 1855TIP3    H1 5506   5.668   3.138   5.296
 1855TIP3    H2 5507   5.652   3.225   5.173
 1856TIP3   OH2 5508   2.246   1.997   1.873
 1856TIP3    H1 5509   2.270   1.905   1.881
 1856TIP3    H2 5510   2.316   2.036   1.822
 1857TIP3   OH2 5511   0.107   4.654   2.707
 1857TIP3    H1 5512   0.051   4.579   2.685
 1857TIP3    H2 5513   0.130   4.641   2.799
 1858TIP3   OH2 5514   0.685   6.347   1.108
 1858TIP3    H1 5515   0.695   6.427   1.056
 1858TIP3    H2 5516   0.755   6.352   1.173
 1859TIP3   OH2 5517   1.863   3.151   0.158
 1859TIP3    H1 5518   1.947   3.179   0.123
 1859TIP3    H2 5519   1.819   3.232   0.183
 1860TIP3   OH2 5520   0.113   3.616   4.833
 1860TIP3    H1 5521   0.075   3.597   4.747
 1860TIP3    H2 5522   0.040   3.649   4.885
 1861TIP3   OH2 5523   3.396   0.941   2.090
 1861TIP3    H1 5524   3.377   0.847   2.084
 1861TIP3    H2 5525   3.431   0.965   2.005
 1862TIP3   OH2 5526   2.815   4.451   5.366
 1862TIP3    H1 5527   2.739   4.502   5.396
 1862TIP3    H2 5528   2.786   4.410   5.285
 1863TIP3   OH2 5529   0.960   0.624   5.490
 1863TIP3    H1 5530   0.883   0.624   5.434
 1863TIP3    H2 5531   1.031   0.653   5.433
 1864TIP3   OH2 5532   0.727   7.613   6.100
 1864TIP3    H1 5533   0.638   7.583   6.119
 1864TIP3    H2 5534   0.743   7.682   6.165
 1865TIP3   OH2 5535   4.222   4.356   3.426
 1865TIP3    H1 5536   4.253   4.346   3.336
 1865TIP3    H2 5537   4.193   4.447   3.432
 1866TIP3   OH2 5538   3.371   6.661   1.251
 1866TIP3    H1 5539   3.459   6.674   1.216
 1866TIP3    H2 5540   3.354   6.738   1.304
 1867TIP3   OH2 5541   0.808   5.036   0.295
 1867TIP3    H1 5542   0.869   5.007   0.363
 1867TIP3    H2 5543   0.744   4.965   0.289
 1868TIP3   OH2 5544   1.780   4.886   6.715
 1868TIP3    H1 5545   1.731   4.963   6.742
 1868TIP3    H2 5546   1.797   4.838   6.796
 1869TIP3   OH2 5547   3.516   6.906   4.395
 1869TIP3    H1 5548   3.552   6.866   4.316
 1869TIP3    H2 5549   3.530   7.000   4.382
 1870TIP3   OH2 5550   3.651   3.658   0.935
 1870TIP3    H1 5551   3.671   3.751   0.937
 1870TIP3    H2 5552   3.636   3.638   0.843
 1871TIP3   OH2 5553   3.657   7.525   4.215
 1871TIP3    H1 5554   3.677   7.458   4.149
 1871TIP3    H2 5555   3.642   7.605   4.163
 1872TIP3   OH2 5556   7.075   0.750   3.459
 1872TIP3    H1 5557   7.160   0.741   3.503
 1872TIP3    H2 5558   7.097   0.759   3.366
 1873TIP3   OH2 5559   4.808   6.959   6.574
 1873TIP3    H1 5560   4.873   6.970   6.644
 1873TIP3    H2 5561   4.764   6.877   6.596
 1874TIP3   OH2 5562   4.133   1.211   3.732
 1874TIP3    H1 5563   4.173   1.126   3.713
 1874TIP3    H2 5564   4.122   1.253   3.646
 1875TIP3   OH2 5565   4.481   5.883   4.775
 1875TIP3    H1 5566   4.420   5.957   4.779
 1875TIP3    H2 5567   4.457   5.828   4.849
 1876TIP3   OH2 5568   2.862   5.726   2.749
 1876TIP3    H1 5569   2.892   5.778   2.823
 1876TIP3    H2 5570   2.928   5.657   2.741
 1877TIP3   OH2 5571   7.243   3.025   5.399
 1877TIP3    H1 5572   7.276   2.961   5.336
 1877TIP3    H2 5573   7.319   3.049   5.452
 1878TIP3   OH2 5574   7.753   0.763   6.061
 1878TIP3    H1 5575   7.831   0.731   6.107
 1878TIP3    H2 5576   7.683   0.759   6.126
 1879TIP3   OH2 5577   5.634   0.501   3.047
 1879TIP3    H1 5578   5.619   0.589   3.013
 1879TIP3    H2 5579   5.678   0.515   3.131
 1880TIP3   OH2 5580   1.111   0.674   2.314
 1880TIP3    H1 5581   1.041   0.620   2.277
 1880TIP3    H2 5582   1.189   0.619   2.309
 1881TIP3   OH2 5583   1.839   6.049   4.291
 1881TIP3    H1 5584   1.909   6.102   4.330
 1881TIP3    H2 5585   1.855   6.054   4.197
 1882TIP3   OH2 5586   4.732   5.302   6.394
 1882TIP3    H1 5587   4.716   5.387   6.435
 1882TIP3    H2 5588   4.670   5.299   6.321
 1883TIP3   OH2 5589   4.165   1.791   1.249
 1883TIP3    H1 5590   4.093   1.790   1.186
 1883TIP3    H2 5591   4.123   1.812   1.332
 1884TIP3   OH2 5592   3.657   6.258   0.405
 1884TIP3    H1 5593   3.599   6.297   0.470
 1884TIP3    H2 5594   3.656   6.320   0.332
 1885TIP3   OH2 5595   7.433   2.268   2.472
 1885TIP3    H1 5596   7.458   2.360   2.480
 1885TIP3    H2 5597   7.345   2.264   2.510
 1886TIP3   OH2 5598   8.241   5.875   4.395
 1886TIP3    H1 5599   8.256   5.781   4.384
 1886TIP3    H2 5600   8.241   5.910   4.306
 1887TIP3   OH2 5601   5.183   4.286   6.260
 1887TIP3    H1 5602   5.214   4.343   6.331
 1887TIP3    H2 5603   5.101   4.326   6.232
 1888TIP3   OH2 5604   0.590   3.700   1.782
 1888TIP3    H1 5605   0.563   3.780   1.739
 1888TIP3    H2 5606   0.676   3.720   1.819
 1889TIP3   OH2 5607   7.318   3.271   5.199
 1889TIP3    H1 5608   7.314   3.363   5.173
 1889TIP3    H2 5609   7.368   3.271   5.281
 1890TIP3   OH2 5610   2.346   0.340   6.770
 1890TIP3    H1 5611   2.267   0.361   6.720
 1890TIP3    H2 5612   2.417   0.385   6.724
 1891TIP3   OH2 5613   3.953   2.892   3.046
 1891TIP3    H1 5614   3.982   2.982   3.058
 1891TIP3    H2 5615   4.031   2.839   3.064
 1892TIP3   OH2 5616   3.300   4.603   1.445
 1892TIP3    H1 5617   3.348   4.683   1.423
 1892TIP3    H2 5618   3.350   4.533   1.402
 1893TIP3   OH2 5619   7.155   7.556   6.781
 1893TIP3    H1 5620   7.159   7.461   6.778
 1893TIP3    H2 5621   7.246   7.583   6.793
 1894TIP3   OH2 5622   0.165   0.933   4.784
 1894TIP3    H1 5623   0.143   1.026   4.779
 1894TIP3    H2 5624   0.091   0.893   4.828
 1895TIP3   OH2 5625   4.866   0.109   4.545
 1895TIP3    H1 5626   4.835   0.195   4.572
 1895TIP3    H2 5627   4.787   0.054   4.543
 1896TIP3   OH2 5628   1.758   3.885   2.569
 1896TIP3    H1 5629   1.766   3.805   2.621
 1896TIP3    H2 5630   1.798   3.863   2.485
 1897TIP3   OH2 5631   6.847   0.352   2.080
 1897TIP3    H1 5632   6.796   0.290   2.028
 1897TIP3    H2 5633   6.781   0.401   2.131
 1898TIP3   OH2 5634   3.783   4.921   5.891
 1898TIP3    H1 5635   3.719   4.864   5.847
 1898TIP3    H2 5636   3.771   5.006   5.850
 1899TIP3   OH2 5637   6.162   1.172   3.149
 1899TIP3    H1 5638   6.152   1.263   3.123
 1899TIP3    H2 5639   6.080   1.150   3.193
 1900TIP3   OH2 5640   1.582   1.117   1.219
 1900TIP3    H1 5641   1.520   1.046   1.232
 1900TIP3    H2 5642   1.642   1.111   1.294
 1901TIP3   OH2 5643   4.628   4.139   3.889
 1901TIP3    H1 5644   4.566   4.147   3.962
 1901TIP3    H2 5645   4.714   4.131   3.931
 1902TIP3   OH2 5646   0.904   6.521   4.825
 1902TIP3    H1 5647   0.978   6.501   4.768
 1902TIP3    H2 5648   0.893   6.444   4.880
 1903TIP3   OH2 5649   0.485   0.895   5.682
 1903TIP3    H1 5650   0.405   0.932   5.721
 1903TIP3    H2 5651   0.453   0.845   5.606
 1904TIP3   OH2 5652   0.815   4.387   4.809
 1904TIP3    H1 5653   0.789   4.476   4.834
 1904TIP3    H2 5654   0.888   4.367   4.866
 1905TIP3   OH2 5655   2.060   4.993   3.131
 1905TIP3    H1 5656   2.148   5.022   3.156
 1905TIP3    H2 5657   2.013   5.073   3.111
 1906TIP3   OH2 5658   7.638   1.925   4.044
 1906TIP3    H1 5659   7.645   1.859   3.976
 1906TIP3    H2 5660   7.695   1.893   4.115
 1907TIP3   OH2 5661   6.976   4.104   0.861
 1907TIP3    H1 5662   7.056   4.151   0.882
 1907TIP3    H2 5663   6.991   4.015   0.893
 1908TIP3   OH2 5664   0.886   3.348   2.990
 1908TIP3    H1 5665   0.806   3.359   2.940
 1908TIP3    H2 5666   0.860   3.363   3.081
 1909TIP3   OH2 5667   4.167   2.221   3.626
 1909TIP3    H1 5668   4.095   2.181   3.577
 1909TIP3    H2 5669   4.147   2.314   3.626
 1910TIP3   OH2 5670   5.704   4.374   5.509
 1910TIP3    H1 5671   5.703   4.279   5.520
 1910TIP3    H2 5672   5.703   4.408   5.599
 1911TIP3   OH2 5673   0.421   7.482   6.690
 1911TIP3    H1 5674   0.510   7.465   6.721
 1911TIP3    H2 5675   0.408   7.420   6.618
 1912TIP3   OH2 5676   1.806   1.418   6.415
 1912TIP3    H1 5677   1.898   1.444   6.419
 1912TIP3    H2 5678   1.772   1.441   6.502
 1913TIP3   OH2 5679   4.230   5.062   4.044
 1913TIP3    H1 5680   4.237   4.980   4.093
 1913TIP3    H2 5681   4.266   5.041   3.957
 1914TIP3   OH2 5682   6.044   1.998   5.519
 1914TIP3    H1 5683   6.018   2.013   5.428
 1914TIP3    H2 5684   6.071   1.907   5.522
 1915TIP3   OH2 5685   4.549   4.909   4.336
 1915TIP3    H1 5686   4.571   4.880   4.247
 1915TIP3    H2 5687   4.457   4.936   4.330
 1916TIP3   OH2 5688   8.018   4.143   5.458
 1916TIP3    H1 5689   8.062   4.162   5.375
 1916TIP3    H2 5690   8.085   4.098   5.510
 1917TIP3   OH2 5691   4.557   1.674   3.838
 1917TIP3    H1 5692   4.468   1.705   3.821
 1917TIP3    H2 5693   4.544   1.589   3.882
 1918TIP3   OH2 5694   8.032   6.541   2.942
 1918TIP3    H1 5695   8.113   6.574   2.904
 1918TIP3    H2 5696   8.029   6.579   3.030
 1919TIP3   OH2 5697   4.640   1.653   6.662
 1919TIP3    H1 5698   4.620   1.566   6.698
 1919TIP3    H2 5699   4.682   1.699   6.735
 1920TIP3   OH2 5700   2.402   7.395   1.888
 1920TIP3    H1 5701   2.310   7.416   1.873
 1920TIP3    H2 5702   2.409   7.302   1.865
 1921TIP3   OH2 5703   3.767   7.552   3.528
 1921TIP3    H1 5704   3.748   7.468   3.487
 1921TIP3    H2 5705   3.842   7.587   3.478
 1922TIP3   OH2 5706   0.307   4.412   6.323
 1922TIP3    H1 5707   0.217   4.412   6.356
 1922TIP3    H2 5708   0.353   4.351   6.380
 1923TIP3   OH2 5709   5.601   4.211   6.463
 1923TIP3    H1 5710   5.623   4.137   6.520
 1923TIP3    H2 5711   5.517   4.186   6.425
 1924TIP3   OH2 5712   7.195   2.568   4.194
 1924TIP3    H1 5713   7.121   2.591   4.252
 1924TIP3    H2 5714   7.213   2.477   4.215
 1925TIP3   OH2 5715   6.139   0.559   1.612
 1925TIP3    H1 5716   6.068   0.568   1.549
 1925TIP3    H2 5717   6.219   0.574   1.560
 1926TIP3   OH2 5718   5.956   4.446   4.772
 1926TIP3    H1 5719   5.997   4.362   4.751
 1926TIP3    H2 5720   5.928   4.481   4.687
 1927TIP3   OH2 5721   4.970   1.328   0.363
 1927TIP3    H1 5722   4.880   1.296   0.373
 1927TIP3    H2 5723   5.024   1.250   0.371
 1928TIP3   OH2 5724   6.667   0.085   1.467
 1928TIP3    H1 5725   6.658  -0.010   1.473
 1928TIP3    H2 5726   6.661   0.115   1.557
 1929TIP3   OH2 5727   7.745   0.341   2.440
 1929TIP3    H1 5728   7.820   0.305   2.393
 1929TIP3    H2 5729   7.682   0.269   2.443
 1930TIP3   OH2 5730   6.727   5.535   6.211
 1930TIP3    H1 5731   6.795   5.567   6.152
 1930TIP3    H2 5732   6.670   5.481   6.156
 1931TIP3   OH2 5733   4.233   6.271   3.720
 1931TIP3    H1 5734   4.187   6.218   3.785
 1931TIP3    H2 5735   4.304   6.215   3.689
 1932TIP3   OH2 5736   1.684   6.203   4.501
 1932TIP3    H1 5737   1.713   6.202   4.593
 1932TIP3    H2 5738   1.745   6.145   4.456
 1933TIP3   OH2 5739   3.118   4.363   3.493
 1933TIP3    H1 5740   3.137   4.270   3.501
 1933TIP3    H2 5741   3.027   4.367   3.462
 1934TIP3   OH2 5742   3.730   4.082   3.894
 1934TIP3    H1 5743   3.748   4.138   3.819
 1934TIP3    H2 5744   3.636   4.065   3.890
 1935TIP3   OH2 5745   6.430   1.029   6.222
 1935TIP3    H1 5746   6.355   1.088   6.232
 1935TIP3    H2 5747   6.463   1.017   6.311
 1936TIP3   OH2 5748   0.547   6.295   6.541
 1936TIP3    H1 5749   0.600   6.225   6.578
 1936TIP3    H2 5750   0.610   6.350   6.493
 1937TIP3   OH2 5751   6.361   3.876   2.452
 1937TIP3    H1 5752   6.380   3.965   2.423
 1937TIP3    H2 5753   6.301   3.886   2.525
 1938TIP3   OH2 5754   6.272   4.410   4.944
 1938TIP3    H1 5755   6.298   4.338   5.002
 1938TIP3    H2 5756   6.179   4.422   4.961
 1939TIP3   OH2 5757   3.465   1.231   2.858
 1939TIP3    H1 5758   3.465   1.314   2.810
 1939TIP3    H2 5759   3.376   1.224   2.894
 1940TIP3   OH2 5760   0.661   6.753   1.088
 1940TIP3    H1 5761   0.599   6.811   1.045
 1940TIP3    H2 5762   0.631   6.747   1.178
 1941TIP3   OH2 5763   2.091   3.899   2.633
 1941TIP3    H1 5764   2.151   3.867   2.565
 1941TIP3    H2 5765   2.110   3.845   2.709
 1942TIP3   OH2 5766   3.983   1.954   3.117
 1942TIP3    H1 5767   3.892   1.937   3.140
 1942TIP3    H2 5768   4.034   1.919   3.191
 1943TIP3   OH2 5769   6.725   3.204   2.785
 1943TIP3    H1 5770   6.807   3.154   2.777
 1943TIP3    H2 5771   6.738   3.279   2.726
 1944TIP3   OH2 5772   0.773   3.123   6.648
 1944TIP3    H1 5773   0.723   3.187   6.596
 1944TIP3    H2 5774   0.748   3.038   6.612
 1945TIP3   OH2 5775   2.499   0.626   0.239
 1945TIP3    H1 5776   2.440   0.595   0.170
 1945TIP3    H2 5777   2.553   0.551   0.261
 1946TIP3   OH2 5778   3.057  -0.007   4.618
 1946TIP3    H1 5779   3.144   0.033   4.611
 1946TIP3    H2 5780   2.996   0.067   4.620
 1947TIP3   OH2 5781   8.296   5.116   1.137
 1947TIP3    H1 5782   8.358   5.080   1.074
 1947TIP3    H2 5783   8.248   5.040   1.170
 1948TIP3   OH2 5784   0.945   1.038   2.434
 1948TIP3    H1 5785   0.910   1.117   2.391
 1948TIP3    H2 5786   0.912   1.044   2.524
 1949TIP3   OH2 5787   5.974   5.386   1.265
 1949TIP3    H1 5788   5.893   5.347   1.234
 1949TIP3    H2 5789   6.024   5.313   1.301
 1950TIP3   OH2 5790   1.561   6.284   5.850
 1950TIP3    H1 5791   1.573   6.356   5.788
 1950TIP3    H2 5792   1.633   6.295   5.913
 1951TIP3   OH2 5793   1.820   3.289   2.562
 1951TIP3    H1 5794   1.751   3.326   2.617
 1951TIP3    H2 5795   1.860   3.222   2.616
 1952TIP3   OH2 5796   5.355   1.896   1.913
 1952TIP3    H1 5797   5.302   1.827   1.873
 1952TIP3    H2 5798   5.300   1.930   1.984
 1953TIP3   OH2 5799   6.445   5.723   0.678
 1953TIP3    H1 5800   6.526   5.760   0.643
 1953TIP3    H2 5801   6.375   5.771   0.635
 1954TIP3   OH2 5802   7.882   4.702   3.864
 1954TIP3    H1 5803   7.854   4.794   3.857
 1954TIP3    H2 5804   7.906   4.678   3.774
 1955TIP3   OH2 5805   4.430   5.497   0.241
 1955TIP3    H1 5806   4.350   5.547   0.255
 1955TIP3    H2 5807   4.481   5.511   0.321
 1956TIP3   OH2 5808   2.921   6.576   3.445
 1956TIP3    H1 5809   2.858   6.639   3.479
 1956TIP3    H2 5810   2.906   6.497   3.496
 1957TIP3   OH2 5811   5.270   0.310   2.759
 1957TIP3    H1 5812   5.263   0.395   2.802
 1957TIP3    H2 5813   5.228   0.249   2.820
 1958TIP3   OH2 5814   0.896   5.058   5.898
 1958TIP3    H1 5815   0.989   5.056   5.873
 1958TIP3    H2 5816   0.850   5.019   5.823
 1959TIP3   OH2 5817   8.169   7.286   2.218
 1959TIP3    H1 5818   8.141   7.378   2.214
 1959TIP3    H2 5819   8.170   7.266   2.312
 1960TIP3   OH2 5820   7.917   3.608   4.961
 1960TIP3    H1 5821   7.979   3.632   5.031
 1960TIP3    H2 5822   7.831   3.611   5.003
 1961TIP3   OH2 5823   6.926   0.853   4.920
 1961TIP3    H1 5824   6.900   0.787   4.855
 1961TIP3    H2 5825   6.847   0.906   4.934
 1962TIP3   OH2 5826   2.805   2.905   4.458
 1962TIP3    H1 5827   2.875   2.844   4.482
 1962TIP3    H2 5828   2.814   2.978   4.519
 1963TIP3   OH2 5829   2.456   0.603   1.719
 1963TIP3    H1 5830   2.417   0.681   1.760
 1963TIP3    H2 5831   2.499   0.636   1.640
 1964TIP3   OH2 5832   1.103   3.445   2.507
 1964TIP3    H1 5833   1.101   3.469   2.600
 1964TIP3    H2 5834   1.104   3.350   2.507
 1965TIP3   OH2 5835   6.795   7.299   2.289
 1965TIP3    H1 5836   6.772   7.223   2.342
 1965TIP3    H2 5837   6.889   7.312   2.304
 1966TIP3   OH2 5838   1.166   4.326   1.198
 1966TIP3    H1 5839   1.180   4.345   1.290
 1966TIP3    H2 5840   1.135   4.235   1.196
 1967TIP3   OH2 5841   5.577   3.743   1.847
 1967TIP3    H1 5842   5.662   3.718   1.882
 1967TIP3    H2 5843   5.573   3.703   1.760
 1968TIP3   OH2 5844   0.523   2.510   1.397
 1968TIP3    H1 5845   0.610   2.520   1.357
 1968TIP3    H2 5846   0.536   2.533   1.489
 1969TIP3   OH2 5847   2.900   0.810   0.038
 1969TIP3    H1 5848   2.909   0.717   0.058
 1969TIP3    H2 5849   2.965   0.853   0.093
 1970TIP3   OH2 5850   7.124   2.436   2.870
 1970TIP3    H1 5851   7.124   2.342   2.850
 1970TIP3    H2 5852   7.186   2.445   2.942
 1971TIP3   OH2 5853   2.691   0.232   0.596
 1971TIP3    H1 5854   2.673   0.256   0.687
 1971TIP3    H2 5855   2.723   0.141   0.601
 1972TIP3   OH2 5856   2.343   7.820   2.944
 1972TIP3    H1 5857   2.295   7.879   2.885
 1972TIP3    H2 5858   2.395   7.878   2.998
 1973TIP3   OH2 5859   3.595   0.364   5.500
 1973TIP3    H1 5860   3.565   0.275   5.513
 1973TIP3    H2 5861   3.690   0.359   5.504
 1974TIP3   OH2 5862   6.616   0.722   3.344
 1974TIP3    H1 5863   6.568   0.650   3.385
 1974TIP3    H2 5864   6.708   0.695   3.349
 1975TIP3   OH2 5865   0.211   6.734   2.413
 1975TIP3    H1 5866   0.276   6.732   2.482
 1975TIP3    H2 5867   0.250   6.684   2.341
 1976TIP3   OH2 5868   5.238   3.251   1.126
 1976TIP3    H1 5869   5.284   3.334   1.117
 1976TIP3    H2 5870   5.241   3.231   1.219
 1977TIP3   OH2 5871   8.369   3.580   4.606
 1977TIP3    H1 5872   8.364   3.488   4.581
 1977TIP3    H2 5873   8.282   3.600   4.640
 1978TIP3   OH2 5874   4.688   4.596   0.811
 1978TIP3    H1 5875   4.680   4.687   0.782
 1978TIP3    H2 5876   4.633   4.592   0.889
 1979TIP3   OH2 5877   0.964   7.193   2.763
 1979TIP3    H1 5878   0.984   7.226   2.676
 1979TIP3    H2 5879   1.046   7.154   2.793
 1980TIP3   OH2 5880   4.101   7.433   0.611
 1980TIP3    H1 5881   4.163   7.504   0.591
 1980TIP3    H2 5882   4.145   7.381   0.678
 1981TIP3   OH2 5883   1.011   4.109   4.753
 1981TIP3    H1 5884   0.988   4.193   4.715
 1981TIP3    H2 5885   0.952   4.046   4.711
 1982TIP3   OH2 5886   6.686   7.364   4.420
 1982TIP3    H1 5887   6.774   7.400   4.410
 1982TIP3    H2 5888   6.649   7.367   4.332
 1983TIP3   OH2 5889   2.396   3.575   3.282
 1983TIP3    H1 5890   2.440   3.659   3.287
 1983TIP3    H2 5891   2.415   3.533   3.366
 1984TIP3   OH2 5892   0.125   2.136   3.830
 1984TIP3    H1 5893   0.093   2.051   3.860
 1984TIP3    H2 5894   0.147   2.184   3.910
 1985TIP3   OH2 5895   7.998   6.642   2.141
 1985TIP3    H1 5896   8.012   6.557   2.099
 1985TIP3    H2 5897   8.060   6.700   2.097
 1986TIP3   OH2 5898   5.807   7.311   0.698
 1986TIP3    H1 5899   5.764   7.336   0.780
 1986TIP3    H2 5900   5.845   7.392   0.665
 1987TIP3   OH2 5901   3.167   1.122   0.393
 1987TIP3    H1 5902   3.253   1.094   0.425
 1987TIP3    H2 5903   3.185   1.202   0.343
 1988TIP3   OH2 5904   6.707   1.192   3.876
 1988TIP3    H1 5905   6.706   1.171   3.782
 1988TIP3    H2 5906   6.617   1.175   3.905
 1989TIP3   OH2 5907   0.984   5.402   4.707
 1989TIP3    H1 5908   1.070   5.423   4.672
 1989TIP3    H2 5909   1.001   5.369   4.795
 1990TIP3   OH2 5910   7.155   4.308   5.550
 1990TIP3    H1 5911   7.186   4.389   5.512
 1990TIP3    H2 5912   7.133   4.252   5.475
 1991TIP3   OH2 5913   2.091   3.384   0.688
 1991TIP3    H1 5914   2.064   3.377   0.779
 1991TIP3    H2 5915   2.111   3.293   0.662
 1992TIP3   OH2 5916   6.765   6.292   4.255
 1992TIP3    H1 5917   6.823   6.225   4.218
 1992TIP3    H2 5918   6.731   6.339   4.179
 1993TIP3   OH2 5919   6.264   2.879   2.670
 1993TIP3    H1 5920   6.213   2.943   2.720
 1993TIP3    H2 5921   6.199   2.818   2.636
 1994TIP3   OH2 5922   0.753   6.586   5.992
 1994TIP3    H1 5923   0.818   6.518   5.975
 1994TIP3    H2 5924   0.795   6.642   6.058
 1995TIP3   OH2 5925   1.098   1.927   0.105
 1995TIP3    H1 5926   1.119   1.834   0.101
 1995TIP3    H2 5927   1.159   1.968   0.044
 1996TIP3   OH2 5928   0.218   0.573   3.798
 1996TIP3    H1 5929   0.219   0.491   3.847
 1996TIP3    H2 5930   0.292   0.623   3.834
 1997TIP3   OH2 5931   6.487   4.748   4.270
 1997TIP3    H1 5932   6.481   4.703   4.354
 1997TIP3    H2 5933   6.463   4.839   4.289
 1998TIP3   OH2 5934   3.824   5.085   6.787
 1998TIP3    H1 5935   3.855   4.995   6.775
 1998TIP3    H2 5936   3.837   5.102   6.880
 1999TIP3   OH2 5937   8.276   3.799   1.181
 1999TIP3    H1 5938   8.345   3.864   1.168
 1999TIP3    H2 5939   8.237   3.822   1.265
 2000TIP3   OH2 5940   3.891   4.371   1.467
 2000TIP3    H1 5941   3.918   4.368   1.559
 2000TIP3    H2 5942   3.966   4.335   1.420
 2001TIP3   OH2 5943   3.447   6.814   1.805
 2001TIP3    H1 5944   3.539   6.807   1.830
 2001TIP3    H2 5945   3.399   6.800   1.887
 2002TIP3   OH2 5946   1.402   6.531   4.451
 2002TIP3    H1 5947   1.444   6.447   4.434
 2002TIP3    H2 5948   1.333   6.512   4.515
 2003TIP3   OH2 5949   6.910   1.485   4.176
 2003TIP3    H1 5950   6.931   1.469   4.084
 2003TIP3    H2 5951   6.994   1.483   4.221
 2004TIP3   OH2 5952   6.088   2.439   5.872
 2004TIP3    H1 5953   6.122   2.397   5.951
 2004TIP3    H2 5954   5.993   2.437   5.884
 2005TIP3   OH2 5955   7.007   1.187   6.201
 2005TIP3    H1 5956   6.912   1.179   6.207
 2005TIP3    H2 5957   7.027   1.165   6.110
 2006TIP3   OH2 5958   0.216   7.625   3.356
 2006TIP3    H1 5959   0.302   7.666   3.366
 2006TIP3    H2 5960   0.172   7.645   3.439
 2007TIP3   OH2 5961   4.153   1.078   5.850
 2007TIP3    H1 5962   4.116   1.119   5.772
 2007TIP3    H2 5963   4.106   0.995   5.859
 2008TIP3   OH2 5964   0.661   7.766   1.548
 2008TIP3    H1 5965   0.748   7.794   1.519
 2008TIP3    H2 5966   0.632   7.836   1.607
 2009TIP3   OH2 5967   4.717   2.244   1.213
 2009TIP3    H1 5968   4.797   2.198   1.237
 2009TIP3    H2 5969   4.690   2.205   1.130
 2010TIP3   OH2 5970   4.990   3.119   1.169
 2010TIP3    H1 5971   5.069   3.171   1.153
 2010TIP3    H2 5972   4.972   3.076   1.085
 2011TIP3   OH2 5973   3.581   7.589   1.903
 2011TIP3    H1 5974   3.599   7.496   1.896
 2011TIP3    H2 5975   3.486   7.596   1.906
 2012TIP3   OH2 5976   5.428   7.314   2.829
 2012TIP3    H1 5977   5.372   7.242   2.801
 2012TIP3    H2 5978   5.502   7.313   2.768
 2013TIP3   OH2 5979   1.802   6.602   1.370
 2013TIP3    H1 5980   1.763   6.577   1.287
 2013TIP3    H2 5981   1.728   6.623   1.427
 2014TIP3   OH2 5982   3.313   0.359   6.446
 2014TIP3    H1 5983   3.374   0.420   6.487
 2014TIP3    H2 5984   3.341   0.272   6.476
 2015TIP3   OH2 5985   7.516   5.316   4.200
 2015TIP3    H1 5986   7.450   5.384   4.215
 2015TIP3    H2 5987   7.580   5.330   4.269
 2016TIP3   OH2 5988   3.760   1.983   0.616
 2016TIP3    H1 5989   3.691   1.923   0.645
 2016TIP3    H2 5990   3.735   2.007   0.527
 2017TIP3   OH2 5991   0.645   2.529   2.370
 2017TIP3    H1 5992   0.697   2.561   2.296
 2017TIP3    H2 5993   0.687   2.447   2.396
 2018TIP3   OH2 5994   2.781   5.470   2.048
 2018TIP3    H1 5995   2.844   5.530   2.008
 2018TIP3    H2 5996   2.828   5.387   2.058
 2019TIP3   OH2 5997   3.209   6.213   6.011
 2019TIP3    H1 5998   3.290   6.259   6.037
 2019TIP3    H2 5999   3.166   6.194   6.094
 2020TIP3   OH2 6000   2.450   7.035   5.658
 2020TIP3    H1 6001   2.425   7.011   5.747
 2020TIP3    H2 6002   2.543   7.013   5.653
 2021TIP3   OH2 6003   6.650   7.948   5.909
 2021TIP3    H1 6004   6.616   7.864   5.878
 2021TIP3    H2 6005   6.675   7.932   6.000
 2022TIP3   OH2 6006   1.634   3.274   3.826
 2022TIP3    H1 6007   1.644   3.289   3.732
 2022TIP3    H2 6008   1.570   3.339   3.854
 2023TIP3   OH2 6009   0.700   2.274   5.435
 2023TIP3    H1 6010   0.635   2.342   5.415
 2023TIP3    H2 6011   0.728   2.242   5.349
 2024TIP3   OH2 6012   4.371   7.696   5.627
 2024TIP3    H1 6013   4.433   7.768   5.637
 2024TIP3    H2 6014   4.411   7.622   5.672
 2025TIP3   OH2 6015   6.934   6.335   3.122
 2025TIP3    H1 6016   6.927   6.262   3.183
 2025TIP3    H2 6017   6.898   6.301   3.040
 2026TIP3   OH2 6018   0.331   3.318   6.624
 2026TIP3    H1 6019   0.275   3.391   6.600
 2026TIP3    H2 6020   0.309   3.298   6.715
 2027TIP3   OH2 6021   5.142   0.030   6.223
 2027TIP3    H1 6022   5.129   0.088   6.147
 2027TIP3    H2 6023   5.079   0.060   6.288
 2028TIP3   OH2 6024   7.783   1.125   0.986
 2028TIP3    H1 6025   7.859   1.174   0.957
 2028TIP3    H2 6026   7.708   1.178   0.958
 2029TIP3   OH2 6027   0.526   6.281   1.933
 2029TIP3    H1 6028   0.494   6.234   1.856
 2029TIP3    H2 6029   0.577   6.216   1.981
 2030TIP3   OH2 6030   4.321   2.396   1.211
 2030TIP3    H1 6031   4.339   2.483   1.177
 2030TIP3    H2 6032   4.308   2.342   1.133
 2031TIP3   OH2 6033   1.712   4.779   3.604
 2031TIP3    H1 6034   1.730   4.867   3.637
 2031TIP3    H2 6035   1.718   4.723   3.682
 2032TIP3   OH2 6036   3.147   5.975   2.018
 2032TIP3    H1 6037   3.066   5.963   2.068
 2032TIP3    H2 6038   3.204   5.904   2.049
 2033TIP3   OH2 6039   5.124   2.626   3.158
 2033TIP3    H1 6040   5.182   2.626   3.082
 2033TIP3    H2 6041   5.099   2.535   3.169
 2034TIP3   OH2 6042   5.573   1.945   3.577
 2034TIP3    H1 6043   5.559   2.017   3.639
 2034TIP3    H2 6044   5.668   1.941   3.566
 2035TIP3   OH2 6045   2.654   7.585   1.149
 2035TIP3    H1 6046   2.679   7.556   1.061
 2035TIP3    H2 6047   2.634   7.504   1.196
 2036TIP3   OH2 6048   0.296   1.973   5.200
 2036TIP3    H1 6049   0.247   2.004   5.276
 2036TIP3    H2 6050   0.264   1.884   5.185
 2037TIP3   OH2 6051   3.707   1.928   0.898
 2037TIP3    H1 6052   3.732   1.965   0.813
 2037TIP3    H2 6053   3.657   1.998   0.941
 2038TIP3   OH2 6054   0.725   0.030   5.937
 2038TIP3    H1 6055   0.800   0.086   5.954
 2038TIP3    H2 6056   0.745  -0.012   5.853
 2039TIP3   OH2 6057   2.568   7.592   2.280
 2039TIP3    H1 6058   2.603   7.568   2.194
 2039TIP3    H2 6059   2.488   7.540   2.288
 2040TIP3   OH2 6060   8.326   5.613   2.755
 2040TIP3    H1 6061   8.387   5.687   2.753
 2040TIP3    H2 6062   8.382   5.536   2.758
 2041TIP3   OH2 6063   7.295   0.145   4.866
 2041TIP3    H1 6064   7.372   0.160   4.811
 2041TIP3    H2 6065   7.226   0.122   4.805
 2042TIP3   OH2 6066   2.968   4.045   0.566
 2042TIP3    H1 6067   3.037   4.008   0.621
 2042TIP3    H2 6068   2.903   3.975   0.559
 2043TIP3   OH2 6069   6.727   1.575   4.755
 2043TIP3    H1 6070   6.773   1.491   4.753
 2043TIP3    H2 6071   6.636   1.553   4.736
 2044TIP3   OH2 6072   7.061   4.904   6.421
 2044TIP3    H1 6073   7.130   4.866   6.476
 2044TIP3    H2 6074   7.078   4.868   6.334
 2045TIP3   OH2 6075   3.508   4.274   2.120
 2045TIP3    H1 6076   3.532   4.184   2.144
 2045TIP3    H2 6077   3.460   4.265   2.038
 2046TIP3   OH2 6078   6.652   5.420   3.388
 2046TIP3    H1 6079   6.717   5.483   3.417
 2046TIP3    H2 6080   6.695   5.371   3.318
 2047TIP3   OH2 6081   6.777   5.706   1.207
 2047TIP3    H1 6082   6.846   5.747   1.259
 2047TIP3    H2 6083   6.779   5.753   1.124
 2048TIP3   OH2 6084   7.476   3.026   4.653
 2048TIP3    H1 6085   7.453   3.018   4.745
 2048TIP3    H2 6086   7.518   2.943   4.631
 2049TIP3   OH2 6087   2.857   5.080   0.210
 2049TIP3    H1 6088   2.764   5.068   0.226
 2049TIP3    H2 6089   2.886   4.995   0.175
 2050TIP3   OH2 6090   0.147   1.937   4.477
 2050TIP3    H1 6091   0.133   2.032   4.476
 2050TIP3    H2 6092   0.242   1.927   4.483
 2051TIP3   OH2 6093   7.747   6.906   5.048
 2051TIP3    H1 6094   7.799   6.965   4.993
 2051TIP3    H2 6095   7.761   6.937   5.137
 2052TIP3   OH2 6096   4.817   0.506   2.508
 2052TIP3    H1 6097   4.808   0.509   2.603
 2052TIP3    H2 6098   4.833   0.597   2.483
 2053TIP3   OH2 6099   2.708   1.083   3.913
 2053TIP3    H1 6100   2.663   1.127   3.841
 2053TIP3    H2 6101   2.751   1.154   3.961
 2054TIP3   OH2 6102   1.185   0.509   4.530
 2054TIP3    H1 6103   1.115   0.551   4.480
 2054TIP3    H2 6104   1.157   0.518   4.621
 2055TIP3   OH2 6105   2.071   2.933   0.867
 2055TIP3    H1 6106   2.114   2.891   0.942
 2055TIP3    H2 6107   2.025   2.861   0.823
 2056TIP3   OH2 6108   8.189   0.334   6.332
 2056TIP3    H1 6109   8.254   0.395   6.298
 2056TIP3    H2 6110   8.105   0.372   6.307
 2057TIP3   OH2 6111   7.341   1.566   4.049
 2057TIP3    H1 6112   7.362   1.541   3.959
 2057TIP3    H2 6113   7.250   1.597   4.045
 2058TIP3   OH2 6114   0.866   5.770   3.151
 2058TIP3    H1 6115   0.787   5.812   3.184
 2058TIP3    H2 6116   0.855   5.677   3.174
 2059TIP3   OH2 6117   6.787   2.133   5.748
 2059TIP3    H1 6118   6.802   2.045   5.782
 2059TIP3    H2 6119   6.737   2.177   5.817
 2060TIP3   OH2 6120   6.120   5.294   1.704
 2060TIP3    H1 6121   6.206   5.258   1.726
 2060TIP3    H2 6122   6.127   5.387   1.723
 2061TIP3   OH2 6123   1.348   7.414   6.411
 2061TIP3    H1 6124   1.273   7.410   6.352
 2061TIP3    H2 6125   1.327   7.483   6.473
 2062TIP3   OH2 6126   4.897   6.623   5.600
 2062TIP3    H1 6127   4.822   6.678   5.621
 2062TIP3    H2 6128   4.897   6.618   5.504
 2063TIP3   OH2 6129   5.865   0.743   1.421
 2063TIP3    H1 6130   5.820   0.783   1.346
 2063TIP3    H2 6131   5.957   0.766   1.409
 2064TIP3   OH2 6132   4.455   4.604   3.027
 2064TIP3    H1 6133   4.410   4.632   2.947
 2064TIP3    H2 6134   4.544   4.584   2.998
 2065TIP3   OH2 6135   3.852   5.106   2.697
 2065TIP3    H1 6136   3.848   5.010   2.695
 2065TIP3    H2 6137   3.806   5.129   2.778
 2066TIP3   OH2 6138   0.349   6.459   1.115
 2066TIP3    H1 6139   0.314   6.396   1.053
 2066TIP3    H2 6140   0.407   6.407   1.172
 2067TIP3   OH2 6141   2.339   6.343   6.510
 2067TIP3    H1 6142   2.308   6.429   6.482
 2067TIP3    H2 6143   2.259   6.291   6.521
 2068TIP3   OH2 6144   0.783   5.656   5.711
 2068TIP3    H1 6145   0.825   5.690   5.632
 2068TIP3    H2 6146   0.729   5.728   5.743
 2069TIP3   OH2 6147   5.457   3.509   0.092
 2069TIP3    H1 6148   5.522   3.495   0.022
 2069TIP3    H2 6149   5.472   3.436   0.152
 2070TIP3   OH2 6150   4.824   4.779   3.658
 2070TIP3    H1 6151   4.767   4.852   3.683
 2070TIP3    H2 6152   4.765   4.717   3.614
 2071TIP3   OH2 6153   4.103   1.764   4.801
 2071TIP3    H1 6154   4.113   1.856   4.774
 2071TIP3    H2 6155   4.192   1.729   4.800
 2072TIP3   OH2 6156   4.694   7.001   1.922
 2072TIP3    H1 6157   4.756   7.031   1.989
 2072TIP3    H2 6158   4.687   7.075   1.861
 2073TIP3   OH2 6159   2.020   1.862   5.397
 2073TIP3    H1 6160   2.024   1.939   5.454
 2073TIP3    H2 6161   1.927   1.850   5.378
 2074TIP3   OH2 6162   6.321   6.597   0.161
 2074TIP3    H1 6163   6.378   6.646   0.219
 2074TIP3    H2 6164   6.257   6.556   0.219
 2075TIP3   OH2 6165   7.796   1.790   0.370
 2075TIP3    H1 6166   7.762   1.795   0.280
 2075TIP3    H2 6167   7.877   1.840   0.368
 2076TIP3   OH2 6168   6.694   7.889   1.020
 2076TIP3    H1 6169   6.748   7.811   1.013
 2076TIP3    H2 6170   6.667   7.907   0.929
 2077TIP3   OH2 6171   1.405   6.313   3.922
 2077TIP3    H1 6172   1.375   6.249   3.987
 2077TIP3    H2 6173   1.324   6.355   3.891
 2078TIP3   OH2 6174   3.519   7.532   6.103
 2078TIP3    H1 6175   3.432   7.570   6.117
 2078TIP3    H2 6176   3.571   7.604   6.067
 2079TIP3   OH2 6177   6.935   5.948   5.944
 2079TIP3    H1 6178   6.927   5.997   5.862
 2079TIP3    H2 6179   6.908   6.011   6.011
 2080TIP3   OH2 6180   6.589   0.832   4.148
 2080TIP3    H1 6181   6.557   0.819   4.237
 2080TIP3    H2 6182   6.588   0.927   4.136
 2081TIP3   OH2 6183   0.655   1.136   4.221
 2081TIP3    H1 6184   0.611   1.171   4.299
 2081TIP3    H2 6185   0.675   1.213   4.168
 2082TIP3   OH2 6186   7.198   1.164   5.899
 2082TIP3    H1 6187   7.242   1.118   5.827
 2082TIP3    H2 6188   7.265   1.224   5.933
 2083TIP3   OH2 6189   2.630   6.159   2.448
 2083TIP3    H1 6190   2.623   6.064   2.462
 2083TIP3    H2 6191   2.699   6.188   2.507
 2084TIP3   OH2 6192   7.691   3.176   6.762
 2084TIP3    H1 6193   7.726   3.260   6.791
 2084TIP3    H2 6194   7.765   3.116   6.769
 2085TIP3   OH2 6195   6.310   3.332   2.630
 2085TIP3    H1 6196   6.272   3.273   2.564
 2085TIP3    H2 6197   6.236   3.353   2.687
 2086TIP3   OH2 6198   0.007   1.057   6.220
 2086TIP3    H1 6199  -0.053   1.021   6.285
 2086TIP3    H2 6200   0.056   1.124   6.267
 2087TIP3   OH2 6201   4.213   2.105   4.466
 2087TIP3    H1 6202   4.254   2.170   4.410
 2087TIP3    H2 6203   4.130   2.084   4.424
 2088TIP3   OH2 6204   1.803   4.259   2.239
 2088TIP3    H1 6205   1.863   4.186   2.228
 2088TIP3    H2 6206   1.803   4.276   2.334
 2089TIP3   OH2 6207   1.777   6.788   1.798
 2089TIP3    H1 6208   1.688   6.818   1.818
 2089TIP3    H2 6209   1.813   6.858   1.743
 2090TIP3   OH2 6210   2.312   6.107   5.723
 2090TIP3    H1 6211   2.398   6.144   5.744
 2090TIP3    H2 6212   2.292   6.050   5.797
 2091TIP3   OH2 6213   1.647   2.739   0.129
 2091TIP3    H1 6214   1.734   2.747   0.092
 2091TIP3    H2 6215   1.597   2.810   0.089
 2092TIP3   OH2 6216   2.140   2.689   4.902
 2092TIP3    H1 6217   2.175   2.637   4.830
 2092TIP3    H2 6218   2.046   2.689   4.888
 2093TIP3   OH2 6219   1.574   3.392   1.845
 2093TIP3    H1 6220   1.568   3.371   1.938
 2093TIP3    H2 6221   1.660   3.435   1.836
 2094TIP3   OH2 6222   6.577   1.668   2.680
 2094TIP3    H1 6223   6.495   1.694   2.721
 2094TIP3    H2 6224   6.623   1.618   2.746
 2095TIP3   OH2 6225   8.136   1.931   3.376
 2095TIP3    H1 6226   8.204   1.921   3.443
 2095TIP3    H2 6227   8.185   1.952   3.296
 2096TIP3   OH2 6228   8.003   5.171   3.458
 2096TIP3    H1 6229   7.961   5.190   3.374
 2096TIP3    H2 6230   7.992   5.076   3.469
 2097TIP3   OH2 6231   7.826   1.321   6.484
 2097TIP3    H1 6232   7.904   1.277   6.517
 2097TIP3    H2 6233   7.753   1.281   6.531
 2098TIP3   OH2 6234   6.238   2.306   0.552
 2098TIP3    H1 6235   6.175   2.377   0.564
 2098TIP3    H2 6236   6.301   2.340   0.489
 2099TIP3   OH2 6237   4.977   3.845   0.924
 2099TIP3    H1 6238   4.974   3.930   0.968
 2099TIP3    H2 6239   4.971   3.867   0.831
 2100TIP3   OH2 6240   3.462   2.352   5.407
 2100TIP3    H1 6241   3.393   2.409   5.441
 2100TIP3    H2 6242   3.414   2.282   5.362
 2101TIP3   OH2 6243   3.322   1.317   4.772
 2101TIP3    H1 6244   3.274   1.391   4.733
 2101TIP3    H2 6245   3.321   1.335   4.866
 2102TIP3   OH2 6246   2.695   3.617   3.305
 2102TIP3    H1 6247   2.791   3.626   3.309
 2102TIP3    H2 6248   2.679   3.570   3.223
 2103TIP3   OH2 6249   3.820   4.418   1.770
 2103TIP3    H1 6250   3.802   4.410   1.864
 2103TIP3    H2 6251   3.744   4.379   1.727
 2104TIP3   OH2 6252   2.776   4.092   0.937
 2104TIP3    H1 6253   2.794   4.161   0.873
 2104TIP3    H2 6254   2.842   4.105   1.005
 2105TIP3   OH2 6255   6.776   7.313   6.717
 2105TIP3    H1 6256   6.811   7.236   6.763
 2105TIP3    H2 6257   6.687   7.323   6.752
 2106TIP3   OH2 6258   7.561   3.211   2.444
 2106TIP3    H1 6259   7.487   3.265   2.471
 2106TIP3    H2 6260   7.537   3.179   2.357
 2107TIP3   OH2 6261   7.740   1.018   5.516
 2107TIP3    H1 6262   7.753   0.987   5.426
 2107TIP3    H2 6263   7.826   1.050   5.543
 2108TIP3   OH2 6264   4.011   3.913   5.202
 2108TIP3    H1 6265   4.058   3.849   5.147
 2108TIP3    H2 6266   4.073   3.935   5.271
 2109TIP3   OH2 6267   6.709   0.837   5.323
 2109TIP3    H1 6268   6.745   0.904   5.265
 2109TIP3    H2 6269   6.744   0.755   5.289
 2110TIP3   OH2 6270   2.198   3.974   6.345
 2110TIP3    H1 6271   2.194   3.917   6.422
 2110TIP3    H2 6272   2.183   3.916   6.271
 2111TIP3   OH2 6273   3.715   6.027   3.051
 2111TIP3    H1 6274   3.626   6.020   3.084
 2111TIP3    H2 6275   3.710   5.996   2.961
 2112TIP3   OH2 6276   5.100   5.331   3.352
 2112TIP3    H1 6277   5.083   5.306   3.442
 2112TIP3    H2 6278   5.104   5.248   3.304
 2113TIP3   OH2 6279   6.685   5.259   1.730
 2113TIP3    H1 6280   6.738   5.201   1.783
 2113TIP3    H2 6281   6.738   5.276   1.652
 2114TIP3   OH2 6282   8.104   5.234   0.275
 2114TIP3    H1 6283   8.194   5.246   0.305
 2114TIP3    H2 6284   8.061   5.187   0.346
 2115TIP3   OH2 6285   7.691   3.738   4.792
 2115TIP3    H1 6286   7.713   3.665   4.849
 2115TIP3    H2 6287   7.614   3.708   4.743
 2116TIP3   OH2 6288   7.740   0.553   4.727
 2116TIP3    H1 6289   7.738   0.473   4.781
 2116TIP3    H2 6290   7.779   0.524   4.644
 2117TIP3   OH2 6291   7.938   4.032   2.561
 2117TIP3    H1 6292   8.029   4.057   2.572
 2117TIP3    H2 6293   7.890   4.084   2.625
 2118TIP3   OH2 6294   2.542   2.708   3.685
 2118TIP3    H1 6295   2.524   2.750   3.601
 2118TIP3    H2 6296   2.606   2.766   3.727
 2119TIP3   OH2 6297   2.860   0.477   5.234
 2119TIP3    H1 6298   2.813   0.558   5.249
 2119TIP3    H2 6299   2.795   0.408   5.250
 2120TIP3   OH2 6300   6.351   6.973   5.696
 2120TIP3    H1 6301   6.416   6.927   5.643
 2120TIP3    H2 6302   6.343   6.920   5.775
 2121TIP3   OH2 6303   3.837   6.629   1.696
 2121TIP3    H1 6304   3.820   6.587   1.781
 2121TIP3    H2 6305   3.871   6.558   1.641
 2122TIP3   OH2 6306   2.273   0.606   6.203
 2122TIP3    H1 6307   2.237   0.661   6.272
 2122TIP3    H2 6308   2.256   0.516   6.232
 2123TIP3   OH2 6309   5.530   5.741   4.547
 2123TIP3    H1 6310   5.488   5.738   4.461
 2123TIP3    H2 6311   5.520   5.652   4.581
 2124TIP3   OH2 6312   0.536   7.220   4.179
 2124TIP3    H1 6313   0.586   7.148   4.140
 2124TIP3    H2 6314   0.445   7.200   4.157
 2125TIP3   OH2 6315   3.109   2.934   1.984
 2125TIP3    H1 6316   3.086   2.841   1.992
 2125TIP3    H2 6317   3.025   2.980   1.985
 2126TIP3   OH2 6318   2.101   2.901   0.312
 2126TIP3    H1 6319   2.144   2.983   0.334
 2126TIP3    H2 6320   2.023   2.898   0.367
 2127TIP3   OH2 6321   7.858   4.323   3.853
 2127TIP3    H1 6322   7.911   4.248   3.879
 2127TIP3    H2 6323   7.773   4.286   3.831
 2128TIP3   OH2 6324   3.274   7.455   1.853
 2128TIP3    H1 6325   3.328   7.388   1.812
 2128TIP3    H2 6326   3.215   7.485   1.784
 2129TIP3   OH2 6327   3.998   4.751   1.821
 2129TIP3    H1 6328   3.938   4.763   1.747
 2129TIP3    H2 6329   3.941   4.746   1.897
 2130TIP3   OH2 6330   0.980   6.823   2.199
 2130TIP3    H1 6331   1.011   6.798   2.286
 2130TIP3    H2 6332   0.918   6.754   2.175
 2131TIP3   OH2 6333   6.039   3.260   4.802
 2131TIP3    H1 6334   6.019   3.221   4.717
 2131TIP3    H2 6335   6.033   3.355   4.787
 2132TIP3   OH2 6336   1.801   5.505   0.122
 2132TIP3    H1 6337   1.860   5.435   0.095
 2132TIP3    H2 6338   1.853   5.585   0.114
 2133TIP3   OH2 6339   0.113   0.854   3.966
 2133TIP3    H1 6340   0.129   0.939   4.007
 2133TIP3    H2 6341   0.197   0.808   3.973
 2134TIP3   OH2 6342   1.707   1.447   2.592
 2134TIP3    H1 6343   1.634   1.468   2.534
 2134TIP3    H2 6344   1.690   1.499   2.671
 2135TIP3   OH2 6345   5.029   0.349   4.139
 2135TIP3    H1 6346   5.039   0.277   4.202
 2135TIP3    H2 6347   4.986   0.419   4.189
 2136TIP3   OH2 6348   5.640   3.372   3.565
 2136TIP3    H1 6349   5.663   3.288   3.524
 2136TIP3    H2 6350   5.548   3.361   3.589
 2137TIP3   OH2 6351   5.485   5.653   1.084
 2137TIP3    H1 6352   5.479   5.635   1.178
 2137TIP3    H2 6353   5.415   5.716   1.067
 2138TIP3   OH2 6354   6.633   5.899   1.408
 2138TIP3    H1 6355   6.627   5.956   1.331
 2138TIP3    H2 6356   6.614   5.812   1.375
 2139TIP3   OH2 6357   1.264   6.263   5.938
 2139TIP3    H1 6358   1.343   6.235   5.891
 2139TIP3    H2 6359   1.221   6.323   5.878
 2140TIP3   OH2 6360   2.836   5.888   5.665
 2140TIP3    H1 6361   2.743   5.866   5.657
 2140TIP3    H2 6362   2.838   5.983   5.673
 2141TIP3   OH2 6363   0.444   7.892   5.451
 2141TIP3    H1 6364   0.433   7.799   5.432
 2141TIP3    H2 6365   0.407   7.904   5.538
 2142TIP3   OH2 6366   6.173   2.982   2.246
 2142TIP3    H1 6367   6.218   2.898   2.250
 2142TIP3    H2 6368   6.089   2.963   2.203
 2143TIP3   OH2 6369   0.022   3.674   2.605
 2143TIP3    H1 6370   0.097   3.615   2.603
 2143TIP3    H2 6371   0.008   3.693   2.698
 2144TIP3   OH2 6372   4.036   4.900   1.359
 2144TIP3    H1 6373   4.065   4.991   1.372
 2144TIP3    H2 6374   4.116   4.851   1.342
 2145TIP3   OH2 6375   1.759   7.199   2.467
 2145TIP3    H1 6376   1.755   7.167   2.377
 2145TIP3    H2 6377   1.670   7.188   2.501
 2146TIP3   OH2 6378   7.721   1.115   1.727
 2146TIP3    H1 6379   7.676   1.105   1.643
 2146TIP3    H2 6380   7.741   1.209   1.732
 2147TIP3   OH2 6381   3.860   7.512   2.097
 2147TIP3    H1 6382   3.870   7.425   2.137
 2147TIP3    H2 6383   3.769   7.536   2.114
 2148TIP3   OH2 6384   6.532   3.382   5.150
 2148TIP3    H1 6385   6.583   3.301   5.145
 2148TIP3    H2 6386   6.541   3.422   5.064
 2149TIP3   OH2 6387   1.337   0.817   2.782
 2149TIP3    H1 6388   1.275   0.889   2.770
 2149TIP3    H2 6389   1.404   0.852   2.841
 2150TIP3   OH2 6390   0.395   7.215   0.656
 2150TIP3    H1 6391   0.470   7.157   0.670
 2150TIP3    H2 6392   0.382   7.257   0.741
 2151TIP3   OH2 6393   1.811   5.858   0.099
 2151TIP3    H1 6394   1.812   5.954   0.105
 2151TIP3    H2 6395   1.889   5.831   0.147
 2152TIP3   OH2 6396   2.644   7.704   2.534
 2152TIP3    H1 6397   2.575   7.681   2.596
 2152TIP3    H2 6398   2.613   7.671   2.449
 2153TIP3   OH2 6399   2.256   1.945   2.835
 2153TIP3    H1 6400   2.337   1.995   2.822
 2153TIP3    H2 6401   2.257   1.881   2.763
 2154TIP3   OH2 6402   3.555   7.436   0.601
 2154TIP3    H1 6403   3.612   7.383   0.545
 2154TIP3    H2 6404   3.490   7.472   0.540
 2155TIP3   OH2 6405   8.187   4.142   0.355
 2155TIP3    H1 6406   8.096   4.166   0.372
 2155TIP3    H2 6407   8.201   4.162   0.262
 2156TIP3   OH2 6408   6.349   3.268   1.864
 2156TIP3    H1 6409   6.417   3.201   1.870
 2156TIP3    H2 6410   6.311   3.273   1.952
 2157TIP3   OH2 6411   7.139   0.382   1.334
 2157TIP3    H1 6412   7.187   0.305   1.305
 2157TIP3    H2 6413   7.207   0.449   1.347
 2158TIP3   OH2 6414   4.289   1.446   5.911
 2158TIP3    H1 6415   4.291   1.526   5.963
 2158TIP3    H2 6416   4.205   1.448   5.866
 2159TIP3   OH2 6417   0.413   3.413   4.235
 2159TIP3    H1 6418   0.412   3.342   4.299
 2159TIP3    H2 6419   0.486   3.392   4.178
 2160TIP3   OH2 6420   4.345   6.989   4.910
 2160TIP3    H1 6421   4.287   6.919   4.940
 2160TIP3    H2 6422   4.413   6.944   4.860
 2161TIP3   OH2 6423   1.745   2.988   3.553
 2161TIP3    H1 6424   1.744   2.913   3.493
 2161TIP3    H2 6425   1.811   3.047   3.516
 2162TIP3   OH2 6426   2.847   1.396   6.475
 2162TIP3    H1 6427   2.797   1.359   6.402
 2162TIP3    H2 6428   2.783   1.409   6.544
 2163TIP3   OH2 6429   8.131   6.297   6.694
 2163TIP3    H1 6430   8.107   6.205   6.684
 2163TIP3    H2 6431   8.121   6.334   6.607
 2164TIP3   OH2 6432   0.156   4.218   2.627
 2164TIP3    H1 6433   0.197   4.249   2.708
 2164TIP3    H2 6434   0.085   4.280   2.611
 2165TIP3   OH2 6435   2.397   2.018   0.076
 2165TIP3    H1 6436   2.345   2.004   0.155
 2165TIP3    H2 6437   2.344   2.077   0.023
 2166TIP3   OH2 6438   3.072   7.717   3.681
 2166TIP3    H1 6439   3.145   7.724   3.618
 2166TIP3    H2 6440   3.032   7.804   3.681
 2167TIP3   OH2 6441   5.864   4.243   5.072
 2167TIP3    H1 6442   5.923   4.313   5.102
 2167TIP3    H2 6443   5.870   4.176   5.140
 2168TIP3   OH2 6444   6.003   2.643   2.207
 2168TIP3    H1 6445   5.988   2.594   2.126
 2168TIP3    H2 6446   5.966   2.587   2.275
 2169TIP3   OH2 6447   6.632   5.291   4.831
 2169TIP3    H1 6448   6.647   5.290   4.926
 2169TIP3    H2 6449   6.630   5.384   4.808
 2170TIP3   OH2 6450   1.949   7.116   6.795
 2170TIP3    H1 6451   1.857   7.098   6.776
 2170TIP3    H2 6452   1.950   7.143   6.887
 2171TIP3   OH2 6453   0.536   4.012   1.293
 2171TIP3    H1 6454   0.599   4.037   1.226
 2171TIP3    H2 6455   0.539   4.082   1.357
 2172TIP3   OH2 6456   3.277   3.140   3.803
 2172TIP3    H1 6457   3.316   3.089   3.731
 2172TIP3    H2 6458   3.350   3.193   3.837
 2173TIP3   OH2 6459   7.099   5.460   1.379
 2173TIP3    H1 6460   7.087   5.403   1.303
 2173TIP3    H2 6461   7.077   5.405   1.454
 2174TIP3   OH2 6462   6.380   6.372   3.769
 2174TIP3    H1 6463   6.416   6.326   3.845
 2174TIP3    H2 6464   6.366   6.462   3.801
 2175TIP3   OH2 6465   4.722   4.061   0.109
 2175TIP3    H1 6466   4.806   4.024   0.137
 2175TIP3    H2 6467   4.724   4.152   0.137
 2176TIP3   OH2 6468   6.380   4.693   1.419
 2176TIP3    H1 6469   6.395   4.780   1.382
 2176TIP3    H2 6470   6.291   4.698   1.455
 2177TIP3   OH2 6471   5.811   1.213   4.840
 2177TIP3    H1 6472   5.736   1.261   4.805
 2177TIP3    H2 6473   5.888   1.261   4.808
 2178TIP3   OH2 6474   4.998   7.173   5.480
 2178TIP3    H1 6475   4.934   7.106   5.504
 2178TIP3    H2 6476   5.082   7.136   5.506
 2179TIP3   OH2 6477   3.553   2.729   1.230
 2179TIP3    H1 6478   3.467   2.694   1.251
 2179TIP3    H2 6479   3.536   2.821   1.208
 2180TIP3   OH2 6480   4.471   0.236   2.679
 2180TIP3    H1 6481   4.478   0.213   2.586
 2180TIP3    H2 6482   4.561   0.235   2.710
 2181TIP3   OH2 6483   5.350   5.870   0.511
 2181TIP3    H1 6484   5.397   5.935   0.459
 2181TIP3    H2 6485   5.375   5.889   0.602
 2182TIP3   OH2 6486   4.976   7.878   3.736
 2182TIP3    H1 6487   4.957   7.856   3.827
 2182TIP3    H2 6488   4.977   7.794   3.691
 2183TIP3   OH2 6489   5.797   2.569   2.994
 2183TIP3    H1 6490   5.746   2.605   2.922
 2183TIP3    H2 6491   5.773   2.622   3.070
 2184TIP3   OH2 6492   1.931   3.903   1.987
 2184TIP3    H1 6493   1.970   3.823   1.952
 2184TIP3    H2 6494   1.952   3.970   1.922
 2185TIP3   OH2 6495   5.616   5.032   2.074
 2185TIP3    H1 6496   5.607   5.050   2.168
 2185TIP3    H2 6497   5.636   5.116   2.035
 2186TIP3   OH2 6498   1.317   7.466   1.583
 2186TIP3    H1 6499   1.282   7.471   1.672
 2186TIP3    H2 6500   1.298   7.552   1.545
 2187TIP3   OH2 6501   2.936   4.835   4.422
 2187TIP3    H1 6502   2.884   4.829   4.502
 2187TIP3    H2 6503   2.876   4.807   4.353
 2188TIP3   OH2 6504   1.863   0.563   5.877
 2188TIP3    H1 6505   1.850   0.629   5.946
 2188TIP3    H2 6506   1.957   0.562   5.862
 2189TIP3   OH2 6507   6.033   0.864   1.767
 2189TIP3    H1 6508   6.084   0.855   1.687
 2189TIP3    H2 6509   5.962   0.801   1.758
 2190TIP3   OH2 6510   1.820   4.857   5.105
 2190TIP3    H1 6511   1.884   4.927   5.090
 2190TIP3    H2 6512   1.834   4.796   5.033
 2191TIP3   OH2 6513   0.687   6.140   3.697
 2191TIP3    H1 6514   0.777   6.164   3.719
 2191TIP3    H2 6515   0.677   6.168   3.606
 2192TIP3   OH2 6516   4.168   0.535   2.198
 2192TIP3    H1 6517   4.229   0.532   2.124
 2192TIP3    H2 6518   4.192   0.615   2.246
 2193TIP3   OH2 6519   6.565   6.251   0.669
 2193TIP3    H1 6520   6.536   6.264   0.578
 2193TIP3    H2 6521   6.550   6.158   0.686
 2194TIP3   OH2 6522   6.745   1.653   5.655
 2194TIP3    H1 6523   6.666   1.606   5.680
 2194TIP3    H2 6524   6.748   1.727   5.716
 2195TIP3   OH2 6525   3.616   6.603   1.136
 2195TIP3    H1 6526   3.631   6.613   1.042
 2195TIP3    H2 6527   3.679   6.663   1.177
 2196TIP3   OH2 6528   3.526   1.895   5.231
 2196TIP3    H1 6529   3.483   1.868   5.313
 2196TIP3    H2 6530   3.616   1.865   5.241
 2197TIP3   OH2 6531   4.104   1.565   2.121
 2197TIP3    H1 6532   4.019   1.609   2.124
 2197TIP3    H2 6533   4.168   1.637   2.113
 2198TIP3   OH2 6534   3.379   3.099   2.451
 2198TIP3    H1 6535   3.424   3.015   2.446
 2198TIP3    H2 6536   3.420   3.144   2.525
 2199TIP3   OH2 6537   7.730   7.958   5.657
 2199TIP3    H1 6538   7.702   7.903   5.730
 2199TIP3    H2 6539   7.765   7.895   5.593
 2200TIP3   OH2 6540   5.863   0.989   4.632
 2200TIP3    H1 6541   5.939   1.032   4.592
 2200TIP3    H2 6542   5.817   1.059   4.678
 2201TIP3   OH2 6543   6.812   1.448   1.486
 2201TIP3    H1 6544   6.738   1.479   1.432
 2201TIP3    H2 6545   6.857   1.385   1.430
 2202TIP3   OH2 6546   8.124   5.414   3.485
 2202TIP3    H1 6547   8.095   5.473   3.415
 2202TIP3    H2 6548   8.090   5.328   3.459
 2203TIP3   OH2 6549   3.558   1.258   6.579
 2203TIP3    H1 6550   3.521   1.173   6.601
 2203TIP3    H2 6551   3.611   1.282   6.655
 2204TIP3   OH2 6552   6.612   6.177   5.757
 2204TIP3    H1 6553   6.519   6.170   5.780
 2204TIP3    H2 6554   6.647   6.242   5.819
 2205TIP3   OH2 6555   6.086   3.264   1.714
 2205TIP3    H1 6556   5.990   3.267   1.717
 2205TIP3    H2 6557   6.114   3.343   1.760
 2206TIP3   OH2 6558   6.315   7.471   3.278
 2206TIP3    H1 6559   6.265   7.442   3.354
 2206TIP3    H2 6560   6.348   7.557   3.303
 2207TIP3   OH2 6561   3.277   0.355   0.355
 2207TIP3    H1 6562   3.191   0.339   0.315
 2207TIP3    H2 6563   3.340   0.331   0.287
 2208TIP3   OH2 6564   1.023   3.261   4.382
 2208TIP3    H1 6565   0.993   3.217   4.462
 2208TIP3    H2 6566   0.946   3.308   4.350
 2209TIP3   OH2 6567   5.396   5.030   5.437
 2209TIP3    H1 6568   5.423   4.966   5.371
 2209TIP3    H2 6569   5.458   5.019   5.509
 2210TIP3   OH2 6570   3.234   3.451   0.608
 2210TIP3    H1 6571   3.199   3.368   0.640
 2210TIP3    H2 6572   3.286   3.428   0.531
 2211TIP3   OH2 6573   1.401   4.179   5.584
 2211TIP3    H1 6574   1.412   4.154   5.676
 2211TIP3    H2 6575   1.394   4.275   5.586
 2212TIP3   OH2 6576   1.598   2.307   6.607
 2212TIP3    H1 6577   1.526   2.321   6.667
 2212TIP3    H2 6578   1.568   2.237   6.549
 2213TIP3   OH2 6579   3.012   2.632   5.145
 2213TIP3    H1 6580   2.920   2.649   5.123
 2213TIP3    H2 6581   3.031   2.691   5.217
 2214TIP3   OH2 6582   0.020   1.722   0.439
 2214TIP3    H1 6583  -0.001   1.754   0.352
 2214TIP3    H2 6584   0.115   1.710   0.438
 2215TIP3   OH2 6585   0.963   4.846   4.262
 2215TIP3    H1 6586   0.936   4.926   4.307
 2215TIP3    H2 6587   0.921   4.851   4.176
 2216TIP3   OH2 6588   4.635   2.396   2.207
 2216TIP3    H1 6589   4.658   2.304   2.207
 2216TIP3    H2 6590   4.556   2.401   2.152
 2217TIP3   OH2 6591   6.707   7.073   2.409
 2217TIP3    H1 6592   6.624   7.046   2.370
 2217TIP3    H2 6593   6.750   6.991   2.432
 2218TIP3   OH2 6594   2.074   3.269   6.179
 2218TIP3    H1 6595   2.026   3.187   6.187
 2218TIP3    H2 6596   2.137   3.253   6.109
 2219TIP3   OH2 6597   1.952   3.560   1.564
 2219TIP3    H1 6598   1.907   3.563   1.649
 2219TIP3    H2 6599   2.019   3.628   1.570
 2220TIP3   OH2 6600   6.284   7.297   1.327
 2220TIP3    H1 6601   6.355   7.252   1.373
 2220TIP3    H2 6602   6.276   7.381   1.373
 2221TIP3   OH2 6603   5.443   5.073   3.929
 2221TIP3    H1 6604   5.357   5.057   3.968
 2221TIP3    H2 6605   5.469   5.160   3.961
 2222TIP3   OH2 6606   2.485   4.991   2.362
 2222TIP3    H1 6607   2.521   4.938   2.291
 2222TIP3    H2 6608   2.390   4.984   2.351
 2223TIP3   OH2 6609   0.886   6.273   4.643
 2223TIP3    H1 6610   0.961   6.260   4.701
 2223TIP3    H2 6611   0.853   6.184   4.626
 2224TIP3   OH2 6612   6.796   2.344   6.643
 2224TIP3    H1 6613   6.879   2.392   6.645
 2224TIP3    H2 6614   6.818   2.260   6.601
 2225TIP3   OH2 6615   2.044   5.437   4.604
 2225TIP3    H1 6616   2.009   5.398   4.524
 2225TIP3    H2 6617   2.067   5.526   4.580
 2226TIP3   OH2 6618   7.535   4.994   3.204
 2226TIP3    H1 6619   7.572   4.996   3.116
 2226TIP3    H2 6620   7.512   4.903   3.219
 2227TIP3   OH2 6621   7.936   3.932   6.014
 2227TIP3    H1 6622   7.984   3.854   5.989
 2227TIP3    H2 6623   7.844   3.907   6.008
 2228TIP3   OH2 6624   5.632   2.047   2.075
 2228TIP3    H1 6625   5.592   2.116   2.023
 2228TIP3    H2 6626   5.609   2.069   2.165
 2229TIP3   OH2 6627   3.768   2.956   2.802
 2229TIP3    H1 6628   3.813   2.900   2.740
 2229TIP3    H2 6629   3.804   2.932   2.888
 2230TIP3   OH2 6630   7.097   6.526   5.400
 2230TIP3    H1 6631   7.041   6.552   5.327
 2230TIP3    H2 6632   7.186   6.538   5.367
 2231TIP3   OH2 6633   6.295   2.559   0.177
 2231TIP3    H1 6634   6.216   2.579   0.126
 2231TIP3    H2 6635   6.366   2.602   0.129
 2232TIP3   OH2 6636   6.052   2.656   1.092
 2232TIP3    H1 6637   6.031   2.563   1.099
 2232TIP3    H2 6638   6.063   2.685   1.183
 2233TIP3   OH2 6639   3.623   3.011   6.605
 2233TIP3    H1 6640   3.569   3.002   6.684
 2233TIP3    H2 6641   3.574   2.964   6.537
 2234TIP3   OH2 6642   0.124   1.265   0.092
 2234TIP3    H1 6643   0.214   1.277   0.062
 2234TIP3    H2 6644   0.111   1.333   0.158
 2235TIP3   OH2 6645   3.770   0.519   6.754
 2235TIP3    H1 6646   3.765   0.423   6.755
 2235TIP3    H2 6647   3.857   0.537   6.718
 2236TIP3   OH2 6648   3.950   7.849   3.477
 2236TIP3    H1 6649   3.968   7.895   3.395
 2236TIP3    H2 6650   3.981   7.760   3.461
 2237TIP3   OH2 6651   2.377   5.239   0.989
 2237TIP3    H1 6652   2.382   5.333   1.005
 2237TIP3    H2 6653   2.444   5.201   1.045
 2238TIP3   OH2 6654   5.920   1.854   4.917
 2238TIP3    H1 6655   5.893   1.883   4.830
 2238TIP3    H2 6656   5.840   1.820   4.957
 2239TIP3   OH2 6657   6.634   6.549   0.532
 2239TIP3    H1 6658   6.701   6.608   0.498
 2239TIP3    H2 6659   6.553   6.578   0.489
 2240TIP3   OH2 6660   4.537   4.447   6.132
 2240TIP3    H1 6661   4.448   4.469   6.157
 2240TIP3    H2 6662   4.528   4.393   6.054
 2241TIP3   OH2 6663   6.681   4.656   2.064
 2241TIP3    H1 6664   6.723   4.596   2.002
 2241TIP3    H2 6665   6.740   4.732   2.067
 2242TIP3   OH2 6666   0.865   7.145   5.882
 2242TIP3    H1 6667   0.774   7.166   5.863
 2242TIP3    H2 6668   0.915   7.187   5.812
 2243TIP3   OH2 6669   6.443   1.304   0.623
 2243TIP3    H1 6670   6.430   1.215   0.656
 2243TIP3    H2 6671   6.430   1.360   0.700
 2244TIP3   OH2 6672   3.395   1.564   5.364
 2244TIP3    H1 6673   3.432   1.603   5.443
 2244TIP3    H2 6674   3.335   1.497   5.395
 2245TIP3   OH2 6675   5.670   3.966   0.509
 2245TIP3    H1 6676   5.657   3.976   0.415
 2245TIP3    H2 6677   5.765   3.955   0.519
 2246TIP3   OH2 6678   2.120   6.716   2.177
 2246TIP3    H1 6679   2.176   6.645   2.208
 2246TIP3    H2 6680   2.109   6.698   2.083
 2247TIP3   OH2 6681   6.144   1.666   4.383
 2247TIP3    H1 6682   6.123   1.742   4.329
 2247TIP3    H2 6683   6.170   1.598   4.320
 2248TIP3   OH2 6684   5.294   7.559   2.855
 2248TIP3    H1 6685   5.349   7.499   2.804
 2248TIP3    H2 6686   5.241   7.502   2.910
 2249TIP3   OH2 6687   3.967   6.788   2.938
 2249TIP3    H1 6688   3.965   6.739   2.856
 2249TIP3    H2 6689   3.909   6.863   2.923
 2250TIP3   OH2 6690   5.542   6.023   6.865
 2250TIP3    H1 6691   5.531   5.942   6.815
 2250TIP3    H2 6692   5.456   6.066   6.862
 2251TIP3   OH2 6693   7.577   7.913   1.961
 2251TIP3    H1 6694   7.611   7.973   2.028
 2251TIP3    H2 6695   7.640   7.841   1.961
 2252TIP3   OH2 6696   3.430   7.781   5.875
 2252TIP3    H1 6697   3.459   7.823   5.794
 2252TIP3    H2 6698   3.390   7.698   5.846
 2253TIP3   OH2 6699   4.435   1.901   4.225
 2253TIP3    H1 6700   4.470   1.851   4.152
 2253TIP3    H2 6701   4.373   1.841   4.268
 2254TIP3   OH2 6702   2.871   4.353   6.347
 2254TIP3    H1 6703   2.861   4.446   6.367
 2254TIP3    H2 6704   2.788   4.313   6.375
 2255TIP3   OH2 6705   3.545   4.875   5.143
 2255TIP3    H1 6706   3.630   4.898   5.105
 2255TIP3    H2 6707   3.494   4.843   5.069
 2256TIP3   OH2 6708   8.296   1.274   2.161
 2256TIP3    H1 6709   8.368   1.227   2.202
 2256TIP3    H2 6710   8.238   1.298   2.233
 2257TIP3   OH2 6711   3.998   1.054   4.722
 2257TIP3    H1 6712   3.914   1.075   4.765
 2257TIP3    H2 6713   4.036   0.985   4.777
 2258TIP3   OH2 6714   0.843   3.501   4.321
 2258TIP3    H1 6715   0.907   3.549   4.373
 2258TIP3    H2 6716   0.884   3.490   4.236
 2259TIP3   OH2 6717   8.203   3.882   2.191
 2259TIP3    H1 6718   8.193   3.834   2.274
 2259TIP3    H2 6719   8.277   3.838   2.147
 2260TIP3   OH2 6720   7.390   5.774   1.688
 2260TIP3    H1 6721   7.364   5.757   1.779
 2260TIP3    H2 6722   7.440   5.855   1.692
 2261TIP3   OH2 6723   0.347   2.486   2.611
 2261TIP3    H1 6724   0.290   2.434   2.667
 2261TIP3    H2 6725   0.356   2.434   2.531
 2262TIP3   OH2 6726   3.927   5.740   6.179
 2262TIP3    H1 6727   3.991   5.810   6.165
 2262TIP3    H2 6728   3.869   5.774   6.247
 2263TIP3   OH2 6729   5.033   0.602   3.118
 2263TIP3    H1 6730   4.961   0.544   3.092
 2263TIP3    H2 6731   5.020   0.616   3.211
 2264TIP3   OH2 6732   3.501   7.401   4.901
 2264TIP3    H1 6733   3.444   7.436   4.833
 2264TIP3    H2 6734   3.484   7.456   4.978
 2265TIP3   OH2 6735   0.696   6.442   1.407
 2265TIP3    H1 6736   0.628   6.374   1.401
 2265TIP3    H2 6737   0.762   6.416   1.342
 2266TIP3   OH2 6738   5.056   6.971   4.829
 2266TIP3    H1 6739   5.022   6.912   4.896
 2266TIP3    H2 6740   5.045   6.923   4.747
 2267TIP3   OH2 6741   4.949   2.218   3.051
 2267TIP3    H1 6742   4.899   2.295   3.022
 2267TIP3    H2 6743   4.960   2.166   2.972
 2268TIP3   OH2 6744   5.527   6.467   3.688
 2268TIP3    H1 6745   5.574   6.550   3.697
 2268TIP3    H2 6746   5.526   6.450   3.594
 2269TIP3   OH2 6747   3.754   1.232   2.542
 2269TIP3    H1 6748   3.817   1.161   2.528
 2269TIP3    H2 6749   3.732   1.226   2.635
 2270TIP3   OH2 6750   1.434   5.852   3.454
 2270TIP3    H1 6751   1.482   5.771   3.469
 2270TIP3    H2 6752   1.342   5.829   3.468
 2271TIP3   OH2 6753   6.456   4.855   6.756
 2271TIP3    H1 6754   6.549   4.854   6.732
 2271TIP3    H2 6755   6.410   4.857   6.672
 2272TIP3   OH2 6756   6.118   5.521   0.466
 2272TIP3    H1 6757   6.212   5.536   0.480
 2272TIP3    H2 6758   6.113   5.431   0.433
 2273TIP3   OH2 6759   7.331   2.230   3.788
 2273TIP3    H1 6760   7.273   2.288   3.836
 2273TIP3    H2 6761   7.418   2.268   3.799
 2274TIP3   OH2 6762   6.239   6.879   0.498
 2274TIP3    H1 6763   6.239   6.975   0.495
 2274TIP3    H2 6764   6.188   6.853   0.421
 2275TIP3   OH2 6765   4.472   4.363   1.042
 2275TIP3    H1 6766   4.532   4.314   0.986
 2275TIP3    H2 6767   4.385   4.329   1.019
 2276TIP3   OH2 6768   4.187   5.158   3.570
 2276TIP3    H1 6769   4.193   5.250   3.544
 2276TIP3    H2 6770   4.095   5.136   3.558
 2277TIP3   OH2 6771   5.705   6.651   2.254
 2277TIP3    H1 6772   5.709   6.697   2.169
 2277TIP3    H2 6773   5.782   6.683   2.301
 2278TIP3   OH2 6774   5.192   3.878   4.534
 2278TIP3    H1 6775   5.238   3.953   4.572
 2278TIP3    H2 6776   5.242   3.857   4.455
 2279TIP3   OH2 6777   4.355   5.060   1.049
 2279TIP3    H1 6778   4.386   4.972   1.067
 2279TIP3    H2 6779   4.322   5.056   0.959
 2280TIP3   OH2 6780   6.213   0.977   0.377
 2280TIP3    H1 6781   6.282   1.030   0.336
 2280TIP3    H2 6782   6.173   0.929   0.304
 2281TIP3   OH2 6783   0.140   1.165   0.667
 2281TIP3    H1 6784   0.215   1.137   0.718
 2281TIP3    H2 6785   0.065   1.158   0.726
 2282TIP3   OH2 6786   8.437   0.240   1.929
 2282TIP3    H1 6787   8.373   0.229   1.859
 2282TIP3    H2 6788   8.385   0.236   2.010
 2283TIP3   OH2 6789   4.764   6.005   1.186
 2283TIP3    H1 6790   4.826   6.076   1.170
 2283TIP3    H2 6791   4.715   5.997   1.105
 2284TIP3   OH2 6792   5.757   0.972   1.716
 2284TIP3    H1 6793   5.848   0.942   1.708
 2284TIP3    H2 6794   5.708   0.895   1.744
 2285TIP3   OH2 6795   6.628   1.969   4.546
 2285TIP3    H1 6796   6.626   1.927   4.632
 2285TIP3    H2 6797   6.720   1.989   4.531
 2286TIP3   OH2 6798   0.130   2.099   6.121
 2286TIP3    H1 6799   0.136   2.193   6.139
 2286TIP3    H2 6800   0.038   2.077   6.138
 2287TIP3   OH2 6801   7.608   0.291   2.967
 2287TIP3    H1 6802   7.642   0.339   3.043
 2287TIP3    H2 6803   7.662   0.322   2.894
 2288TIP3   OH2 6804   3.521   7.184   4.362
 2288TIP3    H1 6805   3.495   7.206   4.273
 2288TIP3    H2 6806   3.475   7.247   4.417
 2289TIP3   OH2 6807   3.720   3.976   6.430
 2289TIP3    H1 6808   3.631   3.965   6.399
 2289TIP3    H2 6809   3.750   3.888   6.451
 2290TIP3   OH2 6810   1.957   2.990   5.731
 2290TIP3    H1 6811   2.007   3.044   5.670
 2290TIP3    H2 6812   1.910   3.052   5.786
 2291TIP3   OH2 6813   3.138   3.802   2.243
 2291TIP3    H1 6814   3.208   3.855   2.282
 2291TIP3    H2 6815   3.091   3.863   2.186
 2292TIP3   OH2 6816   7.726   1.500   5.876
 2292TIP3    H1 6817   7.656   1.516   5.939
 2292TIP3    H2 6818   7.807   1.502   5.928
 2293TIP3   OH2 6819   5.921   1.240   4.006
 2293TIP3    H1 6820   5.868   1.320   4.007
 2293TIP3    H2 6821   6.000   1.265   3.958
 2294TIP3   OH2 6822   7.546   2.378   3.838
 2294TIP3    H1 6823   7.495   2.457   3.856
 2294TIP3    H2 6824   7.603   2.403   3.765
 2295TIP3   OH2 6825   3.125   6.934   3.917
 2295TIP3    H1 6826   3.216   6.907   3.926
 2295TIP3    H2 6827   3.120   7.018   3.964
 2296TIP3   OH2 6828   6.668   2.520   0.353
 2296TIP3    H1 6829   6.711   2.445   0.310
 2296TIP3    H2 6830   6.736   2.587   0.357
 2297TIP3   OH2 6831   2.447   0.553   5.203
 2297TIP3    H1 6832   2.511   0.623   5.206
 2297TIP3    H2 6833   2.377   0.586   5.147
 2298TIP3   OH2 6834   1.524   0.939   6.403
 2298TIP3    H1 6835   1.597   0.927   6.464
 2298TIP3    H2 6836   1.523   1.033   6.385
 2299TIP3   OH2 6837   5.994   0.754   5.555
 2299TIP3    H1 6838   6.079   0.757   5.512
 2299TIP3    H2 6839   5.935   0.799   5.495
 2300TIP3   OH2 6840   1.740   1.360   5.908
 2300TIP3    H1 6841   1.681   1.378   5.834
 2300TIP3    H2 6842   1.818   1.321   5.868
 2301TIP3   OH2 6843   3.002   3.804   1.181
 2301TIP3    H1 6844   3.055   3.875   1.217
 2301TIP3    H2 6845   3.034   3.794   1.091
 2302TIP3   OH2 6846   3.576   0.863   5.721
 2302TIP3    H1 6847   3.565   0.957   5.703
 2302TIP3    H2 6848   3.653   0.859   5.778
 2303TIP3   OH2 6849   7.120   4.342   6.552
 2303TIP3    H1 6850   7.158   4.409   6.609
 2303TIP3    H2 6851   7.026   4.362   6.552
 2304TIP3   OH2 6852   3.903   6.582   3.708
 2304TIP3    H1 6853   3.939   6.568   3.796
 2304TIP3    H2 6854   3.976   6.564   3.649
 2305TIP3   OH2 6855   2.756   5.237   0.001
 2305TIP3    H1 6856   2.814   5.194   0.064
 2305TIP3    H2 6857   2.798   5.320  -0.018
 2306TIP3   OH2 6858   8.006   4.132   4.629
 2306TIP3    H1 6859   7.979   4.040   4.624
 2306TIP3    H2 6860   8.083   4.131   4.686
 2307TIP3   OH2 6861   7.703   5.517   0.374
 2307TIP3    H1 6862   7.647   5.543   0.301
 2307TIP3    H2 6863   7.678   5.427   0.393
 2308TIP3   OH2 6864   1.215   1.877   2.867
 2308TIP3    H1 6865   1.280   1.814   2.898
 2308TIP3    H2 6866   1.250   1.909   2.784
 2309TIP3   OH2 6867   4.646   6.170   1.598
 2309TIP3    H1 6868   4.733   6.187   1.562
 2309TIP3    H2 6869   4.624   6.250   1.645
 2310TIP3   OH2 6870   4.236   2.298   2.197
 2310TIP3    H1 6871   4.221   2.252   2.114
 2310TIP3    H2 6872   4.309   2.250   2.237
 2311TIP3   OH2 6873   1.802   1.519   0.416
 2311TIP3    H1 6874   1.885   1.556   0.385
 2311TIP3    H2 6875   1.818   1.425   0.421
 2312TIP3   OH2 6876   4.552   1.857   4.613
 2312TIP3    H1 6877   4.580   1.841   4.523
 2312TIP3    H2 6878   4.566   1.951   4.626
 2313TIP3   OH2 6879   4.960   5.238   0.638
 2313TIP3    H1 6880   4.973   5.156   0.686
 2313TIP3    H2 6881   4.894   5.286   0.689
 2314TIP3   OH2 6882   4.571   5.160   2.257
 2314TIP3    H1 6883   4.562   5.074   2.299
 2314TIP3    H2 6884   4.634   5.146   2.187
 2315TIP3   OH2 6885   0.686   3.433   2.836
 2315TIP3    H1 6886   0.623   3.362   2.850
 2315TIP3    H2 6887   0.631   3.511   2.820
 2316TIP3   OH2 6888   7.651   1.946   1.699
 2316TIP3    H1 6889   7.668   1.880   1.767
 2316TIP3    H2 6890   7.622   2.023   1.747
 2317TIP3   OH2 6891   3.178   7.180   6.142
 2317TIP3    H1 6892   3.084   7.187   6.124
 2317TIP3    H2 6893   3.205   7.270   6.161
 2318TIP3   OH2 6894   8.006   1.592   0.636
 2318TIP3    H1 6895   7.960   1.521   0.682
 2318TIP3    H2 6896   8.013   1.662   0.701
 2319TIP3   OH2 6897   0.892   6.660   6.512
 2319TIP3    H1 6898   0.836   6.596   6.557
 2319TIP3    H2 6899   0.864   6.745   6.546
 2320TIP3   OH2 6900   1.469   5.802   2.673
 2320TIP3    H1 6901   1.395   5.820   2.730
 2320TIP3    H2 6902   1.535   5.762   2.730
 2321TIP3   OH2 6903   8.297   0.733   2.835
 2321TIP3    H1 6904   8.356   0.767   2.768
 2321TIP3    H2 6905   8.213   0.776   2.818
 2322TIP3   OH2 6906   1.539   7.788   6.371
 2322TIP3    H1 6907   1.580   7.726   6.310
 2322TIP3    H2 6908   1.547   7.745   6.457
 2323TIP3   OH2 6909   6.456   5.627   3.180
 2323TIP3    H1 6910   6.442   5.533   3.172
 2323TIP3    H2 6911   6.549   5.635   3.205
 2324TIP3   OH2 6912   3.999   5.197   1.481
 2324TIP3    H1 6913   4.047   5.270   1.441
 2324TIP3    H2 6914   4.044   5.180   1.563
 2325TIP3   OH2 6915   3.915   0.190   2.014
 2325TIP3    H1 6916   3.933   0.096   2.024
 2325TIP3    H2 6917   3.830   0.203   2.054
 2326TIP3   OH2 6918   0.436   5.250   5.303
 2326TIP3    H1 6919   0.496   5.285   5.238
 2326TIP3    H2 6920   0.462   5.159   5.315
 2327TIP3   OH2 6921   5.329   2.604   2.148
 2327TIP3    H1 6922   5.345   2.689   2.106
 2327TIP3    H2 6923   5.337   2.540   2.077
 2328TIP3   OH2 6924   7.488   3.459   6.634
 2328TIP3    H1 6925   7.474   3.536   6.578
 2328TIP3    H2 6926   7.429   3.393   6.599
 2329TIP3   OH2 6927   4.252   5.271   6.203
 2329TIP3    H1 6928   4.199   5.215   6.260
 2329TIP3    H2 6929   4.190   5.335   6.168
 2330TIP3   OH2 6930   8.247   2.522   1.747
 2330TIP3    H1 6931   8.325   2.527   1.693
 2330TIP3    H2 6932   8.209   2.436   1.729
 2331TIP3   OH2 6933   0.089   1.403   5.776
 2331TIP3    H1 6934   0.051   1.352   5.705
 2331TIP3    H2 6935   0.067   1.354   5.855
 2332TIP3   OH2 6936   0.595   3.089   0.254
 2332TIP3    H1 6937   0.555   3.171   0.224
 2332TIP3    H2 6938   0.656   3.065   0.185
 2333TIP3   OH2 6939   5.727   6.695   1.934
 2333TIP3    H1 6940   5.763   6.615   1.973
 2333TIP3    H2 6941   5.748   6.688   1.841
 2334TIP3   OH2 6942   7.736   2.209   2.462
 2334TIP3    H1 6943   7.790   2.218   2.384
 2334TIP3    H2 6944   7.656   2.258   2.442
 2335TIP3   OH2 6945   4.815   3.706   2.030
 2335TIP3    H1 6946   4.774   3.760   1.963
 2335TIP3    H2 6947   4.846   3.628   1.983
 2336TIP3   OH2 6948   6.554   0.391   4.800
 2336TIP3    H1 6949   6.556   0.430   4.888
 2336TIP3    H2 6950   6.509   0.457   4.747
 2337TIP3   OH2 6951   5.914   5.554   2.311
 2337TIP3    H1 6952   5.905   5.468   2.352
 2337TIP3    H2 6953   5.847   5.608   2.352
 2338TIP3   OH2 6954   5.630   6.592   3.222
 2338TIP3    H1 6955   5.595   6.670   3.266
 2338TIP3    H2 6956   5.720   6.616   3.201
 2339TIP3   OH2 6957   1.591   5.128   1.440
 2339TIP3    H1 6958   1.659   5.178   1.484
 2339TIP3    H2 6959   1.638   5.072   1.378
 2340TIP3   OH2 6960   8.257   0.856   5.550
 2340TIP3    H1 6961   8.216   0.846   5.464
 2340TIP3    H2 6962   8.228   0.778   5.598
 2341TIP3   OH2 6963   4.525   2.085   6.407
 2341TIP3    H1 6964   4.610   2.041   6.411
 2341TIP3    H2 6965   4.466   2.030   6.458
 2342TIP3   OH2 6966   3.989   2.420   5.934
 2342TIP3    H1 6967   4.072   2.439   5.977
 2342TIP3    H2 6968   4.014   2.385   5.848
 2343TIP3   OH2 6969   3.013   6.835   3.097
 2343TIP3    H1 6970   3.030   6.902   3.029
 2343TIP3    H2 6971   3.084   6.849   3.160
 2344TIP3   OH2 6972   2.613   5.791   5.296
 2344TIP3    H1 6973   2.530   5.760   5.261
 2344TIP3    H2 6974   2.652   5.841   5.224
 2345TIP3   OH2 6975   6.250   6.305   5.535
 2345TIP3    H1 6976   6.302   6.234   5.495
 2345TIP3    H2 6977   6.167   6.303   5.488
 2346TIP3   OH2 6978   7.818   7.187   6.770
 2346TIP3    H1 6979   7.896   7.132   6.784
 2346TIP3    H2 6980   7.806   7.232   6.854
 2347TIP3   OH2 6981   7.561   2.057   4.886
 2347TIP3    H1 6982   7.488   2.085   4.831
 2347TIP3    H2 6983   7.639   2.081   4.836
 2348TIP3   OH2 6984   4.617   4.766   3.998
 2348TIP3    H1 6985   4.589   4.697   4.058
 2348TIP3    H2 6986   4.566   4.752   3.919
 2349TIP3   OH2 6987   1.180   0.582   1.039
 2349TIP3    H1 6988   1.127   0.658   1.015
 2349TIP3    H2 6989   1.219   0.553   0.957
 2350TIP3   OH2 6990   7.947   2.001   2.713
 2350TIP3    H1 6991   7.918   1.939   2.646
 2350TIP3    H2 6992   7.911   1.967   2.795
 2351TIP3   OH2 6993   4.743   2.890   1.957
 2351TIP3    H1 6994   4.751   2.909   1.864
 2351TIP3    H2 6995   4.772   2.970   2.001
 2352TIP3   OH2 6996   5.681   4.910   3.579
 2352TIP3    H1 6997   5.625   4.926   3.503
 2352TIP3    H2 6998   5.770   4.930   3.548
 2353TIP3   OH2 6999   4.545   6.006   0.407
 2353TIP3    H1 7000   4.614   6.045   0.460
 2353TIP3    H2 7001   4.591   5.942   0.352
 2354TIP3   OH2 7002   4.166   1.168   1.026
 2354TIP3    H1 7003   4.189   1.222   1.101
 2354TIP3    H2 7004   4.074   1.144   1.039
 2355TIP3   OH2 7005   1.496   2.137   6.416
 2355TIP3    H1 7006   1.449   2.056   6.397
 2355TIP3    H2 7007   1.440   2.206   6.381
 2356TIP3   OH2 7008   1.589   0.171   1.311
 2356TIP3    H1 7009   1.528   0.118   1.261
 2356TIP3    H2 7010   1.676   0.139   1.284
 2357TIP3   OH2 7011   8.234   1.118   4.659
 2357TIP3    H1 7012   8.243   1.029   4.692
 2357TIP3    H2 7013   8.320   1.158   4.672
 2358TIP3   OH2 7014   3.735   7.007   2.712
 2358TIP3    H1 7015   3.718   6.968   2.626
 2358TIP3    H2 7016   3.680   7.085   2.713
 2359TIP3   OH2 7017   6.877   4.180   6.801
 2359TIP3    H1 7018   6.832   4.127   6.736
 2359TIP3    H2 7019   6.846   4.270   6.785
 2360TIP3   OH2 7020   2.477   0.966   3.632
 2360TIP3    H1 7021   2.482   0.882   3.677
 2360TIP3    H2 7022   2.387   0.996   3.646
 2361TIP3   OH2 7023   2.928   1.843   4.586
 2361TIP3    H1 7024   2.937   1.791   4.505
 2361TIP3    H2 7025   2.925   1.777   4.655
 2362TIP3   OH2 7026   3.729   0.115   4.125
 2362TIP3    H1 7027   3.701   0.072   4.045
 2362TIP3    H2 7028   3.665   0.088   4.191
 2363TIP3   OH2 7029   7.080   4.316   5.820
 2363TIP3    H1 7030   7.120   4.329   5.735
 2363TIP3    H2 7031   7.113   4.231   5.850
 2364TIP3   OH2 7032   7.619   1.919   2.126
 2364TIP3    H1 7033   7.576   1.999   2.154
 2364TIP3    H2 7034   7.712   1.941   2.123
 2365TIP3   OH2 7035   2.543   5.274   5.423
 2365TIP3    H1 7036   2.563   5.361   5.456
 2365TIP3    H2 7037   2.568   5.276   5.331
 2366TIP3   OH2 7038   3.730   4.211   3.663
 2366TIP3    H1 7039   3.800   4.276   3.668
 2366TIP3    H2 7040   3.657   4.258   3.623
 2367TIP3   OH2 7041   3.698   3.913   0.854
 2367TIP3    H1 7042   3.778   3.934   0.902
 2367TIP3    H2 7043   3.658   3.998   0.836
 2368TIP3   OH2 7044   4.849   6.617   1.495
 2368TIP3    H1 7045   4.880   6.557   1.563
 2368TIP3    H2 7046   4.758   6.637   1.521
 2369TIP3   OH2 7047   1.800   7.719   0.813
 2369TIP3    H1 7048   1.731   7.689   0.754
 2369TIP3    H2 7049   1.879   7.717   0.760
 2370TIP3   OH2 7050   4.886   6.251   1.100
 2370TIP3    H1 7051   4.840   6.292   1.027
 2370TIP3    H2 7052   4.978   6.249   1.074
 2371TIP3   OH2 7053   1.188   2.220   5.766
 2371TIP3    H1 7054   1.166   2.303   5.809
 2371TIP3    H2 7055   1.117   2.206   5.703
 2372TIP3   OH2 7056   2.000   1.026   6.782
 2372TIP3    H1 7057   2.079   1.074   6.757
 2372TIP3    H2 7058   1.979   1.059   6.869
 2373TIP3   OH2 7059   7.938   5.492   0.563
 2373TIP3    H1 7060   8.018   5.540   0.543
 2373TIP3    H2 7061   7.891   5.488   0.479
 2374TIP3   OH2 7062   3.105   7.533   1.619
 2374TIP3    H1 7063   3.175   7.579   1.572
 2374TIP3    H2 7064   3.043   7.602   1.642
 2375TIP3   OH2 7065   5.418   0.806   4.707
 2375TIP3    H1 7066   5.509   0.786   4.686
 2375TIP3    H2 7067   5.383   0.724   4.743
 2376TIP3   OH2 7068   6.969   1.040   3.293
 2376TIP3    H1 7069   6.949   1.030   3.386
 2376TIP3    H2 7070   6.990   1.133   3.283
 2377TIP3   OH2 7071   7.170   2.600   5.510
 2377TIP3    H1 7072   7.098   2.597   5.447
 2377TIP3    H2 7073   7.150   2.676   5.565
 2378TIP3   OH2 7074   1.979   0.196   1.501
 2378TIP3    H1 7075   2.000   0.275   1.451
 2378TIP3    H2 7076   1.982   0.225   1.592
 2379TIP3   OH2 7077   6.563   6.228   1.550
 2379TIP3    H1 7078   6.623   6.283   1.500
 2379TIP3    H2 7079   6.618   6.158   1.586
 2380TIP3   OH2 7080   7.130   6.215   4.245
 2380TIP3    H1 7081   7.117   6.272   4.170
 2380TIP3    H2 7082   7.145   6.275   4.319
 2381TIP3   OH2 7083   1.270   7.262   1.384
 2381TIP3    H1 7084   1.270   7.336   1.445
 2381TIP3    H2 7085   1.196   7.279   1.325
 2382TIP3   OH2 7086   4.148   4.092   2.832
 2382TIP3    H1 7087   4.108   4.053   2.754
 2382TIP3    H2 7088   4.234   4.050   2.839
 2383TIP3   OH2 7089   3.376   0.232   5.853
 2383TIP3    H1 7090   3.412   0.180   5.780
 2383TIP3    H2 7091   3.411   0.320   5.838
 2384TIP3   OH2 7092   1.111   2.313   2.291
 2384TIP3    H1 7093   1.054   2.237   2.277
 2384TIP3    H2 7094   1.092   2.342   2.380
 2385TIP3   OH2 7095   3.760   5.889   5.362
 2385TIP3    H1 7096   3.781   5.967   5.414
 2385TIP3    H2 7097   3.845   5.855   5.335
 2386TIP3   OH2 7098   2.416   5.641   5.163
 2386TIP3    H1 7099   2.405   5.609   5.073
 2386TIP3    H2 7100   2.327   5.668   5.189
 2387TIP3   OH2 7101   2.464   0.808   6.157
 2387TIP3    H1 7102   2.394   0.744   6.168
 2387TIP3    H2 7103   2.436   0.862   6.083
 2388TIP3   OH2 7104   2.982   4.194   1.079
 2388TIP3    H1 7105   2.961   4.153   1.163
 2388TIP3    H2 7106   3.075   4.213   1.084
 2389TIP3   OH2 7107   5.264   6.276   0.639
 2389TIP3    H1 7108   5.242   6.333   0.566
 2389TIP3    H2 7109   5.283   6.335   0.712
 2390TIP3   OH2 7110   0.841   4.158   4.176
 2390TIP3    H1 7111   0.899   4.122   4.243
 2390TIP3    H2 7112   0.867   4.250   4.169
 2391TIP3   OH2 7113   1.417   7.174   6.560
 2391TIP3    H1 7114   1.362   7.235   6.512
 2391TIP3    H2 7115   1.374   7.164   6.645
 2392TIP3   OH2 7116   6.795   0.601   4.196
 2392TIP3    H1 7117   6.758   0.688   4.182
 2392TIP3    H2 7118   6.805   0.565   4.108
 2393TIP3   OH2 7119   0.865   7.390   0.308
 2393TIP3    H1 7120   0.937   7.404   0.247
 2393TIP3    H2 7121   0.907   7.355   0.387
 2394TIP3   OH2 7122   6.698   7.097   3.550
 2394TIP3    H1 7123   6.773   7.133   3.502
 2394TIP3    H2 7124   6.665   7.171   3.601
 2395TIP3   OH2 7125   2.763   4.236   0.464
 2395TIP3    H1 7126   2.749   4.240   0.370
 2395TIP3    H2 7127   2.782   4.144   0.481
 2396TIP3   OH2 7128   4.146   0.520   4.516
 2396TIP3    H1 7129   4.124   0.568   4.596
 2396TIP3    H2 7130   4.242   0.518   4.515
 2397TIP3   OH2 7131   7.574   3.641   5.837
 2397TIP3    H1 7132   7.556   3.565   5.891
 2397TIP3    H2 7133   7.584   3.606   5.748
 2398TIP3   OH2 7134   8.240   7.735   6.796
 2398TIP3    H1 7135   8.176   7.663   6.798
 2398TIP3    H2 7136   8.206   7.798   6.859
 2399TIP3   OH2 7137   7.477   4.072   6.596
 2399TIP3    H1 7138   7.387   4.067   6.628
 2399TIP3    H2 7139   7.469   4.106   6.506
 2400TIP3   OH2 7140   3.720   5.708   3.370
 2400TIP3    H1 7141   3.794   5.746   3.418
 2400TIP3    H2 7142   3.657   5.780   3.363
 2401TIP3   OH2 7143   5.103   7.222   2.103
 2401TIP3    H1 7144   5.178   7.278   2.122
 2401TIP3    H2 7145   5.142   7.139   2.075
 2402TIP3   OH2 7146   3.550   2.633   3.438
 2402TIP3    H1 7147   3.638   2.648   3.471
 2402TIP3    H2 7148   3.495   2.633   3.517
 2403TIP3   OH2 7149   1.162   1.270   1.940
 2403TIP3    H1 7150   1.205   1.294   2.023
 2403TIP3    H2 7151   1.232   1.229   1.889
 2404TIP3   OH2 7152   3.974   0.710   3.282
 2404TIP3    H1 7153   4.033   0.696   3.355
 2404TIP3    H2 7154   3.958   0.805   3.282
 2405TIP3   OH2 7155   6.474   1.352   4.515
 2405TIP3    H1 7156   6.556   1.372   4.468
 2405TIP3    H2 7157   6.440   1.275   4.470
 2406TIP3   OH2 7158   1.564   3.711   3.739
 2406TIP3    H1 7159   1.469   3.711   3.751
 2406TIP3    H2 7160   1.586   3.619   3.723
 2407TIP3   OH2 7161   7.305   0.628   3.159
 2407TIP3    H1 7162   7.301   0.548   3.212
 2407TIP3    H2 7163   7.215   0.661   3.158
 2408TIP3   OH2 7164   1.813   4.204   3.271
 2408TIP3    H1 7165   1.818   4.186   3.365
 2408TIP3    H2 7166   1.749   4.274   3.264
 2409TIP3   OH2 7167   2.737   5.248   3.110
 2409TIP3    H1 7168   2.734   5.264   3.204
 2409TIP3    H2 7169   2.656   5.201   3.091
 2410TIP3   OH2 7170   4.795   0.440   3.327
 2410TIP3    H1 7171   4.803   0.457   3.421
 2410TIP3    H2 7172   4.751   0.518   3.293
 2411TIP3   OH2 7173   6.714   7.053   1.647
 2411TIP3    H1 7174   6.673   7.134   1.677
 2411TIP3    H2 7175   6.781   7.081   1.585
 2412TIP3   OH2 7176   8.303   3.140   1.255
 2412TIP3    H1 7177   8.231   3.200   1.236
 2412TIP3    H2 7178   8.311   3.087   1.176
 2413TIP3   OH2 7179   3.735   3.148   6.370
 2413TIP3    H1 7180   3.782   3.087   6.313
 2413TIP3    H2 7181   3.696   3.092   6.438
 2414TIP3   OH2 7182   6.691   6.655   4.676
 2414TIP3    H1 7183   6.772   6.707   4.680
 2414TIP3    H2 7184   6.629   6.713   4.632
 2415TIP3   OH2 7185   7.079   0.375   4.549
 2415TIP3    H1 7186   7.087   0.306   4.614
 2415TIP3    H2 7187   7.169   0.404   4.533
 2416TIP3   OH2 7188   1.540   6.962   1.830
 2416TIP3    H1 7189   1.502   7.016   1.900
 2416TIP3    H2 7190   1.612   7.016   1.796
 2417TIP3   OH2 7191   7.223   5.324   5.188
 2417TIP3    H1 7192   7.180   5.391   5.135
 2417TIP3    H2 7193   7.243   5.368   5.271
 2418TIP3   OH2 7194   4.078   5.133   6.674
 2418TIP3    H1 7195   4.142   5.078   6.719
 2418TIP3    H2 7196   4.010   5.149   6.739
 2419TIP3   OH2 7197   3.099   3.269   5.623
 2419TIP3    H1 7198   3.027   3.304   5.570
 2419TIP3    H2 7199   3.153   3.221   5.561
 2420TIP3   OH2 7200   1.749   7.096   1.714
 2420TIP3    H1 7201   1.776   7.086   1.623
 2420TIP3    H2 7202   1.791   7.177   1.743
 2421TIP3   OH2 7203   1.495   5.026   5.557
 2421TIP3    H1 7204   1.553   5.088   5.601
 2421TIP3    H2 7205   1.456   4.975   5.628
 2422TIP3   OH2 7206   5.965   4.448   2.563
 2422TIP3    H1 7207   5.952   4.354   2.566
 2422TIP3    H2 7208   5.980   4.468   2.471
 2423TIP3   OH2 7209   6.073   7.806   4.112
 2423TIP3    H1 7210   6.126   7.883   4.091
 2423TIP3    H2 7211   6.019   7.833   4.185
 2424TIP3   OH2 7212   6.806   1.142   4.359
 2424TIP3    H1 7213   6.747   1.160   4.432
 2424TIP3    H2 7214   6.858   1.222   4.351
 2425TIP3   OH2 7215   3.113   7.247   0.073
 2425TIP3    H1 7216   3.114   7.338   0.102
 2425TIP3    H2 7217   3.066   7.201   0.143
 2426TIP3   OH2 7218   8.139   1.931   4.836
 2426TIP3    H1 7219   8.149   1.896   4.747
 2426TIP3    H2 7220   8.053   1.899   4.864
 2427TIP3   OH2 7221   2.438   0.116   5.602
 2427TIP3    H1 7222   2.412   0.200   5.639
 2427TIP3    H2 7223   2.532   0.126   5.584
 2428TIP3   OH2 7224   8.007   3.744   2.684
 2428TIP3    H1 7225   8.099   3.762   2.664
 2428TIP3    H2 7226   7.960   3.817   2.644
 2429TIP3   OH2 7227   6.261   7.314   5.083
 2429TIP3    H1 7228   6.308   7.393   5.055
 2429TIP3    H2 7229   6.270   7.254   5.009
 2430TIP3   OH2 7230   2.517   6.669   2.439
 2430TIP3    H1 7231   2.526   6.581   2.402
 2430TIP3    H2 7232   2.507   6.726   2.363
 2431TIP3   OH2 7233   5.405   2.014   6.032
 2431TIP3    H1 7234   5.480   2.042   6.085
 2431TIP3    H2 7235   5.444   1.958   5.964
 2432TIP3   OH2 7236   4.636   3.205   5.527
 2432TIP3    H1 7237   4.654   3.111   5.517
 2432TIP3    H2 7238   4.669   3.227   5.614
 2433TIP3   OH2 7239   5.306   7.889   6.421
 2433TIP3    H1 7240   5.296   7.801   6.456
 2433TIP3    H2 7241   5.399   7.896   6.400
 2434TIP3   OH2 7242   1.362   2.513   5.852
 2434TIP3    H1 7243   1.324   2.574   5.915
 2434TIP3    H2 7244   1.287   2.478   5.805
 2435TIP3   OH2 7245   2.457   4.730   3.376
 2435TIP3    H1 7246   2.506   4.812   3.374
 2435TIP3    H2 7247   2.456   4.700   3.285
 2436TIP3   OH2 7248   0.880   3.152   1.650
 2436TIP3    H1 7249   0.892   3.241   1.615
 2436TIP3    H2 7250   0.924   3.095   1.587
 2437TIP3   OH2 7251   0.320   0.406   2.355
 2437TIP3    H1 7252   0.245   0.350   2.339
 2437TIP3    H2 7253   0.305   0.484   2.302
 2438TIP3   OH2 7254   6.210   2.360   4.743
 2438TIP3    H1 7255   6.291   2.327   4.781
 2438TIP3    H2 7256   6.144   2.294   4.764
 2439TIP3   OH2 7257   7.298   0.149   1.890
 2439TIP3    H1 7258   7.204   0.137   1.900
 2439TIP3    H2 7259   7.320   0.101   1.810
 2440TIP3   OH2 7260   4.317   6.238   0.759
 2440TIP3    H1 7261   4.396   6.184   0.754
 2440TIP3    H2 7262   4.301   6.266   0.669
 2441TIP3   OH2 7263   0.668   5.921   1.713
 2441TIP3    H1 7264   0.707   5.860   1.650
 2441TIP3    H2 7265   0.598   5.871   1.755
 2442TIP3   OH2 7266   7.370   7.575   3.241
 2442TIP3    H1 7267   7.371   7.628   3.321
 2442TIP3    H2 7268   7.374   7.485   3.272
 2443TIP3   OH2 7269   5.323   1.321   1.779
 2443TIP3    H1 7270   5.346   1.314   1.686
 2443TIP3    H2 7271   5.367   1.246   1.820
 2444TIP3   OH2 7272   5.227   1.606   4.941
 2444TIP3    H1 7273   5.150   1.550   4.932
 2444TIP3    H2 7274   5.282   1.584   4.866
 2445TIP3   OH2 7275   5.416   1.210   0.085
 2445TIP3    H1 7276   5.504   1.237   0.059
 2445TIP3    H2 7277   5.366   1.210   0.003
 2446TIP3   OH2 7278   3.797   3.713   4.252
 2446TIP3    H1 7279   3.726   3.672   4.302
 2446TIP3    H2 7280   3.753   3.766   4.186
 2447TIP3   OH2 7281   3.008   5.826   4.589
 2447TIP3    H1 7282   3.000   5.780   4.673
 2447TIP3    H2 7283   3.074   5.894   4.605
 2448TIP3   OH2 7284   2.470   6.821   2.209
 2448TIP3    H1 7285   2.444   6.817   2.117
 2448TIP3    H2 7286   2.417   6.891   2.247
 2449TIP3   OH2 7287   6.276   6.292   5.186
 2449TIP3    H1 7288   6.347   6.333   5.237
 2449TIP3    H2 7289   6.288   6.326   5.098
 2450TIP3   OH2 7290   6.104   6.058   5.652
 2450TIP3    H1 7291   6.044   6.073   5.724
 2450TIP3    H2 7292   6.184   6.024   5.693
 2451TIP3   OH2 7293   6.936   3.026   2.512
 2451TIP3    H1 7294   6.959   3.059   2.599
 2451TIP3    H2 7295   6.896   2.941   2.529
 2452TIP3   OH2 7296   5.329   3.526   1.007
 2452TIP3    H1 7297   5.302   3.610   0.970
 2452TIP3    H2 7298   5.362   3.477   0.933
 2453TIP3   OH2 7299   7.704   2.892   2.970
 2453TIP3    H1 7300   7.661   2.813   3.005
 2453TIP3    H2 7301   7.666   2.964   3.020
 2454TIP3   OH2 7302   1.357   3.235   6.376
 2454TIP3    H1 7303   1.414   3.221   6.451
 2454TIP3    H2 7304   1.274   3.264   6.414
 2455TIP3   OH2 7305   0.598   2.692   3.463
 2455TIP3    H1 7306   0.512   2.660   3.488
 2455TIP3    H2 7307   0.654   2.670   3.538
 2456TIP3   OH2 7308   5.608   0.861   3.160
 2456TIP3    H1 7309   5.575   0.951   3.152
 2456TIP3    H2 7310   5.579   0.818   3.080
 2457TIP3   OH2 7311   1.669   4.626   2.744
 2457TIP3    H1 7312   1.667   4.532   2.761
 2457TIP3    H2 7313   1.686   4.633   2.650
 2458TIP3   OH2 7314   4.555   5.635   3.521
 2458TIP3    H1 7315   4.499   5.694   3.471
 2458TIP3    H2 7316   4.594   5.690   3.589
 2459TIP3   OH2 7317   7.932   6.987   1.182
 2459TIP3    H1 7318   7.865   7.055   1.183
 2459TIP3    H2 7319   7.977   6.999   1.099
 2460TIP3   OH2 7320   1.976   2.589   6.456
 2460TIP3    H1 7321   1.888   2.555   6.470
 2460TIP3    H2 7322   1.970   2.638   6.373
 2461TIP3   OH2 7323   6.270   1.333   4.947
 2461TIP3    H1 7324   6.328   1.371   4.882
 2461TIP3    H2 7325   6.313   1.252   4.974
 2462TIP3   OH2 7326   6.557   4.941   2.644
 2462TIP3    H1 7327   6.619   4.944   2.716
 2462TIP3    H2 7328   6.525   4.851   2.643
 2463TIP3   OH2 7329   7.759   4.328   0.657
 2463TIP3    H1 7330   7.675   4.291   0.632
 2463TIP3    H2 7331   7.802   4.260   0.709
 2464TIP3   OH2 7332   7.604   4.972   3.929
 2464TIP3    H1 7333   7.576   4.990   4.019
 2464TIP3    H2 7334   7.573   5.048   3.879
 2465TIP3   OH2 7335   5.573   4.699   3.427
 2465TIP3    H1 7336   5.638   4.667   3.364
 2465TIP3    H2 7337   5.624   4.750   3.490
 2466TIP3   OH2 7338   7.992   3.146   1.815
 2466TIP3    H1 7339   8.006   3.139   1.721
 2466TIP3    H2 7340   7.928   3.077   1.835
 2467TIP3   OH2 7341   3.384   2.933   1.166
 2467TIP3    H1 7342   3.307   2.935   1.110
 2467TIP3    H2 7343   3.404   3.025   1.182
 2468TIP3   OH2 7344   4.345   6.141   4.934
 2468TIP3    H1 7345   4.318   6.104   5.018
 2468TIP3    H2 7346   4.391   6.222   4.957
 2469TIP3   OH2 7347   1.335   2.110   5.980
 2469TIP3    H1 7348   1.284   2.126   5.900
 2469TIP3    H2 7349   1.413   2.164   5.970
 2470TIP3   OH2 7350   2.862   2.223   1.701
 2470TIP3    H1 7351   2.936   2.281   1.717
 2470TIP3    H2 7352   2.866   2.159   1.772
 2471TIP3   OH2 7353   3.808   0.766   0.698
 2471TIP3    H1 7354   3.887   0.744   0.747
 2471TIP3    H2 7355   3.738   0.715   0.739
 2472TIP3   OH2 7356   6.708   0.678   2.181
 2472TIP3    H1 7357   6.776   0.744   2.169
 2472TIP3    H2 7358   6.662   0.705   2.260
 2473TIP3   OH2 7359   6.610   4.659   0.089
 2473TIP3    H1 7360   6.677   4.628   0.150
 2473TIP3    H2 7361   6.578   4.579   0.047
 2474TIP3   OH2 7362   2.933   7.238   0.861
 2474TIP3    H1 7363   2.905   7.193   0.941
 2474TIP3    H2 7364   3.021   7.204   0.843
 2475TIP3   OH2 7365   3.579   4.988   0.748
 2475TIP3    H1 7366   3.528   4.946   0.818
 2475TIP3    H2 7367   3.605   5.073   0.785
 2476TIP3   OH2 7368   5.921   2.298   4.173
 2476TIP3    H1 7369   5.925   2.311   4.078
 2476TIP3    H2 7370   6.005   2.330   4.205
 2477TIP3   OH2 7371   2.677   3.432   5.683
 2477TIP3    H1 7372   2.757   3.440   5.632
 2477TIP3    H2 7373   2.651   3.522   5.702
 2478TIP3   OH2 7374   7.878   3.623   6.344
 2478TIP3    H1 7375   7.844   3.588   6.427
 2478TIP3    H2 7376   7.808   3.605   6.281
 2479TIP3   OH2 7377   6.506   2.373   5.648
 2479TIP3    H1 7378   6.414   2.361   5.671
 2479TIP3    H2 7379   6.550   2.390   5.731
 2480TIP3   OH2 7380   6.450   2.884   5.130
 2480TIP3    H1 7381   6.521   2.871   5.193
 2480TIP3    H2 7382   6.491   2.871   5.044
 2481TIP3   OH2 7383   3.984   1.658   0.378
 2481TIP3    H1 7384   4.062   1.669   0.323
 2481TIP3    H2 7385   3.911   1.686   0.322
 2482TIP3   OH2 7386   1.934   5.973   4.747
 2482TIP3    H1 7387   2.030   5.975   4.750
 2482TIP3    H2 7388   1.914   5.896   4.694
 2483TIP3   OH2 7389   5.342   0.237   0.190
 2483TIP3    H1 7390   5.408   0.222   0.258
 2483TIP3    H2 7391   5.340   0.155   0.140
 2484TIP3   OH2 7392   8.168   3.885   3.024
 2484TIP3    H1 7393   8.228   3.895   3.097
 2484TIP3    H2 7394   8.157   3.791   3.014
 2485TIP3   OH2 7395   1.862   0.075   5.119
 2485TIP3    H1 7396   1.824   0.157   5.149
 2485TIP3    H2 7397   1.788   0.024   5.085
 2486TIP3   OH2 7398   6.278   2.215   6.746
 2486TIP3    H1 7399   6.340   2.172   6.687
 2486TIP3    H2 7400   6.272   2.305   6.713
 2487TIP3   OH2 7401   4.944   4.771   3.052
 2487TIP3    H1 7402   4.968   4.799   2.963
 2487TIP3    H2 7403   5.006   4.701   3.072
 2488TIP3   OH2 7404   2.929   7.160   3.744
 2488TIP3    H1 7405   2.897   7.235   3.695
 2488TIP3    H2 7406   2.973   7.105   3.679
 2489TIP3   OH2 7407   0.779   4.870   1.492
 2489TIP3    H1 7408   0.865   4.909   1.508
 2489TIP3    H2 7409   0.798   4.787   1.449
 2490TIP3   OH2 7410   0.146   0.333   6.321
 2490TIP3    H1 7411   0.125   0.249   6.279
 2490TIP3    H2 7412   0.084   0.395   6.282
 2491TIP3   OH2 7413   7.628   0.872   3.899
 2491TIP3    H1 7414   7.723   0.860   3.892
 2491TIP3    H2 7415   7.610   0.872   3.993
 2492TIP3   OH2 7416   8.259   3.272   3.791
 2492TIP3    H1 7417   8.273   3.302   3.702
 2492TIP3    H2 7418   8.238   3.179   3.782
 2493TIP3   OH2 7419   1.998   4.223   5.212
 2493TIP3    H1 7420   1.912   4.224   5.171
 2493TIP3    H2 7421   1.981   4.208   5.305
 2494TIP3   OH2 7422   1.053   6.914   0.748
 2494TIP3    H1 7423   1.082   6.893   0.837
 2494TIP3    H2 7424   1.070   6.834   0.698
 2495TIP3   OH2 7425   7.187   6.482   0.482
 2495TIP3    H1 7426   7.132   6.523   0.416
 2495TIP3    H2 7427   7.138   6.492   0.564
 2496TIP3   OH2 7428   2.708   0.982   1.417
 2496TIP3    H1 7429   2.791   0.987   1.464
 2496TIP3    H2 7430   2.725   0.922   1.344
 2497TIP3   OH2 7431   7.910   7.271   3.857
 2497TIP3    H1 7432   7.883   7.179   3.854
 2497TIP3    H2 7433   7.903   7.302   3.767
 2498TIP3   OH2 7434   0.878   2.365   0.786
 2498TIP3    H1 7435   0.938   2.438   0.804
 2498TIP3    H2 7436   0.857   2.374   0.693
 2499TIP3   OH2 7437   6.047   4.025   0.641
 2499TIP3    H1 7438   6.020   3.933   0.651
 2499TIP3    H2 7439   6.138   4.020   0.612
 2500TIP3   OH2 7440   7.973   1.288   0.914
 2500TIP3    H1 7441   8.052   1.245   0.883
 2500TIP3    H2 7442   7.925   1.310   0.834
 2501TIP3   OH2 7443   8.038   5.786   5.878
 2501TIP3    H1 7444   8.089   5.834   5.813
 2501TIP3    H2 7445   8.095   5.779   5.954
 2502TIP3   OH2 7446   0.359   6.970   6.117
 2502TIP3    H1 7447   0.284   6.912   6.134
 2502TIP3    H2 7448   0.415   6.920   6.058
 2503TIP3   OH2 7449   6.361   2.890   4.374
 2503TIP3    H1 7450   6.303   2.878   4.448
 2503TIP3    H2 7451   6.320   2.961   4.323
 2504TIP3   OH2 7452   1.387   2.571   5.484
 2504TIP3    H1 7453   1.403   2.479   5.463
 2504TIP3    H2 7454   1.452   2.593   5.551
 2505TIP3   OH2 7455   0.631   7.296   4.435
 2505TIP3    H1 7456   0.601   7.269   4.348
 2505TIP3    H2 7457   0.570   7.252   4.495
 2506TIP3   OH2 7458   8.310   6.235   4.036
 2506TIP3    H1 7459   8.230   6.286   4.044
 2506TIP3    H2 7460   8.369   6.291   3.985
 2507TIP3   OH2 7461   2.236   1.564   6.234
 2507TIP3    H1 7462   2.153   1.608   6.214
 2507TIP3    H2 7463   2.293   1.634   6.267
 2508TIP3   OH2 7464   4.360   3.105   6.719
 2508TIP3    H1 7465   4.364   3.011   6.701
 2508TIP3    H2 7466   4.429   3.120   6.784
 2509TIP3   OH2 7467   2.284   7.221   3.418
 2509TIP3    H1 7468   2.280   7.302   3.368
 2509TIP3    H2 7469   2.359   7.174   3.381
 2510TIP3   OH2 7470   1.919   2.685   0.429
 2510TIP3    H1 7471   1.873   2.635   0.363
 2510TIP3    H2 7472   2.010   2.687   0.399
 2511TIP3   OH2 7473   7.571   7.777   5.788
 2511TIP3    H1 7474   7.630   7.703   5.803
 2511TIP3    H2 7475   7.549   7.808   5.876
 2512TIP3   OH2 7476   7.612   1.576   3.159
 2512TIP3    H1 7477   7.520   1.575   3.185
 2512TIP3    H2 7478   7.636   1.668   3.156
 2513TIP3   OH2 7479   8.368   4.170  -0.008
 2513TIP3    H1 7480   8.347   4.090   0.042
 2513TIP3    H2 7481   8.463   4.169  -0.017
 2514TIP3   OH2 7482   6.497   2.732   2.698
 2514TIP3    H1 7483   6.414   2.767   2.666
 2514TIP3    H2 7484   6.549   2.809   2.721
 2515TIP3   OH2 7485   6.897   7.025   6.608
 2515TIP3    H1 7486   6.960   7.043   6.539
 2515TIP3    H2 7487   6.950   7.006   6.685
 2516TIP3   OH2 7488   0.487   0.660   5.829
 2516TIP3    H1 7489   0.391   0.659   5.832
 2516TIP3    H2 7490   0.508   0.752   5.811
 2517TIP3   OH2 7491   0.613   5.293   2.932
 2517TIP3    H1 7492   0.521   5.307   2.952
 2517TIP3    H2 7493   0.639   5.370   2.881
 2518TIP3   OH2 7494   6.662   1.440   4.307
 2518TIP3    H1 7495   6.655   1.535   4.316
 2518TIP3    H2 7496   6.749   1.427   4.268
 2519TIP3   OH2 7497   2.989   7.234   6.540
 2519TIP3    H1 7498   2.949   7.198   6.619
 2519TIP3    H2 7499   2.916   7.248   6.479
 2520TIP3   OH2 7500   2.613   3.566   0.355
 2520TIP3    H1 7501   2.657   3.573   0.271
 2520TIP3    H2 7502   2.544   3.501   0.341
 2521TIP3   OH2 7503   8.315   3.930   2.805
 2521TIP3    H1 7504   8.268   3.930   2.889
 2521TIP3    H2 7505   8.397   3.884   2.824
 2522TIP3   OH2 7506   3.242   3.912   5.004
 2522TIP3    H1 7507   3.214   3.874   4.920
 2522TIP3    H2 7508   3.301   3.983   4.980
 2523TIP3   OH2 7509   2.855   7.663   3.489
 2523TIP3    H1 7510   2.802   7.681   3.567
 2523TIP3    H2 7511   2.898   7.746   3.469
 2524TIP3   OH2 7512   0.873   1.286   2.343
 2524TIP3    H1 7513   0.790   1.281   2.296
 2524TIP3    H2 7514   0.929   1.338   2.286
 2525TIP3   OH2 7515   4.477   5.565   6.377
 2525TIP3    H1 7516   4.415   5.635   6.399
 2525TIP3    H2 7517   4.447   5.489   6.427
 2526TIP3   OH2 7518   4.854   3.502   3.609
 2526TIP3    H1 7519   4.800   3.479   3.685
 2526TIP3    H2 7520   4.929   3.443   3.615
 2527TIP3   OH2 7521   5.429   7.381   1.326
 2527TIP3    H1 7522   5.378   7.302   1.312
 2527TIP3    H2 7523   5.492   7.383   1.253
 2528TIP3   OH2 7524   7.440   6.765   2.084
 2528TIP3    H1 7525   7.355   6.766   2.128
 2528TIP3    H2 7526   7.459   6.857   2.065
 2529TIP3   OH2 7527   6.302   7.397   3.761
 2529TIP3    H1 7528   6.305   7.316   3.812
 2529TIP3    H2 7529   6.212   7.403   3.730
 2530TIP3   OH2 7530   2.100   4.020   3.503
 2530TIP3    H1 7531   2.165   4.091   3.500
 2530TIP3    H2 7532   2.038   4.041   3.435
 2531TIP3   OH2 7533   2.346   6.990   4.457
 2531TIP3    H1 7534   2.300   7.040   4.389
 2531TIP3    H2 7535   2.418   7.048   4.484
 2532TIP3   OH2 7536   0.845   7.277   6.589
 2532TIP3    H1 7537   0.871   7.349   6.531
 2532TIP3    H2 7538   0.819   7.207   6.530
 2533TIP3   OH2 7539   0.710   3.889   2.689
 2533TIP3    H1 7540   0.751   3.914   2.772
 2533TIP3    H2 7541   0.703   3.971   2.640
 2534TIP3   OH2 7542   4.621   6.543   2.865
 2534TIP3    H1 7543   4.587   6.631   2.849
 2534TIP3    H2 7544   4.704   6.541   2.817
 2535TIP3   OH2 7545   8.221   6.010   4.123
 2535TIP3    H1 7546   8.201   5.952   4.049
 2535TIP3    H2 7547   8.241   6.094   4.082
 2536TIP3   OH2 7548   5.615   6.446   1.140
 2536TIP3    H1 7549   5.684   6.487   1.089
 2536TIP3    H2 7550   5.601   6.361   1.098
 2537TIP3   OH2 7551   2.889   2.634   0.419
 2537TIP3    H1 7552   2.904   2.664   0.329
 2537TIP3    H2 7553   2.900   2.539   0.414
 2538TIP3   OH2 7554   1.836   0.621   0.633
 2538TIP3    H1 7555   1.748   0.638   0.665
 2538TIP3    H2 7556   1.881   0.706   0.637
 2539TIP3   OH2 7557   4.242   7.834   4.835
 2539TIP3    H1 7558   4.310   7.784   4.788
 2539TIP3    H2 7559   4.162   7.785   4.819
 2540TIP3   OH2 7560   0.598   1.358   1.292
 2540TIP3    H1 7561   0.682   1.392   1.322
 2540TIP3    H2 7562   0.617   1.314   1.210
 2541TIP3   OH2 7563   3.065   5.457   2.216
 2541TIP3    H1 7564   3.048   5.388   2.152
 2541TIP3    H2 7565   3.117   5.415   2.284
 2542TIP3   OH2 7566   8.147   7.659   4.140
 2542TIP3    H1 7567   8.213   7.606   4.185
 2542TIP3    H2 7568   8.140   7.739   4.192
 2543TIP3   OH2 7569   1.618   2.225   5.244
 2543TIP3    H1 7570   1.656   2.143   5.213
 2543TIP3    H2 7571   1.560   2.253   5.172
 2544TIP3   OH2 7572   3.879   4.192   0.091
 2544TIP3    H1 7573   3.827   4.162   0.166
 2544TIP3    H2 7574   3.970   4.177   0.118
 2545TIP3   OH2 7575   0.888   1.851   3.441
 2545TIP3    H1 7576   0.965   1.861   3.496
 2545TIP3    H2 7577   0.922   1.832   3.354
 2546TIP3   OH2 7578   5.644   2.335   2.958
 2546TIP3    H1 7579   5.693   2.407   2.998
 2546TIP3    H2 7580   5.623   2.277   3.031
 2547TIP3   OH2 7581   1.071   6.861   4.417
 2547TIP3    H1 7582   0.989   6.908   4.429
 2547TIP3    H2 7583   1.055   6.802   4.344
 2548TIP3   OH2 7584   2.121   1.384   5.041
 2548TIP3    H1 7585   2.028   1.403   5.031
 2548TIP3    H2 7586   2.124   1.324   5.116
 2549TIP3   OH2 7587   7.955   1.568   0.365
 2549TIP3    H1 7588   7.989   1.584   0.453
 2549TIP3    H2 7589   7.881   1.629   0.357
 2550TIP3   OH2 7590   3.983   2.138   2.787
 2550TIP3    H1 7591   4.071   2.115   2.757
 2550TIP3    H2 7592   3.940   2.053   2.801
 2551TIP3   OH2 7593   1.921   6.346   5.754
 2551TIP3    H1 7594   1.908   6.431   5.795
 2551TIP3    H2 7595   2.001   6.312   5.794
 2552TIP3   OH2 7596   0.144   5.453   2.794
 2552TIP3    H1 7597   0.208   5.521   2.811
 2552TIP3    H2 7598   0.192   5.386   2.745
 2553TIP3   OH2 7599   7.029   0.104   0.203
 2553TIP3    H1 7600   7.030   0.066   0.291
 2553TIP3    H2 7601   7.009   0.030   0.145
 2554TIP3   OH2 7602   7.470   4.105   3.069
 2554TIP3    H1 7603   7.424   4.180   3.107
 2554TIP3    H2 7604   7.537   4.083   3.133
 2555TIP3   OH2 7605   0.888   5.615   1.974
 2555TIP3    H1 7606   0.962   5.596   1.916
 2555TIP3    H2 7607   0.841   5.531   1.979
 2556TIP3   OH2 7608   6.698   0.724   0.889
 2556TIP3    H1 7609   6.663   0.783   0.956
 2556TIP3    H2 7610   6.651   0.642   0.903
 2557TIP3   OH2 7611   1.692   3.912   6.801
 2557TIP3    H1 7612   1.724   3.902   6.891
 2557TIP3    H2 7613   1.771   3.920   6.748
 2558TIP3   OH2 7614   3.801   1.741   2.344
 2558TIP3    H1 7615   3.713   1.770   2.370
 2558TIP3    H2 7616   3.856   1.818   2.356
 2559TIP3   OH2 7617   7.589   0.794   6.269
 2559TIP3    H1 7618   7.657   0.829   6.328
 2559TIP3    H2 7619   7.511   0.789   6.324
 2560TIP3   OH2 7620   2.170   1.328   0.157
 2560TIP3    H1 7621   2.164   1.386   0.081
 2560TIP3    H2 7622   2.110   1.256   0.138
 2561TIP3   OH2 7623   7.019   1.621   5.595
 2561TIP3    H1 7624   7.024   1.545   5.652
 2561TIP3    H2 7625   6.937   1.664   5.620
 2562TIP3   OH2 7626   2.297   1.787   2.605
 2562TIP3    H1 7627   2.356   1.712   2.607
 2562TIP3    H2 7628   2.321   1.835   2.526
 2563TIP3   OH2 7629   4.231   3.412   2.881
 2563TIP3    H1 7630   4.162   3.435   2.818
 2563TIP3    H2 7631   4.244   3.492   2.932
 2564TIP3   OH2 7632   5.987   6.568   0.361
 2564TIP3    H1 7633   5.980   6.565   0.456
 2564TIP3    H2 7634   5.901   6.539   0.330
 2565TIP3   OH2 7635   2.115   1.794   5.823
 2565TIP3    H1 7636   2.142   1.738   5.750
 2565TIP3    H2 7637   2.030   1.759   5.850
 2566TIP3   OH2 7638   6.705   3.721   5.813
 2566TIP3    H1 7639   6.631   3.667   5.841
 2566TIP3    H2 7640   6.724   3.692   5.724
 2567TIP3   OH2 7641   3.450   4.060   3.884
 2567TIP3    H1 7642   3.410   4.146   3.872
 2567TIP3    H2 7643   3.413   4.005   3.815
 2568TIP3   OH2 7644   2.278   2.928   1.312
 2568TIP3    H1 7645   2.282   2.873   1.391
 2568TIP3    H2 7646   2.245   3.012   1.343
 2569TIP3   OH2 7647   4.924   4.162   3.332
 2569TIP3    H1 7648   4.991   4.180   3.398
 2569TIP3    H2 7649   4.938   4.071   3.307
 2570TIP3   OH2 7650   4.921   0.632   1.067
 2570TIP3    H1 7651   4.902   0.605   0.977
 2570TIP3    H2 7652   5.015   0.652   1.067
 2571TIP3   OH2 7653   4.819   2.758   5.726
 2571TIP3    H1 7654   4.865   2.702   5.788
 2571TIP3    H2 7655   4.785   2.698   5.660
 2572TIP3   OH2 7656   6.759   5.760   2.818
 2572TIP3    H1 7657   6.782   5.776   2.726
 2572TIP3    H2 7658   6.798   5.833   2.865
 2573TIP3   OH2 7659   0.610   2.196   2.609
 2573TIP3    H1 7660   0.543   2.206   2.541
 2573TIP3    H2 7661   0.560   2.176   2.688
 2574TIP3   OH2 7662   0.253   5.692   2.887
 2574TIP3    H1 7663   0.223   5.746   2.814
 2574TIP3    H2 7664   0.344   5.718   2.901
 2575TIP3   OH2 7665   5.354   3.359   1.453
 2575TIP3    H1 7666   5.435   3.396   1.489
 2575TIP3    H2 7667   5.310   3.433   1.411
 2576TIP3   OH2 7668   5.046   4.096   5.282
 2576TIP3    H1 7669   5.008   4.180   5.255
 2576TIP3    H2 7670   5.030   4.092   5.377
 2577TIP3   OH2 7671   5.169   7.382   3.019
 2577TIP3    H1 7672   5.085   7.339   3.006
 2577TIP3    H2 7673   5.234   7.313   3.007
 2578TIP3   OH2 7674   7.427   2.100   2.266
 2578TIP3    H1 7675   7.360   2.035   2.288
 2578TIP3    H2 7676   7.426   2.161   2.340
 2579TIP3   OH2 7677   1.115   0.503   1.953
 2579TIP3    H1 7678   1.062   0.583   1.955
 2579TIP3    H2 7679   1.051   0.432   1.948
 2580TIP3   OH2 7680   3.294   1.252   6.227
 2580TIP3    H1 7681   3.351   1.327   6.212
 2580TIP3    H2 7682   3.351   1.176   6.214
 2581TIP3   OH2 7683   5.960   3.740   0.705
 2581TIP3    H1 7684   5.902   3.756   0.780
 2581TIP3    H2 7685   5.972   3.645   0.704
 2582TIP3   OH2 7686   6.000   5.937   2.218
 2582TIP3    H1 7687   6.059   5.863   2.206
 2582TIP3    H2 7688   6.042   6.009   2.170
 2583TIP3   OH2 7689   1.695   4.028   6.485
 2583TIP3    H1 7690   1.645   4.102   6.519
 2583TIP3    H2 7691   1.786   4.058   6.485
 2584TIP3   OH2 7692   1.018   7.582   1.714
 2584TIP3    H1 7693   0.943   7.563   1.769
 2584TIP3    H2 7694   1.018   7.678   1.706
 2585TIP3   OH2 7695   1.346   5.379   0.925
 2585TIP3    H1 7696   1.339   5.285   0.913
 2585TIP3    H2 7697   1.270   5.415   0.880
 2586TIP3   OH2 7698   6.439   2.234   1.379
 2586TIP3    H1 7699   6.411   2.237   1.471
 2586TIP3    H2 7700   6.373   2.285   1.332
 2587TIP3   OH2 7701   5.111   2.248   3.677
 2587TIP3    H1 7702   5.082   2.191   3.606
 2587TIP3    H2 7703   5.205   2.235   3.682
 2588TIP3   OH2 7704   2.253   4.678   1.977
 2588TIP3    H1 7705   2.184   4.671   2.044
 2588TIP3    H2 7706   2.209   4.718   1.902
 2589TIP3   OH2 7707   6.119   4.845   0.005
 2589TIP3    H1 7708   6.077   4.901   0.070
 2589TIP3    H2 7709   6.049   4.824  -0.057
 2590TIP3   OH2 7710   5.404   4.345   4.454
 2590TIP3    H1 7711   5.471   4.388   4.401
 2590TIP3    H2 7712   5.450   4.274   4.498
 2591TIP3   OH2 7713   4.356   3.453   5.126
 2591TIP3    H1 7714   4.334   3.373   5.078
 2591TIP3    H2 7715   4.352   3.522   5.060
 2592TIP3   OH2 7716   4.448   6.508   6.378
 2592TIP3    H1 7717   4.480   6.526   6.466
 2592TIP3    H2 7718   4.380   6.442   6.389
 2593TIP3   OH2 7719   4.612   4.263   2.468
 2593TIP3    H1 7720   4.672   4.256   2.393
 2593TIP3    H2 7721   4.526   4.277   2.428
 2594TIP3   OH2 7722   4.868   1.127   1.622
 2594TIP3    H1 7723   4.893   1.191   1.555
 2594TIP3    H2 7724   4.825   1.180   1.690
 2595TIP3   OH2 7725   5.165   4.454   5.222
 2595TIP3    H1 7726   5.240   4.479   5.276
 2595TIP3    H2 7727   5.202   4.427   5.138
 2596TIP3   OH2 7728   2.525   0.896   0.503
 2596TIP3    H1 7729   2.521   0.810   0.544
 2596TIP3    H2 7730   2.596   0.889   0.439
 2597TIP3   OH2 7731   1.039   5.274   5.159
 2597TIP3    H1 7732   1.133   5.273   5.177
 2597TIP3    H2 7733   1.005   5.346   5.213
 2598TIP3   OH2 7734   2.861   2.744   3.922
 2598TIP3    H1 7735   2.854   2.810   3.991
 2598TIP3    H2 7736   2.823   2.786   3.844
 2599TIP3   OH2 7737   3.727   2.159   3.055
 2599TIP3    H1 7738   3.712   2.073   3.015
 2599TIP3    H2 7739   3.700   2.149   3.146
 2600TIP3   OH2 7740   6.147   7.039   5.158
 2600TIP3    H1 7741   6.213   7.048   5.227
 2600TIP3    H2 7742   6.197   7.015   5.080
 2601TIP3   OH2 7743   6.964   5.575   4.401
 2601TIP3    H1 7744   6.900   5.627   4.354
 2601TIP3    H2 7745   6.935   5.484   4.388
 2602TIP3   OH2 7746   5.990   1.411   1.982
 2602TIP3    H1 7747   6.080   1.392   1.958
 2602TIP3    H2 7748   5.949   1.325   1.993
 2603TIP3   OH2 7749   4.159   2.138   1.263
 2603TIP3    H1 7750   4.202   2.080   1.202
 2603TIP3    H2 7751   4.119   2.206   1.208
 2604TIP3   OH2 7752   7.639   6.313   6.015
 2604TIP3    H1 7753   7.690   6.297   5.935
 2604TIP3    H2 7754   7.703   6.310   6.086
 2605TIP3   OH2 7755   6.651   5.141   6.772
 2605TIP3    H1 7756   6.649   5.074   6.703
 2605TIP3    H2 7757   6.571   5.126   6.823
 2606TIP3   OH2 7758   1.092   6.368   3.327
 2606TIP3    H1 7759   1.114   6.320   3.407
 2606TIP3    H2 7760   1.020   6.319   3.288
 2607TIP3   OH2 7761   0.482   7.026   5.400
 2607TIP3    H1 7762   0.528   7.095   5.353
 2607TIP3    H2 7763   0.478   6.954   5.338
 2608TIP3   OH2 7764   5.107   1.983   6.068
 2608TIP3    H1 7765   5.080   1.911   6.125
 2608TIP3    H2 7766   5.193   1.957   6.035
 2609TIP3   OH2 7767   6.301   2.766   0.546
 2609TIP3    H1 7768   6.258   2.749   0.630
 2609TIP3    H2 7769   6.331   2.680   0.517
 2610TIP3   OH2 7770   7.058   1.195   6.481
 2610TIP3    H1 7771   7.027   1.147   6.557
 2610TIP3    H2 7772   6.998   1.168   6.410
 2611TIP3   OH2 7773   1.403   5.233   4.444
 2611TIP3    H1 7774   1.488   5.271   4.466
 2611TIP3    H2 7775   1.340   5.287   4.491
 2612TIP3   OH2 7776   7.158   1.964   2.335
 2612TIP3    H1 7777   7.071   1.926   2.346
 2612TIP3    H2 7778   7.150   2.021   2.258
 2613TIP3   OH2 7779   3.722   2.406   5.976
 2613TIP3    H1 7780   3.701   2.343   5.907
 2613TIP3    H2 7781   3.811   2.435   5.957
 2614TIP3   OH2 7782   2.939   7.846   0.994
 2614TIP3    H1 7783   3.031   7.857   1.019
 2614TIP3    H2 7784   2.891   7.854   1.076
 2615TIP3   OH2 7785   5.632   5.197   6.019
 2615TIP3    H1 7786   5.572   5.238   5.956
 2615TIP3    H2 7787   5.704   5.258   6.027
 2616TIP3   OH2 7788   0.129   1.235   3.966
 2616TIP3    H1 7789   0.035   1.246   3.979
 2616TIP3    H2 7790   0.161   1.204   4.051
 2617TIP3   OH2 7791   4.581   7.318   6.545
 2617TIP3    H1 7792   4.602   7.383   6.612
 2617TIP3    H2 7793   4.597   7.234   6.588
 2618TIP3   OH2 7794   3.853   3.735   2.777
 2618TIP3    H1 7795   3.796   3.695   2.843
 2618TIP3    H2 7796   3.905   3.662   2.743
 2619TIP3   OH2 7797   4.257   7.253   4.856
 2619TIP3    H1 7798   4.295   7.284   4.773
 2619TIP3    H2 7799   4.308   7.174   4.877
 2620TIP3   OH2 7800   5.767   5.135   6.763
 2620TIP3    H1 7801   5.753   5.134   6.668
 2620TIP3    H2 7802   5.699   5.194   6.796
 2621TIP3   OH2 7803   7.679   7.607   4.995
 2621TIP3    H1 7804   7.664   7.688   4.945
 2621TIP3    H2 7805   7.592   7.582   5.025
 2622TIP3   OH2 7806   6.361   0.336   5.206
 2622TIP3    H1 7807   6.310   0.317   5.128
 2622TIP3    H2 7808   6.299   0.377   5.266
 2623TIP3   OH2 7809   6.821   6.859   4.293
 2623TIP3    H1 7810   6.814   6.940   4.244
 2623TIP3    H2 7811   6.740   6.811   4.274
 2624TIP3   OH2 7812   1.337   5.150   4.198
 2624TIP3    H1 7813   1.244   5.165   4.182
 2624TIP3    H2 7814   1.350   5.178   4.288
 2625TIP3   OH2 7815   0.919   1.185   5.807
 2625TIP3    H1 7816   0.828   1.174   5.780
 2625TIP3    H2 7817   0.962   1.104   5.780
 2626TIP3   OH2 7818   1.605   6.254   5.347
 2626TIP3    H1 7819   1.685   6.269   5.397
 2626TIP3    H2 7820   1.636   6.236   5.258
 2627TIP3   OH2 7821   3.722   1.290   4.404
 2627TIP3    H1 7822   3.654   1.266   4.467
 2627TIP3    H2 7823   3.772   1.359   4.447
 2628TIP3   OH2 7824   2.221   6.174   2.270
 2628TIP3    H1 7825   2.262   6.241   2.325
 2628TIP3    H2 7826   2.223   6.212   2.182
 2629TIP3   OH2 7827   3.908   0.353   3.803
 2629TIP3    H1 7828   3.956   0.401   3.735
 2629TIP3    H2 7829   3.885   0.419   3.868
 2630TIP3   OH2 7830   0.503   4.309   3.414
 2630TIP3    H1 7831   0.423   4.286   3.461
 2630TIP3    H2 7832   0.548   4.225   3.401
 2631TIP3   OH2 7833   0.088   6.127   6.863
 2631TIP3    H1 7834   0.064   6.161   6.776
 2631TIP3    H2 7835   0.005   6.122   6.910
 2632TIP3   OH2 7836   4.492   3.455   1.709
 2632TIP3    H1 7837   4.537   3.454   1.625
 2632TIP3    H2 7838   4.515   3.372   1.750
 2633TIP3   OH2 7839   1.946   0.750   0.172
 2633TIP3    H1 7840   1.980   0.792   0.094
 2633TIP3    H2 7841   2.023   0.732   0.226
 2634TIP3   OH2 7842   5.764   2.121   1.101
 2634TIP3    H1 7843   5.842   2.065   1.094
 2634TIP3    H2 7844   5.756   2.139   1.195
 2635TIP3   OH2 7845   4.321   2.595   5.650
 2635TIP3    H1 7846   4.317   2.611   5.744
 2635TIP3    H2 7847   4.415   2.593   5.630
 2636TIP3   OH2 7848   4.074   1.836   5.571
 2636TIP3    H1 7849   4.136   1.906   5.588
 2636TIP3    H2 7850   4.009   1.874   5.512
 2637TIP3   OH2 7851   8.308   3.802   0.502
 2637TIP3    H1 7852   8.321   3.711   0.476
 2637TIP3    H2 7853   8.216   3.805   0.530
 2638TIP3   OH2 7854   7.451   7.046   6.732
 2638TIP3    H1 7855   7.399   6.966   6.741
 2638TIP3    H2 7856   7.535   7.024   6.773
 2639TIP3   OH2 7857   1.930   6.139   3.356
 2639TIP3    H1 7858   1.914   6.234   3.354
 2639TIP3    H2 7859   1.847   6.101   3.386
 2640TIP3   OH2 7860   2.605   1.510   2.820
 2640TIP3    H1 7861   2.637   1.515   2.910
 2640TIP3    H2 7862   2.643   1.587   2.777
 2641TIP3   OH2 7863   7.177   1.233   4.067
 2641TIP3    H1 7864   7.082   1.232   4.070
 2641TIP3    H2 7865   7.203   1.295   4.136
 2642TIP3   OH2 7866   6.074   6.676   5.777
 2642TIP3    H1 7867   6.068   6.581   5.787
 2642TIP3    H2 7868   6.076   6.690   5.682
 2643TIP3   OH2 7869   0.249   2.234   2.091
 2643TIP3    H1 7870   0.238   2.293   2.017
 2643TIP3    H2 7871   0.191   2.160   2.073
 2644TIP3   OH2 7872   2.460   3.838   1.217
 2644TIP3    H1 7873   2.467   3.900   1.289
 2644TIP3    H2 7874   2.550   3.808   1.202
 2645TIP3   OH2 7875   6.107   7.017   3.534
 2645TIP3    H1 7876   6.198   7.016   3.504
 2645TIP3    H2 7877   6.111   6.991   3.625
 2646TIP3   OH2 7878   0.790   4.539   5.298
 2646TIP3    H1 7879   0.799   4.531   5.393
 2646TIP3    H2 7880   0.865   4.591   5.271
 2647TIP3   OH2 7881   7.973   7.889   0.286
 2647TIP3    H1 7882   7.964   7.807   0.238
 2647TIP3    H2 7883   8.041   7.870   0.352
 2648TIP3   OH2 7884   1.311   0.484   4.045
 2648TIP3    H1 7885   1.224   0.521   4.033
 2648TIP3    H2 7886   1.295   0.391   4.062
 2649TIP3   OH2 7887   7.333   6.520   6.758
 2649TIP3    H1 7888   7.287   6.450   6.712
 2649TIP3    H2 7889   7.271   6.551   6.824
 2650TIP3   OH2 7890   2.702   0.748   1.202
 2650TIP3    H1 7891   2.701   0.662   1.159
 2650TIP3    H2 7892   2.791   0.756   1.238
 2651TIP3   OH2 7893   5.106   0.819   1.856
 2651TIP3    H1 7894   5.138   0.729   1.848
 2651TIP3    H2 7895   5.150   0.853   1.934
 2652TIP3   OH2 7896   3.380   6.051   3.751
 2652TIP3    H1 7897   3.471   6.074   3.766
 2652TIP3    H2 7898   3.333   6.134   3.756
 2653TIP3   OH2 7899   7.695   5.608   2.560
 2653TIP3    H1 7900   7.619   5.561   2.594
 2653TIP3    H2 7901   7.766   5.544   2.566
 2654TIP3   OH2 7902   3.406  -0.026   1.822
 2654TIP3    H1 7903   3.348   0.036   1.866
 2654TIP3    H2 7904   3.491   0.018   1.819
 2655TIP3   OH2 7905   7.503   4.275   0.619
 2655TIP3    H1 7906   7.475   4.222   0.545
 2655TIP3    H2 7907   7.422   4.310   0.655
 2656TIP3   OH2 7908   6.895   5.018   3.709
 2656TIP3    H1 7909   6.940   4.964   3.644
 2656TIP3    H2 7910   6.912   5.108   3.680
 2657TIP3   OH2 7911   8.193   6.972   2.271
 2657TIP3    H1 7912   8.242   6.891   2.284
 2657TIP3    H2 7913   8.110   6.957   2.315
 2658TIP3   OH2 7914   0.970   0.281   0.643
 2658TIP3    H1 7915   0.932   0.356   0.689
 2658TIP3    H2 7916   1.044   0.316   0.595
 2659TIP3   OH2 7917   1.992   7.315   2.852
 2659TIP3    H1 7918   1.961   7.373   2.782
 2659TIP3    H2 7919   1.914   7.265   2.877
 2660TIP3   OH2 7920   0.145   3.717   5.252
 2660TIP3    H1 7921   0.156   3.650   5.184
 2660TIP3    H2 7922   0.199   3.790   5.221
 2661TIP3   OH2 7923   6.837   4.939   4.191
 2661TIP3    H1 7924   6.839   4.851   4.229
 2661TIP3    H2 7925   6.752   4.975   4.218
 2662TIP3   OH2 7926   7.305   3.761   3.299
 2662TIP3    H1 7927   7.323   3.855   3.309
 2662TIP3    H2 7928   7.262   3.753   3.214
 2663TIP3   OH2 7929   3.769   4.812   4.252
 2663TIP3    H1 7930   3.802   4.889   4.206
 2663TIP3    H2 7931   3.777   4.834   4.345
 2664TIP3   OH2 7932   0.193   7.806   0.913
 2664TIP3    H1 7933   0.173   7.751   0.837
 2664TIP3    H2 7934   0.216   7.744   0.982
 2665TIP3   OH2 7935   6.357   6.928   3.494
 2665TIP3    H1 7936   6.388   6.915   3.584
 2665TIP3    H2 7937   6.436   6.917   3.440
 2666TIP3   OH2 7938   1.790   5.931   2.052
 2666TIP3    H1 7939   1.870   5.879   2.045
 2666TIP3    H2 7940   1.721   5.868   2.069
 2667TIP3   OH2 7941   0.217   6.112   4.469
 2667TIP3    H1 7942   0.159   6.087   4.541
 2667TIP3    H2 7943   0.244   6.029   4.430
 2668TIP3   OH2 7944   6.799   5.841   0.975
 2668TIP3    H1 7945   6.889   5.865   0.955
 2668TIP3    H2 7946   6.748   5.876   0.901
 2669TIP3   OH2 7947   1.086   6.534   5.360
 2669TIP3    H1 7948   1.092   6.621   5.320
 2669TIP3    H2 7949   1.160   6.530   5.421
 2670TIP3   OH2 7950   7.683   5.701   3.282
 2670TIP3    H1 7951   7.636   5.665   3.206
 2670TIP3    H2 7952   7.767   5.728   3.247
 2671TIP3   OH2 7953   6.031   5.239   3.453
 2671TIP3    H1 7954   5.959   5.277   3.403
 2671TIP3    H2 7955   5.997   5.230   3.542
 2672TIP3   OH2 7956   7.991   1.991   4.410
 2672TIP3    H1 7957   8.055   2.004   4.340
 2672TIP3    H2 7958   8.004   1.900   4.437
 2673TIP3   OH2 7959   5.232   1.214   6.259
 2673TIP3    H1 7960   5.241   1.179   6.348
 2673TIP3    H2 7961   5.142   1.195   6.235
 2674TIP3   OH2 7962   1.429   0.608   3.120
 2674TIP3    H1 7963   1.517   0.616   3.157
 2674TIP3    H2 7964   1.443   0.604   3.025
 2675TIP3   OH2 7965   4.871   6.383   1.793
 2675TIP3    H1 7966   4.897   6.303   1.747
 2675TIP3    H2 7967   4.937   6.448   1.766
 2676TIP3   OH2 7968   4.238   0.850   0.634
 2676TIP3    H1 7969   4.177   0.794   0.585
 2676TIP3    H2 7970   4.287   0.896   0.566
 2677TIP3   OH2 7971   6.020   7.037   0.766
 2677TIP3    H1 7972   6.073   7.112   0.792
 2677TIP3    H2 7973   5.953   7.029   0.834
 2678TIP3   OH2 7974   2.920   3.143   4.301
 2678TIP3    H1 7975   2.906   3.102   4.387
 2678TIP3    H2 7976   3.004   3.188   4.308
 2679TIP3   OH2 7977   2.762   7.267   4.107
 2679TIP3    H1 7978   2.848   7.231   4.085
 2679TIP3    H2 7979   2.721   7.283   4.022
 2680TIP3   OH2 7980   7.957   3.999   3.650
 2680TIP3    H1 7981   7.937   3.908   3.669
 2680TIP3    H2 7982   8.026   4.022   3.713
 2681TIP3   OH2 7983   2.474   6.019   2.781
 2681TIP3    H1 7984   2.554   6.036   2.831
 2681TIP3    H2 7985   2.505   5.978   2.700
 2682TIP3   OH2 7986   1.881   7.662   2.404
 2682TIP3    H1 7987   1.859   7.664   2.497
 2682TIP3    H2 7988   1.970   7.696   2.399
 2683TIP3   OH2 7989   3.722   4.223   4.121
 2683TIP3    H1 7990   3.763   4.300   4.081
 2683TIP3    H2 7991   3.732   4.154   4.055
 2684TIP3   OH2 7992   1.983   7.321   0.613
 2684TIP3    H1 7993   1.946   7.340   0.699
 2684TIP3    H2 7994   1.917   7.352   0.551
 2685TIP3   OH2 7995   5.639   5.706   2.042
 2685TIP3    H1 7996   5.697   5.637   2.011
 2685TIP3    H2 7997   5.675   5.786   2.004
 2686TIP3   OH2 7998   7.340   6.187   5.530
 2686TIP3    H1 7999   7.328   6.276   5.563
 2686TIP3    H2 8000   7.422   6.157   5.569
 2687TIP3   OH2 8001   6.934   6.173   3.344
 2687TIP3    H1 8002   6.956   6.205   3.432
 2687TIP3    H2 8003   6.848   6.132   3.355
 2688TIP3   OH2 8004   5.712   5.414   0.290
 2688TIP3    H1 8005   5.798   5.456   0.280
 2688TIP3    H2 8006   5.689   5.429   0.381
 2689TIP3   OH2 8007   7.883   6.085   4.560
 2689TIP3    H1 8008   7.918   6.055   4.476
 2689TIP3    H2 8009   7.892   6.009   4.618
 2690TIP3   OH2 8010   4.705   4.882   6.297
 2690TIP3    H1 8011   4.657   4.813   6.251
 2690TIP3    H2 8012   4.741   4.936   6.227
 2691TIP3   OH2 8013   3.976   7.278   6.450
 2691TIP3    H1 8014   3.904   7.305   6.507
 2691TIP3    H2 8015   4.053   7.320   6.489
 2692TIP3   OH2 8016   0.785   4.109   1.655
 2692TIP3    H1 8017   0.720   4.151   1.712
 2692TIP3    H2 8018   0.738   4.038   1.612
 2693TIP3   OH2 8019   7.583   3.220   1.001
 2693TIP3    H1 8020   7.544   3.148   1.051
 2693TIP3    H2 8021   7.609   3.181   0.918
 2694TIP3   OH2 8022   7.836   5.943   2.856
 2694TIP3    H1 8023   7.779   5.983   2.921
 2694TIP3    H2 8024   7.855   5.856   2.892
 2695TIP3   OH2 8025   5.631   3.071   2.900
 2695TIP3    H1 8026   5.667   3.048   2.814
 2695TIP3    H2 8027   5.631   2.988   2.949
 2696TIP3   OH2 8028   0.917   7.884   5.890
 2696TIP3    H1 8029   0.832   7.844   5.871
 2696TIP3    H2 8030   0.981   7.823   5.853
 2697TIP3   OH2 8031   6.248   2.248   5.173
 2697TIP3    H1 8032   6.190   2.176   5.146
 2697TIP3    H2 8033   6.320   2.204   5.219
 2698TIP3   OH2 8034   3.402   4.147   0.615
 2698TIP3    H1 8035   3.486   4.167   0.658
 2698TIP3    H2 8036   3.405   4.195   0.533
 2699TIP3   OH2 8037   3.655   2.571   1.687
 2699TIP3    H1 8038   3.563   2.554   1.707
 2699TIP3    H2 8039   3.657   2.661   1.655
 2700TIP3   OH2 8040   8.034   1.720   4.372
 2700TIP3    H1 8041   8.127   1.733   4.352
 2700TIP3    H2 8042   8.034   1.649   4.437
 2701TIP3   OH2 8043   0.882   5.795   5.517
 2701TIP3    H1 8044   0.965   5.843   5.516
 2701TIP3    H2 8045   0.829   5.837   5.450
 2702TIP3   OH2 8046   1.441   7.806   3.834
 2702TIP3    H1 8047   1.535   7.791   3.841
 2702TIP3    H2 8048   1.424   7.879   3.895
 2703TIP3   OH2 8049   5.476   3.441   0.799
 2703TIP3    H1 8050   5.512   3.486   0.722
 2703TIP3    H2 8051   5.430   3.365   0.763
 2704TIP3   OH2 8052   6.525   2.574   4.174
 2704TIP3    H1 8053   6.585   2.517   4.126
 2704TIP3    H2 8054   6.582   2.633   4.223
 2705TIP3   OH2 8055   8.126   4.932   3.052
 2705TIP3    H1 8056   8.135   4.932   2.956
 2705TIP3    H2 8057   8.204   4.978   3.083
 2706TIP3   OH2 8058   6.512   3.625  -0.005
 2706TIP3    H1 8059   6.490   3.670   0.076
 2706TIP3    H2 8060   6.522   3.695  -0.069
 2707TIP3   OH2 8061   0.389   4.339   4.028
 2707TIP3    H1 8062   0.308   4.318   3.981
 2707TIP3    H2 8063   0.403   4.264   4.086
 2708TIP3   OH2 8064   5.221   2.000   2.127
 2708TIP3    H1 8065   5.127   1.997   2.109
 2708TIP3    H2 8066   5.237   2.091   2.151
 2709TIP3   OH2 8067   5.680   2.204   2.629
 2709TIP3    H1 8068   5.594   2.178   2.660
 2709TIP3    H2 8069   5.668   2.293   2.596
 2710TIP3   OH2 8070   1.211   2.985   2.820
 2710TIP3    H1 8071   1.117   3.005   2.817
 2710TIP3    H2 8072   1.219   2.906   2.767
 2711TIP3   OH2 8073   6.120   6.548   1.829
 2711TIP3    H1 8074   6.049   6.527   1.768
 2711TIP3    H2 8075   6.091   6.628   1.872
 2712TIP3   OH2 8076   5.054   2.838   1.078
 2712TIP3    H1 8077   5.093   2.789   1.005
 2712TIP3    H2 8078   5.051   2.775   1.150
 2713TIP3   OH2 8079   7.930   7.498   4.215
 2713TIP3    H1 8080   8.005   7.490   4.156
 2713TIP3    H2 8081   7.933   7.587   4.247
 2714TIP3   OH2 8082   3.297   1.088   3.985
 2714TIP3    H1 8083   3.288   1.163   4.043
 2714TIP3    H2 8084   3.347   1.024   4.036
 2715TIP3   OH2 8085   3.023   3.235   5.354
 2715TIP3    H1 8086   2.961   3.177   5.310
 2715TIP3    H2 8087   3.108   3.191   5.346
 2716TIP3   OH2 8088   7.797   2.968   3.556
 2716TIP3    H1 8089   7.719   2.916   3.538
 2716TIP3    H2 8090   7.791   3.043   3.497
 2717TIP3   OH2 8091   2.727   1.767   0.596
 2717TIP3    H1 8092   2.653   1.709   0.610
 2717TIP3    H2 8093   2.759   1.787   0.685
 2718TIP3   OH2 8094   2.046   4.238   3.134
 2718TIP3    H1 8095   1.961   4.223   3.176
 2718TIP3    H2 8096   2.036   4.322   3.089
 2719TIP3   OH2 8097   1.102   7.163   0.248
 2719TIP3    H1 8098   1.116   7.257   0.254
 2719TIP3    H2 8099   1.023   7.147   0.299
 2720TIP3   OH2 8100   5.159   1.122   0.443
 2720TIP3    H1 8101   5.210   1.087   0.370
 2720TIP3    H2 8102   5.223   1.169   0.496
 2721TIP3   OH2 8103   2.959   7.460   2.103
 2721TIP3    H1 8104   2.983   7.549   2.128
 2721TIP3    H2 8105   2.873   7.446   2.143
 2722TIP3   OH2 8106   7.403   4.327   4.263
 2722TIP3    H1 8107   7.367   4.409   4.227
 2722TIP3    H2 8108   7.361   4.258   4.212
 2723TIP3   OH2 8109   0.632   2.639   0.480
 2723TIP3    H1 8110   0.671   2.710   0.531
 2723TIP3    H2 8111   0.537   2.650   0.493
 2724TIP3   OH2 8112   2.985   6.975   6.727
 2724TIP3    H1 8113   2.915   7.032   6.759
 2724TIP3    H2 8114   2.942   6.914   6.667
 2725TIP3   OH2 8115   4.135   2.169   1.790
 2725TIP3    H1 8116   4.181   2.112   1.728
 2725TIP3    H2 8117   4.192   2.245   1.800
 2726TIP3   OH2 8118   4.643   3.406   3.801
 2726TIP3    H1 8119   4.572   3.460   3.837
 2726TIP3    H2 8120   4.678   3.360   3.877
 2727TIP3   OH2 8121   2.110   5.424   6.097
 2727TIP3    H1 8122   2.170   5.415   6.171
 2727TIP3    H2 8123   2.164   5.461   6.027
 2728TIP3   OH2 8124   3.910   3.786   4.530
 2728TIP3    H1 8125   3.863   3.705   4.509
 2728TIP3    H2 8126   3.921   3.829   4.445
 2729TIP3   OH2 8127   5.763   3.730   1.179
 2729TIP3    H1 8128   5.716   3.655   1.215
 2729TIP3    H2 8129   5.711   3.806   1.206
 2730TIP3   OH2 8130   6.600   0.721   5.625
 2730TIP3    H1 8131   6.547   0.649   5.590
 2730TIP3    H2 8132   6.630   0.769   5.547
 2731TIP3   OH2 8133   4.898   6.143   6.376
 2731TIP3    H1 8134   4.900   6.198   6.298
 2731TIP3    H2 8135   4.973   6.085   6.366
 2732TIP3   OH2 8136   2.832   0.195   3.610
 2732TIP3    H1 8137   2.809   0.286   3.630
 2732TIP3    H2 8138   2.827   0.150   3.694
 2733TIP3   OH2 8139   2.219   5.256   4.055
 2733TIP3    H1 8140   2.226   5.304   4.138
 2733TIP3    H2 8141   2.310   5.245   4.026
 2734TIP3   OH2 8142   7.468   5.373  -0.018
 2734TIP3    H1 8143   7.438   5.292   0.023
 2734TIP3    H2 8144   7.526   5.413   0.047
 2735TIP3   OH2 8145   6.627   4.676   2.895
 2735TIP3    H1 8146   6.626   4.765   2.929
 2735TIP3    H2 8147   6.719   4.648   2.902
 2736TIP3   OH2 8148   4.155   6.360   1.688
 2736TIP3    H1 8149   4.192   6.348   1.775
 2736TIP3    H2 8150   4.132   6.271   1.660
 2737TIP3   OH2 8151   7.030   1.415   6.838
 2737TIP3    H1 8152   7.105   1.408   6.779
 2737TIP3    H2 8153   7.068   1.441   6.922
 2738TIP3   OH2 8154   3.815   2.555   4.881
 2738TIP3    H1 8155   3.787   2.509   4.802
 2738TIP3    H2 8156   3.904   2.524   4.896
 2739TIP3   OH2 8157   2.901   4.883   2.100
 2739TIP3    H1 8158   2.992   4.878   2.071
 2739TIP3    H2 8159   2.907   4.886   2.196
 2740TIP3   OH2 8160   5.299   7.053   3.013
 2740TIP3    H1 8161   5.291   7.080   2.921
 2740TIP3    H2 8162   5.384   7.009   3.018
 2741TIP3   OH2 8163   6.313   4.999   4.077
 2741TIP3    H1 8164   6.235   4.950   4.051
 2741TIP3    H2 8165   6.331   4.969   4.167
 2742TIP3   OH2 8166   7.946   7.499   4.879
 2742TIP3    H1 8167   7.853   7.521   4.883
 2742TIP3    H2 8168   7.990   7.584   4.874
 2743TIP3   OH2 8169   7.802   0.301   0.982
 2743TIP3    H1 8170   7.877   0.341   0.939
 2743TIP3    H2 8171   7.731   0.364   0.970
 2744TIP3   OH2 8172   5.567   4.517   0.926
 2744TIP3    H1 8173   5.606   4.548   1.008
 2744TIP3    H2 8174   5.538   4.428   0.945
 2745TIP3   OH2 8175   1.888   4.114   5.459
 2745TIP3    H1 8176   1.943   4.038   5.443
 2745TIP3    H2 8177   1.810   4.079   5.502
 2746TIP3   OH2 8178   1.209   1.458   6.314
 2746TIP3    H1 8179   1.137   1.444   6.253
 2746TIP3    H2 8180   1.284   1.414   6.275
 2747TIP3   OH2 8181   7.692   1.365   4.039
 2747TIP3    H1 8182   7.764   1.315   4.078
 2747TIP3    H2 8183   7.624   1.299   4.021
 2748TIP3   OH2 8184   5.069   1.212   6.526
 2748TIP3    H1 8185   5.108   1.140   6.575
 2748TIP3    H2 8186   4.975   1.192   6.524
 2749TIP3   OH2 8187   3.582   2.173   1.920
 2749TIP3    H1 8188   3.609   2.110   1.987
 2749TIP3    H2 8189   3.657   2.179   1.861
 2750TIP3   OH2 8190   2.535   2.103   3.185
 2750TIP3    H1 8191   2.560   2.017   3.151
 2750TIP3    H2 8192   2.533   2.092   3.280
 2751TIP3   OH2 8193   4.270   0.571   3.080
 2751TIP3    H1 8194   4.343   0.629   3.102
 2751TIP3    H2 8195   4.292   0.538   2.993
 2752TIP3   OH2 8196   6.587   5.010   2.371
 2752TIP3    H1 8197   6.598   5.004   2.466
 2752TIP3    H2 8198   6.674   5.029   2.337
 2753TIP3   OH2 8199   4.678   0.971   4.786
 2753TIP3    H1 8200   4.704   0.910   4.855
 2753TIP3    H2 8201   4.759   0.991   4.740
 2754TIP3   OH2 8202   1.297   1.754   3.654
 2754TIP3    H1 8203   1.363   1.805   3.702
 2754TIP3    H2 8204   1.229   1.817   3.633
 2755TIP3   OH2 8205   5.273   0.194   4.477
 2755TIP3    H1 8206   5.279   0.103   4.507
 2755TIP3    H2 8207   5.323   0.196   4.396
 2756TIP3   OH2 8208   7.091   5.243   2.779
 2756TIP3    H1 8209   7.152   5.192   2.833
 2756TIP3    H2 8210   7.055   5.309   2.839
 2757TIP3   OH2 8211   6.946   5.405   0.931
 2757TIP3    H1 8212   6.885   5.465   0.889
 2757TIP3    H2 8213   6.959   5.441   1.019
 2758TIP3   OH2 8214   0.184   0.919   5.294
 2758TIP3    H1 8215   0.253   0.949   5.236
 2758TIP3    H2 8216   0.199   0.824   5.302
 2759TIP3   OH2 8217   2.616   3.733   4.809
 2759TIP3    H1 8218   2.602   3.698   4.897
 2759TIP3    H2 8219   2.528   3.742   4.773
 2760TIP3   OH2 8220   0.936   1.032   1.916
 2760TIP3    H1 8221   0.846   1.009   1.939
 2760TIP3    H2 8222   0.985   0.950   1.925
 2761TIP3   OH2 8223   0.042   3.008   2.828
 2761TIP3    H1 8224   0.062   3.101   2.830
 2761TIP3    H2 8225   0.056   2.982   2.737
 2762TIP3   OH2 8226   8.368   3.126   2.228
 2762TIP3    H1 8227   8.331   3.126   2.316
 2762TIP3    H2 8228   8.296   3.099   2.172
 2763TIP3   OH2 8229   5.368   4.858   4.305
 2763TIP3    H1 8230   5.298   4.795   4.319
 2763TIP3    H2 8231   5.350   4.929   4.367
 2764TIP3   OH2 8232   0.600   6.490   2.456
 2764TIP3    H1 8233   0.579   6.422   2.520
 2764TIP3    H2 8234   0.660   6.548   2.502
 2765TIP3   OH2 8235   4.194   1.881   5.220
 2765TIP3    H1 8236   4.113   1.871   5.170
 2765TIP3    H2 8237   4.210   1.794   5.257
 2766TIP3   OH2 8238   7.556   6.006   0.773
 2766TIP3    H1 8239   7.507   5.965   0.844
 2766TIP3    H2 8240   7.644   6.018   0.809
 2767TIP3   OH2 8241   5.060   2.099   1.483
 2767TIP3    H1 8242   5.000   2.094   1.557
 2767TIP3    H2 8243   5.003   2.108   1.407
 2768TIP3   OH2 8244   1.094   6.368   1.748
 2768TIP3    H1 8245   1.047   6.364   1.831
 2768TIP3    H2 8246   1.141   6.285   1.743
 2769TIP3   OH2 8247   3.831   1.988   6.409
 2769TIP3    H1 8248   3.800   2.079   6.399
 2769TIP3    H2 8249   3.757   1.943   6.451
 2770TIP3   OH2 8250   5.918   7.255   2.652
 2770TIP3    H1 8251   5.996   7.301   2.682
 2770TIP3    H2 8252   5.951   7.176   2.610
 2771TIP3   OH2 8253   0.236   2.225   4.759
 2771TIP3    H1 8254   0.257   2.313   4.730
 2771TIP3    H2 8255   0.316   2.193   4.800
 2772TIP3   OH2 8256   6.883   0.893   6.450
 2772TIP3    H1 8257   6.861   0.944   6.528
 2772TIP3    H2 8258   6.883   0.802   6.481
 2773TIP3   OH2 8259   0.812   0.511   4.995
 2773TIP3    H1 8260   0.787   0.482   5.082
 2773TIP3    H2 8261   0.906   0.496   4.991
 2774TIP3   OH2 8262   1.548   2.301   1.516
 2774TIP3    H1 8263   1.552   2.362   1.442
 2774TIP3    H2 8264   1.640   2.289   1.541
 2775TIP3   OH2 8265   4.125   0.786   1.921
 2775TIP3    H1 8266   4.095   0.874   1.899
 2775TIP3    H2 8267   4.219   0.795   1.932
 2776TIP3   OH2 8268   5.659   6.339   0.778
 2776TIP3    H1 8269   5.576   6.335   0.826
 2776TIP3    H2 8270   5.640   6.396   0.703
 2777TIP3   OH2 8271   3.798   5.218   6.552
 2777TIP3    H1 8272   3.748   5.200   6.473
 2777TIP3    H2 8273   3.787   5.140   6.606
 2778TIP3   OH2 8274   1.943   1.126   2.022
 2778TIP3    H1 8275   2.018   1.077   1.989
 2778TIP3    H2 8276   1.868   1.069   2.003
 2779TIP3   OH2 8277   5.740   4.728   5.871
 2779TIP3    H1 8278   5.657   4.727   5.823
 2779TIP3    H2 8279   5.750   4.639   5.905
 2780TIP3   OH2 8280   4.995   6.765   0.842
 2780TIP3    H1 8281   5.033   6.722   0.765
 2780TIP3    H2 8282   4.928   6.823   0.806
 2781TIP3   OH2 8283   4.368   3.031   2.567
 2781TIP3    H1 8284   4.456   2.994   2.569
 2781TIP3    H2 8285   4.373   3.101   2.502
 2782TIP3   OH2 8286   0.809   3.023   2.510
 2782TIP3    H1 8287   0.788   3.006   2.418
 2782TIP3    H2 8288   0.878   2.959   2.531
 2783TIP3   OH2 8289   2.478  -0.034   3.136
 2783TIP3    H1 8290   2.547   0.030   3.154
 2783TIP3    H2 8291   2.398   0.008   3.169
 2784TIP3   OH2 8292   5.037   2.919   0.124
 2784TIP3    H1 8293   4.983   2.927   0.046
 2784TIP3    H2 8294   4.976   2.935   0.196
 2785TIP3   OH2 8295   1.415   4.553   5.160
 2785TIP3    H1 8296   1.374   4.540   5.246
 2785TIP3    H2 8297   1.344   4.583   5.104
 2786TIP3   OH2 8298   2.833   0.514   2.905
 2786TIP3    H1 8299   2.845   0.558   2.989
 2786TIP3    H2 8300   2.771   0.443   2.924
 2787TIP3   OH2 8301   7.707   3.228   4.813
 2787TIP3    H1 8302   7.651   3.277   4.752
 2787TIP3    H2 8303   7.696   3.273   4.897
 2788TIP3   OH2 8304   3.480   1.571   0.878
 2788TIP3    H1 8305   3.513   1.507   0.815
 2788TIP3    H2 8306   3.410   1.616   0.831
 2789TIP3   OH2 8307   2.432   4.885   0.862
 2789TIP3    H1 8308   2.484   4.943   0.919
 2789TIP3    H2 8309   2.378   4.835   0.923
 2790TIP3   OH2 8310   3.755   6.063   6.117
 2790TIP3    H1 8311   3.721   6.004   6.184
 2790TIP3    H2 8312   3.720   6.149   6.140
 2791TIP3   OH2 8313   2.179   2.103   5.546
 2791TIP3    H1 8314   2.124   2.136   5.475
 2791TIP3    H2 8315   2.267   2.100   5.509
 2792TIP3   OH2 8316   6.975   2.702   3.196
 2792TIP3    H1 8317   6.990   2.754   3.275
 2792TIP3    H2 8318   6.955   2.766   3.128
 2793TIP3   OH2 8319   5.385   7.421   6.500
 2793TIP3    H1 8320   5.451   7.351   6.500
 2793TIP3    H2 8321   5.306   7.380   6.467
 2794TIP3   OH2 8322   7.146   3.400   3.837
 2794TIP3    H1 8323   7.058   3.364   3.841
 2794TIP3    H2 8324   7.150   3.463   3.908
 2795TIP3   OH2 8325   4.170   4.028   1.261
 2795TIP3    H1 8326   4.234   4.014   1.191
 2795TIP3    H2 8327   4.187   3.959   1.324
 2796TIP3   OH2 8328   6.609   7.378   3.239
 2796TIP3    H1 8329   6.538   7.400   3.300
 2796TIP3    H2 8330   6.602   7.445   3.170
 2797TIP3   OH2 8331   8.197   4.904   4.092
 2797TIP3    H1 8332   8.108   4.871   4.104
 2797TIP3    H2 8333   8.241   4.836   4.041
 2798TIP3   OH2 8334   8.312   2.413   0.515
 2798TIP3    H1 8335   8.347   2.378   0.434
 2798TIP3    H2 8336   8.358   2.496   0.527
 2799TIP3   OH2 8337   3.945   5.349   2.922
 2799TIP3    H1 8338   3.940   5.259   2.889
 2799TIP3    H2 8339   4.039   5.366   2.929
 2800TIP3   OH2 8340   5.853   1.997   2.602
 2800TIP3    H1 8341   5.799   2.076   2.601
 2800TIP3    H2 8342   5.791   1.925   2.599
 2801TIP3   OH2 8343   4.909   0.960   6.506
 2801TIP3    H1 8344   4.827   0.998   6.538
 2801TIP3    H2 8345   4.929   0.890   6.568
 2802TIP3   OH2 8346   5.617   2.845   0.249
 2802TIP3    H1 8347   5.653   2.822   0.163
 2802TIP3    H2 8348   5.582   2.764   0.284
 2803TIP3   OH2 8349   3.376   4.549   0.993
 2803TIP3    H1 8350   3.389   4.542   0.899
 2803TIP3    H2 8351   3.417   4.469   1.028
 2804TIP3   OH2 8352   8.109   5.896   2.844
 2804TIP3    H1 8353   8.028   5.936   2.813
 2804TIP3    H2 8354   8.178   5.941   2.795
 2805TIP3   OH2 8355   6.764   2.917   1.738
 2805TIP3    H1 8356   6.747   2.966   1.657
 2805TIP3    H2 8357   6.809   2.838   1.709
 2806TIP3   OH2 8358   7.117   4.281   2.522
 2806TIP3    H1 8359   7.082   4.244   2.441
 2806TIP3    H2 8360   7.132   4.206   2.579
 2807TIP3   OH2 8361   3.427   3.919   6.450
 2807TIP3    H1 8362   3.365   3.967   6.504
 2807TIP3    H2 8363   3.373   3.859   6.398
 2808TIP3   OH2 8364   6.444   4.181   5.994
 2808TIP3    H1 8365   6.496   4.111   5.954
 2808TIP3    H2 8366   6.376   4.136   6.043
 2809TIP3   OH2 8367   8.271   6.170   1.501
 2809TIP3    H1 8368   8.238   6.115   1.429
 2809TIP3    H2 8369   8.342   6.221   1.461
 2810TIP3   OH2 8370   2.449   4.692   3.106
 2810TIP3    H1 8371   2.385   4.754   3.071
 2810TIP3    H2 8372   2.433   4.611   3.058
 2811TIP3   OH2 8373   3.154   6.472   4.385
 2811TIP3    H1 8374   3.202   6.520   4.317
 2811TIP3    H2 8375   3.222   6.427   4.435
 2812TIP3   OH2 8376   7.079   1.703   1.178
 2812TIP3    H1 8377   7.044   1.656   1.102
 2812TIP3    H2 8378   7.144   1.644   1.215
 2813TIP3   OH2 8379   7.184   2.300   5.891
 2813TIP3    H1 8380   7.220   2.234   5.832
 2813TIP3    H2 8381   7.251   2.368   5.896
 2814TIP3   OH2 8382   8.146   0.148   3.191
 2814TIP3    H1 8383   8.191   0.075   3.234
 2814TIP3    H2 8384   8.188   0.226   3.227
 2815TIP3   OH2 8385   6.171   2.065   1.325
 2815TIP3    H1 8386   6.208   2.137   1.376
 2815TIP3    H2 8387   6.237   2.047   1.258
 2816TIP3   OH2 8388   2.662   1.826   0.247
 2816TIP3    H1 8389   2.700   1.913   0.260
 2816TIP3    H2 8390   2.677   1.781   0.330
 2817TIP3   OH2 8391   0.077   1.197   4.763
 2817TIP3    H1 8392   0.100   1.289   4.773
 2817TIP3    H2 8393   0.064   1.166   4.853
 2818TIP3   OH2 8394   3.733   2.575   6.832
 2818TIP3    H1 8395   3.725   2.658   6.784
 2818TIP3    H2 8396   3.659   2.575   6.892
 2819TIP3   OH2 8397   1.637   0.556   4.364
 2819TIP3    H1 8398   1.542   0.547   4.365
 2819TIP3    H2 8399   1.663   0.529   4.276
 2820TIP3   OH2 8400   6.377   3.631   4.111
 2820TIP3    H1 8401   6.413   3.551   4.149
 2820TIP3    H2 8402   6.346   3.681   4.186
 2821TIP3   OH2 8403   4.226   3.416   5.370
 2821TIP3    H1 8404   4.274   3.439   5.291
 2821TIP3    H2 8405   4.293   3.383   5.431
 2822TIP3   OH2 8406   2.755   2.086   0.363
 2822TIP3    H1 8407   2.698   2.122   0.431
 2822TIP3    H2 8408   2.834   2.061   0.410
 2823TIP3   OH2 8409   3.481   5.876   4.651
 2823TIP3    H1 8410   3.453   5.787   4.673
 2823TIP3    H2 8411   3.570   5.883   4.686
 2824TIP3   OH2 8412   0.477   4.059   1.870
 2824TIP3    H1 8413   0.484   4.153   1.851
 2824TIP3    H2 8414   0.556   4.039   1.920
 2825TIP3   OH2 8415   4.437   2.211   4.901
 2825TIP3    H1 8416   4.367   2.166   4.948
 2825TIP3    H2 8417   4.500   2.141   4.880
 2826TIP3   OH2 8418   0.357   3.504   4.768
 2826TIP3    H1 8419   0.415   3.573   4.800
 2826TIP3    H2 8420   0.269   3.540   4.778
 2827TIP3   OH2 8421   3.556   1.982   2.615
 2827TIP3    H1 8422   3.477   2.012   2.569
 2827TIP3    H2 8423   3.598   2.062   2.645
 2828TIP3   OH2 8424   4.645   2.989   3.703
 2828TIP3    H1 8425   4.652   2.897   3.680
 2828TIP3    H2 8426   4.576   2.992   3.769
 2829TIP3   OH2 8427   0.588   1.228   1.949
 2829TIP3    H1 8428   0.570   1.255   1.859
 2829TIP3    H2 8429   0.567   1.135   1.951
 2830TIP3   OH2 8430   5.948   5.453   4.063
 2830TIP3    H1 8431   5.854   5.459   4.074
 2830TIP3    H2 8432   5.960   5.418   3.975
 2831TIP3   OH2 8433   7.800   7.450   6.323
 2831TIP3    H1 8434   7.763   7.528   6.364
 2831TIP3    H2 8435   7.845   7.404   6.394
 2832TIP3   OH2 8436   1.734   7.694   1.084
 2832TIP3    H1 8437   1.733   7.688   0.989
 2832TIP3    H2 8438   1.825   7.713   1.106
 2833TIP3   OH2 8439   7.664   5.222   1.446
 2833TIP3    H1 8440   7.592   5.283   1.428
 2833TIP3    H2 8441   7.658   5.204   1.540
 2834TIP3   OH2 8442   2.094   2.910   2.017
 2834TIP3    H1 8443   2.047   2.880   2.095
 2834TIP3    H2 8444   2.034   2.974   1.976
 2835TIP3   OH2 8445   5.602   3.444   1.543
 2835TIP3    H1 8446   5.687   3.445   1.588
 2835TIP3    H2 8447   5.569   3.533   1.554
 2836TIP3   OH2 8448   7.605   4.577   0.718
 2836TIP3    H1 8449   7.633   4.586   0.809
 2836TIP3    H2 8450   7.623   4.485   0.697
 2837TIP3   OH2 8451   5.425   5.459   4.652
 2837TIP3    H1 8452   5.363   5.458   4.724
 2837TIP3    H2 8453   5.395   5.390   4.593
 2838TIP3   OH2 8454   2.350   1.003   0.296
 2838TIP3    H1 8455   2.365   0.955   0.378
 2838TIP3    H2 8456   2.379   0.943   0.227
 2839TIP3   OH2 8457   7.704   3.291   3.814
 2839TIP3    H1 8458   7.648   3.224   3.776
 2839TIP3    H2 8459   7.663   3.374   3.789
 2840TIP3   OH2 8460   2.339   5.193   4.396
 2840TIP3    H1 8461   2.278   5.126   4.365
 2840TIP3    H2 8462   2.322   5.200   4.489
 2841TIP3   OH2 8463   3.015   4.784   1.053
 2841TIP3    H1 8464   2.989   4.806   1.142
 2841TIP3    H2 8465   3.024   4.689   1.053
 2842TIP3   OH2 8466   1.709   1.006   1.923
 2842TIP3    H1 8467   1.710   1.076   1.857
 2842TIP3    H2 8468   1.682   0.928   1.875
 2843TIP3   OH2 8469   3.626   5.054   2.873
 2843TIP3    H1 8470   3.640   4.961   2.892
 2843TIP3    H2 8471   3.663   5.100   2.948
 2844TIP3   OH2 8472   4.692   2.040   2.897
 2844TIP3    H1 8473   4.660   1.951   2.883
 2844TIP3    H2 8474   4.693   2.051   2.992
 2845TIP3   OH2 8475   5.919   7.183   5.049
 2845TIP3    H1 8476   6.014   7.173   5.056
 2845TIP3    H2 8477   5.906   7.275   5.025
 2846TIP3   OH2 8478   3.774   6.353   2.200
 2846TIP3    H1 8479   3.680   6.347   2.217
 2846TIP3    H2 8480   3.815   6.320   2.280
 2847TIP3   OH2 8481   5.274   5.180   0.813
 2847TIP3    H1 8482   5.287   5.273   0.795
 2847TIP3    H2 8483   5.262   5.175   0.907
 2848TIP3   OH2 8484   4.024   6.405   6.712
 2848TIP3    H1 8485   3.972   6.355   6.650
 2848TIP3    H2 8486   3.964   6.426   6.784
 2849TIP3   OH2 8487   3.990   1.248   2.900
 2849TIP3    H1 8488   4.010   1.341   2.895
 2849TIP3    H2 8489   4.060   1.205   2.849
 2850TIP3   OH2 8490   7.825   6.849   2.171
 2850TIP3    H1 8491   7.871   6.779   2.126
 2850TIP3    H2 8492   7.885   6.876   2.241
 2851TIP3   OH2 8493   3.240   0.533   2.498
 2851TIP3    H1 8494   3.146   0.538   2.483
 2851TIP3    H2 8495   3.261   0.612   2.548
 2852TIP3   OH2 8496   8.312   3.390   4.814
 2852TIP3    H1 8497   8.365   3.356   4.885
 2852TIP3    H2 8498   8.255   3.455   4.855
 2853TIP3   OH2 8499   6.056   1.104   5.584
 2853TIP3    H1 8500   6.120   1.080   5.651
 2853TIP3    H2 8501   5.979   1.132   5.632
 2854TIP3   OH2 8502   3.632   2.131   1.067
 2854TIP3    H1 8503   3.622   2.224   1.089
 2854TIP3    H2 8504   3.638   2.087   1.151
 2855TIP3   OH2 8505   4.560   0.288   5.650
 2855TIP3    H1 8506   4.641   0.243   5.628
 2855TIP3    H2 8507   4.503   0.219   5.684
 2856TIP3   OH2 8508   0.167   0.768   5.601
 2856TIP3    H1 8509   0.174   0.709   5.526
 2856TIP3    H2 8510   0.080   0.807   5.594
 2857TIP3   OH2 8511   3.546   2.198   0.013
 2857TIP3    H1 8512   3.455   2.204   0.042
 2857TIP3    H2 8513   3.576   2.289   0.011
 2858TIP3   OH2 8514   7.157   3.950   1.925
 2858TIP3    H1 8515   7.163   4.043   1.904
 2858TIP3    H2 8516   7.239   3.930   1.971
 2859TIP3   OH2 8517   8.138   5.361   1.595
 2859TIP3    H1 8518   8.081   5.404   1.660
 2859TIP3    H2 8519   8.085   5.358   1.515
 2860TIP3   OH2 8520   2.421   0.115   3.561
 2860TIP3    H1 8521   2.452   0.028   3.537
 2860TIP3    H2 8522   2.415   0.113   3.656
 2861TIP3   OH2 8523   5.515   1.764   1.527
 2861TIP3    H1 8524   5.439   1.814   1.498
 2861TIP3    H2 8525   5.575   1.831   1.563
 2862TIP3   OH2 8526   6.921   3.611   5.375
 2862TIP3    H1 8527   6.933   3.641   5.285
 2862TIP3    H2 8528   7.008   3.583   5.403
 2863TIP3   OH2 8529   6.627   5.657   2.054
 2863TIP3    H1 8530   6.707   5.647   2.003
 2863TIP3    H2 8531   6.568   5.589   2.020
 2864TIP3   OH2 8532   2.467   6.815   2.733
 2864TIP3    H1 8533   2.474   6.781   2.822
 2864TIP3    H2 8534   2.396   6.879   2.738
 2865TIP3   OH2 8535   3.878   3.312   5.931
 2865TIP3    H1 8536   3.911   3.279   5.848
 2865TIP3    H2 8537   3.817   3.245   5.961
 2866TIP3   OH2 8538   0.475   3.144   1.310
 2866TIP3    H1 8539   0.512   3.061   1.280
 2866TIP3    H2 8540   0.463   3.133   1.404
 2867TIP3   OH2 8541   8.102   6.694   5.130
 2867TIP3    H1 8542   8.150   6.619   5.095
 2867TIP3    H2 8543   8.079   6.668   5.219
 2868TIP3   OH2 8544   7.522   7.231   4.024
 2868TIP3    H1 8545   7.446   7.205   4.077
 2868TIP3    H2 8546   7.497   7.317   3.989
 2869TIP3   OH2 8547   3.136   7.848   1.918
 2869TIP3    H1 8548   3.129   7.944   1.911
 2869TIP3    H2 8549   3.222   7.828   1.882
 2870TIP3   OH2 8550   0.327   6.334   4.109
 2870TIP3    H1 8551   0.410   6.299   4.143
 2870TIP3    H2 8552   0.266   6.261   4.114
 2871TIP3   OH2 8553   6.322   5.872   3.473
 2871TIP3    H1 8554   6.279   5.950   3.508
 2871TIP3    H2 8555   6.285   5.799   3.523
 2872TIP3   OH2 8556   7.925   0.980   6.231
 2872TIP3    H1 8557   7.851   1.018   6.185
 2872TIP3    H2 8558   7.939   1.038   6.306
 2873TIP3   OH2 8559   5.532   5.620   2.821
 2873TIP3    H1 8560   5.486   5.685   2.873
 2873TIP3    H2 8561   5.504   5.636   2.731
 2874TIP3   OH2 8562   4.624   3.926   3.721
 2874TIP3    H1 8563   4.604   4.001   3.777
 2874TIP3    H2 8564   4.550   3.922   3.660
 2875TIP3   OH2 8565   4.764   1.847   1.554
 2875TIP3    H1 8566   4.769   1.941   1.537
 2875TIP3    H2 8567   4.791   1.806   1.472
 2876TIP3   OH2 8568   2.998   1.088   4.106
 2876TIP3    H1 8569   2.954   1.173   4.113
 2876TIP3    H2 8570   3.048   1.094   4.024
 2877TIP3   OH2 8571   7.405   3.134   1.260
 2877TIP3    H1 8572   7.466   3.201   1.292
 2877TIP3    H2 8573   7.319   3.176   1.264
 2878TIP3   OH2 8574   6.445   0.954   0.129
 2878TIP3    H1 8575   6.451   1.048   0.117
 2878TIP3    H2 8576   6.494   0.917   0.055
 2879TIP3   OH2 8577   5.483   1.416   1.168
 2879TIP3    H1 8578   5.528   1.361   1.231
 2879TIP3    H2 8579   5.444   1.355   1.105
 2880TIP3   OH2 8580   7.353   1.029   5.050
 2880TIP3    H1 8581   7.268   0.995   5.077
 2880TIP3    H2 8582   7.400   1.045   5.131
 2881TIP3   OH2 8583   6.185   1.453   3.064
 2881TIP3    H1 8584   6.210   1.543   3.084
 2881TIP3    H2 8585   6.181   1.449   2.969
 2882TIP3   OH2 8586   4.754   1.175   3.710
 2882TIP3    H1 8587   4.777   1.155   3.801
 2882TIP3    H2 8588   4.837   1.200   3.670
 2883TIP3   OH2 8589   5.754   3.317   5.763
 2883TIP3    H1 8590   5.683   3.280   5.815
 2883TIP3    H2 8591   5.832   3.272   5.792
 2884TIP3   OH2 8592   5.782   4.660   4.279
 2884TIP3    H1 8593   5.804   4.657   4.186
 2884TIP3    H2 8594   5.688   4.643   4.282
 2885TIP3   OH2 8595   3.024   1.236   2.666
 2885TIP3    H1 8596   2.944   1.281   2.693
 2885TIP3    H2 8597   3.050   1.279   2.585
 2886TIP3   OH2 8598   3.930   5.461   5.494
 2886TIP3    H1 8599   3.913   5.492   5.583
 2886TIP3    H2 8600   3.853   5.486   5.445
 2887TIP3   OH2 8601   4.761   3.648   2.341
 2887TIP3    H1 8602   4.698   3.613   2.403
 2887TIP3    H2 8603   4.847   3.631   2.381
 2888TIP3   OH2 8604   6.119   1.712   5.507
 2888TIP3    H1 8605   6.039   1.694   5.458
 2888TIP3    H2 8606   6.154   1.625   5.528
 2889TIP3   OH2 8607   1.006   3.939   0.753
 2889TIP3    H1 8608   1.086   3.984   0.725
 2889TIP3    H2 8609   0.940   3.963   0.688
 2890TIP3   OH2 8610   0.846   4.790   1.781
 2890TIP3    H1 8611   0.890   4.747   1.854
 2890TIP3    H2 8612   0.902   4.865   1.760
 2891TIP3   OH2 8613   5.945   3.567   3.764
 2891TIP3    H1 8614   6.038   3.581   3.743
 2891TIP3    H2 8615   5.900   3.580   3.681
 2892TIP3   OH2 8616   0.677   5.513   4.516
 2892TIP3    H1 8617   0.664   5.446   4.583
 2892TIP3    H2 8618   0.688   5.595   4.564
 2893TIP3   OH2 8619   1.670   7.241   4.666
 2893TIP3    H1 8620   1.700   7.276   4.582
 2893TIP3    H2 8621   1.651   7.149   4.648
 2894TIP3   OH2 8622   3.637   7.735   2.651
 2894TIP3    H1 8623   3.552   7.692   2.661
 2894TIP3    H2 8624   3.677   7.689   2.577
 2895TIP3   OH2 8625   6.422   2.299   3.231
 2895TIP3    H1 8626   6.444   2.213   3.267
 2895TIP3    H2 8627   6.505   2.347   3.232
 2896TIP3   OH2 8628   6.509   6.659   3.453
 2896TIP3    H1 8629   6.436   6.682   3.511
 2896TIP3    H2 8630   6.581   6.638   3.513
 2897TIP3   OH2 8631   3.722   7.879   2.332
 2897TIP3    H1 8632   3.659   7.886   2.259
 2897TIP3    H2 8633   3.774   7.802   2.310
 2898TIP3   OH2 8634   7.472   4.347   1.430
 2898TIP3    H1 8635   7.509   4.278   1.376
 2898TIP3    H2 8636   7.513   4.427   1.398
 2899TIP3   OH2 8637   2.797   1.465   5.516
 2899TIP3    H1 8638   2.737   1.434   5.584
 2899TIP3    H2 8639   2.739   1.498   5.447
 2900TIP3   OH2 8640   0.104   6.720   2.055
 2900TIP3    H1 8641   0.058   6.649   2.100
 2900TIP3    H2 8642   0.034   6.773   2.018
 2901TIP3   OH2 8643   6.889   7.354   1.010
 2901TIP3    H1 8644   6.958   7.407   1.048
 2901TIP3    H2 8645   6.905   7.356   0.916
 2902TIP3   OH2 8646   5.631   4.259   6.851
 2902TIP3    H1 8647   5.703   4.283   6.793
 2902TIP3    H2 8648   5.613   4.167   6.830
 2903TIP3   OH2 8649   2.130   7.098   1.325
 2903TIP3    H1 8650   2.051   7.057   1.361
 2903TIP3    H2 8651   2.099   7.181   1.288
 2904TIP3   OH2 8652   4.836   1.604   2.831
 2904TIP3    H1 8653   4.906   1.616   2.767
 2904TIP3    H2 8654   4.822   1.509   2.833
 2905TIP3   OH2 8655   4.754   7.660   0.428
 2905TIP3    H1 8656   4.819   7.611   0.479
 2905TIP3    H2 8657   4.771   7.752   0.451
 2906TIP3   OH2 8658   4.659   2.703   6.618
 2906TIP3    H1 8659   4.615   2.676   6.699
 2906TIP3    H2 8660   4.682   2.621   6.575
 2907TIP3   OH2 8661   6.604   7.815   2.336
 2907TIP3    H1 8662   6.674   7.870   2.303
 2907TIP3    H2 8663   6.576   7.857   2.417
 2908TIP3   OH2 8664   1.306   2.068   1.348
 2908TIP3    H1 8665   1.382   2.126   1.342
 2908TIP3    H2 8666   1.280   2.071   1.440
 2909TIP3   OH2 8667   5.729   6.611   6.079
 2909TIP3    H1 8668   5.779   6.595   5.999
 2909TIP3    H2 8669   5.639   6.587   6.057
 2910TIP3   OH2 8670   2.805   3.015   3.498
 2910TIP3    H1 8671   2.790   2.961   3.421
 2910TIP3    H2 8672   2.801   3.105   3.465
 2911TIP3   OH2 8673   3.273   1.961   0.300
 2911TIP3    H1 8674   3.274   2.043   0.349
 2911TIP3    H2 8675   3.233   1.984   0.216
 2912TIP3   OH2 8676   1.713   4.091   1.402
 2912TIP3    H1 8677   1.764   4.107   1.322
 2912TIP3    H2 8678   1.705   3.996   1.407
 2913TIP3   OH2 8679   4.550   1.647   5.432
 2913TIP3    H1 8680   4.580   1.709   5.365
 2913TIP3    H2 8681   4.458   1.631   5.410
 2914TIP3   OH2 8682   6.892   7.671   3.539
 2914TIP3    H1 8683   6.928   7.726   3.608
 2914TIP3    H2 8684   6.813   7.717   3.510
 2915TIP3   OH2 8685   6.741   3.784   0.632
 2915TIP3    H1 8686   6.670   3.721   0.619
 2915TIP3    H2 8687   6.783   3.757   0.714
 2916TIP3   OH2 8688   5.465   4.109   0.671
 2916TIP3    H1 8689   5.427   4.042   0.727
 2916TIP3    H2 8690   5.505   4.060   0.599
 2917TIP3   OH2 8691   7.706   4.358   4.594
 2917TIP3    H1 8692   7.799   4.360   4.570
 2917TIP3    H2 8693   7.678   4.269   4.573
 2918TIP3   OH2 8694   4.622   2.532   4.758
 2918TIP3    H1 8695   4.689   2.591   4.792
 2918TIP3    H2 8696   4.540   2.567   4.791
 2919TIP3   OH2 8697   6.775   4.397   1.641
 2919TIP3    H1 8698   6.778   4.305   1.669
 2919TIP3    H2 8699   6.712   4.397   1.569
 2920TIP3   OH2 8700   3.730   7.585   6.345
 2920TIP3    H1 8701   3.671   7.652   6.312
 2920TIP3    H2 8702   3.693   7.502   6.313
 2921TIP3   OH2 8703   4.089   7.813   2.612
 2921TIP3    H1 8704   4.027   7.756   2.657
 2921TIP3    H2 8705   4.076   7.899   2.652
 2922TIP3   OH2 8706   3.756   0.147   4.718
 2922TIP3    H1 8707   3.719   0.143   4.806
 2922TIP3    H2 8708   3.730   0.064   4.677
 2923TIP3   OH2 8709   1.258   2.115   3.034
 2923TIP3    H1 8710   1.345   2.143   3.064
 2923TIP3    H2 8711   1.266   2.020   3.023
 2924TIP3   OH2 8712   5.057   3.200   1.808
 2924TIP3    H1 8713   5.050   3.295   1.801
 2924TIP3    H2 8714   5.005   3.167   1.735
 2925TIP3   OH2 8715   0.305   5.884   3.401
 2925TIP3    H1 8716   0.289   5.790   3.411
 2925TIP3    H2 8717   0.400   5.893   3.410
 2926TIP3   OH2 8718   2.425   0.185   2.593
 2926TIP3    H1 8719   2.365   0.228   2.531
 2926TIP3    H2 8720   2.377   0.185   2.676
 2927TIP3   OH2 8721   6.081   5.050   2.150
 2927TIP3    H1 8722   6.095   4.964   2.189
 2927TIP3    H2 8723   6.165   5.095   2.159
 2928TIP3   OH2 8724   1.123   7.170   1.788
 2928TIP3    H1 8725   1.091   7.154   1.877
 2928TIP3    H2 8726   1.180   7.246   1.797
 2929TIP3   OH2 8727   0.920   2.534   6.744
 2929TIP3    H1 8728   0.963   2.476   6.681
 2929TIP3    H2 8729   0.827   2.514   6.735
 2930TIP3   OH2 8730   6.385   3.691   0.822
 2930TIP3    H1 8731   6.324   3.621   0.798
 2930TIP3    H2 8732   6.332   3.770   0.827
 2931TIP3   OH2 8733   2.609   1.546   5.121
 2931TIP3    H1 8734   2.628   1.639   5.136
 2931TIP3    H2 8735   2.514   1.541   5.127
 2932TIP3   OH2 8736   3.501   1.432   6.166
 2932TIP3    H1 8737   3.502   1.515   6.214
 2932TIP3    H2 8738   3.550   1.450   6.086
 2933TIP3   OH2 8739   1.842   2.717   5.112
 2933TIP3    H1 8740   1.837   2.662   5.034
 2933TIP3    H2 8741   1.752   2.746   5.127
 2934TIP3   OH2 8742   0.516   4.727   5.498
 2934TIP3    H1 8743   0.424   4.718   5.475
 2934TIP3    H2 8744   0.516   4.770   5.584
 2935TIP3   OH2 8745   5.136   6.048   0.205
 2935TIP3    H1 8746   5.131   5.954   0.218
 2935TIP3    H2 8747   5.108   6.062   0.115
 2936TIP3   OH2 8748   1.913   0.794   3.042
 2936TIP3    H1 8749   1.972   0.779   2.969
 2936TIP3    H2 8750   1.949   0.742   3.114
 2937TIP3   OH2 8751   1.181   2.190   3.726
 2937TIP3    H1 8752   1.197   2.274   3.769
 2937TIP3    H2 8753   1.252   2.133   3.758
 2938TIP3   OH2 8754   1.443   5.982   1.680
 2938TIP3    H1 8755   1.383   5.913   1.711
 2938TIP3    H2 8756   1.525   5.936   1.662
 2939TIP3   OH2 8757   3.475   5.878   2.796
 2939TIP3    H1 8758   3.442   5.965   2.815
 2939TIP3    H2 8759   3.398   5.821   2.803
 2940TIP3   OH2 8760   2.933   7.730   1.695
 2940TIP3    H1 8761   2.959   7.816   1.728
 2940TIP3    H2 8762   2.844   7.742   1.663
 2941TIP3   OH2 8763   1.637   7.538   6.258
 2941TIP3    H1 8764   1.621   7.451   6.222
 2941TIP3    H2 8765   1.677   7.522   6.343
 2942TIP3   OH2 8766   2.867   5.899   6.753
 2942TIP3    H1 8767   2.891   5.861   6.669
 2942TIP3    H2 8768   2.830   5.985   6.731
 2943TIP3   OH2 8769   0.755   5.141   0.962
 2943TIP3    H1 8770   0.848   5.119   0.963
 2943TIP3    H2 8771   0.730   5.146   1.054
 2944TIP3   OH2 8772   5.079   3.574   4.267
 2944TIP3    H1 8773   5.070   3.644   4.331
 2944TIP3    H2 8774   4.994   3.571   4.222
 2945TIP3   OH2 8775   1.241   3.105   3.792
 2945TIP3    H1 8776   1.312   3.070   3.847
 2945TIP3    H2 8777   1.282   3.122   3.708
 2946TIP3   OH2 8778   4.608   5.387   3.225
 2946TIP3    H1 8779   4.513   5.378   3.235
 2946TIP3    H2 8780   4.626   5.352   3.137
 2947TIP3   OH2 8781   1.795   2.270   1.998
 2947TIP3    H1 8782   1.878   2.315   2.014
 2947TIP3    H2 8783   1.729   2.339   2.000
 2948TIP3   OH2 8784   8.374   6.472   2.148
 2948TIP3    H1 8785   8.430   6.395   2.142
 2948TIP3    H2 8786   8.305   6.456   2.084
 2949TIP3   OH2 8787   0.303   7.144   1.676
 2949TIP3    H1 8788   0.286   7.102   1.591
 2949TIP3    H2 8789   0.300   7.237   1.657
 2950TIP3   OH2 8790   1.296   4.388   1.463
 2950TIP3    H1 8791   1.374   4.334   1.453
 2950TIP3    H2 8792   1.244   4.342   1.529
 2951TIP3   OH2 8793   5.918   7.082   1.276
 2951TIP3    H1 8794   5.834   7.112   1.311
 2951TIP3    H2 8795   5.914   6.987   1.283
 2952TIP3   OH2 8796   8.247   6.430   2.699
 2952TIP3    H1 8797   8.296   6.439   2.618
 2952TIP3    H2 8798   8.283   6.497   2.757
 2953TIP3   OH2 8799   5.462   7.757   3.247
 2953TIP3    H1 8800   5.372   7.726   3.241
 2953TIP3    H2 8801   5.490   7.770   3.156
 2954TIP3   OH2 8802   5.784   0.458   5.201
 2954TIP3    H1 8803   5.820   0.397   5.137
 2954TIP3    H2 8804   5.689   0.450   5.192
 2955TIP3   OH2 8805   3.003   5.597   3.086
 2955TIP3    H1 8806   2.921   5.577   3.131
 2955TIP3    H2 8807   2.982   5.590   2.993
 2956TIP3   OH2 8808   0.414   7.673   2.311
 2956TIP3    H1 8809   0.372   7.720   2.383
 2956TIP3    H2 8810   0.488   7.729   2.287
 2957TIP3   OH2 8811   6.316   5.172   2.813
 2957TIP3    H1 8812   6.341   5.157   2.722
 2957TIP3    H2 8813   6.348   5.260   2.833
 2958TIP3   OH2 8814   3.797   0.780   5.013
 2958TIP3    H1 8815   3.788   0.710   4.949
 2958TIP3    H2 8816   3.755   0.746   5.092
 2959TIP3   OH2 8817   7.561   4.287   6.874
 2959TIP3    H1 8818   7.515   4.241   6.804
 2959TIP3    H2 8819   7.654   4.279   6.850
 2960TIP3   OH2 8820   1.184   6.267   3.575
 2960TIP3    H1 8821   1.223   6.184   3.603
 2960TIP3    H2 8822   1.193   6.324   3.651
 2961TIP3   OH2 8823   2.073   4.904   3.795
 2961TIP3    H1 8824   2.096   4.832   3.737
 2961TIP3    H2 8825   2.137   4.972   3.774
 2962TIP3   OH2 8826   0.041   6.903   0.168
 2962TIP3    H1 8827  -0.036   6.848   0.159
 2962TIP3    H2 8828   0.111   6.853   0.126
 2963TIP3   OH2 8829   6.118   4.219   3.941
 2963TIP3    H1 8830   6.177   4.179   3.876
 2963TIP3    H2 8831   6.071   4.287   3.893
 2964TIP3   OH2 8832   2.517   7.073   6.181
 2964TIP3    H1 8833   2.487   7.138   6.244
 2964TIP3    H2 8834   2.556   7.003   6.234
 2965TIP3   OH2 8835   6.646   2.330   5.893
 2965TIP3    H1 8836   6.680   2.419   5.908
 2965TIP3    H2 8837   6.596   2.310   5.972
 2966TIP3   OH2 8838   6.878   7.439   6.307
 2966TIP3    H1 8839   6.954   7.437   6.364
 2966TIP3    H2 8840   6.823   7.366   6.337
 2967TIP3   OH2 8841   4.607   4.391   6.428
 2967TIP3    H1 8842   4.548   4.437   6.368
 2967TIP3    H2 8843   4.549   4.359   6.498
 2968TIP3   OH2 8844   2.182   5.682   4.810
 2968TIP3    H1 8845   2.166   5.682   4.716
 2968TIP3    H2 8846   2.095   5.695   4.849
 2969TIP3   OH2 8847   3.338   7.770   3.433
 2969TIP3    H1 8848   3.430   7.776   3.407
 2969TIP3    H2 8849   3.289   7.779   3.351
 2970TIP3   OH2 8850   7.611   6.528   3.713
 2970TIP3    H1 8851   7.529   6.572   3.734
 2970TIP3    H2 8852   7.659   6.590   3.657
 2971TIP3   OH2 8853   6.217   7.210   4.262
 2971TIP3    H1 8854   6.306   7.205   4.296
 2971TIP3    H2 8855   6.188   7.119   4.257
 2972TIP3   OH2 8856   3.836   0.436   3.429
 2972TIP3    H1 8857   3.741   0.432   3.432
 2972TIP3    H2 8858   3.859   0.512   3.482
 2973TIP3   OH2 8859   6.085   2.941   6.506
 2973TIP3    H1 8860   6.097   2.847   6.492
 2973TIP3    H2 8861   6.113   2.955   6.596
 2974TIP3   OH2 8862   6.611   2.756   1.904
 2974TIP3    H1 8863   6.678   2.803   1.854
 2974TIP3    H2 8864   6.538   2.816   1.909
 2975TIP3   OH2 8865   7.858   4.982   3.836
 2975TIP3    H1 8866   7.767   4.998   3.862
 2975TIP3    H2 8867   7.896   5.070   3.828
 2976TIP3   OH2 8868   5.679   4.120   3.566
 2976TIP3    H1 8869   5.592   4.157   3.581
 2976TIP3    H2 8870   5.728   4.142   3.646
 2977TIP3   OH2 8871   6.517   1.340   5.497
 2977TIP3    H1 8872   6.582   1.407   5.477
 2977TIP3    H2 8873   6.452   1.385   5.551
 2978TIP3   OH2 8874   7.462   6.043   5.772
 2978TIP3    H1 8875   7.515   5.987   5.829
 2978TIP3    H2 8876   7.526   6.096   5.724
 2979TIP3   OH2 8877   7.849   1.352   0.671
 2979TIP3    H1 8878   7.884   1.328   0.585
 2979TIP3    H2 8879   7.774   1.408   0.651
 2980TIP3   OH2 8880   2.577   5.053   1.074
 2980TIP3    H1 8881   2.673   5.061   1.076
 2980TIP3    H2 8882   2.557   4.988   1.141
 2981TIP3   OH2 8883   2.080   4.398   4.207
 2981TIP3    H1 8884   2.134   4.450   4.148
 2981TIP3    H2 8885   2.027   4.462   4.254
 2982TIP3   OH2 8886   0.075   2.404   4.160
 2982TIP3    H1 8887   0.124   2.482   4.186
 2982TIP3    H2 8888   0.028   2.430   4.081
 2983TIP3   OH2 8889   1.784   3.967   0.993
 2983TIP3    H1 8890   1.791   4.020   1.073
 2983TIP3    H2 8891   1.792   3.877   1.024
 2984TIP3   OH2 8892   6.194   6.974   1.230
 2984TIP3    H1 8893   6.213   7.042   1.166
 2984TIP3    H2 8894   6.111   6.936   1.200
 2985TIP3   OH2 8895   0.932   0.000   3.586
 2985TIP3    H1 8896   0.988   0.001   3.663
 2985TIP3    H2 8897   0.962   0.074   3.532
 2986TIP3   OH2 8898   4.707   3.014   5.032
 2986TIP3    H1 8899   4.801   3.001   5.035
 2986TIP3    H2 8900   4.687   3.024   4.939
 2987TIP3   OH2 8901   3.903   6.242   4.141
 2987TIP3    H1 8902   3.814   6.273   4.153
 2987TIP3    H2 8903   3.954   6.322   4.125
 2988TIP3   OH2 8904   3.832   3.330   2.948
 2988TIP3    H1 8905   3.875   3.403   2.993
 2988TIP3    H2 8906   3.901   3.264   2.938
 2989TIP3   OH2 8907   6.398   3.166   6.535
 2989TIP3    H1 8908   6.310   3.164   6.572
 2989TIP3    H2 8909   6.391   3.118   6.453
 2990TIP3   OH2 8910   7.303   2.612   1.184
 2990TIP3    H1 8911   7.312   2.590   1.091
 2990TIP3    H2 8912   7.346   2.698   1.191
 2991TIP3   OH2 8913   5.872   5.719   5.055
 2991TIP3    H1 8914   5.786   5.712   5.014
 2991TIP3    H2 8915   5.933   5.721   4.982
 2992TIP3   OH2 8916   0.559   4.947   4.805
 2992TIP3    H1 8917   0.511   4.880   4.853
 2992TIP3    H2 8918   0.640   4.904   4.778
 2993TIP3   OH2 8919   6.052   5.080   4.435
 2993TIP3    H1 8920   5.988   5.150   4.446
 2993TIP3    H2 8921   6.009   5.017   4.377
 2994TIP3   OH2 8922   2.493   1.865   4.842
 2994TIP3    H1 8923   2.558   1.805   4.878
 2994TIP3    H2 8924   2.513   1.869   4.748
 2995TIP3   OH2 8925   3.986   5.574   6.648
 2995TIP3    H1 8926   3.899   5.545   6.674
 2995TIP3    H2 8927   4.010   5.514   6.577
 2996TIP3   OH2 8928   4.489   7.489   5.770
 2996TIP3    H1 8929   4.561   7.427   5.761
 2996TIP3    H2 8930   4.510   7.539   5.849
 2997TIP3   OH2 8931   5.343   1.333   3.960
 2997TIP3    H1 8932   5.269   1.335   4.020
 2997TIP3    H2 8933   5.415   1.299   4.012
 2998TIP3   OH2 8934   7.699   3.924   2.419
 2998TIP3    H1 8935   7.652   4.008   2.421
 2998TIP3    H2 8936   7.791   3.947   2.435
 2999TIP3   OH2 8937   5.603   1.787   0.607
 2999TIP3    H1 8938   5.631   1.840   0.682
 2999TIP3    H2 8939   5.508   1.778   0.618
 3000TIP3   OH2 8940   3.842   5.278   5.049
 3000TIP3    H1 8941   3.753   5.256   5.076
 3000TIP3    H2 8942   3.897   5.214   5.094
 3001TIP3   OH2 8943   5.550   7.322   5.082
 3001TIP3    H1 8944   5.603   7.254   5.124
 3001TIP3    H2 8945   5.530   7.286   4.996
 3002TIP3   OH2 8946   7.460   7.337   4.890
 3002TIP3    H1 8947   7.406   7.416   4.894
 3002TIP3    H2 8948   7.489   7.324   4.980
 3003TIP3   OH2 8949   0.440   3.476   2.319
 3003TIP3    H1 8950   0.469   3.436   2.400
 3003TIP3    H2 8951   0.344   3.482   2.327
 3004TIP3   OH2 8952   4.286   1.643   5.298
 3004TIP3    H1 8953   4.265   1.631   5.391
 3004TIP3    H2 8954   4.280   1.554   5.261
 3005TIP3   OH2 8955   6.603   6.882   0.129
 3005TIP3    H1 8956   6.573   6.973   0.130
 3005TIP3    H2 8957   6.575   6.848   0.044
 3006TIP3   OH2 8958   2.825   7.133   1.097
 3006TIP3    H1 8959   2.731   7.127   1.081
 3006TIP3    H2 8960   2.845   7.053   1.147
 3007TIP3   OH2 8961   2.519   0.311   4.620
 3007TIP3    H1 8962   2.528   0.323   4.714
 3007TIP3    H2 8963   2.425   0.302   4.606
 3008TIP3   OH2 8964   7.256   4.342   0.706
 3008TIP3    H1 8965   7.247   4.260   0.754
 3008TIP3    H2 8966   7.225   4.409   0.768
 3009TIP3   OH2 8967   6.477   5.739   4.306
 3009TIP3    H1 8968   6.398   5.793   4.305
 3009TIP3    H2 8969   6.542   5.792   4.351
 3010TIP3   OH2 8970   6.913   2.075   6.112
 3010TIP3    H1 8971   6.985   2.061   6.050
 3010TIP3    H2 8972   6.949   2.136   6.176
 3011TIP3   OH2 8973   0.256   3.000   0.697
 3011TIP3    H1 8974   0.208   2.961   0.770
 3011TIP3    H2 8975   0.245   3.094   0.708
 3012TIP3   OH2 8976   1.218   6.165   4.153
 3012TIP3    H1 8977   1.140   6.113   4.135
 3012TIP3    H2 8978   1.200   6.207   4.237
 3013TIP3   OH2 8979   4.900   3.355   5.181
 3013TIP3    H1 8980   4.932   3.439   5.214
 3013TIP3    H2 8981   4.812   3.347   5.218
 3014TIP3   OH2 8982   4.756   1.614   0.491
 3014TIP3    H1 8983   4.716   1.548   0.547
 3014TIP3    H2 8984   4.726   1.592   0.402
 3015TIP3   OH2 8985   5.332   6.646   1.655
 3015TIP3    H1 8986   5.356   6.609   1.570
 3015TIP3    H2 8987   5.360   6.738   1.651
 3016TIP3   OH2 8988   5.669   4.788   1.582
 3016TIP3    H1 8989   5.604   4.719   1.592
 3016TIP3    H2 8990   5.668   4.835   1.665
 3017TIP3   OH2 8991   6.539   4.388   6.681
 3017TIP3    H1 8992   6.511   4.298   6.699
 3017TIP3    H2 8993   6.462   4.441   6.702
 3018TIP3   OH2 8994   4.395   4.070   5.134
 3018TIP3    H1 8995   4.454   4.076   5.209
 3018TIP3    H2 8996   4.376   3.976   5.126
 3019TIP3   OH2 8997   3.408   0.235   4.033
 3019TIP3    H1 8998   3.464   0.276   4.099
 3019TIP3    H2 8999   3.326   0.217   4.078
 3020TIP3   OH2 9000   4.506   3.996   2.531
 3020TIP3    H1 9001   4.491   4.041   2.447
 3020TIP3    H2 9002   4.547   4.063   2.586
 3021TIP3   OH2 9003   1.699   1.930   3.855
 3021TIP3    H1 9004   1.641   1.937   3.779
 3021TIP3    H2 9005   1.642   1.946   3.930
 3022TIP3   OH2 9006   6.582   6.436   6.179
 3022TIP3    H1 9007   6.487   6.424   6.180
 3022TIP3    H2 9008   6.596   6.521   6.222
 3023TIP3   OH2 9009   2.907   0.552   4.493
 3023TIP3    H1 9010   2.846   0.593   4.555
 3023TIP3    H2 9011   2.852   0.493   4.441
 3024TIP3   OH2 9012   1.202   7.145   3.188
 3024TIP3    H1 9013   1.281   7.157   3.241
 3024TIP3    H2 9014   1.151   7.225   3.204
 3025TIP3   OH2 9015   7.227   2.520   6.328
 3025TIP3    H1 9016   7.134   2.513   6.349
 3025TIP3    H2 9017   7.253   2.605   6.361
 3026TIP3   OH2 9018   5.472   6.850   1.078
 3026TIP3    H1 9019   5.409   6.836   1.007
 3026TIP3    H2 9020   5.558   6.840   1.037
 3027TIP3   OH2 9021   7.296   5.671   0.225
 3027TIP3    H1 9022   7.287   5.759   0.189
 3027TIP3    H2 9023   7.224   5.663   0.288
 3028TIP3   OH2 9024   5.090   7.085   5.776
 3028TIP3    H1 9025   5.039   7.013   5.739
 3028TIP3    H2 9026   5.099   7.064   5.869
 3029TIP3   OH2 9027   4.851   4.296   2.580
 3029TIP3    H1 9028   4.900   4.356   2.524
 3029TIP3    H2 9029   4.762   4.297   2.543
 3030TIP3   OH2 9030   7.237   2.799   0.335
 3030TIP3    H1 9031   7.255   2.719   0.286
 3030TIP3    H2 9032   7.167   2.774   0.396
 3031TIP3   OH2 9033   0.865   6.947   3.327
 3031TIP3    H1 9034   0.784   6.998   3.336
 3031TIP3    H2 9035   0.922   6.982   3.396
 3032TIP3   OH2 9036   5.108   5.587   1.961
 3032TIP3    H1 9037   5.168   5.558   2.030
 3032TIP3    H2 9038   5.121   5.682   1.958
 3033TIP3   OH2 9039   5.352   4.605   2.019
 3033TIP3    H1 9040   5.342   4.622   1.925
 3033TIP3    H2 9041   5.369   4.691   2.057
 3034TIP3   OH2 9042   3.155   7.160   5.416
 3034TIP3    H1 9043   3.086   7.171   5.351
 3034TIP3    H2 9044   3.233   7.137   5.365
 3035TIP3   OH2 9045   3.399   7.411   3.330
 3035TIP3    H1 9046   3.349   7.434   3.408
 3035TIP3    H2 9047   3.365   7.469   3.262
 3036TIP3   OH2 9048   5.745   5.442   6.492
 3036TIP3    H1 9049   5.833   5.472   6.512
 3036TIP3    H2 9050   5.687   5.502   6.539
 3037TIP3   OH2 9051   1.856   3.428   2.965
 3037TIP3    H1 9052   1.782   3.383   2.926
 3037TIP3    H2 9053   1.846   3.519   2.937
 3038TIP3   OH2 9054   7.874   7.451   2.529
 3038TIP3    H1 9055   7.826   7.449   2.612
 3038TIP3    H2 9056   7.946   7.512   2.545
 3039TIP3   OH2 9057   3.911   0.882   0.395
 3039TIP3    H1 9058   3.894   0.813   0.331
 3039TIP3    H2 9059   3.917   0.836   0.479
 3040TIP3   OH2 9060   8.091   4.106   6.146
 3040TIP3    H1 9061   8.171   4.099   6.094
 3040TIP3    H2 9062   8.032   4.041   6.110
 3041TIP3   OH2 9063   3.352   4.539   5.692
 3041TIP3    H1 9064   3.257   4.526   5.682
 3041TIP3    H2 9065   3.370   4.511   5.781
 3042TIP3   OH2 9066   7.232   0.344   6.589
 3042TIP3    H1 9067   7.186   0.260   6.586
 3042TIP3    H2 9068   7.193   0.392   6.661
 3043TIP3   OH2 9069   7.442   6.884   3.771
 3043TIP3    H1 9070   7.349   6.889   3.750
 3043TIP3    H2 9071   7.446   6.841   3.856
 3044TIP3   OH2 9072   5.416   5.058   1.750
 3044TIP3    H1 9073   5.335   5.011   1.732
 3044TIP3    H2 9074   5.396   5.113   1.826
 3045TIP3   OH2 9075   2.806   7.278   2.323
 3045TIP3    H1 9076   2.829   7.185   2.318
 3045TIP3    H2 9077   2.886   7.321   2.352
 3046TIP3   OH2 9078   0.441   3.421   1.336
 3046TIP3    H1 9079   0.466   3.330   1.321
 3046TIP3    H2 9080   0.378   3.418   1.408
 3047TIP3   OH2 9081   5.725   7.049   2.679
 3047TIP3    H1 9082   5.752   7.016   2.765
 3047TIP3    H2 9083   5.754   7.140   2.677
 3048TIP3   OH2 9084   4.760   6.345   1.391
 3048TIP3    H1 9085   4.717   6.384   1.468
 3048TIP3    H2 9086   4.700   6.363   1.319
 3049TIP3   OH2 9087   7.681   2.441   2.062
 3049TIP3    H1 9088   7.732   2.384   2.120
 3049TIP3    H2 9089   7.606   2.469   2.115
 3050TIP3   OH2 9090   6.985   7.221   0.159
 3050TIP3    H1 9091   6.974   7.251   0.249
 3050TIP3    H2 9092   7.056   7.156   0.164
 3051TIP3   OH2 9093   0.459   6.704   3.991
 3051TIP3    H1 9094   0.381   6.681   4.040
 3051TIP3    H2 9095   0.501   6.773   4.043
 3052TIP3   OH2 9096   2.733   1.546   2.146
 3052TIP3    H1 9097   2.676   1.623   2.150
 3052TIP3    H2 9098   2.795   1.558   2.217
 3053TIP3   OH2 9099   2.218   3.783   6.545
 3053TIP3    H1 9100   2.291   3.734   6.507
 3053TIP3    H2 9101   2.170   3.718   6.597
 3054TIP3   OH2 9102   4.636   1.529   2.609
 3054TIP3    H1 9103   4.709   1.501   2.664
 3054TIP3    H2 9104   4.641   1.472   2.532
 3055TIP3   OH2 9105   1.577   7.856   5.266
 3055TIP3    H1 9106   1.634   7.816   5.201
 3055TIP3    H2 9107   1.497   7.804   5.262
 3056TIP3   OH2 9108   3.260   4.755   4.905
 3056TIP3    H1 9109   3.310   4.680   4.873
 3056TIP3    H2 9110   3.258   4.816   4.831
 3057TIP3   OH2 9111   3.819   2.412   0.372
 3057TIP3    H1 9112   3.809   2.451   0.286
 3057TIP3    H2 9113   3.911   2.387   0.377
 3058TIP3   OH2 9114   5.174   4.626   0.360
 3058TIP3    H1 9115   5.267   4.610   0.346
 3058TIP3    H2 9116   5.134   4.614   0.274
 3059TIP3   OH2 9117   4.404   6.356   6.773
 3059TIP3    H1 9118   4.395   6.307   6.855
 3059TIP3    H2 9119   4.370   6.298   6.706
 3060TIP3   OH2 9120   7.082   0.971   0.449
 3060TIP3    H1 9121   7.060   0.881   0.426
 3060TIP3    H2 9122   7.137   1.001   0.377
 3061TIP3   OH2 9123   6.113   2.433   5.340
 3061TIP3    H1 9124   6.165   2.377   5.282
 3061TIP3    H2 9125   6.111   2.518   5.296
 3062TIP3   OH2 9126   1.839   5.178   3.385
 3062TIP3    H1 9127   1.841   5.196   3.480
 3062TIP3    H2 9128   1.928   5.149   3.365
 3063TIP3   OH2 9129   6.420   1.342   1.181
 3063TIP3    H1 9130   6.334   1.366   1.147
 3063TIP3    H2 9131   6.440   1.259   1.137
 3064TIP3   OH2 9132   4.962   2.520   4.995
 3064TIP3    H1 9133   4.910   2.439   4.999
 3064TIP3    H2 9134   4.897   2.590   4.993
 3065TIP3   OH2 9135   0.177   0.654   1.431
 3065TIP3    H1 9136   0.118   0.724   1.459
 3065TIP3    H2 9137   0.253   0.700   1.394
 3066TIP3   OH2 9138   6.306   0.624   4.776
 3066TIP3    H1 9139   6.248   0.699   4.792
 3066TIP3    H2 9140   6.253   0.565   4.721
 3067TIP3   OH2 9141   1.127   3.146   2.533
 3067TIP3    H1 9142   1.151   3.088   2.461
 3067TIP3    H2 9143   1.043   3.112   2.564
 3068TIP3   OH2 9144   7.644   1.617   1.717
 3068TIP3    H1 9145   7.599   1.685   1.767
 3068TIP3    H2 9146   7.591   1.609   1.637
 3069TIP3   OH2 9147   5.219   6.754   0.325
 3069TIP3    H1 9148   5.246   6.844   0.305
 3069TIP3    H2 9149   5.179   6.723   0.245
 3070TIP3   OH2 9150   1.539   6.419   0.762
 3070TIP3    H1 9151   1.556   6.338   0.811
 3070TIP3    H2 9152   1.504   6.389   0.678
 3071TIP3   OH2 9153   0.122   0.111   6.174
 3071TIP3    H1 9154   0.030   0.106   6.149
 3071TIP3    H2 9155   0.168   0.054   6.112
 3072TIP3   OH2 9156   5.318   0.228   1.255
 3072TIP3    H1 9157   5.254   0.229   1.184
 3072TIP3    H2 9158   5.403   0.232   1.211
 3073TIP3   OH2 9159   7.375   4.823   5.487
 3073TIP3    H1 9160   7.467   4.842   5.469
 3073TIP3    H2 9161   7.334   4.817   5.401
 3074TIP3   OH2 9162   4.648   5.270   0.101
 3074TIP3    H1 9163   4.612   5.270   0.012
 3074TIP3    H2 9164   4.719   5.335   0.098
 3075TIP3   OH2 9165   6.569   7.569   1.116
 3075TIP3    H1 9166   6.634   7.611   1.059
 3075TIP3    H2 9167   6.606   7.483   1.134
 3076TIP3   OH2 9168   3.197   6.123   6.679
 3076TIP3    H1 9169   3.229   6.196   6.625
 3076TIP3    H2 9170   3.160   6.165   6.756
 3077TIP3   OH2 9171   5.061   4.733   0.832
 3077TIP3    H1 9172   5.153   4.721   0.851
 3077TIP3    H2 9173   5.021   4.647   0.847
 3078TIP3   OH2 9174   8.136   4.728   4.368
 3078TIP3    H1 9175   8.067   4.724   4.302
 3078TIP3    H2 9176   8.089   4.721   4.452
 3079TIP3   OH2 9177   6.779   3.165   6.495
 3079TIP3    H1 9178   6.686   3.173   6.516
 3079TIP3    H2 9179   6.784   3.185   6.401
 3080TIP3   OH2 9180   3.427   3.795   1.984
 3080TIP3    H1 9181   3.517   3.780   2.011
 3080TIP3    H2 9182   3.376   3.730   2.031
 3081TIP3   OH2 9183   0.660   7.253   1.606
 3081TIP3    H1 9184   0.735   7.312   1.609
 3081TIP3    H2 9185   0.624   7.265   1.518
 3082TIP3   OH2 9186   1.122   2.358   4.675
 3082TIP3    H1 9187   1.205   2.330   4.715
 3082TIP3    H2 9188   1.077   2.406   4.744
 3083TIP3   OH2 9189   6.243   7.225   1.066
 3083TIP3    H1 9190   6.235   7.253   1.157
 3083TIP3    H2 9191   6.198   7.293   1.016
 3084TIP3   OH2 9192   4.775   3.017   5.335
 3084TIP3    H1 9193   4.760   3.034   5.242
 3084TIP3    H2 9194   4.732   2.933   5.351
 3085TIP3   OH2 9195   4.664   4.901   5.865
 3085TIP3    H1 9196   4.720   4.926   5.939
 3085TIP3    H2 9197   4.704   4.821   5.831
 3086TIP3   OH2 9198   3.391   2.038   3.432
 3086TIP3    H1 9199   3.324   1.971   3.419
 3086TIP3    H2 9200   3.348   2.120   3.407
 3087TIP3   OH2 9201   0.884   6.204   6.782
 3087TIP3    H1 9202   0.926   6.290   6.772
 3087TIP3    H2 9203   0.797   6.224   6.818
 3088TIP3   OH2 9204   7.204   0.401   5.613
 3088TIP3    H1 9205   7.236   0.325   5.564
 3088TIP3    H2 9206   7.270   0.416   5.680
 3089TIP3   OH2 9207   3.235   6.332   1.699
 3089TIP3    H1 9208   3.313   6.380   1.673
 3089TIP3    H2 9209   3.224   6.265   1.632
 3090TIP3   OH2 9210   2.949   2.541   6.745
 3090TIP3    H1 9211   2.883   2.477   6.717
 3090TIP3    H2 9212   2.907   2.591   6.815
 3091TIP3   OH2 9213   0.232   4.370   0.516
 3091TIP3    H1 9214   0.195   4.299   0.567
 3091TIP3    H2 9215   0.326   4.351   0.514
 3092TIP3   OH2 9216   7.484   7.581   1.326
 3092TIP3    H1 9217   7.440   7.623   1.400
 3092TIP3    H2 9218   7.462   7.489   1.334
 3093TIP3   OH2 9219   0.571   0.876   2.633
 3093TIP3    H1 9220   0.483   0.912   2.627
 3093TIP3    H2 9221   0.562   0.785   2.605
 3094TIP3   OH2 9222   3.849   5.455   4.470
 3094TIP3    H1 9223   3.777   5.436   4.530
 3094TIP3    H2 9224   3.927   5.422   4.516
 3095TIP3   OH2 9225   7.824   7.176   2.489
 3095TIP3    H1 9226   7.887   7.107   2.467
 3095TIP3    H2 9227   7.864   7.256   2.455
 3096TIP3   OH2 9228   0.037   3.237   4.515
 3096TIP3    H1 9229   0.066   3.170   4.577
 3096TIP3    H2 9230  -0.047   3.267   4.550
 3097TIP3   OH2 9231   5.369   7.841   5.314
 3097TIP3    H1 9232   5.350   7.935   5.321
 3097TIP3    H2 9233   5.358   7.807   5.402
 3098TIP3   OH2 9234   3.585   4.712   6.665
 3098TIP3    H1 9235   3.568   4.627   6.706
 3098TIP3    H2 9236   3.565   4.697   6.572
 3099TIP3   OH2 9237   6.152   6.205   0.783
 3099TIP3    H1 9238   6.147   6.191   0.688
 3099TIP3    H2 9239   6.068   6.244   0.806
 3100TIP3   OH2 9240   3.261   3.814   5.398
 3100TIP3    H1 9241   3.317   3.739   5.416
 3100TIP3    H2 9242   3.261   3.865   5.479
 3101TIP3   OH2 9243   2.118   7.643   1.000
 3101TIP3    H1 9244   2.083   7.652   0.911
 3101TIP3    H2 9245   2.084   7.719   1.047
 3102TIP3   OH2 9246   2.577   3.496   5.978
 3102TIP3    H1 9247   2.663   3.539   5.987
 3102TIP3    H2 9248   2.598   3.407   5.949
 3103TIP3   OH2 9249   5.068   0.420   0.823
 3103TIP3    H1 9250   5.094   0.364   0.897
 3103TIP3    H2 9251   4.976   0.439   0.839
 3104TIP3   OH2 9252   4.085   1.958   3.818
 3104TIP3    H1 9253   4.025   1.962   3.893
 3104TIP3    H2 9254   4.109   2.049   3.801
 3105TIP3   OH2 9255   5.981   0.027   6.638
 3105TIP3    H1 9256   5.945   0.069   6.560
 3105TIP3    H2 9257   6.076   0.029   6.626
 3106TIP3   OH2 9258   7.277   7.494   4.149
 3106TIP3    H1 9259   7.195   7.495   4.098
 3106TIP3    H2 9260   7.257   7.439   4.225
 3107TIP3   OH2 9261   7.175   5.241   4.687
 3107TIP3    H1 9262   7.137   5.223   4.773
 3107TIP3    H2 9263   7.103   5.279   4.637
 3108TIP3   OH2 9264   0.387   3.045   6.435
 3108TIP3    H1 9265   0.315   2.987   6.410
 3108TIP3    H2 9266   0.373   3.124   6.384
 3109TIP3   OH2 9267   5.965   0.970   2.267
 3109TIP3    H1 9268   5.870   0.959   2.256
 3109TIP3    H2 9269   6.001   0.955   2.180
 3110TIP3   OH2 9270   2.703   1.012   4.852
 3110TIP3    H1 9271   2.612   0.988   4.832
 3110TIP3    H2 9272   2.739   0.935   4.896
 3111TIP3   OH2 9273   2.243   0.386   2.110
 3111TIP3    H1 9274   2.294   0.318   2.066
 3111TIP3    H2 9275   2.302   0.461   2.114
 3112TIP3   OH2 9276   0.368   2.954   5.910
 3112TIP3    H1 9277   0.304   2.899   5.864
 3112TIP3    H2 9278   0.418   2.892   5.963
 3113TIP3   OH2 9279   2.001   1.453   5.754
 3113TIP3    H1 9280   2.027   1.399   5.828
 3113TIP3    H2 9281   2.044   1.412   5.678
 3114TIP3   OH2 9282   6.146   1.725   5.819
 3114TIP3    H1 9283   6.193   1.702   5.739
 3114TIP3    H2 9284   6.209   1.710   5.889
 3115TIP3   OH2 9285   2.263   5.895   2.347
 3115TIP3    H1 9286   2.256   5.990   2.343
 3115TIP3    H2 9287   2.198   5.868   2.412
 3116TIP3   OH2 9288   2.442   0.011   0.664
 3116TIP3    H1 9289   2.476   0.086   0.713
 3116TIP3    H2 9290   2.510  -0.056   0.674
 3117TIP3   OH2 9291   5.262   1.145   1.474
 3117TIP3    H1 9292   5.226   1.071   1.524
 3117TIP3    H2 9293   5.325   1.105   1.414
 3118TIP3   OH2 9294   0.431   1.352   0.785
 3118TIP3    H1 9295   0.488   1.422   0.817
 3118TIP3    H2 9296   0.484   1.306   0.720
 3119TIP3   OH2 9297   4.063   4.300   2.540
 3119TIP3    H1 9298   4.025   4.371   2.488
 3119TIP3    H2 9299   3.995   4.276   2.603
 3120TIP3   OH2 9300   5.602   7.710   3.969
 3120TIP3    H1 9301   5.660   7.782   3.993
 3120TIP3    H2 9302   5.650   7.631   3.995
 3121TIP3   OH2 9303   2.538   6.853   4.903
 3121TIP3    H1 9304   2.531   6.806   4.820
 3121TIP3    H2 9305   2.623   6.827   4.938
 3122TIP3   OH2 9306   5.390   4.356   0.315
 3122TIP3    H1 9307   5.342   4.367   0.233
 3122TIP3    H2 9308   5.326   4.316   0.374
 3123TIP3   OH2 9309   8.155   6.435   1.963
 3123TIP3    H1 9310   8.164   6.521   1.922
 3123TIP3    H2 9311   8.183   6.373   1.896
 3124TIP3   OH2 9312   0.929   7.151   0.698
 3124TIP3    H1 9313   0.977   7.070   0.711
 3124TIP3    H2 9314   0.905   7.179   0.786
 3125TIP3   OH2 9315   1.590   0.760   5.554
 3125TIP3    H1 9316   1.526   0.722   5.614
 3125TIP3    H2 9317   1.539   0.784   5.477
 3126TIP3   OH2 9318  -0.031   6.387   1.738
 3126TIP3    H1 9319  -0.006   6.471   1.775
 3126TIP3    H2 9320   0.040   6.327   1.763
 3127TIP3   OH2 9321   1.662   6.762   6.525
 3127TIP3    H1 9322   1.598   6.773   6.595
 3127TIP3    H2 9323   1.611   6.773   6.444
 3128TIP3   OH2 9324   7.369   2.193   2.764
 3128TIP3    H1 9325   7.327   2.131   2.705
 3128TIP3    H2 9326   7.450   2.150   2.792
 3129TIP3   OH2 9327   3.117   7.542   4.866
 3129TIP3    H1 9328   3.121   7.621   4.920
 3129TIP3    H2 9329   3.051   7.487   4.907
 3130TIP3   OH2 9330   2.941   6.262   4.432
 3130TIP3    H1 9331   3.000   6.337   4.423
 3130TIP3    H2 9332   2.960   6.229   4.520
 3131TIP3   OH2 9333   3.531   4.689   4.102
 3131TIP3    H1 9334   3.438   4.708   4.098
 3131TIP3    H2 9335   3.560   4.726   4.185
 3132TIP3   OH2 9336   7.402   2.631   5.796
 3132TIP3    H1 9337   7.401   2.557   5.858
 3132TIP3    H2 9338   7.487   2.623   5.752
 3133TIP3   OH2 9339   7.494   2.052   0.341
 3133TIP3    H1 9340   7.473   1.998   0.417
 3133TIP3    H2 9341   7.529   1.990   0.277
 3134TIP3   OH2 9342   0.983   4.732   2.763
 3134TIP3    H1 9343   0.995   4.638   2.748
 3134TIP3    H2 9344   0.892   4.750   2.739
 3135TIP3   OH2 9345   4.056   5.096   4.414
 3135TIP3    H1 9346   4.001   5.068   4.487
 3135TIP3    H2 9347   4.013   5.059   4.337
 3136TIP3   OH2 9348   2.694   2.182   1.234
 3136TIP3    H1 9349   2.717   2.191   1.327
 3136TIP3    H2 9350   2.769   2.218   1.187
 3137TIP3   OH2 9351   6.447   0.755   4.387
 3137TIP3    H1 9352   6.507   0.769   4.460
 3137TIP3    H2 9353   6.383   0.825   4.394
 3138TIP3   OH2 9354   1.171   7.742   5.992
 3138TIP3    H1 9355   1.229   7.733   6.068
 3138TIP3    H2 9356   1.174   7.835   5.969
 3139TIP3   OH2 9357   0.696   2.976   2.256
 3139TIP3    H1 9358   0.626   2.912   2.274
 3139TIP3    H2 9359   0.651   3.050   2.215
 3140TIP3   OH2 9360   8.189   0.346   0.813
 3140TIP3    H1 9361   8.173   0.308   0.899
 3140TIP3    H2 9362   8.208   0.438   0.830
 3141TIP3   OH2 9363   2.850   3.496   5.939
 3141TIP3    H1 9364   2.889   3.548   5.868
 3141TIP3    H2 9365   2.908   3.421   5.949
 3142TIP3   OH2 9366   1.416   7.530   4.624
 3142TIP3    H1 9367   1.340   7.586   4.642
 3142TIP3    H2 9368   1.395   7.448   4.670
 3143TIP3   OH2 9369   4.223   2.803   3.107
 3143TIP3    H1 9370   4.245   2.842   3.192
 3143TIP3    H2 9371   4.275   2.852   3.044
 3144TIP3   OH2 9372   3.344   5.728   6.254
 3144TIP3    H1 9373   3.298   5.649   6.281
 3144TIP3    H2 9374   3.372   5.710   6.164
 3145TIP3   OH2 9375   5.814   3.118   5.968
 3145TIP3    H1 9376   5.749   3.116   6.039
 3145TIP3    H2 9377   5.837   3.027   5.953
 3146TIP3   OH2 9378   1.637   2.293   0.187
 3146TIP3    H1 9379   1.552   2.258   0.214
 3146TIP3    H2 9380   1.701   2.233   0.224
 3147TIP3   OH2 9381   2.624   6.317   0.409
 3147TIP3    H1 9382   2.619   6.410   0.384
 3147TIP3    H2 9383   2.713   6.291   0.385
 3148TIP3   OH2 9384   5.221   0.936   1.624
 3148TIP3    H1 9385   5.155   0.890   1.573
 3148TIP3    H2 9386   5.199   0.916   1.715
 3149TIP3   OH2 9387   4.927   2.314   2.594
 3149TIP3    H1 9388   4.972   2.266   2.524
 3149TIP3    H2 9389   4.855   2.359   2.550
 3150TIP3   OH2 9390   6.376   7.603   5.470
 3150TIP3    H1 9391   6.321   7.532   5.436
 3150TIP3    H2 9392   6.376   7.590   5.565
 3151TIP3   OH2 9393   0.077   2.912   2.582
 3151TIP3    H1 9394   0.081   2.952   2.495
 3151TIP3    H2 9395   0.103   2.821   2.568
 3152TIP3   OH2 9396   8.367   6.241   5.769
 3152TIP3    H1 9397   8.435   6.174   5.766
 3152TIP3    H2 9398   8.387   6.298   5.694
 3153TIP3   OH2 9399   0.064   4.113   4.574
 3153TIP3    H1 9400   0.018   4.030   4.588
 3153TIP3    H2 9401   0.148   4.087   4.536
 3154TIP3   OH2 9402   7.582   7.304   0.337
 3154TIP3    H1 9403   7.585   7.219   0.292
 3154TIP3    H2 9404   7.674   7.329   0.347
 3155TIP3   OH2 9405   7.292   0.195   5.472
 3155TIP3    H1 9406   7.340   0.117   5.499
 3155TIP3    H2 9407   7.219   0.161   5.420
 3156TIP3   OH2 9408   0.361   5.768   5.081
 3156TIP3    H1 9409   0.390   5.690   5.127
 3156TIP3    H2 9410   0.267   5.774   5.100
 3157TIP3   OH2 9411   3.937   4.466   0.594
 3157TIP3    H1 9412   3.926   4.413   0.673
 3157TIP3    H2 9413   3.861   4.443   0.540
 3158TIP3   OH2 9414   8.375   4.151   1.682
 3158TIP3    H1 9415   8.312   4.146   1.611
 3158TIP3    H2 9416   8.458   4.123   1.643
 3159TIP3   OH2 9417   1.842   5.593   6.145
 3159TIP3    H1 9418   1.902   5.565   6.076
 3159TIP3    H2 9419   1.787   5.516   6.161
 3160TIP3   OH2 9420   5.488   4.190   4.135
 3160TIP3    H1 9421   5.395   4.210   4.145
 3160TIP3    H2 9422   5.511   4.226   4.049
 3161TIP3   OH2 9423   5.032   7.796   6.577
 3161TIP3    H1 9424   5.080   7.750   6.508
 3161TIP3    H2 9425   5.084   7.782   6.656
 3162TIP3   OH2 9426   4.680   1.624   1.386
 3162TIP3    H1 9427   4.670   1.550   1.326
 3162TIP3    H2 9428   4.621   1.605   1.459
 3163TIP3   OH2 9429   4.297   7.791   3.361
 3163TIP3    H1 9430   4.354   7.795   3.285
 3163TIP3    H2 9431   4.228   7.855   3.344
 3164TIP3   OH2 9432   5.938   7.410   4.327
 3164TIP3    H1 9433   5.978   7.341   4.381
 3164TIP3    H2 9434   5.955   7.491   4.376
 3165TIP3   OH2 9435   5.642   4.315   4.313
 3165TIP3    H1 9436   5.571   4.278   4.260
 3165TIP3    H2 9437   5.644   4.407   4.288
 3166TIP3   OH2 9438   3.347   1.588   5.731
 3166TIP3    H1 9439   3.262   1.618   5.762
 3166TIP3    H2 9440   3.402   1.667   5.730
 3167TIP3   OH2 9441   2.621   3.938   2.439
 3167TIP3    H1 9442   2.537   3.978   2.461
 3167TIP3    H2 9443   2.671   3.939   2.521
 3168TIP3   OH2 9444   2.118   4.887   1.195
 3168TIP3    H1 9445   2.080   4.906   1.109
 3168TIP3    H2 9446   2.100   4.794   1.209
 3169TIP3   OH2 9447   5.319   0.914   4.152
 3169TIP3    H1 9448   5.323   0.829   4.197
 3169TIP3    H2 9449   5.359   0.975   4.214
 3170TIP3   OH2 9450   4.764   4.430   5.030
 3170TIP3    H1 9451   4.777   4.520   4.999
 3170TIP3    H2 9452   4.820   4.377   4.973
 3171TIP3   OH2 9453   6.030   4.465   6.815
 3171TIP3    H1 9454   6.036   4.448   6.909
 3171TIP3    H2 9455   5.950   4.420   6.788
 3172TIP3   OH2 9456   0.296   3.766   3.745
 3172TIP3    H1 9457   0.286   3.787   3.838
 3172TIP3    H2 9458   0.328   3.676   3.744
 3173TIP3   OH2 9459   5.706   7.073   4.693
 3173TIP3    H1 9460   5.633   7.022   4.657
 3173TIP3    H2 9461   5.744   7.016   4.760
 3174TIP3   OH2 9462   5.486   7.193   2.221
 3174TIP3    H1 9463   5.548   7.263   2.202
 3174TIP3    H2 9464   5.455   7.164   2.135
 3175TIP3   OH2 9465   6.720   2.437   2.758
 3175TIP3    H1 9466   6.703   2.358   2.707
 3175TIP3    H2 9467   6.635   2.482   2.763
 3176TIP3   OH2 9468   6.831   4.128   1.700
 3176TIP3    H1 9469   6.918   4.132   1.739
 3176TIP3    H2 9470   6.827   4.040   1.661
 3177TIP3   OH2 9471   3.408   7.920   0.122
 3177TIP3    H1 9472   3.440   7.947   0.208
 3177TIP3    H2 9473   3.478   7.866   0.086
 3178TIP3   OH2 9474   3.561   3.786   4.867
 3178TIP3    H1 9475   3.521   3.759   4.950
 3178TIP3    H2 9476   3.642   3.735   4.862
 3179TIP3   OH2 9477   2.748   4.257   5.605
 3179TIP3    H1 9478   2.760   4.248   5.510
 3179TIP3    H2 9479   2.836   4.276   5.638
 3180TIP3   OH2 9480   4.217   0.723   4.081
 3180TIP3    H1 9481   4.139   0.718   4.136
 3180TIP3    H2 9482   4.192   0.680   3.999
 3181TIP3   OH2 9483   0.334   0.192   4.863
 3181TIP3    H1 9484   0.424   0.161   4.873
 3181TIP3    H2 9485   0.312   0.172   4.772
 3182TIP3   OH2 9486   1.616   1.441   5.627
 3182TIP3    H1 9487   1.529   1.445   5.587
 3182TIP3    H2 9488   1.657   1.525   5.605
 3183TIP3   OH2 9489   6.125   6.971   4.349
 3183TIP3    H1 9490   6.097   7.027   4.422
 3183TIP3    H2 9491   6.161   6.893   4.392
 3184TIP3   OH2 9492   0.776   5.570  -0.009
 3184TIP3    H1 9493   0.860   5.598  -0.045
 3184TIP3    H2 9494   0.795   5.543   0.081
 3185TIP3   OH2 9495   2.761   3.697   2.608
 3185TIP3    H1 9496   2.850   3.730   2.597
 3185TIP3    H2 9497   2.767   3.604   2.585
 3186TIP3   OH2 9498   1.764   1.753   1.592
 3186TIP3    H1 9499   1.774   1.837   1.548
 3186TIP3    H2 9500   1.848   1.737   1.635
 3187TIP3   OH2 9501   0.243   0.642   6.187
 3187TIP3    H1 9502   0.179   0.648   6.258
 3187TIP3    H2 9503   0.253   0.732   6.157
 3188TIP3   OH2 9504   0.810   2.317   2.472
 3188TIP3    H1 9505   0.844   2.241   2.425
 3188TIP3    H2 9506   0.730   2.285   2.514
 3189TIP3   OH2 9507   3.344   1.964   1.443
 3189TIP3    H1 9508   3.328   1.972   1.537
 3189TIP3    H2 9509   3.363   2.053   1.414
 3190TIP3   OH2 9510   7.554   6.982   2.845
 3190TIP3    H1 9511   7.515   6.922   2.781
 3190TIP3    H2 9512   7.635   7.011   2.804
 3191TIP3   OH2 9513   3.290   5.984   6.368
 3191TIP3    H1 9514   3.302   5.910   6.309
 3191TIP3    H2 9515   3.377   6.000   6.404
 3192TIP3   OH2 9516   7.093   3.129   4.852
 3192TIP3    H1 9517   7.135   3.213   4.833
 3192TIP3    H2 9518   7.148   3.089   4.920
 3193TIP3   OH2 9519   7.275   1.333   0.730
 3193TIP3    H1 9520   7.296   1.241   0.746
 3193TIP3    H2 9521   7.233   1.363   0.811
 3194TIP3   OH2 9522   8.137   1.465   5.777
 3194TIP3    H1 9523   8.165   1.503   5.694
 3194TIP3    H2 9524   8.150   1.535   5.842
 3195TIP3   OH2 9525   6.800   4.823   5.733
 3195TIP3    H1 9526   6.819   4.904   5.686
 3195TIP3    H2 9527   6.824   4.842   5.824
 3196TIP3   OH2 9528   6.384   5.786   4.967
 3196TIP3    H1 9529   6.453   5.792   5.033
 3196TIP3    H2 9530   6.309   5.748   5.014
 3197TIP3   OH2 9531   8.283   2.276   2.524
 3197TIP3    H1 9532   8.201   2.324   2.541
 3197TIP3    H2 9533   8.271   2.238   2.437
 3198TIP3   OH2 9534   0.305   6.650   0.843
 3198TIP3    H1 9535   0.333   6.612   0.927
 3198TIP3    H2 9536   0.324   6.744   0.852
 3199TIP3   OH2 9537   2.609   7.112   1.548
 3199TIP3    H1 9538   2.577   7.183   1.493
 3199TIP3    H2 9539   2.678   7.151   1.601
 3200TIP3   OH2 9540   1.730   2.540   2.577
 3200TIP3    H1 9541   1.783   2.472   2.618
 3200TIP3    H2 9542   1.760   2.542   2.486
 3201TIP3   OH2 9543   1.553   3.999   3.955
 3201TIP3    H1 9544   1.523   3.932   3.893
 3201TIP3    H2 9545   1.530   4.082   3.913
 3202TIP3   OH2 9546   7.802   2.976   1.676
 3202TIP3    H1 9547   7.768   3.012   1.595
 3202TIP3    H2 9548   7.837   2.890   1.651
 3203TIP3   OH2 9549   0.864   2.129   4.858
 3203TIP3    H1 9550   0.887   2.198   4.796
 3203TIP3    H2 9551   0.811   2.173   4.924
 3204TIP3   OH2 9552   3.503   5.486   0.677
 3204TIP3    H1 9553   3.594   5.502   0.703
 3204TIP3    H2 9554   3.504   5.489   0.582
 3205TIP3   OH2 9555   4.663   0.964   1.851
 3205TIP3    H1 9556   4.745   1.008   1.871
 3205TIP3    H2 9557   4.688   0.882   1.810
 3206TIP3   OH2 9558   7.295   6.777   6.020
 3206TIP3    H1 9559   7.356   6.849   6.006
 3206TIP3    H2 9560   7.304   6.756   6.113
 3207TIP3   OH2 9561   8.022   5.546   3.734
 3207TIP3    H1 9562   8.100   5.503   3.700
 3207TIP3    H2 9563   7.950   5.488   3.708
 3208TIP3   OH2 9564   4.635   1.609   3.330
 3208TIP3    H1 9565   4.666   1.698   3.313
 3208TIP3    H2 9566   4.542   1.621   3.354
 3209TIP3   OH2 9567   5.412   4.561   3.719
 3209TIP3    H1 9568   5.500   4.599   3.721
 3209TIP3    H2 9569   5.366   4.612   3.652
 3210TIP3   OH2 9570   3.150   1.862   3.388
 3210TIP3    H1 9571   3.068   1.852   3.436
 3210TIP3    H2 9572   3.124   1.903   3.306
 3211TIP3   OH2 9573   1.253   7.839   6.603
 3211TIP3    H1 9574   1.295   7.910   6.553
 3211TIP3    H2 9575   1.224   7.881   6.684
 3212TIP3   OH2 9576   1.360   2.343   6.292
 3212TIP3    H1 9577   1.342   2.429   6.330
 3212TIP3    H2 9578   1.281   2.321   6.244
 3213TIP3   OH2 9579   5.852   3.981   2.828
 3213TIP3    H1 9580   5.933   3.970   2.879
 3213TIP3    H2 9581   5.867   3.929   2.749
 3214TIP3   OH2 9582   3.672   3.961   5.836
 3214TIP3    H1 9583   3.704   3.982   5.924
 3214TIP3    H2 9584   3.609   4.030   5.817
 3215TIP3   OH2 9585   4.445   0.305   5.016
 3215TIP3    H1 9586   4.390   0.289   5.093
 3215TIP3    H2 9587   4.504   0.375   5.043
 3216TIP3   OH2 9588   1.207   5.832   2.774
 3216TIP3    H1 9589   1.223   5.856   2.866
 3216TIP3    H2 9590   1.112   5.840   2.763
 3217TIP3   OH2 9591   8.414   7.620   1.689
 3217TIP3    H1 9592   8.326   7.612   1.652
 3217TIP3    H2 9593   8.422   7.712   1.713
 3218TIP3   OH2 9594   7.737   6.602   5.200
 3218TIP3    H1 9595   7.812   6.655   5.173
 3218TIP3    H2 9596   7.769   6.512   5.197
 3219TIP3   OH2 9597   2.657   2.721   6.114
 3219TIP3    H1 9598   2.638   2.669   6.192
 3219TIP3    H2 9599   2.573   2.758   6.089
 3220TIP3   OH2 9600   3.366   6.761   0.909
 3220TIP3    H1 9601   3.441   6.781   0.853
 3220TIP3    H2 9602   3.369   6.826   0.978
 3221TIP3   OH2 9603   8.132   5.484   5.318
 3221TIP3    H1 9604   8.209   5.456   5.368
 3221TIP3    H2 9605   8.058   5.444   5.363
 3222TIP3   OH2 9606   4.734   4.700   6.519
 3222TIP3    H1 9607   4.651   4.660   6.494
 3222TIP3    H2 9608   4.747   4.771   6.456
 3223TIP3   OH2 9609   2.336   3.325   3.134
 3223TIP3    H1 9610   2.402   3.376   3.086
 3223TIP3    H2 9611   2.293   3.390   3.190
 3224TIP3   OH2 9612   6.849   0.380   1.740
 3224TIP3    H1 9613   6.906   0.347   1.671
 3224TIP3    H2 9614   6.807   0.302   1.776
 3225TIP3   OH2 9615   4.841   0.900   0.167
 3225TIP3    H1 9616   4.868   0.919   0.257
 3225TIP3    H2 9617   4.922   0.902   0.116
 3226TIP3   OH2 9618   4.390   5.584   5.440
 3226TIP3    H1 9619   4.345   5.500   5.450
 3226TIP3    H2 9620   4.471   5.575   5.490
 3227TIP3   OH2 9621   0.369   5.454   5.886
 3227TIP3    H1 9622   0.279   5.469   5.916
 3227TIP3    H2 9623   0.396   5.537   5.847
 3228TIP3   OH2 9624   4.106   1.956   0.590
 3228TIP3    H1 9625   4.065   2.006   0.519
 3228TIP3    H2 9626   4.044   1.885   0.607
 3229TIP3   OH2 9627   6.949   2.410   1.420
 3229TIP3    H1 9628   7.005   2.484   1.396
 3229TIP3    H2 9629   6.989   2.374   1.499
 3230TIP3   OH2 9630   5.066   6.857   1.642
 3230TIP3    H1 9631   5.060   6.953   1.644
 3230TIP3    H2 9632   5.114   6.835   1.721
 3231TIP3   OH2 9633   3.390   6.040   5.546
 3231TIP3    H1 9634   3.409   6.043   5.640
 3231TIP3    H2 9635   3.297   6.058   5.539
 3232TIP3   OH2 9636   5.180   5.441   4.843
 3232TIP3    H1 9637   5.184   5.346   4.855
 3232TIP3    H2 9638   5.093   5.466   4.874
 3233TIP3   OH2 9639   5.818   2.810   6.854
 3233TIP3    H1 9640   5.912   2.793   6.862
 3233TIP3    H2 9641   5.779   2.722   6.852
 3234TIP3   OH2 9642   1.941   3.971   5.989
 3234TIP3    H1 9643   2.032   3.952   6.015
 3234TIP3    H2 9644   1.949   4.029   5.913
 3235TIP3   OH2 9645   3.655   2.086   3.313
 3235TIP3    H1 9646   3.667   2.179   3.333
 3235TIP3    H2 9647   3.562   2.071   3.325
 3236TIP3   OH2 9648   1.682   7.633   5.050
 3236TIP3    H1 9649   1.728   7.585   4.981
 3236TIP3    H2 9650   1.743   7.632   5.124
 3237TIP3   OH2 9651   0.110   0.287   0.499
 3237TIP3    H1 9652   0.015   0.294   0.491
 3237TIP3    H2 9653   0.132   0.338   0.577
 3238TIP3   OH2 9654   2.429   1.893   3.776
 3238TIP3    H1 9655   2.390   1.808   3.754
 3238TIP3    H2 9656   2.395   1.952   3.709
 3239TIP3   OH2 9657   0.273   0.135   4.589
 3239TIP3    H1 9658   0.361   0.101   4.574
 3239TIP3    H2 9659   0.269   0.215   4.537
 3240TIP3   OH2 9660   0.729   6.197   1.738
 3240TIP3    H1 9661   0.788   6.192   1.813
 3240TIP3    H2 9662   0.700   6.107   1.724
 3241TIP3   OH2 9663   1.401   7.871   2.939
 3241TIP3    H1 9664   1.322   7.869   2.994
 3241TIP3    H2 9665   1.401   7.960   2.903
 3242TIP3   OH2 9666   4.268   0.365   6.389
 3242TIP3    H1 9667   4.335   0.390   6.326
 3242TIP3    H2 9668   4.297   0.402   6.472
 3243TIP3   OH2 9669   4.202   5.375   2.872
 3243TIP3    H1 9670   4.170   5.435   2.805
 3243TIP3    H2 9671   4.293   5.359   2.849
 3244TIP3   OH2 9672   8.068   5.865   2.306
 3244TIP3    H1 9673   8.118   5.803   2.358
 3244TIP3    H2 9674   8.044   5.935   2.368
 3245TIP3   OH2 9675   0.008   7.242   4.542
 3245TIP3    H1 9676  -0.035   7.220   4.624
 3245TIP3    H2 9677   0.098   7.210   4.552
 3246TIP3   OH2 9678   1.353   5.319   3.967
 3246TIP3    H1 9679   1.399   5.273   3.897
 3246TIP3    H2 9680   1.348   5.256   4.038
 3247TIP3   OH2 9681   3.765   4.886   4.519
 3247TIP3    H1 9682   3.814   4.956   4.562
 3247TIP3    H2 9683   3.810   4.806   4.545
 3248TIP3   OH2 9684   3.231   6.260   4.955
 3248TIP3    H1 9685   3.209   6.234   5.044
 3248TIP3    H2 9686   3.212   6.183   4.902
 3249TIP3   OH2 9687   1.539   2.350   2.559
 3249TIP3    H1 9688   1.574   2.439   2.561
 3249TIP3    H2 9689   1.565   2.316   2.473
 3250TIP3   OH2 9690   6.429   4.920   3.834
 3250TIP3    H1 9691   6.461   5.005   3.802
 3250TIP3    H2 9692   6.377   4.942   3.912
 3251TIP3   OH2 9693   5.811   1.323   5.461
 3251TIP3    H1 9694   5.726   1.364   5.444
 3251TIP3    H2 9695   5.875   1.387   5.433
 3252TIP3   OH2 9696   1.042   6.649   1.925
 3252TIP3    H1 9697   1.031   6.712   1.996
 3252TIP3    H2 9698   0.993   6.572   1.953
 3253TIP3   OH2 9699   0.061   4.610   5.180
 3253TIP3    H1 9700   0.137   4.556   5.202
 3253TIP3    H2 9701  -0.011   4.573   5.232
 3254TIP3   OH2 9702   5.817   4.953   2.523
 3254TIP3    H1 9703   5.737   4.907   2.548
 3254TIP3    H2 9704   5.800   5.045   2.541
 3255TIP3   OH2 9705   5.177   1.631   4.139
 3255TIP3    H1 9706   5.138   1.551   4.175
 3255TIP3    H2 9707   5.236   1.661   4.208
 3256TIP3   OH2 9708   7.405   0.894   3.206
 3256TIP3    H1 9709   7.414   0.945   3.125
 3256TIP3    H2 9710   7.378   0.807   3.177
 3257TIP3   OH2 9711   1.347   1.485   5.521
 3257TIP3    H1 9712   1.342   1.437   5.438
 3257TIP3    H2 9713   1.300   1.431   5.584
 3258TIP3   OH2 9714   0.566   4.867   6.062
 3258TIP3    H1 9715   0.583   4.961   6.068
 3258TIP3    H2 9716   0.529   4.845   6.148
 3259TIP3   OH2 9717   0.478   6.634   0.095
 3259TIP3    H1 9718   0.508   6.576   0.165
 3259TIP3    H2 9719   0.477   6.721   0.134
 3260TIP3   OH2 9720   5.570   6.030   1.358
 3260TIP3    H1 9721   5.633   6.092   1.394
 3260TIP3    H2 9722   5.511   6.083   1.304
 3261TIP3   OH2 9723   3.090   5.577   5.981
 3261TIP3    H1 9724   3.136   5.648   5.936
 3261TIP3    H2 9725   3.031   5.621   6.042
 3262TIP3   OH2 9726   7.130   6.264   0.141
 3262TIP3    H1 9727   7.149   6.187   0.194
 3262TIP3    H2 9728   7.175   6.249   0.058
 3263TIP3   OH2 9729   6.251   1.307   1.945
 3263TIP3    H1 9730   6.302   1.312   1.864
 3263TIP3    H2 9731   6.266   1.218   1.977
 3264TIP3   OH2 9732   7.303   7.555   3.680
 3264TIP3    H1 9733   7.300   7.611   3.602
 3264TIP3    H2 9734   7.265   7.471   3.651
 3265TIP3   OH2 9735   7.253   4.792   6.585
 3265TIP3    H1 9736   7.251   4.699   6.608
 3265TIP3    H2 9737   7.262   4.837   6.670
 3266TIP3   OH2 9738   7.926   0.788   3.886
 3266TIP3    H1 9739   8.019   0.778   3.907
 3266TIP3    H2 9740   7.921   0.873   3.841
 3267TIP3   OH2 9741   2.820   1.931   4.097
 3267TIP3    H1 9742   2.762   1.928   4.021
 3267TIP3    H2 9743   2.862   2.016   4.092
 3268TIP3   OH2 9744   2.642   5.174   0.718
 3268TIP3    H1 9745   2.738   5.167   0.719
 3268TIP3    H2 9746   2.612   5.084   0.727
 3269TIP3   OH2 9747   6.276   7.818   5.301
 3269TIP3    H1 9748   6.301   7.762   5.375
 3269TIP3    H2 9749   6.183   7.800   5.288
 3270TIP3   OH2 9750   2.363   2.591   1.082
 3270TIP3    H1 9751   2.397   2.520   1.027
 3270TIP3    H2 9752   2.343   2.549   1.166
 3271TIP3   OH2 9753   6.105   1.716   3.343
 3271TIP3    H1 9754   6.019   1.744   3.309
 3271TIP3    H2 9755   6.164   1.722   3.267
 3272TIP3   OH2 9756   0.318   0.204   5.927
 3272TIP3    H1 9757   0.354   0.271   5.986
 3272TIP3    H2 9758   0.254   0.251   5.873
 3273TIP3   OH2 9759   5.335   2.189   5.045
 3273TIP3    H1 9760   5.343   2.205   5.138
 3273TIP3    H2 9761   5.276   2.257   5.013
 3274TIP3   OH2 9762   7.643   5.410   2.318
 3274TIP3    H1 9763   7.636   5.479   2.384
 3274TIP3    H2 9764   7.731   5.420   2.282
 3275TIP3   OH2 9765   2.349   3.331   0.514
 3275TIP3    H1 9766   2.374   3.392   0.445
 3275TIP3    H2 9767   2.354   3.382   0.595
 3276TIP3   OH2 9768   3.792   4.691   3.996
 3276TIP3    H1 9769   3.787   4.597   3.979
 3276TIP3    H2 9770   3.751   4.703   4.081
 3277TIP3   OH2 9771   7.123   4.180   1.802
 3277TIP3    H1 9772   7.206   4.192   1.757
 3277TIP3    H2 9773   7.112   4.260   1.854
 3278TIP3   OH2 9774   1.278   6.054   3.763
 3278TIP3    H1 9775   1.194   6.016   3.788
 3278TIP3    H2 9776   1.342   6.007   3.817
 3279TIP3   OH2 9777   5.467   1.116   3.190
 3279TIP3    H1 9778   5.372   1.131   3.183
 3279TIP3    H2 9779   5.485   1.123   3.284
 3280TIP3   OH2 9780   4.865   6.287   5.745
 3280TIP3    H1 9781   4.832   6.308   5.657
 3280TIP3    H2 9782   4.960   6.290   5.736
 3281TIP3   OH2 9783   3.822   1.450   0.885
 3281TIP3    H1 9784   3.778   1.521   0.931
 3281TIP3    H2 9785   3.770   1.373   0.903
 3282TIP3   OH2 9786   3.122   1.473   1.979
 3282TIP3    H1 9787   3.163   1.464   1.893
 3282TIP3    H2 9788   3.047   1.531   1.964
 3283TIP3   OH2 9789   0.902   7.784   6.674
 3283TIP3    H1 9790   0.961   7.782   6.599
 3283TIP3    H2 9791   0.871   7.874   6.679
 3284TIP3   OH2 9792   7.170   5.883   4.527
 3284TIP3    H1 9793   7.112   5.909   4.455
 3284TIP3    H2 9794   7.162   5.954   4.591
 3285TIP3   OH2 9795   4.458   6.941   0.772
 3285TIP3    H1 9796   4.415   7.018   0.735
 3285TIP3    H2 9797   4.457   6.956   0.867
 3286TIP3   OH2 9798   5.474   5.984   6.124
 3286TIP3    H1 9799   5.445   5.904   6.169
 3286TIP3    H2 9800   5.526   6.030   6.190
 3287TIP3   OH2 9801   8.062   1.631   5.016
 3287TIP3    H1 9802   8.121   1.557   5.005
 3287TIP3    H2 9803   7.981   1.604   4.973
 3288TIP3   OH2 9804   2.509   1.101   4.500
 3288TIP3    H1 9805   2.605   1.109   4.496
 3288TIP3    H2 9806   2.490   1.101   4.594
 3289TIP3   OH2 9807   5.251   4.314   6.825
 3289TIP3    H1 9808   5.305   4.242   6.858
 3289TIP3    H2 9809   5.190   4.273   6.764
 3290TIP3   OH2 9810   7.759   0.106   3.390
 3290TIP3    H1 9811   7.817   0.118   3.465
 3290TIP3    H2 9812   7.736   0.195   3.364
 3291TIP3   OH2 9813   7.474   6.087   2.245
 3291TIP3    H1 9814   7.487   6.142   2.322
 3291TIP3    H2 9815   7.555   6.095   2.195
 3292TIP3   OH2 9816   2.983   0.863   2.965
 3292TIP3    H1 9817   2.921   0.864   3.037
 3292TIP3    H2 9818   3.062   0.821   3.000
 3293TIP3   OH2 9819   8.060   6.073   6.141
 3293TIP3    H1 9820   7.966   6.065   6.120
 3293TIP3    H2 9821   8.095   6.130   6.073
 3294TIP3   OH2 9822   1.249   5.121   0.919
 3294TIP3    H1 9823   1.153   5.117   0.915
 3294TIP3    H2 9824   1.277   5.034   0.894
 3295TIP3   OH2 9825   3.875   6.610   4.342
 3295TIP3    H1 9826   3.898   6.517   4.347
 3295TIP3    H2 9827   3.798   6.619   4.398
 3296TIP3   OH2 9828   5.827   4.737   2.371
 3296TIP3    H1 9829   5.738   4.723   2.340
 3296TIP3    H2 9830   5.822   4.820   2.420
 3297TIP3   OH2 9831   2.384   5.511   0.976
 3297TIP3    H1 9832   2.366   5.535   0.885
 3297TIP3    H2 9833   2.455   5.570   1.003
 3298TIP3   OH2 9834   2.232   5.781   3.187
 3298TIP3    H1 9835   2.182   5.842   3.241
 3298TIP3    H2 9836   2.215   5.810   3.097
 3299TIP3   OH2 9837   5.795   5.061   6.485
 3299TIP3    H1 9838   5.863   5.086   6.423
 3299TIP3    H2 9839   5.714   5.096   6.447
 3300TIP3   OH2 9840   3.554   6.878   4.826
 3300TIP3    H1 9841   3.498   6.910   4.755
 3300TIP3    H2 9842   3.502   6.890   4.905
 3301TIP3   OH2 9843   6.741   1.981   0.531
 3301TIP3    H1 9844   6.694   1.975   0.614
 3301TIP3    H2 9845   6.791   2.062   0.538
 3302TIP3   OH2 9846   4.032   2.243   4.157
 3302TIP3    H1 9847   4.089   2.168   4.172
 3302TIP3    H2 9848   4.078   2.296   4.092
 3303TIP3   OH2 9849   3.934   6.455   5.563
 3303TIP3    H1 9850   3.892   6.523   5.616
 3303TIP3    H2 9851   3.862   6.414   5.515
 3304TIP3   OH2 9852   0.706   2.639   6.252
 3304TIP3    H1 9853   0.751   2.585   6.317
 3304TIP3    H2 9854   0.615   2.643   6.283
 3305TIP3   OH2 9855   2.611   2.768   3.174
 3305TIP3    H1 9856   2.586   2.678   3.154
 3305TIP3    H2 9857   2.603   2.814   3.091
 3306TIP3   OH2 9858   1.361   5.650   2.940
 3306TIP3    H1 9859   1.318   5.637   3.025
 3306TIP3    H2 9860   1.292   5.632   2.876
 3307TIP3   OH2 9861   7.275   4.164   0.908
 3307TIP3    H1 9862   7.289   4.230   0.977
 3307TIP3    H2 9863   7.303   4.082   0.948
 3308TIP3   OH2 9864   6.669   0.802   1.906
 3308TIP3    H1 9865   6.607   0.729   1.902
 3308TIP3    H2 9866   6.617   0.875   1.940
 3309TIP3   OH2 9867   2.351   5.290   2.615
 3309TIP3    H1 9868   2.347   5.254   2.704
 3309TIP3    H2 9869   2.319   5.379   2.624
 3310TIP3   OH2 9870   6.984   3.045   1.206
 3310TIP3    H1 9871   6.941   3.079   1.284
 3310TIP3    H2 9872   7.029   3.120   1.168
 3311TIP3   OH2 9873   6.725   1.376   5.111
 3311TIP3    H1 9874   6.792   1.365   5.178
 3311TIP3    H2 9875   6.657   1.429   5.154
 3312TIP3   OH2 9876   6.529   3.426   3.766
 3312TIP3    H1 9877   6.525   3.522   3.769
 3312TIP3    H2 9878   6.551   3.400   3.855
 3313TIP3   OH2 9879   6.730   2.042   1.418
 3313TIP3    H1 9880   6.785   2.068   1.492
 3313TIP3    H2 9881   6.693   1.958   1.444
 3314TIP3   OH2 9882   2.883   6.643   4.420
 3314TIP3    H1 9883   2.963   6.670   4.465
 3314TIP3    H2 9884   2.911   6.576   4.357
 3315TIP3   OH2 9885   0.580   6.999   2.804
 3315TIP3    H1 9886   0.551   7.081   2.765
 3315TIP3    H2 9887   0.545   7.002   2.893
 3316TIP3   OH2 9888   4.252   5.003   0.794
 3316TIP3    H1 9889   4.186   5.060   0.754
 3316TIP3    H2 9890   4.249   4.922   0.743
 3317TIP3   OH2 9891   2.713   3.127   5.245
 3317TIP3    H1 9892   2.690   3.217   5.220
 3317TIP3    H2 9893   2.690   3.121   5.338
 3318TIP3   OH2 9894   1.545   4.290   6.568
 3318TIP3    H1 9895   1.561   4.242   6.649
 3318TIP3    H2 9896   1.582   4.377   6.584
 3319TIP3   OH2 9897   4.829   2.904   3.914
 3319TIP3    H1 9898   4.892   2.847   3.870
 3319TIP3    H2 9899   4.779   2.945   3.843
 3320TIP3   OH2 9900   1.464   1.254   3.916
 3320TIP3    H1 9901   1.389   1.296   3.959
 3320TIP3    H2 9902   1.521   1.227   3.988
 3321TIP3   OH2 9903   8.385   2.720   6.140
 3321TIP3    H1 9904   8.378   2.804   6.095
 3321TIP3    H2 9905   8.298   2.706   6.177
 3322TIP3   OH2 9906   2.501   2.213   1.921
 3322TIP3    H1 9907   2.494   2.175   1.833
 3322TIP3    H2 9908   2.429   2.276   1.925
 3323TIP3   OH2 9909   5.925   5.778   6.501
 3323TIP3    H1 9910   5.999   5.830   6.532
 3323TIP3    H2 9911   5.962   5.692   6.484
 3324TIP3   OH2 9912   5.085   2.637   5.460
 3324TIP3    H1 9913   5.125   2.581   5.526
 3324TIP3    H2 9914   5.121   2.605   5.377
 3325TIP3   OH2 9915   8.250   1.182   3.725
 3325TIP3    H1 9916   8.302   1.257   3.696
 3325TIP3    H2 9917   8.165   1.220   3.748
 3326TIP3   OH2 9918   0.662   5.835   2.329
 3326TIP3    H1 9919   0.731   5.798   2.384
 3326TIP3    H2 9920   0.660   5.779   2.252
 3327TIP3   OH2 9921   7.392   2.356   4.216
 3327TIP3    H1 9922   7.426   2.300   4.146
 3327TIP3    H2 9923   7.469   2.383   4.265
 3328TIP3   OH2 9924   2.379   3.781   5.454
 3328TIP3    H1 9925   2.342   3.698   5.424
 3328TIP3    H2 9926   2.303   3.830   5.487
 3329TIP3   OH2 9927   5.942   3.921   4.951
 3329TIP3    H1 9928   5.938   3.848   5.013
 3329TIP3    H2 9929   5.856   3.961   4.955
 3330TIP3   OH2 9930   0.323   0.758   6.484
 3330TIP3    H1 9931   0.412   0.794   6.489
 3330TIP3    H2 9932   0.333   0.666   6.507
 3331TIP3   OH2 9933   7.260   7.750   0.049
 3331TIP3    H1 9934   7.320   7.695  -0.002
 3331TIP3    H2 9935   7.193   7.689   0.080
 3332TIP3   OH2 9936   8.344   1.523   3.005
 3332TIP3    H1 9937   8.372   1.433   2.988
 3332TIP3    H2 9938   8.426   1.572   3.013
 3333TIP3   OH2 9939   5.172   6.025   6.365
 3333TIP3    H1 9940   5.206   5.968   6.434
 3333TIP3    H2 9941   5.124   5.966   6.308
 3334TIP3   OH2 9942   3.880   0.968   2.244
 3334TIP3    H1 9943   3.912   1.004   2.327
 3334TIP3    H2 9944   3.794   0.933   2.264
 3335TIP3   OH2 9945   0.994   2.193   3.036
 3335TIP3    H1 9946   1.083   2.158   3.028
 3335TIP3    H2 9947   0.962   2.197   2.945
 3336TIP3   OH2 9948   0.100   6.957   1.807
 3336TIP3    H1 9949   0.127   6.867   1.821
 3336TIP3    H2 9950   0.173   6.998   1.761
 3337TIP3   OH2 9951   3.580   4.971   5.407
 3337TIP3    H1 9952   3.554   4.921   5.330
 3337TIP3    H2 9953   3.676   4.967   5.407
 3338TIP3   OH2 9954   4.284   2.911   3.372
 3338TIP3    H1 9955   4.273   3.005   3.356
 3338TIP3    H2 9956   4.375   2.903   3.400
 3339TIP3   OH2 9957   0.332   0.439   3.146
 3339TIP3    H1 9958   0.275   0.467   3.217
 3339TIP3    H2 9959   0.273   0.426   3.072
 3340TIP3   OH2 9960   3.798   5.109   3.953
 3340TIP3    H1 9961   3.744   5.186   3.964
 3340TIP3    H2 9962   3.859   5.131   3.883
 3341TIP3   OH2 9963   3.102   4.466   5.624
 3341TIP3    H1 9964   3.079   4.373   5.628
 3341TIP3    H2 9965   3.091   4.490   5.532
 3342TIP3   OH2 9966   5.379   5.640   3.328
 3342TIP3    H1 9967   5.336   5.685   3.401
 3342TIP3    H2 9968   5.469   5.628   3.357
 3343TIP3   OH2 9969   3.196   7.557   6.057
 3343TIP3    H1 9970   3.145   7.500   5.999
 3343TIP3    H2 9971   3.152   7.642   6.053
 3344TIP3   OH2 9972   7.644   5.011   4.815
 3344TIP3    H1 9973   7.574   5.037   4.755
 3344TIP3    H2 9974   7.598   4.987   4.896
 3345TIP3   OH2 9975   0.628   1.644   5.345
 3345TIP3    H1 9976   0.678   1.586   5.402
 3345TIP3    H2 9977   0.541   1.646   5.385
 3346TIP3   OH2 9978   1.697   6.805   3.423
 3346TIP3    H1 9979   1.744   6.887   3.437
 3346TIP3    H2 9980   1.760   6.748   3.380
 3347TIP3   OH2 9981   7.889   5.148   5.063
 3347TIP3    H1 9982   7.923   5.088   4.997
 3347TIP3    H2 9983   7.961   5.209   5.080
 3348TIP3   OH2 9984   6.887   0.045   5.720
 3348TIP3    H1 9985   6.912  -0.036   5.765
 3348TIP3    H2 9986   6.938   0.044   5.639
 3349TIP3   OH2 9987   1.756   2.522   0.266
 3349TIP3    H1 9988   1.719   2.599   0.222
 3349TIP3    H2 9989   1.721   2.448   0.218
 3350TIP3   OH2 9990   5.176   0.578   5.065
 3350TIP3    H1 9991   5.198   0.566   5.158
 3350TIP3    H2 9992   5.146   0.492   5.036
 3351TIP3   OH2 9993   2.241   3.139   3.472
 3351TIP3    H1 9994   2.199   3.091   3.543
 3351TIP3    H2 9995   2.177   3.204   3.444
 3352TIP3   OH2 9996   1.237   4.252   0.163
 3352TIP3    H1 9997   1.252   4.168   0.119
 3352TIP3    H2 9998   1.222   4.314   0.092
 3353TIP3   OH2 9999   6.376   6.136   6.596
 3353TIP3    H110000   6.383   6.137   6.692
 3353TIP3    H210001   6.315   6.207   6.576
 3354TIP3   OH210002   0.044   4.559   0.490
 3354TIP3    H110003  -0.029   4.517   0.537
 3354TIP3    H210004   0.113   4.493   0.489
 3355TIP3   OH210005   1.102   5.257   4.126
 3355TIP3    H110006   1.078   5.270   4.218
 3355TIP3    H210007   1.109   5.346   4.090
 3356TIP3   OH210008   3.423   5.612   1.240
 3356TIP3    H110009   3.488   5.551   1.275
 3356TIP3    H210010   3.435   5.609   1.145
 3357TIP3   OH210011   6.377   0.429   1.083
 3357TIP3    H110012   6.419   0.363   1.028
 3357TIP3    H210013   6.442   0.500   1.090
 3358TIP3   OH210014   0.552   1.082   6.724
 3358TIP3    H110015   0.568   0.994   6.691
 3358TIP3    H210016   0.460   1.099   6.705
 3359TIP3   OH210017   6.519   1.277   5.825
 3359TIP3    H110018   6.593   1.242   5.875
 3359TIP3    H210019   6.493   1.206   5.767
 3360TIP3   OH210020   6.320   4.021   4.543
 3360TIP3    H110021   6.296   4.078   4.616
 3360TIP3    H210022   6.330   4.081   4.469
 3361TIP3   OH210023   3.227   7.423   1.314
 3361TIP3    H110024   3.142   7.381   1.297
 3361TIP3    H210025   3.205   7.504   1.358
 3362TIP3   OH210026   1.280   7.199   5.593
 3362TIP3    H110027   1.312   7.211   5.682
 3362TIP3    H210028   1.325   7.267   5.542
 3363TIP3   OH210029   1.725   1.238   2.312
 3363TIP3    H110030   1.674   1.247   2.231
 3363TIP3    H210031   1.671   1.182   2.368
 3364TIP3   OH210032   0.515   3.155   0.769
 3364TIP3    H110033   0.420   3.165   0.758
 3364TIP3    H210034   0.548   3.147   0.679
 3365TIP3   OH210035   0.415   0.714   3.905
 3365TIP3    H110036   0.494   0.698   3.854
 3365TIP3    H210037   0.444   0.761   3.982
 3366TIP3   OH210038   6.618   2.789   2.379
 3366TIP3    H110039   6.553   2.728   2.342
 3366TIP3    H210040   6.667   2.820   2.302
 3367TIP3   OH210041   0.046   2.527   3.161
 3367TIP3    H110042   0.083   2.614   3.142
 3367TIP3    H210043  -0.048   2.538   3.149
 3368TIP3   OH210044   2.291   6.050   5.176
 3368TIP3    H110045   2.230   6.115   5.142
 3368TIP3    H210046   2.327   6.090   5.255
 3369TIP3   OH210047   4.749   0.828   3.211
 3369TIP3    H110048   4.688   0.900   3.227
 3369TIP3    H210049   4.804   0.859   3.138
 3370TIP3   OH210050   0.089   5.124   6.664
 3370TIP3    H110051   0.028   5.052   6.652
 3370TIP3    H210052   0.155   5.112   6.595
 3371TIP3   OH210053   5.320   6.077   5.349
 3371TIP3    H110054   5.303   6.030   5.268
 3371TIP3    H210055   5.407   6.115   5.337
 3372TIP3   OH210056   1.421   0.854   1.805
 3372TIP3    H110057   1.460   0.785   1.859
 3372TIP3    H210058   1.485   0.871   1.737
 3373TIP3   OH210059   3.792   1.970   5.496
 3373TIP3    H110060   3.848   2.046   5.480
 3373TIP3    H210061   3.795   1.921   5.413
 3374TIP3   OH210062   3.453   0.125   0.769
 3374TIP3    H110063   3.368   0.127   0.812
 3374TIP3    H210064   3.503   0.060   0.818
 3375TIP3   OH210065   6.010   6.560   6.580
 3375TIP3    H110066   5.954   6.526   6.511
 3375TIP3    H210067   6.089   6.589   6.535
 3376TIP3   OH210068   3.618   7.337   5.953
 3376TIP3    H110069   3.593   7.404   6.016
 3376TIP3    H210070   3.679   7.382   5.894
 3377TIP3   OH210071   0.745   3.450   4.944
 3377TIP3    H110072   0.798   3.472   5.021
 3377TIP3    H210073   0.690   3.527   4.931
 3378TIP3   OH210074   6.686   5.530   2.618
 3378TIP3    H110075   6.701   5.625   2.610
 3378TIP3    H210076   6.699   5.496   2.530
 3379TIP3   OH210077   0.974   1.077   1.123
 3379TIP3    H110078   0.984   1.012   1.192
 3379TIP3    H210079   1.045   1.057   1.062
 3380TIP3   OH210080   4.097   0.381   6.760
 3380TIP3    H110081   4.169   0.417   6.707
 3380TIP3    H210082   4.037   0.454   6.772
 3381TIP3   OH210083   0.962   2.557   2.503
 3381TIP3    H110084   0.968   2.593   2.415
 3381TIP3    H210085   0.894   2.490   2.497
 3382TIP3   OH210086   5.070   7.770   4.918
 3382TIP3    H110087   5.035   7.761   4.830
 3382TIP3    H210088   5.010   7.718   4.973
 3383TIP3   OH210089   7.043   7.028   6.852
 3383TIP3    H110090   7.064   6.942   6.813
 3383TIP3    H210091   6.964   7.012   6.903
 3384TIP3   OH210092   0.812   5.619   5.084
 3384TIP3    H110093   0.842   5.706   5.057
 3384TIP3    H210094   0.808   5.623   5.180
 3385TIP3   OH210095   6.747   7.682   2.924
 3385TIP3    H110096   6.687   7.648   2.858
 3385TIP3    H210097   6.713   7.769   2.945
 3386TIP3   OH210098   5.320   1.945   1.473
 3386TIP3    H110099   5.229   1.973   1.483
 3386TIP3    H210100   5.326   1.918   1.381
 3387TIP3   OH210101   5.959   4.889   3.065
 3387TIP3    H110102   6.031   4.938   3.027
 3387TIP3    H210103   5.881   4.942   3.048
 3388TIP3   OH210104   5.418   4.716   1.759
 3388TIP3    H110105   5.474   4.793   1.770
 3388TIP3    H210106   5.330   4.753   1.750
 3389TIP3   OH210107   4.454   3.188   2.147
 3389TIP3    H110108   4.533   3.183   2.200
 3389TIP3    H210109   4.383   3.173   2.208
 3390TIP3   OH210110   5.154   7.641   5.812
 3390TIP3    H110111   5.115   7.557   5.836
 3390TIP3    H210112   5.231   7.648   5.869
 3391TIP3   OH210113   0.938   5.169   6.129
 3391TIP3    H110114   1.032   5.150   6.121
 3391TIP3    H210115   0.897   5.118   6.060
 3392TIP3   OH210116   1.725   4.663   1.001
 3392TIP3    H110117   1.698   4.704   0.919
 3392TIP3    H210118   1.686   4.718   1.069
 3393TIP3   OH210119   7.429   1.696   4.830
 3393TIP3    H110120   7.425   1.754   4.754
 3393TIP3    H210121   7.500   1.731   4.884
 3394TIP3   OH210122   2.127   2.319   2.970
 3394TIP3    H110123   2.156   2.229   2.954
 3394TIP3    H210124   2.135   2.362   2.885
 3395TIP3   OH210125   0.374   3.869   3.181
 3395TIP3    H110126   0.313   3.942   3.178
 3395TIP3    H210127   0.435   3.885   3.109
 3396TIP3   OH210128   1.255   2.381   2.935
 3396TIP3    H110129   1.234   2.378   2.842
 3396TIP3    H210130   1.267   2.289   2.960
 3397TIP3   OH210131   2.772   4.127   4.395
 3397TIP3    H110132   2.766   4.217   4.428
 3397TIP3    H210133   2.683   4.108   4.364
 3398TIP3   OH210134   7.164   7.553   0.386
 3398TIP3    H110135   7.153   7.540   0.291
 3398TIP3    H210136   7.236   7.495   0.410
 3399TIP3   OH210137   3.772   4.589   2.619
 3399TIP3    H110138   3.829   4.530   2.667
 3399TIP3    H210139   3.761   4.548   2.533
 3400TIP3   OH210140   5.837   1.411   3.111
 3400TIP3    H110141   5.768   1.470   3.139
 3400TIP3    H210142   5.875   1.454   3.034
 3401TIP3   OH210143   8.179   1.426   5.450
 3401TIP3    H110144   8.093   1.385   5.453
 3401TIP3    H210145   8.169   1.499   5.389
 3402TIP3   OH210146   4.130   7.469   6.577
 3402TIP3    H110147   4.217   7.508   6.566
 3402TIP3    H210148   4.132   7.432   6.665
 3403TIP3   OH210149   1.387   6.490   2.471
 3403TIP3    H110150   1.477   6.487   2.501
 3403TIP3    H210151   1.346   6.411   2.508
 3404TIP3   OH210152   3.280   0.502   5.164
 3404TIP3    H110153   3.256   0.494   5.257
 3404TIP3    H210154   3.371   0.473   5.160
 3405TIP3   OH210155   7.712   6.784   3.207
 3405TIP3    H110156   7.650   6.856   3.197
 3405TIP3    H210157   7.661   6.714   3.248
 3406TIP3   OH210158   1.890   4.436   1.425
 3406TIP3    H110159   1.929   4.423   1.339
 3406TIP3    H210160   1.939   4.508   1.464
 3407TIP3   OH210161   1.199   2.698   3.510
 3407TIP3    H110162   1.254   2.656   3.444
 3407TIP3    H210163   1.110   2.694   3.474
 3408TIP3   OH210164   7.604   2.695   1.685
 3408TIP3    H110165   7.547   2.679   1.610
 3408TIP3    H210166   7.690   2.713   1.647
 3409TIP3   OH210167   6.034   3.310   5.414
 3409TIP3    H110168   6.005   3.220   5.402
 3409TIP3    H210169   6.069   3.336   5.329
 3410TIP3   OH210170   3.571   5.141   1.130
 3410TIP3    H110171   3.653   5.174   1.166
 3410TIP3    H210172   3.536   5.215   1.079
 3411TIP3   OH210173   6.216   2.753   1.852
 3411TIP3    H110174   6.295   2.793   1.888
 3411TIP3    H210175   6.228   2.756   1.757
 3412TIP3   OH210176   2.717   2.215   5.957
 3412TIP3    H110177   2.690   2.248   6.043
 3412TIP3    H210178   2.812   2.226   5.957
 3413TIP3   OH210179   5.176   2.527   5.229
 3413TIP3    H110180   5.171   2.433   5.245
 3413TIP3    H210181   5.102   2.545   5.171
 3414TIP3   OH210182   3.470   7.119   3.323
 3414TIP3    H110183   3.456   7.212   3.307
 3414TIP3    H210184   3.459   7.078   3.237
 3415TIP3   OH210185   4.109   3.220   0.569
 3415TIP3    H110186   4.088   3.197   0.659
 3415TIP3    H210187   4.040   3.280   0.542
 3416TIP3   OH210188   7.571   3.927   0.699
 3416TIP3    H110189   7.522   3.865   0.645
 3416TIP3    H210190   7.574   3.886   0.785
 3417TIP3   OH210191   4.200   3.545   6.713
 3417TIP3    H110192   4.279   3.551   6.658
 3417TIP3    H210193   4.165   3.458   6.693
 3418TIP3   OH210194   7.579   2.182   1.481
 3418TIP3    H110195   7.632   2.109   1.512
 3418TIP3    H210196   7.490   2.149   1.482
 3419TIP3   OH210197   7.643   6.174   4.136
 3419TIP3    H110198   7.559   6.214   4.113
 3419TIP3    H210199   7.621   6.099   4.190
 3420TIP3   OH210200   1.987   0.713   1.924
 3420TIP3    H110201   1.976   0.732   2.017
 3420TIP3    H210202   1.950   0.625   1.913
 3421TIP3   OH210203   2.935   6.115   2.850
 3421TIP3    H110204   3.000   6.150   2.789
 3421TIP3    H210205   2.909   6.192   2.902
 3422TIP3   OH210206   5.659   4.333   6.224
 3422TIP3    H110207   5.730   4.276   6.195
 3422TIP3    H210208   5.632   4.297   6.308
 3423TIP3   OH210209   7.834   3.868   3.888
 3423TIP3    H110210   7.900   3.842   3.953
 3423TIP3    H210211   7.784   3.937   3.931
 3424TIP3   OH210212   5.583   0.971   0.704
 3424TIP3    H110213   5.497   0.932   0.688
 3424TIP3    H210214   5.636   0.899   0.736
 3425TIP3   OH210215   7.726   3.935   2.123
 3425TIP3    H110216   7.714   3.949   2.217
 3425TIP3    H210217   7.814   3.898   2.115
 3426TIP3   OH210218   0.386   1.307   3.503
 3426TIP3    H110219   0.329   1.312   3.580
 3426TIP3    H210220   0.403   1.214   3.492
 3427TIP3   OH210221   0.796   3.321   3.856
 3427TIP3    H110222   0.828   3.373   3.783
 3427TIP3    H210223   0.822   3.231   3.836
 3428TIP3   OH210224   2.081   5.530   0.449
 3428TIP3    H110225   2.070   5.435   0.444
 3428TIP3    H210226   2.005   5.561   0.498
 3429TIP3   OH210227   5.190   3.723   6.089
 3429TIP3    H110228   5.222   3.804   6.050
 3429TIP3    H210229   5.174   3.744   6.181
 3430TIP3   OH210230   5.978   1.995   0.978
 3430TIP3    H110231   5.925   1.973   0.901
 3430TIP3    H210232   6.024   1.914   0.999
 3431TIP3   OH210233   3.306   3.477   5.625
 3431TIP3    H110234   3.219   3.480   5.585
 3431TIP3    H210235   3.305   3.548   5.689
 3432TIP3   OH210236   6.229   3.460   0.739
 3432TIP3    H110237   6.134   3.468   0.736
 3432TIP3    H210238   6.246   3.395   0.808
 3433TIP3   OH210239   5.635   5.279   3.420
 3433TIP3    H110240   5.555   5.320   3.452
 3433TIP3    H210241   5.632   5.190   3.456
 3434TIP3   OH210242   7.373   7.004   1.562
 3434TIP3    H110243   7.374   7.099   1.560
 3434TIP3    H210244   7.399   6.977   1.474
 3435TIP3   OH210245   6.089   3.487   6.853
 3435TIP3    H110246   6.129   3.550   6.793
 3435TIP3    H210247   6.151   3.481   6.926
 3436TIP3   OH210248   4.753   5.631   6.810
 3436TIP3    H110249   4.666   5.670   6.820
 3436TIP3    H210250   4.792   5.678   6.736
 3437TIP3   OH210251   2.637   7.108   4.342
 3437TIP3    H110252   2.634   7.201   4.365
 3437TIP3    H210253   2.672   7.106   4.253
 3438TIP3   OH210254   6.386   4.452   1.084
 3438TIP3    H110255   6.441   4.526   1.112
 3438TIP3    H210256   6.306   4.493   1.051
 3439TIP3   OH210257   3.002   3.080   3.800
 3439TIP3    H110258   2.975   3.024   3.727
 3439TIP3    H210259   3.091   3.106   3.779
 3440TIP3   OH210260   3.145   6.232   6.267
 3440TIP3    H110261   3.168   6.324   6.279
 3440TIP3    H210262   3.156   6.192   6.353
 3441TIP3   OH210263   6.203   3.504   5.508
 3441TIP3    H110264   6.137   3.436   5.519
 3441TIP3    H210265   6.285   3.457   5.498
 3442TIP3   OH210266   7.590   5.875   1.059
 3442TIP3    H110267   7.506   5.919   1.069
 3442TIP3    H210268   7.569   5.782   1.063
 3443TIP3   OH210269   1.175   0.775   3.139
 3443TIP3    H110270   1.101   0.759   3.081
 3443TIP3    H210271   1.237   0.706   3.119
 3444TIP3   OH210272   4.211   7.835   4.131
 3444TIP3    H110273   4.301   7.808   4.151
 3444TIP3    H210274   4.215   7.866   4.040
 3445TIP3   OH210275   8.169   0.971   5.992
 3445TIP3    H110276   8.111   0.955   5.918
 3445TIP3    H210277   8.111   0.998   6.063
 3446TIP3   OH210278   5.898   4.514   0.884
 3446TIP3    H110279   5.940   4.446   0.833
 3446TIP3    H210280   5.836   4.556   0.824
 3447TIP3   OH210281   5.393   3.422   4.416
 3447TIP3    H110282   5.443   3.341   4.408
 3447TIP3    H210283   5.414   3.472   4.337
 3448TIP3   OH210284   1.608   6.401   1.936
 3448TIP3    H110285   1.649   6.437   1.857
 3448TIP3    H210286   1.515   6.394   1.914
 3449TIP3   OH210287   0.608   1.012   3.018
 3449TIP3    H110288   0.609   1.075   2.946
 3449TIP3    H210289   0.599   1.065   3.097
 3450TIP3   OH210290   5.986   7.078   6.015
 3450TIP3    H110291   5.943   7.024   5.950
 3450TIP3    H210292   5.947   7.051   6.099
 3451TIP3   OH210293   7.185   7.265   6.792
 3451TIP3    H110294   7.271   7.223   6.789
 3451TIP3    H210295   7.123   7.194   6.807
 3452TIP3   OH210296   4.351   1.664   4.841
 3452TIP3    H110297   4.402   1.642   4.763
 3452TIP3    H210298   4.406   1.635   4.914
 3453TIP3   OH210299   2.689   6.867   4.472
 3453TIP3    H110300   2.758   6.827   4.419
 3453TIP3    H210301   2.650   6.933   4.414
 3454TIP3   OH210302   5.623   7.726   3.684
 3454TIP3    H110303   5.643   7.716   3.777
 3454TIP3    H210304   5.564   7.802   3.680
 3455TIP3   OH210305   8.093   2.892   2.326
 3455TIP3    H110306   8.117   2.976   2.366
 3455TIP3    H210307   8.005   2.875   2.358
 3456TIP3   OH210308   0.498   7.454   2.784
 3456TIP3    H110309   0.548   7.525   2.824
 3456TIP3    H210310   0.561   7.408   2.729
 3457TIP3   OH210311   2.261   4.231   3.470
 3457TIP3    H110312   2.272   4.287   3.393
 3457TIP3    H210313   2.271   4.291   3.545
 3458TIP3   OH210314   5.265   2.498   0.450
 3458TIP3    H110315   5.229   2.475   0.537
 3458TIP3    H210316   5.247   2.421   0.397
 3459TIP3   OH210317   6.475   4.140   6.816
 3459TIP3    H110318   6.527   4.119   6.893
 3459TIP3    H210319   6.417   4.065   6.806
 3460TIP3   OH210320   1.536   1.119   2.131
 3460TIP3    H110321   1.590   1.077   2.064
 3460TIP3    H210322   1.452   1.074   2.125
 3461TIP3   OH210323   5.128   4.171   1.760
 3461TIP3    H110324   5.100   4.134   1.844
 3461TIP3    H210325   5.211   4.216   1.779
 3462TIP3   OH210326   1.258   1.343   2.462
 3462TIP3    H110327   1.316   1.372   2.532
 3462TIP3    H210328   1.180   1.398   2.471
 3463TIP3   OH210329   3.694   3.173   4.496
 3463TIP3    H110330   3.751   3.114   4.545
 3463TIP3    H210331   3.646   3.116   4.435
 3464TIP3   OH210332   7.068   7.444   2.383
 3464TIP3    H110333   7.098   7.505   2.451
 3464TIP3    H210334   7.138   7.379   2.377
 3465TIP3   OH210335   6.373   6.554   4.278
 3465TIP3    H110336   6.421   6.494   4.336
 3465TIP3    H210337   6.336   6.497   4.211
 3466TIP3   OH210338   1.196   1.016   0.947
 3466TIP3    H110339   1.240   0.940   0.987
 3466TIP3    H210340   1.246   1.033   0.867
 3467TIP3   OH210341   6.307   3.916   0.584
 3467TIP3    H110342   6.319   3.842   0.526
 3467TIP3    H210343   6.394   3.933   0.621
 3468TIP3   OH210344   4.913   1.883   4.233
 3468TIP3    H110345   4.885   1.972   4.209
 3468TIP3    H210346   4.898   1.831   4.154
 3469TIP3   OH210347   3.526   0.132   3.289
 3469TIP3    H110348   3.462   0.157   3.224
 3469TIP3    H210349   3.544   0.212   3.338
 3470TIP3   OH210350   6.696   7.322   1.397
 3470TIP3    H110351   6.623   7.358   1.448
 3470TIP3    H210352   6.656   7.297   1.313
 3471TIP3   OH210353   1.479   4.990   6.563
 3471TIP3    H110354   1.404   4.933   6.581
 3471TIP3    H210355   1.476   5.002   6.468
 3472TIP3   OH210356   4.611   4.191   5.373
 3472TIP3    H110357   4.647   4.192   5.285
 3472TIP3    H210358   4.680   4.228   5.428
 3473TIP3   OH210359   2.442   1.494   1.374
 3473TIP3    H110360   2.537   1.492   1.390
 3473TIP3    H210361   2.433   1.543   1.292
 3474TIP3   OH210362   4.952   1.453   4.207
 3474TIP3    H110363   4.860   1.479   4.216
 3474TIP3    H210364   4.964   1.385   4.272
 3475TIP3   OH210365   5.889   6.037   6.790
 3475TIP3    H110366   5.949   6.033   6.715
 3475TIP3    H210367   5.885   5.947   6.823
 3476TIP3   OH210368   4.925   4.206   3.025
 3476TIP3    H110369   4.914   4.168   3.112
 3476TIP3    H210370   4.973   4.139   2.976
 3477TIP3   OH210371   6.296   4.724   5.175
 3477TIP3    H110372   6.215   4.728   5.125
 3477TIP3    H210373   6.313   4.815   5.200
 3478TIP3   OH210374   0.118   4.129   3.960
 3478TIP3    H110375   0.118   4.150   3.867
 3478TIP3    H210376   0.055   4.058   3.969
 3479TIP3   OH210377   0.979   7.872   1.719
 3479TIP3    H110378   0.903   7.923   1.746
 3479TIP3    H210379   0.987   7.888   1.625
 3480TIP3   OH210380   7.970   3.129   4.132
 3480TIP3    H110381   8.064   3.112   4.132
 3480TIP3    H210382   7.962   3.220   4.102
 3481TIP3   OH210383   7.153   0.700   6.561
 3481TIP3    H110384   7.085   0.674   6.499
 3481TIP3    H210385   7.150   0.634   6.630
 3482TIP3   OH210386   8.311   6.874   1.640
 3482TIP3    H110387   8.270   6.843   1.720
 3482TIP3    H210388   8.393   6.914   1.668
 3483TIP3   OH210389   2.220   2.613   0.413
 3483TIP3    H110390   2.221   2.518   0.418
 3483TIP3    H210391   2.261   2.633   0.329
 3484TIP3   OH210392   3.365   7.797   1.792
 3484TIP3    H110393   3.449   7.842   1.785
 3484TIP3    H210394   3.375   7.718   1.739
 3485TIP3   OH210395   5.759   5.848   0.754
 3485TIP3    H110396   5.819   5.774   0.765
 3485TIP3    H210397   5.797   5.899   0.682
 3486TIP3   OH210398   6.678   4.735   1.600
 3486TIP3    H110399   6.656   4.657   1.550
 3486TIP3    H210400   6.704   4.800   1.535
 3487TIP3   OH210401   4.785   3.621   3.386
 3487TIP3    H110402   4.810   3.579   3.468
 3487TIP3    H210403   4.696   3.653   3.402
 3488TIP3   OH210404   8.120   3.312   0.318
 3488TIP3    H110405   8.139   3.279   0.230
 3488TIP3    H210406   8.066   3.244   0.357
 3489TIP3   OH210407   7.571   3.691   3.324
 3489TIP3    H110408   7.557   3.763   3.263
 3489TIP3    H210409   7.485   3.651   3.334
 3490TIP3   OH210410   3.901   5.040   4.682
 3490TIP3    H110411   3.857   4.974   4.736
 3490TIP3    H210412   3.916   5.114   4.742
 3491TIP3   OH210413   7.705   1.133   2.050
 3491TIP3    H110414   7.718   1.047   2.089
 3491TIP3    H210415   7.619   1.161   2.082
 3492TIP3   OH210416   1.405   5.793   0.107
 3492TIP3    H110417   1.337   5.747   0.157
 3492TIP3    H210418   1.442   5.856   0.169
 3493TIP3   OH210419   6.821   6.783   2.742
 3493TIP3    H110420   6.828   6.840   2.666
 3493TIP3    H210421   6.843   6.839   2.816
 3494TIP3   OH210422   4.667   0.265   3.111
 3494TIP3    H110423   4.631   0.184   3.145
 3494TIP3    H210424   4.704   0.309   3.187
 3495TIP3   OH210425   3.904   4.539   3.438
 3495TIP3    H110426   3.989   4.583   3.440
 3495TIP3    H210427   3.899   4.502   3.350
 3496TIP3   OH210428   5.861   2.963   2.487
 3496TIP3    H110429   5.812   2.893   2.444
 3496TIP3    H210430   5.950   2.954   2.455
 3497TIP3   OH210431   5.371   3.875   0.372
 3497TIP3    H110432   5.455   3.840   0.339
 3497TIP3    H210433   5.320   3.797   0.394
 3498TIP3   OH210434   1.831   0.615   5.547
 3498TIP3    H110435   1.745   0.629   5.587
 3498TIP3    H210436   1.882   0.572   5.615
 3499TIP3   OH210437   4.375   6.702   5.883
 3499TIP3    H110438   4.359   6.682   5.975
 3499TIP3    H210439   4.332   6.631   5.835
 3500TIP3   OH210440   5.610   7.572   4.864
 3500TIP3    H110441   5.605   7.668   4.864
 3500TIP3    H210442   5.523   7.544   4.836
 3501TIP3   OH210443   1.361   3.264   5.792
 3501TIP3    H110444   1.269   3.246   5.770
 3501TIP3    H210445   1.395   3.180   5.824
 3502TIP3   OH210446   7.512   3.107   3.724
 3502TIP3    H110447   7.450   3.055   3.674
 3502TIP3    H210448   7.460   3.145   3.795
 3503TIP3   OH210449   4.577   6.838   4.744
 3503TIP3    H110450   4.505   6.827   4.682
 3503TIP3    H210451   4.651   6.867   4.690
 3504TIP3   OH210452   4.939   0.053   1.720
 3504TIP3    H110453   4.904   0.057   1.809
 3504TIP3    H210454   4.917   0.138   1.682
 3505TIP3   OH210455   1.408   4.900   4.903
 3505TIP3    H110456   1.447   4.927   4.986
 3505TIP3    H210457   1.362   4.978   4.872
 3506TIP3   OH210458   4.928   3.830   5.919
 3506TIP3    H110459   5.018   3.856   5.895
 3506TIP3    H210460   4.917   3.744   5.879
 3507TIP3   OH210461   1.783   0.252   2.048
 3507TIP3    H110462   1.860   0.221   2.095
 3507TIP3    H210463   1.714   0.189   2.069
 3508TIP3   OH210464   0.186   3.992   1.544
 3508TIP3    H110465   0.164   3.905   1.511
 3508TIP3    H210466   0.259   4.021   1.490
 3509TIP3   OH210467   5.586   5.546   0.754
 3509TIP3    H110468   5.523   5.515   0.819
 3509TIP3    H210469   5.661   5.575   0.806
 3510TIP3   OH210470   7.398   0.807   4.887
 3510TIP3    H110471   7.476   0.831   4.837
 3510TIP3    H210472   7.385   0.882   4.946
 3511TIP3   OH210473   6.590   6.820   5.887
 3511TIP3    H110474   6.514   6.852   5.935
 3511TIP3    H210475   6.655   6.801   5.954
 3512TIP3   OH210476   6.031   2.322   1.518
 3512TIP3    H110477   6.011   2.386   1.587
 3512TIP3    H210478   6.052   2.242   1.566
 3513TIP3   OH210479   8.024   3.505   0.071
 3513TIP3    H110480   7.963   3.535   0.003
 3513TIP3    H210481   7.986   3.422   0.101
 3514TIP3   OH210482   1.411   7.189   0.056
 3514TIP3    H110483   1.475   7.168  -0.011
 3514TIP3    H210484   1.440   7.273   0.091
 3515TIP3   OH210485   2.021   2.308   4.183
 3515TIP3    H110486   1.990   2.386   4.138
 3515TIP3    H210487   2.113   2.301   4.158
 3516TIP3   OH210488   6.512   6.678   6.341
 3516TIP3    H110489   6.504   6.771   6.317
 3516TIP3    H210490   6.605   6.666   6.360
 3517TIP3   OH210491   7.130   5.686   0.433
 3517TIP3    H110492   7.050   5.634   0.426
 3517TIP3    H210493   7.102   5.770   0.469
 3518TIP3   OH210494   8.155   1.726   1.188
 3518TIP3    H110495   8.167   1.771   1.104
 3518TIP3    H210496   8.139   1.635   1.165
 3519TIP3   OH210497   5.343   5.802   2.897
 3519TIP3    H110498   5.283   5.781   2.825
 3519TIP3    H210499   5.303   5.877   2.940
 3520TIP3   OH210500   5.181   5.421   0.598
 3520TIP3    H110501   5.154   5.330   0.595
 3520TIP3    H210502   5.100   5.471   0.589
 3521TIP3   OH210503   1.975   1.816   6.793
 3521TIP3    H110504   1.882   1.836   6.784
 3521TIP3    H210505   2.017   1.901   6.801
 3522TIP3   OH210506   7.214   6.001   1.467
 3522TIP3    H110507   7.252   6.029   1.550
 3522TIP3    H210508   7.277   5.939   1.432
 3523TIP3   OH210509   7.046   4.965   1.533
 3523TIP3    H110510   6.957   4.938   1.512
 3523TIP3    H210511   7.036   5.055   1.566
 3524TIP3   OH210512   4.596   0.845   0.024
 3524TIP3    H110513   4.664   0.810   0.081
 3524TIP3    H210514   4.641   0.911  -0.029
 3525TIP3   OH210515   2.225   6.933   1.846
 3525TIP3    H110516   2.206   6.846   1.882
 3525TIP3    H210517   2.262   6.982   1.919
 3526TIP3   OH210518   0.083   0.290   0.222
 3526TIP3    H110519  -0.012   0.279   0.216
 3526TIP3    H210520   0.100   0.304   0.315
 3527TIP3   OH210521   2.088   6.298   3.729
 3527TIP3    H110522   2.147   6.326   3.658
 3527TIP3    H210523   2.130   6.330   3.809
 3528TIP3   OH210524   2.260   5.380   6.340
 3528TIP3    H110525   2.227   5.341   6.421
 3528TIP3    H210526   2.346   5.341   6.327
 3529TIP3   OH210527   2.155   5.453   6.849
 3529TIP3    H110528   2.180   5.532   6.801
 3529TIP3    H210529   2.105   5.485   6.924
 3530TIP3   OH210530   6.390   5.547   5.353
 3530TIP3    H110531   6.341   5.584   5.279
 3530TIP3    H210532   6.471   5.515   5.314
 3531TIP3   OH210533   3.082   6.591   3.796
 3531TIP3    H110534   3.126   6.661   3.845
 3531TIP3    H210535   2.989   6.607   3.810
 3532TIP3   OH210536   6.049   5.947   6.259
 3532TIP3    H110537   6.030   5.899   6.179
 3532TIP3    H210538   5.987   5.912   6.323
 3533TIP3   OH210539   8.390   4.081   5.353
 3533TIP3    H110540   8.304   4.039   5.350
 3533TIP3    H210541   8.396   4.128   5.270
 3534TIP3   OH210542   4.907   1.325   5.156
 3534TIP3    H110543   4.956   1.302   5.235
 3534TIP3    H210544   4.815   1.321   5.182
 3535TIP3   OH210545   2.809   6.135   0.264
 3535TIP3    H110546   2.833   6.089   0.344
 3535TIP3    H210547   2.887   6.185   0.240
 3536TIP3   OH210548   8.165   6.585   4.718
 3536TIP3    H110549   8.259   6.571   4.704
 3536TIP3    H210550   8.161   6.665   4.771
 3537TIP3   OH210551   5.615   1.418   2.336
 3537TIP3    H110552   5.658   1.495   2.298
 3537TIP3    H210553   5.679   1.384   2.398
 3538TIP3   OH210554   1.175   3.572   4.166
 3538TIP3    H110555   1.270   3.579   4.162
 3538TIP3    H210556   1.157   3.478   4.156
 3539TIP3   OH210557   6.087   0.456   2.787
 3539TIP3    H110558   6.081   0.411   2.872
 3539TIP3    H210559   5.995   0.467   2.761
 3540TIP3   OH210560   4.888   5.589   0.820
 3540TIP3    H110561   4.840   5.517   0.780
 3540TIP3    H210562   4.912   5.646   0.747
 3541TIP3   OH210563   7.335   5.653   6.785
 3541TIP3    H110564   7.277   5.585   6.751
 3541TIP3    H210565   7.292   5.683   6.865
 3542TIP3   OH210566   6.436   0.448   5.783
 3542TIP3    H110567   6.513   0.394   5.766
 3542TIP3    H210568   6.406   0.421   5.870
 3543TIP3   OH210569   7.440   3.321   0.551
 3543TIP3    H110570   7.392   3.371   0.617
 3543TIP3    H210571   7.389   3.241   0.539
 3544TIP3   OH210572   8.362   4.846   5.400
 3544TIP3    H110573   8.391   4.826   5.489
 3544TIP3    H210574   8.418   4.791   5.344
 3545TIP3   OH210575   8.243   4.792   4.945
 3545TIP3    H110576   8.246   4.808   5.039
 3545TIP3    H210577   8.182   4.720   4.934
 3546TIP3   OH210578   3.482   7.329   6.539
 3546TIP3    H110579   3.398   7.370   6.520
 3546TIP3    H210580   3.461   7.236   6.550
 3547TIP3   OH210581   4.876   0.984   4.617
 3547TIP3    H110582   4.934   0.922   4.572
 3547TIP3    H210583   4.931   1.061   4.631
 3548TIP3   OH210584   8.168   5.885   3.102
 3548TIP3    H110585   8.163   5.883   3.006
 3548TIP3    H210586   8.254   5.850   3.122
 3549TIP3   OH210587   1.928   2.853   0.014
 3549TIP3    H110588   1.986   2.791   0.058
 3549TIP3    H210589   1.954   2.938   0.048
 3550TIP3   OH210590   5.799   2.207   1.369
 3550TIP3    H110591   5.723   2.239   1.418
 3550TIP3    H210592   5.873   2.256   1.405
 3551TIP3   OH210593   5.647   4.082   5.550
 3551TIP3    H110594   5.660   4.013   5.615
 3551TIP3    H210595   5.561   4.064   5.512
 3552TIP3   OH210596   4.092   6.349   1.339
 3552TIP3    H110597   4.164   6.342   1.402
 3552TIP3    H210598   4.134   6.346   1.253
 3553TIP3   OH210599   4.064   4.184   5.762
 3553TIP3    H110600   4.037   4.097   5.791
 3553TIP3    H210601   3.983   4.235   5.762
 3554TIP3   OH210602   5.961   0.978   4.960
 3554TIP3    H110603   6.009   1.030   5.025
 3554TIP3    H210604   5.922   1.043   4.901
 3555TIP3   OH210605   8.146   3.728   0.205
 3555TIP3    H110606   8.102   3.650   0.173
 3555TIP3    H210607   8.190   3.699   0.285
 3556TIP3   OH210608   5.859   1.057   5.932
 3556TIP3    H110609   5.859   1.114   5.855
 3556TIP3    H210610   5.928   0.993   5.914
 3557TIP3   OH210611   1.427   2.084   0.257
 3557TIP3    H110612   1.494   2.055   0.195
 3557TIP3    H210613   1.410   2.007   0.312
 3558TIP3   OH210614   0.932   7.915   6.185
 3558TIP3    H110615   0.890   7.901   6.100
 3558TIP3    H210616   0.892   7.849   6.242
 3559TIP3   OH210617   3.505   0.972   6.627
 3559TIP3    H110618   3.543   0.890   6.659
 3559TIP3    H210619   3.410   0.957   6.631
 3560TIP3   OH210620   2.902   2.391   6.207
 3560TIP3    H110621   2.916   2.297   6.223
 3560TIP3    H210622   2.811   2.406   6.232
 3561TIP3   OH210623   2.156   2.231   1.141
 3561TIP3    H110624   2.168   2.229   1.046
 3561TIP3    H210625   2.173   2.322   1.166
 3562TIP3   OH210626   5.149   1.141   0.802
 3562TIP3    H110627   5.232   1.150   0.756
 3562TIP3    H210628   5.106   1.225   0.789
 3563TIP3   OH210629   7.833   3.981   0.152
 3563TIP3    H110630   7.751   3.934   0.170
 3563TIP3    H210631   7.890   3.915   0.112
 3564TIP3   OH210632   1.033   5.715   5.833
 3564TIP3    H110633   1.091   5.675   5.768
 3564TIP3    H210634   0.951   5.666   5.825
 3565TIP3   OH210635   0.992   0.729   6.279
 3565TIP3    H110636   1.077   0.697   6.249
 3565TIP3    H210637   0.998   0.825   6.271
 3566TIP3   OH210638   5.139   3.539   2.875
 3566TIP3    H110639   5.159   3.447   2.892
 3566TIP3    H210640   5.146   3.548   2.780
 3567TIP3   OH210641   1.258   4.140   6.012
 3567TIP3    H110642   1.179   4.160   5.961
 3567TIP3    H210643   1.325   4.123   5.946
 3568TIP3   OH210644   5.765   6.156   2.168
 3568TIP3    H110645   5.816   6.105   2.105
 3568TIP3    H210646   5.693   6.099   2.193
 3569TIP3   OH210647   8.114   7.886   4.293
 3569TIP3    H110648   8.052   7.945   4.249
 3569TIP3    H210649   8.060   7.837   4.355
 3570TIP3   OH210650   7.554   4.334   3.281
 3570TIP3    H110651   7.614   4.263   3.257
 3570TIP3    H210652   7.575   4.354   3.372
 3571TIP3   OH210653   0.361   7.407   1.537
 3571TIP3    H110654   0.411   7.339   1.491
 3571TIP3    H210655   0.276   7.408   1.493
 3572TIP3   OH210656   1.947   4.691   5.579
 3572TIP3    H110657   1.860   4.654   5.598
 3572TIP3    H210658   2.004   4.654   5.646
 3573TIP3   OH210659   4.313   2.301   4.693
 3573TIP3    H110660   4.381   2.258   4.641
 3573TIP3    H210661   4.341   2.288   4.784
 3574TIP3   OH210662   2.516   3.117   4.606
 3574TIP3    H110663   2.576   3.192   4.610
 3574TIP3    H210664   2.433   3.152   4.639
 3575TIP3   OH210665   5.043   3.331   0.171
 3575TIP3    H110666   5.094   3.342   0.252
 3575TIP3    H210667   5.055   3.414   0.125
 3576TIP3   OH210668   6.294   6.390   3.494
 3576TIP3    H110669   6.287   6.485   3.500
 3576TIP3    H210670   6.323   6.362   3.581
 3577TIP3   OH210671   7.311   1.966   6.338
 3577TIP3    H110672   7.343   1.966   6.428
 3577TIP3    H210673   7.298   2.059   6.317
 3578TIP3   OH210674   3.065   2.388   3.996
 3578TIP3    H110675   3.153   2.419   4.019
 3578TIP3    H210676   3.047   2.427   3.910
 3579TIP3   OH210677   0.432   3.174   1.568
 3579TIP3    H110678   0.348   3.220   1.580
 3579TIP3    H210679   0.494   3.224   1.621
 3580TIP3   OH210680   7.323   3.535   5.032
 3580TIP3    H110681   7.313   3.550   5.126
 3580TIP3    H210682   7.239   3.560   4.995
 3581TIP3   OH210683   5.692   2.796   2.320
 3581TIP3    H110684   5.606   2.838   2.323
 3581TIP3    H210685   5.698   2.761   2.231
 3582TIP3   OH210686   5.497   0.839   1.087
 3582TIP3    H110687   5.593   0.836   1.077
 3582TIP3    H210688   5.463   0.835   0.998
 3583TIP3   OH210689   6.250   3.070   5.106
 3583TIP3    H110690   6.322   3.007   5.105
 3583TIP3    H210691   6.174   3.021   5.074
 3584TIP3   OH210692   0.036   5.659   0.349
 3584TIP3    H110693   0.091   5.581   0.338
 3584TIP3    H210694  -0.047   5.636   0.308
 3585TIP3   OH210695   6.544   3.596   0.553
 3585TIP3    H110696   6.460   3.601   0.506
 3585TIP3    H210697   6.520   3.569   0.641
 3586TIP3   OH210698   2.414   6.243   3.800
 3586TIP3    H110699   2.404   6.198   3.884
 3586TIP3    H210700   2.507   6.236   3.780
 3587TIP3   OH210701   2.638   5.953   6.233
 3587TIP3    H110702   2.680   6.003   6.163
 3587TIP3    H210703   2.619   6.018   6.301
 3588TIP3   OH210704   6.117   5.932   1.014
 3588TIP3    H110705   6.028   5.957   1.038
 3588TIP3    H210706   6.106   5.872   0.940
 3589TIP3   OH210707   1.713   1.720   5.581
 3589TIP3    H110708   1.752   1.704   5.495
 3589TIP3    H210709   1.654   1.795   5.567
 3590TIP3   OH210710   4.951   7.515   6.721
 3590TIP3    H110711   4.897   7.581   6.764
 3590TIP3    H210712   4.933   7.527   6.627
 3591TIP3   OH210713   7.907   6.056   5.881
 3591TIP3    H110714   7.991   6.022   5.850
 3591TIP3    H210715   7.897   6.140   5.837
 3592TIP3   OH210716   7.021   4.065   4.235
 3592TIP3    H110717   7.005   4.134   4.299
 3592TIP3    H210718   6.933   4.041   4.204
 3593TIP3   OH210719   6.462   2.072   5.290
 3593TIP3    H110720   6.492   1.991   5.247
 3593TIP3    H210721   6.504   2.071   5.376
 3594TIP3   OH210722   2.416   1.509   1.650
 3594TIP3    H110723   2.432   1.518   1.556
 3594TIP3    H210724   2.449   1.422   1.672
 3595TIP3   OH210725   0.598   3.285   1.000
 3595TIP3    H110726   0.692   3.266   0.993
 3595TIP3    H210727   0.558   3.235   0.929
 3596TIP3   OH210728   8.000   1.791   0.811
 3596TIP3    H110729   7.911   1.811   0.839
 3596TIP3    H210730   8.017   1.854   0.741
 3597TIP3   OH210731   1.285   6.971   0.258
 3597TIP3    H110732   1.221   7.041   0.241
 3597TIP3    H210733   1.351   6.982   0.189
 3598TIP3   OH210734   6.460   7.015   1.862
 3598TIP3    H110735   6.476   6.921   1.867
 3598TIP3    H210736   6.543   7.052   1.834
 3599TIP3   OH210737   5.540   6.238   5.312
 3599TIP3    H110738   5.584   6.318   5.341
 3599TIP3    H210739   5.604   6.194   5.256
 3600TIP3   OH210740   4.087   5.950   5.789
 3600TIP3    H110741   4.155   6.015   5.803
 3600TIP3    H210742   4.125   5.868   5.819
 3601TIP3   OH210743   5.709   4.992   5.806
 3601TIP3    H110744   5.629   4.979   5.755
 3601TIP3    H210745   5.741   4.903   5.823
 3602TIP3   OH210746   0.633   5.286   4.053
 3602TIP3    H110747   0.545   5.262   4.081
 3602TIP3    H210748   0.623   5.311   3.961
 3603TIP3   OH210749   3.921   6.082   5.024
 3603TIP3    H110750   3.829   6.108   5.018
 3603TIP3    H210751   3.958   6.141   5.090
 3604TIP3   OH210752   5.248   7.653   1.581
 3604TIP3    H110753   5.269   7.657   1.675
 3604TIP3    H210754   5.172   7.711   1.571
 3605TIP3   OH210755   0.469   3.457   5.081
 3605TIP3    H110756   0.536   3.513   5.120
 3605TIP3    H210757   0.447   3.500   4.999
 3606TIP3   OH210758   4.089   5.237   0.369
 3606TIP3    H110759   4.153   5.175   0.337
 3606TIP3    H210760   4.021   5.239   0.301
 3607TIP3   OH210761   1.640   1.541   6.622
 3607TIP3    H110762   1.583   1.581   6.688
 3607TIP3    H210763   1.601   1.567   6.539
 3608TIP3   OH210764   5.084   7.667   4.268
 3608TIP3    H110765   5.038   7.583   4.265
 3608TIP3    H210766   5.175   7.644   4.287
 3609TIP3   OH210767   0.306   1.103   1.692
 3609TIP3    H110768   0.400   1.116   1.676
 3609TIP3    H210769   0.298   1.104   1.787
 3610TIP3   OH210770   7.067   2.060   4.051
 3610TIP3    H110771   6.979   2.026   4.065
 3610TIP3    H210772   7.065   2.097   3.962
 3611TIP3   OH210773   0.759   7.149   4.821
 3611TIP3    H110774   0.708   7.094   4.762
 3611TIP3    H210775   0.721   7.237   4.812
 3612TIP3   OH210776   4.678   4.792   5.126
 3612TIP3    H110777   4.627   4.866   5.094
 3612TIP3    H210778   4.682   4.804   5.221
 3613TIP3   OH210779   4.272   7.187   6.584
 3613TIP3    H110780   4.244   7.147   6.501
 3613TIP3    H210781   4.336   7.126   6.619
 3614TIP3   OH210782   8.087   4.407   4.106
 3614TIP3    H110783   8.065   4.313   4.109
 3614TIP3    H210784   8.180   4.409   4.086
 3615TIP3   OH210785   5.002   1.440   4.933
 3615TIP3    H110786   5.002   1.413   5.024
 3615TIP3    H210787   4.910   1.438   4.907
 3616TIP3   OH210788   2.006   0.459   1.452
 3616TIP3    H110789   2.044   0.461   1.540
 3616TIP3    H210790   1.947   0.534   1.450
 3617TIP3   OH210791   5.681   0.912   4.057
 3617TIP3    H110792   5.762   0.913   4.005
 3617TIP3    H210793   5.623   0.852   4.010
 3618TIP3   OH210794   6.103   5.516   2.764
 3618TIP3    H110795   6.182   5.537   2.715
 3618TIP3    H210796   6.081   5.597   2.810
 3619TIP3   OH210797   6.291   4.324   5.734
 3619TIP3    H110798   6.338   4.392   5.783
 3619TIP3    H210799   6.326   4.330   5.645
 3620TIP3   OH210800   2.653   5.448   4.554
 3620TIP3    H110801   2.700   5.387   4.611
 3620TIP3    H210802   2.642   5.400   4.472
 3621TIP3   OH210803   5.145   0.202   5.625
 3621TIP3    H110804   5.202   0.160   5.562
 3621TIP3    H210805   5.194   0.200   5.708
 3622TIP3   OH210806   5.945   3.440   0.692
 3622TIP3    H110807   5.864   3.420   0.738
 3622TIP3    H210808   5.963   3.361   0.640
 3623TIP3   OH210809   0.101   6.831   6.076
 3623TIP3    H110810   0.009   6.804   6.070
 3623TIP3    H210811   0.116   6.884   5.998
 3624TIP3   OH210812   4.766   1.807   6.841
 3624TIP3    H110813   4.751   1.885   6.895
 3624TIP3    H210814   4.844   1.828   6.789
 3625TIP3   OH210815   3.466   3.011   3.650
 3625TIP3    H110816   3.550   3.057   3.649
 3625TIP3    H210817   3.487   2.923   3.682
 3626TIP3   OH210818   2.413   6.536   4.853
 3626TIP3    H110819   2.409   6.624   4.816
 3626TIP3    H210820   2.498   6.532   4.896
 3627TIP3   OH210821   4.824   7.902   0.959
 3627TIP3    H110822   4.744   7.860   0.989
 3627TIP3    H210823   4.799   7.994   0.945
 3628TIP3   OH210824   4.580   1.000   4.374
 3628TIP3    H110825   4.576   1.048   4.456
 3628TIP3    H210826   4.488   0.979   4.354
 3629TIP3   OH210827   8.084   2.290   1.608
 3629TIP3    H110828   8.054   2.206   1.574
 3629TIP3    H210829   8.135   2.328   1.536
 3630TIP3   OH210830   0.731   4.310   2.256
 3630TIP3    H110831   0.674   4.370   2.304
 3630TIP3    H210832   0.819   4.347   2.268
 3631TIP3   OH210833   1.565   4.936   0.997
 3631TIP3    H110834   1.549   4.859   1.052
 3631TIP3    H210835   1.485   4.946   0.946
 3632TIP3   OH210836   7.757   2.607   1.340
 3632TIP3    H110837   7.776   2.558   1.260
 3632TIP3    H210838   7.680   2.564   1.377
 3633TIP3   OH210839   1.985   3.420   4.221
 3633TIP3    H110840   1.944   3.379   4.145
 3633TIP3    H210841   2.024   3.346   4.269
 3634TIP3   OH210842   7.001   1.929   3.736
 3634TIP3    H110843   7.055   1.893   3.665
 3634TIP3    H210844   7.030   2.020   3.743
 3635TIP3   OH210845   7.384   5.751   2.527
 3635TIP3    H110846   7.449   5.821   2.517
 3635TIP3    H210847   7.415   5.701   2.602
 3636TIP3   OH210848   6.381   7.895   4.245
 3636TIP3    H110849   6.369   7.801   4.229
 3636TIP3    H210850   6.336   7.937   4.172
 3637TIP3   OH210851   0.054   4.173   6.663
 3637TIP3    H110852   0.062   4.159   6.569
 3637TIP3    H210853  -0.032   4.214   6.674
 3638TIP3   OH210854   0.654   4.410   5.591
 3638TIP3    H110855   0.624   4.501   5.593
 3638TIP3    H210856   0.749   4.416   5.604
 3639TIP3   OH210857   2.870   6.110   1.699
 3639TIP3    H110858   2.959   6.075   1.700
 3639TIP3    H210859   2.880   6.202   1.675
 3640TIP3   OH210860   1.846   3.689   1.020
 3640TIP3    H110861   1.875   3.665   0.932
 3640TIP3    H210862   1.796   3.613   1.050
 3641TIP3   OH210863   1.296   0.304   2.838
 3641TIP3    H110864   1.235   0.301   2.764
 3641TIP3    H210865   1.367   0.245   2.814
 3642TIP3   OH210866   0.004   3.870   1.798
 3642TIP3    H110867  -0.028   3.960   1.798
 3642TIP3    H210868   0.099   3.879   1.800
 3643TIP3   OH210869   7.292   5.660   6.118
 3643TIP3    H110870   7.237   5.618   6.052
 3643TIP3    H210871   7.273   5.754   6.107
 3644TIP3   OH210872   0.929   0.039   2.538
 3644TIP3    H110873   0.974   0.072   2.616
 3644TIP3    H210874   0.839   0.069   2.548
 3645TIP3   OH210875   6.641   6.978   0.569
 3645TIP3    H110876   6.581   7.048   0.594
 3645TIP3    H210877   6.600   6.898   0.604
 3646TIP3   OH210878   2.144   4.828   3.549
 3646TIP3    H110879   2.075   4.831   3.483
 3646TIP3    H210880   2.225   4.814   3.500
 3647TIP3   OH210881   5.599   3.202   6.600
 3647TIP3    H110882   5.683   3.157   6.602
 3647TIP3    H210883   5.535   3.134   6.623
 3648TIP3   OH210884   1.094   1.848   5.173
 3648TIP3    H110885   1.186   1.843   5.149
 3648TIP3    H210886   1.083   1.781   5.240
 3649TIP3   OH210887   2.189   7.625   5.030
 3649TIP3    H110888   2.177   7.568   5.106
 3649TIP3    H210889   2.157   7.574   4.956
 3650TIP3   OH210890   5.907   0.673   6.569
 3650TIP3    H110891   5.915   0.755   6.520
 3650TIP3    H210892   5.937   0.605   6.508
 3651TIP3   OH210893   1.955   1.658   6.236
 3651TIP3    H110894   1.882   1.623   6.186
 3651TIP3    H210895   1.915   1.701   6.311
 3652TIP3   OH210896   3.412   3.316   0.424
 3652TIP3    H110897   3.490   3.336   0.371
 3652TIP3    H210898   3.411   3.220   0.429
 3653TIP3   OH210899   3.146   3.663   0.180
 3653TIP3    H110900   3.091   3.659   0.102
 3653TIP3    H210901   3.163   3.756   0.192
 3654TIP3   OH210902   7.819   5.508   0.928
 3654TIP3    H110903   7.872   5.560   0.988
 3654TIP3    H210904   7.806   5.564   0.852
 3655TIP3   OH210905   3.464   4.139   3.367
 3655TIP3    H110906   3.523   4.071   3.397
 3655TIP3    H210907   3.395   4.143   3.434
 3656TIP3   OH210908   3.306   6.483   0.273
 3656TIP3    H110909   3.311   6.401   0.224
 3656TIP3    H210910   3.257   6.462   0.352
 3657TIP3   OH210911   7.778   2.894   4.503
 3657TIP3    H110912   7.826   2.876   4.421
 3657TIP3    H210913   7.691   2.858   4.487
 3658TIP3   OH210914   2.551   5.118   5.658
 3658TIP3    H110915   2.488   5.139   5.727
 3658TIP3    H210916   2.562   5.200   5.611
 3659TIP3   OH210917   6.538   4.324   0.305
 3659TIP3    H110918   6.480   4.362   0.239
 3659TIP3    H210919   6.481   4.279   0.366
 3660TIP3   OH210920   0.607   0.499   3.095
 3660TIP3    H110921   0.518   0.466   3.105
 3660TIP3    H210922   0.600   0.572   3.034
 3661TIP3   OH210923   7.580   0.881   4.164
 3661TIP3    H110924   7.491   0.867   4.199
 3661TIP3    H210925   7.610   0.960   4.208
 3662TIP3   OH210926   8.182   4.913   6.348
 3662TIP3    H110927   8.178   4.825   6.386
 3662TIP3    H210928   8.190   4.899   6.254
 3663TIP3   OH210929   1.378   7.632   6.145
 3663TIP3    H110930   1.459   7.584   6.160
 3663TIP3    H210931   1.400   7.723   6.165
 3664TIP3   OH210932   4.676   5.272   5.531
 3664TIP3    H110933   4.609   5.223   5.579
 3664TIP3    H210934   4.751   5.213   5.527
 3665TIP3   OH210935   7.541   6.903   1.023
 3665TIP3    H110936   7.536   6.827   0.964
 3665TIP3    H210937   7.613   6.956   0.987
 3666TIP3   OH210938   5.471   2.740   3.878
 3666TIP3    H110939   5.438   2.818   3.923
 3666TIP3    H210940   5.560   2.762   3.853
 3667TIP3   OH210941   2.551   7.280   0.912
 3667TIP3    H110942   2.507   7.239   0.838
 3667TIP3    H210943   2.561   7.209   0.976
 3668TIP3   OH210944   7.636   7.494   5.797
 3668TIP3    H110945   7.566   7.430   5.804
 3668TIP3    H210946   7.642   7.533   5.884
 3669TIP3   OH210947   5.273   7.124   2.712
 3669TIP3    H110948   5.273   7.054   2.648
 3669TIP3    H210949   5.181   7.136   2.737
 3670TIP3   OH210950   7.743   7.364   2.122
 3670TIP3    H110951   7.667   7.350   2.066
 3670TIP3    H210952   7.813   7.314   2.081
 3671TIP3   OH210953   0.756   7.384   2.660
 3671TIP3    H110954   0.801   7.323   2.719
 3671TIP3    H210955   0.752   7.338   2.576
 3672TIP3   OH210956   3.194   6.314   0.837
 3672TIP3    H110957   3.249   6.241   0.809
 3672TIP3    H210958   3.254   6.389   0.841
 3673TIP3   OH210959   3.410   3.481   2.817
 3673TIP3    H110960   3.346   3.547   2.790
 3673TIP3    H210961   3.358   3.401   2.829
 3674TIP3   OH210962   7.604   1.578   4.579
 3674TIP3    H110963   7.545   1.590   4.504
 3674TIP3    H210964   7.562   1.509   4.631
 3675TIP3   OH210965   3.354   7.587   5.702
 3675TIP3    H110966   3.260   7.590   5.684
 3675TIP3    H210967   3.372   7.495   5.721
 3676TIP3   OH210968   0.713   5.151   3.802
 3676TIP3    H110969   0.635   5.101   3.827
 3676TIP3    H210970   0.781   5.119   3.862
 3677TIP3   OH210971   5.624   6.976   6.432
 3677TIP3    H110972   5.616   6.899   6.376
 3677TIP3    H210973   5.623   6.940   6.521
 3678TIP3   OH210974   1.937   5.330   4.371
 3678TIP3    H110975   1.889   5.254   4.403
 3678TIP3    H210976   1.891   5.356   4.290
 3679TIP3   OH210977   4.802   1.332   2.735
 3679TIP3    H110978   4.802   1.266   2.665
 3679TIP3    H210979   4.893   1.335   2.764
 3680TIP3   OH210980   4.884   7.185   2.318
 3680TIP3    H110981   4.847   7.103   2.349
 3680TIP3    H210982   4.927   7.222   2.395
 3681TIP3   OH210983   8.121   3.730   5.958
 3681TIP3    H110984   8.144   3.700   5.871
 3681TIP3    H210985   8.139   3.655   6.015
 3682TIP3   OH210986   7.229   5.934   0.143
 3682TIP3    H110987   7.205   5.987   0.219
 3682TIP3    H210988   7.149   5.931   0.090
 3683TIP3   OH210989   4.455   2.899   5.694
 3683TIP3    H110990   4.365   2.932   5.689
 3683TIP3    H210991   4.486   2.927   5.780
 3684TIP3   OH210992   3.039   0.150   0.429
 3684TIP3    H110993   3.134   0.149   0.440
 3684TIP3    H210994   3.012   0.060   0.446
 3685TIP3   OH210995   4.635   6.297   4.979
 3685TIP3    H110996   4.605   6.257   5.061
 3685TIP3    H210997   4.616   6.390   4.989
 3686TIP3   OH210998   3.470   3.998   4.681
 3686TIP3    H110999   3.510   3.942   4.748
 3686TIP3    H211000   3.509   3.969   4.598
 3687TIP3   OH211001   6.329   4.090   6.553
 3687TIP3    H111002   6.236   4.097   6.530
 3687TIP3    H211003   6.370   4.167   6.513
 3688TIP3   OH211004   6.245   7.334   0.256
 3688TIP3    H111005   6.216   7.343   0.347
 3688TIP3    H211006   6.220   7.417   0.216
 3689TIP3   OH211007   0.092   3.434   0.579
 3689TIP3    H111008   0.113   3.525   0.603
 3689TIP3    H211009  -0.004   3.433   0.572
 3690TIP3   OH211010   2.044   4.439   0.541
 3690TIP3    H111011   2.011   4.499   0.474
 3690TIP3    H211012   2.078   4.496   0.610
 3691TIP3   OH211013   5.545   0.146   2.277
 3691TIP3    H111014   5.465   0.154   2.225
 3691TIP3    H211015   5.538   0.217   2.341
 3692TIP3   OH211016   1.826   4.450   5.032
 3692TIP3    H111017   1.742   4.494   5.020
 3692TIP3    H211018   1.802   4.359   5.053
 3693TIP3   OH211019   4.897   4.896   0.564
 3693TIP3    H111020   4.959   4.835   0.603
 3693TIP3    H211021   4.939   4.925   0.483
 3694TIP3   OH211022   5.762   7.689   0.603
 3694TIP3    H111023   5.803   7.776   0.611
 3694TIP3    H211024   5.701   7.685   0.676
 3695TIP3   OH211025   7.455   7.321   1.387
 3695TIP3    H111026   7.467   7.346   1.478
 3695TIP3    H211027   7.521   7.253   1.371
 3696TIP3   OH211028   1.730   1.184   5.524
 3696TIP3    H111029   1.708   1.277   5.521
 3696TIP3    H211030   1.708   1.152   5.436
 3697TIP3   OH211031   8.002   4.020   3.328
 3697TIP3    H111032   7.965   4.083   3.391
 3697TIP3    H211033   8.006   4.069   3.246
 3698TIP3   OH211034   5.062   4.154   5.846
 3698TIP3    H111035   4.973   4.121   5.859
 3698TIP3    H211036   5.055   4.249   5.859
 3699TIP3   OH211037   1.762   0.455   2.775
 3699TIP3    H111038   1.698   0.447   2.705
 3699TIP3    H211039   1.811   0.373   2.773
 3700TIP3   OH211040   7.495   2.496   4.497
 3700TIP3    H111041   7.440   2.548   4.439
 3700TIP3    H211042   7.567   2.466   4.441
 3701TIP3   OH211043   2.015   1.799   1.744
 3701TIP3    H111044   2.014   1.830   1.835
 3701TIP3    H211045   2.021   1.879   1.692
 3702TIP3   OH211046   2.082   0.866   1.229
 3702TIP3    H111047   2.169   0.827   1.232
 3702TIP3    H211048   2.056   0.873   1.321
 3703TIP3   OH211049   8.086   6.398   4.079
 3703TIP3    H111050   8.014   6.354   4.125
 3703TIP3    H211051   8.112   6.469   4.138
 3704TIP3   OH211052   4.279   5.692   3.197
 3704TIP3    H111053   4.260   5.699   3.103
 3704TIP3    H211054   4.301   5.781   3.224
 3705TIP3   OH211055   0.709   6.728   2.560
 3705TIP3    H111056   0.645   6.778   2.510
 3705TIP3    H211057   0.675   6.725   2.649
 3706TIP3   OH211058   4.081   4.071   6.572
 3706TIP3    H111059   4.085   4.001   6.637
 3706TIP3    H211060   4.170   4.104   6.567
 3707TIP3   OH211061   1.529   1.994   4.068
 3707TIP3    H111062   1.562   2.081   4.088
 3707TIP3    H211063   1.497   1.960   4.151
 3708TIP3   OH211064   3.783   6.444   2.868
 3708TIP3    H111065   3.766   6.516   2.808
 3708TIP3    H211066   3.852   6.477   2.926
 3709TIP3   OH211067   8.124   3.277   1.133
 3709TIP3    H111068   8.130   3.342   1.063
 3709TIP3    H211069   8.064   3.211   1.099
 3710TIP3   OH211070   7.672   6.230   1.806
 3710TIP3    H111071   7.674   6.314   1.851
 3710TIP3    H211072   7.691   6.252   1.714
 3711TIP3   OH211073   1.246   3.946   5.606
 3711TIP3    H111074   1.311   3.880   5.629
 3711TIP3    H211075   1.294   4.029   5.611
 3712TIP3   OH211076   3.267   7.608   2.413
 3712TIP3    H111077   3.182   7.647   2.394
 3712TIP3    H211078   3.310   7.601   2.328
 3713TIP3   OH211079   2.467   6.037   6.678
 3713TIP3    H111080   2.424   6.005   6.757
 3713TIP3    H211081   2.483   6.130   6.695
 3714TIP3   OH211082   6.003   0.480   0.857
 3714TIP3    H111083   6.065   0.473   0.928
 3714TIP3    H211084   6.056   0.477   0.777
 3715TIP3   OH211085   2.955   3.942   1.663
 3715TIP3    H111086   2.929   4.020   1.712
 3715TIP3    H211087   2.873   3.912   1.622
 3716TIP3   OH211088   2.123   3.954   0.789
 3716TIP3    H111089   2.112   3.964   0.884
 3716TIP3    H211090   2.088   4.035   0.752
 3717TIP3   OH211091   2.914   7.414   1.445
 3717TIP3    H111092   2.978   7.450   1.506
 3717TIP3    H211093   2.835   7.466   1.459
 3718TIP3   OH211094   0.979   6.034   4.163
 3718TIP3    H111095   0.900   6.086   4.149
 3718TIP3    H211096   0.986   6.024   4.258
 3719TIP3   OH211097   0.807   0.995   2.684
 3719TIP3    H111098   0.814   0.958   2.772
 3719TIP3    H211099   0.750   0.934   2.637
 3720TIP3   OH211100   2.637   0.356   5.894
 3720TIP3    H111101   2.648   0.330   5.985
 3720TIP3    H211102   2.714   0.409   5.874
 3721TIP3   OH211103   6.349   0.700   5.828
 3721TIP3    H111104   6.423   0.720   5.884
 3721TIP3    H211105   6.371   0.617   5.787
 3722TIP3   OH211106   3.617   6.897   6.389
 3722TIP3    H111107   3.652   6.986   6.398
 3722TIP3    H211108   3.668   6.859   6.318
 3723TIP3   OH211109   7.928   4.341   5.625
 3723TIP3    H111110   7.956   4.271   5.566
 3723TIP3    H211111   7.916   4.297   5.710
 3724TIP3   OH211112   6.260   2.505   1.996
 3724TIP3    H111113   6.182   2.450   1.998
 3724TIP3    H211114   6.228   2.592   1.972
 3725TIP3   OH211115   5.336   2.454   6.062
 3725TIP3    H111116   5.427   2.479   6.051
 3725TIP3    H211117   5.321   2.385   5.997
 3726TIP3   OH211118   8.050   0.722   6.227
 3726TIP3    H111119   8.054   0.712   6.132
 3726TIP3    H211120   8.014   0.810   6.240
 3727TIP3   OH211121   5.248   6.067   4.693
 3727TIP3    H111122   5.207   6.091   4.611
 3727TIP3    H211123   5.188   6.004   4.733
 3728TIP3   OH211124   5.436   1.314   6.569
 3728TIP3    H111125   5.395   1.228   6.581
 3728TIP3    H211126   5.374   1.375   6.608
 3729TIP3   OH211127   2.026   6.883   6.305
 3729TIP3    H111128   1.960   6.905   6.240
 3729TIP3    H211129   2.009   6.791   6.327
 3730TIP3   OH211130   4.034   0.707   3.024
 3730TIP3    H111131   4.007   0.711   3.115
 3730TIP3    H211132   4.129   0.695   3.028
 3731TIP3   OH211133   1.100   4.989   1.770
 3731TIP3    H111134   1.132   4.974   1.858
 3731TIP3    H211135   1.116   5.082   1.754
 3732TIP3   OH211136   7.953   6.553   3.401
 3732TIP3    H111137   8.031   6.544   3.346
 3732TIP3    H211138   7.885   6.507   3.353
 3733TIP3   OH211139   5.793   6.984   2.936
 3733TIP3    H111140   5.836   7.062   2.971
 3733TIP3    H211141   5.866   6.930   2.905
 3734TIP3   OH211142   4.597   6.470   1.611
 3734TIP3    H111143   4.557   6.545   1.567
 3734TIP3    H211144   4.582   6.486   1.704
 3735TIP3   OH211145   7.232   7.350   5.614
 3735TIP3    H111146   7.197   7.270   5.574
 3735TIP3    H211147   7.159   7.412   5.613
 3736TIP3   OH211148   0.987   0.008   4.737
 3736TIP3    H111149   1.079   0.003   4.711
 3736TIP3    H211150   0.981   0.091   4.785
 3737TIP3   OH211151   6.416   4.317   3.415
 3737TIP3    H111152   6.446   4.379   3.482
 3737TIP3    H211153   6.384   4.373   3.344
 3738TIP3   OH211154   6.342   1.971   0.834
 3738TIP3    H111155   6.283   1.925   0.774
 3738TIP3    H211156   6.347   1.914   0.911
 3739TIP3   OH211157   6.359   7.475   4.896
 3739TIP3    H111158   6.416   7.522   4.834
 3739TIP3    H211159   6.271   7.487   4.862
 3740TIP3   OH211160   6.543   6.384   4.728
 3740TIP3    H111161   6.548   6.479   4.726
 3740TIP3    H211162   6.461   6.363   4.682
 3741TIP3   OH211163   1.636   7.636   0.615
 3741TIP3    H111164   1.656   7.716   0.568
 3741TIP3    H211165   1.663   7.566   0.556
 3742TIP3   OH211166   2.935   0.681   5.774
 3742TIP3    H111167   2.987   0.733   5.712
 3742TIP3    H211168   2.916   0.741   5.846
 3743TIP3   OH211169   3.262   7.073   5.868
 3743TIP3    H111170   3.230   7.111   5.951
 3743TIP3    H211171   3.321   7.140   5.832
 3744TIP3   OH211172   7.284   7.064   2.238
 3744TIP3    H111173   7.227   6.988   2.225
 3744TIP3    H211174   7.370   7.034   2.209
 3745TIP3   OH211175   0.978   5.789   6.643
 3745TIP3    H111176   0.989   5.882   6.627
 3745TIP3    H211177   1.065   5.752   6.632
 3746TIP3   OH211178   4.993   6.477   2.969
 3746TIP3    H111179   4.947   6.522   3.041
 3746TIP3    H211180   4.929   6.474   2.898
 3747TIP3   OH211181   4.895   0.500   5.095
 3747TIP3    H111182   4.933   0.548   5.021
 3747TIP3    H211183   4.831   0.560   5.132
 3748TIP3   OH211184   5.957   5.979   4.125
 3748TIP3    H111185   6.021   5.925   4.172
 3748TIP3    H211186   5.874   5.959   4.168
 3749TIP3   OH211187   8.361   1.858   1.354
 3749TIP3    H111188   8.277   1.813   1.344
 3749TIP3    H211189   8.399   1.859   1.266
 3750TIP3   OH211190   3.000   7.311   1.202
 3750TIP3    H111191   2.967   7.334   1.289
 3750TIP3    H211192   2.933   7.254   1.166
 3751TIP3   OH211193   7.660   3.786   0.230
 3751TIP3    H111194   7.613   3.703   0.219
 3751TIP3    H211195   7.609   3.849   0.179
 3752TIP3   OH211196   6.495   6.738   4.485
 3752TIP3    H111197   6.556   6.671   4.455
 3752TIP3    H211198   6.546   6.819   4.486
 3753TIP3   OH211199   7.209   1.362   6.252
 3753TIP3    H111200   7.129   1.309   6.251
 3753TIP3    H211201   7.275   1.307   6.294
 3754TIP3   OH211202   6.284   6.721   2.118
 3754TIP3    H111203   6.203   6.730   2.068
 3754TIP3    H211204   6.266   6.760   2.203
 3755TIP3   OH211205   2.073   7.041   0.757
 3755TIP3    H111206   2.052   7.125   0.717
 3755TIP3    H211207   2.157   7.056   0.801
 3756TIP3   OH211208   3.386   3.526   1.589
 3756TIP3    H111209   3.343   3.444   1.611
 3756TIP3    H211210   3.442   3.544   1.665
 3757TIP3   OH211211   1.245   4.930   1.285
 3757TIP3    H111212   1.277   4.986   1.215
 3757TIP3    H211213   1.325   4.900   1.329
 3758TIP3   OH211214   0.993   2.526   3.757
 3758TIP3    H111215   0.971   2.532   3.664
 3758TIP3    H211216   1.072   2.579   3.767
 3759TIP3   OH211217   5.486   7.244   1.874
 3759TIP3    H111218   5.428   7.285   1.938
 3759TIP3    H211219   5.430   7.226   1.799
 3760TIP3   OH211220   5.223   6.868   3.941
 3760TIP3    H111221   5.154   6.835   3.883
 3760TIP3    H211222   5.287   6.797   3.945
 3761TIP3   OH211223   4.383   3.328   1.394
 3761TIP3    H111224   4.325   3.404   1.398
 3761TIP3    H211225   4.365   3.279   1.475
 3762TIP3   OH211226   6.695   0.333   6.150
 3762TIP3    H111227   6.698   0.292   6.064
 3762TIP3    H211228   6.627   0.285   6.197
 3763TIP3   OH211229   0.326   6.343   5.948
 3763TIP3    H111230   0.317   6.393   5.867
 3763TIP3    H211231   0.349   6.408   6.014
 3764TIP3   OH211232   7.221   6.281   1.456
 3764TIP3    H111233   7.205   6.187   1.455
 3764TIP3    H211234   7.298   6.292   1.512
 3765TIP3   OH211235   0.011   0.801   5.992
 3765TIP3    H111236  -0.046   0.843   6.056
 3765TIP3    H211237   0.100   0.828   6.017
 3766TIP3   OH211238   3.575   6.355   0.681
 3766TIP3    H111239   3.519   6.392   0.748
 3766TIP3    H211240   3.625   6.430   0.648
 3767TIP3   OH211241   3.789   5.981   1.334
 3767TIP3    H111242   3.752   5.987   1.246
 3767TIP3    H211243   3.787   5.888   1.355
 3768TIP3   OH211244   6.288   1.874   2.204
 3768TIP3    H111245   6.329   1.866   2.291
 3768TIP3    H211246   6.211   1.929   2.219
 3769TIP3   OH211247   0.655   6.237   0.583
 3769TIP3    H111248   0.704   6.222   0.503
 3769TIP3    H211249   0.563   6.229   0.557
 3770TIP3   OH211250   2.001   0.163   4.766
 3770TIP3    H111251   1.928   0.225   4.768
 3770TIP3    H211252   1.963   0.082   4.732
 3771TIP3   OH211253   6.884   2.637   6.068
 3771TIP3    H111254   6.914   2.725   6.047
 3771TIP3    H211255   6.965   2.585   6.071
 3772TIP3   OH211256   2.162   5.326   6.599
 3772TIP3    H111257   2.162   5.365   6.687
 3772TIP3    H211258   2.119   5.241   6.610
 3773TIP3   OH211259   4.505   6.934   5.820
 3773TIP3    H111260   4.459   6.863   5.865
 3773TIP3    H211261   4.514   7.002   5.887
 3774TIP3   OH211262   4.165   1.960   6.097
 3774TIP3    H111263   4.135   1.981   6.009
 3774TIP3    H211264   4.260   1.976   6.095
 3775TIP3   OH211265   5.933   6.702   3.940
 3775TIP3    H111266   5.912   6.695   4.033
 3775TIP3    H211267   6.004   6.639   3.928
 3776TIP3   OH211268   2.241   0.295   4.711
 3776TIP3    H111269   2.169   0.242   4.746
 3776TIP3    H211270   2.276   0.341   4.787
 3777TIP3   OH211271   7.584   3.320   1.400
 3777TIP3    H111272   7.672   3.358   1.399
 3777TIP3    H211273   7.534   3.376   1.458
 3778TIP3   OH211274   7.285   7.120   5.150
 3778TIP3    H111275   7.330   7.204   5.145
 3778TIP3    H211276   7.355   7.055   5.153
 3779TIP3   OH211277   0.972   4.880   6.752
 3779TIP3    H111278   0.953   4.798   6.707
 3779TIP3    H211279   1.066   4.894   6.740
 3780TIP3   OH211280   3.331   3.892   3.714
 3780TIP3    H111281   3.337   3.797   3.709
 3780TIP3    H211282   3.247   3.908   3.758
 3781TIP3   OH211283   5.587   1.839   5.840
 3781TIP3    H111284   5.556   1.770   5.782
 3781TIP3    H211285   5.681   1.823   5.849
 3782TIP3   OH211286   0.575   1.992   0.992
 3782TIP3    H111287   0.599   2.055   0.924
 3782TIP3    H211288   0.659   1.961   1.027
 3783TIP3   OH211289   5.317   5.662   4.944
 3783TIP3    H111290   5.261   5.605   4.892
 3783TIP3    H211291   5.346   5.730   4.884
 3784TIP3   OH211292   2.839   3.286   6.187
 3784TIP3    H111293   2.906   3.355   6.185
 3784TIP3    H211294   2.817   3.273   6.095
 3785TIP3   OH211295   7.370   6.100   1.679
 3785TIP3    H111296   7.315   6.154   1.735
 3785TIP3    H211297   7.427   6.163   1.634
 3786TIP3   OH211298   1.509   4.074   3.506
 3786TIP3    H111299   1.576   4.142   3.493
 3786TIP3    H211300   1.550   3.994   3.475
 3787TIP3   OH211301   8.371   4.363   4.017
 3787TIP3    H111302   8.419   4.281   4.018
 3787TIP3    H211303   8.377   4.394   3.926
 3788TIP3   OH211304   3.589   7.575   2.924
 3788TIP3    H111305   3.529   7.595   2.995
 3788TIP3    H211306   3.557   7.626   2.850
 3789TIP3   OH211307   3.882   0.456   5.646
 3789TIP3    H111308   3.940   0.525   5.612
 3789TIP3    H211309   3.939   0.382   5.663
 3790TIP3   OH211310   4.438   7.065   1.028
 3790TIP3    H111311   4.482   7.135   0.980
 3790TIP3    H211312   4.345   7.078   1.009
 3791TIP3   OH211313   1.588   3.513   4.481
 3791TIP3    H111314   1.646   3.522   4.406
 3791TIP3    H211315   1.536   3.593   4.481
 3792TIP3   OH211316   2.171   0.676   0.337
 3792TIP3    H111317   2.166   0.583   0.356
 3792TIP3    H211318   2.263   0.699   0.351
 3793TIP3   OH211319   7.442   6.571   4.217
 3793TIP3    H111320   7.531   6.540   4.230
 3793TIP3    H211321   7.396   6.497   4.177
 3794TIP3   OH211322   3.610   0.491   5.764
 3794TIP3    H111323   3.683   0.493   5.702
 3794TIP3    H211324   3.563   0.573   5.748
 3795TIP3   OH211325   1.043   7.667   4.268
 3795TIP3    H111326   1.084   7.584   4.241
 3795TIP3    H211327   1.085   7.733   4.212
 3796TIP3   OH211328   6.230   7.421   0.738
 3796TIP3    H111329   6.189   7.411   0.824
 3796TIP3    H211330   6.321   7.443   0.758
 3797TIP3   OH211331   3.765   6.823   5.477
 3797TIP3    H111332   3.746   6.856   5.565
 3797TIP3    H211333   3.713   6.743   5.470
 3798TIP3   OH211334   6.752   0.045   0.287
 3798TIP3    H111335   6.669   0.084   0.261
 3798TIP3    H211336   6.807   0.119   0.314
 3799TIP3   OH211337   5.219   6.653   4.730
 3799TIP3    H111338   5.237   6.731   4.677
 3799TIP3    H211339   5.163   6.599   4.674
 3800TIP3   OH211340   3.521   4.409   3.306
 3800TIP3    H111341   3.515   4.314   3.317
 3800TIP3    H211342   3.587   4.421   3.237
 3801TIP3   OH211343   5.096   2.679   1.322
 3801TIP3    H111344   5.083   2.587   1.300
 3801TIP3    H211345   5.030   2.698   1.389
 3802TIP3   OH211346   3.211   7.903   1.031
 3802TIP3    H111347   3.260   7.984   1.022
 3802TIP3    H211348   3.278   7.836   1.048
 3803TIP3   OH211349   7.363   6.164   0.593
 3803TIP3    H111350   7.396   6.235   0.538
 3803TIP3    H211351   7.352   6.203   0.679
 3804TIP3   OH211352   4.352   7.406   0.284
 3804TIP3    H111353   4.436   7.443   0.309
 3804TIP3    H211354   4.322   7.460   0.211
 3805TIP3   OH211355   1.102   1.303   4.985
 3805TIP3    H111356   1.030   1.365   4.971
 3805TIP3    H211357   1.163   1.321   4.913
 3806TIP3   OH211358   4.983   3.153   4.664
 3806TIP3    H111359   5.031   3.216   4.718
 3806TIP3    H211360   4.956   3.204   4.587
 3807TIP3   OH211361   1.380   0.879   4.447
 3807TIP3    H111362   1.442   0.834   4.391
 3807TIP3    H211363   1.389   0.972   4.425
 3808TIP3   OH211364   2.834   1.290   6.138
 3808TIP3    H111365   2.854   1.197   6.128
 3808TIP3    H211366   2.920   1.332   6.149
 3809TIP3   OH211367   0.094   5.482   3.432
 3809TIP3    H111368   0.052   5.560   3.395
 3809TIP3    H211369   0.152   5.516   3.500
 3810TIP3   OH211370   5.465   7.678   1.396
 3810TIP3    H111371   5.413   7.605   1.430
 3810TIP3    H211372   5.412   7.756   1.413
 3811TIP3   OH211373   5.911   5.851   2.633
 3811TIP3    H111374   6.001   5.850   2.600
 3811TIP3    H211375   5.858   5.813   2.562
 3812TIP3   OH211376   3.796   5.548   1.083
 3812TIP3    H111377   3.711   5.557   1.041
 3812TIP3    H211378   3.857   5.591   1.023
 3813TIP3   OH211379   4.510   4.170   6.200
 3813TIP3    H111380   4.476   4.178   6.111
 3813TIP3    H211381   4.592   4.219   6.199
 3814TIP3   OH211382   3.445   3.538   6.769
 3814TIP3    H111383   3.353   3.540   6.794
 3814TIP3    H211384   3.491   3.577   6.843
 3815TIP3   OH211385   8.272   0.463   1.124
 3815TIP3    H111386   8.272   0.450   1.219
 3815TIP3    H211387   8.181   0.486   1.102
 3816TIP3   OH211388   0.370   2.669   1.233
 3816TIP3    H111389   0.457   2.642   1.260
 3816TIP3    H211390   0.323   2.587   1.219
 3817TIP3   OH211391   3.461   4.175   2.827
 3817TIP3    H111392   3.447   4.211   2.914
 3817TIP3    H211393   3.513   4.241   2.781
 3818TIP3   OH211394   1.983   6.438   1.052
 3818TIP3    H111395   1.968   6.348   1.025
 3818TIP3    H211396   1.921   6.489   1.000
 3819TIP3   OH211397   1.509   7.869   6.670
 3819TIP3    H111398   1.530   7.942   6.729
 3819TIP3    H211399   1.434   7.827   6.712
 3820TIP3   OH211400   6.000   1.104   6.275
 3820TIP3    H111401   6.006   1.059   6.190
 3820TIP3    H211402   6.078   1.160   6.277
 3821TIP3   OH211403   0.728   1.090   1.523
 3821TIP3    H111404   0.655   1.028   1.516
 3821TIP3    H211405   0.798   1.041   1.566
 3822TIP3   OH211406   3.502   5.539   0.004
 3822TIP3    H111407   3.593   5.514  -0.006
 3822TIP3    H211408   3.456   5.457   0.024
 3823TIP3   OH211409   2.299   0.705   5.031
 3823TIP3    H111410   2.368   0.760   4.992
 3823TIP3    H211411   2.218   0.737   4.991
 3824TIP3   OH211412   6.334   5.545   6.256
 3824TIP3    H111413   6.384   5.585   6.184
 3824TIP3    H211414   6.383   5.569   6.335
 3825TIP3   OH211415   2.056   0.072   2.453
 3825TIP3    H111416   1.976   0.095   2.405
 3825TIP3    H211417   2.123   0.130   2.416
 3826TIP3   OH211418   7.157   5.523   0.021
 3826TIP3    H111419   7.099   5.518   0.097
 3826TIP3    H211420   7.244   5.542   0.058
 3827TIP3   OH211421   3.386   7.246   3.778
 3827TIP3    H111422   3.367   7.186   3.706
 3827TIP3    H211423   3.479   7.233   3.796
 3828TIP3   OH211424   8.217   5.735   2.499
 3828TIP3    H111425   8.233   5.684   2.578
 3828TIP3    H211426   8.235   5.825   2.524
 3829TIP3   OH211427   1.905   4.189   4.200
 3829TIP3    H111428   1.819   4.228   4.219
 3829TIP3    H211429   1.966   4.262   4.201
 3830TIP3   OH211430   1.576   3.014   1.616
 3830TIP3    H111431   1.518   3.007   1.540
 3830TIP3    H211432   1.528   3.068   1.679
 3831TIP3   OH211433   7.840   7.774   2.468
 3831TIP3    H111434   7.810   7.703   2.411
 3831TIP3    H211435   7.768   7.836   2.469
 3832TIP3   OH211436   3.281   3.147   4.894
 3832TIP3    H111437   3.271   3.222   4.836
 3832TIP3    H211438   3.349   3.172   4.956
 3833TIP3   OH211439   4.247   7.001   5.728
 3833TIP3    H111440   4.261   7.096   5.736
 3833TIP3    H211441   4.333   6.963   5.747
 3834TIP3   OH211442   5.980   1.619   2.188
 3834TIP3    H111443   5.977   1.546   2.126
 3834TIP3    H211444   6.023   1.690   2.141
 3835TIP3   OH211445   1.075   3.610   0.504
 3835TIP3    H111446   1.050   3.522   0.475
 3835TIP3    H211447   1.167   3.602   0.530
 3836TIP3   OH211448   0.421   0.824   2.951
 3836TIP3    H111449   0.393   0.814   3.042
 3836TIP3    H211450   0.499   0.880   2.956
 3837TIP3   OH211451   4.555   1.435   3.963
 3837TIP3    H111452   4.491   1.365   3.951
 3837TIP3    H211453   4.640   1.390   3.962
 3838TIP3   OH211454   0.341   5.226   3.991
 3838TIP3    H111455   0.303   5.301   3.946
 3838TIP3    H211456   0.281   5.208   4.063
 3839TIP3   OH211457   7.312   2.740   1.814
 3839TIP3    H111458   7.294   2.833   1.801
 3839TIP3    H211459   7.393   2.739   1.867
 3840TIP3   OH211460   4.800   1.295   3.973
 3840TIP3    H111461   4.875   1.354   3.982
 3840TIP3    H211462   4.817   1.225   4.035
 3841TIP3   OH211463   1.680   7.859   0.487
 3841TIP3    H111464   1.591   7.890   0.472
 3841TIP3    H211465   1.728   7.937   0.516
 3842TIP3   OH211466   5.645   0.936   2.803
 3842TIP3    H111467   5.711   0.973   2.862
 3842TIP3    H211468   5.692   0.921   2.721
 3843TIP3   OH211469   6.662   5.865   0.599
 3843TIP3    H111470   6.755   5.882   0.614
 3843TIP3    H211471   6.651   5.871   0.504
 3844TIP3   OH211472   8.107   2.398   6.096
 3844TIP3    H111473   8.055   2.320   6.080
 3844TIP3    H211474   8.198   2.371   6.083
 3845TIP3   OH211475   4.621   5.517   1.894
 3845TIP3    H111476   4.527   5.500   1.882
 3845TIP3    H211477   4.650   5.550   1.810
 3846TIP3   OH211478   2.623   2.547   0.431
 3846TIP3    H111479   2.617   2.556   0.336
 3846TIP3    H211480   2.714   2.565   0.452
 3847TIP3   OH211481   4.355   1.193   0.837
 3847TIP3    H111482   4.432   1.140   0.857
 3847TIP3    H211483   4.286   1.157   0.894
 3848TIP3   OH211484   0.996   7.907   1.449
 3848TIP3    H111485   0.912   7.940   1.416
 3848TIP3    H211486   1.048   7.893   1.370
 3849TIP3   OH211487   0.432   5.575   4.101
 3849TIP3    H111488   0.477   5.511   4.155
 3849TIP3    H211489   0.350   5.592   4.147
 3850TIP3   OH211490   4.317   6.265   6.383
 3850TIP3    H111491   4.344   6.187   6.431
 3850TIP3    H211492   4.222   6.255   6.372
 3851TIP3   OH211493   6.585   4.516   1.384
 3851TIP3    H111494   6.512   4.575   1.365
 3851TIP3    H211495   6.543   4.430   1.394
 3852TIP3   OH211496   3.488   1.955   4.389
 3852TIP3    H111497   3.402   1.920   4.412
 3852TIP3    H211498   3.478   2.050   4.400
 3853TIP3   OH211499   4.365   2.550   3.313
 3853TIP3    H111500   4.364   2.462   3.276
 3853TIP3    H211501   4.369   2.608   3.237
 3854TIP3   OH211502   1.678   2.420   3.918
 3854TIP3    H111503   1.761   2.411   3.871
 3854TIP3    H211504   1.648   2.508   3.896
 3855TIP3   OH211505   4.797   4.613   6.098
 3855TIP3    H111506   4.841   4.628   6.181
 3855TIP3    H211507   4.718   4.564   6.122
 3856TIP3   OH211508   0.806   0.406   4.307
 3856TIP3    H111509   0.802   0.502   4.308
 3856TIP3    H211510   0.725   0.380   4.263
 3857TIP3   OH211511   7.682   0.230   3.741
 3857TIP3    H111512   7.661   0.144   3.778
 3857TIP3    H211513   7.620   0.240   3.668
 3858TIP3   OH211514   2.995   4.368   2.896
 3858TIP3    H111515   2.922   4.330   2.846
 3858TIP3    H211516   3.021   4.299   2.957
 3859TIP3   OH211517   4.778   0.638   4.524
 3859TIP3    H111518   4.794   0.546   4.544
 3859TIP3    H211519   4.763   0.679   4.610
 3860TIP3   OH211520   2.473   6.308   2.966
 3860TIP3    H111521   2.484   6.372   3.036
 3860TIP3    H211522   2.425   6.235   3.007
 3861TIP3   OH211523   6.743   2.546   1.997
 3861TIP3    H111524   6.729   2.458   1.960
 3861TIP3    H211525   6.674   2.600   1.958
 3862TIP3   OH211526   8.208   3.484   0.905
 3862TIP3    H111527   8.271   3.502   0.974
 3862TIP3    H211528   8.204   3.565   0.854
 3863TIP3   OH211529   3.283   7.529   6.857
 3863TIP3    H111530   3.202   7.530   6.807
 3863TIP3    H211531   3.346   7.485   6.799
 3864TIP3   OH211532   3.767   3.787   5.157
 3864TIP3    H111533   3.800   3.765   5.244
 3864TIP3    H211534   3.830   3.851   5.122
 3865TIP3   OH211535   1.424   6.960   5.334
 3865TIP3    H111536   1.411   6.872   5.367
 3865TIP3    H211537   1.501   6.953   5.276
 3866TIP3   OH211538   3.646   4.773   3.475
 3866TIP3    H111539   3.562   4.750   3.436
 3866TIP3    H211540   3.694   4.690   3.478
 3867TIP3   OH211541   3.015   0.134   2.400
 3867TIP3    H111542   3.109   0.123   2.382
 3867TIP3    H211543   3.004   0.099   2.488
 3868TIP3   OH211544   1.125   3.513   6.132
 3868TIP3    H111545   1.105   3.434   6.182
 3868TIP3    H211546   1.100   3.585   6.190
 3869TIP3   OH211547   6.326   6.692   3.009
 3869TIP3    H111548   6.366   6.726   3.088
 3869TIP3    H211549   6.340   6.761   2.943
 3870TIP3   OH211550   6.704   0.429   2.291
 3870TIP3    H111551   6.627   0.410   2.345
 3870TIP3    H211552   6.689   0.519   2.260
 3871TIP3   OH211553   4.846   0.161   3.515
 3871TIP3    H111554   4.901   0.213   3.457
 3871TIP3    H211555   4.760   0.202   3.509
 3872TIP3   OH211556   8.121   7.545   3.785
 3872TIP3    H111557   8.073   7.463   3.775
 3872TIP3    H211558   8.156   7.541   3.874
 3873TIP3   OH211559   4.432   0.646   2.099
 3873TIP3    H111560   4.393   0.590   2.032
 3873TIP3    H211561   4.405   0.735   2.075
 3874TIP3   OH211562   2.986   3.783   6.646
 3874TIP3    H111563   2.997   3.878   6.654
 3874TIP3    H211564   2.905   3.765   6.693
 3875TIP3   OH211565   2.425   0.230   2.919
 3875TIP3    H111566   2.428   0.142   2.883
 3875TIP3    H211567   2.376   0.220   3.001
 3876TIP3   OH211568   4.366   7.255   5.681
 3876TIP3    H111569   4.381   7.254   5.586
 3876TIP3    H211570   4.383   7.345   5.707
 3877TIP3   OH211571   2.440   2.073   1.683
 3877TIP3    H111572   2.404   1.994   1.643
 3877TIP3    H211573   2.400   2.145   1.633
 3878TIP3   OH211574   5.152   5.539   3.691
 3878TIP3    H111575   5.156   5.451   3.728
 3878TIP3    H211576   5.058   5.555   3.679
 3879TIP3   OH211577   7.782   6.360   1.572
 3879TIP3    H111578   7.869   6.370   1.533
 3879TIP3    H211579   7.742   6.446   1.563
 3880TIP3   OH211580   3.514   0.521   4.037
 3880TIP3    H111581   3.504   0.616   4.043
 3880TIP3    H211582   3.521   0.492   4.128
 3881TIP3   OH211583   4.966   5.299   0.099
 3881TIP3    H111584   4.997   5.247   0.173
 3881TIP3    H211585   5.013   5.264   0.023
 3882TIP3   OH211586   6.152   2.664   5.175
 3882TIP3    H111587   6.188   2.741   5.218
 3882TIP3    H211588   6.229   2.619   5.139
 3883TIP3   OH211589   4.219   6.019   3.314
 3883TIP3    H111590   4.134   5.985   3.287
 3883TIP3    H211591   4.202   6.111   3.337
 3884TIP3   OH211592   7.118   2.157   1.881
 3884TIP3    H111593   7.080   2.117   1.959
 3884TIP3    H211594   7.208   2.179   1.906
 3885TIP3   OH211595   6.140   7.892   6.140
 3885TIP3    H111596   6.206   7.847   6.192
 3885TIP3    H211597   6.188   7.922   6.062
 3886TIP3   OH211598   1.258   1.958   6.357
 3886TIP3    H111599   1.286   1.970   6.267
 3886TIP3    H211600   1.185   1.896   6.352
 3887TIP3   OH211601   7.265   0.843   4.231
 3887TIP3    H111602   7.203   0.913   4.250
 3887TIP3    H211603   7.273   0.794   4.312
 3888TIP3   OH211604   7.442   0.439   3.693
 3888TIP3    H111605   7.438   0.360   3.747
 3888TIP3    H211606   7.427   0.511   3.755
 3889TIP3   OH211607   0.324   7.220   5.913
 3889TIP3    H111608   0.244   7.169   5.930
 3889TIP3    H211609   0.295   7.292   5.858
 3890TIP3   OH211610   4.964   4.474   0.477
 3890TIP3    H111611   5.042   4.526   0.462
 3890TIP3    H211612   4.996   4.383   0.481
 3891TIP3   OH211613   7.999   0.794   5.461
 3891TIP3    H111614   7.925   0.736   5.480
 3891TIP3    H211615   8.008   0.848   5.540
 3892TIP3   OH211616   1.147   2.020   4.235
 3892TIP3    H111617   1.079   1.998   4.298
 3892TIP3    H211618   1.221   2.048   4.289
 3893TIP3   OH211619   8.168   3.386   2.825
 3893TIP3    H111620   8.080   3.409   2.854
 3893TIP3    H211621   8.193   3.312   2.880
 3894TIP3   OH211622   6.329   4.698   5.866
 3894TIP3    H111623   6.351   4.751   5.943
 3894TIP3    H211624   6.370   4.613   5.883
 3895TIP3   OH211625   5.115   1.904   2.402
 3895TIP3    H111626   5.047   1.845   2.434
 3895TIP3    H211627   5.074   1.990   2.403
 3896TIP3   OH211628   2.462   5.332   3.233
 3896TIP3    H111629   2.454   5.427   3.246
 3896TIP3    H211630   2.456   5.296   3.322
 3897TIP3   OH211631   6.824   5.604   3.491
 3897TIP3    H111632   6.829   5.644   3.578
 3897TIP3    H211633   6.912   5.572   3.474
 3898TIP3   OH211634   6.025   2.080   3.850
 3898TIP3    H111635   6.107   2.055   3.892
 3898TIP3    H211636   6.006   2.167   3.886
 3899TIP3   OH211637   1.304   0.955   3.488
 3899TIP3    H111638   1.369   0.957   3.558
 3899TIP3    H211639   1.220   0.962   3.533
 3900TIP3   OH211640   3.132   3.423   0.918
 3900TIP3    H111641   3.077   3.476   0.975
 3900TIP3    H211642   3.199   3.484   0.887
 3901TIP3   OH211643   5.429   6.639   1.920
 3901TIP3    H111644   5.515   6.681   1.916
 3901TIP3    H211645   5.390   6.656   1.834
 3902TIP3   OH211646   0.916   3.410   3.630
 3902TIP3    H111647   0.895   3.490   3.582
 3902TIP3    H211648   0.917   3.342   3.563
 3903TIP3   OH211649   4.358   6.730   2.122
 3903TIP3    H111650   4.399   6.735   2.208
 3903TIP3    H211651   4.387   6.809   2.077
 3904TIP3   OH211652   3.455   4.241   4.366
 3904TIP3    H111653   3.429   4.166   4.313
 3904TIP3    H211654   3.458   4.314   4.305
 3905TIP3   OH211655   7.139   1.369   4.293
 3905TIP3    H111656   7.191   1.440   4.332
 3905TIP3    H211657   7.152   1.295   4.352
 3906TIP3   OH211658   3.354   4.724   4.404
 3906TIP3    H111659   3.320   4.638   4.378
 3906TIP3    H211660   3.414   4.705   4.476
 3907TIP3   OH211661   3.262   6.638   0.672
 3907TIP3    H111662   3.291   6.697   0.602
 3907TIP3    H211663   3.311   6.667   0.749
 3908TIP3   OH211664   3.959   2.053   0.380
 3908TIP3    H111665   3.867   2.079   0.379
 3908TIP3    H211666   3.961   1.970   0.331
 3909TIP3   OH211667   1.420   2.295   5.443
 3909TIP3    H111668   1.471   2.261   5.517
 3909TIP3    H211669   1.470   2.268   5.365
 3910TIP3   OH211670   2.726   0.243   5.572
 3910TIP3    H111671   2.785   0.298   5.624
 3910TIP3    H211672   2.678   0.305   5.517
 3911TIP3   OH211673   0.893   2.547   3.513
 3911TIP3    H111674   0.908   2.574   3.423
 3911TIP3    H211675   0.866   2.455   3.507
 3912TIP3   OH211676   4.368   2.976   5.406
 3912TIP3    H111677   4.460   2.953   5.418
 3912TIP3    H211678   4.348   3.035   5.479
 3913TIP3   OH211679   4.391   2.740   4.142
 3913TIP3    H111680   4.485   2.753   4.136
 3913TIP3    H211681   4.357   2.825   4.170
 3914TIP3   OH211682   3.785   0.456   1.735
 3914TIP3    H111683   3.851   0.484   1.799
 3914TIP3    H211684   3.717   0.523   1.741
 3915TIP3   OH211685   0.533   1.867   1.510
 3915TIP3    H111686   0.539   1.802   1.440
 3915TIP3    H211687   0.517   1.815   1.589
 3916TIP3   OH211688   0.976   7.069   2.396
 3916TIP3    H111689   0.882   7.051   2.390
 3916TIP3    H211690   1.015   7.010   2.332
 3917TIP3   OH211691   2.392   2.224   3.912
 3917TIP3    H111692   2.405   2.130   3.903
 3917TIP3    H211693   2.308   2.240   3.869
 3918TIP3   OH211694   7.786   3.158   2.913
 3918TIP3    H111695   7.711   3.117   2.871
 3918TIP3    H211696   7.806   3.101   2.987
 3919TIP3   OH211697   2.469   7.850   0.532
 3919TIP3    H111698   2.443   7.781   0.593
 3919TIP3    H211699   2.552   7.820   0.495
 3920TIP3   OH211700   2.557   6.723   6.107
 3920TIP3    H111701   2.473   6.677   6.109
 3920TIP3    H211702   2.560   6.772   6.189
 3921TIP3   OH211703   1.818   1.129   4.604
 3921TIP3    H111704   1.802   1.222   4.619
 3921TIP3    H211705   1.913   1.120   4.607
 3922TIP3   OH211706   6.643   1.730   2.021
 3922TIP3    H111707   6.593   1.750   1.942
 3922TIP3    H211708   6.733   1.717   1.989
 3923TIP3   OH211709   3.344   2.656   0.999
 3923TIP3    H111710   3.427   2.616   0.974
 3923TIP3    H211711   3.329   2.723   0.932
 3924TIP3   OH211712   2.656   0.376   0.195
 3924TIP3    H111713   2.707   0.356   0.117
 3924TIP3    H211714   2.594   0.303   0.202
 3925TIP3   OH211715   2.924   6.852   3.737
 3925TIP3    H111716   2.973   6.885   3.662
 3925TIP3    H211717   2.976   6.877   3.813
 3926TIP3   OH211718   6.532   0.850   5.977
 3926TIP3    H111719   6.625   0.874   5.978
 3926TIP3    H211720   6.497   0.888   6.057
 3927TIP3   OH211721   7.288   2.926   3.659
 3927TIP3    H111722   7.238   3.006   3.642
 3927TIP3    H211723   7.230   2.873   3.714
 3928TIP3   OH211724   8.207   1.276   3.415
 3928TIP3    H111725   8.193   1.371   3.408
 3928TIP3    H211726   8.120   1.239   3.401
 3929TIP3   OH211727   4.594   0.150   6.520
 3929TIP3    H111728   4.575   0.160   6.426
 3929TIP3    H211729   4.661   0.082   6.524
 3930TIP3   OH211730   3.365   7.317   2.323
 3930TIP3    H111731   3.421   7.241   2.308
 3930TIP3    H211732   3.288   7.282   2.366
 3931TIP3   OH211733   2.311   0.379   1.633
 3931TIP3    H111734   2.368   0.454   1.653
 3931TIP3    H211735   2.329   0.359   1.542
 3932TIP3   OH211736   0.220   3.156   5.372
 3932TIP3    H111737   0.225   3.108   5.290
 3932TIP3    H211738   0.153   3.223   5.356
 3933TIP3   OH211739   3.060   3.175   0.327
 3933TIP3    H111740   3.103   3.225   0.397
 3933TIP3    H211741   3.095   3.086   0.336
 3934TIP3   OH211742   3.568   4.265   4.607
 3934TIP3    H111743   3.635   4.198   4.615
 3934TIP3    H211744   3.506   4.231   4.543
 3935TIP3   OH211745   3.634   4.216   0.774
 3935TIP3    H111746   3.725   4.246   0.782
 3935TIP3    H211747   3.583   4.278   0.826
 3936TIP3   OH211748   2.468   6.770   1.916
 3936TIP3    H111749   2.449   6.678   1.933
 3936TIP3    H211750   2.463   6.779   1.821
 3937TIP3   OH211751   1.057   3.161   5.134
 3937TIP3    H111752   1.075   3.243   5.180
 3937TIP3    H211753   1.072   3.093   5.199
 3938TIP3   OH211754   7.413   2.869   5.239
 3938TIP3    H111755   7.501   2.859   5.273
 3938TIP3    H211756   7.380   2.780   5.230
 3939TIP3   OH211757   0.327   1.373   4.992
 3939TIP3    H111758   0.402   1.418   4.953
 3939TIP3    H211759   0.254   1.397   4.935
 3940TIP3   OH211760   6.740   4.397   5.866
 3940TIP3    H111761   6.774   4.322   5.915
 3940TIP3    H211762   6.766   4.380   5.776
 3941TIP3   OH211763   2.276   3.496   4.407
 3941TIP3    H111764   2.252   3.403   4.407
 3941TIP3    H211765   2.304   3.513   4.497
 3942TIP3   OH211766   0.206   6.547   5.724
 3942TIP3    H111767   0.272   6.576   5.661
 3942TIP3    H211768   0.147   6.491   5.673
 3943TIP3   OH211769   7.815   6.646   0.782
 3943TIP3    H111770   7.795   6.667   0.873
 3943TIP3    H211771   7.777   6.559   0.769
 3944TIP3   OH211772   6.838   0.504   6.792
 3944TIP3    H111773   6.760   0.558   6.787
 3944TIP3    H211774   6.833   0.447   6.715
 3945TIP3   OH211775   0.418   1.642   2.672
 3945TIP3    H111776   0.448   1.674   2.587
 3945TIP3    H211777   0.367   1.564   2.651
 3946TIP3   OH211778   3.429   4.293   6.600
 3946TIP3    H111779   3.375   4.315   6.523
 3946TIP3    H211780   3.514   4.270   6.563
 3947TIP3   OH211781   6.788   2.013   4.030
 3947TIP3    H111782   6.821   1.962   3.956
 3947TIP3    H211783   6.730   1.952   4.077
 3948TIP3   OH211784   3.252   4.483   0.126
 3948TIP3    H111785   3.269   4.390   0.115
 3948TIP3    H211786   3.190   4.488   0.199
 3949TIP3   OH211787   6.722   7.439   4.816
 3949TIP3    H111788   6.790   7.403   4.872
 3949TIP3    H211789   6.660   7.367   4.804
 3950TIP3   OH211790   5.573   0.670   1.624
 3950TIP3    H111791   5.519   0.675   1.703
 3950TIP3    H211792   5.564   0.757   1.584
 3951TIP3   OH211793   3.570   6.847   0.719
 3951TIP3    H111794   3.592   6.816   0.631
 3951TIP3    H211795   3.619   6.789   0.777
 3952TIP3   OH211796   0.526   5.349   0.755
 3952TIP3    H111797   0.621   5.348   0.769
 3952TIP3    H211798   0.497   5.265   0.790
 3953TIP3   OH211799   7.034   2.428   0.689
 3953TIP3    H111800   6.976   2.474   0.750
 3953TIP3    H211801   7.111   2.407   0.741
 3954TIP3   OH211802   1.872   3.634   3.572
 3954TIP3    H111803   1.813   3.560   3.559
 3954TIP3    H211804   1.956   3.603   3.539
 3955TIP3   OH211805   6.479   3.532   1.892
 3955TIP3    H111806   6.484   3.543   1.986
 3955TIP3    H211807   6.455   3.440   1.879
 3956TIP3   OH211808   4.384   7.022   2.092
 3956TIP3    H111809   4.379   7.111   2.057
 3956TIP3    H211810   4.421   7.033   2.180
 3957TIP3   OH211811   6.164   2.993   1.601
 3957TIP3    H111812   6.079   2.971   1.562
 3957TIP3    H211813   6.153   3.084   1.632
 3958TIP3   OH211814   1.834   1.584   4.013
 3958TIP3    H111815   1.781   1.580   3.933
 3958TIP3    H211816   1.857   1.493   4.030
 3959TIP3   OH211817   3.056   7.202   4.000
 3959TIP3    H111818   3.051   7.200   3.904
 3959TIP3    H211819   3.090   7.288   4.020
 3960TIP3   OH211820   3.929   6.373   0.067
 3960TIP3    H111821   3.932   6.297   0.008
 3960TIP3    H211822   3.836   6.390   0.079
 3961TIP3   OH211823   1.569   4.528   4.700
 3961TIP3    H111824   1.554   4.443   4.741
 3961TIP3    H211825   1.655   4.521   4.659
 3962TIP3   OH211826   3.641   4.345   2.719
 3962TIP3    H111827   3.704   4.313   2.784
 3962TIP3    H211828   3.661   4.296   2.640
 3963TIP3   OH211829   3.193   5.289   5.314
 3963TIP3    H111830   3.110   5.311   5.354
 3963TIP3    H211831   3.241   5.241   5.382
 3964TIP3   OH211832   7.212   1.978   2.632
 3964TIP3    H111833   7.214   1.884   2.649
 3964TIP3    H211834   7.190   1.985   2.539
 3965TIP3   OH211835   6.769   6.476   0.780
 3965TIP3    H111836   6.698   6.504   0.722
 3965TIP3    H211837   6.724   6.433   0.853
 3966TIP3   OH211838   4.752   7.127   0.822
 3966TIP3    H111839   4.785   7.082   0.900
 3966TIP3    H211840   4.699   7.199   0.857
 3967TIP3   OH211841   2.642   7.740   4.668
 3967TIP3    H111842   2.728   7.713   4.700
 3967TIP3    H211843   2.637   7.702   4.580
 3968TIP3   OH211844   3.149   7.678   6.543
 3968TIP3    H111845   3.140   7.761   6.589
 3968TIP3    H211846   3.103   7.615   6.598
 3969TIP3   OH211847   4.399   6.383   4.550
 3969TIP3    H111848   4.331   6.381   4.483
 3969TIP3    H211849   4.456   6.457   4.525
 3970TIP3   OH211850   5.883   0.416   3.539
 3970TIP3    H111851   5.966   0.457   3.564
 3970TIP3    H211852   5.818   0.458   3.595
 3971TIP3   OH211853   6.598   6.044   1.169
 3971TIP3    H111854   6.672   6.045   1.108
 3971TIP3    H211855   6.526   6.083   1.120
 3972TIP3   OH211856   6.637   7.695   5.562
 3972TIP3    H111857   6.574   7.639   5.518
 3972TIP3    H211858   6.695   7.635   5.609
 3973TIP3   OH211859   6.955   7.028   2.645
 3973TIP3    H111860   6.934   7.109   2.599
 3973TIP3    H211861   7.010   7.056   2.718
 3974TIP3   OH211862   4.767   4.217   0.401
 3974TIP3    H111863   4.780   4.264   0.318
 3974TIP3    H211864   4.855   4.208   0.437
 3975TIP3   OH211865   8.384   4.434   2.908
 3975TIP3    H111866   8.325   4.508   2.914
 3975TIP3    H211867   8.379   4.392   2.993
 3976TIP3   OH211868   0.788   3.158   4.564
 3976TIP3    H111869   0.832   3.210   4.632
 3976TIP3    H211870   0.718   3.215   4.533
 3977TIP3   OH211871   4.025   3.649   4.763
 3977TIP3    H111872   4.023   3.730   4.711
 3977TIP3    H211873   4.085   3.592   4.715
 3978TIP3   OH211874   5.417   0.805   6.586
 3978TIP3    H111875   5.486   0.782   6.648
 3978TIP3    H211876   5.463   0.822   6.504
 3979TIP3   OH211877   2.320   2.913   0.153
 3979TIP3    H111878   2.320   3.008   0.141
 3979TIP3    H211879   2.246   2.897   0.212
 3980TIP3   OH211880   5.814   3.524   1.736
 3980TIP3    H111881   5.842   3.482   1.818
 3980TIP3    H211882   5.858   3.609   1.737
 3981TIP3   OH211883   6.780   4.139   5.365
 3981TIP3    H111884   6.873   4.152   5.348
 3981TIP3    H211885   6.767   4.045   5.363
 3982TIP3   OH211886   0.629   7.085   3.839
 3982TIP3    H111887   0.622   7.088   3.744
 3982TIP3    H211888   0.542   7.057   3.868
 3983TIP3   OH211889   1.673   3.418   3.561
 3983TIP3    H111890   1.594   3.462   3.531
 3983TIP3    H211891   1.716   3.388   3.481
 3984TIP3   OH211892   2.122   7.255   6.604
 3984TIP3    H111893   2.212   7.262   6.637
 3984TIP3    H211894   2.071   7.227   6.680
 3985TIP3   OH211895   4.537   3.729   2.534
 3985TIP3    H111896   4.549   3.824   2.537
 3985TIP3    H211897   4.463   3.715   2.474
 3986TIP3   OH211898   6.381   2.918   2.019
 3986TIP3    H111899   6.364   2.894   2.110
 3986TIP3    H211900   6.444   2.991   2.025
 3987TIP3   OH211901   7.223   3.356   4.762
 3987TIP3    H111902   7.151   3.360   4.699
 3987TIP3    H211903   7.209   3.431   4.820
 3988TIP3   OH211904   0.646   2.578   5.117
 3988TIP3    H111905   0.703   2.615   5.184
 3988TIP3    H211906   0.685   2.605   5.034
 3989TIP3   OH211907   7.230   1.915   4.954
 3989TIP3    H111908   7.271   1.865   4.884
 3989TIP3    H211909   7.153   1.864   4.978
 3990TIP3   OH211910   2.986   1.471   5.072
 3990TIP3    H111911   2.972   1.557   5.113
 3990TIP3    H211912   2.948   1.480   4.984
 3991TIP3   OH211913   4.988   7.732   2.588
 3991TIP3    H111914   4.999   7.638   2.572
 3991TIP3    H211915   5.044   7.750   2.663
 3992TIP3   OH211916   7.783   5.763   6.694
 3992TIP3    H111917   7.729   5.684   6.692
 3992TIP3    H211918   7.842   5.750   6.769
 3993TIP3   OH211919   1.167   4.018   0.454
 3993TIP3    H111920   1.190   3.962   0.380
 3993TIP3    H211921   1.082   3.986   0.483
 3994TIP3   OH211922   7.874   3.845   4.558
 3994TIP3    H111923   7.809   3.776   4.545
 3994TIP3    H211924   7.952   3.799   4.590
 3995TIP3   OH211925   0.337   1.952   0.049
 3995TIP3    H111926   0.319   2.043   0.074
 3995TIP3    H211927   0.350   1.956  -0.046
 3996TIP3   OH211928   4.963   6.251   0.110
 3996TIP3    H111929   4.893   6.186   0.107
 3996TIP3    H211930   4.975   6.269   0.203
 3997TIP3   OH211931   3.731   4.722   0.967
 3997TIP3    H111932   3.801   4.768   0.921
 3997TIP3    H211933   3.759   4.631   0.968
 3998TIP3   OH211934   5.766   0.519   3.285
 3998TIP3    H111935   5.821   0.508   3.362
 3998TIP3    H211936   5.693   0.574   3.315
 3999TIP3   OH211937   0.481   6.960   0.151
 3999TIP3    H111938   0.442   6.950   0.238
 3999TIP3    H211939   0.533   7.040   0.157
 4000TIP3   OH211940   8.076   7.074   3.076
 4000TIP3    H111941   8.030   7.012   3.133
 4000TIP3    H211942   8.008   7.111   3.019
 4001TIP3   OH211943   7.190   5.996   4.032
 4001TIP3    H111944   7.187   6.083   4.072
 4001TIP3    H211945   7.118   5.996   3.969
 4002TIP3   OH211946   6.854   2.860   2.957
 4002TIP3    H111947   6.765   2.826   2.963
 4002TIP3    H211948   6.899   2.799   2.899
 4003TIP3   OH211949   5.278   0.487   0.474
 4003TIP3    H111950   5.349   0.508   0.412
 4003TIP3    H211951   5.245   0.403   0.444
 4004TIP3   OH211952   2.187   1.724   1.200
 4004TIP3    H111953   2.199   1.689   1.289
 4004TIP3    H211954   2.220   1.814   1.206
 4005TIP3   OH211955   6.252   3.458   0.479
 4005TIP3    H111956   6.257   3.453   0.575
 4005TIP3    H211957   6.162   3.434   0.459
 4006TIP3   OH211958   5.298   2.665   6.597
 4006TIP3    H111959   5.390   2.665   6.623
 4006TIP3    H211960   5.300   2.671   6.501
 4007TIP3   OH211961   4.546   7.455   5.075
 4007TIP3    H111962   4.595   7.476   4.996
 4007TIP3    H211963   4.455   7.477   5.053
 4008TIP3   OH211964   0.319   3.647   4.121
 4008TIP3    H111965   0.228   3.623   4.101
 4008TIP3    H211966   0.347   3.581   4.185
 4009TIP3   OH211967   4.137   3.970  -0.001
 4009TIP3    H111968   4.155   4.047   0.052
 4009TIP3    H211969   4.212   3.912   0.014
 4010TIP3   OH211970   3.963   2.340   2.016
 4010TIP3    H111971   4.039   2.381   1.976
 4010TIP3    H211972   3.888   2.381   1.972
 4011TIP3   OH211973   5.157   0.619   0.666
 4011TIP3    H111974   5.217   0.580   0.602
 4011TIP3    H211975   5.127   0.545   0.720
 4012TIP3   OH211976   8.276   6.104   5.475
 4012TIP3    H111977   8.292   6.017   5.439
 4012TIP3    H211978   8.349   6.157   5.443
 4013TIP3   OH211979   3.346   2.298   1.828
 4013TIP3    H111980   3.397   2.372   1.794
 4013TIP3    H211981   3.410   2.245   1.874
 4014TIP3   OH211982   4.878   1.092   4.146
 4014TIP3    H111983   4.846   1.007   4.176
 4014TIP3    H211984   4.947   1.072   4.083
 4015TIP3   OH211985   4.041   3.848   2.987
 4015TIP3    H111986   3.966   3.890   3.031
 4015TIP3    H211987   4.032   3.873   2.895
 4016TIP3   OH211988   5.099   2.904   1.682
 4016TIP3    H111989   5.113   2.920   1.589
 4016TIP3    H211990   5.161   2.962   1.726
 4017TIP3   OH211991   1.394   6.051   5.754
 4017TIP3    H111992   1.456   6.118   5.782
 4017TIP3    H211993   1.434   6.012   5.676
 4018TIP3   OH211994   1.634   3.039   5.474
 4018TIP3    H111995   1.722   3.033   5.436
 4018TIP3    H211996   1.589   2.960   5.446
 4019TIP3   OH211997   3.773   1.132   1.765
 4019TIP3    H111998   3.780   1.219   1.726
 4019TIP3    H211999   3.831   1.077   1.711
 4020TIP3   OH212000   1.041   1.901   3.860
 4020TIP3    H112001   1.055   1.950   3.780
 4020TIP3    H212002   1.032   1.967   3.928
 4021TIP3   OH212003   7.434   3.194   3.424
 4021TIP3    H112004   7.413   3.262   3.489
 4021TIP3    H212005   7.351   3.151   3.406
 4022TIP3   OH212006   2.874   0.208   6.212
 4022TIP3    H112007   2.819   0.259   6.272
 4022TIP3    H212008   2.921   0.273   6.161
 4023TIP3   OH212009   3.939   1.344   3.242
 4023TIP3    H112010   3.960   1.433   3.215
 4023TIP3    H212011   3.856   1.324   3.197
 4024TIP3   OH212012   6.593   2.831   3.056
 4024TIP3    H112013   6.625   2.883   3.129
 4024TIP3    H212014   6.590   2.741   3.089
 4025TIP3   OH212015   7.253   2.722   3.477
 4025TIP3    H112016   7.275   2.786   3.544
 4025TIP3    H212017   7.217   2.648   3.526
 4026TIP3   OH212018   4.181   2.753   2.538
 4026TIP3    H112019   4.255   2.703   2.501
 4026TIP3    H212020   4.180   2.834   2.488
 4027TIP3   OH212021   2.304   7.451   3.875
 4027TIP3    H112022   2.230   7.432   3.932
 4027TIP3    H212023   2.300   7.382   3.808
 4028TIP3   OH212024   3.109   2.337   2.678
 4028TIP3    H112025   3.058   2.418   2.677
 4028TIP3    H212026   3.127   2.321   2.771
 4029TIP3   OH212027   4.805   4.646   5.813
 4029TIP3    H112028   4.832   4.655   5.904
 4029TIP3    H212029   4.762   4.560   5.808
 4030TIP3   OH212030   0.095   0.043   2.915
 4030TIP3    H112031   0.171   0.044   2.857
 4030TIP3    H212032   0.098   0.128   2.959
 4031TIP3   OH212033   2.429   0.092   1.849
 4031TIP3    H112034   2.485   0.163   1.817
 4031TIP3    H212035   2.456   0.079   1.940
 4032TIP3   OH212036   7.409   5.063   4.652
 4032TIP3    H112037   7.327   5.094   4.690
 4032TIP3    H212038   7.391   5.053   4.559
 4033TIP3   OH212039   7.319   5.105   6.288
 4033TIP3    H112040   7.325   5.148   6.373
 4033TIP3    H212041   7.346   5.172   6.225
 4034TIP3   OH212042   0.096   0.007   4.083
 4034TIP3    H112043   0.075   0.099   4.065
 4034TIP3    H212044   0.138   0.008   4.170
 4035TIP3   OH212045   1.656   6.233   2.652
 4035TIP3    H112046   1.566   6.214   2.679
 4035TIP3    H212047   1.656   6.327   2.634
 4036TIP3   OH212048   4.238   2.877   6.042
 4036TIP3    H112049   4.330   2.902   6.055
 4036TIP3    H212050   4.242   2.805   5.979
 4037TIP3   OH212051   1.074   6.403   6.758
 4037TIP3    H112052   1.135   6.407   6.684
 4037TIP3    H212053   1.120   6.351   6.824
 4038TIP3   OH212054   3.737   0.681   2.393
 4038TIP3    H112055   3.741   0.720   2.306
 4038TIP3    H212056   3.644   0.664   2.407
 4039TIP3   OH212057   1.784   1.624   3.037
 4039TIP3    H112058   1.835   1.558   2.989
 4039TIP3    H212059   1.784   1.592   3.127
 4040TIP3   OH212060   0.836   3.751   0.460
 4040TIP3    H112061   0.918   3.704   0.479
 4040TIP3    H212062   0.855   3.842   0.482
 4041TIP3   OH212063   2.101   7.211   2.134
 4041TIP3    H112064   2.011   7.180   2.122
 4041TIP3    H212065   2.094   7.279   2.202
 4042TIP3   OH212066   5.932   6.817   1.178
 4042TIP3    H112067   5.994   6.755   1.139
 4042TIP3    H212068   5.854   6.810   1.122
 4043TIP3   OH212069   7.835   1.382   2.428
 4043TIP3    H112070   7.889   1.323   2.481
 4043TIP3    H212071   7.843   1.346   2.339
 4044TIP3   OH212072   3.330   4.295   3.727
 4044TIP3    H112073   3.415   4.323   3.691
 4044TIP3    H212074   3.284   4.377   3.744
 4045TIP3   OH212075   2.076   6.708   0.829
 4045TIP3    H112076   2.124   6.782   0.867
 4045TIP3    H212077   2.132   6.632   0.846
 4046TIP3   OH212078   7.690   7.540   6.683
 4046TIP3    H112079   7.691   7.614   6.744
 4046TIP3    H212080   7.713   7.578   6.599
 4047TIP3   OH212081   1.503   4.519   6.787
 4047TIP3    H112082   1.426   4.504   6.732
 4047TIP3    H212083   1.561   4.573   6.733
 4048TIP3   OH212084   0.552   4.620   3.740
 4048TIP3    H112085   0.636   4.587   3.773
 4048TIP3    H212086   0.489   4.599   3.809
 4049TIP3   OH212087   1.561   0.248   3.900
 4049TIP3    H112088   1.616   0.187   3.949
 4049TIP3    H212089   1.482   0.256   3.952
 4050TIP3   OH212090   1.596   1.784   4.916
 4050TIP3    H112091   1.542   1.857   4.883
 4050TIP3    H212092   1.635   1.818   4.996
 4051TIP3   OH212093   2.578   1.795   1.479
 4051TIP3    H112094   2.618   1.711   1.501
 4051TIP3    H212095   2.635   1.831   1.411
 4052TIP3   OH212096   7.033   6.697   0.915
 4052TIP3    H112097   7.080   6.762   0.862
 4052TIP3    H212098   7.074   6.614   0.894
 4053TIP3   OH212099   6.417   6.578   4.962
 4053TIP3    H112100   6.411   6.659   5.013
 4053TIP3    H212101   6.511   6.557   4.962
 4054TIP3   OH212102   4.852   4.807   0.244
 4054TIP3    H112103   4.810   4.883   0.284
 4054TIP3    H212104   4.945   4.832   0.237
 4055TIP3   OH212105   4.511  -0.017   1.981
 4055TIP3    H112106   4.477   0.032   1.906
 4055TIP3    H212107   4.440  -0.013   2.046
 4056TIP3   OH212108   0.767   1.516   5.616
 4056TIP3    H112109   0.780   1.442   5.557
 4056TIP3    H212110   0.713   1.482   5.686
 4057TIP3   OH212111   0.266   3.101   2.512
 4057TIP3    H112112   0.335   3.072   2.571
 4057TIP3    H212113   0.187   3.102   2.567
 4058TIP3   OH212114   7.910   2.562   4.347
 4058TIP3    H112115   8.004   2.557   4.366
 4058TIP3    H212116   7.893   2.656   4.340
 4059TIP3   OH212117   2.011   6.164   5.016
 4059TIP3    H112118   2.065   6.127   4.946
 4059TIP3    H212119   2.066   6.231   5.056
 4060TIP3   OH212120   0.767   5.391   5.786
 4060TIP3    H112121   0.763   5.485   5.768
 4060TIP3    H212122   0.746   5.384   5.879
 4061TIP3   OH212123   1.227   3.408   1.173
 4061TIP3    H112124   1.230   3.503   1.188
 4061TIP3    H212125   1.319   3.384   1.157
 4062TIP3   OH212126   1.698   2.366   4.990
 4062TIP3    H112127   1.727   2.278   4.967
 4062TIP3    H212128   1.752   2.390   5.066
 4063TIP3   OH212129   7.348   1.918   0.570
 4063TIP3    H112130   7.388   1.945   0.652
 4063TIP3    H212131   7.260   1.955   0.572
 4064TIP3   OH212132   5.137   2.523   2.391
 4064TIP3    H112133   5.184   2.581   2.330
 4064TIP3    H212134   5.049   2.516   2.354
 4065TIP3   OH212135   4.029   1.428   4.281
 4065TIP3    H112136   3.940   1.410   4.250
 4065TIP3    H212137   4.040   1.371   4.357
 4066TIP3   OH212138   0.785   1.969   2.843
 4066TIP3    H112139   0.753   1.917   2.917
 4066TIP3    H212140   0.862   1.921   2.812
 4067TIP3   OH212141   5.809   3.588   5.681
 4067TIP3    H112142   5.789   3.498   5.708
 4067TIP3    H212143   5.787   3.591   5.588
 4068TIP3   OH212144   0.212   7.431   1.155
 4068TIP3    H112145   0.136   7.483   1.179
 4068TIP3    H212146   0.221   7.368   1.226
 4069TIP3   OH212147   0.992   2.103   0.915
 4069TIP3    H112148   0.957   2.180   0.870
 4069TIP3    H212149   0.984   2.032   0.851
 4070TIP3   OH212150   4.189   4.749   1.046
 4070TIP3    H112151   4.269   4.716   1.006
 4070TIP3    H212152   4.209   4.756   1.140
 4071TIP3   OH212153   8.360   1.934   4.994
 4071TIP3    H112154   8.277   1.924   4.947
 4071TIP3    H212155   8.415   1.862   4.963
 4072TIP3   OH212156   4.719   0.853   5.555
 4072TIP3    H112157   4.751   0.901   5.631
 4072TIP3    H212158   4.767   0.771   5.556
 4073TIP3   OH212159   2.058   2.328   2.424
 4073TIP3    H112160   2.145   2.287   2.430
 4073TIP3    H212161   2.000   2.257   2.398
 4074TIP3   OH212162   4.734   7.898   1.407
 4074TIP3    H112163   4.805   7.850   1.450
 4074TIP3    H212164   4.763   7.990   1.409
 4075TIP3   OH212165   1.841   3.190   5.854
 4075TIP3    H112166   1.758   3.199   5.899
 4075TIP3    H212167   1.890   3.269   5.878
 4076TIP3   OH212168   4.473   4.313   2.724
 4076TIP3    H112169   4.535   4.375   2.762
 4076TIP3    H212170   4.518   4.276   2.648
 4077TIP3   OH212171   0.155   1.762   4.921
 4077TIP3    H112172   0.134   1.672   4.898
 4077TIP3    H212173   0.250   1.767   4.918
 4078TIP3   OH212174   1.297   4.185   4.387
 4078TIP3    H112175   1.313   4.189   4.481
 4078TIP3    H212176   1.363   4.124   4.354
 4079TIP3   OH212177   7.465   2.313   0.611
 4079TIP3    H112178   7.413   2.370   0.555
 4079TIP3    H212179   7.540   2.367   0.637
 4080TIP3   OH212180   6.632   0.551   6.298
 4080TIP3    H112181   6.664   0.476   6.248
 4080TIP3    H212182   6.656   0.627   6.244
 4081TIP3   OH212183   3.560   0.380   3.795
 4081TIP3    H112184   3.555   0.285   3.783
 4081TIP3    H212185   3.522   0.395   3.882
 4082TIP3   OH212186   0.776   7.888   0.964
 4082TIP3    H112187   0.707   7.836   1.005
 4082TIP3    H212188   0.855   7.835   0.973
 4083TIP3   OH212189   0.196   6.530   3.329
 4083TIP3    H112190   0.206   6.612   3.379
 4083TIP3    H212191   0.116   6.491   3.365
 4084TIP3   OH212192   7.303   7.323   2.310
 4084TIP3    H112193   7.310   7.227   2.309
 4084TIP3    H212194   7.393   7.354   2.314
 4085TIP3   OH212195   7.566   2.769   0.894
 4085TIP3    H112196   7.630   2.724   0.839
 4085TIP3    H212197   7.607   2.774   0.980
 4086TIP3   OH212198   3.115   6.961   2.502
 4086TIP3    H112199   3.040   6.967   2.442
 4086TIP3    H212200   3.135   7.052   2.524
 4087TIP3   OH212201   4.528   2.551   5.245
 4087TIP3    H112202   4.518   2.460   5.219
 4087TIP3    H212203   4.450   2.571   5.296
 4088TIP3   OH212204   3.327   4.813   2.789
 4088TIP3    H112205   3.367   4.746   2.734
 4088TIP3    H212206   3.257   4.768   2.836
 4089TIP3   OH212207   7.019   5.442   0.248
 4089TIP3    H112208   6.938   5.492   0.238
 4089TIP3    H212209   7.021   5.420   0.342
 4090TIP3   OH212210   6.723   2.656   6.562
 4090TIP3    H112211   6.664   2.580   6.565
 4090TIP3    H212212   6.665   2.730   6.543
 4091TIP3   OH212213   0.482   5.874   4.661
 4091TIP3    H112214   0.562   5.822   4.654
 4091TIP3    H212215   0.416   5.821   4.617
 4092TIP3   OH212216   3.225   0.895   1.831
 4092TIP3    H112217   3.264   0.957   1.770
 4092TIP3    H212218   3.175   0.834   1.775
 4093TIP3   OH212219   1.183   6.430   0.460
 4093TIP3    H112220   1.112   6.476   0.415
 4093TIP3    H212221   1.148   6.342   0.476
 4094TIP3   OH212222   3.298   3.600   4.075
 4094TIP3    H112223   3.230   3.665   4.092
 4094TIP3    H212224   3.251   3.519   4.058
 4095TIP3   OH212225   2.716   4.867   4.635
 4095TIP3    H112226   2.698   4.782   4.675
 4095TIP3    H212227   2.777   4.909   4.696
 4096TIP3   OH212228   5.098   0.802   6.385
 4096TIP3    H112229   5.016   0.847   6.404
 4096TIP3    H212230   5.075   0.738   6.317
 4097TIP3   OH212231   5.088   5.694   5.357
 4097TIP3    H112232   5.010   5.645   5.383
 4097TIP3    H212233   5.081   5.777   5.406
 4098TIP3   OH212234   4.995   2.087   0.625
 4098TIP3    H112235   4.986   2.009   0.680
 4098TIP3    H212236   5.022   2.052   0.540
 4099TIP3   OH212237   5.517   7.245   4.843
 4099TIP3    H112238   5.555   7.183   4.781
 4099TIP3    H212239   5.485   7.317   4.788
 4100TIP3   OH212240   3.558   4.656   4.837
 4100TIP3    H112241   3.572   4.583   4.897
 4100TIP3    H212242   3.543   4.615   4.752
 4101TIP3   OH212243   3.240   2.576   0.631
 4101TIP3    H112244   3.308   2.638   0.657
 4101TIP3    H212245   3.273   2.491   0.657
 4102TIP3   OH212246   0.495   5.583   6.347
 4102TIP3    H112247   0.426   5.646   6.369
 4102TIP3    H212248   0.464   5.541   6.267
 4103TIP3   OH212249   7.305   0.420   3.336
 4103TIP3    H112250   7.330   0.339   3.291
 4103TIP3    H212251   7.271   0.390   3.421
 4104TIP3   OH212252   7.347   2.003   1.418
 4104TIP3    H112253   7.283   1.988   1.349
 4104TIP3    H212254   7.295   2.018   1.497
 4105TIP3   OH212255   0.957   6.045   0.552
 4105TIP3    H112256   0.985   6.110   0.487
 4105TIP3    H212257   0.934   5.968   0.499
 4106TIP3   OH212258   7.958   6.560   6.630
 4106TIP3    H112259   7.955   6.650   6.596
 4106TIP3    H212260   8.023   6.564   6.700
 4107TIP3   OH212261   0.876   1.448   4.469
 4107TIP3    H112262   0.805   1.443   4.533
 4107TIP3    H212263   0.925   1.367   4.481
 4108TIP3   OH212264   7.240   2.463   4.895
 4108TIP3    H112265   7.289   2.434   4.972
 4108TIP3    H212266   7.250   2.558   4.894
 4109TIP3   OH212267   3.031   4.707   2.304
 4109TIP3    H112268   3.019   4.654   2.383
 4109TIP3    H212269   3.115   4.751   2.318
 4110TIP3   OH212270   3.526   3.148   2.688
 4110TIP3    H112271   3.479   3.184   2.763
 4110TIP3    H212272   3.583   3.081   2.725
 4111TIP3   OH212273   4.588   5.167   5.875
 4111TIP3    H112274   4.523   5.203   5.935
 4111TIP3    H212275   4.589   5.073   5.893
 4112TIP3   OH212276   4.690   1.929   5.370
 4112TIP3    H112277   4.751   2.003   5.364
 4112TIP3    H212278   4.745   1.852   5.357
 4113TIP3   OH212279   4.696   6.172   3.629
 4113TIP3    H112280   4.751   6.100   3.598
 4113TIP3    H212281   4.755   6.226   3.682
 4114TIP3   OH212282   4.306   3.674   3.618
 4114TIP3    H112283   4.357   3.753   3.601
 4114TIP3    H212284   4.363   3.602   3.594
 4115TIP3   OH212285   3.821   0.722   1.025
 4115TIP3    H112286   3.905   0.768   1.029
 4115TIP3    H212287   3.784   0.733   1.112
 4116TIP3   OH212288   4.094   6.097   2.978
 4116TIP3    H112289   4.161   6.161   3.003
 4116TIP3    H212290   4.086   6.039   3.054
 4117TIP3   OH212291   0.391   4.008   0.059
 4117TIP3    H112292   0.486   4.015   0.067
 4117TIP3    H212293   0.374   4.021  -0.035
 4118TIP3   OH212294   8.238   6.616   5.857
 4118TIP3    H112295   8.266   6.653   5.773
 4118TIP3    H212296   8.318   6.587   5.899
 4119TIP3   OH212297   0.090   1.948   2.257
 4119TIP3    H112298   0.065   2.040   2.265
 4119TIP3    H212299   0.009   1.903   2.231
 4120TIP3   OH212300   7.698   2.448   6.448
 4120TIP3    H112301   7.767   2.381   6.439
 4120TIP3    H212302   7.725   2.501   6.523
 4121TIP3   OH212303   1.599   6.006   6.609
 4121TIP3    H112304   1.509   5.996   6.576
 4121TIP3    H212305   1.648   5.936   6.566
 4122TIP3   OH212306   5.076   1.635   2.687
 4122TIP3    H112307   5.149   1.682   2.647
 4122TIP3    H212308   5.102   1.543   2.684
 4123TIP3   OH212309   1.216   1.337   4.037
 4123TIP3    H112310   1.157   1.374   4.102
 4123TIP3    H212311   1.160   1.320   3.961
 4124TIP3   OH212312   1.860   1.155   2.926
 4124TIP3    H112313   1.932   1.149   2.863
 4124TIP3    H212314   1.809   1.075   2.912
 4125TIP3   OH212315   1.773   0.640   1.233
 4125TIP3    H112316   1.712   0.571   1.208
 4125TIP3    H212317   1.851   0.625   1.180
 4126TIP3   OH212318   0.970   2.549   1.083
 4126TIP3    H112319   1.057   2.584   1.103
 4126TIP3    H212320   0.959   2.476   1.144
 4127TIP3   OH212321   3.298   5.672   0.395
 4127TIP3    H112322   3.307   5.718   0.311
 4127TIP3    H212323   3.316   5.581   0.374
 4128TIP3   OH212324   3.250   6.893   3.277
 4128TIP3    H112325   3.324   6.843   3.313
 4128TIP3    H212326   3.291   6.961   3.223
 4129TIP3   OH212327   5.079   4.940   0.255
 4129TIP3    H112328   5.075   5.036   0.252
 4129TIP3    H212329   5.172   4.920   0.252
 4130TIP3   OH212330   0.190   5.501   4.550
 4130TIP3    H112331   0.229   5.414   4.548
 4130TIP3    H212332   0.134   5.500   4.627
 4131TIP3   OH212333   0.999   6.655   1.189
 4131TIP3    H112334   1.006   6.570   1.145
 4131TIP3    H212335   1.000   6.719   1.118
 4132TIP3   OH212336   8.359   2.297   6.012
 4132TIP3    H112337   8.306   2.225   6.046
 4132TIP3    H212338   8.392   2.265   5.928
 4133TIP3   OH212339   0.371   3.657   5.755
 4133TIP3    H112340   0.363   3.612   5.839
 4133TIP3    H212341   0.379   3.750   5.779
 4134TIP3   OH212342   0.267   3.220   3.684
 4134TIP3    H112343   0.305   3.252   3.602
 4134TIP3    H212344   0.197   3.282   3.704
 4135TIP3   OH212345   5.767   7.340   5.944
 4135TIP3    H112346   5.849   7.355   5.897
 4135TIP3    H212347   5.789   7.352   6.036
 4136TIP3   OH212348   2.913   2.175   4.070
 4136TIP3    H112349   2.832   2.226   4.066
 4136TIP3    H212350   2.983   2.240   4.059
 4137TIP3   OH212351   4.327   4.935   4.835
 4137TIP3    H112352   4.391   4.906   4.771
 4137TIP3    H212353   4.242   4.914   4.795
 4138TIP3   OH212354   7.475   5.043   1.099
 4138TIP3    H112355   7.508   5.044   1.009
 4138TIP3    H212356   7.440   5.131   1.113
 4139TIP3   OH212357   6.849   3.401   4.797
 4139TIP3    H112358   6.785   3.472   4.805
 4139TIP3    H212359   6.893   3.398   4.882
 4140TIP3   OH212360   3.024   7.041   4.959
 4140TIP3    H112361   3.103   7.075   4.917
 4140TIP3    H212362   2.996   7.110   5.019
 4141TIP3   OH212363   7.123   7.722   0.894
 4141TIP3    H112364   7.114   7.732   0.799
 4141TIP3    H212365   7.146   7.809   0.926
 4142TIP3   OH212366   0.305   7.550   0.166
 4142TIP3    H112367   0.368   7.536   0.236
 4142TIP3    H212368   0.340   7.501   0.092
 4143TIP3   OH212369   2.865   6.878   0.934
 4143TIP3    H112370   2.952   6.873   0.974
 4143TIP3    H212371   2.870   6.823   0.856
 4144TIP3   OH212372   5.051   3.606   1.685
 4144TIP3    H112373   5.097   3.689   1.698
 4144TIP3    H212374   5.094   3.567   1.609
 4145TIP3   OH212375   2.244   5.295   2.183
 4145TIP3    H112376   2.178   5.246   2.233
 4145TIP3    H212377   2.216   5.386   2.190
 4146TIP3   OH212378   0.057   1.181   5.045
 4146TIP3    H112379   0.107   1.214   5.119
 4146TIP3    H212380  -0.032   1.174   5.078
 4147TIP3   OH212381   8.303   1.797   3.880
 4147TIP3    H112382   8.380   1.834   3.923
 4147TIP3    H212383   8.283   1.718   3.931
 4148TIP3   OH212384   5.067   5.881   4.784
 4148TIP3    H112385   5.041   5.814   4.848
 4148TIP3    H212386   4.998   5.946   4.788
 4149TIP3   OH212387   3.932   3.471   1.336
 4149TIP3    H112388   3.976   3.454   1.420
 4149TIP3    H212389   3.905   3.384   1.306
 4150TIP3   OH212390   2.638   3.843   6.517
 4150TIP3    H112391   2.631   3.917   6.577
 4150TIP3    H212392   2.704   3.870   6.453
 4151TIP3   OH212393   0.032   7.152   4.219
 4151TIP3    H112394   0.060   7.219   4.157
 4151TIP3    H212395   0.026   7.198   4.303
 4152TIP3   OH212396   8.185   3.550   3.882
 4152TIP3    H112397   8.189   3.594   3.967
 4152TIP3    H212398   8.221   3.463   3.898
 4153TIP3   OH212399   2.935   1.751   0.376
 4153TIP3    H112400   2.873   1.717   0.441
 4153TIP3    H212401   2.897   1.725   0.292
 4154TIP3   OH212402   3.058   4.588   3.971
 4154TIP3    H112403   3.135   4.589   3.914
 4154TIP3    H212404   3.061   4.502   4.013
 4155TIP3   OH212405   2.177   3.912   5.622
 4155TIP3    H112406   2.168   3.851   5.695
 4155TIP3    H212407   2.101   3.894   5.566
 4156TIP3   OH212408   5.550   2.539   1.521
 4156TIP3    H112409   5.608   2.521   1.446
 4156TIP3    H212410   5.467   2.564   1.481
 4157TIP3   OH212411   0.460   6.377   5.080
 4157TIP3    H112412   0.369   6.354   5.068
 4157TIP3    H212413   0.505   6.342   5.003
 4158TIP3   OH212414   1.238   6.725   5.001
 4158TIP3    H112415   1.294   6.716   5.077
 4158TIP3    H212416   1.180   6.798   5.022
 4159TIP3   OH212417   2.734   6.842   2.244
 4159TIP3    H112418   2.766   6.763   2.288
 4159TIP3    H212419   2.639   6.827   2.237
 4160TIP3   OH212420   1.139   7.855   1.954
 4160TIP3    H112421   1.220   7.816   1.921
 4160TIP3    H212422   1.087   7.871   1.876
 4161TIP3   OH212423   2.597   6.041   5.145
 4161TIP3    H112424   2.623   6.054   5.237
 4161TIP3    H212425   2.502   6.044   5.147
 4162TIP3   OH212426   6.685   1.937   1.759
 4162TIP3    H112427   6.676   1.853   1.715
 4162TIP3    H212428   6.779   1.957   1.756
 4163TIP3   OH212429   1.652   7.788   2.321
 4163TIP3    H112430   1.717   7.718   2.322
 4163TIP3    H212431   1.689   7.857   2.377
 4164TIP3   OH212432   0.980   0.874   1.297
 4164TIP3    H112433   0.905   0.846   1.350
 4164TIP3    H212434   1.053   0.823   1.332
 4165TIP3   OH212435   6.924   6.888   0.044
 4165TIP3    H112436   6.856   6.845   0.097
 4165TIP3    H212437   6.875   6.937  -0.023
 4166TIP3   OH212438   2.158   6.006   6.567
 4166TIP3    H112439   2.112   5.995   6.651
 4166TIP3    H212440   2.247   5.977   6.585
 4167TIP3   OH212441   3.780   6.086   5.575
 4167TIP3    H112442   3.749   6.078   5.666
 4167TIP3    H212443   3.867   6.045   5.577
 4168TIP3   OH212444   7.930   3.487   0.409
 4168TIP3    H112445   7.852   3.433   0.425
 4168TIP3    H212446   7.990   3.428   0.363
 4169TIP3   OH212447   7.332   0.212   6.886
 4169TIP3    H112448   7.269   0.179   6.821
 4169TIP3    H212449   7.388   0.272   6.837
 4170TIP3   OH212450   2.910   4.408   4.521
 4170TIP3    H112451   2.975   4.338   4.507
 4170TIP3    H212452   2.956   4.472   4.576
 4171TIP3   OH212453   0.778   5.796   3.882
 4171TIP3    H112454   0.768   5.737   3.957
 4171TIP3    H212455   0.745   5.880   3.913
 4172TIP3   OH212456   3.248   6.009   4.580
 4172TIP3    H112457   3.203   6.036   4.659
 4172TIP3    H212458   3.329   5.969   4.611
 4173TIP3   OH212459   7.846   1.580   5.623
 4173TIP3    H112460   7.809   1.624   5.700
 4173TIP3    H212461   7.935   1.614   5.617
 4174TIP3   OH212462   1.878   5.576   3.140
 4174TIP3    H112463   1.905   5.661   3.175
 4174TIP3    H212464   1.783   5.573   3.154
 4175TIP3   OH212465   7.491   7.845   6.065
 4175TIP3    H112466   7.550   7.920   6.074
 4175TIP3    H212467   7.504   7.794   6.144
 4176TIP3   OH212468   6.857   6.286   6.785
 4176TIP3    H112469   6.809   6.229   6.845
 4176TIP3    H212470   6.790   6.319   6.725
 4177TIP3   OH212471   7.159   7.343   1.419
 4177TIP3    H112472   7.170   7.427   1.464
 4177TIP3    H212473   7.247   7.319   1.391
 4178TIP3   OH212474   4.832   1.146   1.108
 4178TIP3    H112475   4.877   1.230   1.095
 4178TIP3    H212476   4.739   1.169   1.104
 4179TIP3   OH212477   0.993   7.570   2.191
 4179TIP3    H112478   1.074   7.546   2.148
 4179TIP3    H212479   0.951   7.487   2.213
 4180TIP3   OH212480   5.924   7.634   2.257
 4180TIP3    H112481   6.002   7.677   2.294
 4180TIP3    H212482   5.912   7.557   2.312
 4181TIP3   OH212483   6.894   6.695   1.703
 4181TIP3    H112484   6.929   6.635   1.769
 4181TIP3    H212485   6.862   6.770   1.753
 4182TIP3   OH212486   6.953   4.871   5.500
 4182TIP3    H112487   6.959   4.964   5.482
 4182TIP3    H212488   6.985   4.862   5.590
 4183TIP3   OH212489   2.748   7.458   6.238
 4183TIP3    H112490   2.818   7.393   6.229
 4183TIP3    H212491   2.793   7.537   6.266
 4184TIP3   OH212492   0.477   3.376   5.505
 4184TIP3    H112493   0.469   3.463   5.467
 4184TIP3    H212494   0.571   3.365   5.521
 4185TIP3   OH212495   6.970   4.002   0.409
 4185TIP3    H112496   6.959   4.077   0.350
 4185TIP3    H212497   6.898   4.010   0.472
 4186TIP3   OH212498   0.351   1.244   1.220
 4186TIP3    H112499   0.305   1.216   1.300
 4186TIP3    H212500   0.428   1.292   1.252
 4187TIP3   OH212501   5.260   0.904   5.973
 4187TIP3    H112502   5.254   0.822   5.923
 4187TIP3    H212503   5.325   0.886   6.041
 4188TIP3   OH212504   1.249   3.217   0.471
 4188TIP3    H112505   1.208   3.138   0.435
 4188TIP3    H212506   1.301   3.187   0.545
 4189TIP3   OH212507   1.839   4.314   5.675
 4189TIP3    H112508   1.770   4.252   5.650
 4189TIP3    H212509   1.899   4.262   5.728
 4190TIP3   OH212510   6.320   4.721   3.692
 4190TIP3    H112511   6.357   4.801   3.730
 4190TIP3    H212512   6.252   4.694   3.754
 4191TIP3   OH212513   0.464   6.657   0.582
 4191TIP3    H112514   0.544   6.681   0.630
 4191TIP3    H212515   0.402   6.633   0.651
 4192TIP3   OH212516   1.395   2.635   0.228
 4192TIP3    H112517   1.474   2.673   0.190
 4192TIP3    H212518   1.427   2.571   0.291
 4193TIP3   OH212519   8.302   5.136   2.703
 4193TIP3    H112520   8.358   5.198   2.657
 4193TIP3    H212521   8.249   5.189   2.762
 4194TIP3   OH212522   7.054   5.888   5.318
 4194TIP3    H112523   7.080   5.875   5.409
 4194TIP3    H212524   7.056   5.983   5.307
 4195TIP3   OH212525   7.294   6.449   5.621
 4195TIP3    H112526   7.242   6.452   5.542
 4195TIP3    H212527   7.231   6.457   5.692
 4196TIP3   OH212528   2.092   2.342   2.719
 4196TIP3    H112529   2.116   2.316   2.630
 4196TIP3    H212530   1.998   2.322   2.725
 4197TIP3   OH212531   0.997   5.540   2.335
 4197TIP3    H112532   0.959   5.614   2.288
 4197TIP3    H212533   0.955   5.542   2.421
 4198TIP3   OH212534   5.328   2.815   0.583
 4198TIP3    H112535   5.306   2.725   0.608
 4198TIP3    H212536   5.423   2.818   0.587
 4199TIP3   OH212537   4.999   4.054   6.259
 4199TIP3    H112538   4.936   4.009   6.203
 4199TIP3    H212539   5.044   3.983   6.306
 4200TIP3   OH212540   3.107   6.875   1.092
 4200TIP3    H112541   3.099   6.925   1.174
 4200TIP3    H212542   3.106   6.783   1.120
 4201TIP3   OH212543   8.289   2.174   2.238
 4201TIP3    H112544   8.309   2.252   2.186
 4201TIP3    H212545   8.207   2.141   2.201
 4202TIP3   OH212546   1.244   5.540   1.546
 4202TIP3    H112547   1.296   5.467   1.511
 4202TIP3    H212548   1.178   5.557   1.478
 4203TIP3   OH212549   4.072   4.396   4.103
 4203TIP3    H112550   4.166   4.394   4.121
 4203TIP3    H212551   4.035   4.444   4.177
 4204TIP3   OH212552   1.877   3.062   1.909
 4204TIP3    H112553   1.787   3.033   1.928
 4204TIP3    H212554   1.867   3.125   1.837
 4205TIP3   OH212555   2.540   7.940   0.799
 4205TIP3    H112556   2.535   7.868   0.735
 4205TIP3    H212557   2.634   7.949   0.817
 4206TIP3   OH212558   2.739   5.719   4.155
 4206TIP3    H112559   2.758   5.737   4.247
 4206TIP3    H212560   2.801   5.651   4.130
 4207TIP3   OH212561   4.685   5.697   2.689
 4207TIP3    H112562   4.778   5.682   2.706
 4207TIP3    H212563   4.679   5.701   2.594
 4208TIP3   OH212564   2.420   5.615   4.042
 4208TIP3    H112565   2.472   5.551   4.091
 4208TIP3    H212566   2.361   5.654   4.107
 4209TIP3   OH212567   8.184   6.166   0.570
 4209TIP3    H112568   8.199   6.094   0.632
 4209TIP3    H212569   8.177   6.244   0.626
 4210TIP3   OH212570   6.826   5.098   5.712
 4210TIP3    H112571   6.757   5.164   5.725
 4210TIP3    H212572   6.856   5.076   5.800
 4211TIP3   OH212573   5.798   7.568   4.106
 4211TIP3    H112574   5.870   7.520   4.066
 4211TIP3    H212575   5.835   7.606   4.185
 4212TIP3   OH212576   5.856   1.426   1.148
 4212TIP3    H112577   5.872   1.514   1.184
 4212TIP3    H212578   5.819   1.377   1.221
 4213TIP3   OH212579   3.015   5.746   0.380
 4213TIP3    H112580   3.052   5.664   0.412
 4213TIP3    H212581   3.086   5.786   0.330
 4214TIP3   OH212582   0.729   2.754   5.548
 4214TIP3    H112583   0.749   2.672   5.593
 4214TIP3    H212584   0.666   2.798   5.605
 4215TIP3   OH212585   7.945   7.318   6.509
 4215TIP3    H112586   7.888   7.296   6.583
 4215TIP3    H212587   8.034   7.313   6.545
 4216TIP3   OH212588   1.129   2.970   3.391
 4216TIP3    H112589   1.074   3.011   3.324
 4216TIP3    H212590   1.117   2.876   3.377
 4217TIP3   OH212591   1.952   6.812   1.372
 4217TIP3    H112592   1.904   6.730   1.363
 4217TIP3    H212593   2.017   6.809   1.301
 4218TIP3   OH212594   5.997   3.936   3.085
 4218TIP3    H112595   5.975   3.865   3.145
 4218TIP3    H212596   5.920   3.992   3.085
 4219TIP3   OH212597   4.537   2.590   6.349
 4219TIP3    H112598   4.558   2.631   6.265
 4219TIP3    H212599   4.448   2.620   6.368
 4220TIP3   OH212600   1.469   1.851   5.662
 4220TIP3    H112601   1.374   1.838   5.670
 4220TIP3    H212602   1.508   1.776   5.706
 4221TIP3   OH212603   7.580   0.026   3.934
 4221TIP3    H112604   7.508  -0.037   3.933
 4221TIP3    H212605   7.620   0.014   4.020
 4222TIP3   OH212606   7.111   2.503   6.083
 4222TIP3    H112607   7.157   2.450   6.018
 4222TIP3    H212608   7.159   2.489   6.165
 4223TIP3   OH212609   0.319   1.774   1.196
 4223TIP3    H112610   0.289   1.688   1.226
 4223TIP3    H212611   0.279   1.836   1.257
 4224TIP3   OH212612   5.370   1.518   1.966
 4224TIP3    H112613   5.295   1.567   2.001
 4224TIP3    H212614   5.332   1.463   1.897
 4225TIP3   OH212615   1.930   4.733   3.958
 4225TIP3    H112616   1.978   4.799   3.909
 4225TIP3    H212617   1.970   4.734   4.045
 4226TIP3   OH212618   5.560   5.535   2.282
 4226TIP3    H112619   5.579   5.621   2.245
 4226TIP3    H212620   5.540   5.480   2.206
 4227TIP3   OH212621   5.195   1.428   6.644
 4227TIP3    H112622   5.166   1.457   6.731
 4227TIP3    H212623   5.128   1.367   6.616
 4228TIP3   OH212624   2.513   1.364   1.016
 4228TIP3    H112625   2.475   1.452   1.018
 4228TIP3    H212626   2.439   1.307   0.996
 4229TIP3   OH212627   6.617   3.713   2.117
 4229TIP3    H112628   6.699   3.730   2.163
 4229TIP3    H212629   6.570   3.652   2.174
 4230TIP3   OH212630   4.205   0.181   2.804
 4230TIP3    H112631   4.260   0.178   2.726
 4230TIP3    H212632   4.120   0.211   2.772
 4231TIP3   OH212633   3.705   5.568   5.403
 4231TIP3    H112634   3.714   5.623   5.481
 4231TIP3    H212635   3.653   5.621   5.342
 4232TIP3   OH212636   3.764   0.642   0.308
 4232TIP3    H112637   3.834   0.605   0.255
 4232TIP3    H212638   3.706   0.684   0.245
 4233TIP3   OH212639   4.909   2.479   3.471
 4233TIP3    H112640   4.863   2.426   3.537
 4233TIP3    H212641   4.947   2.415   3.411
 4234TIP3   OH212642   8.143   2.197   4.835
 4234TIP3    H112643   8.138   2.104   4.818
 4234TIP3    H212644   8.232   2.222   4.808
 4235TIP3   OH212645   6.323   3.205   2.123
 4235TIP3    H112646   6.279   3.133   2.168
 4235TIP3    H212647   6.405   3.217   2.171
 4236TIP3   OH212648   2.234   6.480   1.754
 4236TIP3    H112649   2.293   6.457   1.682
 4236TIP3    H212650   2.148   6.491   1.712
 4237TIP3   OH212651   5.274   3.901   0.680
 4237TIP3    H112652   5.224   3.823   0.707
 4237TIP3    H212653   5.313   3.876   0.596
 4238TIP3   OH212654   7.809   1.615   2.822
 4238TIP3    H112655   7.883   1.565   2.788
 4238TIP3    H212656   7.759   1.640   2.744
 4239TIP3   OH212657   6.221   2.715   3.415
 4239TIP3    H112658   6.232   2.750   3.326
 4239TIP3    H212659   6.224   2.620   3.403
 4240TIP3   OH212660   3.060   4.992   5.464
 4240TIP3    H112661   3.012   4.927   5.413
 4240TIP3    H212662   3.114   5.038   5.399
 4241TIP3   OH212663   1.684   7.255   5.045
 4241TIP3    H112664   1.751   7.314   5.078
 4241TIP3    H212665   1.716   7.227   4.959
 4242TIP3   OH212666   7.199   6.982   3.230
 4242TIP3    H112667   7.146   6.946   3.300
 4242TIP3    H212668   7.200   7.076   3.247
 4243TIP3   OH212669   2.143   0.221   3.988
 4243TIP3    H112670   2.190   0.303   3.976
 4243TIP3    H212671   2.052   0.243   3.969
 4244TIP3   OH212672   7.110   0.863   0.927
 4244TIP3    H112673   7.166   0.837   0.853
 4244TIP3    H212674   7.170   0.865   1.002
 4245TIP3   OH212675   2.377   6.812   5.836
 4245TIP3    H112676   2.385   6.812   5.741
 4245TIP3    H212677   2.445   6.752   5.866
 4246TIP3   OH212678   3.641   1.825   3.752
 4246TIP3    H112679   3.675   1.893   3.693
 4246TIP3    H212680   3.577   1.777   3.699
 4247TIP3   OH212681   0.764   0.663   0.149
 4247TIP3    H112682   0.843   0.633   0.193
 4247TIP3    H212683   0.694   0.612   0.188
 4248TIP3   OH212684   6.754   3.502   1.073
 4248TIP3    H112685   6.728   3.443   1.144
 4248TIP3    H212686   6.848   3.514   1.085
 4249TIP3   OH212687   1.768   3.629   0.658
 4249TIP3    H112688   1.753   3.548   0.707
 4249TIP3    H212689   1.858   3.655   0.681
 4250TIP3   OH212690   7.212   6.318   2.435
 4250TIP3    H112691   7.188   6.340   2.345
 4250TIP3    H212692   7.183   6.393   2.487
 4251TIP3   OH212693   5.816   1.523   4.925
 4251TIP3    H112694   5.862   1.592   4.973
 4251TIP3    H212695   5.883   1.482   4.872
 4252TIP3   OH212696   6.461   7.563   6.364
 4252TIP3    H112697   6.415   7.495   6.413
 4252TIP3    H212698   6.539   7.582   6.417
 4253TIP3   OH212699   4.325   3.867   4.809
 4253TIP3    H112700   4.323   3.944   4.753
 4253TIP3    H212701   4.234   3.857   4.838
 4254TIP3   OH212702   0.081   4.713   4.035
 4254TIP3    H112703   0.146   4.676   3.975
 4254TIP3    H212704  -0.002   4.707   3.988
 4255TIP3   OH212705   0.354   7.721   6.585
 4255TIP3    H112706   0.264   7.712   6.553
 4255TIP3    H212707   0.377   7.634   6.619
 4256TIP3   OH212708   3.192   5.488   6.310
 4256TIP3    H112709   3.108   5.535   6.318
 4256TIP3    H212710   3.179   5.429   6.236
 4257TIP3   OH212711   3.558   5.197   0.110
 4257TIP3    H112712   3.630   5.143   0.079
 4257TIP3    H212713   3.490   5.187   0.042
 4258TIP3   OH212714   1.855   6.064   1.802
 4258TIP3    H112715   1.943   6.025   1.803
 4258TIP3    H212716   1.807   6.015   1.868
 4259TIP3   OH212717   1.290   1.875   4.856
 4259TIP3    H112718   1.367   1.923   4.826
 4259TIP3    H212719   1.301   1.868   4.950
 4260TIP3   OH212720   2.388   3.183   0.086
 4260TIP3    H112721   2.478   3.152   0.088
 4260TIP3    H212722   2.375   3.213  -0.004
 4261TIP3   OH212723   1.136   1.968   3.594
 4261TIP3    H112724   1.104   2.051   3.628
 4261TIP3    H212725   1.214   1.990   3.544
 4262TIP3   OH212726   6.175   5.278   1.433
 4262TIP3    H112727   6.143   5.282   1.523
 4262TIP3    H212728   6.137   5.197   1.398
 4263TIP3   OH212729   4.522   6.798   2.842
 4263TIP3    H112730   4.586   6.867   2.860
 4263TIP3    H212731   4.453   6.842   2.791
 4264TIP3   OH212732   3.381   3.098   1.489
 4264TIP3    H112733   3.371   3.008   1.457
 4264TIP3    H212734   3.298   3.141   1.465
 4265TIP3   OH212735   0.515   4.553   1.052
 4265TIP3    H112736   0.554   4.515   0.974
 4265TIP3    H212737   0.582   4.544   1.120
 4266TIP3   OH212738   4.118   5.986   6.765
 4266TIP3    H112739   4.039   6.039   6.754
 4266TIP3    H212740   4.118   5.926   6.690
 4267TIP3   OH212741   7.963   7.588   0.186
 4267TIP3    H112742   8.017   7.609   0.262
 4267TIP3    H212743   8.017   7.614   0.111
 4268TIP3   OH212744   6.891   3.685   0.342
 4268TIP3    H112745   6.842   3.751   0.294
 4268TIP3    H212746   6.922   3.624   0.275
 4269TIP3   OH212747   6.155   6.142   3.938
 4269TIP3    H112748   6.146   6.232   3.972
 4269TIP3    H212749   6.083   6.094   3.980
 4270TIP3   OH212750   3.173   6.598   1.044
 4270TIP3    H112751   3.234   6.537   1.086
 4270TIP3    H212752   3.229   6.665   1.005
 4271TIP3   OH212753   0.297   7.206   4.885
 4271TIP3    H112754   0.293   7.242   4.974
 4271TIP3    H212755   0.214   7.232   4.845
 4272TIP3   OH212756   2.346   2.559   5.241
 4272TIP3    H112757   2.256   2.592   5.241
 4272TIP3    H212758   2.337   2.464   5.232
 4273TIP3   OH212759   8.097   6.674   3.171
 4273TIP3    H112760   8.129   6.733   3.102
 4273TIP3    H212761   8.029   6.724   3.215
 4274TIP3   OH212762   8.063   6.055   0.280
 4274TIP3    H112763   8.154   6.077   0.301
 4274TIP3    H212764   8.030   6.010   0.357
 4275TIP3   OH212765   0.547   7.128   6.623
 4275TIP3    H112766   0.601   7.129   6.544
 4275TIP3    H212767   0.458   7.144   6.591
 4276TIP3   OH212768   2.423   2.287   6.115
 4276TIP3    H112769   2.348   2.246   6.158
 4276TIP3    H212770   2.407   2.272   6.022
 4277TIP3   OH212771   5.530   4.590   4.232
 4277TIP3    H112772   5.455   4.648   4.249
 4277TIP3    H212773   5.530   4.578   4.137
 4278TIP3   OH212774   5.482   1.662   5.106
 4278TIP3    H112775   5.449   1.656   5.195
 4278TIP3    H212776   5.419   1.718   5.060
 4279TIP3   OH212777   6.555   3.460   0.793
 4279TIP3    H112778   6.497   3.503   0.857
 4279TIP3    H212779   6.520   3.372   0.785
 4280TIP3   OH212780   8.273   5.369   1.041
 4280TIP3    H112781   8.281   5.283   1.083
 4280TIP3    H212782   8.355   5.414   1.060
 4281TIP3   OH212783   7.758   7.009   6.524
 4281TIP3    H112784   7.718   7.095   6.539
 4281TIP3    H212785   7.847   7.028   6.496
 4282TIP3   OH212786   2.860   6.131   3.252
 4282TIP3    H112787   2.905   6.058   3.211
 4282TIP3    H212788   2.768   6.119   3.228
 4283TIP3   OH212789   4.099   7.160   1.435
 4283TIP3    H112790   4.186   7.157   1.475
 4283TIP3    H212791   4.062   7.073   1.451
 4284TIP3   OH212792   5.855   6.590   6.342
 4284TIP3    H112793   5.784   6.565   6.401
 4284TIP3    H212794   5.815   6.592   6.255
 4285TIP3   OH212795   5.570   5.996   3.595
 4285TIP3    H112796   5.591   5.919   3.648
 4285TIP3    H212797   5.596   5.972   3.506
 4286TIP3   OH212798   7.581   1.862   1.440
 4286TIP3    H112799   7.499   1.907   1.416
 4286TIP3    H212800   7.589   1.876   1.534
 4287TIP3   OH212801   4.440   5.936   5.792
 4287TIP3    H112802   4.467   5.965   5.704
 4287TIP3    H212803   4.482   5.851   5.803
 4288TIP3   OH212804   1.638   1.421   0.830
 4288TIP3    H112805   1.730   1.442   0.816
 4288TIP3    H212806   1.622   1.443   0.922
 4289TIP3   OH212807   4.741   0.602   3.835
 4289TIP3    H112808   4.773   0.514   3.857
 4289TIP3    H212809   4.804   0.661   3.876
 4290TIP3   OH212810   5.535   1.442   5.959
 4290TIP3    H112811   5.541   1.360   5.910
 4290TIP3    H212812   5.463   1.489   5.918
 4291TIP3   OH212813   4.166   2.954   5.630
 4291TIP3    H112814   4.139   2.862   5.631
 4291TIP3    H212815   4.140   2.986   5.544
 4292TIP3   OH212816   1.214   4.544   6.078
 4292TIP3    H112817   1.308   4.528   6.080
 4292TIP3    H212818   1.191   4.567   6.168
 4293TIP3   OH212819   6.684   2.952   0.551
 4293TIP3    H112820   6.591   2.938   0.535
 4293TIP3    H212821   6.704   3.033   0.505
 4294TIP3   OH212822   5.480   6.184   4.913
 4294TIP3    H112823   5.536   6.142   4.978
 4294TIP3    H212824   5.398   6.200   4.959
 4295TIP3   OH212825   5.940   3.999   1.419
 4295TIP3    H112826   5.898   4.064   1.363
 4295TIP3    H212827   6.033   4.018   1.412
 4296TIP3   OH212828   0.857   5.216   4.968
 4296TIP3    H112829   0.925   5.238   5.031
 4296TIP3    H212830   0.903   5.208   4.884
 4297TIP3   OH212831   2.628   3.072   4.004
 4297TIP3    H112832   2.578   3.150   4.027
 4297TIP3    H212833   2.716   3.104   3.985
 4298TIP3   OH212834   7.747   6.564   0.473
 4298TIP3    H112835   7.667   6.512   0.474
 4298TIP3    H212836   7.818   6.501   0.478
 4299TIP3   OH212837   1.897   7.257   4.267
 4299TIP3    H112838   1.862   7.323   4.327
 4299TIP3    H212839   1.859   7.280   4.182
 4300TIP3   OH212840   3.107   0.513   2.800
 4300TIP3    H112841   3.019   0.530   2.832
 4300TIP3    H212842   3.160   0.585   2.835
 4301TIP3   OH212843   7.730   0.873   1.862
 4301TIP3    H112844   7.726   0.958   1.818
 4301TIP3    H212845   7.665   0.879   1.932
 4302TIP3   OH212846   6.504   6.337   1.259
 4302TIP3    H112847   6.593   6.330   1.293
 4302TIP3    H212848   6.469   6.416   1.301
 4303TIP3   OH212849   8.369   1.845   0.683
 4303TIP3    H112850   8.379   1.792   0.604
 4303TIP3    H212851   8.453   1.889   0.693
 4304TIP3   OH212852   2.652   5.863   2.605
 4304TIP3    H112853   2.656   5.823   2.518
 4304TIP3    H212854   2.703   5.805   2.661
 4305TIP3   OH212855   3.841   3.962   1.456
 4305TIP3    H112856   3.771   3.958   1.521
 4305TIP3    H212857   3.922   3.951   1.506
 4306TIP3   OH212858   2.866   5.418   1.739
 4306TIP3    H112859   2.788   5.383   1.781
 4306TIP3    H212860   2.894   5.490   1.796
 4307TIP3   OH212861   4.438   2.222   1.026
 4307TIP3    H112862   4.461   2.229   1.119
 4307TIP3    H212863   4.522   2.220   0.981
 4308TIP3   OH212864   6.923   1.776   1.888
 4308TIP3    H112865   6.994   1.716   1.906
 4308TIP3    H212866   6.927   1.791   1.793
 4309TIP3   OH212867   5.934   4.093   1.020
 4309TIP3    H112868   5.922   4.171   0.966
 4309TIP3    H212869   6.027   4.075   1.015
 4310TIP3   OH212870   0.803   6.514   4.514
 4310TIP3    H112871   0.866   6.447   4.540
 4310TIP3    H212872   0.769   6.548   4.597
 4311TIP3   OH212873   4.948   5.554   1.372
 4311TIP3    H112874   4.915   5.619   1.434
 4311TIP3    H212875   4.945   5.598   1.287
 4312TIP3   OH212876   7.380   6.441   6.278
 4312TIP3    H112877   7.370   6.371   6.343
 4312TIP3    H212878   7.327   6.412   6.204
 4313TIP3   OH212879   6.832   5.623   4.064
 4313TIP3    H112880   6.843   5.696   4.125
 4313TIP3    H212881   6.741   5.595   4.077
 4314TIP3   OH212882   2.231   5.643   5.473
 4314TIP3    H112883   2.209   5.657   5.381
 4314TIP3    H212884   2.186   5.714   5.519
 4315TIP3   OH212885   4.079   4.240   2.224
 4315TIP3    H112886   4.122   4.256   2.140
 4315TIP3    H212887   4.042   4.324   2.249
 4316TIP3   OH212888   6.291   5.523   6.703
 4316TIP3    H112889   6.336   5.461   6.646
 4316TIP3    H212890   6.320   5.500   6.791
 4317TIP3   OH212891   2.704   3.947   5.573
 4317TIP3    H112892   2.679   4.038   5.591
 4317TIP3    H212893   2.758   3.951   5.494
 4318TIP3   OH212894   3.084   6.976   2.881
 4318TIP3    H112895   3.067   7.065   2.851
 4318TIP3    H212896   3.074   6.922   2.802
 4319TIP3   OH212897   3.873   6.440   1.502
 4319TIP3    H112898   3.786   6.452   1.465
 4319TIP3    H212899   3.933   6.456   1.428
 4320TIP3   OH212900   8.237   2.967   0.387
 4320TIP3    H112901   8.327   2.939   0.372
 4320TIP3    H212902   8.230   3.050   0.340
 4321TIP3   OH212903   3.683   0.752   6.659
 4321TIP3    H112904   3.730   0.816   6.607
 4321TIP3    H212905   3.751   0.704   6.706
 4322TIP3   OH212906   1.592   1.142   5.262
 4322TIP3    H112907   1.501   1.114   5.269
 4322TIP3    H212908   1.637   1.067   5.224
 4323TIP3   OH212909   5.956   1.067   0.213
 4323TIP3    H112910   6.042   1.102   0.189
 4323TIP3    H212911   5.960   0.975   0.189
 4324TIP3   OH212912   6.288   7.551   2.075
 4324TIP3    H112913   6.204   7.506   2.082
 4324TIP3    H212914   6.264   7.643   2.059
 4325TIP3   OH212915   4.762   2.748   4.961
 4325TIP3    H112916   4.813   2.785   4.889
 4325TIP3    H212917   4.679   2.796   4.959
 4326TIP3   OH212918   4.421   5.355   3.842
 4326TIP3    H112919   4.440   5.386   3.753
 4326TIP3    H212920   4.440   5.430   3.898
 4327TIP3   OH212921   0.965   4.425   0.514
 4327TIP3    H112922   1.037   4.475   0.555
 4327TIP3    H212923   1.009   4.357   0.463
 4328TIP3   OH212924   5.508   1.855   6.378
 4328TIP3    H112925   5.494   1.789   6.310
 4328TIP3    H212926   5.598   1.883   6.367
 4329TIP3   OH212927   0.579   4.779   1.764
 4329TIP3    H112928   0.550   4.699   1.720
 4329TIP3    H212929   0.675   4.774   1.763
 4330TIP3   OH212930   3.757   5.904   2.810
 4330TIP3    H112931   3.794   5.821   2.841
 4330TIP3    H212932   3.665   5.884   2.793
 4331TIP3   OH212933   2.050   4.143   5.780
 4331TIP3    H112934   2.122   4.189   5.822
 4331TIP3    H212935   2.094   4.079   5.722
 4332TIP3   OH212936   1.912   7.568   0.210
 4332TIP3    H112937   1.876   7.649   0.175
 4332TIP3    H212938   1.918   7.510   0.135
 4333TIP3   OH212939   0.082   0.516   4.046
 4333TIP3    H112940   0.153   0.516   4.111
 4333TIP3    H212941   0.057   0.608   4.038
 4334TIP3   OH212942   2.977   2.399   4.312
 4334TIP3    H112943   3.038   2.349   4.257
 4334TIP3    H212944   2.898   2.407   4.259
 4335TIP3   OH212945   3.023   4.204   5.663
 4335TIP3    H112946   3.108   4.176   5.628
 4335TIP3    H212947   3.033   4.198   5.758
 4336TIP3   OH212948   8.245   2.534   4.291
 4336TIP3    H112949   8.313   2.469   4.309
 4336TIP3    H212950   8.205   2.551   4.376
 4337TIP3   OH212951   6.243   1.694   1.440
 4337TIP3    H112952   6.297   1.765   1.407
 4337TIP3    H212953   6.166   1.737   1.476
 4338TIP3   OH212954   1.069   5.641   1.375
 4338TIP3    H112955   1.059   5.734   1.396
 4338TIP3    H212956   1.050   5.635   1.281
 4339TIP3   OH212957   6.697   6.503   5.515
 4339TIP3    H112958   6.763   6.572   5.504
 4339TIP3    H212959   6.666   6.513   5.605
 4340TIP3   OH212960   1.907   1.437   2.880
 4340TIP3    H112961   1.986   1.417   2.829
 4340TIP3    H212962   1.872   1.352   2.905
 4341TIP3   OH212963   5.707   2.194   3.185
 4341TIP3    H112964   5.793   2.203   3.145
 4341TIP3    H212965   5.725   2.184   3.279
 4342TIP3   OH212966   3.244   1.665   4.926
 4342TIP3    H112967   3.167   1.709   4.963
 4342TIP3    H212968   3.312   1.677   4.993
 4343TIP3   OH212969   7.915   4.486   6.559
 4343TIP3    H112970   7.917   4.456   6.650
 4343TIP3    H212971   7.847   4.433   6.518
 4344TIP3   OH212972   3.144   1.844   6.575
 4344TIP3    H112973   3.086   1.786   6.625
 4344TIP3    H212974   3.128   1.931   6.610
 4345TIP3   OH212975   2.970   4.053   6.724
 4345TIP3    H112976   2.875   4.064   6.729
 4345TIP3    H212977   3.003   4.089   6.806
 4346TIP3   OH212978   7.061   1.843   4.673
 4346TIP3    H112979   7.034   1.813   4.760
 4346TIP3    H212980   6.987   1.821   4.616
 4347TIP3   OH212981   5.953   5.120   6.257
 4347TIP3    H112982   5.915   5.186   6.199
 4347TIP3    H212983   5.973   5.046   6.200
 4348TIP3   OH212984   8.352   7.537   1.253
 4348TIP3    H112985   8.322   7.500   1.336
 4348TIP3    H212986   8.374   7.628   1.274
 4349TIP3   OH212987   4.654   6.547   6.191
 4349TIP3    H112988   4.578   6.554   6.248
 4349TIP3    H212989   4.690   6.460   6.209
 4350TIP3   OH212990   1.636   3.172   6.275
 4350TIP3    H112991   1.593   3.208   6.352
 4350TIP3    H212992   1.626   3.077   6.284
 4351TIP3   OH212993   7.498   7.654   2.215
 4351TIP3    H112994   7.549   7.735   2.222
 4351TIP3    H212995   7.549   7.589   2.263
 4352TIP3   OH212996   3.560   1.267   3.794
 4352TIP3    H112997   3.601   1.187   3.827
 4352TIP3    H212998   3.506   1.237   3.720
 4353TIP3   OH212999   1.434   7.140   3.531
 4353TIP3    H113000   1.411   7.080   3.601
 4353TIP3    H213001   1.458   7.084   3.458
 4354TIP3   OH213002   1.208   2.997   0.753
 4354TIP3    H113003   1.237   3.031   0.838
 4354TIP3    H213004   1.119   2.966   0.769
 4355TIP3   OH213005   3.048   1.731   3.790
 4355TIP3    H113006   3.123   1.713   3.732
 4355TIP3    H213007   3.025   1.822   3.772
 4356TIP3   OH213008   4.795   4.351   4.473
 4356TIP3    H113009   4.875   4.398   4.449
 4356TIP3    H213010   4.824   4.279   4.528
 4357TIP3   OH213011   4.471   7.043   6.052
 4357TIP3    H113012   4.402   7.012   6.111
 4357TIP3    H213013   4.536   7.082   6.110
 4358TIP3   OH213014   1.367   3.891   2.500
 4358TIP3    H113015   1.306   3.819   2.489
 4358TIP3    H213016   1.339   3.956   2.436
 4359TIP3   OH213017   7.562   2.823   2.333
 4359TIP3    H113018   7.528   2.777   2.256
 4359TIP3    H213019   7.492   2.819   2.398
 4360TIP3   OH213020   4.363   1.026   0.457
 4360TIP3    H113021   4.320   1.080   0.523
 4360TIP3    H213022   4.408   1.088   0.400
 4361TIP3   OH213023   7.773   2.512   4.591
 4361TIP3    H113024   7.821   2.434   4.620
 4361TIP3    H213025   7.798   2.524   4.500
 4362TIP3   OH213026   6.614   3.305   4.005
 4362TIP3    H113027   6.650   3.283   4.091
 4362TIP3    H213028   6.573   3.225   3.974
 4363TIP3   OH213029   1.534   3.015   2.507
 4363TIP3    H113030   1.580   3.038   2.427
 4363TIP3    H213031   1.565   3.077   2.572
 4364TIP3   OH213032   6.881   0.419   5.031
 4364TIP3    H113033   6.834   0.411   4.948
 4364TIP3    H213034   6.970   0.444   5.006
 4365TIP3   OH213035   1.488   3.263   1.137
 4365TIP3    H113036   1.508   3.244   1.228
 4365TIP3    H213037   1.573   3.280   1.096
 4366TIP3   OH213038   3.846   3.409   3.935
 4366TIP3    H113039   3.756   3.380   3.921
 4366TIP3    H213040   3.889   3.397   3.850
 4367TIP3   OH213041   5.621   2.134   6.124
 4367TIP3    H113042   5.693   2.093   6.172
 4367TIP3    H213043   5.651   2.137   6.033
 4368TIP3   OH213044   0.960   7.510   6.522
 4368TIP3    H113045   1.016   7.584   6.498
 4368TIP3    H213046   1.000   7.475   6.602
 4369TIP3   OH213047   4.307   0.300   0.041
 4369TIP3    H113048   4.277   0.387   0.067
 4369TIP3    H213049   4.251   0.276  -0.033
 4370TIP3   OH213050   3.919   4.807   2.927
 4370TIP3    H113051   3.944   4.835   2.839
 4370TIP3    H213052   3.843   4.750   2.913
 4371TIP3   OH213053   4.505   7.181   0.290
 4371TIP3    H113054   4.451   7.259   0.287
 4371TIP3    H213055   4.595   7.213   0.277
 4372TIP3   OH213056   4.263   4.863   1.663
 4372TIP3    H113057   4.185   4.817   1.631
 4372TIP3    H213058   4.235   4.902   1.746
 4373TIP3   OH213059   4.481   3.731   1.086
 4373TIP3    H113060   4.535   3.752   1.010
 4373TIP3    H213061   4.486   3.809   1.142
 4374TIP3   OH213062   1.481   4.403   0.192
 4374TIP3    H113063   1.413   4.338   0.207
 4374TIP3    H213064   1.563   4.357   0.210
 4375TIP3   OH213065   2.804   5.878   1.956
 4375TIP3    H113066   2.728   5.851   1.905
 4375TIP3    H213067   2.818   5.969   1.932
 4376TIP3   OH213068   3.036   4.114   5.157
 4376TIP3    H113069   3.071   4.202   5.144
 4376TIP3    H213070   3.112   4.060   5.178
 4377TIP3   OH213071   3.753   7.384   6.571
 4377TIP3    H113072   3.665   7.377   6.534
 4377TIP3    H213073   3.768   7.478   6.581
 4378TIP3   OH213074   2.496   5.233   3.944
 4378TIP3    H113075   2.535   5.308   3.988
 4378TIP3    H213076   2.565   5.167   3.942
 4379TIP3   OH213077   8.058   7.369   1.665
 4379TIP3    H113078   7.973   7.332   1.688
 4379TIP3    H213079   8.116   7.343   1.737
 4380TIP3   OH213080   2.939   6.241   1.073
 4380TIP3    H113081   3.006   6.254   1.005
 4380TIP3    H213082   2.920   6.330   1.104
 4381TIP3   OH213083   4.804   1.317   4.574
 4381TIP3    H113084   4.862   1.291   4.646
 4381TIP3    H213085   4.793   1.237   4.523
 4382TIP3   OH213086   4.425   5.729   2.048
 4382TIP3    H113087   4.458   5.708   1.960
 4382TIP3    H213088   4.342   5.774   2.031
 4383TIP3   OH213089   0.978   1.488   0.199
 4383TIP3    H113090   0.950   1.396   0.202
 4383TIP3    H213091   1.031   1.495   0.120
 4384TIP3   OH213092   4.540   2.240   5.247
 4384TIP3    H113093   4.567   2.157   5.208
 4384TIP3    H213094   4.445   2.236   5.250
 4385TIP3   OH213095   1.044   5.970   5.260
 4385TIP3    H113096   0.949   5.965   5.271
 4385TIP3    H213097   1.079   5.944   5.346
 4386TIP3   OH213098   4.733   5.946   5.716
 4386TIP3    H113099   4.695   6.028   5.749
 4386TIP3    H213100   4.750   5.894   5.795
 4387TIP3   OH213101   6.129   1.837   0.001
 4387TIP3    H113102   6.131   1.812   0.093
 4387TIP3    H213103   6.208   1.888  -0.012
 4388TIP3   OH213104   3.622   2.300   1.502
 4388TIP3    H113105   3.689   2.232   1.493
 4388TIP3    H213106   3.667   2.374   1.542
 4389TIP3   OH213107   3.231   4.037   1.171
 4389TIP3    H113108   3.217   4.028   1.266
 4389TIP3    H213109   3.285   3.962   1.148
 4390TIP3   OH213110   7.890   4.033   6.364
 4390TIP3    H113111   7.936   4.073   6.291
 4390TIP3    H213112   7.797   4.051   6.347
 4391TIP3   OH213113   0.098   7.649   6.451
 4391TIP3    H113114   0.081   7.556   6.463
 4391TIP3    H213115   0.017   7.682   6.411
 4392TIP3   OH213116   7.631   2.202   4.074
 4392TIP3    H113117   7.571   2.224   4.002
 4392TIP3    H213118   7.645   2.107   4.064
 4393TIP3   OH213119   2.335   2.315   6.486
 4393TIP3    H113120   2.289   2.270   6.415
 4393TIP3    H213121   2.287   2.290   6.565
 4394TIP3   OH213122   1.090   1.685   0.388
 4394TIP3    H113123   1.039   1.619   0.340
 4394TIP3    H213124   1.164   1.704   0.331
 4395TIP3   OH213125   5.326   2.084   1.084
 4395TIP3    H113126   5.371   2.168   1.090
 4395TIP3    H213127   5.323   2.065   0.990
 4396TIP3   OH213128   3.292   6.682   5.554
 4396TIP3    H113129   3.251   6.707   5.636
 4396TIP3    H213130   3.221   6.643   5.503
 4397TIP3   OH213131   4.795   1.905   0.131
 4397TIP3    H113132   4.836   1.821   0.109
 4397TIP3    H213133   4.747   1.887   0.212
 4398TIP3   OH213134   7.205   5.924   6.014
 4398TIP3    H113135   7.128   5.932   5.959
 4398TIP3    H213136   7.218   6.012   6.050
 4399TIP3   OH213137   7.491   3.423   4.760
 4399TIP3    H113138   7.487   3.484   4.832
 4399TIP3    H213139   7.413   3.368   4.769
 4400TIP3   OH213140   5.326   1.545   4.706
 4400TIP3    H113141   5.395   1.599   4.669
 4400TIP3    H213142   5.270   1.523   4.631
 4401TIP3   OH213143   3.006   4.760   1.724
 4401TIP3    H113144   3.099   4.767   1.747
 4401TIP3    H213145   2.978   4.850   1.710
 4402TIP3   OH213146   4.754   6.575   0.674
 4402TIP3    H113147   4.730   6.581   0.581
 4402TIP3    H213148   4.745   6.665   0.706
 4403TIP3   OH213149   7.268   3.858   0.134
 4403TIP3    H113150   7.293   3.766   0.145
 4403TIP3    H213151   7.275   3.894   0.223
 4404TIP3   OH213152   5.242   5.735   3.530
 4404TIP3    H113153   5.157   5.748   3.486
 4404TIP3    H213154   5.226   5.664   3.592
 4405TIP3   OH213155   2.876   7.870   2.468
 4405TIP3    H113156   2.795   7.826   2.494
 4405TIP3    H213157   2.847   7.944   2.415
 4406TIP3   OH213158   3.852   7.362   2.878
 4406TIP3    H113159   3.908   7.298   2.922
 4406TIP3    H213160   3.767   7.351   2.919
 4407TIP3   OH213161   7.099   1.588   1.957
 4407TIP3    H113162   7.190   1.584   1.987
 4407TIP3    H213163   7.048   1.565   2.035
 4408TIP3   OH213164   3.324   3.921   2.752
 4408TIP3    H113165   3.349   3.960   2.668
 4408TIP3    H213166   3.376   3.968   2.817
 4409TIP3   OH213167   1.384   2.625   4.817
 4409TIP3    H113168   1.418   2.710   4.844
 4409TIP3    H213169   1.359   2.637   4.725
 4410TIP3   OH213170   6.590   3.110   3.223
 4410TIP3    H113171   6.563   3.172   3.291
 4410TIP3    H213172   6.606   3.165   3.146
 4411TIP3   OH213173   3.698   3.868   1.691
 4411TIP3    H113174   3.675   3.793   1.636
 4411TIP3    H213175   3.769   3.837   1.747
 4412TIP3   OH213176   0.370   3.997   2.675
 4412TIP3    H113177   0.305   4.060   2.642
 4412TIP3    H213178   0.440   4.052   2.710
 4413TIP3   OH213179   0.953   7.400   0.592
 4413TIP3    H113180   0.948   7.314   0.634
 4413TIP3    H213181   0.873   7.445   0.620
 4414TIP3   OH213182   6.452   0.530   5.493
 4414TIP3    H113183   6.370   0.484   5.512
 4414TIP3    H213184   6.512   0.460   5.467
 4415TIP3   OH213185   0.278   2.973   4.082
 4415TIP3    H113186   0.333   3.019   4.019
 4415TIP3    H213187   0.335   2.904   4.117
 4416TIP3   OH213188   6.022   5.826   0.387
 4416TIP3    H113189   5.995   5.812   0.296
 4416TIP3    H213190   5.956   5.886   0.422
 4417TIP3   OH213191   5.392   6.188   3.421
 4417TIP3    H113192   5.419   6.118   3.481
 4417TIP3    H213193   5.441   6.171   3.340
 4418TIP3   OH213194   4.711   2.133   0.655
 4418TIP3    H113195   4.790   2.143   0.602
 4418TIP3    H213196   4.708   2.041   0.679
 4419TIP3   OH213197   3.697   2.017   6.832
 4419TIP3    H113198   3.758   2.087   6.856
 4419TIP3    H213199   3.745   1.936   6.849
 4420TIP3   OH213200   5.197   3.133   6.136
 4420TIP3    H113201   5.229   3.193   6.069
 4420TIP3    H213202   5.214   3.178   6.219
 4421TIP3   OH213203   1.946   2.038   6.451
 4421TIP3    H113204   2.033   1.999   6.457
 4421TIP3    H213205   1.949   2.113   6.510
 4422TIP3   OH213206   6.395   1.676   0.180
 4422TIP3    H113207   6.403   1.763   0.141
 4422TIP3    H213208   6.424   1.616   0.112
 4423TIP3   OH213209   5.135   3.522   5.400
 4423TIP3    H113210   5.099   3.600   5.444
 4423TIP3    H213211   5.095   3.448   5.446
 4424TIP3   OH213212   0.621   7.732   4.879
 4424TIP3    H113213   0.576   7.809   4.847
 4424TIP3    H213214   0.709   7.738   4.842
 4425TIP3   OH213215   7.741   5.381   2.942
 4425TIP3    H113216   7.810   5.316   2.946
 4425TIP3    H213217   7.664   5.337   2.979
 4426TIP3   OH213218   8.275   0.649   5.779
 4426TIP3    H113219   8.311   0.719   5.834
 4426TIP3    H213220   8.271   0.573   5.837
 4427TIP3   OH213221   1.984   5.088   6.139
 4427TIP3    H113222   1.965   5.036   6.061
 4427TIP3    H213223   2.072   5.062   6.165
 4428TIP3   OH213224   3.738   2.615   4.318
 4428TIP3    H113225   3.812   2.596   4.260
 4428TIP3    H213226   3.748   2.709   4.338
 4429TIP3   OH213227   0.027   2.176   5.790
 4429TIP3    H113228  -0.006   2.094   5.827
 4429TIP3    H213229  -0.012   2.180   5.703
 4430TIP3   OH213230   3.072   3.839   4.786
 4430TIP3    H113231   3.086   3.757   4.834
 4430TIP3    H213232   2.979   3.837   4.763
 4431TIP3   OH213233   3.728   6.580   2.618
 4431TIP3    H113234   3.703   6.659   2.571
 4431TIP3    H213235   3.674   6.511   2.580
 4432TIP3   OH213236   0.669   1.432   3.278
 4432TIP3    H113237   0.629   1.488   3.344
 4432TIP3    H213238   0.763   1.451   3.285
 4433TIP3   OH213239   0.910   6.070   2.243
 4433TIP3    H113240   0.969   6.145   2.247
 4433TIP3    H213241   0.835   6.095   2.296
 4434TIP3   OH213242   8.152   4.580   3.214
 4434TIP3    H113243   8.170   4.655   3.270
 4434TIP3    H213244   8.157   4.614   3.124
 4435TIP3   OH213245   3.548   3.975   6.146
 4435TIP3    H113246   3.542   3.883   6.170
 4435TIP3    H213247   3.641   3.990   6.131
 4436TIP3   OH213248   2.775   5.486   5.155
 4436TIP3    H113249   2.704   5.425   5.133
 4436TIP3    H213250   2.823   5.443   5.225
 4437TIP3   OH213251   3.843   3.516   5.142
 4437TIP3    H113252   3.911   3.516   5.210
 4437TIP3    H213253   3.824   3.608   5.126
 4438TIP3   OH213254   7.577   6.625   2.341
 4438TIP3    H113255   7.610   6.546   2.297
 4438TIP3    H213256   7.534   6.675   2.271
 4439TIP3   OH213257   0.464   1.539   4.462
 4439TIP3    H113258   0.522   1.615   4.470
 4439TIP3    H213259   0.520   1.464   4.485
 4440TIP3   OH213260   5.292   0.450   1.405
 4440TIP3    H113261   5.352   0.518   1.377
 4440TIP3    H213262   5.319   0.372   1.357
 4441TIP3   OH213263   5.173   1.204   3.308
 4441TIP3    H113264   5.128   1.180   3.227
 4441TIP3    H213265   5.202   1.120   3.345
 4442TIP3   OH213266   5.403   2.408   5.294
 4442TIP3    H113267   5.468   2.459   5.342
 4442TIP3    H213268   5.355   2.473   5.242
 4443TIP3   OH213269   1.818   6.406   4.032
 4443TIP3    H113270   1.885   6.475   4.031
 4443TIP3    H213271   1.741   6.446   3.992
 4444TIP3   OH213272   7.140   5.025   1.894
 4444TIP3    H113273   7.113   4.936   1.871
 4444TIP3    H213274   7.091   5.045   1.974
 4445TIP3   OH213275   3.970   3.547   2.407
 4445TIP3    H113276   4.022   3.491   2.465
 4445TIP3    H213277   3.888   3.499   2.395
 4446TIP3   OH213278   6.997   3.842   5.788
 4446TIP3    H113279   6.977   3.860   5.880
 4446TIP3    H213280   7.023   3.750   5.787
 4447TIP3   OH213281   1.426   6.946   2.899
 4447TIP3    H113282   1.489   6.941   2.826
 4447TIP3    H213283   1.359   7.006   2.868
 4448TIP3   OH213284   1.628   3.140   4.301
 4448TIP3    H113285   1.566   3.172   4.367
 4448TIP3    H213286   1.713   3.143   4.346
 4449TIP3   OH213287   2.303   0.427   4.930
 4449TIP3    H113288   2.247   0.385   4.995
 4449TIP3    H213289   2.315   0.516   4.962
 4450TIP3   OH213290   1.702   3.462   1.100
 4450TIP3    H113291   1.739   3.374   1.113
 4450TIP3    H213292   1.721   3.508   1.182
 4451TIP3   OH213293   6.394   7.003   6.065
 4451TIP3    H113294   6.314   6.951   6.055
 4451TIP3    H213295   6.363   7.093   6.077
 4452TIP3   OH213296   4.618   7.365   3.664
 4452TIP3    H113297   4.556   7.353   3.591
 4452TIP3    H213298   4.684   7.297   3.649
 4453TIP3   OH213299   4.210   0.640   3.777
 4453TIP3    H113300   4.275   0.707   3.799
 4453TIP3    H213301   4.227   0.618   3.686
 4454TIP3   OH213302   2.172   3.583   4.104
 4454TIP3    H113303   2.186   3.510   4.044
 4454TIP3    H213304   2.109   3.549   4.168
 4455TIP3   OH213305   2.734   3.328   2.718
 4455TIP3    H113306   2.705   3.265   2.652
 4455TIP3    H213307   2.690   3.301   2.798
 4456TIP3   OH213308   1.871   7.619   5.256
 4456TIP3    H113309   1.963   7.642   5.266
 4456TIP3    H213310   1.862   7.534   5.298
 4457TIP3   OH213311   5.137   3.317   4.806
 4457TIP3    H113312   5.221   3.325   4.760
 4457TIP3    H213313   5.128   3.400   4.853
 4458TIP3   OH213314   0.325   1.905   6.637
 4458TIP3    H113315   0.353   1.835   6.696
 4458TIP3    H213316   0.274   1.861   6.570
 4459TIP3   OH213317   2.393   7.106   3.107
 4459TIP3    H113318   2.338   7.137   3.035
 4459TIP3    H213319   2.452   7.179   3.126
 4460TIP3   OH213320   5.722   0.861   5.065
 4460TIP3    H113321   5.709   0.947   5.106
 4460TIP3    H213322   5.816   0.858   5.047
 4461TIP3   OH213323   4.817   3.562   4.131
 4461TIP3    H113324   4.760   3.628   4.172
 4461TIP3    H213325   4.857   3.607   4.057
 4462TIP3   OH213326   1.993   3.010   4.658
 4462TIP3    H113327   1.970   2.972   4.743
 4462TIP3    H213328   1.909   3.023   4.614
 4463TIP3   OH213329   0.401   5.950   5.995
 4463TIP3    H113330   0.419   6.024   5.938
 4463TIP3    H213331   0.424   5.980   6.083
 4464TIP3   OH213332   7.434   7.527   6.202
 4464TIP3    H113333   7.392   7.486   6.126
 4464TIP3    H213334   7.482   7.456   6.244
 4465TIP3   OH213335   5.697   3.390   0.428
 4465TIP3    H113336   5.631   3.447   0.467
 4465TIP3    H213337   5.778   3.440   0.432
 4466TIP3   OH213338   1.496   1.673   6.827
 4466TIP3    H113339   1.454   1.689   6.911
 4466TIP3    H213340   1.446   1.726   6.764
 4467TIP3   OH213341   0.233   2.590   6.567
 4467TIP3    H113342   0.181   2.565   6.643
 4467TIP3    H213343   0.175   2.577   6.492
 4468TIP3   OH213344   2.736   1.879   1.905
 4468TIP3    H113345   2.683   1.807   1.872
 4468TIP3    H213346   2.764   1.926   1.826
 4469TIP3   OH213347   7.638   7.783   3.754
 4469TIP3    H113348   7.639   7.777   3.849
 4469TIP3    H213349   7.716   7.734   3.726
 4470TIP3   OH213350   6.505   6.280   3.337
 4470TIP3    H113351   6.570   6.325   3.283
 4470TIP3    H213352   6.446   6.349   3.366
 4471TIP3   OH213353   6.826   4.451   6.765
 4471TIP3    H113354   6.746   4.444   6.711
 4471TIP3    H213355   6.880   4.514   6.718
 4472TIP3   OH213356   7.636   3.546   6.218
 4472TIP3    H113357   7.653   3.457   6.246
 4472TIP3    H213358   7.594   3.537   6.132
 4473TIP3   OH213359   2.064   7.747   3.858
 4473TIP3    H113360   2.077   7.654   3.839
 4473TIP3    H213361   2.028   7.749   3.946
 4474TIP3   OH213362   5.950   0.724   2.053
 4474TIP3    H113363   5.891   0.650   2.048
 4474TIP3    H213364   6.027   0.698   2.002
 4475TIP3   OH213365   4.109   6.497   5.841
 4475TIP3    H113366   4.089   6.420   5.893
 4475TIP3    H213367   4.025   6.523   5.802
 4476TIP3   OH213368   3.040   0.460   6.456
 4476TIP3    H113369   3.069   0.527   6.394
 4476TIP3    H213370   3.121   0.424   6.491
 4477TIP3   OH213371   5.302   5.016   4.510
 4477TIP3    H113372   5.224   5.039   4.460
 4477TIP3    H213373   5.268   4.982   4.593
 4478TIP3   OH213374   6.829   5.751   4.619
 4478TIP3    H113375   6.893   5.772   4.552
 4478TIP3    H213376   6.863   5.672   4.661
 4479TIP3   OH213377   2.799   5.685   0.231
 4479TIP3    H113378   2.849   5.719   0.305
 4479TIP3    H213379   2.786   5.593   0.251
 4480TIP3   OH213380   6.475   1.502   4.751
 4480TIP3    H113381   6.495   1.431   4.690
 4480TIP3    H213382   6.428   1.566   4.699
 4481TIP3   OH213383   3.292   4.801   2.263
 4481TIP3    H113384   3.305   4.710   2.236
 4481TIP3    H213385   3.378   4.829   2.295
 4482TIP3   OH213386   5.733   6.814   5.462
 4482TIP3    H113387   5.670   6.883   5.442
 4482TIP3    H213388   5.796   6.817   5.390
 4483TIP3   OH213389   4.366   5.453   3.286
 4483TIP3    H113390   4.345   5.539   3.249
 4483TIP3    H213391   4.292   5.398   3.263
 4484TIP3   OH213392   4.165   3.478   3.436
 4484TIP3    H113393   4.179   3.538   3.509
 4484TIP3    H213394   4.243   3.486   3.382
 4485TIP3   OH213395   5.043   4.531   1.303
 4485TIP3    H113396   5.083   4.611   1.337
 4485TIP3    H213397   5.075   4.462   1.361
 4486TIP3   OH213398   4.956   5.568   0.057
 4486TIP3    H113399   4.873   5.612   0.037
 4486TIP3    H213400   4.935   5.475   0.061
 4487TIP3   OH213401   2.903   5.786   3.526
 4487TIP3    H113402   2.966   5.858   3.523
 4487TIP3    H213403   2.829   5.820   3.574
 4488TIP3   OH213404   6.039   1.722   4.619
 4488TIP3    H113405   6.075   1.695   4.534
 4488TIP3    H213406   5.956   1.675   4.626
 4489TIP3   OH213407   7.833   4.796   0.317
 4489TIP3    H113408   7.765   4.863   0.317
 4489TIP3    H213409   7.785   4.713   0.321
 4490TIP3   OH213410   4.078   3.941   3.682
 4490TIP3    H113411   4.146   4.004   3.659
 4490TIP3    H213412   4.019   3.941   3.606
 4491TIP3   OH213413   5.837   1.348   0.412
 4491TIP3    H113414   5.790   1.423   0.377
 4491TIP3    H213415   5.908   1.332   0.349
 4492TIP3   OH213416   7.640   2.500   6.772
 4492TIP3    H113417   7.675   2.413   6.753
 4492TIP3    H213418   7.712   2.547   6.813
 4493TIP3   OH213419   5.794   7.838   0.884
 4493TIP3    H113420   5.782   7.920   0.932
 4493TIP3    H213421   5.883   7.843   0.850
 4494TIP3   OH213422   4.626   5.897   6.687
 4494TIP3    H113423   4.649   5.894   6.595
 4494TIP3    H213424   4.543   5.849   6.693
 4495TIP3   OH213425   0.457   6.316   0.394
 4495TIP3    H113426   0.483   6.276   0.311
 4495TIP3    H213427   0.504   6.400   0.396
 4496TIP3   OH213428   6.568   1.184   1.330
 4496TIP3    H113429   6.604   1.145   1.251
 4496TIP3    H213430   6.512   1.255   1.298
 4497TIP3   OH213431   2.992   1.338   1.235
 4497TIP3    H113432   2.898   1.322   1.244
 4497TIP3    H213433   3.003   1.430   1.259
 4498TIP3   OH213434   7.508   3.744   5.502
 4498TIP3    H113435   7.519   3.836   5.526
 4498TIP3    H213436   7.420   3.722   5.531
 4499TIP3   OH213437   2.411   7.575   0.963
 4499TIP3    H113438   2.437   7.485   0.981
 4499TIP3    H213439   2.319   7.579   0.991
 4500TIP3   OH213440   3.029   4.589   0.318
 4500TIP3    H113441   2.971   4.625   0.251
 4500TIP3    H213442   2.971   4.570   0.392
 4501TIP3   OH213443   2.473   7.704   5.375
 4501TIP3    H113444   2.493   7.646   5.301
 4501TIP3    H213445   2.415   7.771   5.338
 4502TIP3   OH213446   8.255   4.309   6.170
 4502TIP3    H113447   8.212   4.385   6.210
 4502TIP3    H213448   8.189   4.240   6.173
 4503TIP3   OH213449   2.662   7.139   4.887
 4503TIP3    H113450   2.673   7.066   4.948
 4503TIP3    H213451   2.729   7.125   4.820
 4504TIP3   OH213452   0.601   6.348   3.495
 4504TIP3    H113453   0.629   6.396   3.573
 4504TIP3    H213454   0.672   6.362   3.432
 4505TIP3   OH213455   2.076   7.711   0.715
 4505TIP3    H113456   2.037   7.795   0.688
 4505TIP3    H213457   2.134   7.687   0.643
 4506TIP3   OH213458   0.346   6.558   4.853
 4506TIP3    H113459   0.432   6.579   4.816
 4506TIP3    H213460   0.338   6.463   4.843
 4507TIP3   OH213461   5.577   1.351   4.776
 4507TIP3    H113462   5.580   1.364   4.871
 4507TIP3    H213463   5.534   1.429   4.742
 4508TIP3   OH213464   4.448   0.334   1.552
 4508TIP3    H113465   4.369   0.341   1.498
 4508TIP3    H213466   4.520   0.337   1.489
 4509TIP3   OH213467   7.409   0.879   4.505
 4509TIP3    H113468   7.367   0.932   4.573
 4509TIP3    H213469   7.462   0.941   4.455
 4510TIP3   OH213470   7.957   4.227   2.283
 4510TIP3    H113471   8.021   4.189   2.223
 4510TIP3    H213472   7.897   4.275   2.227
 4511TIP3   OH213473   0.146   3.412   2.369
 4511TIP3    H113474   0.075   3.457   2.324
 4511TIP3    H213475   0.127   3.423   2.462
 4512TIP3   OH213476   0.553   3.844   0.319
 4512TIP3    H113477   0.589   3.780   0.380
 4512TIP3    H213478   0.626   3.904   0.302
 4513TIP3   OH213479   4.086   4.562   6.731
 4513TIP3    H113480   4.175   4.558   6.766
 4513TIP3    H213481   4.065   4.655   6.732
 4514TIP3   OH213482   0.252   0.586   3.365
 4514TIP3    H113483   0.227   0.664   3.415
 4514TIP3    H213484   0.294   0.529   3.428
 4515TIP3   OH213485   0.879   7.785   5.136
 4515TIP3    H113486   0.923   7.724   5.076
 4515TIP3    H213487   0.944   7.803   5.204
 4516TIP3   OH213488   0.391   6.909   2.588
 4516TIP3    H113489   0.458   6.968   2.621
 4516TIP3    H213490   0.336   6.889   2.663
 4517TIP3   OH213491   2.137   4.989   4.347
 4517TIP3    H113492   2.119   4.963   4.437
 4517TIP3    H213493   2.135   4.906   4.298
 4518TIP3   OH213494   2.448   5.620   3.255
 4518TIP3    H113495   2.428   5.616   3.349
 4518TIP3    H213496   2.377   5.673   3.218
 4519TIP3   OH213497   5.885   5.376   2.664
 4519TIP3    H113498   5.856   5.450   2.610
 4519TIP3    H213499   5.955   5.411   2.717
 4520TIP3   OH213500   7.470   0.320   4.722
 4520TIP3    H113501   7.544   0.287   4.773
 4520TIP3    H213502   7.511   0.352   4.641
 4521TIP3   OH213503   4.365   3.947   0.159
 4521TIP3    H113504   4.340   4.018   0.218
 4521TIP3    H213505   4.452   3.921   0.189
 4522TIP3   OH213506   1.757   2.434   3.261
 4522TIP3    H113507   1.779   2.471   3.175
 4522TIP3    H213508   1.841   2.421   3.304
 4523TIP3   OH213509   2.326   1.836   3.176
 4523TIP3    H113510   2.269   1.775   3.130
 4523TIP3    H213511   2.394   1.858   3.111
 4524TIP3   OH213512   5.933   2.418   4.513
 4524TIP3    H113513   5.917   2.512   4.500
 4524TIP3    H213514   6.003   2.398   4.451
 4525TIP3   OH213515   1.277   2.894   6.361
 4525TIP3    H113516   1.354   2.854   6.402
 4525TIP3    H213517   1.305   2.910   6.271
 4526TIP3   OH213518   1.585   7.709   5.825
 4526TIP3    H113519   1.490   7.699   5.819
 4526TIP3    H213520   1.613   7.724   5.734
 4527TIP3   OH213521   3.180   4.729   0.801
 4527TIP3    H113522   3.129   4.738   0.881
 4527TIP3    H213523   3.131   4.779   0.735
 4528TIP3   OH213524   0.119   3.755   0.911
 4528TIP3    H113525   0.191   3.726   0.967
 4528TIP3    H213526   0.113   3.850   0.928
 4529TIP3   OH213527   3.278   1.288   0.818
 4529TIP3    H113528   3.187   1.298   0.844
 4529TIP3    H213529   3.295   1.194   0.828
 4530TIP3   OH213530   6.881   2.058   4.511
 4530TIP3    H113531   6.895   2.077   4.604
 4530TIP3    H213532   6.966   2.030   4.479
 4531TIP3   OH213533   2.528   4.415   5.928
 4531TIP3    H113534   2.503   4.475   5.997
 4531TIP3    H213535   2.499   4.329   5.958
 4532TIP3   OH213536   7.943   4.123   0.831
 4532TIP3    H113537   7.983   4.068   0.898
 4532TIP3    H213538   7.871   4.069   0.796
 4533TIP3   OH213539   5.738   2.614   0.434
 4533TIP3    H113540   5.665   2.558   0.409
 4533TIP3    H213541   5.814   2.555   0.435
 4534TIP3   OH213542   8.177   5.508   6.762
 4534TIP3    H113543   8.224   5.443   6.709
 4534TIP3    H213544   8.245   5.553   6.812
 4535TIP3   OH213545   5.732   1.788   6.794
 4535TIP3    H113546   5.680   1.832   6.726
 4535TIP3    H213547   5.726   1.846   6.870
 4536TIP3   OH213548   4.073   4.972   2.195
 4536TIP3    H113549   4.117   5.044   2.240
 4536TIP3    H213550   3.992   5.011   2.161
 4537TIP3   OH213551   5.268   2.563   2.920
 4537TIP3    H113552   5.290   2.483   2.967
 4537TIP3    H213553   5.223   2.532   2.841
 4538TIP3   OH213554   6.395   0.116   5.466
 4538TIP3    H113555   6.485   0.085   5.457
 4538TIP3    H213556   6.341   0.038   5.459
 4539TIP3   OH213557   2.721   0.837   0.319
 4539TIP3    H113558   2.720   0.891   0.240
 4539TIP3    H213559   2.678   0.755   0.293
 4540TIP3   OH213560   4.990   5.179   1.771
 4540TIP3    H113561   4.944   5.096   1.762
 4540TIP3    H213562   4.957   5.216   1.853
 4541TIP3   OH213563   5.564   5.991   2.251
 4541TIP3    H113564   5.537   5.997   2.343
 4541TIP3    H213565   5.519   5.914   2.217
 4542TIP3   OH213566   7.441   5.504   2.164
 4542TIP3    H113567   7.492   5.561   2.107
 4542TIP3    H213568   7.502   5.478   2.233
 4543TIP3   OH213569   4.604   0.031   4.537
 4543TIP3    H113570   4.536   0.081   4.491
 4543TIP3    H213571   4.555  -0.022   4.601
 4544TIP3   OH213572   6.973   6.014   3.783
 4544TIP3    H113573   7.015   5.935   3.748
 4544TIP3    H213574   6.969   6.073   3.708
 4545TIP3   OH213575   5.522   1.347   6.318
 4545TIP3    H113576   5.508   1.336   6.412
 4545TIP3    H213577   5.472   1.275   6.278
 4546TIP3   OH213578   7.134   1.385   5.099
 4546TIP3    H113579   7.110   1.389   5.192
 4546TIP3    H213580   7.177   1.469   5.082
 4547TIP3   OH213581   4.507   3.225   0.803
 4547TIP3    H113582   4.495   3.297   0.741
 4547TIP3    H213583   4.437   3.238   0.868
 4548TIP3   OH213584   4.351   0.656   5.417
 4548TIP3    H113585   4.333   0.712   5.341
 4548TIP3    H213586   4.427   0.697   5.460
 4549TIP3   OH213587   2.170   2.974   6.264
 4549TIP3    H113588   2.238   2.965   6.198
 4549TIP3    H213589   2.209   2.941   6.345
 4550TIP3   OH213590   4.552   5.347   4.302
 4550TIP3    H113591   4.491   5.419   4.318
 4550TIP3    H213592   4.591   5.330   4.387
 4551TIP3   OH213593   7.023   1.090   5.255
 4551TIP3    H113594   6.928   1.086   5.242
 4551TIP3    H213595   7.037   1.172   5.303
 4552TIP3   OH213596   0.524   7.797   2.619
 4552TIP3    H113597   0.549   7.752   2.700
 4552TIP3    H213598   0.435   7.766   2.602
 4553TIP3   OH213599   7.835   2.552   4.023
 4553TIP3    H113600   7.834   2.458   4.008
 4553TIP3    H213601   7.900   2.565   4.093
 4554TIP3   OH213602   6.643   0.763   4.605
 4554TIP3    H113603   6.733   0.734   4.620
 4554TIP3    H213604   6.600   0.752   4.690
 4555TIP3   OH213605   3.537   2.906   6.353
 4555TIP3    H113606   3.553   2.812   6.351
 4555TIP3    H213607   3.446   2.916   6.324
 4556TIP3   OH213608   7.828   0.693   2.156
 4556TIP3    H113609   7.769   0.671   2.229
 4556TIP3    H213610   7.846   0.786   2.167
 4557TIP3   OH213611   5.389   2.925   4.073
 4557TIP3    H113612   5.414   2.866   4.144
 4557TIP3    H213613   5.379   3.010   4.114
 4558TIP3   OH213614   5.983   0.271   2.946
 4558TIP3    H113615   5.987   0.275   3.042
 4558TIP3    H213616   6.055   0.212   2.922
 4559TIP3   OH213617   4.760   3.660   2.684
 4559TIP3    H113618   4.776   3.569   2.662
 4559TIP3    H213619   4.674   3.679   2.647
 4560TIP3   OH213620   5.969   7.493   1.836
 4560TIP3    H113621   5.875   7.477   1.826
 4560TIP3    H213622   5.988   7.563   1.774
 4561TIP3   OH213623   4.648   2.453   3.649
 4561TIP3    H113624   4.660   2.445   3.743
 4561TIP3    H213625   4.593   2.378   3.625
 4562TIP3   OH213626   2.417   1.544   6.764
 4562TIP3    H113627   2.381   1.509   6.846
 4562TIP3    H213628   2.380   1.487   6.696
 4563TIP3   OH213629   0.415   3.937   5.465
 4563TIP3    H113630   0.431   4.016   5.517
 4563TIP3    H213631   0.326   3.912   5.486
 4564TIP3   OH213632   4.779   4.623   4.670
 4564TIP3    H113633   4.759   4.668   4.752
 4564TIP3    H213634   4.875   4.619   4.668
 4565TIP3   OH213635   0.752   3.781   5.958
 4565TIP3    H113636   0.677   3.762   6.014
 4565TIP3    H213637   0.730   3.744   5.873
 4566TIP3   OH213638   5.510   7.582   2.128
 4566TIP3    H113639   5.574   7.650   2.150
 4566TIP3    H213640   5.561   7.502   2.120
 4567TIP3   OH213641   7.078   1.404   0.507
 4567TIP3    H113642   7.121   1.373   0.587
 4567TIP3    H213643   6.999   1.351   0.500
 4568TIP3   OH213644   5.212   5.150   5.260
 4568TIP3    H113645   5.272   5.111   5.323
 4568TIP3    H213646   5.264   5.218   5.217
 4569TIP3   OH213647   7.150   1.319   3.706
 4569TIP3    H113648   7.195   1.283   3.630
 4569TIP3    H213649   7.111   1.242   3.749
 4570TIP3   OH213650   1.263   3.731   6.020
 4570TIP3    H113651   1.214   3.655   6.052
 4570TIP3    H213652   1.195   3.788   5.982
 4571TIP3   OH213653   4.084   3.791   5.696
 4571TIP3    H113654   4.070   3.763   5.787
 4571TIP3    H213655   4.010   3.848   5.677
 4572TIP3   OH213656   6.821   4.844   1.409
 4572TIP3    H113657   6.842   4.751   1.403
 4572TIP3    H213658   6.792   4.869   1.322
 4573TIP3   OH213659   6.614   0.150   4.371
 4573TIP3    H113660   6.549   0.188   4.431
 4573TIP3    H213661   6.642   0.224   4.317
 4574TIP3   OH213662   2.970   2.726   6.239
 4574TIP3    H113663   2.957   2.632   6.248
 4574TIP3    H213664   3.047   2.745   6.292
 4575TIP3   OH213665   1.519   6.874   0.702
 4575TIP3    H113666   1.521   6.939   0.773
 4575TIP3    H213667   1.570   6.915   0.631
 4576TIP3   OH213668   5.965   2.192   4.825
 4576TIP3    H113669   5.914   2.199   4.745
 4576TIP3    H213670   5.989   2.099   4.831
 4577TIP3   OH213671   0.282   5.796   0.223
 4577TIP3    H113672   0.311   5.710   0.192
 4577TIP3    H213673   0.210   5.776   0.282
 4578TIP3   OH213674   5.057   0.507   5.586
 4578TIP3    H113675   5.107   0.480   5.663
 4578TIP3    H213676   5.009   0.428   5.561
 4579TIP3   OH213677   2.902   1.478   0.668
 4579TIP3    H113678   2.901   1.384   0.686
 4579TIP3    H213679   2.843   1.516   0.733
 4580TIP3   OH213680   3.894   0.489   0.644
 4580TIP3    H113681   3.872   0.583   0.643
 4580TIP3    H213682   3.809   0.445   0.638
 4581TIP3   OH213683   6.975   7.754   6.363
 4581TIP3    H113684   6.941   7.695   6.431
 4581TIP3    H213685   6.951   7.712   6.281
 4582TIP3   OH213686   8.121   2.032   0.636
 4582TIP3    H113687   8.206   1.998   0.609
 4582TIP3    H213688   8.137   2.068   0.724
 4583TIP3   OH213689   2.248   0.264   2.390
 4583TIP3    H113690   2.240   0.353   2.424
 4583TIP3    H213691   2.297   0.275   2.308
 4584TIP3   OH213692   3.496   6.335   6.574
 4584TIP3    H113693   3.400   6.336   6.567
 4584TIP3    H213694   3.513   6.288   6.655
 4585TIP3   OH213695   8.058   2.394   2.207
 4585TIP3    H113696   8.069   2.452   2.131
 4585TIP3    H213697   8.130   2.417   2.265
 4586TIP3   OH213698   0.193   3.684   3.268
 4586TIP3    H113699   0.240   3.734   3.201
 4586TIP3    H213700   0.246   3.694   3.347
 4587TIP3   OH213701   4.613   4.305   0.588
 4587TIP3    H113702   4.685   4.304   0.651
 4587TIP3    H213703   4.654   4.284   0.504
 4588TIP3   OH213704   7.988   5.496   1.396
 4588TIP3    H113705   7.905   5.536   1.421
 4588TIP3    H213706   7.966   5.441   1.321
 4589TIP3   OH213707   3.291   4.364   6.379
 4589TIP3    H113708   3.254   4.450   6.359
 4589TIP3    H213709   3.327   4.333   6.296
 4590TIP3   OH213710   7.629   1.937   6.144
 4590TIP3    H113711   7.673   1.856   6.168
 4590TIP3    H213712   7.599   1.974   6.227
 4591TIP3   OH213713   5.666   0.528   3.700
 4591TIP3    H113714   5.601   0.524   3.770
 4591TIP3    H213715   5.623   0.574   3.629
 4592TIP3   OH213716   1.942   0.486   2.542
 4592TIP3    H113717   2.024   0.476   2.494
 4592TIP3    H213718   1.900   0.562   2.502
 4593TIP3   OH213719   4.426   2.227   1.395
 4593TIP3    H113720   4.401   2.293   1.331
 4593TIP3    H213721   4.390   2.145   1.360
 4594TIP3   OH213722   0.669   0.555   6.782
 4594TIP3    H113723   0.637   0.566   6.872
 4594TIP3    H213724   0.760   0.583   6.786
 4595TIP3   OH213725   5.233   7.872   3.543
 4595TIP3    H113726   5.165   7.894   3.607
 4595TIP3    H213727   5.210   7.785   3.511
 4596TIP3   OH213728   0.763   6.032   4.584
 4596TIP3    H113729   0.740   6.040   4.677
 4596TIP3    H213730   0.680   6.036   4.538
 4597TIP3   OH213731   3.942   2.705   1.820
 4597TIP3    H113732   3.938   2.746   1.733
 4597TIP3    H213733   3.973   2.775   1.877
 4598TIP3   OH213734   4.961   3.330   3.286
 4598TIP3    H113735   4.872   3.353   3.310
 4598TIP3    H213736   4.952   3.258   3.224
 4599TIP3   OH213737   5.438   3.225   4.941
 4599TIP3    H113738   5.394   3.291   4.887
 4599TIP3    H213739   5.420   3.253   5.031
 4600TIP3   OH213740   3.423   4.439   5.019
 4600TIP3    H113741   3.469   4.472   5.096
 4600TIP3    H213742   3.478   4.368   4.987
 4601TIP3   OH213743   3.637   0.327   0.607
 4601TIP3    H113744   3.648   0.262   0.538
 4601TIP3    H213745   3.550   0.311   0.642
 4602TIP3   OH213746   5.517   0.598   3.424
 4602TIP3    H113747   5.451   0.544   3.381
 4602TIP3    H213748   5.476   0.683   3.434
 4603TIP3   OH213749   7.039   5.695   2.661
 4603TIP3    H113750   6.964   5.707   2.602
 4603TIP3    H213751   7.095   5.632   2.615
 4604TIP3   OH213752   4.333   0.947   4.222
 4604TIP3    H113753   4.275   0.972   4.294
 4604TIP3    H213754   4.306   0.859   4.199
 4605TIP3   OH213755   0.778   1.300   5.441
 4605TIP3    H113756   0.778   1.209   5.470
 4605TIP3    H213757   0.699   1.308   5.387
 4606TIP3   OH213758   5.836   5.584   0.882
 4606TIP3    H113759   5.866   5.599   0.972
 4606TIP3    H213760   5.912   5.601   0.827
 4607TIP3   OH213761   8.370   4.972   3.843
 4607TIP3    H113762   8.411   4.959   3.758
 4607TIP3    H213763   8.279   4.946   3.829
 4608TIP3   OH213764   2.728   4.646   3.052
 4608TIP3    H113765   2.634   4.643   3.069
 4608TIP3    H213766   2.735   4.649   2.957
 4609TIP3   OH213767   1.203   4.520   5.335
 4609TIP3    H113768   1.135   4.578   5.301
 4609TIP3    H213769   1.213   4.545   5.426
 4610TIP3   OH213770   8.190   1.200   0.333
 4610TIP3    H113771   8.284   1.212   0.323
 4610TIP3    H213772   8.179   1.106   0.351
 4611TIP3   OH213773   4.679   6.147   5.888
 4611TIP3    H113774   4.611   6.213   5.906
 4611TIP3    H213775   4.748   6.196   5.844
 4612TIP3   OH213776   2.197   1.426   1.096
 4612TIP3    H113777   2.217   1.519   1.106
 4612TIP3    H213778   2.201   1.391   1.185
 4613TIP3   OH213779   4.552   4.465   0.145
 4613TIP3    H113780   4.615   4.471   0.073
 4613TIP3    H213781   4.598   4.499   0.221
 4614TIP3   OH213782   7.257   2.310   0.119
 4614TIP3    H113783   7.243   2.231   0.066
 4614TIP3    H213784   7.348   2.304   0.147
 4615TIP3   OH213785   4.126   4.649   1.483
 4615TIP3    H113786   4.070   4.623   1.410
 4615TIP3    H213787   4.073   4.634   1.561
 4616TIP3   OH213788   3.155   7.068   4.545
 4616TIP3    H113789   3.169   7.098   4.456
 4616TIP3    H213790   3.134   7.148   4.594
 4617TIP3   OH213791   4.511   3.283   5.858
 4617TIP3    H113792   4.522   3.372   5.826
 4617TIP3    H213793   4.417   3.267   5.857
 4618TIP3   OH213794   0.406   2.838   3.783
 4618TIP3    H113795   0.405   2.750   3.820
 4618TIP3    H213796   0.458   2.830   3.703
 4619TIP3   OH213797   7.955   5.923   0.479
 4619TIP3    H113798   7.920   5.953   0.563
 4619TIP3    H213799   7.880   5.882   0.436
 4620TIP3   OH213800   7.600   1.485   3.465
 4620TIP3    H113801   7.555   1.402   3.449
 4620TIP3    H213802   7.637   1.509   3.381
 4621TIP3   OH213803   7.904   0.461   0.071
 4621TIP3    H113804   7.913   0.493   0.160
 4621TIP3    H213805   7.993   0.439   0.043
 4622TIP3   OH213806   3.439   7.686   3.669
 4622TIP3    H113807   3.403   7.744   3.735
 4622TIP3    H213808   3.419   7.728   3.585
 4623TIP3   OH213809   2.660   3.481   3.533
 4623TIP3    H113810   2.620   3.563   3.560
 4623TIP3    H213811   2.687   3.496   3.442
 4624TIP3   OH213812   3.553   7.203   5.538
 4624TIP3    H113813   3.632   7.253   5.559
 4624TIP3    H213814   3.528   7.233   5.450
 4625TIP3   OH213815   6.233   5.514   5.887
 4625TIP3    H113816   6.283   5.459   5.827
 4625TIP3    H213817   6.219   5.596   5.840
 4626TIP3   OH213818   6.244   3.236   3.042
 4626TIP3    H113819   6.187   3.159   3.043
 4626TIP3    H213820   6.325   3.206   3.000
 4627TIP3   OH213821   3.373   2.168   3.937
 4627TIP3    H113822   3.365   2.081   3.977
 4627TIP3    H213823   3.388   2.149   3.844
 4628TIP3   OH213824   2.384   1.262   3.112
 4628TIP3    H113825   2.458   1.245   3.170
 4628TIP3    H213826   2.333   1.181   3.113
 4629TIP3   OH213827   1.236   3.083   5.433
 4629TIP3    H113828   1.276   3.028   5.502
 4629TIP3    H213829   1.196   3.020   5.374
 4630TIP3   OH213830   5.828   3.920   4.068
 4630TIP3    H113831   5.900   3.867   4.033
 4630TIP3    H213832   5.766   3.928   3.996
 4631TIP3   OH213833   2.701   7.451   4.780
 4631TIP3    H113834   2.748   7.400   4.715
 4631TIP3    H213835   2.767   7.476   4.844
 4632TIP3   OH213836   6.537   4.375   5.603
 4632TIP3    H113837   6.619   4.330   5.624
 4632TIP3    H213838   6.562   4.466   5.591
 4633TIP3   OH213839   2.063   6.990   3.204
 4633TIP3    H113840   2.130   7.052   3.232
 4633TIP3    H213841   2.096   6.955   3.121
 4634TIP3   OH213842   4.870   3.600   0.271
 4634TIP3    H113843   4.955   3.609   0.229
 4634TIP3    H213844   4.808   3.646   0.214
 4635TIP3   OH213845   0.660   5.207   5.626
 4635TIP3    H113846   0.705   5.266   5.686
 4635TIP3    H213847   0.583   5.177   5.675
 4636TIP3   OH213848   5.329   4.002   1.077
 4636TIP3    H113849   5.335   4.086   1.031
 4636TIP3    H213850   5.287   4.024   1.161
 4637TIP3   OH213851   0.139   0.370   5.803
 4637TIP3    H113852   0.069   0.313   5.835
 4637TIP3    H213853   0.122   0.380   5.710
 4638TIP3   OH213854   8.223   1.565   4.563
 4638TIP3    H113855   8.311   1.533   4.581
 4638TIP3    H213856   8.170   1.529   4.634
 4639TIP3   OH213857   6.275   5.364   4.194
 4639TIP3    H113858   6.258   5.452   4.161
 4639TIP3    H213859   6.208   5.351   4.261
 4640TIP3   OH213860   7.774   7.276   5.009
 4640TIP3    H113861   7.753   7.194   4.964
 4640TIP3    H213862   7.764   7.343   4.942
 4641TIP3   OH213863   8.222   6.959   6.628
 4641TIP3    H113864   8.160   6.890   6.650
 4641TIP3    H213865   8.169   7.025   6.582
 4642TIP3   OH213866   4.272   6.022   5.184
 4642TIP3    H113867   4.215   5.944   5.182
 4642TIP3    H213868   4.345   5.996   5.240
 4643TIP3   OH213869   7.189   4.172   3.342
 4643TIP3    H113870   7.101   4.147   3.370
 4643TIP3    H213871   7.180   4.263   3.312
 4644TIP3   OH213872   1.390   6.584   0.002
 4644TIP3    H113873   1.431   6.561   0.085
 4644TIP3    H213874   1.307   6.624   0.028
 4645TIP3   OH213875   5.722   6.434   0.316
 4645TIP3    H113876   5.655   6.424   0.248
 4645TIP3    H213877   5.777   6.356   0.308
 4646TIP3   OH213878   5.782   6.252   2.866
 4646TIP3    H113879   5.754   6.217   2.951
 4646TIP3    H213880   5.876   6.234   2.863
 4647TIP3   OH213881   2.576   5.530   0.004
 4647TIP3    H113882   2.577   5.493   0.092
 4647TIP3    H213883   2.657   5.498  -0.037
 4648TIP3   OH213884   4.502   0.961   4.010
 4648TIP3    H113885   4.462   0.984   4.094
 4648TIP3    H213886   4.561   0.889   4.031
 4649TIP3   OH213887   4.985   2.142   2.394
 4649TIP3    H113888   4.989   2.184   2.308
 4649TIP3    H213889   4.900   2.099   2.396
 4650TIP3   OH213890   6.085   5.430   4.932
 4650TIP3    H113891   6.138   5.357   4.899
 4650TIP3    H213892   6.086   5.494   4.861
 4651TIP3   OH213893   5.439   6.529   4.671
 4651TIP3    H113894   5.421   6.435   4.671
 4651TIP3    H213895   5.359   6.569   4.705
 4652TIP3   OH213896   1.768   0.109   6.352
 4652TIP3    H113897   1.721   0.091   6.270
 4652TIP3    H213898   1.803   0.025   6.379
 4653TIP3   OH213899   0.394   1.764   4.757
 4653TIP3    H113900   0.416   1.734   4.668
 4653TIP3    H213901   0.354   1.849   4.744
 4654TIP3   OH213902   3.556   2.830   2.147
 4654TIP3    H113903   3.553   2.758   2.210
 4654TIP3    H213904   3.618   2.893   2.184
 4655TIP3   OH213905   4.963   5.001   0.804
 4655TIP3    H113906   4.907   4.974   0.731
 4655TIP3    H213907   5.004   4.919   0.834
 4656TIP3   OH213908   6.183   6.985   5.464
 4656TIP3    H113909   6.232   6.966   5.544
 4656TIP3    H213910   6.222   7.066   5.431
 4657TIP3   OH213911   6.111   6.261   1.700
 4657TIP3    H113912   6.185   6.313   1.732
 4657TIP3    H213913   6.149   6.199   1.639
 4658TIP3   OH213914   1.172   1.708   6.073
 4658TIP3    H113915   1.148   1.681   5.985
 4658TIP3    H213916   1.158   1.630   6.127
 4659TIP3   OH213917   2.593   2.758   2.889
 4659TIP3    H113918   2.643   2.800   2.819
 4659TIP3    H213919   2.554   2.681   2.848
 4660TIP3   OH213920   5.206   7.628   6.422
 4660TIP3    H113921   5.215   7.613   6.328
 4660TIP3    H213922   5.276   7.576   6.462
 4661TIP3   OH213923   7.387   1.579   0.320
 4661TIP3    H113924   7.311   1.600   0.375
 4661TIP3    H213925   7.350   1.531   0.246
 4662TIP3   OH213926   5.037   0.150   4.321
 4662TIP3    H113927   5.099   0.139   4.393
 4662TIP3    H213928   4.952   0.160   4.364
 4663TIP3   OH213929   1.714   7.386   2.079
 4663TIP3    H113930   1.771   7.463   2.088
 4663TIP3    H213931   1.645   7.414   2.019
 4664TIP3   OH213932   6.310   0.634   0.074
 4664TIP3    H113933   6.390   0.617   0.024
 4664TIP3    H213934   6.285   0.548   0.108
 4665TIP3   OH213935   4.465   3.143   6.243
 4665TIP3    H113936   4.378   3.106   6.258
 4665TIP3    H213937   4.470   3.218   6.304
 4666TIP3   OH213938   0.520   2.362   1.757
 4666TIP3    H113939   0.476   2.295   1.705
 4666TIP3    H213940   0.571   2.312   1.822
 4667TIP3   OH213941   3.716   6.015   2.171
 4667TIP3    H113942   3.623   6.006   2.192
 4667TIP3    H213943   3.721   6.093   2.115
 4668TIP3   OH213944   7.144   3.187   3.587
 4668TIP3    H113945   7.071   3.233   3.547
 4668TIP3    H213946   7.198   3.257   3.626
 4669TIP3   OH213947   3.871   1.566   6.329
 4669TIP3    H113948   3.932   1.527   6.267
 4669TIP3    H213949   3.856   1.654   6.296
 4670TIP3   OH213950   1.345   6.467   1.500
 4670TIP3    H113951   1.299   6.480   1.417
 4670TIP3    H213952   1.294   6.517   1.563
 4671TIP3   OH213953   7.326   5.242   0.440
 4671TIP3    H113954   7.265   5.210   0.373
 4671TIP3    H213955   7.342   5.166   0.496
 4672TIP3   OH213956   5.142   6.476   2.016
 4672TIP3    H113957   5.107   6.527   1.943
 4672TIP3    H213958   5.171   6.542   2.079
 4673TIP3   OH213959   2.466   2.260   2.969
 4673TIP3    H113960   2.500   2.223   3.051
 4673TIP3    H213961   2.390   2.311   2.996
 4674TIP3   OH213962   6.678   6.703   0.979
 4674TIP3    H113963   6.733   6.684   0.903
 4674TIP3    H213964   6.727   6.668   1.054
 4675TIP3   OH213965   7.022   0.107   0.488
 4675TIP3    H113966   6.945   0.090   0.542
 4675TIP3    H213967   7.096   0.102   0.549
 4676TIP3   OH213968   4.574   5.577   3.952
 4676TIP3    H113969   4.534   5.640   4.012
 4676TIP3    H213970   4.642   5.534   4.004
 4677TIP3   OH213971   0.106   2.816   0.894
 4677TIP3    H113972   0.086   2.770   0.812
 4677TIP3    H213973   0.071   2.759   0.962
 4678TIP3   OH213974   0.192   3.308   0.112
 4678TIP3    H113975   0.214   3.354   0.031
 4678TIP3    H213976   0.275   3.270   0.141
 4679TIP3   OH213977   0.128   5.172   3.547
 4679TIP3    H113978   0.073   5.222   3.607
 4679TIP3    H213979   0.216   5.209   3.557
 4680TIP3   OH213980   6.315   2.134   4.203
 4680TIP3    H113981   6.277   2.203   4.258
 4680TIP3    H213982   6.407   2.129   4.230
 4681TIP3   OH213983   3.835   0.155   5.497
 4681TIP3    H113984   3.846   0.187   5.586
 4681TIP3    H213985   3.764   0.091   5.502
 4682TIP3   OH213986   5.375   7.080   3.939
 4682TIP3    H113987   5.445   7.043   3.886
 4682TIP3    H213988   5.302   7.019   3.928
 4683TIP3   OH213989   6.985   3.888   4.549
 4683TIP3    H113990   7.007   3.804   4.590
 4683TIP3    H213991   6.893   3.880   4.526
 4684TIP3   OH213992   6.144   1.108   2.885
 4684TIP3    H113993   6.162   1.139   2.974
 4684TIP3    H213994   6.180   1.020   2.883
 4685TIP3   OH213995   1.740   2.094   5.931
 4685TIP3    H113996   1.673   2.150   5.893
 4685TIP3    H213997   1.785   2.055   5.855
 4686TIP3   OH213998   6.580   3.997   1.182
 4686TIP3    H113999   6.494   3.965   1.210
 4686TIP3    H214000   6.578   3.989   1.087
 4687TIP3   OH214001   1.714   4.268   0.285
 4687TIP3    H114002   1.790   4.241   0.337
 4687TIP3    H214003   1.739   4.251   0.195
 4688TIP3   OH214004   3.941   7.099   4.665
 4688TIP3    H114005   4.004   7.050   4.612
 4688TIP3    H214006   3.907   7.035   4.728
 4689TIP3   OH214007   6.517   7.785   1.528
 4689TIP3    H114008   6.479   7.758   1.445
 4689TIP3    H214009   6.454   7.756   1.594
 4690TIP3   OH214010   1.473   1.880   4.307
 4690TIP3    H114011   1.550   1.832   4.277
 4690TIP3    H214012   1.423   1.816   4.358
 4691TIP3   OH214013   0.064   0.986   3.722
 4691TIP3    H114014  -0.011   1.044   3.737
 4691TIP3    H214015   0.083   0.949   3.809
 4692TIP3   OH214016   1.597   7.422   5.598
 4692TIP3    H114017   1.569   7.407   5.688
 4692TIP3    H214018   1.553   7.355   5.546
 4693TIP3   OH214019   7.176   2.184   6.562
 4693TIP3    H114020   7.137   2.203   6.648
 4693TIP3    H214021   7.268   2.165   6.582
 4694TIP3   OH214022   2.663   4.012   3.327
 4694TIP3    H114023   2.661   3.923   3.293
 4694TIP3    H214024   2.576   4.026   3.364
 4695TIP3   OH214025   0.538   0.806   4.497
 4695TIP3    H114026   0.613   0.747   4.512
 4695TIP3    H214027   0.500   0.817   4.584
 4696TIP3   OH214028   1.220   5.648   6.623
 4696TIP3    H114029   1.226   5.620   6.715
 4696TIP3    H214030   1.202   5.567   6.575
 4697TIP3   OH214031   5.778   1.847   3.897
 4697TIP3    H114032   5.764   1.869   3.805
 4697TIP3    H214033   5.779   1.751   3.899
 4698TIP3   OH214034   0.613   6.462   3.974
 4698TIP3    H114035   0.567   6.393   3.926
 4698TIP3    H214036   0.548   6.531   3.985
 4699TIP3   OH214037   8.001   5.099   0.934
 4699TIP3    H114038   8.058   5.049   0.992
 4699TIP3    H214039   8.061   5.143   0.874
 4700TIP3   OH214040   7.097   6.480   5.796
 4700TIP3    H114041   7.072   6.571   5.777
 4700TIP3    H214042   7.015   6.431   5.792
 4701TIP3   OH214043   4.951   5.823   6.327
 4701TIP3    H114044   5.010   5.759   6.288
 4701TIP3    H214045   4.940   5.794   6.417
 4702TIP3   OH214046   2.869   0.556   3.265
 4702TIP3    H114047   2.885   0.473   3.219
 4702TIP3    H214048   2.955   0.582   3.298
 4703TIP3   OH214049   5.050   3.356   5.915
 4703TIP3    H114050   5.085   3.414   5.983
 4703TIP3    H214051   5.096   3.382   5.835
 4704TIP3   OH214052   1.932   2.759   4.400
 4704TIP3    H114053   2.013   2.792   4.440
 4704TIP3    H214054   1.917   2.675   4.443
 4705TIP3   OH214055   6.944   4.983   1.030
 4705TIP3    H114056   6.865   4.948   1.071
 4705TIP3    H214057   6.916   5.064   0.988
 4706TIP3   OH214058   0.797   2.629   4.046
 4706TIP3    H114059   0.756   2.595   4.126
 4706TIP3    H214060   0.746   2.707   4.024
 4707TIP3   OH214061   4.865   7.019   1.061
 4707TIP3    H114062   4.957   7.040   1.045
 4707TIP3    H214063   4.866   6.927   1.090
 4708TIP3   OH214064   7.417   1.355   2.454
 4708TIP3    H114065   7.419   1.298   2.531
 4708TIP3    H214066   7.405   1.443   2.490
 4709TIP3   OH214067   0.379   7.017   3.965
 4709TIP3    H114068   0.372   6.927   3.931
 4709TIP3    H214069   0.343   7.012   4.053
 4710TIP3   OH214070   0.274   1.669   0.388
 4710TIP3    H114071   0.343   1.732   0.367
 4710TIP3    H214072   0.301   1.631   0.471
 4711TIP3   OH214073   2.497   7.316   1.354
 4711TIP3    H114074   2.421   7.354   1.398
 4711TIP3    H214075   2.460   7.268   1.279
 4712TIP3   OH214076   6.573   1.685   4.455
 4712TIP3    H114077   6.506   1.715   4.517
 4712TIP3    H214078   6.536   1.705   4.369
 4713TIP3   OH214079   3.876   4.111   0.576
 4713TIP3    H114080   3.920   4.062   0.506
 4713TIP3    H214081   3.801   4.151   0.533
 4714TIP3   OH214082   3.938   3.363   3.556
 4714TIP3    H114083   3.881   3.341   3.482
 4714TIP3    H214084   4.022   3.382   3.516
 4715TIP3   OH214085   4.806   0.644   2.783
 4715TIP3    H114086   4.791   0.659   2.876
 4715TIP3    H214087   4.772   0.724   2.741
 4716TIP3   OH214088   4.375   6.034   5.505
 4716TIP3    H114089   4.409   6.004   5.421
 4716TIP3    H214090   4.317   5.963   5.534
 4717TIP3   OH214091   3.824   5.680   5.928
 4717TIP3    H114092   3.790   5.594   5.949
 4717TIP3    H214093   3.850   5.717   6.012
 4718TIP3   OH214094   2.554   4.034   5.007
 4718TIP3    H114095   2.528   4.085   5.083
 4718TIP3    H214096   2.644   4.009   5.024
 4719TIP3   OH214097   2.035   5.095   6.709
 4719TIP3    H114098   2.065   5.030   6.646
 4719TIP3    H214099   1.945   5.113   6.684
 4720TIP3   OH214100   1.346   3.573   0.478
 4720TIP3    H114101   1.404   3.501   0.502
 4720TIP3    H214102   1.336   3.566   0.383
 4721TIP3   OH214103   3.099   1.100   5.776
 4721TIP3    H114104   3.056   1.066   5.698
 4721TIP3    H214105   3.180   1.050   5.784
 4722TIP3   OH214106   3.751   5.065   0.525
 4722TIP3    H114107   3.714   5.107   0.602
 4722TIP3    H214108   3.841   5.045   0.549
 4723TIP3   OH214109   0.938   2.956   0.507
 4723TIP3    H114110   0.969   2.874   0.545
 4723TIP3    H214111   0.844   2.957   0.525
 4724TIP3   OH214112   2.066   0.623   5.371
 4724TIP3    H114113   1.985   0.619   5.423
 4724TIP3    H214114   2.106   0.537   5.385
 4725TIP3   OH214115   5.519   4.012   6.253
 4725TIP3    H114116   5.487   3.973   6.171
 4725TIP3    H214117   5.445   4.006   6.313
 4726TIP3   OH214118   3.862   5.163   0.236
 4726TIP3    H114119   3.806   5.155   0.313
 4726TIP3    H214120   3.909   5.080   0.231
 4727TIP3   OH214121   4.885   4.571   6.337
 4727TIP3    H114122   4.848   4.598   6.421
 4727TIP3    H214123   4.869   4.477   6.332
 4728TIP3   OH214124   3.796   7.312   2.322
 4728TIP3    H114125   3.846   7.301   2.403
 4728TIP3    H214126   3.824   7.239   2.267
 4729TIP3   OH214127   6.750   0.883   1.117
 4729TIP3    H114128   6.736   0.887   1.211
 4729TIP3    H214129   6.818   0.817   1.105
 4730TIP3   OH214130   4.337   4.961   3.135
 4730TIP3    H114131   4.402   4.976   3.066
 4730TIP3    H214132   4.270   4.906   3.095
 4731TIP3   OH214133   0.424   7.095   3.189
 4731TIP3    H114134   0.458   7.151   3.120
 4731TIP3    H214135   0.336   7.129   3.206
 4732TIP3   OH214136   3.075   1.178   6.449
 4732TIP3    H114137   3.080   1.219   6.535
 4732TIP3    H214138   3.167   1.169   6.421
 4733TIP3   OH214139   1.034   0.107   4.375
 4733TIP3    H114140   1.016   0.013   4.371
 4733TIP3    H214141   0.949   0.149   4.362
 4734TIP3   OH214142   2.515   2.755   1.823
 4734TIP3    H114143   2.604   2.782   1.844
 4734TIP3    H214144   2.524   2.668   1.786
 4735TIP3   OH214145   0.685   4.085   1.070
 4735TIP3    H114146   0.701   3.992   1.052
 4735TIP3    H214147   0.623   4.113   1.004
 4736TIP3   OH214148   3.483   1.061   0.408
 4736TIP3    H114149   3.531   0.986   0.443
 4736TIP3    H214150   3.469   1.040   0.316
 4737TIP3   OH214151   6.752   5.404   6.752
 4737TIP3    H114152   6.690   5.340   6.717
 4737TIP3    H214153   6.805   5.430   6.676
 4738TIP3   OH214154   4.280   4.421   3.159
 4738TIP3    H114155   4.333   4.496   3.133
 4738TIP3    H214156   4.336   4.345   3.142
 4739TIP3   OH214157   1.105   5.044   2.035
 4739TIP3    H114158   1.070   5.109   2.096
 4739TIP3    H214159   1.178   5.004   2.082
 4740TIP3   OH214160   2.074   3.698   1.902
 4740TIP3    H114161   2.141   3.643   1.942
 4740TIP3    H214162   2.096   3.699   1.809
 4741TIP3   OH214163   1.685   5.807   4.762
 4741TIP3    H114164   1.618   5.871   4.740
 4741TIP3    H214165   1.662   5.730   4.710
 4742TIP3   OH214166   3.459   6.220   4.355
 4742TIP3    H114167   3.417   6.167   4.288
 4742TIP3    H214168   3.402   6.211   4.432
 4743TIP3   OH214169   2.610   1.958   4.323
 4743TIP3    H114170   2.516   1.969   4.310
 4743TIP3    H214171   2.642   1.924   4.239
 4744TIP3   OH214172   2.510   2.344   1.130
 4744TIP3    H114173   2.471   2.391   1.204
 4744TIP3    H214174   2.569   2.280   1.170
 4745TIP3   OH214175   4.595   6.535   5.144
 4745TIP3    H114176   4.543   6.593   5.199
 4745TIP3    H214177   4.685   6.569   5.152
 4746TIP3   OH214178   6.199   6.450   2.102
 4746TIP3    H114179   6.270   6.512   2.122
 4746TIP3    H214180   6.131   6.504   2.062
 4747TIP3   OH214181   0.552   0.515   0.291
 4747TIP3    H114182   0.597   0.510   0.375
 4747TIP3    H214183   0.488   0.443   0.293
 4748TIP3   OH214184   3.265   5.381   0.780
 4748TIP3    H114185   3.321   5.436   0.724
 4748TIP3    H214186   3.179   5.423   0.777
 4749TIP3   OH214187   6.917   2.425   5.399
 4749TIP3    H114188   6.911   2.520   5.393
 4749TIP3    H214189   6.846   2.393   5.344
 4750TIP3   OH214190   7.083   3.934   1.484
 4750TIP3    H114191   7.025   3.905   1.555
 4750TIP3    H214192   7.171   3.915   1.515
 4751TIP3   OH214193   6.284   0.620   0.419
 4751TIP3    H114194   6.340   0.698   0.416
 4751TIP3    H214195   6.336   0.552   0.375
 4752TIP3   OH214196   3.258   2.511   5.475
 4752TIP3    H114197   3.193   2.561   5.426
 4752TIP3    H214198   3.218   2.499   5.561
 4753TIP3   OH214199   5.738   5.991   1.960
 4753TIP3    H114200   5.768   6.037   1.882
 4753TIP3    H214201   5.651   6.025   1.977
 4754TIP3   OH214202   7.946   7.895   6.023
 4754TIP3    H114203   7.925   7.836   5.950
 4754TIP3    H214204   7.996   7.966   5.983
 4755TIP3   OH214205   3.915   7.619   6.540
 4755TIP3    H114206   3.986   7.555   6.534
 4755TIP3    H214207   3.854   7.594   6.471
 4756TIP3   OH214208   3.205   4.043   0.802
 4756TIP3    H114209   3.149   4.117   0.823
 4756TIP3    H214210   3.272   4.080   0.743
 4757TIP3   OH214211   4.827   2.566   5.479
 4757TIP3    H114212   4.922   2.570   5.495
 4757TIP3    H214213   4.814   2.614   5.398
 4758TIP3   OH214214   8.276   5.125   4.995
 4758TIP3    H114215   8.245   5.111   5.085
 4758TIP3    H214216   8.267   5.219   4.981
 4759TIP3   OH214217   5.770   6.650   5.682
 4759TIP3    H114218   5.691   6.600   5.663
 4759TIP3    H214219   5.773   6.717   5.614
 4760TIP3   OH214220   7.327   4.242   6.414
 4760TIP3    H114221   7.253   4.284   6.458
 4760TIP3    H214222   7.310   4.255   6.320
 4761TIP3   OH214223   1.027   6.171   1.526
 4761TIP3    H114224   1.003   6.173   1.618
 4761TIP3    H214225   0.977   6.243   1.487
 4762TIP3   OH214226   1.941   7.345   3.717
 4762TIP3    H114227   1.871   7.287   3.688
 4762TIP3    H214228   1.905   7.433   3.706
 4763TIP3   OH214229   6.778   7.091   4.925
 4763TIP3    H114230   6.692   7.118   4.892
 4763TIP3    H214231   6.827   7.173   4.934
 4764TIP3   OH214232   5.468   6.756   2.877
 4764TIP3    H114233   5.490   6.834   2.929
 4764TIP3    H214234   5.511   6.684   2.924
 4765TIP3   OH214235   5.689   1.121   3.762
 4765TIP3    H114236   5.601   1.110   3.796
 4765TIP3    H214237   5.745   1.120   3.840
 4766TIP3   OH214238   4.359   5.919   1.525
 4766TIP3    H114239   4.291   5.873   1.476
 4766TIP3    H214240   4.421   5.949   1.458
 4767TIP3   OH214241   1.495   4.467   0.926
 4767TIP3    H114242   1.587   4.496   0.929
 4767TIP3    H214243   1.473   4.449   1.018
 4768TIP3   OH214244   6.898   1.217   0.388
 4768TIP3    H114245   6.894   1.238   0.295
 4768TIP3    H214246   6.927   1.126   0.392
 4769TIP3   OH214247   3.189   4.970   5.710
 4769TIP3    H114248   3.198   5.062   5.734
 4769TIP3    H214249   3.154   4.971   5.621
 4770TIP3   OH214250   4.392   3.615   3.205
 4770TIP3    H114251   4.478   3.629   3.164
 4770TIP3    H214252   4.330   3.626   3.133
 4771TIP3   OH214253   1.252   4.126   1.878
 4771TIP3    H114254   1.201   4.087   1.807
 4771TIP3    H214255   1.302   4.053   1.914
 4772TIP3   OH214256   4.792   1.569   4.501
 4772TIP3    H114257   4.789   1.567   4.405
 4772TIP3    H214258   4.793   1.477   4.527
 4773TIP3   OH214259   0.415   4.873   0.715
 4773TIP3    H114260   0.464   4.832   0.787
 4773TIP3    H214261   0.416   4.807   0.645
 4774TIP3   OH214262   7.520   6.581   3.298
 4774TIP3    H114263   7.455   6.575   3.228
 4774TIP3    H214264   7.557   6.492   3.304
 4775TIP3   OH214265   0.203   5.586   1.949
 4775TIP3    H114266   0.150   5.531   2.006
 4775TIP3    H214267   0.154   5.590   1.867
 4776TIP3   OH214268   3.712   1.345   1.309
 4776TIP3    H114269   3.633   1.388   1.278
 4776TIP3    H214270   3.741   1.398   1.383
 4777TIP3   OH214271   7.816   2.715   4.785
 4777TIP3    H114272   7.806   2.645   4.721
 4777TIP3    H214273   7.908   2.712   4.810
 4778TIP3   OH214274   0.894   2.690   2.824
 4778TIP3    H114275   0.834   2.617   2.807
 4778TIP3    H214276   0.852   2.766   2.784
 4779TIP3   OH214277   2.425   2.119   6.791
 4779TIP3    H114278   2.457   2.080   6.709
 4779TIP3    H214279   2.505   2.141   6.840
 4780TIP3   OH214280   7.342   3.970   2.568
 4780TIP3    H114281   7.430   3.964   2.605
 4780TIP3    H214282   7.291   4.015   2.636
 4781TIP3   OH214283   5.302   1.574   5.614
 4781TIP3    H114284   5.230   1.546   5.671
 4781TIP3    H214285   5.270   1.655   5.573
 4782TIP3   OH214286   2.694   3.240   2.318
 4782TIP3    H114287   2.748   3.185   2.261
 4782TIP3    H214288   2.647   3.178   2.374
 4783TIP3   OH214289   6.093   5.705   3.022
 4783TIP3    H114290   6.179   5.724   3.059
 4783TIP3    H214291   6.049   5.652   3.089
 4784TIP3   OH214292   3.276   1.914   2.183
 4784TIP3    H114293   3.187   1.913   2.219
 4784TIP3    H214294   3.263   1.926   2.089
 4785TIP3   OH214295   5.759   1.803   5.561
 4785TIP3    H114296   5.820   1.812   5.635
 4785TIP3    H214297   5.718   1.717   5.575
 4786TIP3   OH214298   0.819   7.151   1.234
 4786TIP3    H114299   0.807   7.236   1.277
 4786TIP3    H214300   0.732   7.129   1.200
 4787TIP3   OH214301   0.928   0.960   6.746
 4787TIP3    H114302   0.925   1.052   6.772
 4787TIP3    H214303   0.956   0.963   6.654
 4788TIP3   OH214304   1.778   5.879   6.425
 4788TIP3    H114305   1.851   5.906   6.370
 4788TIP3    H214306   1.742   5.802   6.381
 4789TIP3   OH214307   4.372   7.333   0.693
 4789TIP3    H114308   4.362   7.272   0.620
 4789TIP3    H214309   4.441   7.393   0.664
 4790TIP3   OH214310   3.872   3.403   0.931
 4790TIP3    H114311   3.885   3.460   0.855
 4790TIP3    H214312   3.789   3.433   0.969
 4791TIP3   OH214313   6.213   6.479   2.713
 4791TIP3    H114314   6.157   6.441   2.646
 4791TIP3    H214315   6.297   6.491   2.670
 4792TIP3   OH214316   4.935   2.590   0.220
 4792TIP3    H114317   4.853   2.608   0.173
 4792TIP3    H214318   4.965   2.675   0.249
 4793TIP3   OH214319   4.876   1.572   5.693
 4793TIP3    H114320   4.813   1.643   5.682
 4793TIP3    H214321   4.883   1.561   5.787
 4794TIP3   OH214322   3.395   1.766   0.049
 4794TIP3    H114323   3.432   1.815  -0.024
 4794TIP3    H214324   3.443   1.684   0.050
 4795TIP3   OH214325   1.211   1.578   2.159
 4795TIP3    H114326   1.238   1.487   2.172
 4795TIP3    H214327   1.273   1.612   2.094
 4796TIP3   OH214328   3.885   7.724   2.780
 4796TIP3    H114329   3.896   7.792   2.846
 4796TIP3    H214330   3.804   7.748   2.734
 4797TIP3   OH214331   5.923   0.022   6.286
 4797TIP3    H114332   5.930   0.057   6.197
 4797TIP3    H214333   5.840   0.057   6.319
 4798TIP3   OH214334   5.843   4.527   2.810
 4798TIP3    H114335   5.919   4.553   2.862
 4798TIP3    H214336   5.879   4.504   2.724
 4799TIP3   OH214337   2.740   5.396   0.895
 4799TIP3    H114338   2.700   5.475   0.860
 4799TIP3    H214339   2.696   5.324   0.849
 4800TIP3   OH214340   4.495   0.092   3.315
 4800TIP3    H114341   4.402   0.105   3.333
 4800TIP3    H214342   4.514   0.005   3.350
 4801TIP3   OH214343   3.628   5.679   4.862
 4801TIP3    H114344   3.687   5.682   4.786
 4801TIP3    H214345   3.542   5.659   4.825
 4802TIP3   OH214346   2.866   5.118   2.752
 4802TIP3    H114347   2.901   5.167   2.827
 4802TIP3    H214348   2.814   5.183   2.704
 4803TIP3   OH214349   4.136   6.020   0.099
 4803TIP3    H114350   4.213   5.966   0.116
 4803TIP3    H214351   4.110   6.053   0.184
 4804TIP3   OH214352   0.291   6.191   0.618
 4804TIP3    H114353   0.332   6.215   0.535
 4804TIP3    H214354   0.229   6.261   0.636
 4805TIP3   OH214355   1.719   5.494   6.651
 4805TIP3    H114356   1.751   5.541   6.728
 4805TIP3    H214357   1.665   5.559   6.604
 4806TIP3   OH214358   0.420   1.498   2.137
 4806TIP3    H114359   0.353   1.491   2.205
 4806TIP3    H214360   0.425   1.591   2.117
 4807TIP3   OH214361   6.851   1.662   2.899
 4807TIP3    H114362   6.801   1.595   2.852
 4807TIP3    H214363   6.803   1.677   2.980
 4808TIP3   OH214364   4.593   0.389   4.274
 4808TIP3    H114365   4.548   0.457   4.224
 4808TIP3    H214366   4.652   0.348   4.211
 4809TIP3   OH214367   6.403   7.121   3.177
 4809TIP3    H114368   6.377   7.033   3.151
 4809TIP3    H214369   6.489   7.110   3.217
 4810TIP3   OH214370   7.562   2.811   3.547
 4810TIP3    H114371   7.612   2.729   3.554
 4810TIP3    H214372   7.520   2.820   3.633
 4811TIP3   OH214373   5.543   3.631   6.082
 4811TIP3    H114374   5.516   3.719   6.056
 4811TIP3    H214375   5.540   3.579   6.001
 4812TIP3   OH214376   6.573   0.975   2.091
 4812TIP3    H114377   6.654   1.026   2.096
 4812TIP3    H214378   6.580   0.912   2.162
 4813TIP3   OH214379   2.190   2.597   2.816
 4813TIP3    H114380   2.113   2.639   2.853
 4813TIP3    H214381   2.155   2.528   2.759
 4814TIP3   OH214382   7.359   6.472   1.903
 4814TIP3    H114383   7.312   6.389   1.901
 4814TIP3    H214384   7.336   6.511   1.987
 4815TIP3   OH214385   6.610   5.079   4.656
 4815TIP3    H114386   6.562   5.008   4.697
 4815TIP3    H214387   6.604   5.152   4.718
 4816TIP3   OH214388   2.303   7.143   2.466
 4816TIP3    H114389   2.269   7.065   2.421
 4816TIP3    H214390   2.392   7.119   2.492
 4817TIP3   OH214391   0.116   1.670   4.475
 4817TIP3    H114392   0.116   1.766   4.476
 4817TIP3    H214393   0.127   1.646   4.567
 4818TIP3   OH214394   0.074   2.455   2.360
 4818TIP3    H114395   0.049   2.466   2.268
 4818TIP3    H214396  -0.007   2.436   2.406
 4819TIP3   OH214397   7.000   7.369   2.977
 4819TIP3    H114398   6.985   7.417   2.895
 4819TIP3    H214399   7.008   7.438   3.043
 4820TIP3   OH214400   3.813   7.909   5.453
 4820TIP3    H114401   3.886   7.896   5.393
 4820TIP3    H214402   3.815   7.832   5.510
 4821TIP3   OH214403   4.675   2.104   5.038
 4821TIP3    H114404   4.618   2.027   5.033
 4821TIP3    H214405   4.759   2.073   5.004
 4822TIP3   OH214406   0.024   2.802   6.527
 4822TIP3    H114407  -0.022   2.884   6.506
 4822TIP3    H214408   0.072   2.822   6.607
 4823TIP3   OH214409   8.393   7.081   3.035
 4823TIP3    H114410   8.340   7.070   2.955
 4823TIP3    H214411   8.346   7.031   3.102
 4824TIP3   OH214412   7.973   1.879   3.940
 4824TIP3    H114413   7.954   1.852   4.029
 4824TIP3    H214414   8.069   1.878   3.934
 4825TIP3   OH214415   4.818   4.220   2.256
 4825TIP3    H114416   4.831   4.134   2.298
 4825TIP3    H214417   4.902   4.238   2.212
 4826TIP3   OH214418   6.129   1.314   3.846
 4826TIP3    H114419   6.204   1.366   3.876
 4826TIP3    H214420   6.169   1.239   3.802
 4827TIP3   OH214421   5.830   0.155   0.687
 4827TIP3    H114422   5.816   0.206   0.766
 4827TIP3    H214423   5.773   0.195   0.621
 4828TIP3   OH214424   1.225   7.111   4.465
 4828TIP3    H114425   1.182   7.174   4.523
 4828TIP3    H214426   1.153   7.058   4.431
 4829TIP3   OH214427   7.734   3.272   2.066
 4829TIP3    H114428   7.682   3.352   2.075
 4829TIP3    H214429   7.811   3.298   2.016
 4830TIP3   OH214430   6.030   2.893   5.072
 4830TIP3    H114431   6.007   2.834   5.144
 4830TIP3    H214432   5.977   2.863   4.998
 4831TIP3   OH214433   8.190   2.124   4.047
 4831TIP3    H114434   8.225   2.160   3.966
 4831TIP3    H214435   8.132   2.192   4.081
 4832TIP3   OH214436   1.595   7.350   6.828
 4832TIP3    H114437   1.550   7.391   6.754
 4832TIP3    H214438   1.648   7.281   6.789
 4833TIP3   OH214439   4.965   7.878   0.079
 4833TIP3    H114440   4.978   7.954   0.136
 4833TIP3    H214441   4.951   7.915  -0.008
 4834TIP3   OH214442   2.322   0.473   4.323
 4834TIP3    H114443   2.300   0.499   4.233
 4834TIP3    H214444   2.344   0.555   4.367
 4835TIP3   OH214445   2.958   4.129   5.950
 4835TIP3    H114446   2.990   4.147   6.039
 4835TIP3    H214447   2.865   4.154   5.953
 4836TIP3   OH214448   2.670   2.836   5.742
 4836TIP3    H114449   2.752   2.879   5.763
 4836TIP3    H214450   2.635   2.807   5.826
 4837TIP3   OH214451   4.045   6.188   6.348
 4837TIP3    H114452   4.009   6.164   6.433
 4837TIP3    H214453   3.997   6.135   6.284
 4838TIP3   OH214454   4.999   4.823   5.207
 4838TIP3    H114455   5.076   4.824   5.151
 4838TIP3    H214456   5.026   4.773   5.284
 4839TIP3   OH214457   6.725   0.152   5.947
 4839TIP3    H114458   6.634   0.131   5.926
 4839TIP3    H214459   6.774   0.124   5.869
 4840TIP3   OH214460   7.602   3.091   2.704
 4840TIP3    H114461   7.632   3.110   2.615
 4840TIP3    H214462   7.527   3.149   2.718
 4841TIP3   OH214463   7.451   7.001   5.976
 4841TIP3    H114464   7.430   7.072   6.038
 4841TIP3    H214465   7.522   6.953   6.019
 4842TIP3   OH214466   6.259   7.153   0.041
 4842TIP3    H114467   6.354   7.157   0.045
 4842TIP3    H214468   6.229   7.221   0.101
 4843TIP3   OH214469   1.422   3.410   5.188
 4843TIP3    H114470   1.453   3.350   5.120
 4843TIP3    H214471   1.365   3.357   5.243
 4844TIP3   OH214472   4.270   0.105   4.013
 4844TIP3    H114473   4.231   0.188   3.985
 4844TIP3    H214474   4.257   0.104   4.108
 4845TIP3   OH214475   4.142   4.238   4.380
 4845TIP3    H114476   4.127   4.160   4.326
 4845TIP3    H214477   4.175   4.204   4.463
 4846TIP3   OH214478   7.086   4.159   0.003
 4846TIP3    H114479   7.049   4.236  -0.041
 4846TIP3    H214480   7.054   4.165   0.092
 4847TIP3   OH214481   6.796   1.946   6.808
 4847TIP3    H114482   6.820   1.951   6.716
 4847TIP3    H214483   6.865   1.892   6.848
 4848TIP3   OH214484   4.011   6.452   0.358
 4848TIP3    H114485   4.078   6.520   0.361
 4848TIP3    H214486   4.002   6.431   0.265
 4849TIP3   OH214487   7.115   5.523   6.725
 4849TIP3    H114488   7.035   5.574   6.712
 4849TIP3    H214489   7.139   5.493   6.637
 4850TIP3   OH214490   5.213   7.463   1.004
 4850TIP3    H114491   5.276   7.399   0.969
 4850TIP3    H214492   5.248   7.485   1.090
 4851TIP3   OH214493   2.156   6.898   0.540
 4851TIP3    H114494   2.183   6.987   0.516
 4851TIP3    H214495   2.126   6.906   0.631
 4852TIP3   OH214496   3.687   3.432   3.635
 4852TIP3    H114497   3.659   3.362   3.575
 4852TIP3    H214498   3.782   3.438   3.622
 4853TIP3   OH214499   7.284   1.601   4.367
 4853TIP3    H114500   7.345   1.626   4.299
 4853TIP3    H214501   7.239   1.683   4.389
 4854TIP3   OH214502   8.216   1.179   5.173
 4854TIP3    H114503   8.132   1.158   5.215
 4854TIP3    H214504   8.279   1.181   5.245
 4855TIP3   OH214505   5.741   2.629   3.968
 4855TIP3    H114506   5.830   2.598   3.953
 4855TIP3    H214507   5.722   2.686   3.894
 4856TIP3   OH214508   4.547   0.993   3.325
 4856TIP3    H114509   4.533   0.977   3.418
 4856TIP3    H214510   4.524   1.086   3.313
 4857TIP3   OH214511   4.696   0.252   0.262
 4857TIP3    H114512   4.603   0.233   0.275
 4857TIP3    H214513   4.703   0.285   0.172
 4858TIP3   OH214514   0.600   5.487   3.869
 4858TIP3    H114515   0.517   5.524   3.898
 4858TIP3    H214516   0.660   5.504   3.942
 4859TIP3   OH214517   4.054   3.143   6.107
 4859TIP3    H114518   3.984   3.191   6.062
 4859TIP3    H214519   4.093   3.088   6.038
 4860TIP3   OH214520   7.467   7.718   2.989
 4860TIP3    H114521   7.562   7.723   2.994
 4860TIP3    H214522   7.441   7.679   3.073
 4861TIP3   OH214523   8.407   7.668   0.437
 4861TIP3    H114524   8.408   7.703   0.349
 4861TIP3    H214525   8.388   7.575   0.426
 4862TIP3   OH214526   7.869   2.516   1.090
 4862TIP3    H114527   7.806   2.537   1.021
 4862TIP3    H214528   7.946   2.482   1.043
 4863TIP3   OH214529   2.029   4.764   2.982
 4863TIP3    H114530   2.121   4.771   2.956
 4863TIP3    H214531   2.005   4.852   3.011
 4864TIP3   OH214532   7.447   7.303   5.762
 4864TIP3    H114533   7.470   7.216   5.731
 4864TIP3    H214534   7.373   7.329   5.707
 4865TIP3   OH214535   0.394   2.875   5.048
 4865TIP3    H114536   0.400   2.780   5.038
 4865TIP3    H214537   0.485   2.905   5.050
 4866TIP3   OH214538   5.842   5.517   2.054
 4866TIP3    H114539   5.896   5.445   2.021
 4866TIP3    H214540   5.884   5.544   2.135
 4867TIP3   OH214541   1.364   5.581   1.119
 4867TIP3    H114542   1.385   5.496   1.081
 4867TIP3    H214543   1.269   5.588   1.112
 4868TIP3   OH214544   0.757   7.653   4.292
 4868TIP3    H114545   0.848   7.625   4.289
 4868TIP3    H214546   0.709   7.584   4.246
 4869TIP3   OH214547   3.197   4.002   4.612
 4869TIP3    H114548   3.169   3.936   4.675
 4869TIP3    H214549   3.280   4.034   4.646
 4870TIP3   OH214550   5.467   6.053   4.200
 4870TIP3    H114551   5.433   6.067   4.111
 4870TIP3    H214552   5.503   6.139   4.224
 4871TIP3   OH214553   2.184   4.340   2.751
 4871TIP3    H114554   2.238   4.347   2.830
 4871TIP3    H214555   2.112   4.282   2.777
 4872TIP3   OH214556   1.147   2.279   1.054
 4872TIP3    H114557   1.070   2.305   1.105
 4872TIP3    H214558   1.126   2.191   1.022
 4873TIP3   OH214559   1.391   5.539   6.013
 4873TIP3    H114560   1.299   5.560   6.030
 4873TIP3    H214561   1.425   5.616   5.967
 4874TIP3   OH214562   5.644   2.720   1.140
 4874TIP3    H114563   5.709   2.744   1.074
 4874TIP3    H214564   5.630   2.800   1.190
 4875TIP3   OH214565   3.322   0.213   4.370
 4875TIP3    H114566   3.241   0.261   4.388
 4875TIP3    H214567   3.335   0.159   4.448
 4876TIP3   OH214568   3.609   2.601   3.995
 4876TIP3    H114569   3.583   2.665   4.061
 4876TIP3    H214570   3.572   2.518   4.026
 4877TIP3   OH214571   2.213   5.348   2.959
 4877TIP3    H114572   2.210   5.338   3.054
 4877TIP3    H214573   2.295   5.306   2.933
 4878TIP3   OH214574   2.322   2.351   0.327
 4878TIP3    H114575   2.347   2.394   0.245
 4878TIP3    H214576   2.404   2.318   0.364
 4879TIP3   OH214577   7.411   3.989   1.506
 4879TIP3    H114578   7.504   3.992   1.483
 4879TIP3    H214579   7.404   4.048   1.582
 4880TIP3   OH214580   2.682   2.096   2.872
 4880TIP3    H114581   2.636   2.169   2.915
 4880TIP3    H214582   2.775   2.117   2.881
 4881TIP3   OH214583   6.464   1.907   3.870
 4881TIP3    H114584   6.439   1.871   3.785
 4881TIP3    H214585   6.521   1.841   3.909
 4882TIP3   OH214586   3.246   1.820   5.286
 4882TIP3    H114587   3.278   1.734   5.258
 4882TIP3    H214588   3.202   1.804   5.369
 4883TIP3   OH214589   4.259   4.152   4.904
 4883TIP3    H114590   4.191   4.190   4.960
 4883TIP3    H214591   4.326   4.120   4.966
 4884TIP3   OH214592   3.271   0.403   5.558
 4884TIP3    H114593   3.195   0.432   5.508
 4884TIP3    H214594   3.261   0.444   5.644
 4885TIP3   OH214595   0.770   3.725   0.129
 4885TIP3    H114596   0.855   3.706   0.168
 4885TIP3    H214597   0.706   3.704   0.197
 4886TIP3   OH214598   5.995   1.902   1.716
 4886TIP3    H114599   5.988   1.817   1.673
 4886TIP3    H214600   5.904   1.927   1.733
 4887TIP3   OH214601   3.621   6.132   3.901
 4887TIP3    H114602   3.669   6.086   3.970
 4887TIP3    H214603   3.565   6.193   3.948
 4888TIP3   OH214604   1.645   0.877   0.895
 4888TIP3    H114605   1.637   0.970   0.918
 4888TIP3    H214606   1.729   0.850   0.933
 4889TIP3   OH214607   3.605   1.845   1.495
 4889TIP3    H114608   3.539   1.911   1.476
 4889TIP3    H214609   3.557   1.763   1.496
 4890TIP3   OH214610   6.116   2.064   0.549
 4890TIP3    H114611   6.086   2.072   0.459
 4890TIP3    H214612   6.171   2.141   0.563
 4891TIP3   OH214613   0.472   0.771   3.252
 4891TIP3    H114614   0.401   0.707   3.267
 4891TIP3    H214615   0.552   0.723   3.274
 4892TIP3   OH214616   0.861   3.983   6.166
 4892TIP3    H114617   0.912   3.908   6.195
 4892TIP3    H214618   0.788   3.944   6.116
 4893TIP3   OH214619   0.814   0.276   4.555
 4893TIP3    H114620   0.815   0.307   4.464
 4893TIP3    H214621   0.775   0.189   4.549
 4894TIP3   OH214622   5.759   1.981   6.363
 4894TIP3    H114623   5.729   2.064   6.399
 4894TIP3    H214624   5.791   1.932   6.439
 4895TIP3   OH214625   2.043   3.669   2.794
 4895TIP3    H114626   1.953   3.680   2.766
 4895TIP3    H214627   2.055   3.575   2.801
 4896TIP3   OH214628   3.723   3.641   0.335
 4896TIP3    H114629   3.801   3.671   0.288
 4896TIP3    H214630   3.725   3.689   0.418
 4897TIP3   OH214631   1.783   6.370   3.347
 4897TIP3    H114632   1.764   6.404   3.435
 4897TIP3    H214633   1.697   6.347   3.311
 4898TIP3   OH214634   2.258   5.435   4.288
 4898TIP3    H114635   2.309   5.364   4.327
 4898TIP3    H214636   2.168   5.417   4.315
 4899TIP3   OH214637   4.989   7.218   4.705
 4899TIP3    H114638   4.897   7.240   4.719
 4899TIP3    H214639   5.007   7.150   4.770
 4900TIP3   OH214640   0.094   1.770   5.583
 4900TIP3    H114641   0.010   1.727   5.568
 4900TIP3    H214642   0.157   1.721   5.530
 4901TIP3   OH214643   7.093   5.537   5.949
 4901TIP3    H114644   7.080   5.549   5.855
 4901TIP3    H214645   7.097   5.443   5.962
 4902TIP3   OH214646   1.163   7.533   5.241
 4902TIP3    H114647   1.195   7.447   5.218
 4902TIP3    H214648   1.084   7.517   5.292
 4903TIP3   OH214649   6.720   1.495   6.548
 4903TIP3    H114650   6.662   1.539   6.610
 4903TIP3    H214651   6.808   1.528   6.569
 4904TIP3   OH214652   3.057   2.084   5.154
 4904TIP3    H114653   3.088   1.998   5.124
 4904TIP3    H214654   3.004   2.117   5.082
 4905TIP3   OH214655   2.256   2.562   6.405
 4905TIP3    H114656   2.165   2.561   6.435
 4905TIP3    H214657   2.280   2.470   6.397
 4906TIP3   OH214658   6.962   3.831   2.885
 4906TIP3    H114659   6.941   3.863   2.797
 4906TIP3    H214660   6.893   3.865   2.940
 4907TIP3   OH214661   4.235   2.515   1.621
 4907TIP3    H114662   4.273   2.599   1.595
 4907TIP3    H214663   4.177   2.492   1.548
 4908TIP3   OH214664   4.763   2.096   4.112
 4908TIP3    H114665   4.805   2.160   4.054
 4908TIP3    H214666   4.699   2.052   4.056
 4909TIP3   OH214667   2.410   5.745   6.146
 4909TIP3    H114668   2.459   5.826   6.153
 4909TIP3    H214669   2.405   5.713   6.236
 4910TIP3   OH214670   3.750   6.954   3.407
 4910TIP3    H114671   3.765   6.866   3.441
 4910TIP3    H214672   3.654   6.963   3.407
 4911TIP3   OH214673   3.808   3.904   6.106
 4911TIP3    H114674   3.820   3.856   6.188
 4911TIP3    H214675   3.887   3.885   6.056
 4912TIP3   OH214676   8.224   1.293   1.572
 4912TIP3    H114677   8.241   1.227   1.639
 4912TIP3    H214678   8.238   1.377   1.616
 4913TIP3   OH214679   4.912   7.683   1.827
 4913TIP3    H114680   4.965   7.720   1.899
 4913TIP3    H214681   4.936   7.735   1.751
 4914TIP3   OH214682   1.529   0.621   1.532
 4914TIP3    H114683   1.545   0.529   1.556
 4914TIP3    H214684   1.434   0.630   1.534
 4915TIP3   OH214685   6.479   3.766   6.206
 4915TIP3    H114686   6.427   3.798   6.131
 4915TIP3    H214687   6.537   3.700   6.168
 4916TIP3   OH214688   4.844   4.807   4.183
 4916TIP3    H114689   4.795   4.782   4.104
 4916TIP3    H214690   4.816   4.896   4.202
 4917TIP3   OH214691   0.218   6.121   4.195
 4917TIP3    H114692   0.238   6.028   4.207
 4917TIP3    H214693   0.220   6.158   4.283
 4918TIP3   OH214694   0.941   6.019   0.056
 4918TIP3    H114695   1.023   6.008   0.007
 4918TIP3    H214696   0.880   5.958   0.015
 4919TIP3   OH214697   1.065   7.047   5.524
 4919TIP3    H114698   1.137   7.109   5.537
 4919TIP3    H214699   0.997   7.077   5.584
 4920TIP3   OH214700   2.294   4.930   5.681
 4920TIP3    H114701   2.334   4.951   5.597
 4920TIP3    H214702   2.200   4.931   5.663
 4921TIP3   OH214703   4.937   3.542   6.500
 4921TIP3    H114704   4.932   3.625   6.548
 4921TIP3    H214705   4.848   3.506   6.506
 4922TIP3   OH214706   2.836   2.365   2.415
 4922TIP3    H114707   2.862   2.283   2.371
 4922TIP3    H214708   2.911   2.423   2.403
 4923TIP3   OH214709   5.762   7.615   2.575
 4923TIP3    H114710   5.695   7.664   2.527
 4923TIP3    H214711   5.752   7.642   2.666
 4924TIP3   OH214712   2.791   1.845   2.336
 4924TIP3    H114713   2.718   1.885   2.288
 4924TIP3    H214714   2.752   1.811   2.416
 4925TIP3   OH214715   7.835   4.509   0.432
 4925TIP3    H114716   7.853   4.457   0.510
 4925TIP3    H214717   7.750   4.478   0.402
 4926TIP3   OH214718   4.400   0.664   3.511
 4926TIP3    H114719   4.492   0.641   3.523
 4926TIP3    H214720   4.364   0.593   3.459
 4927TIP3   OH214721   2.220   4.030   6.649
 4927TIP3    H114722   2.254   3.954   6.602
 4927TIP3    H214723   2.296   4.086   6.663
 4928TIP3   OH214724   2.134   5.992   2.067
 4928TIP3    H114725   2.180   6.064   2.023
 4928TIP3    H214726   2.148   6.009   2.160
 4929TIP3   OH214727   1.497   4.460   0.572
 4929TIP3    H114728   1.422   4.463   0.630
 4929TIP3    H214729   1.497   4.370   0.537
 4930TIP3   OH214730   1.255   4.011   4.853
 4930TIP3    H114731   1.174   4.051   4.822
 4930TIP3    H214732   1.246   3.918   4.833
 4931TIP3   OH214733   7.182   6.790   0.693
 4931TIP3    H114734   7.246   6.815   0.759
 4931TIP3    H214735   7.204   6.843   0.616
 4932TIP3   OH214736   6.827   7.926   5.575
 4932TIP3    H114737   6.759   7.979   5.617
 4932TIP3    H214738   6.784   7.843   5.556
 4933TIP3   OH214739   6.622   2.052   0.079
 4933TIP3    H114740   6.605   2.104   0.000
 4933TIP3    H214741   6.717   2.041   0.081
 4934TIP3   OH214742   4.678   5.319   2.978
 4934TIP3    H114743   4.748   5.255   2.964
 4934TIP3    H214744   4.618   5.305   2.905
 4935TIP3   OH214745   0.237   0.121   1.069
 4935TIP3    H114746   0.182   0.193   1.037
 4935TIP3    H214747   0.318   0.164   1.097
 4936TIP3   OH214748   0.823   2.659   5.309
 4936TIP3    H114749   0.774   2.699   5.380
 4936TIP3    H214750   0.891   2.608   5.352
 4937TIP3   OH214751   6.301   4.015   1.690
 4937TIP3    H114752   6.307   3.931   1.736
 4937TIP3    H214753   6.338   3.998   1.604
 4938TIP3   OH214754   8.369   3.525   6.355
 4938TIP3    H114755   8.276   3.547   6.345
 4938TIP3    H214756   8.393   3.486   6.270
 4939TIP3   OH214757   2.414   2.782   4.901
 4939TIP3    H114758   2.325   2.745   4.899
 4939TIP3    H214759   2.471   2.705   4.905
 4940TIP3   OH214760   4.392   2.698   3.550
 4940TIP3    H114761   4.407   2.624   3.492
 4940TIP3    H214762   4.463   2.760   3.531
 4941TIP3   OH214763   7.101   1.681   3.124
 4941TIP3    H114764   7.040   1.736   3.174
 4941TIP3    H214765   7.108   1.724   3.039
 4942TIP3   OH214766   6.483   6.968   2.298
 4942TIP3    H114767   6.430   7.007   2.228
 4942TIP3    H214768   6.510   6.883   2.262
 4943TIP3   OH214769   2.057   2.749   6.683
 4943TIP3    H114770   2.034   2.766   6.774
 4943TIP3    H214771   1.999   2.677   6.657
 4944TIP3   OH214772   7.965   5.476   2.574
 4944TIP3    H114773   7.998   5.394   2.537
 4944TIP3    H214774   8.033   5.540   2.555
 4945TIP3   OH214775   0.112   0.889   0.942
 4945TIP3    H114776   0.067   0.833   1.005
 4945TIP3    H214777   0.051   0.960   0.925
 4946TIP3   OH214778   0.438   5.762   1.840
 4946TIP3    H114779   0.357   5.807   1.863
 4946TIP3    H214780   0.417   5.669   1.846
 4947TIP3   OH214781   8.280   5.741   1.187
 4947TIP3    H114782   8.271   5.665   1.244
 4947TIP3    H214783   8.372   5.741   1.161
 4948TIP3   OH214784   7.174   3.436   5.964
 4948TIP3    H114785   7.269   3.426   5.974
 4948TIP3    H214786   7.138   3.352   5.993
 4949TIP3   OH214787   6.315   7.375   6.541
 4949TIP3    H114788   6.361   7.294   6.521
 4949TIP3    H214789   6.227   7.362   6.505
 4950TIP3   OH214790   7.886   2.627   2.586
 4950TIP3    H114791   7.861   2.603   2.497
 4950TIP3    H214792   7.837   2.708   2.604
 4951TIP3   OH214793   7.288   3.852   2.322
 4951TIP3    H114794   7.310   3.888   2.408
 4951TIP3    H214795   7.206   3.895   2.299
 4952TIP3   OH214796   1.751   3.070   2.245
 4952TIP3    H114797   1.687   3.126   2.201
 4952TIP3    H214798   1.792   3.020   2.175
 4953TIP3   OH214799   1.548   6.922   1.359
 4953TIP3    H114800   1.516   6.905   1.448
 4953TIP3    H214801   1.510   7.007   1.336
 4954TIP3   OH214802   4.053   3.171   2.990
 4954TIP3    H114803   4.128   3.215   2.949
 4954TIP3    H214804   4.071   3.176   3.084
 4955TIP3   OH214805   3.127   4.531   5.922
 4955TIP3    H114806   3.044   4.502   5.958
 4955TIP3    H214807   3.123   4.509   5.829
 4956TIP3   OH214808   0.320   7.593   1.753
 4956TIP3    H114809   0.338   7.527   1.686
 4956TIP3    H214810   0.255   7.651   1.714
 4957TIP3   OH214811   7.143   5.185   1.226
 4957TIP3    H114812   7.133   5.121   1.155
 4957TIP3    H214813   7.054   5.211   1.248
 4958TIP3   OH214814   4.873   0.415   2.974
 4958TIP3    H114815   4.843   0.429   2.884
 4958TIP3    H214816   4.824   0.339   3.005
 4959TIP3   OH214817   6.253   0.883   2.352
 4959TIP3    H114818   6.247   0.827   2.430
 4959TIP3    H214819   6.183   0.851   2.295
 4960TIP3   OH214820   5.136   4.457   4.471
 4960TIP3    H114821   5.081   4.504   4.409
 4960TIP3    H214822   5.218   4.442   4.425
 4961TIP3   OH214823   8.098   2.963   3.428
 4961TIP3    H114824   8.033   2.961   3.498
 4961TIP3    H214825   8.130   2.873   3.422
 4962TIP3   OH214826   7.297   7.531   2.839
 4962TIP3    H114827   7.356   7.604   2.854
 4962TIP3    H214828   7.235   7.535   2.912
 4963TIP3   OH214829   5.949   3.356   6.019
 4963TIP3    H114830   6.017   3.345   5.953
 4963TIP3    H214831   5.899   3.274   6.016
 4964TIP3   OH214832   0.395   3.371   3.439
 4964TIP3    H114833   0.402   3.466   3.426
 4964TIP3    H214834   0.318   3.346   3.390
 4965TIP3   OH214835   2.085   6.254   6.458
 4965TIP3    H114836   2.099   6.163   6.485
 4965TIP3    H214837   1.990   6.263   6.451
 4966TIP3   OH214838   5.606   1.823   2.666
 4966TIP3    H114839   5.580   1.757   2.602
 4966TIP3    H214840   5.527   1.875   2.681
 4967TIP3   OH214841   3.353   3.020   2.134
 4967TIP3    H114842   3.420   2.957   2.108
 4967TIP3    H214843   3.270   2.974   2.119
 4968TIP3   OH214844   2.902   2.107   6.187
 4968TIP3    H114845   2.852   2.034   6.226
 4968TIP3    H214846   2.992   2.093   6.218
 4969TIP3   OH214847   5.313   7.771   3.914
 4969TIP3    H114848   5.365   7.712   3.968
 4969TIP3    H214849   5.376   7.830   3.874
 4970TIP3   OH214850   6.190   7.191   2.491
 4970TIP3    H114851   6.153   7.119   2.542
 4970TIP3    H214852   6.275   7.207   2.532
 4971TIP3   OH214853   5.810   2.151   3.451
 4971TIP3    H114854   5.826   2.057   3.446
 4971TIP3    H214855   5.823   2.173   3.543
 4972TIP3   OH214856   0.327   5.260   2.332
 4972TIP3    H114857   0.406   5.310   2.312
 4972TIP3    H214858   0.260   5.298   2.275
 4973TIP3   OH214859   4.693   2.476   3.944
 4973TIP3    H114860   4.785   2.464   3.920
 4973TIP3    H214861   4.683   2.427   4.026
 4974TIP3   OH214862   3.571   5.928   3.366
 4974TIP3    H114863   3.520   5.970   3.296
 4974TIP3    H214864   3.641   5.991   3.385
 4975TIP3   OH214865   4.984   1.208   4.375
 4975TIP3    H114866   4.933   1.150   4.318
 4975TIP3    H214867   5.047   1.151   4.418
 4976TIP3   OH214868   7.243   0.132   2.207
 4976TIP3    H114869   7.188   0.061   2.176
 4976TIP3    H214870   7.324   0.124   2.157
 4977TIP3   OH214871   3.680   3.774   3.924
 4977TIP3    H114872   3.742   3.709   3.957
 4977TIP3    H214873   3.732   3.828   3.864
 4978TIP3   OH214874   7.886   5.027   5.629
 4978TIP3    H114875   7.965   5.027   5.683
 4978TIP3    H214876   7.918   5.031   5.539
 4979TIP3   OH214877   5.865   6.613   2.610
 4979TIP3    H114878   5.782   6.585   2.571
 4979TIP3    H214879   5.920   6.534   2.607
 4980TIP3   OH214880   0.178   4.460   6.828
 4980TIP3    H114881   0.273   4.461   6.840
 4980TIP3    H214882   0.145   4.412   6.903
 4981TIP3   OH214883   3.939   6.748   2.003
 4981TIP3    H114884   3.883   6.691   1.950
 4981TIP3    H214885   4.028   6.727   1.974
 4982TIP3   OH214886   5.645   0.289   0.548
 4982TIP3    H114887   5.621   0.226   0.481
 4982TIP3    H214888   5.563   0.306   0.595
 4983TIP3   OH214889   3.573   1.099   0.722
 4983TIP3    H114890   3.479   1.083   0.713
 4983TIP3    H214891   3.615   1.032   0.668
 4984TIP3   OH214892   1.535   4.015   0.403
 4984TIP3    H114893   1.602   4.032   0.336
 4984TIP3    H214894   1.579   3.958   0.466
 4985TIP3   OH214895   8.004   4.506   1.492
 4985TIP3    H114896   7.919   4.550   1.495
 4985TIP3    H214897   8.032   4.515   1.400
 4986TIP3   OH214898   5.506   6.909   4.615
 4986TIP3    H114899   5.508   6.841   4.548
 4986TIP3    H214900   5.484   6.862   4.696
 4987TIP3   OH214901   0.930   0.526   3.483
 4987TIP3    H114902   0.963   0.504   3.571
 4987TIP3    H214903   0.996   0.587   3.448
 4988TIP3   OH214904   3.088   7.522   5.654
 4988TIP3    H114905   3.087   7.428   5.636
 4988TIP3    H214906   3.029   7.560   5.589
 4989TIP3   OH214907   4.705   7.898   2.618
 4989TIP3    H114908   4.794   7.886   2.652
 4989TIP3    H214909   4.715   7.962   2.547
 4990TIP3   OH214910   0.902   6.492   2.576
 4990TIP3    H114911   0.983   6.485   2.526
 4990TIP3    H214912   0.895   6.409   2.623
 4991TIP3   OH214913   3.360   7.029   4.049
 4991TIP3    H114914   3.418   6.958   4.076
 4991TIP3    H214915   3.417   7.092   4.006
 4992TIP3   OH214916   2.569   5.402   5.885
 4992TIP3    H114917   2.629   5.336   5.918
 4992TIP3    H214918   2.618   5.447   5.816
 4993TIP3   OH214919   3.964   4.022   4.929
 4993TIP3    H114920   3.976   3.933   4.962
 4993TIP3    H214921   4.017   4.077   4.986
 4994TIP3   OH214922   5.169   6.697   0.605
 4994TIP3    H114923   5.174   6.721   0.512
 4994TIP3    H214924   5.247   6.736   0.645
 4995TIP3   OH214925   4.455   2.112   4.042
 4995TIP3    H114926   4.460   2.190   4.097
 4995TIP3    H214927   4.470   2.039   4.101
 4996TIP3   OH214928   3.073   2.120   5.547
 4996TIP3    H114929   3.125   2.144   5.470
 4996TIP3    H214930   3.129   2.061   5.596
 4997TIP3   OH214931   6.420   3.278   1.218
 4997TIP3    H114932   6.401   3.315   1.304
 4997TIP3    H214933   6.396   3.185   1.226
 4998TIP3   OH214934   3.317   3.476   5.188
 4998TIP3    H114935   3.393   3.525   5.156
 4998TIP3    H214936   3.289   3.524   5.266
 4999TIP3   OH214937   1.877   2.010   5.704
 4999TIP3    H114938   1.846   2.023   5.615
 4999TIP3    H214939   1.972   2.005   5.697
 5000TIP3   OH214940   8.136   7.125   3.357
 5000TIP3    H114941   8.054   7.141   3.309
 5000TIP3    H214942   8.118   7.158   3.445
 5001TIP3   OH214943   6.889   5.284   4.743
 5001TIP3    H114944   6.804   5.275   4.786
 5001TIP3    H214945   6.905   5.379   4.741
 5002TIP3   OH214946   5.224   6.175   5.014
 5002TIP3    H114947   5.237   6.081   5.013
 5002TIP3    H214948   5.128   6.187   5.012
 5003TIP3   OH214949   8.015   6.127   2.452
 5003TIP3    H114950   8.024   6.147   2.359
 5003TIP3    H214951   7.995   6.211   2.493
 5004TIP3   OH214952   2.581   6.369   4.186
 5004TIP3    H114953   2.602   6.354   4.278
 5004TIP3    H214954   2.494   6.331   4.175
 5005TIP3   OH214955   5.830   7.297   0.326
 5005TIP3    H114956   5.882   7.309   0.247
 5005TIP3    H214957   5.862   7.364   0.386
 5006TIP3   OH214958   6.043   1.944   2.384
 5006TIP3    H114959   5.977   1.982   2.443
 5006TIP3    H214960   5.995   1.927   2.303
 5007TIP3   OH214961   6.324   1.057   4.972
 5007TIP3    H114962   6.241   1.097   5.001
 5007TIP3    H214963   6.318   1.057   4.877
 5008TIP3   OH214964   2.216   3.162   4.721
 5008TIP3    H114965   2.262   3.113   4.790
 5008TIP3    H214966   2.150   3.101   4.688
 5009TIP3   OH214967   4.741   3.079   6.244
 5009TIP3    H114968   4.657   3.125   6.246
 5009TIP3    H214969   4.807   3.147   6.256
 5010TIP3   OH214970   6.349   3.233   5.312
 5010TIP3    H114971   6.365   3.294   5.240
 5010TIP3    H214972   6.274   3.181   5.283
 5011TIP3   OH214973   6.076   7.075   2.166
 5011TIP3    H114974   6.030   7.137   2.222
 5011TIP3    H214975   6.017   6.999   2.162
 5012TIP3   OH214976   7.048   0.671   0.467
 5012TIP3    H114977   6.971   0.664   0.524
 5012TIP3    H214978   7.049   0.589   0.419
 5013TIP3   OH214979   1.169   4.864   5.484
 5013TIP3    H114980   1.090   4.912   5.459
 5013TIP3    H214981   1.137   4.779   5.513
 5014TIP3   OH214982   7.551   6.075   1.274
 5014TIP3    H114983   7.577   6.062   1.182
 5014TIP3    H214984   7.490   6.148   1.271
 5015TIP3   OH214985   0.443   5.391   3.228
 5015TIP3    H114986   0.482   5.311   3.262
 5015TIP3    H214987   0.375   5.414   3.291
 5016TIP3   OH214988   0.754   1.934   5.420
 5016TIP3    H114989   0.818   1.893   5.478
 5016TIP3    H214990   0.713   1.861   5.374
 5017TIP3   OH214991   0.029   4.283   1.105
 5017TIP3    H114992   0.083   4.360   1.124
 5017TIP3    H214993   0.013   4.287   1.011
 5018TIP3   OH214994   5.607   3.405   3.233
 5018TIP3    H114995   5.520   3.441   3.251
 5018TIP3    H214996   5.591   3.328   3.178
 5019TIP3   OH214997   4.746   0.586   1.266
 5019TIP3    H114998   4.754   0.491   1.274
 5019TIP3    H214999   4.811   0.610   1.199
 5020TIP3   OH215000   4.863   2.390   2.024
 5020TIP3    H115001   4.871   2.478   1.989
 5020TIP3    H215002   4.773   2.384   2.056
 5021TIP3   OH215003   8.100   4.129   4.096
 5021TIP3    H115004   8.050   4.077   4.159
 5021TIP3    H215005   8.179   4.154   4.144
 5022TIP3   OH215006   4.935   0.790   0.716
 5022TIP3    H115007   4.941   0.823   0.806
 5022TIP3    H215008   5.016   0.739   0.704
 5023TIP3   OH215009   2.866   1.157   2.998
 5023TIP3    H115010   2.860   1.064   2.975
 5023TIP3    H215011   2.852   1.203   2.915
 5024TIP3   OH215012   4.049   0.226   5.063
 5024TIP3    H115013   4.132   0.270   5.085
 5024TIP3    H215014   4.042   0.157   5.129
 5025TIP3   OH215015   7.954   0.303   1.382
 5025TIP3    H115016   7.896   0.245   1.333
 5025TIP3    H215017   7.975   0.255   1.462
 5026TIP3   OH215018   4.566   1.754   2.933
 5026TIP3    H115019   4.536   1.780   3.021
 5026TIP3    H215020   4.623   1.679   2.949
 5027TIP3   OH215021   5.100   7.147   0.884
 5027TIP3    H115022   5.188   7.180   0.867
 5027TIP3    H215023   5.071   7.111   0.800
 5028TIP3   OH215024   5.707   5.035   4.383
 5028TIP3    H115025   5.651   4.997   4.316
 5028TIP3    H215026   5.775   5.082   4.334
 5029TIP3   OH215027   4.381   6.359   2.222
 5029TIP3    H115028   4.381   6.273   2.263
 5029TIP3    H215029   4.442   6.411   2.274
 5030TIP3   OH215030   2.325   3.672   0.457
 5030TIP3    H115031   2.417   3.660   0.432
 5030TIP3    H215032   2.316   3.623   0.538
 5031TIP3   OH215033   4.633   4.882   4.599
 5031TIP3    H115034   4.629   4.909   4.508
 5031TIP3    H215035   4.558   4.824   4.611
 5032TIP3   OH215036   4.134   5.384   4.490
 5032TIP3    H115037   4.175   5.350   4.569
 5032TIP3    H215038   4.107   5.307   4.441
 5033TIP3   OH215039   5.589   2.720   3.083
 5033TIP3    H115040   5.575   2.631   3.116
 5033TIP3    H215041   5.502   2.760   3.085
 5034TIP3   OH215042   1.338   7.452   0.552
 5034TIP3    H115043   1.411   7.393   0.571
 5034TIP3    H215044   1.294   7.463   0.636
 5035TIP3   OH215045   1.775   3.153   1.114
 5035TIP3    H115046   1.735   3.069   1.090
 5035TIP3    H215047   1.860   3.152   1.071
 5036TIP3   OH215048   7.980   4.632   3.579
 5036TIP3    H115049   7.974   4.610   3.486
 5036TIP3    H215050   8.019   4.555   3.619
 5037TIP3   OH215051   4.525   3.151   5.189
 5037TIP3    H115052   4.437   3.116   5.192
 5037TIP3    H215053   4.566   3.106   5.115
 5038TIP3   OH215054   0.241   3.243   1.170
 5038TIP3    H115055   0.334   3.227   1.155
 5038TIP3    H215056   0.196   3.195   1.101
 5039TIP3   OH215057   0.920   3.023   3.218
 5039TIP3    H115058   0.883   2.964   3.152
 5039TIP3    H215059   0.844   3.068   3.256
 5040TIP3   OH215060   0.727   3.946   4.376
 5040TIP3    H115061   0.742   4.000   4.298
 5040TIP3    H215062   0.795   3.974   4.438
 5041TIP3   OH215063   1.727   1.040   0.647
 5041TIP3    H115064   1.686   0.954   0.658
 5041TIP3    H215065   1.682   1.079   0.573
 5042TIP3   OH215066   3.337   1.034   2.473
 5042TIP3    H115067   3.404   1.096   2.445
 5042TIP3    H215068   3.273   1.033   2.401
 5043TIP3   OH215069   7.345   3.876   4.393
 5043TIP3    H115070   7.401   3.898   4.318
 5043TIP3    H215071   7.287   3.951   4.403
 5044TIP3   OH215072   2.251   4.180   1.227
 5044TIP3    H115073   2.322   4.243   1.216
 5044TIP3    H215074   2.219   4.196   1.316
 5045TIP3   OH215075   8.066   2.844   6.352
 5045TIP3    H115076   8.106   2.778   6.295
 5045TIP3    H215077   7.977   2.813   6.367
 5046TIP3   OH215078   5.093   5.183   2.748
 5046TIP3    H115079   5.110   5.238   2.671
 5046TIP3    H215080   5.123   5.096   2.723
 5047TIP3   OH215081   3.135   0.732   3.151
 5047TIP3    H115082   3.130   0.820   3.189
 5047TIP3    H215083   3.134   0.673   3.227
 5048TIP3   OH215084   6.602   5.974   3.832
 5048TIP3    H115085   6.577   5.891   3.791
 5048TIP3    H215086   6.622   6.032   3.758
 5049TIP3   OH215087   3.304   2.212   4.934
 5049TIP3    H115088   3.269   2.281   4.991
 5049TIP3    H215089   3.228   2.178   4.888
 5050TIP3   OH215090   0.371   0.156   2.206
 5050TIP3    H115091   0.296   0.182   2.259
 5050TIP3    H215092   0.334   0.105   2.134
 5051TIP3   OH215093   0.354   2.343   2.368
 5051TIP3    H115094   0.396   2.283   2.306
 5051TIP3    H215095   0.261   2.337   2.346
 5052TIP3   OH215096   6.135   0.083   4.695
 5052TIP3    H115097   6.138  -0.006   4.660
 5052TIP3    H215098   6.226   0.103   4.718
 5053TIP3   OH215099   4.066   6.271   0.836
 5053TIP3    H115100   4.080   6.364   0.855
 5053TIP3    H215101   4.143   6.244   0.787
 5054TIP3   OH215102   2.992   5.054   5.197
 5054TIP3    H115103   2.992   4.976   5.141
 5054TIP3    H215104   2.901   5.062   5.227
 5055TIP3   OH215105   2.066   1.884   5.106
 5055TIP3    H115106   1.970   1.891   5.103
 5055TIP3    H215107   2.088   1.890   5.199
 5056TIP3   OH215108   0.838   5.725   3.611
 5056TIP3    H115109   0.860   5.792   3.545
 5056TIP3    H215110   0.801   5.775   3.684
 5057TIP3   OH215111   0.692   1.601   0.473
 5057TIP3    H115112   0.740   1.684   0.475
 5057TIP3    H215113   0.605   1.622   0.506
 5058TIP3   OH215114   6.519   1.619   3.746
 5058TIP3    H115115   6.612   1.603   3.762
 5058TIP3    H215116   6.509   1.613   3.651
 5059TIP3   OH215117   6.917   7.211   4.403
 5059TIP3    H115118   6.894   7.154   4.477
 5059TIP3    H215119   6.847   7.197   4.339
 5060TIP3   OH215120   3.863   6.241   6.870
 5060TIP3    H115121   3.808   6.313   6.840
 5060TIP3    H215122   3.875   6.186   6.793
 5061TIP3   OH215123   7.037   0.649   5.622
 5061TIP3    H115124   6.999   0.714   5.563
 5061TIP3    H215125   7.110   0.695   5.665
 5062TIP3   OH215126   7.612   1.639   0.180
 5062TIP3    H115127   7.607   1.734   0.175
 5062TIP3    H215128   7.536   1.613   0.232
 5063TIP3   OH215129   5.728   4.673   4.024
 5063TIP3    H115130   5.660   4.705   3.965
 5063TIP3    H215131   5.766   4.598   3.978
 5064TIP3   OH215132   1.985   6.523   1.606
 5064TIP3    H115133   1.892   6.543   1.598
 5064TIP3    H215134   2.021   6.539   1.519
 5065TIP3   OH215135   7.251   1.278   1.255
 5065TIP3    H115136   7.302   1.244   1.182
 5065TIP3    H215137   7.293   1.361   1.277
 5066TIP3   OH215138   0.699   1.671   5.013
 5066TIP3    H115139   0.746   1.752   4.994
 5066TIP3    H215140   0.703   1.663   5.108
 5067TIP3   OH215141   1.776   6.514   0.687
 5067TIP3    H115142   1.685   6.491   0.707
 5067TIP3    H215143   1.797   6.585   0.748
 5068TIP3   OH215144   7.059   3.559   1.535
 5068TIP3    H115145   7.147   3.584   1.505
 5068TIP3    H215146   7.067   3.558   1.630
 5069TIP3   OH215147   6.894   5.769   6.671
 5069TIP3    H115148   6.818   5.737   6.623
 5069TIP3    H215149   6.968   5.755   6.611
 5070TIP3   OH215150   3.892   4.829   2.638
 5070TIP3    H115151   3.838   4.755   2.610
 5070TIP3    H215152   3.974   4.819   2.589
 5071TIP3   OH215153   3.293   7.364   2.833
 5071TIP3    H115154   3.284   7.427   2.904
 5071TIP3    H215155   3.378   7.323   2.848
 5072TIP3   OH215156   4.236   1.492   0.138
 5072TIP3    H115157   4.282   1.460   0.060
 5072TIP3    H215158   4.223   1.585   0.121
 5073TIP3   OH215159   5.787   1.237   1.727
 5073TIP3    H115160   5.788   1.141   1.733
 5073TIP3    H215161   5.871   1.258   1.686
 5074TIP3   OH215162   4.378   5.311   6.472
 5074TIP3    H115163   4.430   5.233   6.456
 5074TIP3    H215164   4.304   5.303   6.411
 5075TIP3   OH215165   3.107   1.899   2.623
 5075TIP3    H115166   3.050   1.873   2.696
 5075TIP3    H215167   3.102   1.994   2.621
 5076TIP3   OH215168   1.749   1.193   1.722
 5076TIP3    H115169   1.841   1.219   1.731
 5076TIP3    H215170   1.738   1.176   1.628
 5077TIP3   OH215171   2.553   4.001   0.520
 5077TIP3    H115172   2.492   3.959   0.581
 5077TIP3    H215173   2.512   4.085   0.499
 5078TIP3   OH215174   1.915   2.661   4.740
 5078TIP3    H115175   1.826   2.659   4.775
 5078TIP3    H215176   1.919   2.585   4.682
 5079TIP3   OH215177   5.549   4.574   1.200
 5079TIP3    H115178   5.518   4.648   1.251
 5079TIP3    H215179   5.503   4.498   1.236
 5080TIP3   OH215180   6.092   0.208   0.334
 5080TIP3    H115181   6.094   0.303   0.317
 5080TIP3    H215182   6.050   0.170   0.257
 5081TIP3   OH215183   4.310   4.411   5.130
 5081TIP3    H115184   4.307   4.434   5.223
 5081TIP3    H215185   4.336   4.319   5.129
 5082TIP3   OH215186   1.950   1.793   0.612
 5082TIP3    H115187   2.040   1.783   0.643
 5082TIP3    H215188   1.958   1.833   0.526
 5083TIP3   OH215189   2.504   5.577   2.012
 5083TIP3    H115190   2.507   5.601   2.104
 5083TIP3    H215191   2.548   5.492   2.008
 5084TIP3   OH215192   1.806   1.358   1.064
 5084TIP3    H115193   1.851   1.393   0.987
 5084TIP3    H215194   1.874   1.347   1.130
 5085TIP3   OH215195   2.239   1.992   4.463
 5085TIP3    H115196   2.303   2.048   4.420
 5085TIP3    H215197   2.266   1.903   4.440
 5086TIP3   OH215198   4.304   3.775   2.399
 5086TIP3    H115199   4.234   3.798   2.459
 5086TIP3    H215200   4.294   3.836   2.326
 5087TIP3   OH215201   6.410   7.435   0.496
 5087TIP3    H115202   6.441   7.519   0.462
 5087TIP3    H215203   6.316   7.448   0.508
 5088TIP3   OH215204   1.770   3.652   2.750
 5088TIP3    H115205   1.704   3.592   2.715
 5088TIP3    H215206   1.726   3.698   2.821
 5089TIP3   OH215207   3.685   7.886   0.797
 5089TIP3    H115208   3.764   7.866   0.747
 5089TIP3    H215209   3.694   7.835   0.878
 5090TIP3   OH215210   1.498   2.812   5.375
 5090TIP3    H115211   1.433   2.825   5.444
 5090TIP3    H215212   1.505   2.717   5.365
 5091TIP3   OH215213   4.427   2.344   6.446
 5091TIP3    H115214   4.487   2.411   6.412
 5091TIP3    H215215   4.463   2.262   6.414
 5092TIP3   OH215216   3.167   4.346   0.779
 5092TIP3    H115217   3.237   4.332   0.843
 5092TIP3    H215218   3.194   4.424   0.731
 5093TIP3   OH215219   0.809   5.225   0.701
 5093TIP3    H115220   0.766   5.151   0.658
 5093TIP3    H215221   0.806   5.203   0.794
 5094TIP3   OH215222   2.615   0.569   3.350
 5094TIP3    H115223   2.563   0.489   3.341
 5094TIP3    H215224   2.697   0.550   3.303
 5095TIP3   OH215225   3.215   1.009   4.771
 5095TIP3    H115226   3.203   0.973   4.683
 5095TIP3    H215227   3.199   1.103   4.761
 5096TIP3   OH215228   6.154   5.669   2.318
 5096TIP3    H115229   6.069   5.631   2.296
 5096TIP3    H215230   6.211   5.593   2.331
 5097TIP3   OH215231   0.033   1.360   2.531
 5097TIP3    H115232   0.059   1.441   2.574
 5097TIP3    H215233  -0.059   1.373   2.510
 5098TIP3   OH215234   5.195   3.031   2.333
 5098TIP3    H115235   5.139   3.096   2.290
 5098TIP3    H215236   5.253   3.082   2.390
 5099TIP3   OH215237   5.735   4.010   6.605
 5099TIP3    H115238   5.773   3.936   6.557
 5099TIP3    H215239   5.811   4.054   6.644
 5100TIP3   OH215240   2.047   5.190   0.580
 5100TIP3    H115241   2.005   5.263   0.626
 5100TIP3    H215242   2.131   5.179   0.625
 5101TIP3   OH215243   1.144   2.398   4.183
 5101TIP3    H115244   1.096   2.373   4.262
 5101TIP3    H215245   1.080   2.387   4.112
 5102TIP3   OH215246   0.147   6.640   6.600
 5102TIP3    H115247   0.109   6.597   6.523
 5102TIP3    H215248   0.233   6.600   6.610
 5103TIP3   OH215249   3.388   1.092   0.140
 5103TIP3    H115250   3.327   1.162   0.116
 5103TIP3    H215251   3.357   1.016   0.090
 5104TIP3   OH215252   1.022   2.106   5.277
 5104TIP3    H115253   1.056   2.029   5.232
 5104TIP3    H215254   0.927   2.103   5.261
 5105TIP3   OH215255   4.418   0.167   3.689
 5105TIP3    H115256   4.332   0.127   3.688
 5105TIP3    H215257   4.415   0.231   3.760
 5106TIP3   OH215258   7.543   1.743   5.865
 5106TIP3    H115259   7.636   1.761   5.867
 5106TIP3    H215260   7.531   1.683   5.791
 5107TIP3   OH215261   4.874   1.741   2.021
 5107TIP3    H115262   4.942   1.695   1.971
 5107TIP3    H215263   4.889   1.715   2.112
 5108TIP3   OH215264   2.576   4.429   6.856
 5108TIP3    H115265   2.573   4.523   6.873
 5108TIP3    H215266   2.622   4.420   6.773
 5109TIP3   OH215267   3.649   1.822   6.545
 5109TIP3    H115268   3.724   1.773   6.578
 5109TIP3    H215269   3.584   1.816   6.615
 5110TIP3   OH215270   5.925   3.111   3.675
 5110TIP3    H115271   6.018   3.113   3.652
 5110TIP3    H215272   5.924   3.094   3.769
 5111TIP3   OH215273   2.960   7.589   2.695
 5111TIP3    H115274   2.919   7.585   2.609
 5111TIP3    H215275   2.888   7.604   2.756
 5112TIP3   OH215276   4.940   3.066   0.904
 5112TIP3    H115277   5.027   3.028   0.892
 5112TIP3    H215278   4.908   3.080   0.815
 5113TIP3   OH215279   5.298   6.605   4.980
 5113TIP3    H115280   5.253   6.623   4.898
 5113TIP3    H215281   5.240   6.544   5.027
 5114TIP3   OH215282   1.418   5.225   1.953
 5114TIP3    H115283   1.328   5.194   1.964
 5114TIP3    H215284   1.460   5.205   2.036
 5115TIP3   OH215285   1.321   3.585   1.938
 5115TIP3    H115286   1.244   3.550   1.894
 5115TIP3    H215287   1.394   3.533   1.903
 5116TIP3   OH215288   7.064   2.289   2.217
 5116TIP3    H115289   7.069   2.366   2.161
 5116TIP3    H215290   6.995   2.235   2.178
 5117TIP3   OH215291   0.436   3.958   6.661
 5117TIP3    H115292   0.377   3.957   6.736
 5117TIP3    H215293   0.459   4.051   6.651
 5118TIP3   OH215294   0.662   4.785   0.195
 5118TIP3    H115295   0.567   4.792   0.203
 5118TIP3    H215296   0.679   4.790   0.101
 5119TIP3   OH215297   1.963   6.230   2.554
 5119TIP3    H115298   1.903   6.156   2.556
 5119TIP3    H215299   1.923   6.292   2.492
 5120TIP3   OH215300   3.566   7.725   6.557
 5120TIP3    H115301   3.529   7.647   6.516
 5120TIP3    H215302   3.533   7.723   6.647
 5121TIP3   OH215303   5.900   6.568   5.417
 5121TIP3    H115304   5.815   6.543   5.381
 5121TIP3    H215305   5.888   6.564   5.512
 5122TIP3   OH215306   5.974   5.059   0.096
 5122TIP3    H115307   5.886   5.082   0.126
 5122TIP3    H215308   6.019   5.143   0.087
 5123TIP3   OH215309   0.760   2.521   6.017
 5123TIP3    H115310   0.757   2.573   6.097
 5123TIP3    H215311   0.672   2.483   6.009
 5124TIP3   OH215312   1.461   0.713   6.254
 5124TIP3    H115313   1.468   0.646   6.322
 5124TIP3    H215314   1.488   0.794   6.296
 5125TIP3   OH215315   3.495   5.646   0.941
 5125TIP3    H115316   3.551   5.707   0.893
 5125TIP3    H215317   3.462   5.586   0.875
 5126TIP3   OH215318   7.494   3.374   3.172
 5126TIP3    H115319   7.492   3.380   3.268
 5126TIP3    H215320   7.416   3.325   3.149
 5127TIP3   OH215321   0.307   1.922   0.965
 5127TIP3    H115322   0.280   1.881   1.047
 5127TIP3    H215323   0.402   1.928   0.971
 5128TIP3   OH215324   7.352   5.096   1.488
 5128TIP3    H115325   7.270   5.120   1.444
 5128TIP3    H215326   7.401   5.047   1.422
 5129TIP3   OH215327   5.645   6.292   4.284
 5129TIP3    H115328   5.553   6.317   4.280
 5129TIP3    H215329   5.686   6.334   4.209
 5130TIP3   OH215330   4.082   2.877   3.883
 5130TIP3    H115331   3.996   2.848   3.913
 5130TIP3    H215332   4.127   2.797   3.855
 5131TIP3   OH215333   7.234   0.590   0.182
 5131TIP3    H115334   7.250   0.506   0.224
 5131TIP3    H215335   7.189   0.568   0.100
 5132TIP3   OH215336   2.320   1.176   0.553
 5132TIP3    H115337   2.400   1.202   0.600
 5132TIP3    H215338   2.326   1.223   0.470
 5133TIP3   OH215339   3.213   6.783   6.597
 5133TIP3    H115340   3.273   6.809   6.527
 5133TIP3    H215341   3.126   6.784   6.555
 5134TIP3   OH215342   3.115   3.346   5.880
 5134TIP3    H115343   3.134   3.333   5.787
 5134TIP3    H215344   3.201   3.359   5.920
 5135TIP3   OH215345   5.109   5.773   0.145
 5135TIP3    H115346   5.204   5.764   0.136
 5135TIP3    H215347   5.073   5.703   0.091
 5136TIP3   OH215348   5.237   7.851   1.316
 5136TIP3    H115349   5.188   7.874   1.395
 5136TIP3    H215350   5.303   7.920   1.308
 5137TIP3   OH215351   5.291   3.332   2.101
 5137TIP3    H115352   5.318   3.422   2.083
 5137TIP3    H215353   5.363   3.294   2.151
 5138TIP3   OH215354   1.668   6.031   1.144
 5138TIP3    H115355   1.695   5.947   1.182
 5138TIP3    H215356   1.670   6.092   1.218
 5139TIP3   OH215357   8.289   1.247   4.066
 5139TIP3    H115358   8.312   1.214   4.153
 5139TIP3    H215359   8.215   1.193   4.039
 5140TIP3   OH215360   2.671   6.521   6.402
 5140TIP3    H115361   2.644   6.500   6.313
 5140TIP3    H215362   2.765   6.538   6.395
 5141TIP3   OH215363   7.131   7.792   2.781
 5141TIP3    H115364   7.083   7.755   2.856
 5141TIP3    H215365   7.062   7.827   2.724
 5142TIP3   OH215366   8.154   3.279   5.824
 5142TIP3    H115367   8.094   3.206   5.840
 5142TIP3    H215368   8.198   3.256   5.743
 5143TIP3   OH215369   0.872   2.214   2.740
 5143TIP3    H115370   0.818   2.258   2.673
 5143TIP3    H215371   0.815   2.144   2.774
 5144TIP3   OH215372   2.160   7.510   0.312
 5144TIP3    H115373   2.070   7.542   0.308
 5144TIP3    H215374   2.206   7.575   0.366
 5145TIP3   OH215375   5.864   0.747   0.084
 5145TIP3    H115376   5.797   0.812   0.104
 5145TIP3    H215377   5.826   0.696   0.012
 5146TIP3   OH215378   8.360   7.443   2.486
 5146TIP3    H115379   8.351   7.354   2.522
 5146TIP3    H215380   8.451   7.449   2.459
 5147TIP3   OH215381   7.008   2.300   3.443
 5147TIP3    H115382   6.953   2.339   3.511
 5147TIP3    H215383   7.059   2.373   3.409
 5148TIP3   OH215384   6.173   6.864   2.366
 5148TIP3    H115385   6.241   6.882   2.431
 5148TIP3    H215386   6.149   6.951   2.333
 5149TIP3   OH215387   1.387   2.844   1.430
 5149TIP3    H115388   1.427   2.768   1.388
 5149TIP3    H215389   1.294   2.833   1.415
 5150TIP3   OH215390   5.815   4.336   0.432
 5150TIP3    H115391   5.765   4.342   0.350
 5150TIP3    H215392   5.749   4.323   0.500
 5151TIP3   OH215393   2.734   6.650   5.745
 5151TIP3    H115394   2.777   6.723   5.789
 5151TIP3    H215395   2.650   6.685   5.715
 5152TIP3   OH215396   1.651   7.797   5.571
 5152TIP3    H115397   1.731   7.850   5.564
 5152TIP3    H215398   1.621   7.788   5.481
 5153TIP3   OH215399   4.215   3.484   1.785
 5153TIP3    H115400   4.208   3.457   1.877
 5153TIP3    H215401   4.306   3.464   1.762
 5154TIP3   OH215402   1.049   5.966   5.750
 5154TIP3    H115403   0.985   6.029   5.783
 5154TIP3    H215404   1.031   5.886   5.799
 5155TIP3   OH215405   2.750   0.391   4.002
 5155TIP3    H115406   2.672   0.378   3.948
 5155TIP3    H215407   2.813   0.430   3.942
 5156TIP3   OH215408   3.671   6.679   2.145
 5156TIP3    H115409   3.600   6.616   2.136
 5156TIP3    H215410   3.737   6.650   2.082
 5157TIP3   OH215411   6.154   7.597   0.259
 5157TIP3    H115412   6.091   7.649   0.209
 5157TIP3    H215413   6.194   7.659   0.320
 5158TIP3   OH215414   0.224   5.641   3.222
 5158TIP3    H115415   0.178   5.573   3.172
 5158TIP3    H215416   0.275   5.592   3.287
 5159TIP3   OH215417   2.890   1.046   5.552
 5159TIP3    H115418   2.849   1.102   5.487
 5159TIP3    H215419   2.819   1.020   5.610
 5160TIP3   OH215420   4.705   1.431   2.093
 5160TIP3    H115421   4.690   1.339   2.114
 5160TIP3    H215422   4.649   1.448   2.017
 5161TIP3   OH215423   7.985   0.120   3.797
 5161TIP3    H115424   7.901   0.091   3.761
 5161TIP3    H215425   7.998   0.208   3.760
 5162TIP3   OH215426   1.364   6.538   5.184
 5162TIP3    H115427   1.390   6.512   5.096
 5162TIP3    H215428   1.327   6.458   5.223
 5163TIP3   OH215429   1.200   5.768   4.228
 5163TIP3    H115430   1.139   5.834   4.195
 5163TIP3    H215431   1.268   5.818   4.272
 5164TIP3   OH215432   0.363   4.174   4.617
 5164TIP3    H115433   0.299   4.244   4.626
 5164TIP3    H215434   0.445   4.218   4.596
 5165TIP3   OH215435   0.035   0.305   4.456
 5165TIP3    H115436   0.061   0.238   4.392
 5165TIP3    H215437  -0.025   0.361   4.408
 5166TIP3   OH215438  -0.003   7.815   1.314
 5166TIP3    H115439  -0.068   7.816   1.384
 5166TIP3    H215440   0.081   7.808   1.359
 5167TIP3   OH215441   7.487   0.102   6.636
 5167TIP3    H115442   7.452   0.016   6.614
 5167TIP3    H215443   7.483   0.151   6.554
 5168TIP3   OH215444   6.047   3.376   5.159
 5168TIP3    H115445   6.111   3.441   5.128
 5168TIP3    H215446   6.062   3.300   5.103
 5169TIP3   OH215447   7.152   3.898   6.536
 5169TIP3    H115448   7.185   3.983   6.565
 5169TIP3    H215449   7.080   3.918   6.477
 5170TIP3   OH215450   6.796   3.169   6.208
 5170TIP3    H115451   6.808   3.218   6.127
 5170TIP3    H215452   6.865   3.103   6.207
 5171TIP3   OH215453   6.349   3.021   1.267
 5171TIP3    H115454   6.361   2.959   1.339
 5171TIP3    H215455   6.313   2.968   1.196
 5172TIP3   OH215456   5.957   5.734   6.104
 5172TIP3    H115457   5.903   5.690   6.169
 5172TIP3    H215458   6.027   5.672   6.084
 5173TIP3   OH215459   8.174   6.223   2.911
 5173TIP3    H115460   8.258   6.184   2.934
 5173TIP3    H215461   8.195   6.286   2.842
 5174TIP3   OH215462   4.063   4.498   5.103
 5174TIP3    H115463   4.155   4.475   5.115
 5174TIP3    H215464   4.064   4.564   5.033
 5175TIP3   OH215465   0.600   1.357   6.115
 5175TIP3    H115466   0.656   1.349   6.037
 5175TIP3    H215467   0.652   1.318   6.186
 5176TIP3   OH215468   7.966   2.321   4.662
 5176TIP3    H115469   8.027   2.312   4.736
 5176TIP3    H215470   7.886   2.279   4.692
 5177TIP3   OH215471   1.438   7.458   0.185
 5177TIP3    H115472   1.345   7.434   0.195
 5177TIP3    H215473   1.482   7.406   0.252
 5178TIP3   OH215474   2.059   1.211   2.303
 5178TIP3    H115475   1.965   1.214   2.283
 5178TIP3    H215476   2.102   1.228   2.219
 5179TIP3   OH215477   6.202   2.381   1.323
 5179TIP3    H115478   6.136   2.401   1.256
 5179TIP3    H215479   6.151   2.368   1.403
 5180TIP3   OH215480   7.019   4.472   3.822
 5180TIP3    H115481   6.970   4.554   3.825
 5180TIP3    H215482   7.046   4.457   3.912
 5181TIP3   OH215483   7.426   7.469   6.742
 5181TIP3    H115484   7.496   7.474   6.677
 5181TIP3    H215485   7.463   7.415   6.812
 5182TIP3   OH215486   2.101   1.996   2.313
 5182TIP3    H115487   2.040   2.036   2.251
 5182TIP3    H215488   2.045   1.953   2.378
 5183TIP3   OH215489   1.897   3.331   5.545
 5183TIP3    H115490   1.803   3.313   5.555
 5183TIP3    H215491   1.939   3.246   5.556
 5184TIP3   OH215492   4.552   2.224   3.803
 5184TIP3    H115493   4.580   2.140   3.767
 5184TIP3    H215494   4.520   2.203   3.891
 5185TIP3   OH215495   6.304   3.938   2.037
 5185TIP3    H115496   6.292   4.024   2.076
 5185TIP3    H215497   6.309   3.878   2.111
 5186TIP3   OH215498   0.988   6.504   1.539
 5186TIP3    H115499   1.029   6.453   1.609
 5186TIP3    H215500   1.058   6.561   1.507
 5187TIP3   OH215501   5.095   6.263   2.711
 5187TIP3    H115502   5.160   6.333   2.711
 5187TIP3    H215503   5.022   6.298   2.659
 5188TIP3   OH215504   5.431   0.500   5.815
 5188TIP3    H115505   5.485   0.578   5.831
 5188TIP3    H215506   5.420   0.497   5.720
 5189TIP3   OH215507   4.932   4.695   2.383
 5189TIP3    H115508   4.992   4.769   2.392
 5189TIP3    H215509   4.864   4.725   2.323
 5190TIP3   OH215510   1.899   5.744   6.622
 5190TIP3    H115511   1.849   5.799   6.561
 5190TIP3    H215512   1.985   5.734   6.581
 5191TIP3   OH215513   1.592   1.719   4.597
 5191TIP3    H115514   1.514   1.775   4.600
 5191TIP3    H215515   1.665   1.780   4.590
 5192TIP3   OH215516   4.699   3.676   5.499
 5192TIP3    H115517   4.682   3.645   5.410
 5192TIP3    H215518   4.677   3.770   5.496
 5193TIP3   OH215519   7.587   5.549   6.025
 5193TIP3    H115520   7.496   5.519   6.015
 5193TIP3    H215521   7.640   5.473   5.999
 5194TIP3   OH215522   0.681   0.445   0.775
 5194TIP3    H115523   0.731   0.508   0.826
 5194TIP3    H215524   0.662   0.373   0.835
 5195TIP3   OH215525   5.752   2.128   6.610
 5195TIP3    H115526   5.840   2.128   6.646
 5195TIP3    H215527   5.733   2.219   6.591
 5196TIP3   OH215528   0.537   1.020   2.362
 5196TIP3    H115529   0.603   0.976   2.415
 5196TIP3    H215530   0.581   1.098   2.328
 5197TIP3   OH215531   4.888   6.823   5.927
 5197TIP3    H115532   4.929   6.741   5.899
 5197TIP3    H215533   4.834   6.798   6.002
 5198TIP3   OH215534   4.451   4.923   2.387
 5198TIP3    H115535   4.439   4.901   2.295
 5198TIP3    H215536   4.375   4.885   2.431
 5199TIP3   OH215537   0.987   0.038   0.780
 5199TIP3    H115538   1.017  -0.033   0.724
 5199TIP3    H215539   0.965   0.109   0.720
 5200TIP3   OH215540   3.493   4.568   1.871
 5200TIP3    H115541   3.459   4.508   1.806
 5200TIP3    H215542   3.418   4.621   1.897
 5201TIP3   OH215543   7.594   2.348   5.069
 5201TIP3    H115544   7.634   2.336   4.983
 5201TIP3    H215545   7.643   2.289   5.127
 5202TIP3   OH215546   5.577   2.021   5.510
 5202TIP3    H115547   5.629   2.100   5.527
 5202TIP3    H215548   5.640   1.949   5.517
 5203TIP3   OH215549   3.670   7.238   4.786
 5203TIP3    H115550   3.624   7.219   4.704
 5203TIP3    H215551   3.616   7.303   4.830
 5204TIP3   OH215552   0.053   4.009   1.182
 5204TIP3    H115553   0.040   4.103   1.172
 5204TIP3    H215554   0.147   3.996   1.168
 5205TIP3   OH215555   6.922   2.097   0.800
 5205TIP3    H115556   6.833   2.064   0.788
 5205TIP3    H215557   6.914   2.192   0.794
 5206TIP3   OH215558   6.049   0.464   0.030
 5206TIP3    H115559   6.039   0.488   0.122
 5206TIP3    H215560   6.048   0.368   0.030
 5207TIP3   OH215561   3.862   4.475   4.775
 5207TIP3    H115562   3.879   4.429   4.693
 5207TIP3    H215563   3.798   4.420   4.820
 5208TIP3   OH215564   7.917   4.266   3.482
 5208TIP3    H115565   7.901   4.325   3.409
 5208TIP3    H215566   7.833   4.223   3.497
 5209TIP3   OH215567   6.392   2.511   0.440
 5209TIP3    H115568   6.347   2.496   0.357
 5209TIP3    H215569   6.485   2.506   0.417
 5210TIP3   OH215570   2.518   1.077   2.039
 5210TIP3    H115571   2.579   1.064   1.967
 5210TIP3    H215572   2.553   1.154   2.086
 5211TIP3   OH215573   0.508   4.985   5.349
 5211TIP3    H115574   0.551   4.978   5.264
 5211TIP3    H215575   0.580   4.992   5.412
 5212TIP3   OH215576   5.087   0.995   5.134
 5212TIP3    H115577   5.121   0.996   5.224
 5212TIP3    H215578   5.163   0.971   5.081
 5213TIP3   OH215579   7.289  -0.018   5.751
 5213TIP3    H115580   7.384  -0.015   5.758
 5213TIP3    H215581   7.268   0.040   5.678
 5214TIP3   OH215582   8.269   0.010   4.252
 5214TIP3    H115583   8.258   0.105   4.250
 5214TIP3    H215584   8.345  -0.006   4.196
 5215TIP3   OH215585   7.885   3.334   5.643
 5215TIP3    H115586   7.806   3.369   5.685
 5215TIP3    H215587   7.930   3.286   5.712
 5216TIP3   OH215588   5.143   1.411   3.614
 5216TIP3    H115589   5.238   1.408   3.620
 5216TIP3    H215590   5.123   1.494   3.571
 5217TIP3   OH215591   5.840   4.855   6.657
 5217TIP3    H115592   5.784   4.868   6.734
 5217TIP3    H215593   5.832   4.936   6.607
 5218TIP3   OH215594   5.308   4.939   2.757
 5218TIP3    H115595   5.219   4.904   2.760
 5218TIP3    H215596   5.349   4.894   2.683
 5219TIP3   OH215597   4.126   2.381   3.914
 5219TIP3    H115598   4.081   2.324   3.852
 5219TIP3    H215599   4.191   2.427   3.862
 5220TIP3   OH215600   7.887   0.246   4.284
 5220TIP3    H115601   7.916   0.219   4.371
 5220TIP3    H215602   7.941   0.194   4.224
 5221TIP3   OH215603   4.320   0.420   5.954
 5221TIP3    H115604   4.264   0.486   5.912
 5221TIP3    H215605   4.406   0.461   5.958
 5222TIP3   OH215606   2.474   7.269   0.428
 5222TIP3    H115607   2.547   7.330   0.442
 5222TIP3    H215608   2.516   7.191   0.392
 5223TIP3   OH215609   6.825   2.787   2.574
 5223TIP3    H115610   6.760   2.772   2.506
 5223TIP3    H215611   6.880   2.709   2.572
 5224TIP3   OH215612   2.406   6.369  -0.036
 5224TIP3    H115613   2.345   6.425   0.012
 5224TIP3    H215614   2.447   6.314   0.032
 5225TIP3   OH215615   7.117   5.889   3.304
 5225TIP3    H115616   7.104   5.966   3.358
 5225TIP3    H215617   7.205   5.900   3.267
 5226TIP3   OH215618   5.978   3.071   1.147
 5226TIP3    H115619   6.061   3.068   1.099
 5226TIP3    H215620   5.944   2.981   1.141
 5227TIP3   OH215621   4.686   6.420   1.994
 5227TIP3    H115622   4.759   6.409   1.932
 5227TIP3    H215623   4.729   6.431   2.079
 5228TIP3   OH215624   3.716   5.803   6.349
 5228TIP3    H115625   3.731   5.712   6.377
 5228TIP3    H215626   3.647   5.835   6.408
 5229TIP3   OH215627   5.334   2.618   4.599
 5229TIP3    H115628   5.401   2.681   4.571
 5229TIP3    H215629   5.293   2.660   4.675
 5230TIP3   OH215630   6.493   1.829   3.273
 5230TIP3    H115631   6.411   1.873   3.292
 5230TIP3    H215632   6.502   1.764   3.343
 5231TIP3   OH215633   7.996   7.291   0.955
 5231TIP3    H115634   8.067   7.227   0.953
 5231TIP3    H215635   7.920   7.241   0.985
 5232TIP3   OH215636   4.052   6.066   1.288
 5232TIP3    H115637   3.958   6.046   1.290
 5232TIP3    H215638   4.058   6.156   1.321
 5233TIP3   OH215639   4.958   0.278   4.730
 5233TIP3    H115640   4.981   0.219   4.658
 5233TIP3    H215641   4.885   0.235   4.774
 5234TIP3   OH215642   2.515   3.763   2.694
 5234TIP3    H115643   2.602   3.747   2.656
 5234TIP3    H215644   2.464   3.799   2.623
 5235TIP3   OH215645   3.292   2.264   6.399
 5235TIP3    H115646   3.330   2.339   6.444
 5235TIP3    H215647   3.310   2.280   6.306
 5236TIP3   OH215648   5.313   1.837   1.215
 5236TIP3    H115649   5.313   1.922   1.171
 5236TIP3    H215650   5.358   1.779   1.154
 5237TIP3   OH215651   1.502   4.518   6.179
 5237TIP3    H115652   1.488   4.423   6.173
 5237TIP3    H215653   1.579   4.527   6.236
 5238TIP3   OH215654   2.741   1.287   1.314
 5238TIP3    H115655   2.726   1.363   1.370
 5238TIP3    H215656   2.727   1.211   1.371
 5239TIP3   OH215657   7.454   3.503   1.566
 5239TIP3    H115658   7.389   3.438   1.595
 5239TIP3    H215659   7.463   3.562   1.640
 5240TIP3   OH215660   2.574   5.134   4.665
 5240TIP3    H115661   2.643   5.197   4.687
 5240TIP3    H215662   2.493   5.177   4.694
 5241TIP3   OH215663   5.155   1.925   2.942
 5241TIP3    H115664   5.201   2.004   2.914
 5241TIP3    H215665   5.184   1.858   2.881
 5242TIP3   OH215666   3.037   2.773   4.556
 5242TIP3    H115667   3.062   2.858   4.594
 5242TIP3    H215668   3.072   2.776   4.467
 5243TIP3   OH215669   3.087   2.386   1.725
 5243TIP3    H115670   3.175   2.359   1.750
 5243TIP3    H215671   3.101   2.450   1.655
 5244TIP3   OH215672   0.888   7.430   4.804
 5244TIP3    H115673   0.934   7.348   4.789
 5244TIP3    H215674   0.842   7.447   4.721
 5245TIP3   OH215675   7.962   6.046  -0.002
 5245TIP3    H115676   7.873   6.081  -0.013
 5245TIP3    H215677   7.978   6.049   0.092
 5246TIP3   OH215678   5.135   2.807   3.382
 5246TIP3    H115679   5.111   2.744   3.314
 5246TIP3    H215680   5.230   2.810   3.381
 5247TIP3   OH215681   4.586   7.670   2.149
 5247TIP3    H115682   4.579   7.675   2.245
 5247TIP3    H215683   4.601   7.761   2.122
 5248TIP3   OH215684   1.795   5.684   3.859
 5248TIP3    H115685   1.784   5.618   3.790
 5248TIP3    H215686   1.773   5.767   3.817
 5249TIP3   OH215687   1.673   7.089   6.732
 5249TIP3    H115688   1.607   7.089   6.662
 5249TIP3    H215689   1.642   7.022   6.793
 5250TIP3   OH215690   6.226   0.091   2.061
 5250TIP3    H115691   6.297   0.084   1.997
 5250TIP3    H215692   6.195   0.002   2.073
 5251TIP3   OH215693   6.865   0.541   2.494
 5251TIP3    H115694   6.858   0.628   2.454
 5251TIP3    H215695   6.834   0.481   2.427
 5252TIP3   OH215696   7.454  -0.001   2.080
 5252TIP3    H115697   7.435   0.053   2.003
 5252TIP3    H215698   7.533   0.037   2.117
 5253TIP3   OH215699   0.780   2.527   5.746
 5253TIP3    H115700   0.693   2.500   5.715
 5253TIP3    H215701   0.767   2.546   5.839
 5254TIP3   OH215702   4.768   3.629   6.188
 5254TIP3    H115703   4.698   3.584   6.236
 5254TIP3    H215704   4.839   3.565   6.182
 5255TIP3   OH215705   6.834   4.884   5.029
 5255TIP3    H115706   6.888   4.870   5.107
 5255TIP3    H215707   6.777   4.807   5.024
 5256TIP3   OH215708   6.533   7.702   5.850
 5256TIP3    H115709   6.496   7.664   5.929
 5256TIP3    H215710   6.507   7.642   5.780
 5257TIP3   OH215711   0.698   0.330   1.158
 5257TIP3    H115712   0.712   0.263   1.225
 5257TIP3    H215713   0.669   0.280   1.081
 5258TIP3   OH215714   4.144   6.461   5.238
 5258TIP3    H115715   4.192   6.395   5.189
 5258TIP3    H215716   4.087   6.411   5.296
 5259TIP3   OH215717   6.687   3.028   1.350
 5259TIP3    H115718   6.622   3.075   1.402
 5259TIP3    H215719   6.682   2.938   1.381
 5260TIP3   OH215720   2.408   5.001   6.436
 5260TIP3    H115721   2.439   5.062   6.370
 5260TIP3    H215722   2.424   5.045   6.519
 5261TIP3   OH215723   8.240   0.625   0.843
 5261TIP3    H115724   8.252   0.676   0.923
 5261TIP3    H215725   8.308   0.657   0.783
 5262TIP3   OH215726   5.661   4.937   6.127
 5262TIP3    H115727   5.678   4.868   6.063
 5262TIP3    H215728   5.680   5.018   6.079
 5263TIP3   OH215729   5.107   2.017   0.379
 5263TIP3    H115730   5.201   2.029   0.390
 5263TIP3    H215731   5.097   1.923   0.360
 5264TIP3   OH215732   0.892   1.375   2.879
 5264TIP3    H115733   0.977   1.416   2.860
 5264TIP3    H215734   0.838   1.397   2.803
 5265TIP3   OH215735   6.583   7.303   3.683
 5265TIP3    H115736   6.635   7.351   3.748
 5265TIP3    H215737   6.495   7.339   3.691
 5266TIP3   OH215738   4.446   1.446   0.795
 5266TIP3    H115739   4.414   1.467   0.708
 5266TIP3    H215740   4.415   1.357   0.812
 5267TIP3   OH215741   7.653   1.790   6.537
 5267TIP3    H115742   7.630   1.724   6.602
 5267TIP3    H215743   7.611   1.760   6.456
 5268TIP3   OH215744   8.127   4.124   2.080
 5268TIP3    H115745   8.216   4.142   2.050
 5268TIP3    H215746   8.134   4.043   2.130
 5269TIP3   OH215747   5.775   7.645   6.123
 5269TIP3    H115748   5.750   7.590   6.048
 5269TIP3    H215749   5.823   7.718   6.083
 5270TIP3   OH215750   7.384   5.372   4.792
 5270TIP3    H115751   7.320   5.324   4.738
 5270TIP3    H215752   7.452   5.398   4.730
 5271TIP3   OH215753   1.609   6.910   2.677
 5271TIP3    H115754   1.627   6.862   2.596
 5271TIP3    H215755   1.588   6.999   2.648
 5272TIP3   OH215756   0.122   5.474   1.083
 5272TIP3    H115757   0.135   5.567   1.103
 5272TIP3    H215758   0.149   5.464   0.992
 5273TIP3   OH215759   7.617   4.057   3.972
 5273TIP3    H115760   7.585   4.075   3.884
 5273TIP3    H215761   7.612   4.141   4.017
 5274TIP3   OH215762   1.943   5.294   2.072
 5274TIP3    H115763   1.950   5.227   2.004
 5274TIP3    H215764   2.002   5.364   2.043
 5275TIP3   OH215765   7.973   6.877   0.709
 5275TIP3    H115766   7.918   6.804   0.737
 5275TIP3    H215767   8.048   6.836   0.664
 5276TIP3   OH215768   0.981   5.032   5.375
 5276TIP3    H115769   1.036   5.025   5.298
 5276TIP3    H215770   0.894   5.055   5.341
 5277TIP3   OH215771   5.044   2.261   5.193
 5277TIP3    H115772   4.955   2.275   5.224
 5277TIP3    H215773   5.035   2.195   5.125
 5278TIP3   OH215774   7.274   3.238   3.129
 5278TIP3    H115775   7.178   3.231   3.129
 5278TIP3    H215776   7.303   3.169   3.070
 5279TIP3   OH215777   6.009   2.651   0.112
 5279TIP3    H115778   5.931   2.596   0.103
 5279TIP3    H215779   5.988   2.711   0.183
 5280TIP3   OH215780   3.791   0.215   6.697
 5280TIP3    H115781   3.845   0.148   6.741
 5280TIP3    H215782   3.818   0.211   6.605
 5281TIP3   OH215783   8.341   6.763   6.345
 5281TIP3    H115784   8.285   6.701   6.299
 5281TIP3    H215785   8.426   6.757   6.299
 5282TIP3   OH215786   5.159   5.975   4.050
 5282TIP3    H115787   5.102   6.025   3.992
 5282TIP3    H215788   5.193   5.904   3.995
 5283TIP3   OH215789   5.078   3.677   0.734
 5283TIP3    H115790   5.116   3.590   0.737
 5283TIP3    H215791   4.987   3.665   0.763
 5284TIP3   OH215792   7.089   2.874   6.577
 5284TIP3    H115793   6.999   2.867   6.609
 5284TIP3    H215794   7.144   2.856   6.653
 5285TIP3   OH215795   5.259   0.942   3.340
 5285TIP3    H115796   5.343   0.927   3.384
 5285TIP3    H215797   5.197   0.887   3.388
 5286TIP3   OH215798   1.271   1.771   4.006
 5286TIP3    H115799   1.175   1.779   4.011
 5286TIP3    H215800   1.298   1.846   3.953
 5287TIP3   OH215801   5.575   3.990   5.203
 5287TIP3    H115802   5.627   4.062   5.239
 5287TIP3    H215803   5.581   3.921   5.269
 5288TIP3   OH215804   5.059   2.625   0.672
 5288TIP3    H115805   5.052   2.537   0.636
 5288TIP3    H215806   4.978   2.669   0.645
 5289TIP3   OH215807   5.259   3.269   5.173
 5289TIP3    H115808   5.192   3.278   5.105
 5289TIP3    H215809   5.221   3.208   5.237
 5290TIP3   OH215810   3.784   1.234   6.409
 5290TIP3    H115811   3.829   1.318   6.400
 5290TIP3    H215812   3.695   1.258   6.437
 5291TIP3   OH215813   0.590   4.007   3.667
 5291TIP3    H115814   0.611   4.100   3.676
 5291TIP3    H215815   0.590   3.973   3.757
 5292TIP3   OH215816   6.866   5.574   1.535
 5292TIP3    H115817   6.942   5.581   1.477
 5292TIP3    H215818   6.799   5.627   1.493
 5293TIP3   OH215819   6.116   3.631   1.703
 5293TIP3    H115820   6.189   3.674   1.748
 5293TIP3    H215821   6.113   3.672   1.617
 5294TIP3   OH215822   0.396   7.892   4.313
 5294TIP3    H115823   0.432   7.979   4.329
 5294TIP3    H215824   0.384   7.854   4.400
 5295TIP3   OH215825   1.059   0.675   5.809
 5295TIP3    H115826   0.969   0.682   5.841
 5295TIP3    H215827   1.085   0.585   5.831
 5296TIP3   OH215828   7.789   3.739   1.399
 5296TIP3    H115829   7.880   3.714   1.383
 5296TIP3    H215830   7.793   3.791   1.480
 5297TIP3   OH215831   5.548   1.201   5.746
 5297TIP3    H115832   5.542   1.108   5.727
 5297TIP3    H215833   5.497   1.243   5.676
 5298TIP3   OH215834   4.025   0.787   4.727
 5298TIP3    H115835   3.970   0.855   4.687
 5298TIP3    H215836   3.972   0.708   4.724
 5299TIP3   OH215837   4.795   4.101   5.927
 5299TIP3    H115838   4.798   4.045   6.004
 5299TIP3    H215839   4.753   4.048   5.860
 5300TIP3   OH215840   5.102   6.695   1.403
 5300TIP3    H115841   5.023   6.642   1.414
 5300TIP3    H215842   5.110   6.743   1.485
 5301TIP3   OH215843   2.640   6.598   5.004
 5301TIP3    H115844   2.693   6.518   5.015
 5301TIP3    H215845   2.681   6.662   5.062
 5302TIP3   OH215846   5.867   3.198   2.673
 5302TIP3    H115847   5.847   3.139   2.601
 5302TIP3    H215848   5.922   3.266   2.634
 5303TIP3   OH215849   0.848   5.057   3.554
 5303TIP3    H115850   0.797   5.083   3.631
 5303TIP3    H215851   0.803   4.979   3.521
 5304TIP3   OH215852   2.885   6.438   5.583
 5304TIP3    H115853   2.868   6.401   5.497
 5304TIP3    H215854   2.830   6.517   5.586
 5305TIP3   OH215855   6.631   5.318   5.698
 5305TIP3    H115856   6.545   5.354   5.678
 5305TIP3    H215857   6.693   5.388   5.677
 5306TIP3   OH215858   3.975   4.881   3.541
 5306TIP3    H115859   3.904   4.944   3.548
 5306TIP3    H215860   3.975   4.853   3.450
 5307TIP3   OH215861   3.456   7.052   0.364
 5307TIP3    H115862   3.510   7.122   0.328
 5307TIP3    H215863   3.377   7.097   0.395
 5308TIP3   OH215864   3.069   1.563   6.532
 5308TIP3    H115865   2.999   1.504   6.507
 5308TIP3    H215866   3.149   1.514   6.518
 5309TIP3   OH215867   3.875   1.189   1.159
 5309TIP3    H115868   3.837   1.233   1.235
 5309TIP3    H215869   3.814   1.207   1.088
 5310TIP3   OH215870   7.545   2.218   6.560
 5310TIP3    H115871   7.624   2.212   6.614
 5310TIP3    H215872   7.546   2.308   6.527
 5311TIP3   OH215873   8.228   5.196   5.278
 5311TIP3    H115874   8.317   5.170   5.302
 5311TIP3    H215875   8.210   5.273   5.331
 5312TIP3   OH215876   4.817   5.849   1.999
 5312TIP3    H115877   4.787   5.920   1.943
 5312TIP3    H215878   4.912   5.860   2.002
 5313TIP3   OH215879   1.213   4.211   5.270
 5313TIP3    H115880   1.261   4.204   5.188
 5313TIP3    H215881   1.211   4.305   5.289
 5314TIP3   OH215882   3.706   4.530   5.049
 5314TIP3    H115883   3.793   4.570   5.038
 5314TIP3    H215884   3.689   4.535   5.143
 5315TIP3   OH215885   7.645   0.691   0.230
 5315TIP3    H115886   7.556   0.692   0.264
 5315TIP3    H215887   7.638   0.737   0.146
 5316TIP3   OH215888   3.283   1.630   4.473
 5316TIP3    H115889   3.299   1.721   4.500
 5316TIP3    H215890   3.269   1.583   4.555
 5317TIP3   OH215891   5.444   3.908   1.396
 5317TIP3    H115892   5.473   3.906   1.305
 5317TIP3    H215893   5.479   3.991   1.430
 5318TIP3   OH215894   7.300   6.824   5.756
 5318TIP3    H115895   7.319   6.776   5.837
 5318TIP3    H215896   7.257   6.904   5.785
 5319TIP3   OH215897   0.906   6.346   1.272
 5319TIP3    H115898   0.928   6.272   1.215
 5319TIP3    H215899   0.989   6.393   1.283
 5320TIP3   OH215900   4.314   1.266   0.276
 5320TIP3    H115901   4.240   1.217   0.311
 5320TIP3    H215902   4.274   1.335   0.222
 5321TIP3   OH215903   7.393   1.329   5.975
 5321TIP3    H115904   7.392   1.402   6.038
 5321TIP3    H215905   7.485   1.304   5.968
 5322TIP3   OH215906   7.157   2.277   2.492
 5322TIP3    H115907   7.129   2.278   2.401
 5322TIP3    H215908   7.091   2.224   2.537
 5323TIP3   OH215909   0.487   3.351   0.176
 5323TIP3    H115910   0.439   3.401   0.242
 5323TIP3    H215911   0.499   3.412   0.103
 5324TIP3   OH215912   5.535   6.077   5.546
 5324TIP3    H115913   5.554   6.141   5.477
 5324TIP3    H215914   5.615   6.024   5.552
 5325TIP3   OH215915   3.930   0.079   3.908
 5325TIP3    H115916   3.949   0.067   4.001
 5325TIP3    H215917   3.901   0.170   3.901
 5326TIP3   OH215918   5.012   4.096   1.013
 5326TIP3    H115919   4.971   4.182   1.015
 5326TIP3    H215920   5.017   4.069   1.105
 5327TIP3   OH215921   1.537   5.688   6.551
 5327TIP3    H115922   1.560   5.706   6.460
 5327TIP3    H215923   1.470   5.753   6.572
 5328TIP3   OH215924   0.968   1.486   4.838
 5328TIP3    H115925   0.886   1.461   4.797
 5328TIP3    H215926   0.943   1.545   4.909
 5329TIP3   OH215927   1.339   1.755   1.224
 5329TIP3    H115928   1.346   1.850   1.218
 5329TIP3    H215929   1.346   1.725   1.133
 5330TIP3   OH215930   0.692   2.867   0.628
 5330TIP3    H115931   0.642   2.934   0.581
 5330TIP3    H215932   0.655   2.868   0.717
 5331TIP3   OH215933   7.590   4.207   0.964
 5331TIP3    H115934   7.552   4.221   0.877
 5331TIP3    H215935   7.656   4.139   0.951
 5332TIP3   OH215936   2.555   6.264   5.723
 5332TIP3    H115937   2.572   6.333   5.658
 5332TIP3    H215938   2.571   6.307   5.807
 5333TIP3   OH215939   2.310   0.317   6.194
 5333TIP3    H115940   2.316   0.229   6.156
 5333TIP3    H215941   2.400   0.350   6.192
 5334TIP3   OH215942   0.911   2.032   0.264
 5334TIP3    H115943   0.843   1.978   0.223
 5334TIP3    H215944   0.992   2.005   0.222
 5335TIP3   OH215945   0.792   2.694   1.910
 5335TIP3    H115946   0.720   2.685   1.973
 5335TIP3    H215947   0.846   2.617   1.925
 5336TIP3   OH215948   3.599   7.737   3.419
 5336TIP3    H115949   3.628   7.659   3.466
 5336TIP3    H215950   3.677   7.768   3.372
 5337TIP3   OH215951   6.013   5.724   4.799
 5337TIP3    H115952   6.023   5.638   4.757
 5337TIP3    H215953   6.006   5.785   4.726
 5338TIP3   OH215954   3.059   0.950   3.296
 5338TIP3    H115955   2.980   0.925   3.248
 5338TIP3    H215956   3.031   0.958   3.387
 5339TIP3   OH215957   1.611   0.509   3.750
 5339TIP3    H115958   1.615   0.425   3.796
 5339TIP3    H215959   1.681   0.561   3.789
 5340TIP3   OH215960   4.456   3.373   2.753
 5340TIP3    H115961   4.510   3.307   2.796
 5340TIP3    H215962   4.366   3.352   2.779
 5341TIP3   OH215963   6.461   2.910   6.754
 5341TIP3    H115964   6.476   2.907   6.660
 5341TIP3    H215965   6.510   2.987   6.784
 5342TIP3   OH215966   6.430   4.760   3.313
 5342TIP3    H115967   6.375   4.834   3.284
 5342TIP3    H215968   6.404   4.746   3.404
 5343TIP3   OH215969   4.155   1.374   3.473
 5343TIP3    H115970   4.225   1.311   3.455
 5343TIP3    H215971   4.096   1.367   3.398
 5344TIP3   OH215972   7.109   6.532   2.990
 5344TIP3    H115973   7.068   6.486   3.063
 5344TIP3    H215974   7.059   6.614   2.982
 5345TIP3   OH215975   1.284   1.311   2.184
 5345TIP3    H115976   1.350   1.242   2.171
 5345TIP3    H215977   1.288   1.330   2.278
 5346TIP3   OH215978   6.299   6.391   0.574
 5346TIP3    H115979   6.310   6.351   0.660
 5346TIP3    H215980   6.279   6.483   0.592
 5347TIP3   OH215981   7.627   4.524   4.394
 5347TIP3    H115982   7.624   4.490   4.484
 5347TIP3    H215983   7.569   4.465   4.346
 5348TIP3   OH215984   2.920   4.204   1.755
 5348TIP3    H115985   2.917   4.286   1.704
 5348TIP3    H215986   2.849   4.214   1.818
 5349TIP3   OH215987   6.713   4.188   0.950
 5349TIP3    H115988   6.802   4.180   0.915
 5349TIP3    H215989   6.683   4.274   0.921
 5350TIP3   OH215990   4.600   2.816   5.495
 5350TIP3    H115991   4.562   2.837   5.580
 5350TIP3    H215992   4.605   2.720   5.494
 5351TIP3   OH215993   4.098   3.448   4.074
 5351TIP3    H115994   4.157   3.497   4.017
 5351TIP3    H215995   4.038   3.403   4.014
 5352TIP3   OH215996   8.110   6.809   2.653
 5352TIP3    H115997   8.161   6.748   2.598
 5352TIP3    H215998   8.175   6.870   2.688
 5353TIP3   OH215999   2.492   2.522   4.252
 5353TIP3    H116000   2.573   2.472   4.247
 5353TIP3    H216001   2.480   2.539   4.346
 5354TIP3   OH216002   7.579   3.514   3.653
 5354TIP3    H116003   7.628   3.595   3.637
 5354TIP3    H216004   7.618   3.451   3.593
 5355TIP3   OH216005   4.793   3.092   4.106
 5355TIP3    H116006   4.712   3.135   4.079
 5355TIP3    H216007   4.806   3.023   4.041
 5356TIP3   OH216008   3.333   5.864   0.905
 5356TIP3    H116009   3.342   5.821   0.820
 5356TIP3    H216010   3.335   5.792   0.968
 5357TIP3   OH216011   0.944   0.660   4.598
 5357TIP3    H116012   0.981   0.622   4.678
 5357TIP3    H216013   0.916   0.747   4.624
 5358TIP3   OH216014   3.562   2.880   2.435
 5358TIP3    H116015   3.523   2.802   2.395
 5358TIP3    H216016   3.597   2.849   2.518
 5359TIP3   OH216017   1.244   5.179   0.038
 5359TIP3    H116018   1.155   5.214   0.040
 5359TIP3    H216019   1.300   5.257   0.032
 5360TIP3   OH216020   1.120   0.220   6.515
 5360TIP3    H116021   1.112   0.159   6.442
 5360TIP3    H216022   1.038   0.269   6.514
 5361TIP3   OH216023   3.649   2.663   2.676
 5361TIP3    H116024   3.730   2.682   2.629
 5361TIP3    H216025   3.676   2.656   2.768
 5362TIP3   OH216026   3.493   3.505   3.429
 5362TIP3    H116027   3.509   3.502   3.335
 5362TIP3    H216028   3.567   3.554   3.465
 5363TIP3   OH216029   7.499   6.764   4.033
 5363TIP3    H116030   7.576   6.722   3.996
 5363TIP3    H216031   7.477   6.711   4.110
 5364TIP3   OH216032   2.224   0.639   3.809
 5364TIP3    H116033   2.195   0.730   3.818
 5364TIP3    H216034   2.223   0.622   3.715
 5365TIP3   OH216035   3.851   4.943   5.423
 5365TIP3    H116036   3.888   4.880   5.362
 5365TIP3    H216037   3.925   4.998   5.448
 5366TIP3   OH216038   3.946   4.534   0.075
 5366TIP3    H116039   3.987   4.537   0.161
 5366TIP3    H216040   3.999   4.471   0.026
 5367TIP3   OH216041   5.981   6.953   4.105
 5367TIP3    H116042   5.974   6.859   4.094
 5367TIP3    H216043   6.010   6.965   4.196
 5368TIP3   OH216044   5.431   3.857   2.698
 5368TIP3    H116045   5.361   3.834   2.637
 5368TIP3    H216046   5.417   3.802   2.774
 5369TIP3   OH216047   1.890   6.425   4.758
 5369TIP3    H116048   1.830   6.450   4.687
 5369TIP3    H216049   1.863   6.337   4.783
 5370TIP3   OH216050   3.660   7.110   3.088
 5370TIP3    H116051   3.644   7.016   3.081
 5370TIP3    H216052   3.582   7.151   3.051
 5371TIP3   OH216053   6.290   3.928   1.115
 5371TIP3    H116054   6.247   3.911   1.032
 5371TIP3    H216055   6.301   4.023   1.119
 5372TIP3   OH216056   5.879   3.541   3.496
 5372TIP3    H116057   5.949   3.482   3.472
 5372TIP3    H216058   5.802   3.485   3.506
 5373TIP3   OH216059   2.102   3.621   2.395
 5373TIP3    H116060   2.141   3.627   2.482
 5373TIP3    H216061   2.084   3.528   2.383
 5374TIP3   OH216062   8.130   2.659   6.831
 5374TIP3    H116063   8.157   2.746   6.803
 5374TIP3    H216064   8.056   2.674   6.889
 5375TIP3   OH216065   4.476   1.620   1.599
 5375TIP3    H116066   4.464   1.698   1.653
 5375TIP3    H216067   4.394   1.571   1.609
 5376TIP3   OH216068   5.990   5.670   0.679
 5376TIP3    H116069   6.037   5.749   0.653
 5376TIP3    H216070   6.021   5.603   0.619
 5377TIP3   OH216071   3.565   3.546   0.676
 5377TIP3    H116072   3.589   3.482   0.609
 5377TIP3    H216073   3.579   3.631   0.633
 5378TIP3   OH216074   2.079   7.688   5.421
 5378TIP3    H116075   2.018   7.762   5.418
 5378TIP3    H216076   2.137   7.708   5.495
 5379TIP3   OH216077   3.027   2.240   3.568
 5379TIP3    H116078   3.015   2.162   3.514
 5379TIP3    H216079   3.023   2.208   3.658
 5380TIP3   OH216080   5.281   2.068   6.312
 5380TIP3    H116081   5.298   2.162   6.304
 5380TIP3    H216082   5.289   2.035   6.223
 5381TIP3   OH216083   1.306   3.943   0.947
 5381TIP3    H116084   1.331   3.878   0.882
 5381TIP3    H216085   1.347   4.024   0.918
 5382TIP3   OH216086   3.526   0.754   3.381
 5382TIP3    H116087   3.459   0.821   3.389
 5382TIP3    H216088   3.547   0.731   3.472
 5383TIP3   OH216089   7.049   2.003   5.462
 5383TIP3    H116090   6.965   1.958   5.465
 5383TIP3    H216091   7.035   2.082   5.514
 5384TIP3   OH216092   4.999   4.217   0.522
 5384TIP3    H116093   5.087   4.194   0.490
 5384TIP3    H216094   5.002   4.199   0.616
 5385TIP3   OH216095   1.972   6.585   2.713
 5385TIP3    H116096   1.951   6.633   2.633
 5385TIP3    H216097   1.980   6.494   2.685
 5386TIP3   OH216098   5.125   0.240   1.056
 5386TIP3    H116099   5.054   0.231   1.119
 5386TIP3    H216100   5.103   0.179   0.986
 5387TIP3   OH216101   2.000   5.396   0.801
 5387TIP3    H116102   1.906   5.393   0.784
 5387TIP3    H216103   2.008   5.388   0.896
 5388TIP3   OH216104   4.275   7.478   4.994
 5388TIP3    H116105   4.250   7.409   4.933
 5388TIP3    H216106   4.283   7.556   4.939
 5389TIP3   OH216107   0.460   3.648   5.507
 5389TIP3    H116108   0.439   3.625   5.597
 5389TIP3    H216109   0.436   3.740   5.499
 5390TIP3   OH216110   7.747   5.241   6.431
 5390TIP3    H116111   7.803   5.165   6.413
 5390TIP3    H216112   7.714   5.226   6.520
 5391TIP3   OH216113   2.841   5.411   6.135
 5391TIP3    H116114   2.823   5.319   6.116
 5391TIP3    H216115   2.937   5.418   6.133
 5392TIP3   OH216116   4.749   6.404   4.083
 5392TIP3    H116117   4.730   6.417   3.990
 5392TIP3    H216118   4.836   6.441   4.096
 5393TIP3   OH216119   4.932   1.189   5.976
 5393TIP3    H116120   4.954   1.121   6.039
 5393TIP3    H216121   4.919   1.143   5.893
 5394TIP3   OH216122   4.675   2.406   4.521
 5394TIP3    H116123   4.677   2.479   4.459
 5394TIP3    H216124   4.661   2.446   4.606
 5395TIP3   OH216125   1.220   4.693   2.119
 5395TIP3    H116126   1.303   4.646   2.117
 5395TIP3    H216127   1.245   4.785   2.103
 5396TIP3   OH216128   3.102   2.434   0.137
 5396TIP3    H116129   3.095   2.496   0.064
 5396TIP3    H216130   3.034   2.369   0.121
 5397TIP3   OH216131   5.309   5.245   5.960
 5397TIP3    H116132   5.376   5.305   5.927
 5397TIP3    H216133   5.231   5.264   5.908
 5398TIP3   OH216134   7.999   4.407   0.166
 5398TIP3    H116135   7.965   4.487   0.126
 5398TIP3    H216136   7.921   4.361   0.197
 5399TIP3   OH216137   4.693   6.190   3.104
 5399TIP3    H116138   4.710   6.125   3.035
 5399TIP3    H216139   4.775   6.194   3.154
 5400TIP3   OH216140   2.749   3.913   1.458
 5400TIP3    H116141   2.680   3.977   1.441
 5400TIP3    H216142   2.773   3.879   1.371
 5401TIP3   OH216143   7.016   5.621   5.303
 5401TIP3    H116144   7.021   5.716   5.295
 5401TIP3    H216145   6.955   5.594   5.235
 5402TIP3   OH216146   8.143   4.371   1.873
 5402TIP3    H116147   8.194   4.343   1.797
 5402TIP3    H216148   8.087   4.297   1.893
 5403TIP3   OH216149   3.607   3.920   2.963
 5403TIP3    H116150   3.590   4.003   2.918
 5403TIP3    H216151   3.692   3.934   3.005
 5404TIP3   OH216152   4.698   2.148   2.060
 5404TIP3    H116153   4.783   2.122   2.026
 5404TIP3    H216154   4.689   2.102   2.143
 5405TIP3   OH216155   4.006   4.960   1.085
 5405TIP3    H116156   4.004   4.934   1.177
 5405TIP3    H216157   4.072   4.904   1.045
 5406TIP3   OH216158   5.751   7.136   4.054
 5406TIP3    H116159   5.688   7.204   4.030
 5406TIP3    H216160   5.719   7.103   4.138
 5407TIP3   OH216161   3.662   1.645   3.938
 5407TIP3    H116162   3.653   1.717   3.876
 5407TIP3    H216163   3.685   1.687   4.021
 5408TIP3   OH216164   2.968   0.346   0.916
 5408TIP3    H116165   3.049   0.354   0.967
 5408TIP3    H216166   2.996   0.357   0.825
 5409TIP3   OH216167   0.931   5.565   6.126
 5409TIP3    H116168   0.919   5.653   6.091
 5409TIP3    H216169   1.025   5.556   6.137
 5410TIP3   OH216170   3.506   6.757   2.743
 5410TIP3    H116171   3.450   6.785   2.670
 5410TIP3    H216172   3.556   6.683   2.709
 5411TIP3   OH216173   2.873   2.896   4.153
 5411TIP3    H116174   2.865   2.955   4.228
 5411TIP3    H216175   2.930   2.825   4.184
 5412TIP3   OH216176   1.267   2.301   0.194
 5412TIP3    H116177   1.320   2.222   0.205
 5412TIP3    H216178   1.207   2.280   0.122
 5413TIP3   OH216179   5.420   6.552   6.443
 5413TIP3    H116180   5.372   6.612   6.386
 5413TIP3    H216181   5.357   6.481   6.461
 5414TIP3   OH216182   4.548   3.551   5.709
 5414TIP3    H116183   4.587   3.608   5.643
 5414TIP3    H216184   4.573   3.591   5.793
 5415TIP3   OH216185   1.429   3.462   2.430
 5415TIP3    H116186   1.352   3.406   2.434
 5415TIP3    H216187   1.398   3.542   2.388
 5416TIP3   OH216188   0.512   4.160   5.078
 5416TIP3    H116189   0.417   4.175   5.073
 5416TIP3    H216190   0.543   4.221   5.143
 5417TIP3   OH216191   2.443   0.626   5.515
 5417TIP3    H116192   2.369   0.592   5.465
 5417TIP3    H216193   2.515   0.631   5.452
 5418TIP3   OH216194   5.953   0.506   3.878
 5418TIP3    H116195   5.876   0.458   3.912
 5418TIP3    H216196   6.027   0.449   3.900
 5419TIP3   OH216197   0.871   0.670   2.513
 5419TIP3    H116198   0.924   0.693   2.589
 5419TIP3    H216199   0.934   0.670   2.440
 5420TIP3   OH216200   6.562   3.578   3.480
 5420TIP3    H116201   6.514   3.510   3.527
 5420TIP3    H216202   6.647   3.537   3.460
 5421TIP3   OH216203   0.715   5.357   6.499
 5421TIP3    H116204   0.785   5.373   6.435
 5421TIP3    H216205   0.652   5.302   6.452
 5422TIP3   OH216206   4.697   5.958   6.437
 5422TIP3    H116207   4.737   6.045   6.433
 5422TIP3    H216208   4.732   5.912   6.361
 5423TIP3   OH216209   0.985   1.333   0.756
 5423TIP3    H116210   0.938   1.387   0.820
 5423TIP3    H216211   0.955   1.365   0.671
 5424TIP3   OH216212   7.159   7.641   3.045
 5424TIP3    H116213   7.213   7.596   3.110
 5424TIP3    H216214   7.150   7.730   3.078
 5425TIP3   OH216215   2.510   5.275   2.240
 5425TIP3    H116216   2.497   5.203   2.302
 5425TIP3    H216217   2.423   5.314   2.231
 5426TIP3   OH216218   1.918   3.129   6.790
 5426TIP3    H116219   1.985   3.100   6.727
 5426TIP3    H216220   1.887   3.212   6.755
 5427TIP3   OH216221   3.691   0.362   6.057
 5427TIP3    H116222   3.683   0.410   5.974
 5427TIP3    H216223   3.777   0.321   6.053
 5428TIP3   OH216224   0.324   4.299   3.757
 5428TIP3    H116225   0.304   4.210   3.726
 5428TIP3    H216226   0.312   4.354   3.680
 5429TIP3   OH216227   5.507   7.334   3.109
 5429TIP3    H116228   5.522   7.346   3.015
 5429TIP3    H216229   5.420   7.297   3.115
 5430TIP3   OH216230   6.292   4.030   3.061
 5430TIP3    H116231   6.386   4.044   3.065
 5430TIP3    H216232   6.268   3.999   3.149
 5431TIP3   OH216233   0.060   5.577   5.667
 5431TIP3    H116234  -0.030   5.605   5.682
 5431TIP3    H216235   0.083   5.527   5.745
 5432TIP3   OH216236   4.561   2.817   1.679
 5432TIP3    H116237   4.524   2.813   1.591
 5432TIP3    H216238   4.655   2.824   1.665
 5433TIP3   OH216239   4.367   7.107   0.525
 5433TIP3    H116240   4.293   7.061   0.486
 5433TIP3    H216241   4.420   7.135   0.449
 5434TIP3   OH216242   6.378   3.578   6.751
 5434TIP3    H116243   6.395   3.510   6.687
 5434TIP3    H216244   6.440   3.559   6.822
 5435TIP3   OH216245   3.807   4.747   5.654
 5435TIP3    H116246   3.717   4.714   5.649
 5435TIP3    H216247   3.804   4.833   5.612
 5436TIP3   OH216248   0.781   2.339   5.053
 5436TIP3    H116249   0.719   2.407   5.082
 5436TIP3    H216250   0.763   2.265   5.111
 5437TIP3   OH216251   8.233   7.245   5.597
 5437TIP3    H116252   8.207   7.313   5.660
 5437TIP3    H216253   8.191   7.165   5.629
 5438TIP3   OH216254   7.152   7.708   3.858
 5438TIP3    H116255   7.167   7.794   3.819
 5438TIP3    H216256   7.208   7.648   3.809
 5439TIP3   OH216257   4.481   5.658   5.863
 5439TIP3    H116258   4.504   5.630   5.952
 5439TIP3    H216259   4.524   5.594   5.806
 5440TIP3   OH216260   7.708   0.250   6.155
 5440TIP3    H116261   7.787   0.209   6.190
 5440TIP3    H216262   7.701   0.332   6.202
 5441TIP3   OH216263   3.929   7.317   6.179
 5441TIP3    H116264   3.964   7.322   6.268
 5441TIP3    H216265   3.872   7.241   6.180
 5442TIP3   OH216266   0.533   4.200   2.783
 5442TIP3    H116267   0.488   4.285   2.788
 5442TIP3    H216268   0.582   4.204   2.701
 5443TIP3   OH216269   5.795   4.426   1.133
 5443TIP3    H116270   5.733   4.493   1.162
 5443TIP3    H216271   5.810   4.446   1.041
 5444TIP3   OH216272   6.451   7.388   1.598
 5444TIP3    H116273   6.407   7.473   1.587
 5444TIP3    H216274   6.394   7.339   1.657
 5445TIP3   OH216275   6.991   0.961   4.545
 5445TIP3    H116276   6.979   0.885   4.488
 5445TIP3    H216277   7.051   0.930   4.613
 5446TIP3   OH216278   5.161   0.619   4.503
 5446TIP3    H116279   5.248   0.580   4.513
 5446TIP3    H216280   5.178   0.710   4.481
 5447TIP3   OH216281   0.779   4.502   3.837
 5447TIP3    H116282   0.783   4.478   3.929
 5447TIP3    H216283   0.871   4.503   3.808
 5448TIP3   OH216284   3.913   7.687   0.192
 5448TIP3    H116285   3.928   7.745   0.266
 5448TIP3    H216286   3.822   7.657   0.203
 5449TIP3   OH216287   7.348   2.229   2.028
 5449TIP3    H116288   7.329   2.319   2.055
 5449TIP3    H216289   7.361   2.182   2.110
 5450TIP3   OH216290   1.763   6.951   1.142
 5450TIP3    H116291   1.668   6.949   1.158
 5450TIP3    H216292   1.801   6.911   1.221
 5451TIP3   OH216293   6.623   1.020   0.817
 5451TIP3    H116294   6.615   0.970   0.736
 5451TIP3    H216295   6.714   1.007   0.846
 5452TIP3   OH216296   2.161   7.505   1.801
 5452TIP3    H116297   2.166   7.558   1.721
 5452TIP3    H216298   2.102   7.434   1.779
 5453TIP3   OH216299   4.314   4.477   2.136
 5453TIP3    H116300   4.354   4.441   2.057
 5453TIP3    H216301   4.262   4.551   2.105
 5454TIP3   OH216302   5.042   3.760   0.442
 5454TIP3    H116303   4.949   3.769   0.421
 5454TIP3    H216304   5.047   3.775   0.536
 5455TIP3   OH216305   3.245   1.665   2.603
 5455TIP3    H116306   3.271   1.667   2.511
 5455TIP3    H216307   3.199   1.748   2.617
 5456TIP3   OH216308   1.329   0.151   0.972
 5456TIP3    H116309   1.383   0.086   1.017
 5456TIP3    H216310   1.262   0.176   1.036
 5457TIP3   OH216311   5.730   5.155   0.134
 5457TIP3    H116312   5.746   5.229   0.192
 5457TIP3    H216313   5.657   5.109   0.174
 5458TIP3   OH216314   2.151   7.529   1.445
 5458TIP3    H116315   2.198   7.445   1.444
 5458TIP3    H216316   2.201   7.583   1.508
 5459TIP3   OH216317   3.699   7.223   1.437
 5459TIP3    H116318   3.754   7.185   1.368
 5459TIP3    H216319   3.610   7.198   1.413
 5460TIP3   OH216320   4.563   1.227   4.899
 5460TIP3    H116321   4.521   1.143   4.917
 5460TIP3    H216322   4.657   1.207   4.896
 5461TIP3   OH216323   6.122   7.347   4.541
 5461TIP3    H116324   6.181   7.399   4.487
 5461TIP3    H216325   6.119   7.394   4.625
 5462TIP3   OH216326   4.245   0.997   5.218
 5462TIP3    H116327   4.187   1.049   5.163
 5462TIP3    H216328   4.252   0.913   5.174
 5463TIP3   OH216329   1.442   4.527   2.065
 5463TIP3    H116330   1.379   4.479   2.011
 5463TIP3    H216331   1.450   4.475   2.145
 5464TIP3   OH216332   1.198   6.273   4.396
 5464TIP3    H116333   1.291   6.296   4.389
 5464TIP3    H216334   1.195   6.210   4.469
 5465TIP3   OH216335   2.132   3.312   4.952
 5465TIP3    H116336   2.169   3.397   4.926
 5465TIP3    H216337   2.175   3.249   4.895
 5466TIP3   OH216338   6.524   7.767   5.197
 5466TIP3    H116339   6.591   7.835   5.200
 5466TIP3    H216340   6.476   7.777   5.279
 5467TIP3   OH216341   1.904   1.628   1.203
 5467TIP3    H116342   1.913   1.553   1.263
 5467TIP3    H216343   1.990   1.637   1.162
 5468TIP3   OH216344   6.229   3.589   3.670
 5468TIP3    H116345   6.299   3.631   3.721
 5468TIP3    H216346   6.242   3.620   3.581
 5469TIP3   OH216347   3.688   1.189   3.278
 5469TIP3    H116348   3.683   1.212   3.185
 5469TIP3    H216349   3.603   1.149   3.297
 5470TIP3   OH216350   5.682   0.550   1.180
 5470TIP3    H116351   5.593   0.577   1.204
 5470TIP3    H216352   5.708   0.488   1.248
 5471TIP3   OH216353   2.692   7.031   5.204
 5471TIP3    H116354   2.766   7.091   5.215
 5471TIP3    H216355   2.732   6.948   5.179
 5472TIP3   OH216356   2.330   1.615   5.272
 5472TIP3    H116357   2.280   1.556   5.216
 5472TIP3    H216358   2.348   1.691   5.217
 5473TIP3   OH216359   5.138   0.570   2.373
 5473TIP3    H116360   5.180   0.515   2.440
 5473TIP3    H216361   5.115   0.509   2.304
 5474TIP3   OH216362   6.317   2.818   0.825
 5474TIP3    H116363   6.364   2.897   0.800
 5474TIP3    H216364   6.385   2.752   0.837
 5475TIP3   OH216365   3.171   6.127   3.339
 5475TIP3    H116366   3.239   6.193   3.328
 5475TIP3    H216367   3.136   6.113   3.251
 5476TIP3   OH216368   6.672   2.419   4.490
 5476TIP3    H116369   6.655   2.510   4.516
 5476TIP3    H216370   6.587   2.375   4.499
 5477TIP3   OH216371   1.223   0.974   6.796
 5477TIP3    H116372   1.232   0.916   6.720
 5477TIP3    H216373   1.135   1.009   6.789
 5478TIP3   OH216374   2.131   4.924   2.089
 5478TIP3    H116375   2.059   4.938   2.027
 5478TIP3    H216376   2.115   4.837   2.124
 5479TIP3   OH216377   2.817   7.678   3.938
 5479TIP3    H116378   2.813   7.736   3.861
 5479TIP3    H216379   2.908   7.684   3.967
 5480TIP3   OH216380   3.657   1.907   2.948
 5480TIP3    H116381   3.657   1.829   3.002
 5480TIP3    H216382   3.675   1.875   2.859
 5481TIP3   OH216383   8.366   1.944   5.921
 5481TIP3    H116384   8.320   1.980   5.996
 5481TIP3    H216385   8.382   1.852   5.944
 5482TIP3   OH216386   1.775   3.676   5.491
 5482TIP3    H116387   1.725   3.662   5.571
 5482TIP3    H216388   1.736   3.616   5.427
 5483TIP3   OH216389   6.867   0.069   6.844
 5483TIP3    H116390   6.919   0.095   6.768
 5483TIP3    H216391   6.836  -0.019   6.823
 5484TIP3   OH216392   1.931   6.998   2.638
 5484TIP3    H116393   1.908   6.947   2.560
 5484TIP3    H216394   1.899   7.086   2.618
 5485TIP3   OH216395   4.993   3.676   2.517
 5485TIP3    H116396   5.046   3.607   2.556
 5485TIP3    H216397   4.929   3.699   2.584
 5486TIP3   OH216398   2.870   1.278   1.607
 5486TIP3    H116399   2.831   1.358   1.571
 5486TIP3    H216400   2.827   1.267   1.691
 5487TIP3   OH216401   0.312   7.376   4.598
 5487TIP3    H116402   0.225   7.409   4.619
 5487TIP3    H216403   0.369   7.452   4.606
 5488TIP3   OH216404   8.007   3.702   0.757
 5488TIP3    H116405   8.096   3.727   0.783
 5488TIP3    H216406   8.004   3.719   0.663
 5489TIP3   OH216407   4.601   0.239   1.820
 5489TIP3    H116408   4.600   0.212   1.912
 5489TIP3    H216409   4.517   0.210   1.785
 5490TIP3   OH216410   6.435   4.696   0.802
 5490TIP3    H116411   6.357   4.714   0.750
 5490TIP3    H216412   6.473   4.618   0.761
 5491TIP3   OH216413   0.681   2.079   3.498
 5491TIP3    H116414   0.692   1.997   3.448
 5491TIP3    H216415   0.671   2.146   3.431
 5492TIP3   OH216416   6.789   6.711   6.392
 5492TIP3    H116417   6.759   6.777   6.455
 5492TIP3    H216418   6.870   6.747   6.356
 5493TIP3   OH216419   5.433   2.540   2.379
 5493TIP3    H116420   5.367   2.579   2.322
 5493TIP3    H216421   5.417   2.578   2.465
 5494TIP3   OH216422   5.177   0.651   1.178
 5494TIP3    H116423   5.156   0.744   1.186
 5494TIP3    H216424   5.257   0.640   1.230
 5495TIP3   OH216425   0.635   5.236   0.338
 5495TIP3    H116426   0.572   5.178   0.380
 5495TIP3    H216427   0.716   5.184   0.334
 5496TIP3   OH216428   1.329   0.037   5.081
 5496TIP3    H116429   1.249   0.088   5.070
 5496TIP3    H216430   1.388   0.095   5.130
 5497TIP3   OH216431   1.506   0.373   0.182
 5497TIP3    H116432   1.536   0.288   0.153
 5497TIP3    H216433   1.574   0.404   0.241
 5498TIP3   OH216434   4.261   1.715   6.020
 5498TIP3    H116435   4.255   1.810   6.016
 5498TIP3    H216436   4.189   1.688   6.076
 5499TIP3   OH216437   6.383   4.435   0.133
 5499TIP3    H116438   6.366   4.414   0.041
 5499TIP3    H216439   6.353   4.525   0.143
 5500TIP3   OH216440   5.160   3.587   0.117
 5500TIP3    H116441   5.147   3.607   0.025
 5500TIP3    H216442   5.239   3.533   0.119
 5501TIP3   OH216443   5.422   2.139   3.702
 5501TIP3    H116444   5.429   2.231   3.729
 5501TIP3    H216445   5.422   2.090   3.784
 5502TIP3   OH216446   4.973   7.521   1.442
 5502TIP3    H116447   5.058   7.499   1.404
 5502TIP3    H216448   4.988   7.603   1.489
 5503TIP3   OH216449   0.257   5.750   3.905
 5503TIP3    H116450   0.191   5.746   3.974
 5503TIP3    H216451   0.282   5.843   3.902
 5504TIP3   OH216452   5.846   7.638   1.421
 5504TIP3    H116453   5.867   7.567   1.361
 5504TIP3    H216454   5.790   7.697   1.370
 5505TIP3   OH216455   5.631   3.955   3.009
 5505TIP3    H116456   5.693   3.990   2.945
 5505TIP3    H216457   5.581   4.030   3.038
 5506TIP3   OH216458   5.952   3.781   1.011
 5506TIP3    H116459   5.889   3.762   1.081
 5506TIP3    H216460   5.921   3.863   0.972
 5507TIP3   OH216461   0.577   0.595   1.207
 5507TIP3    H116462   0.567   0.623   1.116
 5507TIP3    H216463   0.611   0.505   1.200
 5508TIP3   OH216464   6.486   2.320   6.139
 5508TIP3    H116465   6.482   2.225   6.144
 5508TIP3    H216466   6.412   2.350   6.192
 5509TIP3   OH216467   8.191   5.302   3.887
 5509TIP3    H116468   8.257   5.315   3.819
 5509TIP3    H216469   8.112   5.277   3.839
 5510TIP3   OH216470   2.924   3.703   0.752
 5510TIP3    H116471   2.984   3.718   0.825
 5510TIP3    H216472   2.980   3.704   0.675
 5511TIP3   OH216473   5.751   5.090   3.097
 5511TIP3    H116474   5.663   5.126   3.102
 5511TIP3    H216475   5.779   5.106   3.007
 5512TIP3   OH216476   3.163   0.271   1.091
 5512TIP3    H116477   3.088   0.247   1.145
 5512TIP3    H216478   3.212   0.333   1.144
 5513TIP3   OH216479   4.915   4.394   5.277
 5513TIP3    H116480   4.859   4.437   5.213
 5513TIP3    H216481   5.004   4.421   5.254
 5514TIP3   OH216482   5.796   6.395   3.740
 5514TIP3    H116483   5.756   6.451   3.673
 5514TIP3    H216484   5.868   6.352   3.695
 5515TIP3   OH216485   3.503   1.528   6.872
 5515TIP3    H116486   3.488   1.608   6.922
 5515TIP3    H216487   3.514   1.558   6.782
 5516TIP3   OH216488   4.689   5.789   6.108
 5516TIP3    H116489   4.737   5.754   6.183
 5516TIP3    H216490   4.733   5.871   6.088
 5517TIP3   OH216491   4.157   3.289   6.639
 5517TIP3    H116492   4.153   3.277   6.544
 5517TIP3    H216493   4.212   3.217   6.670
 5518TIP3   OH216494   0.537   5.396   1.330
 5518TIP3    H116495   0.617   5.386   1.381
 5518TIP3    H216496   0.554   5.349   1.249
 5519TIP3   OH216497   0.127   5.607   5.411
 5519TIP3    H116498   0.155   5.517   5.395
 5519TIP3    H216499   0.113   5.611   5.506
 5520TIP3   OH216500   5.293   5.280   2.339
 5520TIP3    H116501   5.279   5.286   2.434
 5520TIP3    H216502   5.369   5.222   2.330
 5521TIP3   OH216503   3.818   3.694   6.423
 5521TIP3    H116504   3.831   3.622   6.362
 5521TIP3    H216505   3.761   3.658   6.491
 5522TIP3   OH216506   3.268   0.227   3.154
 5522TIP3    H116507   3.200   0.174   3.195
 5522TIP3    H216508   3.234   0.245   3.066
 5523TIP3   OH216509   6.440   7.637   4.677
 5523TIP3    H116510   6.421   7.709   4.737
 5523TIP3    H216511   6.535   7.641   4.664
 5524TIP3   OH216512   8.083   7.762   3.577
 5524TIP3    H116513   7.994   7.732   3.597
 5524TIP3    H216514   8.112   7.704   3.506
 5525TIP3   OH216515   6.036   1.446   1.351
 5525TIP3    H116516   6.051   1.539   1.372
 5525TIP3    H216517   6.022   1.404   1.435
 5526TIP3   OH216518   2.945   1.279   5.373
 5526TIP3    H116519   2.890   1.339   5.424
 5526TIP3    H216520   2.898   1.268   5.290
 5527TIP3   OH216521   5.478   0.918   5.695
 5527TIP3    H116522   5.406   0.874   5.651
 5527TIP3    H216523   5.549   0.854   5.694
 5528TIP3   OH216524   2.103   3.614   5.068
 5528TIP3    H116525   2.106   3.700   5.110
 5528TIP3    H216526   2.057   3.559   5.132
 5529TIP3   OH216527   3.752   3.209   0.272
 5529TIP3    H116528   3.712   3.274   0.214
 5529TIP3    H216529   3.770   3.256   0.353
 5530TIP3   OH216530   5.739   7.622   2.835
 5530TIP3    H116531   5.820   7.671   2.855
 5530TIP3    H216532   5.687   7.629   2.915
 5531TIP3   OH216533   2.707   1.969   3.843
 5531TIP3    H116534   2.619   1.939   3.819
 5531TIP3    H216535   2.725   2.042   3.783
 5532TIP3   OH216536   0.102   7.818   6.807
 5532TIP3    H116537   0.155   7.744   6.838
 5532TIP3    H216538   0.012   7.792   6.826
 5533TIP3   OH216539   6.936   0.405   6.238
 5533TIP3    H116540   6.925   0.350   6.316
 5533TIP3    H216541   6.860   0.386   6.184
 5534TIP3   OH216542   3.408   2.435   2.851
 5534TIP3    H116543   3.467   2.458   2.923
 5534TIP3    H216544   3.339   2.383   2.893
 5535TIP3   OH216545   6.127   5.097   3.001
 5535TIP3    H116546   6.046   5.146   2.990
 5535TIP3    H216547   6.182   5.125   2.928
 5536TIP3   OH216548   8.087   6.178   2.184
 5536TIP3    H116549   8.153   6.121   2.145
 5536TIP3    H216550   8.047   6.223   2.109
 5537TIP3   OH216551   3.348   0.303   2.046
 5537TIP3    H116552   3.409   0.377   2.052
 5537TIP3    H216553   3.302   0.303   2.130
 5538TIP3   OH216554   5.653   7.781   5.877
 5538TIP3    H116555   5.597   7.809   5.804
 5538TIP3    H216556   5.602   7.713   5.921
 5539TIP3   OH216557   5.796   0.398   2.815
 5539TIP3    H116558   5.733   0.413   2.886
 5539TIP3    H216559   5.852   0.328   2.847
 5540TIP3   OH216560   2.193   0.035   1.740
 5540TIP3    H116561   2.199   0.044   1.645
 5540TIP3    H216562   2.276   0.067   1.774
 5541TIP3   OH216563   4.370   6.343   5.143
 5541TIP3    H116564   4.404   6.432   5.145
 5541TIP3    H216565   4.405   6.302   5.223
 5542TIP3   OH216566   3.229   6.347   6.527
 5542TIP3    H116567   3.236   6.394   6.443
 5542TIP3    H216568   3.147   6.379   6.565
 5543TIP3   OH216569   4.887   2.175   0.319
 5543TIP3    H116570   4.979   2.149   0.321
 5543TIP3    H216571   4.839   2.093   0.329
 5544TIP3   OH216572   6.192   0.816   3.979
 5544TIP3    H116573   6.246   0.755   4.028
 5544TIP3    H216574   6.227   0.813   3.890
 5545TIP3   OH216575   0.807   3.447   5.291
 5545TIP3    H116576   0.726   3.491   5.265
 5545TIP3    H216577   0.874   3.484   5.233
 5546TIP3   OH216578   7.101   3.746   0.500
 5546TIP3    H116579   7.121   3.831   0.461
 5546TIP3    H216580   7.013   3.726   0.468
 5547TIP3   OH216581   3.848   6.305   3.780
 5547TIP3    H116582   3.767   6.305   3.832
 5547TIP3    H216583   3.861   6.397   3.756
 5548TIP3   OH216584   2.150   5.909   0.796
 5548TIP3    H116585   2.096   5.834   0.819
 5548TIP3    H216586   2.147   5.965   0.874
 5549TIP3   OH216587   2.425   1.170   6.825
 5549TIP3    H116588   2.498   1.227   6.850
 5549TIP3    H216589   2.444   1.086   6.866
 5550TIP3   OH216590   4.761   3.760   4.569
 5550TIP3    H116591   4.680   3.744   4.520
 5550TIP3    H216592   4.812   3.818   4.513
 5551TIP3   OH216593   8.134   6.384   0.719
 5551TIP3    H116594   8.115   6.476   0.699
 5551TIP3    H216595   8.108   6.373   0.810
 5552TIP3   OH216596   6.376   5.360   6.499
 5552TIP3    H116597   6.405   5.277   6.462
 5552TIP3    H216598   6.296   5.381   6.451
 5553TIP3   OH216599   4.013   7.454   5.378
 5553TIP3    H116600   3.985   7.426   5.465
 5553TIP3    H216601   4.075   7.525   5.394
 5554TIP3   OH216602   6.891   3.456   0.674
 5554TIP3    H116603   6.883   3.386   0.739
 5554TIP3    H216604   6.805   3.460   0.633
 5555TIP3   OH216605   2.372   3.661   3.862
 5555TIP3    H116606   2.356   3.723   3.933
 5555TIP3    H216607   2.303   3.595   3.871
 5556TIP3   OH216608   3.605   3.624   2.218
 5556TIP3    H116609   3.644   3.539   2.238
 5556TIP3    H216610   3.512   3.605   2.204
 5557TIP3   OH216611   8.258   1.456   3.797
 5557TIP3    H116612   8.243   1.481   3.888
 5557TIP3    H216613   8.344   1.494   3.776
 5558TIP3   OH216614   6.968   2.963   6.174
 5558TIP3    H116615   6.926   2.954   6.088
 5558TIP3    H216616   7.059   2.985   6.155
 5559TIP3   OH216617   2.715   7.443   3.713
 5559TIP3    H116618   2.804   7.406   3.714
 5559TIP3    H216619   2.670   7.397   3.784
 5560TIP3   OH216620   2.780   2.216   0.725
 5560TIP3    H116621   2.704   2.262   0.761
 5560TIP3    H216622   2.743   2.141   0.679
 5561TIP3   OH216623   6.879   5.352   3.888
 5561TIP3    H116624   6.872   5.272   3.940
 5561TIP3    H216625   6.887   5.321   3.797
 5562TIP3   OH216626   4.721   2.710   3.678
 5562TIP3    H116627   4.699   2.617   3.676
 5562TIP3    H216628   4.777   2.724   3.602
 5563TIP3   OH216629   7.509   6.983   1.304
 5563TIP3    H116630   7.569   6.922   1.347
 5563TIP3    H216631   7.530   6.976   1.211
 5564TIP3   OH216632   4.948   2.005   2.036
 5564TIP3    H116633   4.957   2.002   1.941
 5564TIP3    H216634   4.909   1.920   2.059
 5565TIP3   OH216635   7.426   2.101   5.183
 5565TIP3    H116636   7.493   2.096   5.115
 5565TIP3    H216637   7.391   2.011   5.188
 5566TIP3   OH216638   6.675   3.880   6.792
 5566TIP3    H116639   6.612   3.852   6.725
 5566TIP3    H216640   6.666   3.815   6.862
 5567TIP3   OH216641   3.175   2.928   0.387
 5567TIP3    H116642   3.166   2.843   0.343
 5567TIP3    H216643   3.126   2.919   0.468
 5568TIP3   OH216644   7.957   3.163   5.269
 5568TIP3    H116645   7.914   3.127   5.346
 5568TIP3    H216646   7.886   3.201   5.217
 5569TIP3   OH216647   1.956   1.347   2.605
 5569TIP3    H116648   1.863   1.370   2.601
 5569TIP3    H216649   1.956   1.251   2.606
 5570TIP3   OH216650   4.852   7.644   6.371
 5570TIP3    H116651   4.775   7.697   6.351
 5570TIP3    H216652   4.887   7.682   6.452
 5571TIP3   OH216653   0.765   4.670   2.359
 5571TIP3    H116654   0.805   4.751   2.327
 5571TIP3    H216655   0.805   4.655   2.444
 5572TIP3   OH216656   3.481   4.966   1.610
 5572TIP3    H116657   3.549   4.992   1.673
 5572TIP3    H216658   3.404   5.018   1.635
 5573TIP3   OH216659   1.761   1.193   0.013
 5573TIP3    H116660   1.761   1.191   0.108
 5573TIP3    H216661   1.849   1.164  -0.012
 5574TIP3   OH216662   1.716   0.382   5.998
 5574TIP3    H116663   1.793   0.429   5.967
 5574TIP3    H216664   1.651   0.450   6.013
 5575TIP3   OH216665   5.897   5.158   4.191
 5575TIP3    H116666   5.984   5.127   4.214
 5575TIP3    H216667   5.904   5.253   4.190
 5576TIP3   OH216668   2.406   7.850   1.146
 5576TIP3    H116669   2.471   7.784   1.123
 5576TIP3    H216670   2.348   7.854   1.070
 5577TIP3   OH216671   4.593   0.167   0.579
 5577TIP3    H116672   4.632   0.244   0.538
 5577TIP3    H216673   4.529   0.202   0.641
 5578TIP3   OH216674   3.182   5.920   0.261
 5578TIP3    H116675   3.169   5.963   0.177
 5578TIP3    H216676   3.271   5.886   0.257
 5579TIP3   OH216677   7.755   6.959   3.865
 5579TIP3    H116678   7.760   6.864   3.878
 5579TIP3    H216679   7.725   6.994   3.948
 5580TIP3   OH216680   8.290   7.396   4.918
 5580TIP3    H116681   8.342   7.472   4.890
 5580TIP3    H216682   8.317   7.326   4.858
 5581TIP3   OH216683   0.054   5.891   5.587
 5581TIP3    H116684  -0.008   5.884   5.515
 5581TIP3    H216685   0.076   5.801   5.609
 5582TIP3   OH216686   7.324   0.814   1.635
 5582TIP3    H116687   7.290   0.902   1.654
 5582TIP3    H216688   7.296   0.761   1.709
 5583TIP3   OH216689   6.294   0.866   1.899
 5583TIP3    H116690   6.208   0.881   1.861
 5583TIP3    H216691   6.294   0.917   1.979
 5584TIP3   OH216692   1.298   7.801   0.984
 5584TIP3    H116693   1.272   7.869   0.922
 5584TIP3    H216694   1.303   7.721   0.931
 5585TIP3   OH216695   2.891   3.168   5.893
 5585TIP3    H116696   2.931   3.083   5.881
 5585TIP3    H216697   2.962   3.231   5.884
 5586TIP3   OH216698   2.579   3.060   6.054
 5586TIP3    H116699   2.555   2.974   6.020
 5586TIP3    H216700   2.570   3.119   5.979
 5587TIP3   OH216701   2.594   6.826   1.612
 5587TIP3    H116702   2.563   6.917   1.604
 5587TIP3    H216703   2.646   6.811   1.534
 5588TIP3   OH216704   2.278   4.698   1.001
 5588TIP3    H116705   2.183   4.695   0.993
 5588TIP3    H216706   2.295   4.694   1.095
 5589TIP3   OH216707   2.638   4.928   3.463
 5589TIP3    H116708   2.690   4.929   3.382
 5589TIP3    H216709   2.681   4.863   3.518
 5590TIP3   OH216710   0.987   3.727   3.661
 5590TIP3    H116711   0.959   3.717   3.752
 5590TIP3    H216712   0.906   3.742   3.612
 5591TIP3   OH216713   2.455   6.922   6.609
 5591TIP3    H116714   2.443   6.975   6.687
 5591TIP3    H216715   2.369   6.920   6.567
 5592TIP3   OH216716   5.087   0.026   6.633
 5592TIP3    H116717   5.136   0.002   6.712
 5592TIP3    H216718   5.082   0.121   6.637
 5593TIP3   OH216719   2.534   5.679   4.589
 5593TIP3    H116720   2.467   5.667   4.522
 5593TIP3    H216721   2.577   5.594   4.595
 5594TIP3   OH216722   6.256   0.373   1.988
 5594TIP3    H116723   6.296   0.382   2.074
 5594TIP3    H216724   6.225   0.282   1.985
 5595TIP3   OH216725   4.916   2.605   2.228
 5595TIP3    H116726   4.924   2.696   2.256
 5595TIP3    H216727   4.947   2.604   2.137
 5596TIP3   OH216728   2.866   0.317   4.239
 5596TIP3    H116729   2.822   0.349   4.160
 5596TIP3    H216730   2.798   0.319   4.307
 5597TIP3   OH216731   6.105   0.039   2.912
 5597TIP3    H116732   6.194   0.004   2.915
 5597TIP3    H216733   6.060  -0.015   2.847
 5598TIP3   OH216734   2.589   4.903   6.031
 5598TIP3    H116735   2.614   4.833   5.971
 5598TIP3    H216736   2.494   4.891   6.043
 5599TIP3   OH216737   6.821   4.154   4.793
 5599TIP3    H116738   6.802   4.241   4.827
 5599TIP3    H216739   6.737   4.122   4.761
 5600TIP3   OH216740   5.797   5.808   2.371
 5600TIP3    H116741   5.716   5.842   2.333
 5600TIP3    H216742   5.865   5.868   2.339
 5601TIP3   OH216743   7.001   3.775   1.779
 5601TIP3    H116744   7.063   3.819   1.837
 5601TIP3    H216745   7.035   3.686   1.772
 5602TIP3   OH216746   2.190   4.689   4.490
 5602TIP3    H116747   2.189   4.777   4.529
 5602TIP3    H216748   2.130   4.638   4.545
 5603TIP3   OH216749   5.407   0.329   3.741
 5603TIP3    H116750   5.400   0.417   3.779
 5603TIP3    H216751   5.398   0.343   3.647
 5604TIP3   OH216752   6.433   1.106   1.052
 5604TIP3    H116753   6.388   1.022   1.041
 5604TIP3    H216754   6.504   1.103   0.988
 5605TIP3   OH216755   2.075   6.636   4.244
 5605TIP3    H116756   2.113   6.555   4.211
 5605TIP3    H216757   2.114   6.648   4.330
 5606TIP3   OH216758   3.942   0.287   0.447
 5606TIP3    H116759   3.929   0.348   0.519
 5606TIP3    H216760   4.018   0.322   0.400
 5607TIP3   OH216761   4.114   4.268   1.353
 5607TIP3    H116762   4.189   4.304   1.399
 5607TIP3    H216763   4.141   4.180   1.327
 5608TIP3   OH216764   2.949   6.293   1.495
 5608TIP3    H116765   3.042   6.302   1.473
 5608TIP3    H216766   2.914   6.233   1.429
 5609TIP3   OH216767   7.784   0.590   1.908
 5609TIP3    H116768   7.804   0.613   1.999
 5609TIP3    H216769   7.754   0.673   1.869
 5610TIP3   OH216770   7.413   3.429   0.120
 5610TIP3    H116771   7.396   3.466   0.206
 5610TIP3    H216772   7.327   3.400   0.089
 5611TIP3   OH216773   6.299   5.021   0.538
 5611TIP3    H116774   6.394   5.017   0.549
 5611TIP3    H216775   6.280   4.961   0.466
 5612TIP3   OH216776   4.343   1.999   1.937
 5612TIP3    H116777   4.406   2.057   1.892
 5612TIP3    H216778   4.277   1.980   1.871
 5613TIP3   OH216779   1.491   2.241   3.100
 5613TIP3    H116780   1.531   2.217   3.184
 5613TIP3    H216781   1.486   2.337   3.103
 5614TIP3   OH216782   0.669   1.069   5.774
 5614TIP3    H116783   0.693   1.030   5.690
 5614TIP3    H216784   0.574   1.058   5.780
 5615TIP3   OH216785   5.270   4.179   3.354
 5615TIP3    H116786   5.222   4.169   3.436
 5615TIP3    H216787   5.268   4.273   3.337
 5616TIP3   OH216788   1.025   4.350   5.020
 5616TIP3    H116789   1.082   4.415   5.062
 5616TIP3    H216790   0.971   4.316   5.090
 5617TIP3   OH216791   5.841   4.529   5.253
 5617TIP3    H116792   5.786   4.506   5.178
 5617TIP3    H216793   5.930   4.509   5.224
 5618TIP3   OH216794   1.861   7.634   2.970
 5618TIP3    H116795   1.787   7.613   2.914
 5618TIP3    H216796   1.899   7.549   2.993
 5619TIP3   OH216797   1.505   1.487   2.179
 5619TIP3    H116798   1.543   1.556   2.124
 5619TIP3    H216799   1.507   1.409   2.124
 5620TIP3   OH216800   5.362   5.325   6.243
 5620TIP3    H116801   5.277   5.361   6.267
 5620TIP3    H216802   5.351   5.293   6.154
 5621TIP3   OH216803   3.692   2.859   5.815
 5621TIP3    H116804   3.617   2.852   5.874
 5621TIP3    H216805   3.767   2.836   5.869
 5622TIP3   OH216806   6.308   1.823   3.613
 5622TIP3    H116807   6.386   1.869   3.583
 5622TIP3    H216808   6.326   1.730   3.596
 5623TIP3   OH216809   0.095   5.985   1.346
 5623TIP3    H116810   0.089   6.077   1.320
 5623TIP3    H216811   0.159   5.984   1.417
 5624TIP3   OH216812   1.172   3.703   2.410
 5624TIP3    H116813   1.141   3.621   2.449
 5624TIP3    H216814   1.104   3.767   2.431
 5625TIP3   OH216815   1.668   1.409   4.313
 5625TIP3    H116816   1.684   1.403   4.407
 5625TIP3    H216817   1.634   1.498   4.300
 5626TIP3   OH216818   5.486   3.169   2.212
 5626TIP3    H116819   5.473   3.076   2.227
 5626TIP3    H216820   5.524   3.202   2.293
 5627TIP3   OH216821   1.682   3.574   5.736
 5627TIP3    H116822   1.660   3.495   5.687
 5627TIP3    H216823   1.684   3.545   5.827
 5628TIP3   OH216824   0.355   2.595   3.932
 5628TIP3    H116825   0.368   2.674   3.985
 5628TIP3    H216826   0.436   2.546   3.940
 5629TIP3   OH216827   6.331   4.710   0.128
 5629TIP3    H116828   6.423   4.724   0.104
 5629TIP3    H216829   6.282   4.765   0.066
 5630TIP3   OH216830   2.122   3.487   3.402
 5630TIP3    H116831   2.085   3.495   3.314
 5630TIP3    H216832   2.147   3.577   3.425
 5631TIP3   OH216833   0.791   2.311   2.050
 5631TIP3    H116834   0.819   2.244   2.113
 5631TIP3    H216835   0.708   2.342   2.084
 5632TIP3   OH216836   6.375   7.939   4.513
 5632TIP3    H116837   6.389   7.917   4.421
 5632TIP3    H216838   6.442   7.888   4.560
 5633TIP3   OH216839   6.128   6.642   4.464
 5633TIP3    H116840   6.068   6.592   4.408
 5633TIP3    H216841   6.188   6.577   4.499
 5634TIP3   OH216842   4.335   7.656   1.162
 5634TIP3    H116843   4.392   7.600   1.214
 5634TIP3    H216844   4.274   7.693   1.225
 5635TIP3   OH216845   6.689   3.881   5.328
 5635TIP3    H116846   6.618   3.935   5.292
 5635TIP3    H216847   6.678   3.796   5.286
 5636TIP3   OH216848   6.918   5.745   0.047
 5636TIP3    H116849   6.905   5.692   0.126
 5636TIP3    H216850   6.843   5.724  -0.009
 5637TIP3   OH216851   8.225   6.799   3.519
 5637TIP3    H116852   8.174   6.871   3.555
 5637TIP3    H216853   8.193   6.721   3.565
 5638TIP3   OH216854   6.787   4.008   3.608
 5638TIP3    H116855   6.874   4.048   3.616
 5638TIP3    H216856   6.728   4.082   3.591
 5639TIP3   OH216857   5.543   7.463   6.189
 5639TIP3    H116858   5.628   7.429   6.219
 5639TIP3    H216859   5.535   7.548   6.232
 5640TIP3   OH216860   5.850   3.775   1.875
 5640TIP3    H116861   5.879   3.856   1.833
 5640TIP3    H216862   5.895   3.774   1.959
 5641TIP3   OH216863   3.075   5.545   5.451
 5641TIP3    H116864   3.169   5.543   5.463
 5641TIP3    H216865   3.039   5.528   5.538
 5642TIP3   OH216866   0.977   4.644   1.983
 5642TIP3    H116867   1.014   4.566   1.942
 5642TIP3    H216868   1.050   4.680   2.036
 5643TIP3   OH216869   2.235   4.173   4.336
 5643TIP3    H116870   2.263   4.127   4.257
 5643TIP3    H216871   2.177   4.243   4.305
 5644TIP3   OH216872   2.974   5.215   2.090
 5644TIP3    H116873   2.930   5.199   2.174
 5644TIP3    H216874   2.908   5.198   2.024
 5645TIP3   OH216875   3.069   3.249   0.679
 5645TIP3    H116876   3.040   3.297   0.757
 5645TIP3    H216877   3.001   3.182   0.666
 5646TIP3   OH216878   6.436   2.901   1.711
 5646TIP3    H116879   6.491   2.834   1.672
 5646TIP3    H216880   6.377   2.928   1.640
 5647TIP3   OH216881   7.483   1.895   1.086
 5647TIP3    H116882   7.404   1.918   1.134
 5647TIP3    H216883   7.466   1.925   0.996
 5648TIP3   OH216884   4.820   0.376   1.877
 5648TIP3    H116885   4.798   0.389   1.970
 5648TIP3    H216886   4.756   0.312   1.846
 5649TIP3   OH216887   1.004   0.230   3.024
 5649TIP3    H116888   0.922   0.271   3.049
 5649TIP3    H216889   1.071   0.296   3.041
 5650TIP3   OH216890   7.780   0.432   4.462
 5650TIP3    H116891   7.832   0.367   4.415
 5650TIP3    H216892   7.699   0.440   4.411
 5651TIP3   OH216893   0.739   5.118   0.042
 5651TIP3    H116894   0.769   5.108   0.132
 5651TIP3    H216895   0.781   5.046  -0.005
 5652TIP3   OH216896   1.523   2.648   1.276
 5652TIP3    H116897   1.526   2.552   1.267
 5652TIP3    H216898   1.609   2.670   1.313
 5653TIP3   OH216899   3.170   7.899   2.292
 5653TIP3    H116900   3.145   7.989   2.270
 5653TIP3    H216901   3.227   7.871   2.221
 5654TIP3   OH216902   3.392   0.459   0.867
 5654TIP3    H116903   3.322   0.516   0.900
 5654TIP3    H216904   3.367   0.440   0.777
 5655TIP3   OH216905   0.778   4.969   3.258
 5655TIP3    H116906   0.826   5.048   3.234
 5655TIP3    H216907   0.842   4.898   3.248
 5656TIP3   OH216908   8.098   7.080   1.602
 5656TIP3    H116909   8.130   7.145   1.665
 5656TIP3    H216910   8.172   7.020   1.591
 5657TIP3   OH216911   1.580   7.263   0.321
 5657TIP3    H116912   1.535   7.212   0.388
 5657TIP3    H216913   1.626   7.198   0.268
 5658TIP3   OH216914   4.506   2.296   0.679
 5658TIP3    H116915   4.578   2.235   0.664
 5658TIP3    H216916   4.548   2.382   0.687
 5659TIP3   OH216917   8.273   2.768   2.150
 5659TIP3    H116918   8.198   2.805   2.196
 5659TIP3    H216919   8.299   2.835   2.087
 5660TIP3   OH216920   4.339   0.877   1.055
 5660TIP3    H116921   4.379   0.901   1.138
 5660TIP3    H216922   4.407   0.897   0.990
 5661TIP3   OH216923   2.650   3.344   3.941
 5661TIP3    H116924   2.731   3.317   3.984
 5661TIP3    H216925   2.598   3.382   4.012
 5662TIP3   OH216926   5.402   1.223   0.991
 5662TIP3    H116927   5.487   1.188   0.964
 5662TIP3    H216928   5.354   1.235   0.909
 5663TIP3   OH216929   1.253   7.084   0.660
 5663TIP3    H116930   1.217   7.003   0.696
 5663TIP3    H216931   1.208   7.154   0.708
 5664TIP3   OH216932   2.672   5.160   5.987
 5664TIP3    H116933   2.740   5.138   5.922
 5664TIP3    H216934   2.632   5.076   6.009
 5665TIP3   OH216935   4.312   0.209   5.235
 5665TIP3    H116936   4.319   0.115   5.255
 5665TIP3    H216937   4.309   0.251   5.321
 5666TIP3   OH216938   7.760   6.271   6.627
 5666TIP3    H116939   7.670   6.250   6.651
 5666TIP3    H216940   7.792   6.325   6.699
 5667TIP3   OH216941   1.611   0.037   4.131
 5667TIP3    H116942   1.672  -0.034   4.109
 5667TIP3    H216943   1.524   0.000   4.115
 5668TIP3   OH216944   2.918   3.157   1.051
 5668TIP3    H116945   2.971   3.228   1.086
 5668TIP3    H216946   2.843   3.201   1.009
 5669TIP3   OH216947   2.428   5.129   3.454
 5669TIP3    H116948   2.435   5.197   3.521
 5669TIP3    H216949   2.513   5.085   3.455
 5670TIP3   OH216950   2.474   0.496   1.977
 5670TIP3    H116951   2.453   0.571   2.031
 5670TIP3    H216952   2.449   0.522   1.888
 5671TIP3   OH216953   6.546   0.707   4.876
 5671TIP3    H116954   6.458   0.678   4.853
 5671TIP3    H216955   6.574   0.644   4.944
 5672TIP3   OH216956   4.108   0.460   1.090
 5672TIP3    H116957   4.188   0.510   1.072
 5672TIP3    H216958   4.092   0.411   1.010
 5673TIP3   OH216959   2.261   4.302   5.848
 5673TIP3    H116960   2.355   4.281   5.851
 5673TIP3    H216961   2.253   4.362   5.774
 5674TIP3   OH216962   8.232   0.758   3.594
 5674TIP3    H116963   8.210   0.851   3.583
 5674TIP3    H216964   8.273   0.733   3.511
 5675TIP3   OH216965   2.145   0.394   0.397
 5675TIP3    H116966   2.187   0.370   0.314
 5675TIP3    H216967   2.187   0.338   0.462
 5676TIP3   OH216968   3.933   1.500   5.188
 5676TIP3    H116969   3.842   1.490   5.161
 5676TIP3    H216970   3.977   1.536   5.111
 5677TIP3   OH216971   2.244   1.089   1.357
 5677TIP3    H116972   2.288   1.119   1.277
 5677TIP3    H216973   2.281   1.002   1.374
 5678TIP3   OH216974   0.024   0.148   5.505
 5678TIP3    H116975   0.083   0.199   5.449
 5678TIP3    H216976  -0.064   0.177   5.479
 5679TIP3   OH216977   7.945   0.830   3.482
 5679TIP3    H116978   8.014   0.896   3.489
 5679TIP3    H216979   7.864   0.878   3.502
 5680TIP3   OH216980   5.524   3.039   1.034
 5680TIP3    H116981   5.539   3.132   1.017
 5680TIP3    H216982   5.545   2.996   0.951
 5681TIP3   OH216983   4.524   3.205   1.208
 5681TIP3    H116984   4.463   3.241   1.143
 5681TIP3    H216985   4.486   3.230   1.293
 5682TIP3   OH216986   4.420   0.851   4.655
 5682TIP3    H116987   4.458   0.775   4.611
 5682TIP3    H216988   4.495   0.906   4.678
 5683TIP3   OH216989   5.317   1.046   6.526
 5683TIP3    H116990   5.334   0.975   6.464
 5683TIP3    H216991   5.321   1.005   6.612
 5684TIP3   OH216992   5.720   6.131   4.480
 5684TIP3    H116993   5.699   6.193   4.410
 5684TIP3    H216994   5.658   6.152   4.550
 5685TIP3   OH216995   3.979   7.332   4.861
 5685TIP3    H116996   4.068   7.297   4.869
 5685TIP3    H216997   3.928   7.261   4.823
 5686TIP3   OH216998   5.960   7.743   2.921
 5686TIP3    H116999   6.022   7.733   2.993
 5686TIP3    H217000   6.014   7.759   2.844
 5687TIP3   OH217001   0.066   3.527   6.084
 5687TIP3    H117002   0.069   3.536   5.989
 5687TIP3    H217003   0.057   3.617   6.116
 5688TIP3   OH217004   4.492   7.847   3.869
 5688TIP3    H117005   4.432   7.921   3.862
 5688TIP3    H217006   4.524   7.834   3.780
 5689TIP3   OH217007   0.364   5.045   3.095
 5689TIP3    H117008   0.311   5.002   3.162
 5689TIP3    H217009   0.448   5.061   3.139
 5690TIP3   OH217010   2.289   6.603   2.742
 5690TIP3    H117011   2.231   6.646   2.805
 5690TIP3    H217012   2.265   6.511   2.746
 5691TIP3   OH217013   3.556   7.305   2.898
 5691TIP3    H117014   3.570   7.396   2.923
 5691TIP3    H217015   3.558   7.305   2.802
 5692TIP3   OH217016   3.502   1.630   6.347
 5692TIP3    H117017   3.520   1.626   6.441
 5692TIP3    H217018   3.559   1.700   6.315
 5693TIP3   OH217019   4.292   4.383   0.185
 5693TIP3    H117020   4.269   4.417   0.271
 5693TIP3    H217021   4.381   4.416   0.169
 5694TIP3   OH217022   4.752   4.834   6.784
 5694TIP3    H117023   4.844   4.862   6.777
 5694TIP3    H217024   4.738   4.779   6.707
 5695TIP3   OH217025   6.200   2.007   2.962
 5695TIP3    H117026   6.288   1.973   2.950
 5695TIP3    H217027   6.156   1.990   2.879
 5696TIP3   OH217028   0.436   5.350   1.074
 5696TIP3    H117029   0.423   5.267   1.120
 5696TIP3    H217030   0.364   5.353   1.010
 5697TIP3   OH217031   4.646   4.282   4.259
 5697TIP3    H117032   4.705   4.343   4.213
 5697TIP3    H217033   4.675   4.285   4.350
 5698TIP3   OH217034   1.801   5.423   0.606
 5698TIP3    H117035   1.782   5.374   0.526
 5698TIP3    H217036   1.792   5.515   0.580
 5699TIP3   OH217037   5.004   7.446   2.032
 5699TIP3    H117038   5.053   7.367   2.056
 5699TIP3    H217039   4.932   7.449   2.094
 5700TIP3   OH217040   4.854   1.165   4.914
 5700TIP3    H117041   4.892   1.204   4.993
 5700TIP3    H217042   4.926   1.161   4.851
 5701TIP3   OH217043   6.705   0.828   6.722
 5701TIP3    H117044   6.799   0.845   6.737
 5701TIP3    H217045   6.704   0.747   6.671
 5702TIP3   OH217046   3.902   4.897   0.801
 5702TIP3    H117047   3.927   4.979   0.758
 5702TIP3    H217048   3.920   4.913   0.894
 5703TIP3   OH217049   6.824   0.938   0.294
 5703TIP3    H117050   6.781   0.940   0.209
 5703TIP3    H217051   6.917   0.926   0.274
 5704TIP3   OH217052   7.042   7.713   4.594
 5704TIP3    H117053   7.059   7.804   4.569
 5704TIP3    H217054   7.073   7.707   4.685
 5705TIP3   OH217055   2.305   5.313   5.678
 5705TIP3    H117056   2.298   5.265   5.760
 5705TIP3    H217057   2.307   5.245   5.610
 5706TIP3   OH217058   1.252   1.504   6.742
 5706TIP3    H117059   1.328   1.476   6.793
 5706TIP3    H217060   1.241   1.435   6.677
 5707TIP3   OH217061   4.641   7.757   4.553
 5707TIP3    H117062   4.674   7.721   4.471
 5707TIP3    H217063   4.547   7.740   4.552
 5708TIP3   OH217064   7.345   4.418   2.469
 5708TIP3    H117065   7.252   4.398   2.462
 5708TIP3    H217066   7.349   4.492   2.530
 5709TIP3   OH217067   1.910   1.251   0.485
 5709TIP3    H117068   1.923   1.202   0.566
 5709TIP3    H217069   1.996   1.285   0.463
 5710TIP3   OH217070   0.340   6.275   2.868
 5710TIP3    H117071   0.290   6.304   2.944
 5710TIP3    H217072   0.328   6.345   2.803
 5711TIP3   OH217073   0.295   3.183   5.662
 5711TIP3    H117074   0.230   3.195   5.731
 5711TIP3    H217075   0.373   3.153   5.708
 5712TIP3   OH217076   2.153   6.654   4.790
 5712TIP3    H117077   2.072   6.604   4.807
 5712TIP3    H217078   2.223   6.593   4.812
 5713TIP3   OH217079   3.564   3.213   2.267
 5713TIP3    H117080   3.534   3.207   2.177
 5713TIP3    H217081   3.492   3.178   2.319
 5714TIP3   OH217082   5.577   2.629   6.073
 5714TIP3    H117083   5.598   2.585   5.991
 5714TIP3    H217084   5.560   2.720   6.048
 5715TIP3   OH217085   6.306   3.713   5.285
 5715TIP3    H117086   6.384   3.768   5.282
 5715TIP3    H217087   6.295   3.691   5.378
 5716TIP3   OH217088   6.101   1.555   6.079
 5716TIP3    H117089   6.034   1.590   6.021
 5716TIP3    H217090   6.143   1.486   6.028
 5717TIP3   OH217091   8.377   0.102   6.456
 5717TIP3    H117092   8.292   0.140   6.481
 5717TIP3    H217093   8.440   0.172   6.473
 5718TIP3   OH217094   2.595   1.294   4.900
 5718TIP3    H117095   2.564   1.356   4.966
 5718TIP3    H217096   2.663   1.244   4.945
 5719TIP3   OH217097   4.800   2.776   0.910
 5719TIP3    H117098   4.770   2.867   0.907
 5719TIP3    H217099   4.865   2.775   0.980
 5720TIP3   OH217100   7.548   4.184   2.187
 5720TIP3    H117101   7.536   4.259   2.129
 5720TIP3    H217102   7.599   4.122   2.135
 5721TIP3   OH217103   0.876   7.351   6.180
 5721TIP3    H117104   0.850   7.267   6.141
 5721TIP3    H217105   0.798   7.405   6.173
 5722TIP3   OH217106   7.780   0.586   2.728
 5722TIP3    H117107   7.853   0.592   2.666
 5722TIP3    H217108   7.823   0.574   2.813
 5723TIP3   OH217109   1.734   4.177   5.136
 5723TIP3    H117110   1.711   4.085   5.147
 5723TIP3    H217111   1.686   4.223   5.205
 5724TIP3   OH217112   3.941   2.577   2.635
 5724TIP3    H117113   4.027   2.614   2.614
 5724TIP3    H217114   3.923   2.607   2.724
 5725TIP3   OH217115   7.603   0.006   6.025
 5725TIP3    H117116   7.604   0.083   6.082
 5725TIP3    H217117   7.654  -0.059   6.073
 5726TIP3   OH217118   8.348   6.537   0.487
 5726TIP3    H117119   8.373   6.491   0.406
 5726TIP3    H217120   8.253   6.536   0.487
 5727TIP3   OH217121   2.054   5.367   3.207
 5727TIP3    H117122   1.992   5.438   3.198
 5727TIP3    H217123   2.019   5.297   3.152
 5728TIP3   OH217124   1.475  -0.035   3.153
 5728TIP3    H117125   1.465   0.009   3.237
 5728TIP3    H217126   1.515   0.030   3.095
 5729TIP3   OH217127   2.223   6.943   6.473
 5729TIP3    H117128   2.180   7.023   6.502
 5729TIP3    H217129   2.172   6.914   6.397
 5730TIP3   OH217130   0.980   4.041   5.126
 5730TIP3    H117131   1.059   4.027   5.074
 5730TIP3    H217132   0.990   4.130   5.161
 5731TIP3   OH217133   4.121   2.204   6.255
 5731TIP3    H117134   4.138   2.170   6.343
 5731TIP3    H217135   4.122   2.127   6.199
 5732TIP3   OH217136   0.348   0.642   0.165
 5732TIP3    H117137   0.396   0.700   0.107
 5732TIP3    H217138   0.412   0.615   0.231
 5733TIP3   OH217139   1.370   5.495   1.909
 5733TIP3    H117140   1.410   5.538   1.984
 5733TIP3    H217141   1.374   5.402   1.929
 5734TIP3   OH217142   2.647   7.709   3.724
 5734TIP3    H117143   2.697   7.628   3.735
 5734TIP3    H217144   2.576   7.702   3.788
 5735TIP3   OH217145   4.016   6.730   3.962
 5735TIP3    H117146   3.947   6.796   3.966
 5735TIP3    H217147   4.054   6.741   3.875
 5736TIP3   OH217148   3.117   0.558   3.378
 5736TIP3    H117149   3.196   0.584   3.426
 5736TIP3    H217150   3.095   0.472   3.414
 5737TIP3   OH217151   4.328   6.357   0.529
 5737TIP3    H117152   4.278   6.405   0.463
 5737TIP3    H217153   4.418   6.387   0.518
 5738TIP3   OH217154   2.699   2.284   4.319
 5738TIP3    H117155   2.680   2.198   4.357
 5738TIP3    H217156   2.684   2.272   4.225
 5739TIP3   OH217157   3.980   6.629   2.685
 5739TIP3    H117158   3.900   6.629   2.633
 5739TIP3    H217159   4.013   6.540   2.678
 5740TIP3   OH217160   6.951   2.999   3.684
 5740TIP3    H117161   6.976   3.076   3.633
 5740TIP3    H217162   6.997   3.011   3.767
 5741TIP3   OH217163   0.596   1.139   4.708
 5741TIP3    H117164   0.524   1.075   4.700
 5741TIP3    H217165   0.622   1.135   4.800
 5742TIP3   OH217166   1.596   0.090   0.121
 5742TIP3    H117167   1.629   0.105   0.209
 5742TIP3    H217168   1.598  -0.005   0.110
 5743TIP3   OH217169   7.870   3.941   4.854
 5743TIP3    H117170   7.807   3.881   4.815
 5743TIP3    H217171   7.905   3.893   4.930
 5744TIP3   OH217172   1.987   1.730   3.616
 5744TIP3    H117173   2.001   1.753   3.524
 5744TIP3    H217174   1.933   1.651   3.614
 5745TIP3   OH217175   2.322   4.382   6.334
 5745TIP3    H117176   2.251   4.367   6.397
 5745TIP3    H217177   2.280   4.373   6.248
 5746TIP3   OH217178   2.862   2.363   0.416
 5746TIP3    H117179   2.849   2.327   0.504
 5746TIP3    H217180   2.836   2.293   0.357
 5747TIP3   OH217181   8.006   3.453   3.661
 5747TIP3    H117182   8.049   3.413   3.586
 5747TIP3    H217183   8.056   3.421   3.737
 5748TIP3   OH217184   7.521   0.231   0.983
 5748TIP3    H117185   7.526   0.325   0.966
 5748TIP3    H217186   7.454   0.222   1.050
 5749TIP3   OH217187   6.811   5.168   2.637
 5749TIP3    H117188   6.735   5.132   2.683
 5749TIP3    H217189   6.820   5.257   2.671
 5750TIP3   OH217190   0.690   4.964   5.095
 5750TIP3    H117191   0.773   5.010   5.109
 5750TIP3    H217192   0.635   5.028   5.051
 5751TIP3   OH217193   0.673   6.220   3.210
 5751TIP3    H117194   0.598   6.278   3.218
 5751TIP3    H217195   0.746   6.277   3.187
 5752TIP3   OH217196   7.707   0.016   2.882
 5752TIP3    H117197   7.671   0.093   2.838
 5752TIP3    H217198   7.798   0.037   2.898
 5753TIP3   OH217199   5.996   2.432   1.995
 5753TIP3    H117200   5.905   2.428   2.024
 5753TIP3    H217201   5.996   2.394   1.908
 5754TIP3   OH217202   5.783   1.220   2.690
 5754TIP3    H117203   5.769   1.297   2.635
 5754TIP3    H217204   5.827   1.254   2.768
 5755TIP3   OH217205   4.885   2.833   0.542
 5755TIP3    H117206   4.954   2.810   0.480
 5755TIP3    H217207   4.809   2.782   0.514
 5756TIP3   OH217208   0.403   0.774   1.315
 5756TIP3    H117209   0.386   0.822   1.235
 5756TIP3    H217210   0.475   0.714   1.293
 5757TIP3   OH217211   6.988   7.436   0.752
 5757TIP3    H117212   7.037   7.379   0.692
 5757TIP3    H217213   7.055   7.496   0.786
 5758TIP3   OH217214   7.386   1.998   6.610
 5758TIP3    H117215   7.432   2.075   6.576
 5758TIP3    H217216   7.422   1.984   6.697
 5759TIP3   OH217217   3.584   0.473   2.642
 5759TIP3    H117218   3.586   0.562   2.609
 5759TIP3    H217219   3.629   0.421   2.575
 5760TIP3   OH217220   4.848   4.665   5.566
 5760TIP3    H117221   4.762   4.629   5.542
 5760TIP3    H217222   4.844   4.674   5.662
 5761TIP3   OH217223   6.876   0.624   3.369
 5761TIP3    H117224   6.914   0.567   3.302
 5761TIP3    H217225   6.951   0.665   3.411
 5762TIP3   OH217226   4.610   7.085   3.907
 5762TIP3    H117227   4.642   6.996   3.892
 5762TIP3    H217228   4.689   7.135   3.928
 5763TIP3   OH217229   0.246   7.719   1.410
 5763TIP3    H117230   0.332   7.682   1.394
 5763TIP3    H217231   0.254   7.766   1.492
 5764TIP3   OH217232   2.286   7.235   0.838
 5764TIP3    H117233   2.297   7.311   0.781
 5764TIP3    H217234   2.345   7.169   0.802
 5765TIP3   OH217235   0.029   2.849   4.018
 5765TIP3    H117236   0.100   2.912   4.029
 5765TIP3    H217237   0.024   2.834   3.923
 5766TIP3   OH217238   5.498   2.854   4.524
 5766TIP3    H117239   5.575   2.890   4.568
 5766TIP3    H217240   5.427   2.914   4.546
 5767TIP3   OH217241   1.051   7.207   4.664
 5767TIP3    H117242   1.056   7.287   4.612
 5767TIP3    H217243   0.974   7.161   4.631
 5768TIP3   OH217244   1.294   5.945   3.187
 5768TIP3    H117245   1.328   5.990   3.264
 5768TIP3    H217246   1.298   5.852   3.209
 5769TIP3   OH217247   8.379   3.786   4.281
 5769TIP3    H117248   8.440   3.768   4.353
 5769TIP3    H217249   8.319   3.851   4.316
 5770TIP3   OH217250   1.272   4.790   0.635
 5770TIP3    H117251   1.218   4.759   0.562
 5770TIP3    H217252   1.325   4.861   0.597
 5771TIP3   OH217253   7.554   7.009   1.849
 5771TIP3    H117254   7.471   6.991   1.894
 5771TIP3    H217255   7.543   7.098   1.815
 5772TIP3   OH217256   0.260   6.944   5.518
 5772TIP3    H117257   0.340   6.979   5.479
 5772TIP3    H217258   0.206   7.021   5.536
 5773TIP3   OH217259   3.379   2.777   0.726
 5773TIP3    H117260   3.330   2.857   0.744
 5773TIP3    H217261   3.466   2.807   0.701
 5774TIP3   OH217262   5.520   3.382   5.509
 5774TIP3    H117263   5.466   3.422   5.441
 5774TIP3    H217264   5.608   3.415   5.492
 5775TIP3   OH217265   1.504   1.125   1.552
 5775TIP3    H117266   1.559   1.187   1.503
 5775TIP3    H217267   1.566   1.065   1.592
 5776TIP3   OH217268   4.114   2.365   2.457
 5776TIP3    H117269   4.115   2.326   2.370
 5776TIP3    H217270   4.036   2.329   2.499
 5777TIP3   OH217271   5.414   7.501   0.483
 5777TIP3    H117272   5.326   7.467   0.466
 5777TIP3    H217273   5.406   7.595   0.470
 5778TIP3   OH217274   3.895   0.990   3.355
 5778TIP3    H117275   3.861   0.973   3.442
 5778TIP3    H217276   3.838   1.058   3.319
 5779TIP3   OH217277   7.632   1.034   3.670
 5779TIP3    H117278   7.543   1.017   3.641
 5779TIP3    H217279   7.648   0.970   3.739
 5780TIP3   OH217280   3.683   7.270   1.022
 5780TIP3    H117281   3.687   7.174   1.021
 5780TIP3    H217282   3.603   7.291   0.975
 5781TIP3   OH217283   1.156   2.948   2.360
 5781TIP3    H117284   1.213   2.871   2.362
 5781TIP3    H217285   1.102   2.936   2.282
 5782TIP3   OH217286   3.987   4.357   5.426
 5782TIP3    H117287   3.951   4.328   5.509
 5782TIP3    H217288   3.911   4.385   5.375
 5783TIP3   OH217289   4.812   5.175   6.781
 5783TIP3    H117290   4.837   5.262   6.751
 5783TIP3    H217291   4.886   5.119   6.759
 5784TIP3   OH217292   5.838   7.107   0.958
 5784TIP3    H117293   5.773   7.177   0.960
 5784TIP3    H217294   5.820   7.055   1.037
 5785TIP3   OH217295   1.105   5.908   0.752
 5785TIP3    H117296   1.052   5.884   0.828
 5785TIP3    H217297   1.043   5.910   0.679
 5786TIP3   OH217298   6.848   0.915   0.017
 5786TIP3    H117299   6.922   0.895   0.074
 5786TIP3    H217300   6.874   0.881  -0.069
 5787TIP3   OH217301   6.677   1.896   2.255
 5787TIP3    H117302   6.674   1.834   2.181
 5787TIP3    H217303   6.625   1.971   2.224
 5788TIP3   OH217304   7.276   4.476   2.160
 5788TIP3    H117305   7.286   4.554   2.216
 5788TIP3    H217306   7.184   4.477   2.135
 5789TIP3   OH217307   5.104   2.717   0.392
 5789TIP3    H117308   5.186   2.752   0.357
 5789TIP3    H217309   5.129   2.636   0.436
 5790TIP3   OH217310   2.548   6.097   4.438
 5790TIP3    H117311   2.584   6.052   4.515
 5790TIP3    H217312   2.591   6.183   4.438
 5791TIP3   OH217313   5.400   2.014   4.252
 5791TIP3    H117314   5.308   1.992   4.268
 5791TIP3    H217315   5.443   1.999   4.337
 5792TIP3   OH217316   6.880   1.526   2.143
 5792TIP3    H117317   6.815   1.517   2.213
 5792TIP3    H217318   6.839   1.485   2.067
 5793TIP3   OH217319   7.353   4.830   6.290
 5793TIP3    H117320   7.352   4.925   6.304
 5793TIP3    H217321   7.426   4.799   6.342
 5794TIP3   OH217322   2.035   7.368   4.590
 5794TIP3    H117323   2.092   7.387   4.516
 5794TIP3    H217324   1.952   7.343   4.551
 5795TIP3   OH217325   0.531   1.899   0.596
 5795TIP3    H117326   0.438   1.919   0.607
 5795TIP3    H217327   0.560   1.957   0.526
 5796TIP3   OH217328   5.772   4.094   6.128
 5796TIP3    H117329   5.696   4.065   6.179
 5796TIP3    H217330   5.774   4.036   6.052
 5797TIP3   OH217331   3.669   7.252   0.303
 5797TIP3    H117332   3.710   7.277   0.386
 5797TIP3    H217333   3.719   7.175   0.274
 5798TIP3   OH217334   1.611   2.542   3.468
 5798TIP3    H117335   1.620   2.511   3.377
 5798TIP3    H217336   1.564   2.472   3.512
 5799TIP3   OH217337   5.969   4.883   4.267
 5799TIP3    H117338   5.984   4.860   4.175
 5799TIP3    H217339   5.911   4.815   4.300
 5800TIP3   OH217340   5.342   4.052   4.692
 5800TIP3    H117341   5.284   4.101   4.750
 5800TIP3    H217342   5.419   4.109   4.682
 5801TIP3   OH217343   3.810   6.452   6.484
 5801TIP3    H117344   3.772   6.466   6.571
 5801TIP3    H217345   3.801   6.358   6.468
 5802TIP3   OH217346   1.901   1.399   2.049
 5802TIP3    H117347   1.837   1.428   1.984
 5802TIP3    H217348   1.912   1.306   2.031
 5803TIP3   OH217349   6.624   4.874   3.656
 5803TIP3    H117350   6.591   4.881   3.745
 5803TIP3    H217351   6.720   4.874   3.665
 5804TIP3   OH217352   8.199   0.190   1.301
 5804TIP3    H117353   8.122   0.247   1.302
 5804TIP3    H217354   8.257   0.228   1.367
 5805TIP3   OH217355   3.111   1.111   6.062
 5805TIP3    H117356   3.177   1.148   6.120
 5805TIP3    H217357   3.124   1.156   5.979
 5806TIP3   OH217358   4.037   7.732   5.189
 5806TIP3    H117359   4.095   7.705   5.261
 5806TIP3    H217360   3.958   7.679   5.200
 5807TIP3   OH217361   8.186   3.512   6.794
 5807TIP3    H117362   8.206   3.586   6.737
 5807TIP3    H217363   8.161   3.551   6.877
 5808TIP3   OH217364   7.894   7.879   6.315
 5808TIP3    H117365   7.889   7.892   6.220
 5808TIP3    H217366   7.966   7.935   6.343
 5809TIP3   OH217367   7.591   4.536   1.793
 5809TIP3    H117368   7.496   4.542   1.787
 5809TIP3    H217369   7.614   4.585   1.872
 5810TIP3   OH217370   6.610   4.195   2.822
 5810TIP3    H117371   6.585   4.271   2.875
 5810TIP3    H217372   6.600   4.120   2.881
 5811TIP3   OH217373   3.397   5.087   2.742
 5811TIP3    H117374   3.484   5.066   2.776
 5811TIP3    H217375   3.357   5.002   2.726
 5812TIP3   OH217376   6.903   7.918   2.668
 5812TIP3    H117377   6.828   7.946   2.721
 5812TIP3    H217378   6.874   7.839   2.624
 5813TIP3   OH217379   7.931   5.483   4.824
 5813TIP3    H117380   7.967   5.449   4.906
 5813TIP3    H217381   7.944   5.413   4.761
 5814TIP3   OH217382   2.213   0.783   3.001
 5814TIP3    H117383   2.177   0.825   2.923
 5814TIP3    H217384   2.274   0.718   2.967
 5815TIP3   OH217385  -0.016   7.128   2.038
 5815TIP3    H117386   0.029   7.056   1.992
 5815TIP3    H217387   0.051   7.194   2.050
 5816TIP3   OH217388   3.702   2.251   6.423
 5816TIP3    H117389   3.669   2.315   6.360
 5816TIP3    H217390   3.645   2.261   6.500
 5817TIP3   OH217391   4.054   6.176   3.905
 5817TIP3    H117392   4.016   6.161   3.992
 5817TIP3    H217393   3.995   6.238   3.863
 5818TIP3   OH217394   5.289   4.766   3.569
 5818TIP3    H117395   5.261   4.825   3.640
 5818TIP3    H217396   5.329   4.824   3.505
 5819TIP3   OH217397   7.025   2.198   3.783
 5819TIP3    H117398   6.936   2.234   3.779
 5819TIP3    H217399   7.078   2.270   3.816
 5820TIP3   OH217400   2.636   6.000   1.635
 5820TIP3    H117401   2.619   6.072   1.574
 5820TIP3    H217402   2.711   6.029   1.686
 5821TIP3   OH217403   2.729   2.902   3.736
 5821TIP3    H117404   2.747   2.936   3.649
 5821TIP3    H217405   2.718   2.980   3.790
 5822TIP3   OH217406   2.550   0.894   4.017
 5822TIP3    H117407   2.470   0.943   4.034
 5822TIP3    H217408   2.598   0.949   3.955
 5823TIP3   OH217409   4.913   5.765   4.108
 5823TIP3    H117410   4.865   5.813   4.041
 5823TIP3    H217411   4.859   5.688   4.126
 5824TIP3   OH217412   5.573   6.804   6.223
 5824TIP3    H117413   5.627   6.733   6.188
 5824TIP3    H217414   5.483   6.772   6.215
 5825TIP3   OH217415   5.908   2.869   4.830
 5825TIP3    H117416   5.864   2.885   4.746
 5825TIP3    H217417   5.890   2.947   4.882
 5826TIP3   OH217418   8.178   2.073   6.076
 5826TIP3    H117419   8.143   2.022   6.149
 5826TIP3    H217420   8.100   2.105   6.030
 5827TIP3   OH217421   0.245   4.960   6.084
 5827TIP3    H117422   0.253   5.033   6.145
 5827TIP3    H217423   0.265   4.999   5.998
 5828TIP3   OH217424   7.313   2.990   2.935
 5828TIP3    H117425   7.309   3.022   2.845
 5828TIP3    H217426   7.347   2.900   2.927
 5829TIP3   OH217427   1.340   6.852   3.132
 5829TIP3    H117428   1.254   6.893   3.140
 5829TIP3    H217429   1.380   6.895   3.056
 5830TIP3   OH217430   4.445   1.843   3.189
 5830TIP3    H117431   4.394   1.779   3.239
 5830TIP3    H217432   4.495   1.891   3.255
 5831TIP3   OH217433   8.159   4.159   1.453
 5831TIP3    H117434   8.151   4.169   1.358
 5831TIP3    H217435   8.082   4.205   1.488
 5832TIP3   OH217436   3.053   1.755   0.844
 5832TIP3    H117437   2.962   1.734   0.862
 5832TIP3    H217438   3.100   1.728   0.924
 5833TIP3   OH217439   1.128   7.477   1.177
 5833TIP3    H117440   1.133   7.488   1.271
 5833TIP3    H217441   1.187   7.403   1.159
 5834TIP3   OH217442   4.520   1.181   4.580
 5834TIP3    H117443   4.429   1.206   4.588
 5834TIP3    H217444   4.543   1.146   4.666
 5835TIP3   OH217445   5.490   5.564   6.460
 5835TIP3    H117446   5.458   5.482   6.424
 5835TIP3    H217447   5.505   5.620   6.384
 5836TIP3   OH217448   6.145   1.341   1.074
 5836TIP3    H117449   6.103   1.406   1.130
 5836TIP3    H217450   6.106   1.258   1.102
 5837TIP3   OH217451   0.621   3.710   4.380
 5837TIP3    H117452   0.669   3.789   4.355
 5837TIP3    H217453   0.673   3.638   4.343
 5838TIP3   OH217454   4.416   3.323   0.231
 5838TIP3    H117455   4.324   3.296   0.236
 5838TIP3    H217456   4.428   3.350   0.140
 5839TIP3   OH217457   5.663   0.042   5.868
 5839TIP3    H117458   5.647   0.032   5.962
 5839TIP3    H217459   5.745   0.090   5.862
 5840TIP3   OH217460   1.785   6.620   6.755
 5840TIP3    H117461   1.763   6.648   6.844
 5840TIP3    H217462   1.780   6.699   6.702
 5841TIP3   OH217463   6.421   4.452   1.953
 5841TIP3    H117464   6.499   4.491   1.915
 5841TIP3    H217465   6.400   4.378   1.896
 5842TIP3   OH217466   4.690   2.316   6.667
 5842TIP3    H117467   4.764   2.358   6.622
 5842TIP3    H217468   4.676   2.234   6.619
 5843TIP3   OH217469   6.943   4.730   2.160
 5843TIP3    H117470   7.037   4.726   2.143
 5843TIP3    H217471   6.919   4.640   2.181
 5844TIP3   OH217472   0.491   3.544   1.990
 5844TIP3    H117473   0.557   3.474   1.990
 5844TIP3    H217474   0.511   3.596   1.913
 5845TIP3   OH217475   7.167   5.921   2.461
 5845TIP3    H117476   7.178   5.986   2.530
 5845TIP3    H217477   7.239   5.859   2.474
 5846TIP3   OH217478   4.116   3.353   5.657
 5846TIP3    H117479   4.095   3.291   5.587
 5846TIP3    H217480   4.212   3.362   5.653
 5847TIP3   OH217481   6.968   0.066   5.445
 5847TIP3    H117482   7.027   0.091   5.373
 5847TIP3    H217483   6.880   0.077   5.408
 5848TIP3   OH217484   3.911   4.681   4.581
 5848TIP3    H117485   3.867   4.628   4.514
 5848TIP3    H217486   3.947   4.618   4.642
 5849TIP3   OH217487   7.837   4.575   2.906
 5849TIP3    H117488   7.755   4.540   2.942
 5849TIP3    H217489   7.892   4.498   2.891
 5850TIP3   OH217490   6.019   4.063   4.587
 5850TIP3    H117491   6.081   3.992   4.570
 5850TIP3    H217492   5.978   4.080   4.502
 5851TIP3   OH217493   1.542   2.293   5.894
 5851TIP3    H117494   1.607   2.357   5.924
 5851TIP3    H217495   1.459   2.341   5.896
 5852TIP3   OH217496   0.427   0.120   5.357
 5852TIP3    H117497   0.415   0.122   5.452
 5852TIP3    H217498   0.429   0.027   5.335
 5853TIP3   OH217499   3.706   0.778   3.875
 5853TIP3    H117500   3.763   0.850   3.900
 5853TIP3    H217501   3.626   0.790   3.927
 5854TIP3   OH217502   3.896   0.137   6.436
 5854TIP3    H117503   3.875   0.117   6.345
 5854TIP3    H217504   3.987   0.106   6.447
 5855TIP3   OH217505   6.244   7.066   4.894
 5855TIP3    H117506   6.300   7.085   4.819
 5855TIP3    H217507   6.205   6.981   4.875
 5856TIP3   OH217508   7.443   4.557   5.716
 5856TIP3    H117509   7.483   4.614   5.782
 5856TIP3    H217510   7.506   4.485   5.707
 5857TIP3   OH217511   0.480   5.513   5.594
 5857TIP3    H117512   0.549   5.463   5.550
 5857TIP3    H217513   0.398   5.471   5.567
 5858TIP3   OH217514   4.175   6.930   2.320
 5858TIP3    H117515   4.232   6.937   2.396
 5858TIP3    H217516   4.235   6.924   2.245
 5859TIP3   OH217517   1.914   3.649   6.544
 5859TIP3    H117518   1.826   3.646   6.505
 5859TIP3    H217519   1.970   3.605   6.480
 5860TIP3   OH217520   2.049   0.130   3.641
 5860TIP3    H117521   1.958   0.160   3.636
 5860TIP3    H217522   2.044   0.049   3.693
 5861TIP3   OH217523   3.999   5.841   5.189
 5861TIP3    H117524   3.967   5.758   5.152
 5861TIP3    H217525   3.941   5.907   5.151
 5862TIP3   OH217526   6.102   0.516   1.193
 5862TIP3    H117527   6.186   0.472   1.180
 5862TIP3    H217528   6.067   0.477   1.273
 5863TIP3   OH217529   7.805   1.010   4.659
 5863TIP3    H117530   7.726   1.018   4.605
 5863TIP3    H217531   7.826   1.100   4.683
 5864TIP3   OH217532   7.741   7.047   0.871
 5864TIP3    H117533   7.723   7.137   0.844
 5864TIP3    H217534   7.800   7.014   0.803
 5865TIP3   OH217535   3.560   2.972   0.591
 5865TIP3    H117536   3.564   2.912   0.517
 5865TIP3    H217537   3.468   3.002   0.593
 5866TIP3   OH217538   1.467   3.231   5.412
 5866TIP3    H117539   1.532   3.164   5.392
 5866TIP3    H217540   1.383   3.190   5.393
 5867TIP3   OH217541   8.276   6.902   3.276
 5867TIP3    H117542   8.226   6.982   3.295
 5867TIP3    H217543   8.257   6.844   3.350
 5868TIP3   OH217544   0.021   6.431   5.572
 5868TIP3    H117545  -0.059   6.476   5.545
 5868TIP3    H217546   0.051   6.386   5.493
 5869TIP3   OH217547   5.183   0.569   1.667
 5869TIP3    H117548   5.217   0.550   1.579
 5869TIP3    H217549   5.102   0.517   1.672
 5870TIP3   OH217550   5.385   0.599   4.898
 5870TIP3    H117551   5.371   0.506   4.882
 5870TIP3    H217552   5.307   0.627   4.946
 5871TIP3   OH217553   3.030   0.962   3.582
 5871TIP3    H117554   3.065   0.949   3.670
 5871TIP3    H217555   2.949   0.911   3.581
 5872TIP3   OH217556   8.044   4.424   0.894
 5872TIP3    H117557   7.973   4.359   0.900
 5872TIP3    H217558   8.071   4.438   0.984
 5873TIP3   OH217559   5.408   0.285   0.706
 5873TIP3    H117560   5.416   0.195   0.737
 5873TIP3    H217561   5.343   0.281   0.636
 5874TIP3   OH217562   1.683   2.611   6.674
 5874TIP3    H117563   1.606   2.626   6.731
 5874TIP3    H217564   1.657   2.537   6.619
 5875TIP3   OH217565   7.826   5.787   6.430
 5875TIP3    H117566   7.904   5.732   6.427
 5875TIP3    H217567   7.807   5.796   6.523
 5876TIP3   OH217568   5.003   2.453   0.008
 5876TIP3    H117569   5.035   2.527  -0.045
 5876TIP3    H217570   4.971   2.493   0.088
 5877TIP3   OH217571   0.554   4.843   1.006
 5877TIP3    H117572   0.505   4.903   1.062
 5877TIP3    H217573   0.519   4.756   1.026
 5878TIP3   OH217574   6.112   3.756   5.961
 5878TIP3    H117575   6.024   3.719   5.956
 5878TIP3    H217576   6.154   3.728   5.879
 5879TIP3   OH217577   0.748   7.747   2.074
 5879TIP3    H117578   0.727   7.696   1.996
 5879TIP3    H217579   0.832   7.712   2.104
 5880TIP3   OH217580   4.142   4.160   0.194
 5880TIP3    H117581   4.185   4.244   0.181
 5880TIP3    H217582   4.161   4.137   0.285
 5881TIP3   OH217583   4.897   0.234   1.201
 5881TIP3    H117584   4.934   0.316   1.232
 5881TIP3    H217585   4.803   0.242   1.218
 5882TIP3   OH217586   7.736   1.684   5.400
 5882TIP3    H117587   7.726   1.607   5.345
 5882TIP3    H217588   7.760   1.650   5.486
 5883TIP3   OH217589   7.663   2.817   5.327
 5883TIP3    H117590   7.723   2.823   5.401
 5883TIP3    H217591   7.686   2.735   5.284
 5884TIP3   OH217592   3.588   5.777   4.141
 5884TIP3    H117593   3.577   5.789   4.235
 5884TIP3    H217594   3.680   5.797   4.125
 5885TIP3   OH217595   2.411   0.391   5.674
 5885TIP3    H117596   2.477   0.416   5.738
 5885TIP3    H217597   2.439   0.433   5.593
 5886TIP3   OH217598   6.413   2.972   6.314
 5886TIP3    H117599   6.438   3.043   6.255
 5886TIP3    H217600   6.322   2.955   6.293
 5887TIP3   OH217601   7.873   2.698   1.593
 5887TIP3    H117602   7.867   2.652   1.676
 5887TIP3    H217603   7.859   2.630   1.527
 5888TIP3   OH217604   7.153   7.203   1.678
 5888TIP3    H117605   7.110   7.118   1.670
 5888TIP3    H217606   7.124   7.252   1.601
 5889TIP3   OH217607   7.373   7.439   5.397
 5889TIP3    H117608   7.295   7.476   5.355
 5889TIP3    H217609   7.342   7.406   5.481
 5890TIP3   OH217610   4.947   1.929   1.763
 5890TIP3    H117611   4.865   1.881   1.759
 5890TIP3    H217612   5.015   1.864   1.744
 5891TIP3   OH217613   0.070   7.084   2.411
 5891TIP3    H117614   0.040   6.999   2.380
 5891TIP3    H217615   0.062   7.079   2.507
 5892TIP3   OH217616   2.516   6.279   1.782
 5892TIP3    H117617   2.448   6.221   1.747
 5892TIP3    H217618   2.585   6.277   1.715
 5893TIP3   OH217619   1.955   4.029   2.215
 5893TIP3    H117620   1.940   3.950   2.267
 5893TIP3    H217621   1.960   3.998   2.125
 5894TIP3   OH217622   4.043   6.518   4.985
 5894TIP3    H117623   3.969   6.459   4.973
 5894TIP3    H217624   4.065   6.510   5.077
 5895TIP3   OH217625   8.319   0.667   3.357
 5895TIP3    H117626   8.343   0.695   3.269
 5895TIP3    H217627   8.325   0.572   3.354
 5896TIP3   OH217628   4.402   4.183   3.244
 5896TIP3    H117629   4.345   4.106   3.241
 5896TIP3    H217630   4.431   4.195   3.154
 5897TIP3   OH217631   0.528   5.448   2.301
 5897TIP3    H117632   0.509   5.538   2.276
 5897TIP3    H217633   0.504   5.444   2.394
 5898TIP3   OH217634   1.195   3.376   3.321
 5898TIP3    H117635   1.111   3.332   3.306
 5898TIP3    H217636   1.171   3.460   3.360
 5899TIP3   OH217637   1.412   1.494   0.690
 5899TIP3    H117638   1.490   1.460   0.735
 5899TIP3    H217639   1.340   1.472   0.748
 5900TIP3   OH217640   6.430   2.000   6.615
 5900TIP3    H117641   6.341   1.966   6.620
 5900TIP3    H217642   6.481   1.928   6.578
 5901TIP3   OH217643   8.073   3.297   2.292
 5901TIP3    H117644   8.058   3.326   2.202
 5901TIP3    H217645   7.989   3.311   2.336
 5902TIP3   OH217646   0.277   7.470   3.106
 5902TIP3    H117647   0.322   7.386   3.095
 5902TIP3    H217648   0.298   7.497   3.195
 5903TIP3   OH217649   6.105   5.589   4.445
 5903TIP3    H117650   6.076   5.672   4.407
 5903TIP3    H217651   6.201   5.595   4.446
 5904TIP3   OH217652   5.582   2.969   0.784
 5904TIP3    H117653   5.570   3.057   0.748
 5904TIP3    H217654   5.560   2.910   0.713
 5905TIP3   OH217655   8.013   0.340   2.858
 5905TIP3    H117656   8.040   0.413   2.913
 5905TIP3    H217657   8.091   0.320   2.805
 5906TIP3   OH217658   6.208   2.618   4.557
 5906TIP3    H117659   6.195   2.710   4.536
 5906TIP3    H217660   6.233   2.578   4.473
 5907TIP3   OH217661   4.734   0.659   4.792
 5907TIP3    H117662   4.810   0.601   4.794
 5907TIP3    H217663   4.677   0.627   4.862
 5908TIP3   OH217664   0.856   2.870   6.441
 5908TIP3    H117665   0.855   2.799   6.376
 5908TIP3    H217666   0.764   2.898   6.446
 5909TIP3   OH217667   8.142   7.213   2.482
 5909TIP3    H117668   8.085   7.267   2.537
 5909TIP3    H217669   8.200   7.168   2.544
 5910TIP3   OH217670   6.722   2.420   1.244
 5910TIP3    H117671   6.779   2.457   1.311
 5910TIP3    H217672   6.757   2.333   1.228
 5911TIP3   OH217673   6.275   5.403   3.790
 5911TIP3    H117674   6.300   5.486   3.831
 5911TIP3    H217675   6.328   5.399   3.710
 5912TIP3   OH217676   5.067   5.183   3.592
 5912TIP3    H117677   4.972   5.172   3.594
 5912TIP3    H217678   5.087   5.228   3.673
 5913TIP3   OH217679   2.241   7.352   6.273
 5913TIP3    H117680   2.216   7.313   6.189
 5913TIP3    H217681   2.312   7.413   6.250
 5914TIP3   OH217682   5.492   2.630   0.774
 5914TIP3    H117683   5.585   2.650   0.760
 5914TIP3    H217684   5.490   2.586   0.859
 5915TIP3   OH217685   7.646   0.458   3.921
 5915TIP3    H117686   7.651   0.374   3.875
 5915TIP3    H217687   7.676   0.523   3.857
 5916TIP3   OH217688   1.520   2.597   1.750
 5916TIP3    H117689   1.581   2.660   1.711
 5916TIP3    H217690   1.436   2.617   1.710
 5917TIP3   OH217691   7.314   4.618   0.915
 5917TIP3    H117692   7.289   4.689   0.974
 5917TIP3    H217693   7.231   4.575   0.893
 5918TIP3   OH217694   7.907   1.245   3.071
 5918TIP3    H117695   7.967   1.241   2.996
 5918TIP3    H217696   7.911   1.337   3.100
 5919TIP3   OH217697   1.280   5.648   3.220
 5919TIP3    H117698   1.352   5.616   3.274
 5919TIP3    H217699   1.202   5.609   3.259
 5920TIP3   OH217700   7.986   1.971   5.454
 5920TIP3    H117701   8.004   1.908   5.384
 5920TIP3    H217702   8.052   2.039   5.443
 5921TIP3   OH217703   0.332   2.044   6.343
 5921TIP3    H117704   0.339   2.047   6.248
 5921TIP3    H217705   0.396   1.978   6.370
 5922TIP3   OH217706   7.967   7.778   5.755
 5922TIP3    H117707   8.005   7.846   5.699
 5922TIP3    H217708   7.937   7.711   5.694
 5923TIP3   OH217709   1.604   3.545  -0.011
 5923TIP3    H117710   1.620   3.462   0.036
 5923TIP3    H217711   1.530   3.585   0.035
 5924TIP3   OH217712   5.872   4.758   1.174
 5924TIP3    H117713   5.939   4.763   1.106
 5924TIP3    H217714   5.806   4.822   1.147
 5925TIP3   OH217715   0.953   2.929   2.185
 5925TIP3    H117716   0.868   2.961   2.215
 5925TIP3    H217717   0.951   2.940   2.090
 5926TIP3   OH217718   0.598   2.091   5.597
 5926TIP3    H117719   0.651   2.021   5.558
 5926TIP3    H217720   0.623   2.170   5.547
 5927TIP3   OH217721   6.347   7.811   0.724
 5927TIP3    H117722   6.346   7.821   0.819
 5927TIP3    H217723   6.438   7.827   0.699
 5928TIP3   OH217724   6.792   3.213   0.401
 5928TIP3    H117725   6.876   3.246   0.432
 5928TIP3    H217726   6.742   3.292   0.379
 5929TIP3   OH217727   1.755   0.900   5.045
 5929TIP3    H117728   1.660   0.908   5.040
 5929TIP3    H217729   1.788   0.980   5.005
 5930TIP3   OH217730   4.144   2.308   6.707
 5930TIP3    H117731   4.122   2.215   6.698
 5930TIP3    H217732   4.239   2.311   6.701
 5931TIP3   OH217733   7.047   2.483   2.034
 5931TIP3    H117734   7.091   2.566   2.051
 5931TIP3    H217735   6.957   2.507   2.014
 5932TIP3   OH217736   5.994   4.429   1.625
 5932TIP3    H117737   5.917   4.438   1.681
 5932TIP3    H217738   6.057   4.380   1.678
 5933TIP3   OH217739   6.415   6.792   1.231
 5933TIP3    H117740   6.415   6.749   1.146
 5933TIP3    H217741   6.345   6.857   1.224
 5934TIP3   OH217742   6.024   2.072   3.162
 5934TIP3    H117743   6.082   2.054   3.088
 5934TIP3    H217744   5.983   1.988   3.181
 5935TIP3   OH217745   0.247   4.717   5.358
 5935TIP3    H117746   0.185   4.719   5.430
 5935TIP3    H217747   0.262   4.624   5.341
 5936TIP3   OH217748   6.424   3.119   3.659
 5936TIP3    H117749   6.427   3.088   3.750
 5936TIP3    H217750   6.386   3.046   3.610
 5937TIP3   OH217751   3.129   6.558   1.358
 5937TIP3    H117752   3.206   6.589   1.310
 5937TIP3    H217753   3.145   6.464   1.371
 5938TIP3   OH217754   3.682   3.147   6.018
 5938TIP3    H117755   3.617   3.103   5.964
 5938TIP3    H217756   3.631   3.199   6.080
 5939TIP3   OH217757   8.342   3.854   5.081
 5939TIP3    H117758   8.301   3.888   5.161
 5939TIP3    H217759   8.407   3.792   5.112
 5940TIP3   OH217760   3.361   4.277   0.376
 5940TIP3    H117761   3.385   4.282   0.283
 5940TIP3    H217762   3.267   4.255   0.375
 5941TIP3   OH217763   5.698   1.443   1.928
 5941TIP3    H117764   5.787   1.451   1.963
 5941TIP3    H217765   5.706   1.384   1.853
 5942TIP3   OH217766   8.034   5.200   6.738
 5942TIP3    H117767   7.990   5.270   6.786
 5942TIP3    H217768   7.988   5.121   6.764
 5943TIP3   OH217769   2.716   1.288   5.724
 5943TIP3    H117770   2.673   1.223   5.780
 5943TIP3    H217771   2.786   1.240   5.681
 5944TIP3   OH217772   1.698   1.997   1.445
 5944TIP3    H117773   1.693   1.975   1.352
 5944TIP3    H217774   1.739   2.083   1.447
 5945TIP3   OH217775   4.952   0.902   1.479
 5945TIP3    H117776   4.887   0.832   1.494
 5945TIP3    H217777   4.922   0.974   1.534
 5946TIP3   OH217778   4.298   0.907   6.384
 5946TIP3    H117779   4.210   0.942   6.369
 5946TIP3    H217780   4.355   0.983   6.375
 5947TIP3   OH217781   6.697   2.134   4.872
 5947TIP3    H117782   6.731   2.146   4.961
 5947TIP3    H217783   6.713   2.042   4.853
 5948TIP3   OH217784   6.294   7.773   6.328
 5948TIP3    H117785   6.272   7.767   6.421
 5948TIP3    H217786   6.336   7.690   6.307
 5949TIP3   OH217787   5.637   3.890   4.964
 5949TIP3    H117788   5.563   3.858   4.913
 5949TIP3    H217789   5.602   3.903   5.052
 5950TIP3   OH217790   1.868   6.596   5.930
 5950TIP3    H117791   1.935   6.659   5.903
 5950TIP3    H217792   1.786   6.632   5.898
 5951TIP3   OH217793   8.411   3.967   6.453
 5951TIP3    H117794   8.317   3.949   6.442
 5951TIP3    H217795   8.444   3.976   6.364
 5952TIP3   OH217796   8.417   6.326   6.666
 5952TIP3    H117797   8.339   6.320   6.721
 5952TIP3    H217798   8.388   6.371   6.587
 5953TIP3   OH217799   2.865   3.030   1.878
 5953TIP3    H117800   2.776   3.060   1.857
 5953TIP3    H217801   2.860   2.935   1.875
 5954TIP3   OH217802   0.876   7.700   4.741
 5954TIP3    H117803   0.933   7.720   4.815
 5954TIP3    H217804   0.864   7.605   4.745
 5955TIP3   OH217805   7.000   1.775   4.960
 5955TIP3    H117806   6.934   1.750   5.024
 5955TIP3    H217807   7.040   1.693   4.932
 5956TIP3   OH217808   7.556   2.720   4.662
 5956TIP3    H117809   7.565   2.633   4.623
 5956TIP3    H217810   7.640   2.736   4.705
 5957TIP3   OH217811   2.346   2.045   0.573
 5957TIP3    H117812   2.380   2.117   0.520
 5957TIP3    H217813   2.279   2.085   0.628
 5958TIP3   OH217814   4.665   3.478   1.435
 5958TIP3    H117815   4.703   3.412   1.493
 5958TIP3    H217816   4.673   3.439   1.347
 5959TIP3   OH217817   1.066   0.986   6.508
 5959TIP3    H117818   1.094   1.062   6.457
 5959TIP3    H217819   1.137   0.923   6.499
 5960TIP3   OH217820   5.594   4.959   2.822
 5960TIP3    H117821   5.571   4.939   2.731
 5960TIP3    H217822   5.681   4.921   2.834
 5961TIP3   OH217823   0.839   6.844   3.066
 5961TIP3    H117824   0.837   6.868   3.158
 5961TIP3    H217825   0.854   6.750   3.065
 5962TIP3   OH217826   7.273   3.055   4.480
 5962TIP3    H117827   7.191   3.090   4.515
 5962TIP3    H217828   7.337   3.068   4.550
 5963TIP3   OH217829   3.051   0.828   2.049
 5963TIP3    H117830   3.141   0.847   2.021
 5963TIP3    H217831   3.050   0.734   2.065
 5964TIP3   OH217832   0.746   6.643   2.237
 5964TIP3    H117833   0.691   6.565   2.242
 5964TIP3    H217834   0.750   6.674   2.327
 5965TIP3   OH217835   2.378   2.023   4.200
 5965TIP3    H117836   2.303   1.975   4.166
 5965TIP3    H217837   2.369   2.111   4.165
 5966TIP3   OH217838   8.050   5.341   0.785
 5966TIP3    H117839   8.024   5.353   0.694
 5966TIP3    H217840   7.990   5.397   0.834
 5967TIP3   OH217841   0.091   3.432   3.316
 5967TIP3    H117842  -0.002   3.451   3.306
 5967TIP3    H217843   0.133   3.518   3.312
 5968TIP3   OH217844   4.354   5.695   1.703
 5968TIP3    H117845   4.436   5.742   1.721
 5968TIP3    H217846   4.288   5.739   1.757
 5969TIP3   OH217847   5.819   5.962   5.999
 5969TIP3    H117848   5.896   5.905   6.004
 5969TIP3    H217849   5.769   5.942   6.078
 5970TIP3   OH217850   2.318   6.562   0.860
 5970TIP3    H117851   2.353   6.572   0.771
 5970TIP3    H217852   2.372   6.494   0.900
 5971TIP3   OH217853   4.932   0.425   1.615
 5971TIP3    H117854   4.889   0.407   1.698
 5971TIP3    H217855   4.895   0.360   1.555
 5972TIP3   OH217856   3.278   5.511   4.262
 5972TIP3    H117857   3.349   5.500   4.326
 5972TIP3    H217858   3.218   5.439   4.281
 5973TIP3   OH217859   2.889   5.485   4.193
 5973TIP3    H117860   2.935   5.405   4.166
 5973TIP3    H217861   2.953   5.532   4.246
 5974TIP3   OH217862   3.339   6.914   1.392
 5974TIP3    H117863   3.272   6.902   1.459
 5974TIP3    H217864   3.352   7.008   1.388
 5975TIP3   OH217865   6.360   7.128   4.656
 5975TIP3    H117866   6.330   7.192   4.592
 5975TIP3    H217867   6.350   7.043   4.613
 5976TIP3   OH217868   2.664   7.468   2.842
 5976TIP3    H117869   2.581   7.515   2.830
 5976TIP3    H217870   2.662   7.397   2.778
 5977TIP3   OH217871   2.214   0.043   2.168
 5977TIP3    H117872   2.234  -0.010   2.091
 5977TIP3    H217873   2.249  -0.008   2.242
 5978TIP3   OH217874   6.995   6.972   4.055
 5978TIP3    H117875   7.041   6.934   4.130
 5978TIP3    H217876   7.062   7.021   4.007
 5979TIP3   OH217877   1.285   7.567   3.547
 5979TIP3    H117878   1.197   7.541   3.574
 5979TIP3    H217879   1.270   7.635   3.481
 5980TIP3   OH217880   5.252   6.924   6.599
 5980TIP3    H117881   5.302   6.993   6.642
 5980TIP3    H217882   5.196   6.970   6.537
 5981TIP3   OH217883   7.998   7.084   5.827
 5981TIP3    H117884   7.928   7.150   5.820
 5981TIP3    H217885   8.009   7.052   5.738
 5982TIP3   OH217886   2.734   7.436   6.784
 5982TIP3    H117887   2.732   7.485   6.865
 5982TIP3    H217888   2.652   7.458   6.740
 5983TIP3   OH217889   3.790   6.958   4.157
 5983TIP3    H117890   3.702   6.963   4.119
 5983TIP3    H217891   3.783   7.002   4.241
 5984TIP3   OH217892   7.888   5.560   4.344
 5984TIP3    H117893   7.969   5.510   4.333
 5984TIP3    H217894   7.818   5.497   4.326
 5985TIP3   OH217895   6.767   4.282   6.424
 5985TIP3    H117896   6.747   4.202   6.472
 5985TIP3    H217897   6.824   4.254   6.352
 5986TIP3   OH217898   4.381   5.476   2.298
 5986TIP3    H117899   4.369   5.390   2.260
 5986TIP3    H217900   4.432   5.525   2.234
 5987TIP3   OH217901   6.542   6.410   2.169
 5987TIP3    H117902   6.546   6.338   2.107
 5987TIP3    H217903   6.517   6.368   2.252
 5988TIP3   OH217904   1.660   2.349   6.247
 5988TIP3    H117905   1.634   2.394   6.166
 5988TIP3    H217906   1.587   2.365   6.307
 5989TIP3   OH217907   2.093   2.407   5.601
 5989TIP3    H117908   2.039   2.366   5.535
 5989TIP3    H217909   2.068   2.363   5.683
 5990TIP3   OH217910   2.217   6.478   3.104
 5990TIP3    H117911   2.260   6.558   3.134
 5990TIP3    H217912   2.175   6.443   3.183
 5991TIP3   OH217913   6.267   0.393   3.104
 5991TIP3    H117914   6.357   0.401   3.137
 5991TIP3    H217915   6.243   0.302   3.121
 5992TIP3   OH217916   0.319   2.220   6.592
 5992TIP3    H117917   0.324   2.289   6.526
 5992TIP3    H217918   0.342   2.140   6.544
 5993TIP3   OH217919   5.809   6.536   0.977
 5993TIP3    H117920   5.800   6.491   0.893
 5993TIP3    H217921   5.903   6.533   0.996
 5994TIP3   OH217922   6.121  -0.001   3.775
 5994TIP3    H117923   6.165   0.053   3.841
 5994TIP3    H217924   6.152   0.033   3.691
 5995TIP3   OH217925   8.319   5.377   3.657
 5995TIP3    H117926   8.248   5.385   3.594
 5995TIP3    H217927   8.391   5.426   3.618
 5996TIP3   OH217928   5.884   0.414   4.579
 5996TIP3    H117929   5.807   0.359   4.562
 5996TIP3    H217930   5.877   0.436   4.672
 5997TIP3   OH217931   5.495   4.813   1.338
 5997TIP3    H117932   5.565   4.875   1.358
 5997TIP3    H217933   5.487   4.760   1.418
 5998TIP3   OH217934   1.256   1.894   2.577
 5998TIP3    H117935   1.228   1.985   2.561
 5998TIP3    H217936   1.315   1.875   2.504
 5999TIP3   OH217937   6.735   7.888   1.398
 5999TIP3    H117938   6.661   7.833   1.424
 5999TIP3    H217939   6.781   7.906   1.480
 6000TIP3   OH217940   7.932   3.415   4.578
 6000TIP3    H117941   7.893   3.332   4.551
 6000TIP3    H217942   7.881   3.481   4.532
 6001TIP3   OH217943   2.723   4.229   1.979
 6001TIP3    H117944   2.684   4.315   1.997
 6001TIP3    H217945   2.757   4.200   2.063
 6002TIP3   OH217946   1.375   2.329   4.795
 6002TIP3    H117947   1.410   2.316   4.883
 6002TIP3    H217948   1.360   2.423   4.789
 6003TIP3   OH217949   3.075   6.516   2.704
 6003TIP3    H117950   3.124   6.583   2.656
 6003TIP3    H217951   3.081   6.541   2.796
 6004TIP3   OH217952   8.150   5.993   1.292
 6004TIP3    H117953   8.084   5.958   1.352
 6004TIP3    H217954   8.191   5.915   1.254
 6005TIP3   OH217955   0.510   2.943   3.360
 6005TIP3    H117956   0.416   2.934   3.376
 6005TIP3    H217957   0.549   2.866   3.401
 6006TIP3   OH217958   6.424   5.662   1.654
 6006TIP3    H117959   6.333   5.645   1.678
 6006TIP3    H217960   6.467   5.685   1.737
 6007TIP3   OH217961   5.512   5.206   6.439
 6007TIP3    H117962   5.578   5.275   6.449
 6007TIP3    H217963   5.470   5.226   6.355
 6008TIP3   OH217964   6.630   3.822   2.536
 6008TIP3    H117965   6.555   3.869   2.500
 6008TIP3    H217966   6.612   3.817   2.630
 6009TIP3   OH217967   3.241   5.426   1.745
 6009TIP3    H117968   3.170   5.392   1.691
 6009TIP3    H217969   3.256   5.357   1.811
 6010TIP3   OH217970   0.408   6.950   1.851
 6010TIP3    H117971   0.366   6.971   1.935
 6010TIP3    H217972   0.393   7.027   1.797
 6011TIP3   OH217973   4.630   5.748   1.421
 6011TIP3    H117974   4.554   5.798   1.392
 6011TIP3    H217975   4.691   5.813   1.456
 6012TIP3   OH217976   6.935   7.568   5.465
 6012TIP3    H117977   6.896   7.512   5.398
 6012TIP3    H217978   7.022   7.587   5.433
 6013TIP3   OH217979   6.390   7.734   1.285
 6013TIP3    H117980   6.445   7.673   1.236
 6013TIP3    H217981   6.303   7.724   1.246
 6014TIP3   OH217982   2.805   6.318   2.975
 6014TIP3    H117983   2.715   6.285   2.981
 6014TIP3    H217984   2.819   6.366   3.057
 6015TIP3   OH217985   1.390   3.110   1.797
 6015TIP3    H117986   1.309   3.059   1.792
 6015TIP3    H217987   1.361   3.201   1.806
 6016TIP3   OH217988   3.772   7.452   5.749
 6016TIP3    H117989   3.774   7.449   5.654
 6016TIP3    H217990   3.829   7.526   5.772
 6017TIP3   OH217991   6.206   1.503   2.334
 6017TIP3    H117992   6.153   1.544   2.266
 6017TIP3    H217993   6.297   1.522   2.309
 6018TIP3   OH217994   3.161   4.242   1.476
 6018TIP3    H117995   3.252   4.257   1.447
 6018TIP3    H217996   3.158   4.149   1.498
 6019TIP3   OH217997   4.791   5.055   4.259
 6019TIP3    H117998   4.746   5.108   4.194
 6019TIP3    H217999   4.725   5.035   4.325
 6020TIP3   OH218000   2.935   3.583   0.402
 6020TIP3    H118001   2.968   3.652   0.459
 6020TIP3    H218002   2.995   3.584   0.327
 6021TIP3   OH218003   6.641   4.721   0.435
 6021TIP3    H118004   6.677   4.712   0.523
 6021TIP3    H218005   6.656   4.635   0.394
 6022TIP3   OH218006   0.203   3.464   2.641
 6022TIP3    H118007   0.191   3.436   2.732
 6022TIP3    H218008   0.287   3.424   2.615
 6023TIP3   OH218009   8.280   6.473   2.399
 6023TIP3    H118010   8.191   6.443   2.382
 6023TIP3    H218011   8.326   6.460   2.316
 6024TIP3   OH218012   0.651   7.043   0.433
 6024TIP3    H118013   0.558   7.027   0.451
 6024TIP3    H218014   0.689   6.955   0.422
 6025TIP3   OH218015   1.622   6.522   3.896
 6025TIP3    H118016   1.543   6.576   3.899
 6025TIP3    H218017   1.589   6.432   3.901
 6026TIP3   OH218018   3.344   2.345   0.742
 6026TIP3    H118019   3.364   2.254   0.723
 6026TIP3    H218020   3.277   2.342   0.810
 6027TIP3   OH218021   1.867   3.047   0.525
 6027TIP3    H118022   1.817   2.965   0.521
 6027TIP3    H218023   1.823   3.105   0.463
 6028TIP3   OH218024   6.718   3.569   5.581
 6028TIP3    H118025   6.750   3.485   5.615
 6028TIP3    H218026   6.778   3.589   5.509
 6029TIP3   OH218027   7.273   2.187   3.522
 6029TIP3    H118028   7.206   2.247   3.490
 6029TIP3    H218029   7.277   2.203   3.616
 6030TIP3   OH218030   1.152   0.465   1.489
 6030TIP3    H118031   1.127   0.443   1.399
 6030TIP3    H218032   1.232   0.517   1.479
 6031TIP3   OH218033   5.521   4.385   5.302
 6031TIP3    H118034   5.582   4.369   5.374
 6031TIP3    H218035   5.448   4.432   5.343
 6032TIP3   OH218036   7.010   0.925   2.643
 6032TIP3    H118037   7.040   0.837   2.665
 6032TIP3    H218038   7.051   0.981   2.709
 6033TIP3   OH218039   2.355   7.413   2.295
 6033TIP3    H118040   2.379   7.325   2.268
 6033TIP3    H218041   2.294   7.401   2.368
 6034TIP3   OH218042   0.428   3.579   0.802
 6034TIP3    H118043   0.466   3.495   0.829
 6034TIP3    H218044   0.420   3.629   0.884
 6035TIP3   OH218045   5.844   5.409   0.591
 6035TIP3    H118046   5.901   5.403   0.668
 6035TIP3    H218047   5.775   5.469   0.617
 6036TIP3   OH218048   6.009   2.652   3.865
 6036TIP3    H118049   6.091   2.699   3.881
 6036TIP3    H218050   6.031   2.589   3.796
 6037TIP3   OH218051   0.971   4.357   3.547
 6037TIP3    H118052   0.881   4.390   3.553
 6037TIP3    H218053   0.962   4.262   3.558
 6038TIP3   OH218054   4.925   4.463   3.379
 6038TIP3    H118055   4.914   4.370   3.361
 6038TIP3    H218056   4.843   4.503   3.348
 6039TIP3   OH218057   0.357   4.341   6.588
 6039TIP3    H118058   0.265   4.331   6.611
 6039TIP3    H218059   0.373   4.435   6.592
 6040TIP3   OH218060   1.974   3.843   5.432
 6040TIP3    H118061   1.992   3.799   5.349
 6040TIP3    H218062   1.911   3.786   5.477
 6041TIP3   OH218063   4.024   1.520   2.692
 6041TIP3    H118064   3.943   1.526   2.743
 6041TIP3    H218065   4.006   1.572   2.613
 6042TIP3   OH218066   1.902   6.289   1.311
 6042TIP3    H118067   1.812   6.266   1.337
 6042TIP3    H218068   1.892   6.364   1.253
 6043TIP3   OH218069   4.176   6.142   0.355
 6043TIP3    H118070   4.229   6.102   0.424
 6043TIP3    H218071   4.214   6.228   0.341
 6044TIP3   OH218072   0.843   6.335   0.101
 6044TIP3    H118073   0.831   6.265   0.037
 6044TIP3    H218074   0.918   6.385   0.067
 6045TIP3   OH218075   4.184   0.288   1.935
 6045TIP3    H118076   4.231   0.205   1.940
 6045TIP3    H218077   4.099   0.269   1.975
 6046TIP3   OH218078   2.862   1.926   5.720
 6046TIP3    H118079   2.901   1.864   5.781
 6046TIP3    H218080   2.907   2.008   5.737
 6047TIP3   OH218081   7.171   1.017   2.908
 6047TIP3    H118082   7.199   1.092   2.855
 6047TIP3    H218083   7.083   1.041   2.938
 6048TIP3   OH218084   0.439   0.515   6.554
 6048TIP3    H118085   0.524   0.549   6.581
 6048TIP3    H218086   0.457   0.468   6.473
 6049TIP3   OH218087   8.320   7.718   4.969
 6049TIP3    H118088   8.413   7.737   4.963
 6049TIP3    H218089   8.287   7.728   4.880
 6050TIP3   OH218090   0.776   7.899   2.538
 6050TIP3    H118091   0.830   7.820   2.536
 6050TIP3    H218092   0.687   7.866   2.550
 6051TIP3   OH218093   7.743   7.140   2.743
 6051TIP3    H118094   7.659   7.186   2.739
 6051TIP3    H218095   7.773   7.138   2.652
 6052TIP3   OH218096   1.794   4.228   4.575
 6052TIP3    H118097   1.879   4.199   4.542
 6052TIP3    H218098   1.798   4.324   4.571
 6053TIP3   OH218099   0.634   2.760   4.651
 6053TIP3    H118100   0.544   2.762   4.620
 6053TIP3    H218101   0.656   2.853   4.666
 6054TIP3   OH218102   7.034   7.474   2.718
 6054TIP3    H118103   7.122   7.501   2.746
 6054TIP3    H218104   6.989   7.555   2.697
 6055TIP3   OH218105   5.622   4.040   0.904
 6055TIP3    H118106   5.713   4.071   0.909
 6055TIP3    H218107   5.585   4.087   0.830
 6056TIP3   OH218108   4.205   7.799   1.359
 6056TIP3    H118109   4.188   7.775   1.450
 6056TIP3    H218110   4.122   7.834   1.327
 6057TIP3   OH218111   0.546   2.747   5.992
 6057TIP3    H118112   0.534   2.661   5.952
 6057TIP3    H218113   0.641   2.754   6.005
 6058TIP3   OH218114   4.793   4.208   1.197
 6058TIP3    H118115   4.805   4.127   1.246
 6058TIP3    H218116   4.780   4.275   1.264
 6059TIP3   OH218117   2.189   0.339   3.738
 6059TIP3    H118118   2.273   0.364   3.699
 6059TIP3    H218119   2.183   0.245   3.724
 6060TIP3   OH218120   4.949   1.395   1.137
 6060TIP3    H118121   4.993   1.396   1.222
 6060TIP3    H218122   5.001   1.453   1.082
 6061TIP3   OH218123   7.882   3.695   2.921
 6061TIP3    H118124   7.926   3.720   2.840
 6061TIP3    H218125   7.797   3.660   2.893
 6062TIP3   OH218126   6.779   5.020   1.830
 6062TIP3    H118127   6.817   4.945   1.784
 6062TIP3    H218128   6.688   4.995   1.846
 6063TIP3   OH218129   6.648   3.815   1.579
 6063TIP3    H118130   6.685   3.810   1.667
 6063TIP3    H218131   6.693   3.747   1.530
 6064TIP3   OH218132   1.289   5.952   2.514
 6064TIP3    H118133   1.226   5.961   2.585
 6064TIP3    H218134   1.343   5.876   2.539
 6065TIP3   OH218135   7.759   6.491   3.135
 6065TIP3    H118136   7.772   6.582   3.109
 6065TIP3    H218137   7.693   6.458   3.074
 6066TIP3   OH218138   1.426   3.917   6.707
 6066TIP3    H118139   1.520   3.934   6.708
 6066TIP3    H218140   1.408   3.875   6.791
 6067TIP3   OH218141   4.860   2.806   1.686
 6067TIP3    H118142   4.866   2.748   1.610
 6067TIP3    H218143   4.945   2.850   1.689
 6068TIP3   OH218144   7.726   3.732   3.536
 6068TIP3    H118145   7.679   3.809   3.568
 6068TIP3    H218146   7.678   3.707   3.456
 6069TIP3   OH218147   3.511   3.147   5.366
 6069TIP3    H118148   3.572   3.077   5.344
 6069TIP3    H218149   3.567   3.223   5.383
 6070TIP3   OH218150   3.469   0.232   0.189
 6070TIP3    H118151   3.526   0.306   0.166
 6070TIP3    H218152   3.494   0.163   0.127
 6071TIP3   OH218153   5.060   7.439   1.741
 6071TIP3    H118154   5.068   7.533   1.723
 6071TIP3    H218155   5.031   7.435   1.833
 6072TIP3   OH218156   6.780   5.731   3.739
 6072TIP3    H118157   6.689   5.706   3.728
 6072TIP3    H218158   6.776   5.811   3.793
 6073TIP3   OH218159   2.358   1.641   3.388
 6073TIP3    H118160   2.326   1.698   3.318
 6073TIP3    H218161   2.441   1.607   3.356
 6074TIP3   OH218162   7.028   2.703   0.574
 6074TIP3    H118163   7.072   2.761   0.635
 6074TIP3    H218164   7.075   2.620   0.582
 6075TIP3   OH218165   5.071   0.668   6.870
 6075TIP3    H118166   5.083   0.657   6.776
 6075TIP3    H218167   5.024   0.751   6.879
 6076TIP3   OH218168   7.830   1.748   4.602
 6076TIP3    H118169   7.846   1.788   4.516
 6076TIP3    H218170   7.744   1.708   4.594
 6077TIP3   OH218171   2.177   5.762   1.288
 6077TIP3    H118172   2.238   5.802   1.225
 6077TIP3    H218173   2.110   5.829   1.302
 6078TIP3   OH218174   4.395   7.786   0.354
 6078TIP3    H118175   4.451   7.779   0.276
 6078TIP3    H218176   4.436   7.855   0.407
 6079TIP3   OH218177   5.924   1.354   0.682
 6079TIP3    H118178   6.015   1.385   0.687
 6079TIP3    H218179   5.901   1.360   0.590
 6080TIP3   OH218180   7.765   6.669   4.708
 6080TIP3    H118181   7.817   6.707   4.638
 6080TIP3    H218182   7.705   6.609   4.664
 6081TIP3   OH218183   5.935   7.084   4.520
 6081TIP3    H118184   5.846   7.091   4.554
 6081TIP3    H218185   5.980   7.161   4.555
 6082TIP3   OH218186   8.111   2.722   0.327
 6082TIP3    H118187   8.053   2.707   0.402
 6082TIP3    H218188   8.156   2.804   0.347
 6083TIP3   OH218189   3.837   5.070   2.114
 6083TIP3    H118190   3.754   5.025   2.105
 6083TIP3    H218191   3.818   5.161   2.090
 6084TIP3   OH218192   0.195   5.640   3.638
 6084TIP3    H118193   0.252   5.646   3.715
 6084TIP3    H218194   0.124   5.702   3.656
 6085TIP3   OH218195   2.153   2.404   1.634
 6085TIP3    H118196   2.235   2.450   1.653
 6085TIP3    H218197   2.111   2.457   1.566
 6086TIP3   OH218198   7.909   4.178   6.709
 6086TIP3    H118199   7.851   4.215   6.643
 6086TIP3    H218200   7.896   4.083   6.702
 6087TIP3   OH218201   3.202   3.229   2.158
 6087TIP3    H118202   3.277   3.270   2.203
 6087TIP3    H218203   3.241   3.160   2.105
 6088TIP3   OH218204   5.016   7.154   2.821
 6088TIP3    H118205   4.960   7.097   2.769
 6088TIP3    H218206   4.981   7.147   2.910
 6089TIP3   OH218207   1.652   3.355   0.212
 6089TIP3    H118208   1.568   3.350   0.257
 6089TIP3    H218209   1.707   3.409   0.269
 6090TIP3   OH218210   7.837   2.451   0.373
 6090TIP3    H118211   7.762   2.488   0.418
 6090TIP3    H218212   7.810   2.362   0.350
 6091TIP3   OH218213   4.830   0.851   4.324
 6091TIP3    H118214   4.804   0.939   4.354
 6091TIP3    H218215   4.802   0.793   4.394
 6092TIP3   OH218216   6.648   3.559   6.094
 6092TIP3    H118217   6.740   3.548   6.117
 6092TIP3    H218218   6.645   3.544   5.999
 6093TIP3   OH218219   3.603   1.810   0.235
 6093TIP3    H118220   3.516   1.825   0.198
 6093TIP3    H218221   3.587   1.758   0.313
 6094TIP3   OH218222   1.268   0.306   3.796
 6094TIP3    H118223   1.208   0.278   3.864
 6094TIP3    H218224   1.304   0.389   3.827
 6095TIP3   OH218225   0.420   2.183   0.748
 6095TIP3    H118226   0.402   2.193   0.842
 6095TIP3    H218227   0.514   2.198   0.740
 6096TIP3   OH218228   7.083   3.257   2.796
 6096TIP3    H118229   7.113   3.344   2.769
 6096TIP3    H218230   7.035   3.272   2.877
 6097TIP3   OH218231   1.555   0.659   4.082
 6097TIP3    H118232   1.480   0.599   4.092
 6097TIP3    H218233   1.515   0.744   4.066
 6098TIP3   OH218234   0.430   7.410   3.557
 6098TIP3    H118235   0.423   7.360   3.639
 6098TIP3    H218236   0.376   7.488   3.572
 6099TIP3   OH218237   0.044   0.357   5.018
 6099TIP3    H118238   0.031   0.305   4.938
 6099TIP3    H218239  -0.026   0.421   5.016
 6100TIP3   OH218240   6.387   1.211   3.280
 6100TIP3    H118241   6.311   1.198   3.223
 6100TIP3    H218242   6.351   1.209   3.369
 6101TIP3   OH218243   4.788   5.172   4.906
 6101TIP3    H118244   4.857   5.145   4.967
 6101TIP3    H218245   4.716   5.111   4.922
 6102TIP3   OH218246   6.655   5.934   4.110
 6102TIP3    H118247   6.657   5.950   4.015
 6102TIP3    H218248   6.572   5.973   4.139
 6103TIP3   OH218249   4.640   2.209   1.787
 6103TIP3    H118250   4.663   2.222   1.879
 6103TIP3    H218251   4.547   2.229   1.782
 6104TIP3   OH218252   0.928   6.119   1.909
 6104TIP3    H118253   0.893   6.110   1.998
 6104TIP3    H218254   0.933   6.029   1.876
 6105TIP3   OH218255   4.412   4.601   4.968
 6105TIP3    H118256   4.387   4.536   5.034
 6105TIP3    H218257   4.440   4.677   5.018
 6106TIP3   OH218258   1.769   7.731   6.669
 6106TIP3    H118259   1.706   7.787   6.715
 6106TIP3    H218260   1.827   7.792   6.624
 6107TIP3   OH218261   5.702   7.657   1.655
 6107TIP3    H118262   5.763   7.629   1.587
 6107TIP3    H218263   5.682   7.578   1.704
 6108TIP3   OH218264   4.391   1.909   5.466
 6108TIP3    H118265   4.329   1.849   5.424
 6108TIP3    H218266   4.475   1.889   5.425
 6109TIP3   OH218267   1.544   2.003   6.677
 6109TIP3    H118268   1.528   2.042   6.592
 6109TIP3    H218269   1.472   1.940   6.689
 6110TIP3   OH218270   1.034   0.327   0.922
 6110TIP3    H118271   1.120   0.358   0.894
 6110TIP3    H218272   1.032   0.235   0.897
 6111TIP3   OH218273   1.258   4.911   3.623
 6111TIP3    H118274   1.315   4.836   3.605
 6111TIP3    H218275   1.230   4.941   3.537
 6112TIP3   OH218276   3.679   3.161   3.823
 6112TIP3    H118277   3.714   3.135   3.909
 6112TIP3    H218278   3.720   3.099   3.762
 6113TIP3   OH218279   3.810   0.559   5.332
 6113TIP3    H118280   3.768   0.584   5.250
 6113TIP3    H218281   3.817   0.641   5.381
 6114TIP3   OH218282   5.245   5.748   1.301
 6114TIP3    H118283   5.247   5.804   1.224
 6114TIP3    H218284   5.152   5.747   1.327
 6115TIP3   OH218285   7.848   0.160   0.228
 6115TIP3    H118286   7.870   0.234   0.172
 6115TIP3    H218287   7.911   0.164   0.300
 6116TIP3   OH218288   4.650   1.821   4.371
 6116TIP3    H118289   4.741   1.822   4.341
 6116TIP3    H218290   4.599   1.852   4.297
 6117TIP3   OH218291   3.524   1.841   0.648
 6117TIP3    H118292   3.466   1.812   0.718
 6117TIP3    H218293   3.543   1.762   0.598
 6118TIP3   OH218294   1.379   3.895   2.002
 6118TIP3    H118295   1.461   3.846   2.010
 6118TIP3    H218296   1.312   3.829   1.987
 6119TIP3   OH218297   2.925   1.723   6.380
 6119TIP3    H118298   2.985   1.676   6.437
 6119TIP3    H218299   2.846   1.734   6.432
 6120TIP3   OH218300   4.393   6.626   1.393
 6120TIP3    H118301   4.414   6.559   1.327
 6120TIP3    H218302   4.405   6.709   1.347
 6121TIP3   OH218303  -0.021   0.693   0.569
 6121TIP3    H118304  -0.002   0.787   0.563
 6121TIP3    H218305   0.051   0.652   0.521
 6122TIP3   OH218306   8.082   2.182   5.139
 6122TIP3    H118307   8.146   2.190   5.068
 6122TIP3    H218308   8.069   2.088   5.149
 6123TIP3   OH218309   0.151   4.642   3.687
 6123TIP3    H118310   0.141   4.732   3.657
 6123TIP3    H218311   0.216   4.648   3.758
 6124TIP3   OH218312   5.993   7.001   1.845
 6124TIP3    H118313   5.967   6.988   1.754
 6124TIP3    H218314   6.085   7.028   1.840
 6125TIP3   OH218315   5.311   4.274   5.538
 6125TIP3    H118316   5.287   4.365   5.519
 6125TIP3    H218317   5.347   4.276   5.627
 6126TIP3   OH218318   2.716   4.658   2.288
 6126TIP3    H118319   2.809   4.664   2.267
 6126TIP3    H218320   2.672   4.672   2.204
 6127TIP3   OH218321   0.951   1.598   0.848
 6127TIP3    H118322   1.020   1.631   0.791
 6127TIP3    H218323   0.874   1.651   0.825
 6128TIP3   OH218324   7.228   4.739   2.254
 6128TIP3    H118325   7.283   4.788   2.194
 6128TIP3    H218326   7.252   4.770   2.341
 6129TIP3   OH218327   1.123   7.806   2.220
 6129TIP3    H118328   1.128   7.850   2.135
 6129TIP3    H218329   1.062   7.734   2.206
 6130TIP3   OH218330   1.718   5.398   1.194
 6130TIP3    H118331   1.653   5.346   1.147
 6130TIP3    H218332   1.666   5.448   1.258
 6131TIP3   OH218333   8.072   6.041   3.470
 6131TIP3    H118334   8.160   6.004   3.474
 6131TIP3    H218335   8.077   6.106   3.399
 6132TIP3   OH218336   0.162   6.222   0.008
 6132TIP3    H118337   0.211   6.168   0.070
 6132TIP3    H218338   0.224   6.238  -0.063
 6133TIP3   OH218339   0.870   6.431   2.012
 6133TIP3    H118340   0.935   6.380   2.060
 6133TIP3    H218341   0.788   6.385   2.026
 6134TIP3   OH218342   0.740   6.095   6.109
 6134TIP3    H118343   0.649   6.095   6.137
 6134TIP3    H218344   0.766   6.003   6.111
 6135TIP3   OH218345   6.130   7.828   2.700
 6135TIP3    H118346   6.200   7.879   2.659
 6135TIP3    H218347   6.137   7.742   2.660
 6136TIP3   OH218348   5.181   4.570   6.848
 6136TIP3    H118349   5.114   4.595   6.785
 6136TIP3    H218350   5.217   4.488   6.814
 6137TIP3   OH218351   4.748   6.844   0.680
 6137TIP3    H118352   4.724   6.920   0.734
 6137TIP3    H218353   4.773   6.882   0.596
 6138TIP3   OH218354   3.381   3.910   2.310
 6138TIP3    H118355   3.412   3.922   2.400
 6138TIP3    H218356   3.455   3.935   2.255
 6139TIP3   OH218357   4.423   6.721   5.543
 6139TIP3    H118358   4.377   6.659   5.600
 6139TIP3    H218359   4.515   6.712   5.568
 6140TIP3   OH218360   6.057   4.138   6.443
 6140TIP3    H118361   6.051   4.091   6.360
 6140TIP3    H218362   6.033   4.228   6.422
 6141TIP3   OH218363   2.156   7.663   2.521
 6141TIP3    H118364   2.174   7.573   2.550
 6141TIP3    H218365   2.167   7.660   2.426
 6142TIP3   OH218366   2.058   2.194   1.811
 6142TIP3    H118367   2.099   2.109   1.821
 6142TIP3    H218368   2.105   2.236   1.739
 6143TIP3   OH218369   6.584   5.578   0.446
 6143TIP3    H118370   6.644   5.537   0.509
 6143TIP3    H218371   6.507   5.521   0.445
 6144TIP3   OH218372   0.220   5.126   1.457
 6144TIP3    H118373   0.243   5.053   1.400
 6144TIP3    H218374   0.238   5.094   1.546
 6145TIP3   OH218375   5.992   6.965   1.547
 6145TIP3    H118376   5.973   6.877   1.515
 6145TIP3    H218377   6.087   6.972   1.545
 6146TIP3   OH218378   7.492   2.507   2.599
 6146TIP3    H118379   7.502   2.532   2.691
 6146TIP3    H218380   7.410   2.548   2.571
 6147TIP3   OH218381   1.751   1.809   6.036
 6147TIP3    H118382   1.666   1.768   6.020
 6147TIP3    H218383   1.815   1.748   5.999
 6148TIP3   OH218384   7.624   0.280   6.819
 6148TIP3    H118385   7.623   0.222   6.742
 6148TIP3    H218386   7.715   0.282   6.847
 6149TIP3   OH218387   7.282   4.841   1.616
 6149TIP3    H118388   7.324   4.927   1.610
 6149TIP3    H218389   7.190   4.861   1.630
 6150TIP3   OH218390   5.975   6.407   6.062
 6150TIP3    H118391   5.952   6.415   5.969
 6150TIP3    H218392   5.900   6.360   6.100
 6151TIP3   OH218393   4.155   1.052   3.386
 6151TIP3    H118394   4.070   1.012   3.367
 6151TIP3    H218395   4.175   1.103   3.308
 6152TIP3   OH218396   5.000   2.507   3.918
 6152TIP3    H118397   5.015   2.456   3.998
 6152TIP3    H218398   5.068   2.574   3.919
 6153TIP3   OH218399   4.800   7.521   3.291
 6153TIP3    H118400   4.817   7.587   3.358
 6153TIP3    H218401   4.886   7.479   3.277
 6154TIP3   OH218402   0.495   0.979   6.171
 6154TIP3    H118403   0.571   0.968   6.113
 6154TIP3    H218404   0.508   0.914   6.240
 6155TIP3   OH218405   0.409   5.594   5.284
 6155TIP3    H118406   0.494   5.551   5.298
 6155TIP3    H218407   0.348   5.545   5.339
 6156TIP3   OH218408   1.842   2.040   0.783
 6156TIP3    H118409   1.888   2.000   0.709
 6156TIP3    H218410   1.863   1.983   0.857
 6157TIP3   OH218411   8.317   2.980   5.617
 6157TIP3    H118412   8.242   2.946   5.666
 6157TIP3    H218413   8.334   2.913   5.550
 6158TIP3   OH218414   3.235   2.395   3.498
 6158TIP3    H118415   3.254   2.322   3.440
 6158TIP3    H218416   3.150   2.373   3.537
 6159TIP3   OH218417   4.939   4.629   1.953
 6159TIP3    H118418   4.844   4.623   1.960
 6159TIP3    H218419   4.954   4.720   1.925
 6160TIP3   OH218420   1.045   5.164   6.431
 6160TIP3    H118421   0.988   5.182   6.506
 6160TIP3    H218422   1.033   5.239   6.373
 6161TIP3   OH218423   3.799   0.301   5.186
 6161TIP3    H118424   3.821   0.363   5.255
 6161TIP3    H218425   3.881   0.289   5.137
 6162TIP3   OH218426   5.505   6.804   3.329
 6162TIP3    H118427   5.548   6.889   3.335
 6162TIP3    H218428   5.466   6.791   3.416
 6163TIP3   OH218429   5.268   6.299   0.187
 6163TIP3    H118430   5.192   6.293   0.130
 6163TIP3    H218431   5.256   6.230   0.252
 6164TIP3   OH218432   1.041   4.239   1.629
 6164TIP3    H118433   1.079   4.152   1.616
 6164TIP3    H218434   0.947   4.225   1.627
 6165TIP3   OH218435   3.488   1.486   1.404
 6165TIP3    H118436   3.409   1.529   1.372
 6165TIP3    H218437   3.459   1.435   1.480
 6166TIP3   OH218438   6.876   0.890   3.909
 6166TIP3    H118439   6.902   0.804   3.874
 6166TIP3    H218440   6.781   0.891   3.900
 6167TIP3   OH218441   7.559   4.538   3.612
 6167TIP3    H118442   7.592   4.560   3.525
 6167TIP3    H218443   7.577   4.617   3.665
 6168TIP3   OH218444   5.173   2.000   0.869
 6168TIP3    H118445   5.205   2.019   0.781
 6168TIP3    H218446   5.183   1.906   0.879
 6169TIP3   OH218447   3.869   3.760   5.411
 6169TIP3    H118448   3.888   3.796   5.497
 6169TIP3    H218449   3.904   3.671   5.414
 6170TIP3   OH218450   8.213   2.581   2.368
 6170TIP3    H118451   8.250   2.654   2.319
 6170TIP3    H218452   8.201   2.615   2.456
 6171TIP3   OH218453   4.816   2.428   2.931
 6171TIP3    H118454   4.800   2.501   2.991
 6171TIP3    H218455   4.887   2.458   2.875
 6172TIP3   OH218456   8.215   3.154   1.618
 6172TIP3    H118457   8.246   3.068   1.645
 6172TIP3    H218458   8.256   3.169   1.532
 6173TIP3   OH218459   6.031   0.517   4.224
 6173TIP3    H118460   6.103   0.460   4.251
 6173TIP3    H218461   6.050   0.601   4.266
 6174TIP3   OH218462   5.404   5.401   2.012
 6174TIP3    H118463   5.359   5.326   1.973
 6174TIP3    H218464   5.348   5.426   2.086
 6175TIP3   OH218465   4.442   0.964   1.282
 6175TIP3    H118466   4.396   1.013   1.350
 6175TIP3    H218467   4.473   0.884   1.327
 6176TIP3   OH218468   2.351   5.834   1.960
 6176TIP3    H118469   2.271   5.884   1.977
 6176TIP3    H218470   2.416   5.870   2.020
 6177TIP3   OH218471   6.832   1.327   5.407
 6177TIP3    H118472   6.894   1.399   5.393
 6177TIP3    H218473   6.784   1.353   5.486
 6178TIP3   OH218474   2.433   1.167   3.804
 6178TIP3    H118475   2.379   1.126   3.871
 6178TIP3    H218476   2.443   1.258   3.834
 6179TIP3   OH218477   3.484   3.168   6.216
 6179TIP3    H118478   3.557   3.136   6.269
 6179TIP3    H218479   3.423   3.206   6.279
 6180TIP3   OH218480   8.338   5.834   1.510
 6180TIP3    H118481   8.383   5.884   1.442
 6180TIP3    H218482   8.301   5.759   1.465
 6181TIP3   OH218483   1.991   3.129   4.332
 6181TIP3    H118484   1.922   3.079   4.376
 6181TIP3    H218485   1.990   3.095   4.242
 6182TIP3   OH218486   6.217   6.134   3.349
 6182TIP3    H118487   6.263   6.122   3.265
 6182TIP3    H218488   6.279   6.182   3.403
 6183TIP3   OH218489   6.792   6.056   0.361
 6183TIP3    H118490   6.799   6.145   0.394
 6183TIP3    H218491   6.858   6.007   0.410
 6184TIP3   OH218492   0.528   4.785   2.062
 6184TIP3    H118493   0.596   4.841   2.099
 6184TIP3    H218494   0.516   4.819   1.973
 6185TIP3   OH218495   6.778   2.336   6.244
 6185TIP3    H118496   6.708   2.340   6.180
 6185TIP3    H218497   6.740   2.292   6.320
 6186TIP3   OH218498   3.710   2.999   3.445
 6186TIP3    H118499   3.677   2.983   3.356
 6186TIP3    H218500   3.687   3.090   3.463
 6187TIP3   OH218501   7.813   6.358   5.793
 6187TIP3    H118502   7.894   6.378   5.745
 6187TIP3    H218503   7.750   6.423   5.761
 6188TIP3   OH218504   6.569   0.489   0.749
 6188TIP3    H118505   6.581   0.539   0.668
 6188TIP3    H218506   6.506   0.421   0.727
 6189TIP3   OH218507   1.978   5.267   5.432
 6189TIP3    H118508   1.884   5.259   5.413
 6189TIP3    H218509   1.982   5.323   5.509
 6190TIP3   OH218510   7.064   2.825   5.656
 6190TIP3    H118511   6.997   2.757   5.659
 6190TIP3    H218512   7.016   2.907   5.662
 6191TIP3   OH218513   7.867   1.618   6.719
 6191TIP3    H118514   7.925   1.685   6.755
 6191TIP3    H218515   7.912   1.535   6.738
 6192TIP3   OH218516   7.799   6.602   1.085
 6192TIP3    H118517   7.767   6.523   1.128
 6192TIP3    H218518   7.894   6.591   1.083
 6193TIP3   OH218519   0.613   1.514   0.896
 6193TIP3    H118520   0.599   1.558   0.981
 6193TIP3    H218521   0.661   1.578   0.844
 6194TIP3   OH218522   8.144   1.374   4.775
 6194TIP3    H118523   8.208   1.389   4.845
 6194TIP3    H218524   8.171   1.291   4.736
 6195TIP3   OH218525   2.734   2.421   5.008
 6195TIP3    H118526   2.654   2.442   4.959
 6195TIP3    H218527   2.706   2.418   5.099
 6196TIP3   OH218528   1.201   0.994   4.901
 6196TIP3    H118529   1.173   0.985   4.809
 6196TIP3    H218530   1.294   1.015   4.895
 6197TIP3   OH218531   2.288   5.200   5.938
 6197TIP3    H118532   2.360   5.243   5.983
 6197TIP3    H218533   2.228   5.173   6.008
 6198TIP3   OH218534   1.837   3.800   4.922
 6198TIP3    H118535   1.759   3.797   4.866
 6198TIP3    H218536   1.804   3.828   5.008
 6199TIP3   OH218537   6.443   5.908   5.925
 6199TIP3    H118538   6.422   5.844   5.994
 6199TIP3    H218539   6.359   5.925   5.882
 6200TIP3   OH218540   1.504   3.186   5.042
 6200TIP3    H118541   1.510   3.163   4.949
 6200TIP3    H218542   1.505   3.101   5.087
 6201TIP3   OH218543   0.952   4.649   5.878
 6201TIP3    H118544   1.013   4.704   5.830
 6201TIP3    H218545   0.915   4.706   5.946
 6202TIP3   OH218546   6.800   7.401   5.293
 6202TIP3    H118547   6.768   7.314   5.267
 6202TIP3    H218548   6.773   7.459   5.222
 6203TIP3   OH218549   8.235   2.668   0.809
 6203TIP3    H118550   8.277   2.645   0.726
 6203TIP3    H218551   8.294   2.632   0.876
 6204TIP3   OH218552   4.904   4.407   2.857
 6204TIP3    H118553   4.882   4.363   2.775
 6204TIP3    H218554   4.922   4.335   2.919
 6205TIP3   OH218555   1.023   1.984   2.439
 6205TIP3    H118556   1.060   1.908   2.483
 6205TIP3    H218557   1.071   2.059   2.476
 6206TIP3   OH218558   4.153   6.661   2.378
 6206TIP3    H118559   4.247   6.648   2.386
 6206TIP3    H218560   4.142   6.755   2.366
 6207TIP3   OH218561   7.939   6.912   3.245
 6207TIP3    H118562   7.862   6.863   3.217
 6207TIP3    H218563   7.946   6.894   3.339
 6208TIP3   OH218564   2.541   1.807   4.067
 6208TIP3    H118565   2.517   1.886   4.116
 6208TIP3    H218566   2.498   1.818   3.982
 6209TIP3   OH218567   0.738   5.173   1.255
 6209TIP3    H118568   0.672   5.121   1.299
 6209TIP3    H218569   0.820   5.150   1.297
 6210TIP3   OH218570   3.321   2.394   6.148
 6210TIP3    H118571   3.331   2.488   6.133
 6210TIP3    H218572   3.236   2.372   6.110
 6211TIP3   OH218573   8.157   4.933   2.784
 6211TIP3    H118574   8.140   4.846   2.747
 6211TIP3    H218575   8.212   4.976   2.720
 6212TIP3   OH218576   6.665   2.423   1.541
 6212TIP3    H118577   6.746   2.390   1.502
 6212TIP3    H218578   6.598   2.361   1.512
 6213TIP3   OH218579   1.139   0.949   4.632
 6213TIP3    H118580   1.210   0.890   4.606
 6213TIP3    H218581   1.080   0.949   4.556
 6214TIP3   OH218582   6.634   4.449   0.894
 6214TIP3    H118583   6.569   4.426   0.828
 6214TIP3    H218584   6.582   4.468   0.973
 6215TIP3   OH218585   2.968   1.409   3.363
 6215TIP3    H118586   2.892   1.363   3.325
 6215TIP3    H218587   2.989   1.359   3.442
 6216TIP3   OH218588   3.546   4.603   0.285
 6216TIP3    H118589   3.464   4.638   0.251
 6216TIP3    H218590   3.610   4.617   0.214
 6217TIP3   OH218591   1.107   2.275   0.586
 6217TIP3    H118592   1.104   2.363   0.624
 6217TIP3    H218593   1.093   2.289   0.492
 6218TIP3   OH218594   4.028   5.354   2.093
 6218TIP3    H118595   4.025   5.450   2.083
 6218TIP3    H218596   3.976   5.321   2.019
 6219TIP3   OH218597   4.308   4.295   4.617
 6219TIP3    H118598   4.284   4.225   4.678
 6219TIP3    H218599   4.392   4.328   4.650
 6220TIP3   OH218600   1.817   5.390   2.303
 6220TIP3    H118601   1.877   5.367   2.232
 6220TIP3    H218602   1.730   5.366   2.268
 6221TIP3   OH218603   2.707   2.145   3.574
 6221TIP3    H118604   2.620   2.124   3.540
 6221TIP3    H218605   2.709   2.241   3.579
 6222TIP3   OH218606   1.085   2.496   5.821
 6222TIP3    H118607   0.991   2.502   5.804
 6222TIP3    H218608   1.118   2.584   5.804
 6223TIP3   OH218609   4.457   1.116   5.371
 6223TIP3    H118610   4.368   1.094   5.344
 6223TIP3    H218611   4.483   1.043   5.428
 6224TIP3   OH218612   2.496   5.324   2.958
 6224TIP3    H118613   2.503   5.342   3.052
 6224TIP3    H218614   2.528   5.404   2.916
 6225TIP3   OH218615   3.522   0.511   2.122
 6225TIP3    H118616   3.552   0.552   2.041
 6225TIP3    H218617   3.601   0.474   2.161
 6226TIP3   OH218618   4.416   6.051   3.105
 6226TIP3    H118619   4.493   6.104   3.128
 6226TIP3    H218620   4.380   6.025   3.190
 6227TIP3   OH218621   7.610   6.746   1.864
 6227TIP3    H118622   7.566   6.735   1.948
 6227TIP3    H218623   7.609   6.841   1.849
 6228TIP3   OH218624   0.391   2.817   2.905
 6228TIP3    H118625   0.298   2.796   2.918
 6228TIP3    H218626   0.437   2.737   2.931
 6229TIP3   OH218627   5.208   4.227   3.954
 6229TIP3    H118628   5.208   4.290   3.882
 6229TIP3    H218629   5.209   4.282   4.033
 6230TIP3   OH218630   7.256   1.698   2.316
 6230TIP3    H118631   7.338   1.725   2.273
 6230TIP3    H218632   7.210   1.781   2.332
 6231TIP3   OH218633   3.584   6.906   0.190
 6231TIP3    H118634   3.537   6.872   0.113
 6231TIP3    H218635   3.519   6.960   0.236
 6232TIP3   OH218636   5.866   7.234   2.985
 6232TIP3    H118637   5.961   7.224   2.979
 6232TIP3    H218638   5.853   7.327   3.005
 6233TIP3   OH218639   7.957   4.587   5.708
 6233TIP3    H118640   7.899   4.632   5.646
 6233TIP3    H218641   7.947   4.494   5.688
 6234TIP3   OH218642   1.358   1.657   0.936
 6234TIP3    H118643   1.313   1.573   0.943
 6234TIP3    H218644   1.440   1.644   0.982
 6235TIP3   OH218645   4.940   7.456   2.752
 6235TIP3    H118646   4.969   7.453   2.660
 6235TIP3    H218647   4.931   7.365   2.777
 6236TIP3   OH218648   6.552   4.407   2.981
 6236TIP3    H118649   6.507   4.439   3.060
 6236TIP3    H218650   6.588   4.487   2.941
 6237TIP3   OH218651   2.777   1.334   0.471
 6237TIP3    H118652   2.777   1.265   0.537
 6237TIP3    H218653   2.854   1.388   0.493
 6238TIP3   OH218654   3.585   5.899   1.802
 6238TIP3    H118655   3.676   5.918   1.782
 6238TIP3    H218656   3.565   5.818   1.755
 6239TIP3   OH218657   5.882   2.407   6.345
 6239TIP3    H118658   5.832   2.329   6.368
 6239TIP3    H218659   5.846   2.476   6.402
 6240TIP3   OH218660   8.017   2.761   1.201
 6240TIP3    H118661   8.016   2.674   1.161
 6240TIP3    H218662   8.110   2.777   1.218
 6241TIP3   OH218663   6.742   3.527   6.526
 6241TIP3    H118664   6.765   3.436   6.508
 6241TIP3    H218665   6.663   3.522   6.580
 6242TIP3   OH218666   0.707   0.110   1.313
 6242TIP3    H118667   0.765   0.132   1.386
 6242TIP3    H218668   0.766   0.091   1.241
 6243TIP3   OH218669   2.378   0.701   0.676
 6243TIP3    H118670   2.316   0.648   0.727
 6243TIP3    H218671   2.334   0.785   0.664
 6244TIP3   OH218672   6.414   4.381   4.462
 6244TIP3    H118673   6.418   4.401   4.369
 6244TIP3    H218674   6.479   4.312   4.474
 6245TIP3   OH218675   2.304   4.853   2.929
 6245TIP3    H118676   2.305   4.943   2.960
 6245TIP3    H218677   2.320   4.859   2.835
 6246TIP3   OH218678   5.055   4.048   1.988
 6246TIP3    H118679   5.072   4.091   2.072
 6246TIP3    H218680   5.087   3.959   1.999
 6247TIP3   OH218681   0.733   4.072   4.953
 6247TIP3    H118682   0.792   4.069   5.028
 6247TIP3    H218683   0.648   4.093   4.990
 6248TIP3   OH218684   4.393   7.808   0.941
 6248TIP3    H118685   4.486   7.790   0.933
 6248TIP3    H218686   4.362   7.748   1.009
 6249TIP3   OH218687   8.025   1.695   0.084
 6249TIP3    H118688   8.117   1.669   0.080
 6249TIP3    H218689   7.988   1.642   0.155
 6250TIP3   OH218690   8.005   3.767   0.495
 6250TIP3    H118691   7.953   3.687   0.481
 6250TIP3    H218692   8.009   3.808   0.409
 6251TIP3   OH218693   6.634   5.089   5.982
 6251TIP3    H118694   6.599   5.053   6.064
 6251TIP3    H218695   6.562   5.081   5.919
 6252TIP3   OH218696   8.124   7.587   2.459
 6252TIP3    H118697   8.183   7.513   2.470
 6252TIP3    H218698   8.116   7.598   2.365
 6253TIP3   OH218699   4.156   2.670   0.976
 6253TIP3    H118700   4.102   2.594   0.997
 6253TIP3    H218701   4.128   2.738   1.038
 6254TIP3   OH218702   0.224   4.417   3.531
 6254TIP3    H118703   0.198   4.509   3.538
 6254TIP3    H218704   0.149   4.373   3.491
 6255TIP3   OH218705   2.156   6.059   1.027
 6255TIP3    H118706   2.212   5.984   1.050
 6255TIP3    H218707   2.214   6.135   1.036
 6256TIP3   OH218708   2.588   6.649   4.136
 6256TIP3    H118709   2.681   6.673   4.136
 6256TIP3    H218710   2.588   6.556   4.159
 6257TIP3   OH218711   2.666   4.361   0.990
 6257TIP3    H118712   2.622   4.397   0.913
 6257TIP3    H218713   2.753   4.336   0.958
 6258TIP3   OH218714   1.440   0.285   2.303
 6258TIP3    H118715   1.528   0.249   2.305
 6258TIP3    H218716   1.392   0.239   2.371
 6259TIP3   OH218717   7.198   3.566   4.044
 6259TIP3    H118718   7.286   3.569   4.081
 6259TIP3    H218719   7.158   3.650   4.067
 6260TIP3   OH218720   5.013   2.247   1.853
 6260TIP3    H118721   4.980   2.317   1.909
 6260TIP3    H218722   4.952   2.243   1.780
 6261TIP3   OH218723   3.971   5.813   3.931
 6261TIP3    H118724   3.977   5.720   3.954
 6261TIP3    H218725   4.031   5.823   3.857
 6262TIP3   OH218726   4.098   5.484   6.123
 6262TIP3    H118727   4.008   5.509   6.141
 6262TIP3    H218728   4.141   5.566   6.097
 6263TIP3   OH218729   3.085   2.825   5.348
 6263TIP3    H118730   3.081   2.920   5.339
 6263TIP3    H218731   3.177   2.803   5.328
 6264TIP3   OH218732   5.521   6.231   4.642
 6264TIP3    H118733   5.454   6.166   4.619
 6264TIP3    H218734   5.525   6.227   4.738
 6265TIP3   OH218735   4.999   2.937   6.526
 6265TIP3    H118736   4.929   2.900   6.472
 6265TIP3    H218737   5.058   2.978   6.464
 6266TIP3   OH218738   3.133   0.219   4.119
 6266TIP3    H118739   3.045   0.191   4.146
 6266TIP3    H218740   3.149   0.298   4.170
 6267TIP3   OH218741   3.338   4.969   6.211
 6267TIP3    H118742   3.329   4.898   6.148
 6267TIP3    H218743   3.279   5.037   6.178
 6268TIP3   OH218744   5.832   5.546   5.272
 6268TIP3    H118745   5.914   5.497   5.268
 6268TIP3    H218746   5.839   5.611   5.202
 6269TIP3   OH218747   6.911   7.277   6.072
 6269TIP3    H118748   6.871   7.296   5.987
 6269TIP3    H218749   6.895   7.356   6.124
 6270TIP3   OH218750   2.620   0.586   0.898
 6270TIP3    H118751   2.600   0.606   0.807
 6270TIP3    H218752   2.715   0.588   0.903
 6271TIP3   OH218753   5.797   5.749   3.318
 6271TIP3    H118754   5.867   5.690   3.291
 6271TIP3    H218755   5.838   5.810   3.378
 6272TIP3   OH218756   4.687   2.138   0.948
 6272TIP3    H118757   4.674   2.049   0.916
 6272TIP3    H218758   4.732   2.183   0.878
 6273TIP3   OH218759   6.257   6.641   3.877
 6273TIP3    H118760   6.198   6.574   3.912
 6273TIP3    H218761   6.317   6.661   3.949
 6274TIP3   OH218762   0.597   1.751   5.800
 6274TIP3    H118763   0.544   1.672   5.809
 6274TIP3    H218764   0.586   1.777   5.708
 6275TIP3   OH218765   4.451   6.757   0.569
 6275TIP3    H118766   4.524   6.731   0.514
 6275TIP3    H218767   4.488   6.821   0.630
 6276TIP3   OH218768   4.716   7.831   5.235
 6276TIP3    H118769   4.640   7.835   5.177
 6276TIP3    H218770   4.682   7.855   5.321
 6277TIP3   OH218771   5.107   4.709   5.439
 6277TIP3    H118772   5.126   4.794   5.479
 6277TIP3    H218773   5.057   4.661   5.505
 6278TIP3   OH218774   7.437   7.281   1.675
 6278TIP3    H118775   7.353   7.238   1.661
 6278TIP3    H218776   7.415   7.367   1.711
 6279TIP3   OH218777   6.791   2.024   5.117
 6279TIP3    H118778   6.765   2.102   5.166
 6279TIP3    H218779   6.857   1.983   5.173
 6280TIP3   OH218780   2.741   3.621   4.563
 6280TIP3    H118781   2.763   3.661   4.646
 6280TIP3    H218782   2.702   3.691   4.511
 6281TIP3   OH218783   0.378   4.927   1.650
 6281TIP3    H118784   0.323   4.850   1.664
 6281TIP3    H218785   0.465   4.900   1.679
 6282TIP3   OH218786   7.181   0.527   6.283
 6282TIP3    H118787   7.194   0.601   6.224
 6282TIP3    H218788   7.096   0.491   6.257
 6283TIP3   OH218789   3.973   6.661   6.485
 6283TIP3    H118790   3.917   6.584   6.489
 6283TIP3    H218791   3.979   6.691   6.576
 6284TIP3   OH218792   7.435   6.501   1.028
 6284TIP3    H118793   7.372   6.540   1.089
 6284TIP3    H218794   7.512   6.482   1.082
 6285TIP3   OH218795   8.209   6.257   5.999
 6285TIP3    H118796   8.257   6.298   6.071
 6285TIP3    H218797   8.273   6.247   5.929
 6286TIP3   OH218798   7.882   2.653   3.202
 6286TIP3    H118799   7.798   2.696   3.185
 6286TIP3    H218800   7.858   2.567   3.235
 6287TIP3   OH218801   5.510   6.911   1.977
 6287TIP3    H118802   5.596   6.869   1.970
 6287TIP3    H218803   5.500   6.958   1.894
 6288TIP3   OH218804   4.591   2.560   5.593
 6288TIP3    H118805   4.596   2.518   5.679
 6288TIP3    H218806   4.677   2.542   5.553
 6289TIP3   OH218807   3.314   3.609   3.636
 6289TIP3    H118808   3.373   3.575   3.568
 6289TIP3    H218809   3.370   3.623   3.712
 6290TIP3   OH218810   4.223   5.466   1.059
 6290TIP3    H118811   4.257   5.448   0.971
 6290TIP3    H218812   4.197   5.558   1.056
 6291TIP3   OH218813   0.234   6.275   0.921
 6291TIP3    H118814   0.292   6.206   0.889
 6291TIP3    H218815   0.208   6.323   0.842
 6292TIP3   OH218816   3.938   5.604   2.649
 6292TIP3    H118817   3.929   5.608   2.745
 6292TIP3    H218818   4.024   5.566   2.635
 6293TIP3   OH218819   5.471   3.785   3.533
 6293TIP3    H118820   5.520   3.734   3.598
 6293TIP3    H218821   5.539   3.834   3.486
 6294TIP3   OH218822   3.961   5.960   3.225
 6294TIP3    H118823   3.870   5.982   3.205
 6294TIP3    H218824   3.963   5.865   3.223
 6295TIP3   OH218825   7.838   4.178   0.387
 6295TIP3    H118826   7.845   4.125   0.466
 6295TIP3    H218827   7.858   4.117   0.316
 6296TIP3   OH218828   6.210   4.805   2.212
 6296TIP3    H118829   6.295   4.799   2.169
 6296TIP3    H218830   6.229   4.789   2.305
 6297TIP3   OH218831   6.168   4.195   0.913
 6297TIP3    H118832   6.168   4.262   0.845
 6297TIP3    H218833   6.251   4.149   0.901
 6298TIP3   OH218834   5.788   3.874   5.957
 6298TIP3    H118835   5.712   3.885   5.900
 6298TIP3    H218836   5.796   3.779   5.968
 6299TIP3   OH218837   0.248   1.698   4.078
 6299TIP3    H118838   0.235   1.643   4.000
 6299TIP3    H218839   0.272   1.637   4.147
 6300TIP3   OH218840   3.464   6.710   6.775
 6300TIP3    H118841   3.419   6.641   6.823
 6300TIP3    H218842   3.429   6.706   6.686
 6301TIP3   OH218843   3.459   4.807   3.120
 6301TIP3    H118844   3.398   4.866   3.075
 6301TIP3    H218845   3.457   4.835   3.211
 6302TIP3   OH218846   8.316   4.248   4.307
 6302TIP3    H118847   8.277   4.179   4.361
 6302TIP3    H218848   8.410   4.232   4.314
 6303TIP3   OH218849   5.751   5.697   1.364
 6303TIP3    H118850   5.676   5.754   1.346
 6303TIP3    H218851   5.774   5.715   1.455
 6304TIP3   OH218852   5.951   1.275   3.332
 6304TIP3    H118853   5.864   1.235   3.336
 6304TIP3    H218854   5.946   1.336   3.259
 6305TIP3   OH218855   3.083   6.086   0.026
 6305TIP3    H118856   3.006   6.029   0.028
 6305TIP3    H218857   3.135   6.055  -0.047
 6306TIP3   OH218858   2.722   5.986   2.944
 6306TIP3    H118859   2.810   6.009   2.916
 6306TIP3    H218860   2.734   5.945   3.030
 6307TIP3   OH218861   7.634   6.196   3.408
 6307TIP3    H118862   7.712   6.209   3.354
 6307TIP3    H218863   7.667   6.147   3.484
 6308TIP3   OH218864   5.309   0.628   6.282
 6308TIP3    H118865   5.256   0.681   6.341
 6308TIP3    H218866   5.250   0.559   6.252
 6309TIP3   OH218867   0.162   4.063   3.256
 6309TIP3    H118868   0.076   4.080   3.294
 6309TIP3    H218869   0.224   4.080   3.327
 6310TIP3   OH218870   1.032   2.765   4.080
 6310TIP3    H118871   0.953   2.710   4.073
 6310TIP3    H218872   1.016   2.837   4.020
 6311TIP3   OH218873   8.218   4.138   0.631
 6311TIP3    H118874   8.232   4.136   0.536
 6311TIP3    H218875   8.151   4.071   0.646
 6312TIP3   OH218876   3.095   6.602   2.970
 6312TIP3    H118877   3.091   6.540   3.043
 6312TIP3    H218878   3.092   6.689   3.012
 6313TIP3   OH218879   1.387   7.640   2.208
 6313TIP3    H118880   1.471   7.683   2.222
 6313TIP3    H218881   1.330   7.677   2.276
 6314TIP3   OH218882   2.142   1.559   3.986
 6314TIP3    H118883   2.172   1.470   4.004
 6314TIP3    H218884   2.051   1.560   4.016
 6315TIP3   OH218885   7.826   1.962   6.715
 6315TIP3    H118886   7.894   1.896   6.731
 6315TIP3    H218887   7.767   1.921   6.652
 6316TIP3   OH218888   1.053   5.230   2.441
 6316TIP3    H118889   1.074   5.136   2.438
 6316TIP3    H218890   0.991   5.238   2.513
 6317TIP3   OH218891   0.074   6.678   6.872
 6317TIP3    H118892   0.111   6.596   6.904
 6317TIP3    H218893   0.106   6.685   6.782
 6318TIP3   OH218894   7.925   1.497   4.182
 6318TIP3    H118895   7.966   1.423   4.137
 6318TIP3    H218896   7.884   1.460   4.260
 6319TIP3   OH218897   2.277   3.221   6.421
 6319TIP3    H118898   2.222   3.179   6.354
 6319TIP3    H218899   2.366   3.204   6.392
 6320TIP3   OH218900   1.248   4.985   3.891
 6320TIP3    H118901   1.261   5.078   3.873
 6320TIP3    H218902   1.208   4.951   3.811
 6321TIP3   OH218903   6.286   4.031   5.784
 6321TIP3    H118904   6.301   4.126   5.787
 6321TIP3    H218905   6.310   4.006   5.695
 6322TIP3   OH218906   7.891   5.919   3.636
 6322TIP3    H118907   7.939   5.902   3.717
 6322TIP3    H218908   7.953   5.964   3.579
 6323TIP3   OH218909   5.807   5.725   3.930
 6323TIP3    H118910   5.781   5.643   3.971
 6323TIP3    H218911   5.790   5.792   3.995
 6324TIP3   OH218912   0.490   7.667   1.928
 6324TIP3    H118913   0.426   7.633   1.866
 6324TIP3    H218914   0.533   7.739   1.880
 6325TIP3   OH218915   6.090   1.926   5.183
 6325TIP3    H118916   6.012   1.916   5.128
 6325TIP3    H218917   6.152   1.973   5.127
 6326TIP3   OH218918   2.251   0.729   1.953
 6326TIP3    H118919   2.168   0.687   1.929
 6326TIP3    H218920   2.273   0.691   2.038
 6327TIP3   OH218921   6.173   0.879   3.503
 6327TIP3    H118922   6.132   0.854   3.587
 6327TIP3    H218923   6.130   0.824   3.438
 6328TIP3   OH218924   5.368   1.044   1.195
 6328TIP3    H118925   5.400   0.966   1.151
 6328TIP3    H218926   5.369   1.112   1.128
 6329TIP3   OH218927   0.085   7.842   2.265
 6329TIP3    H118928   0.132   7.920   2.294
 6329TIP3    H218929   0.055   7.801   2.346
 6330TIP3   OH218930   1.373   3.172   3.179
 6330TIP3    H118931   1.395   3.082   3.203
 6330TIP3    H218932   1.280   3.168   3.155
 6331TIP3   OH218933   4.837   2.874   1.244
 6331TIP3    H118934   4.760   2.920   1.212
 6331TIP3    H218935   4.909   2.908   1.192
 6332TIP3   OH218936   0.597   0.207   3.469
 6332TIP3    H118937   0.630   0.204   3.379
 6332TIP3    H218938   0.591   0.115   3.496
 6333TIP3   OH218939   1.072   4.250   6.863
 6333TIP3    H118940   1.150   4.258   6.917
 6333TIP3    H218941   1.104   4.256   6.773
 6334TIP3   OH218942   7.909   1.030   3.727
 6334TIP3    H118943   7.857   1.068   3.657
 6334TIP3    H218944   7.961   1.104   3.761
 6335TIP3   OH218945   6.181   1.216   4.216
 6335TIP3    H118946   6.234   1.159   4.159
 6335TIP3    H218947   6.091   1.188   4.200
 6336TIP3   OH218948   7.738   0.639   4.142
 6336TIP3    H118949   7.692   0.586   4.077
 6336TIP3    H218950   7.685   0.719   4.150
 6337TIP3   OH218951   1.249   0.310   5.716
 6337TIP3    H118952   1.171   0.362   5.736
 6337TIP3    H218953   1.274   0.270   5.799
 6338TIP3   OH218954   6.846   7.070   4.653
 6338TIP3    H118955   6.843   7.104   4.742
 6338TIP3    H218956   6.930   7.023   4.649
 6339TIP3   OH218957   6.502   1.891   5.562
 6339TIP3    H118958   6.462   1.902   5.648
 6339TIP3    H218959   6.545   1.975   5.544
 6340TIP3   OH218960   1.044   0.897   0.630
 6340TIP3    H118961   0.973   0.931   0.683
 6340TIP3    H218962   1.110   0.966   0.631
 6341TIP3   OH218963   1.457   5.734   5.145
 6341TIP3    H118964   1.469   5.694   5.231
 6341TIP3    H218965   1.501   5.819   5.152
 6342TIP3   OH218966   6.960   5.986   2.762
 6342TIP3    H118967   7.019   6.037   2.706
 6342TIP3    H218968   6.907   6.052   2.807
 6343TIP3   OH218969   7.502   2.693   6.485
 6343TIP3    H118970   7.583   2.643   6.496
 6343TIP3    H218971   7.516   2.745   6.406
 6344TIP3   OH218972   0.525   0.547   1.558
 6344TIP3    H118973   0.534   0.482   1.627
 6344TIP3    H218974   0.532   0.497   1.477
 6345TIP3   OH218975   1.729   2.828   2.720
 6345TIP3    H118976   1.692   2.743   2.696
 6345TIP3    H218977   1.657   2.890   2.704
 6346TIP3   OH218978   6.478   7.833   2.963
 6346TIP3    H118979   6.465   7.742   2.937
 6346TIP3    H218980   6.499   7.830   3.056
 6347TIP3   OH218981   6.704   4.860   3.240
 6347TIP3    H118982   6.642   4.931   3.249
 6347TIP3    H218983   6.652   4.780   3.251
 6348TIP3   OH218984   4.052   1.935   2.350
 6348TIP3    H118985   4.041   1.976   2.264
 6348TIP3    H218986   4.014   1.998   2.411
 6349TIP3   OH218987   7.059   1.548   4.837
 6349TIP3    H118988   7.006   1.477   4.800
 6349TIP3    H218989   7.124   1.567   4.769
 6350TIP3   OH218990   4.069   0.867   1.052
 6350TIP3    H118991   4.037   0.882   1.141
 6350TIP3    H218992   4.164   0.862   1.061
 6351TIP3   OH218993   3.445   5.530   4.044
 6351TIP3    H118994   3.523   5.569   4.083
 6351TIP3    H218995   3.385   5.518   4.118
 6352TIP3   OH218996   0.432   3.953   5.831
 6352TIP3    H118997   0.524   3.978   5.844
 6352TIP3    H218998   0.403   4.007   5.758
 6353TIP3   OH218999   7.039   5.934   0.871
 6353TIP3    H119000   7.098   5.861   0.892
 6353TIP3    H219001   7.029   5.931   0.776
 6354TIP3   OH219002   3.578   0.500   6.439
 6354TIP3    H119003   3.670   0.520   6.459
 6354TIP3    H219004   3.580   0.410   6.406
 6355TIP3   OH219005   1.012   6.906   1.083
 6355TIP3    H119006   1.032   6.972   1.149
 6355TIP3    H219007   1.097   6.865   1.063
 6356TIP3   OH219008   1.297   7.766   2.505
 6356TIP3    H119009   1.238   7.822   2.456
 6356TIP3    H219010   1.362   7.826   2.543
 6357TIP3   OH219011   6.150   4.725   6.230
 6357TIP3    H119012   6.097   4.716   6.310
 6357TIP3    H219013   6.204   4.646   6.229
 6358TIP3   OH219014   7.067   7.167   6.404
 6358TIP3    H119015   7.155   7.129   6.412
 6358TIP3    H219016   7.080   7.261   6.415
 6359TIP3   OH219017   5.912   3.044   5.645
 6359TIP3    H119018   5.866   3.009   5.722
 6359TIP3    H219019   5.914   2.971   5.583
 6360TIP3   OH219020   4.158   7.772   0.092
 6360TIP3    H119021   4.222   7.701   0.091
 6360TIP3    H219022   4.080   7.733   0.131
 6361TIP3   OH219023   6.136   7.313   0.502
 6361TIP3    H119024   6.046   7.348   0.504
 6361TIP3    H219025   6.173   7.339   0.586
 6362TIP3   OH219026   3.323   3.296   1.741
 6362TIP3    H119027   3.290   3.207   1.741
 6362TIP3    H219028   3.283   3.337   1.817
 6363TIP3   OH219029   0.080   5.590   6.752
 6363TIP3    H119030   0.098   5.551   6.667
 6363TIP3    H219031   0.146   5.658   6.762
 6364TIP3   OH219032   5.325   7.756   5.034
 6364TIP3    H119033   5.397   7.794   4.984
 6364TIP3    H219034   5.246   7.784   4.987
 6365TIP3   OH219035   5.579   6.794   2.627
 6365TIP3    H119036   5.517   6.763   2.694
 6365TIP3    H219037   5.620   6.714   2.594
 6366TIP3   OH219038   7.370   1.889   5.994
 6366TIP3    H119039   7.434   1.922   6.057
 6366TIP3    H219040   7.422   1.835   5.934
 6367TIP3   OH219041   2.238   5.152   1.245
 6367TIP3    H119042   2.272   5.172   1.158
 6367TIP3    H219043   2.182   5.075   1.233
 6368TIP3   OH219044   4.236   0.318   4.218
 6368TIP3    H119045   4.217   0.355   4.132
 6368TIP3    H219046   4.151   0.316   4.262
 6369TIP3   OH219047   1.249   7.590   3.230
 6369TIP3    H119048   1.188   7.657   3.200
 6369TIP3    H219049   1.219   7.510   3.186
 6370TIP3   OH219050   5.810  -0.026   3.392
 6370TIP3    H119051   5.901   0.000   3.405
 6370TIP3    H219052   5.766   0.055   3.365
 6371TIP3   OH219053   4.414   1.159   6.504
 6371TIP3    H119054   4.487   1.193   6.451
 6371TIP3    H219055   4.410   1.219   6.579
 6372TIP3   OH219056   3.022   3.469   6.255
 6372TIP3    H119057   3.117   3.482   6.253
 6372TIP3    H219058   2.998   3.486   6.346
 6373TIP3   OH219059   4.999   7.394   0.836
 6373TIP3    H119060   5.029   7.303   0.845
 6373TIP3    H219061   5.023   7.436   0.918
 6374TIP3   OH219062   5.597   0.112   4.706
 6374TIP3    H119063   5.687   0.088   4.725
 6374TIP3    H219064   5.546   0.033   4.722
 6375TIP3   OH219065  -0.013   2.547   4.563
 6375TIP3    H119066  -0.001   2.641   4.579
 6375TIP3    H219067   0.074   2.515   4.539
 6376TIP3   OH219068   3.318   2.531   3.223
 6376TIP3    H119069   3.234   2.549   3.180
 6376TIP3    H219070   3.321   2.593   3.296
 6377TIP3   OH219071   0.998   1.839   3.176
 6377TIP3    H119072   1.027   1.762   3.127
 6377TIP3    H219073   1.077   1.869   3.222
 6378TIP3   OH219074   7.219   4.877   1.319
 6378TIP3    H119075   7.280   4.827   1.373
 6378TIP3    H219076   7.162   4.921   1.382
 6379TIP3   OH219077   1.580   4.183   6.832
 6379TIP3    H119078   1.586   4.088   6.825
 6379TIP3    H219079   1.629   4.204   6.912
 6380TIP3   OH219080   1.792   1.585   3.317
 6380TIP3    H119081   1.708   1.625   3.338
 6380TIP3    H219082   1.821   1.544   3.399
 6381TIP3   OH219083   8.046   6.757   6.457
 6381TIP3    H119084   8.028   6.817   6.384
 6381TIP3    H219085   8.142   6.751   6.460
 6382TIP3   OH219086   6.407   0.186   6.016
 6382TIP3    H119087   6.328   0.148   6.055
 6382TIP3    H219088   6.428   0.129   5.943
 6383TIP3   OH219089   2.368   1.261   5.514
 6383TIP3    H119090   2.357   1.186   5.573
 6383TIP3    H219091   2.284   1.307   5.519
 6384TIP3   OH219092   0.444   5.463   1.902
 6384TIP3    H119093   0.380   5.504   1.960
 6384TIP3    H219094   0.398   5.388   1.863
 6385TIP3   OH219095   3.748   0.970   3.576
 6385TIP3    H119096   3.765   0.877   3.590
 6385TIP3    H219097   3.702   0.999   3.655
 6386TIP3   OH219098   8.166   2.227   4.369
 6386TIP3    H119099   8.110   2.181   4.432
 6386TIP3    H219100   8.105   2.272   4.311
 6387TIP3   OH219101   0.579   4.650   5.883
 6387TIP3    H119102   0.584   4.727   5.940
 6387TIP3    H219103   0.627   4.582   5.930
 6388TIP3   OH219104   0.927   7.510   5.378
 6388TIP3    H119105   0.981   7.544   5.449
 6388TIP3    H219106   0.845   7.560   5.385
 6389TIP3   OH219107   6.068   7.922   0.352
 6389TIP3    H119108   6.020   7.879   0.282
 6389TIP3    H219109   6.100   7.850   0.407
 6390TIP3   OH219110   6.439   3.847   6.639
 6390TIP3    H119111   6.383   3.777   6.604
 6390TIP3    H219112   6.386   3.927   6.629
 6391TIP3   OH219113   7.000   3.835   0.973
 6391TIP3    H119114   6.934   3.788   0.922
 6391TIP3    H219115   6.968   3.830   1.064
 6392TIP3   OH219116   4.564   1.263   1.536
 6392TIP3    H119117   4.574   1.275   1.631
 6392TIP3    H219118   4.654   1.261   1.503
 6393TIP3   OH219119   3.103   7.726   3.967
 6393TIP3    H119120   3.180   7.734   4.024
 6393TIP3    H219121   3.136   7.749   3.880
 6394TIP3   OH219122   5.940   3.997   3.615
 6394TIP3    H119123   5.873   3.957   3.559
 6394TIP3    H219124   5.979   4.065   3.560
 6395TIP3   OH219125   0.790   3.604   5.712
 6395TIP3    H119126   0.775   3.530   5.652
 6395TIP3    H219127   0.868   3.647   5.678
 6396TIP3   OH219128   7.339   1.940   4.076
 6396TIP3    H119129   7.292   2.015   4.041
 6396TIP3    H219130   7.430   1.954   4.051
 6397TIP3   OH219131   4.115   0.623   0.487
 6397TIP3    H119132   4.077   0.584   0.566
 6397TIP3    H219133   4.082   0.570   0.415
 6398TIP3   OH219134   5.590   4.748   5.206
 6398TIP3    H119135   5.607   4.720   5.296
 6398TIP3    H219136   5.617   4.674   5.152
 6399TIP3   OH219137   1.387   0.548   4.316
 6399TIP3    H119138   1.339   0.496   4.252
 6399TIP3    H219139   1.361   0.511   4.401
 6400TIP3   OH219140   7.974   1.914   5.145
 6400TIP3    H119141   7.879   1.915   5.135
 6400TIP3    H219142   8.004   1.850   5.080
 6401TIP3   OH219143   0.479   2.210   0.325
 6401TIP3    H119144   0.529   2.292   0.330
 6401TIP3    H219145   0.533   2.146   0.371
 6402TIP3   OH219146   8.155   3.205   6.249
 6402TIP3    H119147   8.138   3.189   6.156
 6402TIP3    H219148   8.082   3.260   6.278
 6403TIP3   OH219149   5.310   4.106   6.425
 6403TIP3    H119150   5.243   4.108   6.494
 6403TIP3    H219151   5.264   4.135   6.346
 6404TIP3   OH219152   0.311   4.983   2.853
 6404TIP3    H119153   0.338   5.003   2.943
 6404TIP3    H219154   0.216   4.979   2.856
 6405TIP3   OH219155   1.161   2.240   6.148
 6405TIP3    H119156   1.096   2.261   6.081
 6405TIP3    H219157   1.231   2.195   6.100
 6406TIP3   OH219158   3.891   7.845   4.612
 6406TIP3    H119159   3.948   7.859   4.537
 6406TIP3    H219160   3.811   7.809   4.575
 6407TIP3   OH219161   4.884   5.985   6.029
 6407TIP3    H119162   4.957   5.995   5.968
 6407TIP3    H219163   4.828   6.061   6.012
 6408TIP3   OH219164   1.325   0.116   0.552
 6408TIP3    H119165   1.328   0.193   0.496
 6408TIP3    H219166   1.293   0.046   0.495
 6409TIP3   OH219167   0.582   5.248   3.588
 6409TIP3    H119168   0.636   5.232   3.665
 6409TIP3    H219169   0.598   5.340   3.567
 6410TIP3   OH219170   5.835   0.244   6.479
 6410TIP3    H119171   5.909   0.302   6.462
 6410TIP3    H219172   5.794   0.280   6.559
 6411TIP3   OH219173   8.377   4.435   2.628
 6411TIP3    H119174   8.373   4.411   2.720
 6411TIP3    H219175   8.291   4.411   2.593
 6412TIP3   OH219176   3.535   7.783   4.337
 6412TIP3    H119177   3.568   7.775   4.426
 6412TIP3    H219178   3.548   7.697   4.298
 6413TIP3   OH219179   1.455   3.114   2.917
 6413TIP3    H119180   1.456   3.130   3.011
 6413TIP3    H219181   1.383   3.052   2.904
 6414TIP3   OH219182   0.590   4.318   1.749
 6414TIP3    H119183   0.637   4.324   1.832
 6414TIP3    H219184   0.532   4.394   1.749
 6415TIP3   OH219185   2.772   0.908   6.171
 6415TIP3    H119186   2.692   0.862   6.198
 6415TIP3    H219187   2.792   0.966   6.244
 6416TIP3   OH219188   4.507   0.400   2.235
 6416TIP3    H119189   4.506   0.447   2.318
 6416TIP3    H219190   4.475   0.464   2.171
 6417TIP3   OH219191   4.618   2.759   2.481
 6417TIP3    H119192   4.638   2.727   2.393
 6417TIP3    H219193   4.542   2.708   2.508
 6418TIP3   OH219194   3.979   5.296   2.351
 6418TIP3    H119195   4.006   5.327   2.265
 6418TIP3    H219196   4.057   5.306   2.406
 6419TIP3   OH219197   4.179   3.156   6.361
 6419TIP3    H119198   4.157   3.079   6.413
 6419TIP3    H219199   4.119   3.153   6.286
 6420TIP3   OH219200   6.704   5.562   0.866
 6420TIP3    H119201   6.678   5.595   0.952
 6420TIP3    H219202   6.637   5.497   0.843
 6421TIP3   OH219203   3.940   3.702   1.806
 6421TIP3    H119204   3.947   3.642   1.880
 6421TIP3    H219205   4.019   3.756   1.811
 6422TIP3   OH219206   7.556   3.649   2.497
 6422TIP3    H119207   7.626   3.594   2.533
 6422TIP3    H219208   7.601   3.710   2.439
 6423TIP3   OH219209   4.767   1.970   6.398
 6423TIP3    H119210   4.788   1.878   6.416
 6423TIP3    H219211   4.816   2.019   6.464
 6424TIP3   OH219212   0.981   0.115   5.664
 6424TIP3    H119213   0.914   0.050   5.645
 6424TIP3    H219214   1.003   0.103   5.756
 6425TIP3   OH219215   6.005   4.333   3.018
 6425TIP3    H119216   6.044   4.297   3.098
 6425TIP3    H219217   5.967   4.417   3.046
 6426TIP3   OH219218   0.371   3.318   6.319
 6426TIP3    H119219   0.349   3.383   6.386
 6426TIP3    H219220   0.296   3.318   6.260
 6427TIP3   OH219221   6.091   4.573   5.821
 6427TIP3    H119222   6.150   4.645   5.842
 6427TIP3    H219223   6.128   4.498   5.869
 6428TIP3   OH219224   8.241   6.850   5.476
 6428TIP3    H119225   8.310   6.833   5.541
 6428TIP3    H219226   8.221   6.764   5.440
 6429TIP3   OH219227   0.277   5.711   1.422
 6429TIP3    H119228   0.346   5.754   1.472
 6429TIP3    H219229   0.320   5.682   1.342
 6430TIP3   OH219230   7.163   2.983   1.558
 6430TIP3    H119231   7.222   2.928   1.507
 6430TIP3    H219232   7.202   2.987   1.645
 6431TIP3   OH219233   2.826   3.734   2.110
 6431TIP3    H119234   2.849   3.671   2.179
 6431TIP3    H219235   2.732   3.746   2.118
 6432TIP3   OH219236   0.338   0.800   0.775
 6432TIP3    H119237   0.259   0.834   0.817
 6432TIP3    H219238   0.365   0.869   0.715
 6433TIP3   OH219239   5.146   6.236   2.302
 6433TIP3    H119240   5.086   6.271   2.236
 6433TIP3    H219241   5.121   6.144   2.312
 6434TIP3   OH219242   7.012   0.409   0.354
 6434TIP3    H119243   6.981   0.367   0.274
 6434TIP3    H219244   7.099   0.374   0.368
 6435TIP3   OH219245   1.764   0.214   3.579
 6435TIP3    H119246   1.754   0.307   3.598
 6435TIP3    H219247   1.682   0.188   3.538
 6436TIP3   OH219248   5.035   7.753   5.598
 6436TIP3    H119249   4.946   7.718   5.591
 6436TIP3    H219250   5.076   7.700   5.666
 6437TIP3   OH219251   1.341   1.757   0.293
 6437TIP3    H119252   1.335   1.782   0.201
 6437TIP3    H219253   1.425   1.711   0.300
 6438TIP3   OH219254   5.358   0.373   6.804
 6438TIP3    H119255   5.435   0.317   6.807
 6438TIP3    H219256   5.331   0.380   6.896
 6439TIP3   OH219257   6.337   3.763   1.826
 6439TIP3    H119258   6.385   3.681   1.840
 6439TIP3    H219259   6.351   3.814   1.905
 6440TIP3   OH219260   0.870   7.073   4.482
 6440TIP3    H119261   0.815   6.997   4.501
 6440TIP3    H219262   0.808   7.145   4.469
 6441TIP3   OH219263   6.064   3.243   3.904
 6441TIP3    H119264   5.994   3.189   3.939
 6441TIP3    H219265   6.019   3.310   3.853
 6442TIP3   OH219266   6.072   2.701   2.517
 6442TIP3    H119267   6.069   2.666   2.606
 6442TIP3    H219268   6.113   2.631   2.466
 6443TIP3   OH219269   4.022   5.838   0.350
 6443TIP3    H119270   4.015   5.919   0.400
 6443TIP3    H219271   3.958   5.847   0.280
 6444TIP3   OH219272   1.544   5.172   3.805
 6444TIP3    H119273   1.618   5.231   3.794
 6444TIP3    H219274   1.584   5.087   3.825
 6445TIP3   OH219275   7.453   1.364   4.184
 6445TIP3    H119276   7.537   1.410   4.195
 6445TIP3    H219277   7.392   1.432   4.154
 6446TIP3   OH219278   3.502   6.077   1.985
 6446TIP3    H119279   3.469   6.017   2.052
 6446TIP3    H219280   3.524   6.021   1.911
 6447TIP3   OH219281   5.012   3.458   1.270
 6447TIP3    H119282   4.956   3.399   1.319
 6447TIP3    H219283   5.003   3.430   1.179
 6448TIP3   OH219284   2.875   2.470   0.911
 6448TIP3    H119285   2.825   2.399   0.872
 6448TIP3    H219286   2.959   2.431   0.934
 6449TIP3   OH219287   5.453   6.537   5.969
 6449TIP3    H119288   5.406   6.559   6.049
 6449TIP3    H219289   5.471   6.443   5.976
 6450TIP3   OH219290   3.829   2.635   2.883
 6450TIP3    H119291   3.858   2.668   2.968
 6450TIP3    H219292   3.809   2.543   2.898
 6451TIP3   OH219293   7.124   1.401   5.378
 6451TIP3    H119294   7.175   1.472   5.417
 6451TIP3    H219295   7.181   1.325   5.383
 6452TIP3   OH219296   0.901   7.153   1.971
 6452TIP3    H119297   0.812   7.116   1.969
 6452TIP3    H219298   0.887   7.248   1.974
 6453TIP3   OH219299   4.779   3.031   5.713
 6453TIP3    H119300   4.763   2.938   5.698
 6453TIP3    H219301   4.839   3.033   5.788
 6454TIP3   OH219302   1.134   2.991   1.834
 6454TIP3    H119303   1.111   2.914   1.885
 6454TIP3    H219304   1.060   3.051   1.846
 6455TIP3   OH219305   4.352   6.617   3.503
 6455TIP3    H119306   4.390   6.649   3.421
 6455TIP3    H219307   4.313   6.695   3.543
 6456TIP3   OH219308  -0.033   2.066   3.225
 6456TIP3    H119309   0.013   1.988   3.255
 6456TIP3    H219310   0.024   2.139   3.248
 6457TIP3   OH219311   3.255   4.499   3.314
 6457TIP3    H119312   3.340   4.458   3.302
 6457TIP3    H219313   3.209   4.441   3.375
 6458TIP3   OH219314   2.588   4.136   1.129
 6458TIP3    H119315   2.604   4.226   1.101
 6458TIP3    H219316   2.643   4.083   1.071
 6459TIP3   OH219317   4.248   5.351   5.413
 6459TIP3    H119318   4.294   5.288   5.358
 6459TIP3    H219319   4.192   5.297   5.469
 6460TIP3   OH219320   6.343   0.069   2.593
 6460TIP3    H119321   6.256   0.050   2.558
 6460TIP3    H219322   6.384  -0.018   2.602
 6461TIP3   OH219323   3.415   7.799   0.628
 6461TIP3    H119324   3.450   7.803   0.717
 6461TIP3    H219325   3.321   7.805   0.639
 6462TIP3   OH219326   4.192   7.460   2.846
 6462TIP3    H119327   4.144   7.474   2.765
 6462TIP3    H219328   4.222   7.548   2.871
 6463TIP3   OH219329   1.981   6.066   6.070
 6463TIP3    H119330   2.000   5.996   6.132
 6463TIP3    H219331   1.892   6.092   6.090
 6464TIP3   OH219332   7.433   4.006   4.678
 6464TIP3    H119333   7.347   4.037   4.652
 6464TIP3    H219334   7.417   3.920   4.718
 6465TIP3   OH219335   2.926   4.078   3.295
 6465TIP3    H119336   2.834   4.096   3.276
 6465TIP3    H219337   2.925   4.038   3.382
 6466TIP3   OH219338   3.529   7.653   5.372
 6466TIP3    H119339   3.588   7.680   5.301
 6466TIP3    H219340   3.445   7.694   5.351
 6467TIP3   OH219341   0.418   5.609   6.694
 6467TIP3    H119342   0.383   5.564   6.771
 6467TIP3    H219343   0.488   5.665   6.729
 6468TIP3   OH219344   5.071   5.102   4.394
 6468TIP3    H119345   4.997   5.080   4.338
 6468TIP3    H219346   5.034   5.154   4.464
 6469TIP3   OH219347   0.262   4.387   1.518
 6469TIP3    H119348   0.175   4.353   1.496
 6469TIP3    H219349   0.257   4.411   1.610
 6470TIP3   OH219350   8.117   2.531   4.536
 6470TIP3    H119351   8.203   2.547   4.575
 6470TIP3    H219352   8.087   2.450   4.576
 6471TIP3   OH219353   0.909   5.784   2.764
 6471TIP3    H119354   0.825   5.823   2.788
 6471TIP3    H219355   0.930   5.724   2.836
 6472TIP3   OH219356   3.437   4.678   6.419
 6472TIP3    H119357   3.469   4.609   6.360
 6472TIP3    H219358   3.342   4.678   6.405
 6473TIP3   OH219359   6.292   3.485   6.382
 6473TIP3    H119360   6.266   3.576   6.387
 6473TIP3    H219361   6.212   3.436   6.400
 6474TIP3   OH219362   5.943   3.557   4.393
 6474TIP3    H119363   5.980   3.588   4.310
 6474TIP3    H219364   5.890   3.630   4.425
 6475TIP3   OH219365   2.027   1.924   0.377
 6475TIP3    H119366   1.961   1.977   0.333
 6475TIP3    H219367   2.069   1.875   0.306
 6476TIP3   OH219368   2.923   3.884   5.748
 6476TIP3    H119369   2.839   3.902   5.705
 6476TIP3    H219370   2.922   3.940   5.826
 6477TIP3   OH219371   4.073   6.873   1.499
 6477TIP3    H119372   4.016   6.880   1.575
 6477TIP3    H219373   4.099   6.780   1.497
 6478TIP3   OH219374   7.280   4.000   3.826
 6478TIP3    H119375   7.352   3.940   3.811
 6478TIP3    H219376   7.213   3.974   3.763
 6479TIP3   OH219377   0.643   0.533   2.236
 6479TIP3    H119378   0.616   0.518   2.145
 6479TIP3    H219379   0.605   0.618   2.258
 6480TIP3   OH219380   2.830   3.088   0.695
 6480TIP3    H119381   2.789   3.114   0.778
 6480TIP3    H219382   2.757   3.054   0.642
 6481TIP3   OH219383   7.581   2.835   1.968
 6481TIP3    H119384   7.605   2.797   1.884
 6481TIP3    H219385   7.569   2.928   1.949
 6482TIP3   OH219386   5.183   6.346   5.626
 6482TIP3    H119387   5.229   6.422   5.590
 6482TIP3    H219388   5.129   6.315   5.553
 6483TIP3   OH219389   7.227   5.349   2.076
 6483TIP3    H119390   7.245   5.394   2.158
 6483TIP3    H219391   7.141   5.310   2.088
 6484TIP3   OH219392   2.806   6.910   4.061
 6484TIP3    H119393   2.882   6.935   4.114
 6484TIP3    H219394   2.833   6.827   4.020
 6485TIP3   OH219395   4.978   5.141   1.024
 6485TIP3    H119396   4.960   5.086   0.948
 6485TIP3    H219397   5.074   5.150   1.025
 6486TIP3   OH219398   3.986   3.550   6.231
 6486TIP3    H119399   4.011   3.579   6.143
 6486TIP3    H219400   4.067   3.553   6.281
 6487TIP3   OH219401   2.665   6.202   0.715
 6487TIP3    H119402   2.702   6.173   0.799
 6487TIP3    H219403   2.623   6.124   0.679
 6488TIP3   OH219404   0.068   3.581   0.236
 6488TIP3    H119405   0.128   3.516   0.197
 6488TIP3    H219406   0.126   3.637   0.288
 6489TIP3   OH219407   5.512   2.039   1.655
 6489TIP3    H119408   5.467   2.043   1.740
 6489TIP3    H219409   5.444   2.010   1.594
 6490TIP3   OH219410   5.244   0.261   4.011
 6490TIP3    H119411   5.301   0.329   3.975
 6490TIP3    H219412   5.166   0.307   4.039
 6491TIP3   OH219413   3.224   7.729   0.166
 6491TIP3    H119414   3.287   7.672   0.210
 6491TIP3    H219415   3.277   7.799   0.129
 6492TIP3   OH219416   0.712   4.540   0.587
 6492TIP3    H119417   0.686   4.596   0.514
 6492TIP3    H219418   0.805   4.521   0.570
 6493TIP3   OH219419   8.368   4.511   1.987
 6493TIP3    H119420   8.412   4.514   1.902
 6493TIP3    H219421   8.288   4.461   1.971
 6494TIP3   OH219422   3.756   4.465   0.405
 6494TIP3    H119423   3.813   4.526   0.357
 6494TIP3    H219424   3.668   4.492   0.381
 6495TIP3   OH219425   0.235   2.084   0.426
 6495TIP3    H119426   0.226   1.998   0.468
 6495TIP3    H219427   0.327   2.089   0.402
 6496TIP3   OH219428   3.749   4.497   4.448
 6496TIP3    H119429   3.778   4.508   4.357
 6496TIP3    H219430   3.796   4.420   4.480
 6497TIP3   OH219431   5.772   4.167   1.243
 6497TIP3    H119432   5.748   4.255   1.213
 6497TIP3    H219433   5.849   4.144   1.190
 6498TIP3   OH219434   4.772   5.294   6.030
 6498TIP3    H119435   4.732   5.287   5.943
 6498TIP3    H219436   4.700   5.276   6.090
 6499TIP3   OH219437   1.572   7.465   0.885
 6499TIP3    H119438   1.545   7.557   0.886
 6499TIP3    H219439   1.556   7.436   0.795
 6500TIP3   OH219440   0.239   3.840   5.022
 6500TIP3    H119441   0.257   3.844   4.928
 6500TIP3    H219442   0.322   3.860   5.064
 6501TIP3   OH219443   5.429   5.578   2.520
 6501TIP3    H119444   5.470   5.549   2.439
 6501TIP3    H219445   5.390   5.663   2.500
 6502TIP3   OH219446   4.669   0.399   6.012
 6502TIP3    H119447   4.688   0.439   5.928
 6502TIP3    H219448   4.683   0.305   5.997
 6503TIP3   OH219449  -0.002   4.013   5.744
 6503TIP3    H119450   0.054   4.090   5.733
 6503TIP3    H219451   0.050   3.940   5.710
 6504TIP3   OH219452   6.163   5.835   2.551
 6504TIP3    H119453   6.241   5.782   2.569
 6504TIP3    H219454   6.117   5.787   2.483
 6505TIP3   OH219455   8.255   6.652   4.374
 6505TIP3    H119456   8.276   6.626   4.464
 6505TIP3    H219457   8.272   6.574   4.322
 6506TIP3   OH219458   2.527   3.576   6.731
 6506TIP3    H119459   2.500   3.553   6.820
 6506TIP3    H219460   2.447   3.607   6.689
 6507TIP3   OH219461   4.872   3.881   3.575
 6507TIP3    H119462   4.785   3.910   3.602
 6507TIP3    H219463   4.856   3.831   3.495
 6508TIP3   OH219464   2.977   7.657   0.621
 6508TIP3    H119465   3.048   7.618   0.672
 6508TIP3    H219466   2.973   7.606   0.541
 6509TIP3   OH219467   8.241   0.715   6.593
 6509TIP3    H119468   8.161   0.753   6.555
 6509TIP3    H219469   8.237   0.623   6.568
 6510TIP3   OH219470   6.002   5.649   3.759
 6510TIP3    H119471   5.938   5.674   3.826
 6510TIP3    H219472   6.002   5.553   3.762
 6511TIP3   OH219473   0.743   0.953   6.022
 6511TIP3    H119474   0.741   1.014   5.948
 6511TIP3    H219475   0.736   0.867   5.983
 6512TIP3   OH219476   0.247   4.380   2.853
 6512TIP3    H119477   0.158   4.396   2.883
 6512TIP3    H219478   0.303   4.427   2.915
 6513TIP3   OH219479   4.025   2.668   5.649
 6513TIP3    H119480   4.109   2.630   5.624
 6513TIP3    H219481   3.962   2.629   5.589
 6514TIP3   OH219482   7.514   1.162   3.906
 6514TIP3    H119483   7.566   1.143   3.828
 6514TIP3    H219484   7.465   1.081   3.922
 6515TIP3   OH219485   7.331   1.102   4.684
 6515TIP3    H119486   7.317   1.040   4.756
 6515TIP3    H219487   7.395   1.164   4.718
 6516TIP3   OH219488   7.281   3.621   1.186
 6516TIP3    H119489   7.336   3.611   1.263
 6516TIP3    H219490   7.287   3.714   1.164
 6517TIP3   OH219491   1.149   7.439   0.350
 6517TIP3    H119492   1.231   7.453   0.397
 6517TIP3    H219493   1.081   7.455   0.415
 6518TIP3   OH219494   5.762   1.646   2.324
 6518TIP3    H119495   5.807   1.691   2.395
 6518TIP3    H219496   5.830   1.625   2.261
 6519TIP3   OH219497   2.184   3.758   3.562
 6519TIP3    H119498   2.138   3.752   3.646
 6519TIP3    H219499   2.172   3.848   3.534
 6520TIP3   OH219500   3.243   5.310   2.692
 6520TIP3    H119501   3.281   5.223   2.705
 6520TIP3    H219502   3.317   5.367   2.674
 6521TIP3   OH219503   2.093   7.819   0.104
 6521TIP3    H119504   2.126   7.804   0.016
 6521TIP3    H219505   2.144   7.759   0.159
 6522TIP3   OH219506   4.605   7.447   5.349
 6522TIP3    H119507   4.570   7.470   5.263
 6522TIP3    H219508   4.540   7.387   5.386
 6523TIP3   OH219509   8.359   5.595   2.302
 6523TIP3    H119510   8.321   5.649   2.233
 6523TIP3    H219511   8.321   5.628   2.383
 6524TIP3   OH219512   8.299   6.469   1.385
 6524TIP3    H119513   8.265   6.556   1.406
 6524TIP3    H219514   8.391   6.483   1.363
 6525TIP3   OH219515   6.514   6.154   0.341
 6525TIP3    H119516   6.594   6.206   0.334
 6525TIP3    H219517   6.542   6.072   0.383
 6526TIP3   OH219518   3.248   3.257   2.800
 6526TIP3    H119519   3.168   3.228   2.756
 6526TIP3    H219520   3.227   3.255   2.893
 6527TIP3   OH219521   4.651   3.888   2.149
 6527TIP3    H119522   4.680   3.822   2.211
 6527TIP3    H219523   4.723   3.897   2.087
 6528TIP3   OH219524   4.013   2.288   5.682
 6528TIP3    H119525   4.055   2.298   5.597
 6528TIP3    H219526   3.930   2.334   5.674
 6529TIP3   OH219527   6.202   5.153   5.293
 6529TIP3    H119528   6.279   5.096   5.296
 6529TIP3    H219529   6.164   5.138   5.207
 6530TIP3   OH219530   8.265   5.597   4.216
 6530TIP3    H119531   8.257   5.521   4.273
 6530TIP3    H219532   8.192   5.588   4.154
 6531TIP3   OH219533   4.173   0.109   2.523
 6531TIP3    H119534   4.224   0.138   2.447
 6531TIP3    H219535   4.093   0.161   2.519
 6532TIP3   OH219536   3.651   7.541   3.797
 6532TIP3    H119537   3.722   7.531   3.734
 6532TIP3    H219538   3.574   7.558   3.744
 6533TIP3   OH219539   5.970   0.202   1.911
 6533TIP3    H119540   6.026   0.246   1.847
 6533TIP3    H219541   5.981   0.253   1.991
 6534TIP3   OH219542   5.100   0.645   5.948
 6534TIP3    H119543   5.033   0.710   5.930
 6534TIP3    H219544   5.061   0.588   6.015
 6535TIP3   OH219545   4.570   0.471   2.940
 6535TIP3    H119546   4.616   0.464   3.024
 6535TIP3    H219547   4.595   0.392   2.893
 6536TIP3   OH219548   8.136   7.629   1.134
 6536TIP3    H119549   8.133   7.592   1.046
 6536TIP3    H219550   8.219   7.597   1.171
 6537TIP3   OH219551   0.554   5.674   6.071
 6537TIP3    H119552   0.505   5.715   6.142
 6537TIP3    H219553   0.505   5.697   5.992
 6538TIP3   OH219554   6.700   0.457   3.983
 6538TIP3    H119555   6.619   0.458   4.035
 6538TIP3    H219556   6.671   0.436   3.894
 6539TIP3   OH219557   0.075   3.389   6.773
 6539TIP3    H119558   0.006   3.340   6.816
 6539TIP3    H219559   0.049   3.481   6.782
 6540TIP3   OH219560   4.867   5.572   5.469
 6540TIP3    H119561   4.777   5.594   5.494
 6540TIP3    H219562   4.874   5.478   5.485
 6541TIP3   OH219563   3.847   0.407   6.455
 6541TIP3    H119564   3.888   0.438   6.375
 6541TIP3    H219565   3.882   0.319   6.468
 6542TIP3   OH219566   6.604   6.982   3.293
 6542TIP3    H119567   6.658   7.027   3.229
 6542TIP3    H219568   6.646   7.000   3.377
 6543TIP3   OH219569   0.845   6.723   1.408
 6543TIP3    H119570   0.848   6.818   1.422
 6543TIP3    H219571   0.915   6.705   1.346
 6544TIP3   OH219572   7.055   4.228   4.666
 6544TIP3    H119573   7.039   4.316   4.701
 6544TIP3    H219574   6.992   4.172   4.712
 6545TIP3   OH219575   3.939   1.029   6.331
 6545TIP3    H119576   3.888   1.094   6.380
 6545TIP3    H219577   4.006   1.080   6.285
 6546TIP3   OH219578   0.067   5.089   5.389
 6546TIP3    H119579   0.029   5.002   5.381
 6546TIP3    H219580   0.137   5.080   5.454
 6547TIP3   OH219581   2.560   1.477   0.393
 6547TIP3    H119582   2.492   1.417   0.363
 6547TIP3    H219583   2.629   1.419   0.427
 6548TIP3   OH219584   0.436   7.841   3.363
 6548TIP3    H119585   0.466   7.868   3.450
 6548TIP3    H219586   0.494   7.768   3.339
 6549TIP3   OH219587   4.652   3.261   2.326
 6549TIP3    H119588   4.705   3.323   2.376
 6549TIP3    H219589   4.562   3.278   2.355
 6550TIP3   OH219590   4.804   5.221   3.677
 6550TIP3    H119591   4.712   5.244   3.662
 6550TIP3    H219592   4.805   5.176   3.761
 6551TIP3   OH219593   3.161   6.763   1.897
 6551TIP3    H119594   3.152   6.696   1.829
 6551TIP3    H219595   3.087   6.748   1.955
 6552TIP3   OH219596   4.432   5.564   2.753
 6552TIP3    H119597   4.463   5.475   2.736
 6552TIP3    H219598   4.510   5.619   2.746
 6553TIP3   OH219599   0.495   7.478   6.138
 6553TIP3    H119600   0.404   7.505   6.124
 6553TIP3    H219601   0.492   7.383   6.141
 6554TIP3   OH219602   2.219   6.321   0.179
 6554TIP3    H119603   2.194   6.299   0.268
 6554TIP3    H219604   2.203   6.242   0.129
 6555TIP3   OH219605   5.661   5.342   5.189
 6555TIP3    H119606   5.731   5.407   5.193
 6555TIP3    H219607   5.687   5.283   5.119
 6556TIP3   OH219608   1.627   0.047   0.992
 6556TIP3    H119609   1.695   0.051   1.059
 6556TIP3    H219610   1.658   0.107   0.923
 6557TIP3   OH219611   5.422   7.460   4.656
 6557TIP3    H119612   5.331   7.484   4.673
 6557TIP3    H219613   5.428   7.454   4.561
 6558TIP3   OH219614   7.276   1.191   3.488
 6558TIP3    H119615   7.311   1.102   3.478
 6558TIP3    H219616   7.330   1.245   3.430
 6559TIP3   OH219617   1.516   1.381   1.129
 6559TIP3    H119618   1.595   1.328   1.142
 6559TIP3    H219619   1.445   1.317   1.122
 6560TIP3   OH219620   6.561   6.935   4.851
 6560TIP3    H119621   6.501   6.923   4.924
 6560TIP3    H219622   6.647   6.909   4.886
 6561TIP3   OH219623   0.165   5.745   1.141
 6561TIP3    H119624   0.162   5.801   1.219
 6561TIP3    H219625   0.243   5.775   1.094
 6562TIP3   OH219626   7.448   7.564  -0.023
 6562TIP3    H119627   7.534   7.602  -0.007
 6562TIP3    H219628   7.420   7.532   0.063
 6563TIP3   OH219629   1.777   4.729   2.305
 6563TIP3    H119630   1.716   4.674   2.353
 6563TIP3    H219631   1.753   4.717   2.213
 6564TIP3   OH219632   1.531   7.293   3.862
 6564TIP3    H119633   1.436   7.301   3.851
 6564TIP3    H219634   1.568   7.357   3.802
 6565TIP3   OH219635   6.320   5.059   0.045
 6565TIP3    H119636   6.263   5.002  -0.007
 6565TIP3    H219637   6.407   5.021   0.035
 6566TIP3   OH219638   0.944   5.251   2.170
 6566TIP3    H119639   0.982   5.255   2.258
 6566TIP3    H219640   0.860   5.296   2.179
 6567TIP3   OH219641   2.274   2.817   3.472
 6567TIP3    H119642   2.361   2.830   3.436
 6567TIP3    H219643   2.266   2.883   3.541
 6568TIP3   OH219644   1.607   6.185   0.913
 6568TIP3    H119645   1.601   6.099   0.871
 6568TIP3    H219646   1.661   6.170   0.991
 6569TIP3   OH219647   1.039   7.613   4.963
 6569TIP3    H119648   1.066   7.568   5.043
 6569TIP3    H219649   0.994   7.546   4.912
 6570TIP3   OH219650   1.292   0.290   4.369
 6570TIP3    H119651   1.238   0.212   4.376
 6570TIP3    H219652   1.249   0.355   4.425
 6571TIP3   OH219653   3.054   4.679   2.592
 6571TIP3    H119654   3.092   4.656   2.677
 6571TIP3    H219655   3.028   4.771   2.603
 6572TIP3   OH219656   5.920   1.929   0.678
 6572TIP3    H119657   5.844   1.987   0.680
 6572TIP3    H219658   5.985   1.976   0.626
 6573TIP3   OH219659   3.582   3.058   1.671
 6573TIP3    H119660   3.508   3.092   1.621
 6573TIP3    H219661   3.586   2.966   1.648
 6574TIP3   OH219662   4.105   3.331   2.517
 6574TIP3    H119663   4.058   3.316   2.436
 6574TIP3    H219664   4.094   3.250   2.567
 6575TIP3   OH219665   7.546   0.721   1.120
 6575TIP3    H119666   7.573   0.766   1.039
 6575TIP3    H219667   7.553   0.788   1.188
 6576TIP3   OH219668   4.554   3.869   3.014
 6576TIP3    H119669   4.557   3.896   3.105
 6576TIP3    H219670   4.604   3.787   3.012
 6577TIP3   OH219671   8.129   7.184   1.357
 6577TIP3    H119672   8.096   7.152   1.441
 6577TIP3    H219673   8.129   7.108   1.300
 6578TIP3   OH219674   5.058   4.658   4.645
 6578TIP3    H119675   5.101   4.598   4.584
 6578TIP3    H219676   5.107   4.649   4.726
 6579TIP3   OH219677   8.162   6.940   0.344
 6579TIP3    H119678   8.189   6.896   0.424
 6579TIP3    H219679   8.217   7.018   0.339
 6580TIP3   OH219680   7.988   6.864   2.918
 6580TIP3    H119681   8.017   6.824   2.836
 6580TIP3    H219682   8.055   6.930   2.937
 6581TIP3   OH219683   4.337   0.097   1.783
 6581TIP3    H119684   4.297   0.123   1.700
 6581TIP3    H219685   4.302   0.009   1.800
 6582TIP3   OH219686   2.257   5.805   4.171
 6582TIP3    H119687   2.170   5.798   4.131
 6582TIP3    H219688   2.259   5.893   4.208
 6583TIP3   OH219689   6.326   0.725   5.067
 6583TIP3    H119690   6.235   0.697   5.077
 6583TIP3    H219691   6.340   0.785   5.141
 6584TIP3   OH219692   6.081   4.157   1.754
 6584TIP3    H119693   6.160   4.118   1.717
 6584TIP3    H219694   6.019   4.160   1.681
 6585TIP3   OH219695   4.184   6.236   4.731
 6585TIP3    H119696   4.220   6.233   4.820
 6585TIP3    H219697   4.259   6.255   4.675
 6586TIP3   OH219698   8.005   6.052   5.300
 6586TIP3    H119699   8.036   6.140   5.278
 6586TIP3    H219700   8.033   6.039   5.391
 6587TIP3   OH219701   5.704   2.371   5.475
 6587TIP3    H119702   5.656   2.454   5.478
 6587TIP3    H219703   5.748   2.372   5.390
 6588TIP3   OH219704   4.317   2.063   3.485
 6588TIP3    H119705   4.325   2.135   3.423
 6588TIP3    H219706   4.281   2.104   3.564
 6589TIP3   OH219707   3.459   2.997   4.038
 6589TIP3    H119708   3.465   2.905   4.064
 6589TIP3    H219709   3.547   3.031   4.048
 6590TIP3   OH219710   6.231   5.398   1.972
 6590TIP3    H119711   6.323   5.391   1.944
 6590TIP3    H219712   6.235   5.394   2.067
 6591TIP3   OH219713   5.628   5.424   1.366
 6591TIP3    H119714   5.585   5.449   1.448
 6591TIP3    H219715   5.685   5.498   1.346
 6592TIP3   OH219716   7.048   4.802   5.943
 6592TIP3    H119717   7.055   4.836   5.853
 6592TIP3    H219718   6.995   4.723   5.935
 6593TIP3   OH219719   6.088   3.523   1.358
 6593TIP3    H119720   6.172   3.488   1.390
 6593TIP3    H219721   6.084   3.611   1.396
 6594TIP3   OH219722   4.951   7.713   6.116
 6594TIP3    H119723   4.940   7.684   6.206
 6594TIP3    H219724   4.898   7.651   6.065
 6595TIP3   OH219725   7.052   2.450   6.669
 6595TIP3    H119726   7.043   2.519   6.734
 6595TIP3    H219727   7.128   2.475   6.617
 6596TIP3   OH219728   0.343   6.393   2.100
 6596TIP3    H119729   0.259   6.346   2.103
 6596TIP3    H219730   0.396   6.343   2.038
 6597TIP3   OH219731   5.416   1.126   3.811
 6597TIP3    H119732   5.386   1.195   3.869
 6597TIP3    H219733   5.383   1.151   3.725
 6598TIP3   OH219734   8.003   7.246   6.187
 6598TIP3    H119735   8.064   7.315   6.159
 6598TIP3    H219736   7.928   7.294   6.221
 6599TIP3   OH219737   4.682   5.652   1.151
 6599TIP3    H119738   4.661   5.684   1.239
 6599TIP3    H219739   4.665   5.558   1.156
 6600TIP3   OH219740   2.161   7.169   4.311
 6600TIP3    H119741   2.067   7.183   4.297
 6600TIP3    H219742   2.197   7.257   4.322
 6601TIP3   OH219743   3.742   4.705   1.244
 6601TIP3    H119744   3.692   4.772   1.290
 6601TIP3    H219745   3.735   4.730   1.152
 6602TIP3   OH219746   3.129   4.585   6.316
 6602TIP3    H119747   3.063   4.515   6.310
 6602TIP3    H219748   3.100   4.637   6.391
 6603TIP3   OH219749   0.180   1.058   4.164
 6603TIP3    H119750   0.160   0.976   4.207
 6603TIP3    H219751   0.248   1.099   4.218
 6604TIP3   OH219752   1.201   5.991   6.016
 6604TIP3    H119753   1.213   6.086   6.017
 6604TIP3    H219754   1.197   5.968   5.924
 6605TIP3   OH219755   6.227   3.202   0.840
 6605TIP3    H119756   6.265   3.258   0.907
 6605TIP3    H219757   6.296   3.139   0.820
 6606TIP3   OH219758   7.989   0.447   0.343
 6606TIP3    H119759   8.063   0.432   0.283
 6606TIP3    H219760   8.029   0.486   0.421
 6607TIP3   OH219761   3.676   3.679   6.894
 6607TIP3    H119762   3.643   3.764   6.865
 6607TIP3    H219763   3.726   3.646   6.819
 6608TIP3   OH219764   0.608   2.258   6.474
 6608TIP3    H119765   0.637   2.290   6.388
 6608TIP3    H219766   0.524   2.300   6.488
 6609TIP3   OH219767   2.591   3.683   4.080
 6609TIP3    H119768   2.582   3.648   3.991
 6609TIP3    H219769   2.671   3.734   4.079
 6610TIP3   OH219770   5.980   3.097   0.833
 6610TIP3    H119771   5.919   3.170   0.832
 6610TIP3    H219772   6.066   3.137   0.846
 6611TIP3   OH219773   3.752   0.836   2.939
 6611TIP3    H119774   3.807   0.899   2.985
 6611TIP3    H219775   3.814   0.782   2.890
 6612TIP3   OH219776   4.113   5.933   2.548
 6612TIP3    H119777   4.178   5.905   2.612
 6612TIP3    H219778   4.060   5.998   2.594
 6613TIP3   OH219779   5.685   2.144   5.205
 6613TIP3    H119780   5.707   2.236   5.214
 6613TIP3    H219781   5.684   2.128   5.110
 6614TIP3   OH219782   4.559   3.247   1.849
 6614TIP3    H119783   4.589   3.299   1.923
 6614TIP3    H219784   4.481   3.202   1.882
 6615TIP3   OH219785   8.027   4.375   6.827
 6615TIP3    H119786   7.984   4.298   6.790
 6615TIP3    H219787   8.057   4.347   6.913
 6616TIP3   OH219788   1.775   1.273   4.011
 6616TIP3    H119789   1.708   1.236   4.069
 6616TIP3    H219790   1.804   1.199   3.958
 6617TIP3   OH219791   5.711   6.469   4.566
 6617TIP3    H119792   5.633   6.484   4.619
 6617TIP3    H219793   5.688   6.394   4.511
 6618TIP3   OH219794   0.644   5.305   5.130
 6618TIP3    H119795   0.573   5.341   5.077
 6618TIP3    H219796   0.711   5.280   5.067
 6619TIP3   OH219797   6.544   3.880   0.936
 6619TIP3    H119798   6.635   3.849   0.945
 6619TIP3    H219799   6.504   3.819   0.874
 6620TIP3   OH219800   8.159   1.641   1.948
 6620TIP3    H119801   8.113   1.564   1.914
 6620TIP3    H219802   8.243   1.608   1.978
 6621TIP3   OH219803   2.351   3.445   0.241
 6621TIP3    H119804   2.339   3.531   0.202
 6621TIP3    H219805   2.363   3.386   0.167
 6622TIP3   OH219806   6.046   7.398   6.290
 6622TIP3    H119807   5.975   7.448   6.331
 6622TIP3    H219808   6.074   7.337   6.357
 6623TIP3   OH219809   1.528   5.529   0.439
 6623TIP3    H119810   1.505   5.536   0.532
 6623TIP3    H219811   1.562   5.615   0.416
 6624TIP3   OH219812   1.096   0.046   5.246
 6624TIP3    H119813   1.103   0.138   5.272
 6624TIP3    H219814   1.154   0.000   5.307
 6625TIP3   OH219815   2.603   2.066   5.769
 6625TIP3    H119816   2.633   2.105   5.851
 6625TIP3    H219817   2.556   2.137   5.725
 6626TIP3   OH219818   0.972   0.571   0.697
 6626TIP3    H119819   0.947   0.663   0.706
 6626TIP3    H219820   1.061   0.567   0.732
 6627TIP3   OH219821   2.267   5.247   4.671
 6627TIP3    H119822   2.204   5.319   4.666
 6627TIP3    H219823   2.270   5.225   4.765
 6628TIP3   OH219824   0.402   1.042   3.313
 6628TIP3    H119825   0.410   0.946   3.312
 6628TIP3    H219826   0.492   1.074   3.307
 6629TIP3   OH219827   8.357   5.520   0.025
 6629TIP3    H119828   8.375   5.441  -0.026
 6629TIP3    H219829   8.431   5.578   0.007
 6630TIP3   OH219830   5.773   5.983   0.307
 6630TIP3    H119831   5.835   6.039   0.260
 6630TIP3    H219832   5.740   6.037   0.378
 6631TIP3   OH219833   0.429   6.860   3.021
 6631TIP3    H119834   0.422   6.934   3.081
 6631TIP3    H219835   0.485   6.797   3.067
 6632TIP3   OH219836   7.822   3.970   5.374
 6632TIP3    H119837   7.891   4.026   5.409
 6632TIP3    H219838   7.757   4.031   5.338
 6633TIP3   OH219839   1.074   7.674   0.192
 6633TIP3    H119840   1.141   7.638   0.250
 6633TIP3    H219841   1.039   7.598   0.146
 6634TIP3   OH219842   5.119   1.546   0.716
 6634TIP3    H119843   5.164   1.536   0.632
 6634TIP3    H219844   5.071   1.464   0.727
 6635TIP3   OH219845   0.913   4.766   3.158
 6635TIP3    H119846   0.877   4.685   3.192
 6635TIP3    H219847   1.000   4.742   3.124
 6636TIP3   OH219848   5.434   2.650   0.260
 6636TIP3    H119849   5.437   2.579   0.196
 6636TIP3    H219850   5.385   2.614   0.334
 6637TIP3   OH219851   0.496   3.034   5.494
 6637TIP3    H119852   0.484   2.962   5.557
 6637TIP3    H219853   0.576   3.011   5.447
 6638TIP3   OH219854   8.242   1.929   4.256
 6638TIP3    H119855   8.291   1.847   4.246
 6638TIP3    H219856   8.262   1.978   4.176
 6639TIP3   OH219857   8.157   5.177   6.069
 6639TIP3    H119858   8.226   5.216   6.015
 6639TIP3    H219859   8.192   5.178   6.158
 6640TIP3   OH219860   7.071   1.070   3.793
 6640TIP3    H119861   7.024   0.994   3.825
 6640TIP3    H219862   7.126   1.098   3.866
 6641TIP3   OH219863   2.066   2.351   0.149
 6641TIP3    H119864   1.990   2.336   0.092
 6641TIP3    H219865   2.049   2.298   0.227
 6642TIP3   OH219866   8.255   3.535   5.221
 6642TIP3    H119867   8.250   3.452   5.267
 6642TIP3    H219868   8.322   3.585   5.268
 6643TIP3   OH219869   4.927   3.525   1.013
 6643TIP3    H119870   4.902   3.452   0.956
 6643TIP3    H219871   4.975   3.584   0.956
 6644TIP3   OH219872   7.515   7.725   3.470
 6644TIP3    H119873   7.541   7.736   3.561
 6644TIP3    H219874   7.431   7.771   3.464
 6645TIP3   OH219875   1.811   6.241   3.675
 6645TIP3    H119876   1.906   6.247   3.687
 6645TIP3    H219877   1.779   6.329   3.694
 6646TIP3   OH219878   3.820   2.091   4.700
 6646TIP3    H119879   3.873   2.171   4.698
 6646TIP3    H219880   3.839   2.048   4.617
 6647TIP3   OH219881   2.956   0.551   0.080
 6647TIP3    H119882   2.892   0.488   0.047
 6647TIP3    H219883   3.004   0.503   0.147
 6648TIP3   OH219884   2.278   5.561   1.801
 6648TIP3    H119885   2.229   5.483   1.827
 6648TIP3    H219886   2.250   5.577   1.710
 6649TIP3   OH219887   6.268   6.823   4.597
 6649TIP3    H119888   6.352   6.792   4.565
 6649TIP3    H219889   6.204   6.761   4.562
 6650TIP3   OH219890   8.291   1.095   6.669
 6650TIP3    H119891   8.324   1.013   6.706
 6650TIP3    H219892   8.300   1.159   6.740
 6651TIP3   OH219893   6.142   6.066   1.505
 6651TIP3    H119894   6.188   6.043   1.424
 6651TIP3    H219895   6.178   6.006   1.571
 6652TIP3   OH219896   1.773   4.521   1.747
 6652TIP3    H119897   1.816   4.506   1.663
 6652TIP3    H219898   1.705   4.586   1.728
 6653TIP3   OH219899   4.732   4.331   1.436
 6653TIP3    H119900   4.757   4.348   1.527
 6653TIP3    H219901   4.731   4.417   1.395
 6654TIP3   OH219902   8.247   6.061   2.655
 6654TIP3    H119903   8.166   6.095   2.618
 6654TIP3    H219904   8.305   6.137   2.660
 6655TIP3   OH219905   0.765   3.993   0.246
 6655TIP3    H119906   0.732   4.034   0.167
 6655TIP3    H219907   0.861   3.997   0.237
 6656TIP3   OH219908   3.947   7.732   4.859
 6656TIP3    H119909   3.892   7.794   4.907
 6656TIP3    H219910   3.939   7.759   4.768
 6657TIP3   OH219911   5.257   1.702   0.910
 6657TIP3    H119912   5.326   1.663   0.965
 6657TIP3    H219913   5.219   1.627   0.864
 6658TIP3   OH219914   0.711   1.857   0.184
 6658TIP3    H119915   0.661   1.865   0.103
 6658TIP3    H219916   0.728   1.763   0.193
 6659TIP3   OH219917   2.982   7.760   0.306
 6659TIP3    H119918   3.067   7.756   0.263
 6659TIP3    H219919   3.002   7.749   0.399
 6660TIP3   OH219920   2.897   7.442   2.971
 6660TIP3    H119921   2.814   7.449   2.923
 6660TIP3    H219922   2.875   7.473   3.059
 6661TIP3   OH219923   4.622   7.108   6.732
 6661TIP3    H119924   4.623   7.109   6.827
 6661TIP3    H219925   4.707   7.071   6.708
 6662TIP3   OH219926   5.915   1.097   6.665
 6662TIP3    H119927   5.836   1.104   6.719
 6662TIP3    H219928   5.986   1.123   6.722
 6663TIP3   OH219929   7.797   3.638   2.218
 6663TIP3    H119930   7.845   3.711   2.179
 6663TIP3    H219931   7.827   3.635   2.309
 6664TIP3   OH219932   4.967   2.192   3.916
 6664TIP3    H119933   4.995   2.223   3.830
 6664TIP3    H219934   5.020   2.243   3.977
 6665TIP3   OH219935   2.889   2.424   3.403
 6665TIP3    H119936   2.820   2.488   3.418
 6665TIP3    H219937   2.895   2.376   3.485
 6666TIP3   OH219938   5.784   7.367   4.681
 6666TIP3    H119939   5.735   7.382   4.600
 6666TIP3    H219940   5.759   7.278   4.708
 6667TIP3   OH219941   2.262   6.051   4.304
 6667TIP3    H119942   2.193   6.096   4.353
 6667TIP3    H219943   2.343   6.080   4.346
 6668TIP3   OH219944   0.596   6.358   4.683
 6668TIP3    H119945   0.602   6.450   4.709
 6668TIP3    H219946   0.686   6.327   4.686
 6669TIP3   OH219947   1.935   4.442   3.574
 6669TIP3    H119948   1.877   4.511   3.543
 6669TIP3    H219949   1.987   4.418   3.497
 6670TIP3   OH219950   5.163   4.748   1.426
 6670TIP3    H119951   5.073   4.745   1.459
 6670TIP3    H219952   5.171   4.833   1.384
 6671TIP3   OH219953   1.483   6.436   6.389
 6671TIP3    H119954   1.409   6.493   6.371
 6671TIP3    H219955   1.486   6.429   6.484
 6672TIP3   OH219956   8.386   5.320   0.581
 6672TIP3    H119957   8.337   5.295   0.660
 6672TIP3    H219958   8.435   5.398   0.607
 6673TIP3   OH219959   7.946   0.142   6.258
 6673TIP3    H119960   8.013   0.077   6.279
 6673TIP3    H219961   7.902   0.159   6.341
 6674TIP3   OH219962   0.082   2.394   2.736
 6674TIP3    H119963   0.027   2.336   2.789
 6674TIP3    H219964   0.043   2.481   2.748
 6675TIP3   OH219965   6.725   0.185   1.900
 6675TIP3    H119966   6.642   0.220   1.868
 6675TIP3    H219967   6.714   0.090   1.896
 6676TIP3   OH219968   3.342   0.560   3.525
 6676TIP3    H119969   3.410   0.594   3.583
 6676TIP3    H219970   3.332   0.468   3.551
 6677TIP3   OH219971   4.974   6.282   0.375
 6677TIP3    H119972   4.992   6.350   0.440
 6677TIP3    H219973   4.913   6.223   0.419
 6678TIP3   OH219974   1.626   5.005   1.699
 6678TIP3    H119975   1.707   5.045   1.730
 6678TIP3    H219976   1.588   5.070   1.640
 6679TIP3   OH219977   0.578   0.408   4.165
 6679TIP3    H119978   0.530   0.407   4.082
 6679TIP3    H219979   0.527   0.466   4.221
 6680TIP3   OH219980   0.683   2.976   1.567
 6680TIP3    H119981   0.725   3.060   1.586
 6680TIP3    H219982   0.591   2.991   1.588
 6681TIP3   OH219983   3.915   1.546   3.832
 6681TIP3    H119984   3.920   1.488   3.756
 6681TIP3    H219985   3.821   1.563   3.843
 6682TIP3   OH219986   4.916   4.813   1.507
 6682TIP3    H119987   4.870   4.889   1.471
 6682TIP3    H219988   4.895   4.815   1.601
 6683TIP3   OH219989   4.567   5.089   6.527
 6683TIP3    H119990   4.653   5.131   6.537
 6683TIP3    H219991   4.577   5.031   6.452
 6684TIP3   OH219992   7.536   4.958   6.705
 6684TIP3    H119993   7.595   4.884   6.688
 6684TIP3    H219994   7.586   5.035   6.679
 6685TIP3   OH219995   7.516   3.475   4.491
 6685TIP3    H119996   7.497   3.450   4.581
 6685TIP3    H219997   7.553   3.397   4.450
 6686TIP3   OH219998   2.995   1.306   0.968
 6686TIP3    H119999   2.994   1.316   1.064
 6686TIP3    H220000   2.967   1.392   0.935
 6687TIP3   OH220001   0.924   2.338   1.254
 6687TIP3    H120002   0.931   2.361   1.346
 6687TIP3    H220003   0.868   2.261   1.252
 6688TIP3   OH220004   5.623   0.709   0.813
 6688TIP3    H120005   5.676   0.639   0.773
 6688TIP3    H220006   5.539   0.667   0.830
 6689TIP3   OH220007   2.006   0.222   2.202
 6689TIP3    H120008   2.027   0.315   2.207
 6689TIP3    H220009   2.091   0.179   2.190
 6690TIP3   OH220010   4.342   7.096   1.530
 6690TIP3    H120011   4.356   7.036   1.603
 6690TIP3    H220012   4.428   7.106   1.490
 6691TIP3   OH220013   5.734   5.505   6.207
 6691TIP3    H120014   5.776   5.429   6.165
 6691TIP3    H220015   5.754   5.495   6.300
 6692TIP3   OH220016   3.472   7.287   4.090
 6692TIP3    H120017   3.435   7.374   4.072
 6692TIP3    H220018   3.561   7.291   4.055
 6693TIP3   OH220019   5.316   0.372   6.105
 6693TIP3    H120020   5.369   0.332   6.175
 6693TIP3    H220021   5.237   0.401   6.150
 6694TIP3   OH220022   5.770   5.021   5.270
 6694TIP3    H120023   5.844   5.041   5.213
 6694TIP3    H220024   5.800   4.946   5.322
 6695TIP3   OH220025   5.049   3.047   3.715
 6695TIP3    H120026   5.056   3.097   3.797
 6695TIP3    H220027   5.058   2.956   3.741
 6696TIP3   OH220028   3.848   0.574   4.771
 6696TIP3    H120029   3.765   0.552   4.729
 6696TIP3    H220030   3.888   0.490   4.791
 6697TIP3   OH220031   4.835   7.001   3.193
 6697TIP3    H120032   4.903   6.938   3.217
 6697TIP3    H220033   4.757   6.971   3.239
 6698TIP3   OH220034   0.100   6.829   0.424
 6698TIP3    H120035   0.077   6.860   0.337
 6698TIP3    H220036   0.143   6.745   0.409
 6699TIP3   OH220037   5.440   7.886   1.597
 6699TIP3    H120038   5.489   7.807   1.575
 6699TIP3    H220039   5.504   7.957   1.586
 6700TIP3   OH220040   1.692   0.879   4.209
 6700TIP3    H120041   1.699   0.787   4.183
 6700TIP3    H220042   1.730   0.882   4.297
 6701TIP3   OH220043   2.895   5.159   4.412
 6701TIP3    H120044   2.916   5.184   4.322
 6701TIP3    H220045   2.824   5.095   4.403
 6702TIP3   OH220046   3.308   1.672   2.326
 6702TIP3    H120047   3.291   1.595   2.271
 6702TIP3    H220048   3.298   1.746   2.266
 6703TIP3   OH220049   3.854   4.396   6.704
 6703TIP3    H120050   3.938   4.441   6.691
 6703TIP3    H220051   3.807   4.451   6.767
 6704TIP3   OH220052   8.017   7.529   4.586
 6704TIP3    H120053   8.102   7.536   4.544
 6704TIP3    H220054   8.005   7.435   4.601
 6705TIP3   OH220055   7.795   3.488   0.728
 6705TIP3    H120056   7.854   3.418   0.757
 6705TIP3    H220057   7.852   3.563   0.713
 6706TIP3   OH220058   5.809   1.910   5.316
 6706TIP3    H120059   5.793   1.877   5.405
 6706TIP3    H220060   5.747   1.982   5.305
 6707TIP3   OH220061   6.104   2.327   6.149
 6707TIP3    H120062   6.175   2.387   6.171
 6707TIP3    H220063   6.030   2.356   6.203
 6708TIP3   OH220064   7.878   7.476   5.671
 6708TIP3    H120065   7.812   7.516   5.727
 6708TIP3    H220066   7.934   7.427   5.731
 6709TIP3   OH220067   4.621   4.968   3.725
 6709TIP3    H120068   4.628   5.005   3.637
 6709TIP3    H220069   4.532   4.990   3.753
 6710TIP3   OH220070   6.337   3.743   1.310
 6710TIP3    H120071   6.411   3.688   1.283
 6710TIP3    H220072   6.318   3.796   1.233
 6711TIP3   OH220073   5.296   3.052   1.848
 6711TIP3    H120074   5.378   3.089   1.818
 6711TIP3    H220075   5.237   3.127   1.856
 6712TIP3   OH220076   4.249   6.867   2.904
 6712TIP3    H120077   4.280   6.807   2.972
 6712TIP3    H220078   4.154   6.873   2.918
 6713TIP3   OH220079   7.303   3.276   6.475
 6713TIP3    H120080   7.285   3.278   6.381
 6713TIP3    H220081   7.243   3.211   6.510
 6714TIP3   OH220082   3.277   5.235   4.311
 6714TIP3    H120083   3.295   5.179   4.387
 6714TIP3    H220084   3.332   5.200   4.241
 6715TIP3   OH220085   1.715   6.826   3.904
 6715TIP3    H120086   1.772   6.760   3.942
 6715TIP3    H220087   1.678   6.784   3.826
 6716TIP3   OH220088   3.433   5.481   4.974
 6716TIP3    H120089   3.425   5.473   5.069
 6716TIP3    H220090   3.524   5.509   4.960
 6717TIP3   OH220091   4.054   2.816   4.738
 6717TIP3    H120092   4.053   2.907   4.709
 6717TIP3    H220093   3.976   2.777   4.698
 6718TIP3   OH220094   6.988   6.288   2.086
 6718TIP3    H120095   7.005   6.206   2.040
 6718TIP3    H220096   6.923   6.267   2.153
 6719TIP3   OH220097   2.596   0.851   3.372
 6719TIP3    H120098   2.615   0.759   3.389
 6719TIP3    H220099   2.527   0.873   3.434
 6720TIP3   OH220100   5.675   2.555   2.519
 6720TIP3    H120101   5.591   2.525   2.484
 6720TIP3    H220102   5.690   2.640   2.478
 6721TIP3   OH220103   3.047   4.941   2.640
 6721TIP3    H120104   2.968   4.988   2.665
 6721TIP3    H220105   3.118   4.990   2.683
 6722TIP3   OH220106   1.175   7.017   2.601
 6722TIP3    H120107   1.081   7.003   2.592
 6722TIP3    H220108   1.213   6.989   2.518
 6723TIP3   OH220109   0.556   6.186   0.159
 6723TIP3    H120110   0.549   6.095   0.132
 6723TIP3    H220111   0.593   6.232   0.083
 6724TIP3   OH220112   0.242   3.585   2.067
 6724TIP3    H120113   0.332   3.585   2.036
 6724TIP3    H220114   0.225   3.495   2.093
 6725TIP3   OH220115   0.341   6.468   1.796
 6725TIP3    H120116   0.413   6.433   1.848
 6725TIP3    H220117   0.268   6.409   1.813
 6726TIP3   OH220118   0.091   7.457   2.899
 6726TIP3    H120119   0.149   7.457   2.975
 6726TIP3    H220120   0.006   7.486   2.934
 6727TIP3   OH220121   4.873   2.910   4.750
 6727TIP3    H120122   4.875   3.003   4.728
 6727TIP3    H220123   4.786   2.881   4.724
 6728TIP3   OH220124   1.862   0.452   3.318
 6728TIP3    H120125   1.827   0.364   3.304
 6728TIP3    H220126   1.929   0.441   3.386
 6729TIP3   OH220127   7.129   5.277   0.749
 6729TIP3    H120128   7.086   5.340   0.808
 6729TIP3    H220129   7.222   5.288   0.766
 6730TIP3   OH220130   0.525   5.936   1.250
 6730TIP3    H120131   0.435   5.918   1.222
 6730TIP3    H220132   0.553   6.008   1.193
 6731TIP3   OH220133   4.012   1.505   5.898
 6731TIP3    H120134   4.007   1.482   5.991
 6731TIP3    H220135   3.936   1.562   5.884
 6732TIP3   OH220136   1.351   0.951   6.067
 6732TIP3    H120137   1.444   0.968   6.052
 6732TIP3    H220138   1.322   0.907   5.987
 6733TIP3   OH220139   7.027   4.414   2.735
 6733TIP3    H120140   7.107   4.424   2.786
 6733TIP3    H220141   7.057   4.388   2.648
 6734TIP3   OH220142   6.238   2.032   4.987
 6734TIP3    H120143   6.329   2.058   4.973
 6734TIP3    H220144   6.204   2.013   4.900
 6735TIP3   OH220145   0.615   0.648   1.959
 6735TIP3    H120146   0.579   0.560   1.958
 6735TIP3    H220147   0.546   0.702   1.920
 6736TIP3   OH220148   7.938   7.368   3.582
 6736TIP3    H120149   7.945   7.395   3.490
 6736TIP3    H220150   7.872   7.299   3.582
 6737TIP3   OH220151   2.874   6.304   3.473
 6737TIP3    H120152   2.855   6.235   3.410
 6737TIP3    H220153   2.939   6.266   3.532
 6738TIP3   OH220154   5.574   2.608   5.432
 6738TIP3    H120155   5.611   2.684   5.386
 6738TIP3    H220156   5.549   2.642   5.518
 6739TIP3   OH220157   4.532   0.713   1.394
 6739TIP3    H120158   4.626   0.704   1.377
 6739TIP3    H220159   4.493   0.642   1.342
 6740TIP3   OH220160   5.671   7.176   0.515
 6740TIP3    H120161   5.735   7.209   0.577
 6740TIP3    H220162   5.703   7.205   0.429
 6741TIP3   OH220163   1.884   5.519   3.639
 6741TIP3    H120164   1.850   5.434   3.666
 6741TIP3    H220165   1.937   5.500   3.562
 6742TIP3   OH220166   0.421   2.732   4.157
 6742TIP3    H120167   0.349   2.696   4.209
 6742TIP3    H220168   0.499   2.693   4.196
 6743TIP3   OH220169   2.994   1.993   0.508
 6743TIP3    H120170   3.062   2.000   0.575
 6743TIP3    H220171   2.996   1.901   0.481
 6744TIP3   OH220172   4.378   1.818   0.651
 6744TIP3    H120173   4.299   1.871   0.637
 6744TIP3    H220174   4.346   1.735   0.685
 6745TIP3   OH220175   7.655   0.306   4.166
 6745TIP3    H120176   7.741   0.289   4.205
 6745TIP3    H220177   7.670   0.382   4.110
 6746TIP3   OH220178   2.878   4.544   6.757
 6746TIP3    H120179   2.827   4.476   6.713
 6746TIP3    H220180   2.951   4.497   6.797
 6747TIP3   OH220181   2.340   7.877   2.628
 6747TIP3    H120182   2.433   7.876   2.603
 6747TIP3    H220183   2.308   7.790   2.604
 6748TIP3   OH220184   6.575   3.627   1.246
 6748TIP3    H120185   6.618   3.604   1.164
 6748TIP3    H220186   6.635   3.599   1.314
 6749TIP3   OH220187   6.215   4.100   1.381
 6749TIP3    H120188   6.268   4.141   1.313
 6749TIP3    H220189   6.276   4.079   1.451
 6750TIP3   OH220190   5.843   2.174   5.621
 6750TIP3    H120191   5.823   2.251   5.569
 6750TIP3    H220192   5.927   2.143   5.586
 6751TIP3   OH220193   0.155   1.703   5.227
 6751TIP3    H120194   0.190   1.694   5.138
 6751TIP3    H220195   0.076   1.649   5.227
 6752TIP3   OH220196   3.672   6.544   6.266
 6752TIP3    H120197   3.716   6.556   6.350
 6752TIP3    H220198   3.657   6.632   6.233
 6753TIP3   OH220199   7.451   0.857   2.815
 6753TIP3    H120200   7.355   0.859   2.825
 6753TIP3    H220201   7.482   0.927   2.872
 6754TIP3   OH220202   5.393   6.379   4.278
 6754TIP3    H120203   5.325   6.312   4.285
 6754TIP3    H220204   5.345   6.462   4.282
 6755TIP3   OH220205   7.317   1.586   2.821
 6755TIP3    H120206   7.317   1.659   2.884
 6755TIP3    H220207   7.402   1.545   2.833
 6756TIP3   OH220208   5.662   1.099   0.957
 6756TIP3    H120209   5.746   1.058   0.977
 6756TIP3    H220210   5.637   1.062   0.872
 6757TIP3   OH220211   7.486   7.321   5.168
 6757TIP3    H120212   7.452   7.368   5.244
 6757TIP3    H220213   7.570   7.285   5.198
 6758TIP3   OH220214   3.847   7.011   0.218
 6758TIP3    H120215   3.765   6.962   0.210
 6758TIP3    H220216   3.903   6.955   0.272
 6759TIP3   OH220217   6.455   6.760   0.353
 6759TIP3    H120218   6.402   6.827   0.398
 6759TIP3    H220219   6.518   6.811   0.301
 6760TIP3   OH220220   1.279   0.277   0.339
 6760TIP3    H120221   1.219   0.350   0.353
 6760TIP3    H220222   1.333   0.304   0.265
 6761TIP3   OH220223   2.954   4.950   4.758
 6761TIP3    H120224   3.022   4.896   4.718
 6761TIP3    H220225   2.955   5.031   4.707
 6762TIP3   OH220226   6.658   5.907   4.769
 6762TIP3    H120227   6.702   5.991   4.787
 6762TIP3    H220228   6.722   5.858   4.716
 6763TIP3   OH220229   6.591   6.568   5.767
 6763TIP3    H120230   6.601   6.656   5.803
 6763TIP3    H220231   6.511   6.573   5.714
 6764TIP3   OH220232   4.580   5.683   3.189
 6764TIP3    H120233   4.582   5.721   3.101
 6764TIP3    H220234   4.554   5.592   3.175
 6765TIP3   OH220235   8.100   4.837   0.249
 6765TIP3    H120236   8.004   4.834   0.255
 6765TIP3    H220237   8.128   4.747   0.263
 6766TIP3   OH220238   2.319   6.943   6.869
 6766TIP3    H120239   2.227   6.949   6.843
 6766TIP3    H220240   2.339   6.850   6.864
 6767TIP3   OH220241   7.346   4.869   0.772
 6767TIP3    H120242   7.357   4.778   0.797
 6767TIP3    H220243   7.270   4.899   0.821
 6768TIP3   OH220244   4.943   1.311   0.769
 6768TIP3    H120245   4.855   1.318   0.732
 6768TIP3    H220246   4.932   1.263   0.851
 6769TIP3   OH220247   4.827   5.488   3.602
 6769TIP3    H120248   4.741   5.527   3.616
 6769TIP3    H220249   4.817   5.397   3.630
 6770TIP3   OH220250   0.643   4.101   0.034
 6770TIP3    H120251   0.687   4.078  -0.048
 6770TIP3    H220252   0.611   4.190   0.020
 6771TIP3   OH220253   4.802   6.338   0.842
 6771TIP3    H120254   4.771   6.289   0.766
 6771TIP3    H220255   4.794   6.429   0.816
 6772TIP3   OH220256   4.706   2.091   2.347
 6772TIP3    H120257   4.690   1.998   2.335
 6772TIP3    H220258   4.689   2.106   2.440
 6773TIP3   OH220259   1.759   2.722   4.189
 6773TIP3    H120260   1.667   2.724   4.218
 6773TIP3    H220261   1.809   2.737   4.269
 6774TIP3   OH220262   6.020   5.211   6.668
 6774TIP3    H120263   6.040   5.304   6.678
 6774TIP3    H220264   5.936   5.199   6.713
 6775TIP3   OH220265   1.552   4.135   2.451
 6775TIP3    H120266   1.587   4.050   2.476
 6775TIP3    H220267   1.513   4.121   2.365
 6776TIP3   OH220268   1.395   2.316   5.096
 6776TIP3    H120269   1.411   2.391   5.154
 6776TIP3    H220270   1.309   2.284   5.122
 6777TIP3   OH220271   0.851   4.040   0.495
 6777TIP3    H120272   0.769   4.060   0.541
 6777TIP3    H220273   0.826   4.033   0.403
 6778TIP3   OH220274   6.707   3.816   4.750
 6778TIP3    H120275   6.738   3.818   4.659
 6778TIP3    H220276   6.650   3.892   4.758
 6779TIP3   OH220277   0.123   3.272   4.948
 6779TIP3    H120278   0.140   3.185   4.986
 6779TIP3    H220279   0.160   3.267   4.860
 6780TIP3   OH220280   3.607   1.195   2.168
 6780TIP3    H120281   3.637   1.109   2.201
 6780TIP3    H220282   3.522   1.208   2.211
 6781TIP3   OH220283   5.471   6.816   4.879
 6781TIP3    H120284   5.437   6.904   4.896
 6781TIP3    H220285   5.414   6.759   4.930
 6782TIP3   OH220286   6.105   7.673   1.200
 6782TIP3    H120287   6.088   7.732   1.274
 6782TIP3    H220288   6.084   7.586   1.234
 6783TIP3   OH220289   3.266   3.531   4.549
 6783TIP3    H120290   3.341   3.530   4.607
 6783TIP3    H220291   3.273   3.614   4.501
 6784TIP3   OH220292   1.476   0.913   0.353
 6784TIP3    H120293   1.571   0.906   0.342
 6784TIP3    H220294   1.463   0.989   0.409
 6785TIP3   OH220295   1.755   1.905   2.078
 6785TIP3    H120296   1.722   1.827   2.032
 6785TIP3    H220297   1.694   1.915   2.152
 6786TIP3   OH220298   5.969   3.064   3.313
 6786TIP3    H120299   6.014   3.012   3.380
 6786TIP3    H220300   5.999   3.028   3.230
 6787TIP3   OH220301   4.759   7.847   3.164
 6787TIP3    H120302   4.764   7.866   3.070
 6787TIP3    H220303   4.850   7.838   3.191
 6788TIP3   OH220304   3.174   2.524   1.489
 6788TIP3    H120305   3.136   2.588   1.429
 6788TIP3    H220306   3.226   2.467   1.433
 6789TIP3   OH220307   5.022   7.389   6.037
 6789TIP3    H120308   5.008   7.336   6.116
 6789TIP3    H220309   5.105   7.357   6.001
 6790TIP3   OH220310   1.627   2.393   0.598
 6790TIP3    H120311   1.569   2.468   0.607
 6790TIP3    H220312   1.694   2.421   0.535
 6791TIP3   OH220313   6.876   6.349   1.651
 6791TIP3    H120314   6.817   6.391   1.587
 6791TIP3    H220315   6.833   6.362   1.735
 6792TIP3   OH220316   0.266   4.424   5.262
 6792TIP3    H120317   0.228   4.368   5.329
 6792TIP3    H220318   0.262   4.373   5.182
 6793TIP3   OH220319   2.666   0.318   2.112
 6793TIP3    H120320   2.632   0.385   2.053
 6793TIP3    H220321   2.689   0.365   2.192
 6794TIP3   OH220322   1.934   2.802   2.215
 6794TIP3    H120323   1.865   2.820   2.279
 6794TIP3    H220324   1.919   2.712   2.187
 6795TIP3   OH220325   6.513   1.089   5.630
 6795TIP3    H120326   6.418   1.087   5.629
 6795TIP3    H220327   6.537   1.159   5.569
 6796TIP3   OH220328   6.957   0.730   4.406
 6796TIP3    H120329   7.043   0.691   4.389
 6796TIP3    H220330   6.898   0.687   4.343
 6797TIP3   OH220331   5.109   5.948   3.293
 6797TIP3    H120332   5.128   5.981   3.381
 6797TIP3    H220333   5.192   5.910   3.264
 6798TIP3   OH220334   4.291   7.453   3.363
 6798TIP3    H120335   4.235   7.392   3.411
 6798TIP3    H220336   4.235   7.485   3.292
 6799TIP3   OH220337   2.589   1.041   2.752
 6799TIP3    H120338   2.660   1.099   2.782
 6799TIP3    H220339   2.543   1.016   2.832
 6800TIP3   OH220340   2.102   2.378   3.631
 6800TIP3    H120341   2.052   2.391   3.550
 6800TIP3    H220342   2.175   2.440   3.623
 6801TIP3   OH220343   3.538   1.198   1.895
 6801TIP3    H120344   3.631   1.180   1.879
 6801TIP3    H220345   3.528   1.192   1.990
 6802TIP3   OH220346   3.255   6.023   5.834
 6802TIP3    H120347   3.347   6.043   5.820
 6802TIP3    H220348   3.224   6.094   5.892
 6803TIP3   OH220349   7.424   6.580   1.448
 6803TIP3    H120350   7.513   6.596   1.416
 6803TIP3    H220351   7.368   6.603   1.373
 6804TIP3   OH220352   1.877   6.174   0.379
 6804TIP3    H120353   1.875   6.267   0.403
 6804TIP3    H220354   1.953   6.139   0.424
 6805TIP3   OH220355   6.719   7.452   0.684
 6805TIP3    H120356   6.740   7.457   0.590
 6805TIP3    H220357   6.804   7.447   0.727
 6806TIP3   OH220358   6.209   1.473   5.626
 6806TIP3    H120359   6.145   1.462   5.697
 6806TIP3    H220360   6.209   1.388   5.582
 6807TIP3   OH220361   3.702   6.838   6.113
 6807TIP3    H120362   3.795   6.825   6.134
 6807TIP3    H220363   3.703   6.891   6.034
 6808TIP3   OH220364   6.942   4.590   5.476
 6808TIP3    H120365   6.932   4.685   5.469
 6808TIP3    H220366   6.987   4.565   5.395
 6809TIP3   OH220367   2.223   2.359   4.912
 6809TIP3    H120368   2.142   2.316   4.883
 6809TIP3    H220369   2.289   2.333   4.848
 6810TIP3   OH220370   7.080   4.440   3.242
 6810TIP3    H120371   6.991   4.417   3.216
 6810TIP3    H220372   7.069   4.491   3.322
 6811TIP3   OH220373   6.578   2.743   4.448
 6811TIP3    H120374   6.629   2.788   4.380
 6811TIP3    H220375   6.488   2.773   4.435
 6812TIP3   OH220376   3.193   3.789   6.370
 6812TIP3    H120377   3.153   3.826   6.291
 6812TIP3    H220378   3.122   3.790   6.435
 6813TIP3   OH220379   6.088   6.558   4.968
 6813TIP3    H120380   6.127   6.473   4.946
 6813TIP3    H220381   6.029   6.577   4.895
 6814TIP3   OH220382   7.935   3.334   6.336
 6814TIP3    H120383   7.912   3.344   6.429
 6814TIP3    H220384   7.852   3.350   6.290
 6815TIP3   OH220385   5.816   4.192   3.328
 6815TIP3    H120386   5.763   4.152   3.396
 6815TIP3    H220387   5.753   4.227   3.265
 6816TIP3   OH220388   6.294   3.300   4.060
 6816TIP3    H120389   6.358   3.359   4.020
 6816TIP3    H220390   6.220   3.301   4.001
 6817TIP3   OH220391   6.784   0.406   3.533
 6817TIP3    H120392   6.809   0.494   3.503
 6817TIP3    H220393   6.765   0.416   3.626
 6818TIP3   OH220394   3.732   5.838   6.737
 6818TIP3    H120395   3.752   5.913   6.681
 6818TIP3    H220396   3.756   5.867   6.825
 6819TIP3   OH220397   3.190   0.528   4.542
 6819TIP3    H120398   3.094   0.530   4.536
 6819TIP3    H220399   3.207   0.500   4.632
 6820TIP3   OH220400   7.952   7.182   0.141
 6820TIP3    H120401   8.047   7.181   0.127
 6820TIP3    H220402   7.931   7.092   0.165
 6821TIP3   OH220403   1.075   1.596   5.809
 6821TIP3    H120404   1.091   1.526   5.745
 6821TIP3    H220405   0.996   1.569   5.855
 6822TIP3   OH220406   6.879   1.672   1.623
 6822TIP3    H120407   6.911   1.734   1.557
 6822TIP3    H220408   6.861   1.592   1.574
 6823TIP3   OH220409   3.422   1.589   5.105
 6823TIP3    H120410   3.412   1.567   5.197
 6823TIP3    H220411   3.516   1.580   5.087
 6824TIP3   OH220412   8.305   2.916   0.085
 6824TIP3    H120413   8.344   2.928   0.171
 6824TIP3    H220414   8.341   2.833   0.053
 6825TIP3   OH220415   3.284   0.657   2.077
 6825TIP3    H120416   3.245   0.609   2.150
 6825TIP3    H220417   3.374   0.625   2.072
 6826TIP3   OH220418   5.633   3.653   6.334
 6826TIP3    H120419   5.573   3.650   6.260
 6826TIP3    H220420   5.719   3.631   6.296
 6827TIP3   OH220421   0.306   7.221   0.937
 6827TIP3    H120422   0.278   7.281   1.006
 6827TIP3    H220423   0.229   7.167   0.919
 6828TIP3   OH220424   2.523   6.713   5.578
 6828TIP3    H120425   2.438   6.718   5.533
 6828TIP3    H220426   2.580   6.771   5.528
 6829TIP3   OH220427   2.618   6.118   1.981
 6829TIP3    H120428   2.566   6.058   2.034
 6829TIP3    H220429   2.554   6.178   1.943
 6830TIP3   OH220430   6.563   7.823   2.028
 6830TIP3    H120431   6.578   7.811   2.122
 6830TIP3    H220432   6.645   7.861   1.996
 6831TIP3   OH220433   5.488   4.831   4.818
 6831TIP3    H120434   5.549   4.889   4.772
 6831TIP3    H220435   5.501   4.745   4.776
 6832TIP3   OH220436   3.519   5.118   6.817
 6832TIP3    H120437   3.595   5.074   6.780
 6832TIP3    H220438   3.507   5.077   6.903
 6833TIP3   OH220439   0.362   4.539   0.703
 6833TIP3    H120440   0.446   4.495   0.694
 6833TIP3    H220441   0.340   4.565   0.613
 6834TIP3   OH220442   7.529   1.790   1.892
 6834TIP3    H120443   7.553   1.838   1.972
 6834TIP3    H220444   7.435   1.775   1.900
 6835TIP3   OH220445   6.384   0.264   4.475
 6835TIP3    H120446   6.390   0.359   4.475
 6835TIP3    H220447   6.331   0.244   4.553
 6836TIP3   OH220448   0.537   4.623   6.281
 6836TIP3    H120449   0.451   4.663   6.276
 6836TIP3    H220450   0.521   4.530   6.262
 6837TIP3   OH220451   0.309   1.988   3.470
 6837TIP3    H120452   0.358   2.039   3.534
 6837TIP3    H220453   0.221   2.025   3.472
 6838TIP3   OH220454   7.523   4.678   6.440
 6838TIP3    H120455   7.612   4.711   6.425
 6838TIP3    H220456   7.536   4.593   6.483
 6839TIP3   OH220457   3.005   7.753   6.025
 6839TIP3    H120458   2.939   7.685   6.009
 6839TIP3    H220459   2.975   7.796   6.105
 6840TIP3   OH220460   0.861   5.511   3.190
 6840TIP3    H120461   0.879   5.418   3.176
 6840TIP3    H220462   0.871   5.524   3.284
 6841TIP3   OH220463   8.128   3.130   2.043
 6841TIP3    H120464   8.119   3.148   1.949
 6841TIP3    H220465   8.063   3.187   2.085
 6842TIP3   OH220466   1.039   7.029   3.502
 6842TIP3    H120467   1.096   6.958   3.530
 6842TIP3    H220468   1.094   7.085   3.447
 6843TIP3   OH220469   0.070   6.599   4.998
 6843TIP3    H120470   0.076   6.692   5.018
 6843TIP3    H220471   0.130   6.586   4.925
 6844TIP3   OH220472   0.802   5.921   1.150
 6844TIP3    H120473   0.723   5.974   1.142
 6844TIP3    H220474   0.773   5.842   1.196
 6845TIP3   OH220475   3.733   2.043   3.617
 6845TIP3    H120476   3.813   2.091   3.638
 6845TIP3    H220477   3.723   2.054   3.522
 6846TIP3   OH220478   3.709   4.677   0.055
 6846TIP3    H120479   3.797   4.638   0.055
 6846TIP3    H220480   3.717   4.755   0.000
 6847TIP3   OH220481   6.752   1.778   3.644
 6847TIP3    H120482   6.821   1.836   3.677
 6847TIP3    H220483   6.684   1.837   3.611
 6848TIP3   OH220484   3.011   5.523   3.519
 6848TIP3    H120485   3.105   5.543   3.523
 6848TIP3    H220486   2.968   5.609   3.518
 6849TIP3   OH220487   2.694   6.756   3.438
 6849TIP3    H120488   2.685   6.744   3.343
 6849TIP3    H220489   2.660   6.675   3.476
 6850TIP3   OH220490   2.600   0.890   0.769
 6850TIP3    H120491   2.574   0.814   0.717
 6850TIP3    H220492   2.538   0.892   0.842
 6851TIP3   OH220493   0.206   5.136   6.313
 6851TIP3    H120494   0.282   5.136   6.370
 6851TIP3    H220495   0.139   5.089   6.362
 6852TIP3   OH220496   7.644   5.206   6.672
 6852TIP3    H120497   7.587   5.277   6.645
 6852TIP3    H220498   7.635   5.202   6.767
 6853TIP3   OH220499   7.203   5.885   5.561
 6853TIP3    H120500   7.291   5.915   5.540
 6853TIP3    H220501   7.177   5.937   5.637
 6854TIP3   OH220502   7.676   4.681   3.222
 6854TIP3    H120503   7.721   4.668   3.306
 6854TIP3    H220504   7.738   4.732   3.170
 6855TIP3   OH220505   1.545   2.041   2.808
 6855TIP3    H120506   1.559   1.947   2.809
 6855TIP3    H220507   1.632   2.079   2.817
 6856TIP3   OH220508   2.751   5.028   5.319
 6856TIP3    H120509   2.705   5.079   5.386
 6856TIP3    H220510   2.717   4.939   5.328
 6857TIP3   OH220511   7.994   0.275   1.886
 6857TIP3    H120512   7.947   0.201   1.847
 6857TIP3    H220513   7.963   0.277   1.976
 6858TIP3   OH220514   3.676   7.760   2.086
 6858TIP3    H120515   3.640   7.706   2.015
 6858TIP3    H220516   3.757   7.796   2.050
 6859TIP3   OH220517   4.144   6.830   2.623
 6859TIP3    H120518   4.106   6.906   2.666
 6859TIP3    H220519   4.096   6.755   2.659
 6860TIP3   OH220520   6.684   2.269   0.838
 6860TIP3    H120521   6.644   2.260   0.925
 6860TIP3    H220522   6.609   2.274   0.778
 6861TIP3   OH220523   0.320   7.663   1.096
 6861TIP3    H120524   0.304   7.570   1.112
 6861TIP3    H220525   0.273   7.708   1.165
 6862TIP3   OH220526   3.193   6.277   1.375
 6862TIP3    H120527   3.227   6.260   1.288
 6862TIP3    H220528   3.271   6.289   1.430
 6863TIP3   OH220529   6.364   4.197   1.161
 6863TIP3    H120530   6.449   4.192   1.205
 6863TIP3    H220531   6.373   4.270   1.100
 6864TIP3   OH220532   7.961   2.845   5.067
 6864TIP3    H120533   7.875   2.881   5.049
 6864TIP3    H220534   7.989   2.888   5.148
 6865TIP3   OH220535   7.033   4.128   3.016
 6865TIP3    H120536   7.027   4.207   3.070
 6865TIP3    H220537   6.956   4.076   3.042
 6866TIP3   OH220538   4.220   5.682   0.226
 6866TIP3    H120539   4.280   5.757   0.233
 6866TIP3    H220540   4.138   5.713   0.265
 6867TIP3   OH220541   6.007   5.711   1.877
 6867TIP3    H120542   5.983   5.683   1.966
 6867TIP3    H220543   6.021   5.806   1.886
 6868TIP3   OH220544   7.936   5.767   4.177
 6868TIP3    H120545   7.922   5.698   4.242
 6868TIP3    H220546   7.958   5.844   4.229
 6869TIP3   OH220547   5.058   3.181   3.960
 6869TIP3    H120548   5.046   3.111   4.024
 6869TIP3    H220549   5.079   3.258   4.013
 6870TIP3   OH220550   7.233   1.943   1.180
 6870TIP3    H120551   7.187   1.859   1.173
 6870TIP3    H220552   7.198   1.995   1.109
 6871TIP3   OH220553   0.262   1.868   2.794
 6871TIP3    H120554   0.277   1.835   2.882
 6871TIP3    H220555   0.321   1.815   2.739
 6872TIP3   OH220556   3.579   7.759   5.615
 6872TIP3    H120557   3.587   7.737   5.522
 6872TIP3    H220558   3.505   7.707   5.645
 6873TIP3   OH220559   7.547   4.775   5.043
 6873TIP3    H120560   7.526   4.722   4.967
 6873TIP3    H220561   7.641   4.762   5.056
 6874TIP3   OH220562   0.647   4.591   1.297
 6874TIP3    H120563   0.722   4.647   1.279
 6874TIP3    H220564   0.684   4.513   1.339
 6875TIP3   OH220565   7.985   4.961   4.873
 6875TIP3    H120566   8.078   4.942   4.880
 6875TIP3    H220567   7.942   4.876   4.874
 6876TIP3   OH220568   1.208   0.744   5.048
 6876TIP3    H120569   1.247   0.683   4.986
 6876TIP3    H220570   1.182   0.819   4.995
 6877TIP3   OH220571   4.893   4.296   6.358
 6877TIP3    H120572   4.800   4.278   6.369
 6877TIP3    H220573   4.927   4.219   6.312
 6878TIP3   OH220574   4.765   7.704   4.313
 6878TIP3    H120575   4.808   7.619   4.313
 6878TIP3    H220576   4.808   7.752   4.242
 6879TIP3   OH220577   1.737   0.920   2.876
 6879TIP3    H120578   1.791   0.861   2.930
 6879TIP3    H220579   1.704   0.864   2.806
 6880TIP3   OH220580   7.149   0.849   4.741
 6880TIP3    H120581   7.069   0.862   4.791
 6880TIP3    H220582   7.212   0.816   4.805
 6881TIP3   OH220583   3.105   3.741   1.782
 6881TIP3    H120584   3.037   3.673   1.775
 6881TIP3    H220585   3.063   3.820   1.747
 6882TIP3   OH220586   5.380   3.335   4.670
 6882TIP3    H120587   5.375   3.369   4.580
 6882TIP3    H220588   5.399   3.412   4.723
 6883TIP3   OH220589   6.468   6.066   2.609
 6883TIP3    H120590   6.422   6.113   2.678
 6883TIP3    H220591   6.561   6.084   2.625
 6884TIP3   OH220592   2.418   4.113   6.302
 6884TIP3    H120593   2.398   4.207   6.310
 6884TIP3    H220594   2.333   4.070   6.309
 6885TIP3   OH220595   4.342   7.358   1.616
 6885TIP3    H120596   4.270   7.410   1.582
 6885TIP3    H220597   4.325   7.269   1.585
 6886TIP3   OH220598   1.407   1.457   0.424
 6886TIP3    H120599   1.438   1.546   0.409
 6886TIP3    H220600   1.404   1.448   0.519
 6887TIP3   OH220601   0.517   3.878   0.917
 6887TIP3    H120602   0.450   3.894   0.984
 6887TIP3    H220603   0.592   3.843   0.966
 6888TIP3   OH220604   5.292   7.857   6.014
 6888TIP3    H120605   5.365   7.799   6.035
 6888TIP3    H220606   5.217   7.816   6.057
 6889TIP3   OH220607   2.123   4.673   5.802
 6889TIP3    H120608   2.218   4.665   5.793
 6889TIP3    H220609   2.102   4.628   5.884
 6890TIP3   OH220610   2.088   4.816   0.122
 6890TIP3    H120611   2.115   4.746   0.062
 6890TIP3    H220612   1.994   4.803   0.133
 6891TIP3   OH220613   6.230   1.972   6.337
 6891TIP3    H120614   6.222   1.956   6.431
 6891TIP3    H220615   6.170   2.044   6.319
 6892TIP3   OH220616   5.390   0.647   1.817
 6892TIP3    H120617   5.421   0.576   1.874
 6892TIP3    H220618   5.321   0.607   1.765
 6893TIP3   OH220619   1.245   7.445   1.835
 6893TIP3    H120620   1.166   7.495   1.814
 6893TIP3    H220621   1.242   7.434   1.930
 6894TIP3   OH220622   0.763   6.117   5.214
 6894TIP3    H120623   0.795   6.158   5.295
 6894TIP3    H220624   0.692   6.175   5.185
 6895TIP3   OH220625   8.238   3.534   5.735
 6895TIP3    H120626   8.263   3.510   5.646
 6895TIP3    H220627   8.178   3.465   5.764
 6896TIP3   OH220628   6.049   2.382   3.150
 6896TIP3    H120629   6.038   2.364   3.056
 6896TIP3    H220630   6.075   2.298   3.187
 6897TIP3   OH220631   6.968   1.448   3.217
 6897TIP3    H120632   7.028   1.522   3.203
 6897TIP3    H220633   6.983   1.422   3.308
 6898TIP3   OH220634   2.812   1.468   5.907
 6898TIP3    H120635   2.835   1.415   5.984
 6898TIP3    H220636   2.759   1.410   5.852
 6899TIP3   OH220637   8.288   2.675   5.741
 6899TIP3    H120638   8.236   2.723   5.805
 6899TIP3    H220639   8.339   2.612   5.794
 6900TIP3   OH220640   4.012   7.048   3.991
 6900TIP3    H120641   3.943   7.031   4.055
 6900TIP3    H220642   4.086   7.080   4.042
 6901TIP3   OH220643   5.616   3.878   3.272
 6901TIP3    H120644   5.616   3.911   3.182
 6901TIP3    H220645   5.533   3.832   3.281
 6902TIP3   OH220646   6.112   3.571   1.074
 6902TIP3    H120647   6.065   3.637   1.024
 6902TIP3    H220648   6.082   3.584   1.164
 6903TIP3   OH220649   4.140   3.266   0.252
 6903TIP3    H120650   4.116   3.247   0.343
 6903TIP3    H220651   4.088   3.205   0.200
 6904TIP3   OH220652   6.399   2.293   1.627
 6904TIP3    H120653   6.424   2.379   1.661
 6904TIP3    H220654   6.396   2.237   1.705
 6905TIP3   OH220655   2.866   5.783   6.075
 6905TIP3    H120656   2.786   5.745   6.110
 6905TIP3    H220657   2.837   5.850   6.014
 6906TIP3   OH220658   5.863   0.877   0.493
 6906TIP3    H120659   5.873   0.902   0.585
 6906TIP3    H220660   5.937   0.919   0.449
 6907TIP3   OH220661   6.013   7.313   6.555
 6907TIP3    H120662   6.039   7.287   6.644
 6907TIP3    H220663   5.958   7.390   6.568
 6908TIP3   OH220664   4.647   0.254   5.312
 6908TIP3    H120665   4.588   0.320   5.276
 6908TIP3    H220666   4.718   0.305   5.353
 6909TIP3   OH220667   3.684   5.815   0.835
 6909TIP3    H120668   3.777   5.815   0.814
 6909TIP3    H220669   3.647   5.885   0.781
 6910TIP3   OH220670   7.437   3.308   2.740
 6910TIP3    H120671   7.395   3.325   2.656
 6910TIP3    H220672   7.379   3.348   2.805
 6911TIP3   OH220673   4.316   7.203   2.773
 6911TIP3    H120674   4.244   7.148   2.803
 6911TIP3    H220675   4.300   7.288   2.814
 6912TIP3   OH220676   6.888   6.828   3.181
 6912TIP3    H120677   6.919   6.845   3.270
 6912TIP3    H220678   6.888   6.733   3.173
 6913TIP3   OH220679   1.468   7.248   2.932
 6913TIP3    H120680   1.381   7.220   2.904
 6913TIP3    H220681   1.460   7.260   3.027
 6914TIP3   OH220682   1.834   1.130   4.925
 6914TIP3    H120683   1.918   1.101   4.891
 6914TIP3    H220684   1.844   1.225   4.934
 6915TIP3   OH220685   6.432   3.413   4.268
 6915TIP3    H120686   6.485   3.336   4.287
 6915TIP3    H220687   6.342   3.385   4.285
 6916TIP3   OH220688   6.401   6.561   1.394
 6916TIP3    H120689   6.376   6.598   1.479
 6916TIP3    H220690   6.424   6.638   1.341
 6917TIP3   OH220691   6.185   7.819   5.632
 6917TIP3    H120692   6.121   7.863   5.688
 6917TIP3    H220693   6.178   7.727   5.656
 6918TIP3   OH220694   3.490   3.352   4.592
 6918TIP3    H120695   3.563   3.290   4.587
 6918TIP3    H220696   3.428   3.320   4.526
 6919TIP3   OH220697   1.349   1.749   5.374
 6919TIP3    H120698   1.368   1.660   5.404
 6919TIP3    H220699   1.330   1.797   5.454
 6920TIP3   OH220700   8.065   0.851   1.752
 6920TIP3    H120701   8.000   0.856   1.682
 6920TIP3    H220702   8.044   0.770   1.798
 6921TIP3   OH220703   7.325   1.843   0.861
 6921TIP3    H120704   7.231   1.841   0.842
 6921TIP3    H220705   7.365   1.790   0.792
 6922TIP3   OH220706   5.482   1.664   1.065
 6922TIP3    H120707   5.570   1.675   1.029
 6922TIP3    H220708   5.482   1.575   1.100
 6923TIP3   OH220709   1.803   6.515   3.666
 6923TIP3    H120710   1.737   6.549   3.726
 6923TIP3    H220711   1.883   6.562   3.690
 6924TIP3   OH220712   5.149   7.825   0.583
 6924TIP3    H120713   5.231   7.809   0.536
 6924TIP3    H220714   5.144   7.920   0.591
 6925TIP3   OH220715   1.617   1.647   1.219
 6925TIP3    H120716   1.590   1.557   1.202
 6925TIP3    H220717   1.706   1.639   1.253
 6926TIP3   OH220718   4.923   6.424   4.297
 6926TIP3    H120719   4.973   6.389   4.223
 6926TIP3    H220720   4.872   6.350   4.329
 6927TIP3   OH220721   0.927   4.513   6.823
 6927TIP3    H120722   1.007   4.488   6.868
 6927TIP3    H220723   0.955   4.576   6.757
 6928TIP3   OH220724   4.666   5.327   2.475
 6928TIP3    H120725   4.635   5.274   2.402
 6928TIP3    H220726   4.599   5.317   2.543
 6929TIP3   OH220727   7.567   2.630   5.116
 6929TIP3    H120728   7.478   2.612   5.146
 6929TIP3    H220729   7.608   2.544   5.108
 6930TIP3   OH220730   0.298   7.229   0.123
 6930TIP3    H120731   0.360   7.171   0.080
 6930TIP3    H220732   0.290   7.195   0.212
 6931TIP3   OH220733   7.676   0.681   5.003
 6931TIP3    H120734   7.634   0.729   4.932
 6931TIP3    H220735   7.769   0.679   4.980
 6932TIP3   OH220736   0.338   1.277   4.300
 6932TIP3    H120737   0.337   1.350   4.238
 6932TIP3    H220738   0.266   1.296   4.360
 6933TIP3   OH220739   5.538   5.010   0.284
 6933TIP3    H120740   5.529   5.048   0.371
 6933TIP3    H220741   5.594   4.934   0.296
 6934TIP3   OH220742   5.058   4.975   2.538
 6934TIP3    H120743   5.125   4.941   2.478
 6934TIP3    H220744   4.985   4.998   2.481
 6935TIP3   OH220745   3.890   2.765   6.455
 6935TIP3    H120746   3.966   2.796   6.407
 6935TIP3    H220747   3.816   2.780   6.396
 6936TIP3   OH220748   3.304   0.761   2.632
 6936TIP3    H120749   3.310   0.735   2.724
 6936TIP3    H220750   3.343   0.849   2.630
 6937TIP3   OH220751   0.059   2.622   1.570
 6937TIP3    H120752   0.131   2.559   1.583
 6937TIP3    H220753   0.090   2.680   1.501
 6938TIP3   OH220754   0.637   0.078   4.011
 6938TIP3    H120755   0.649   0.034   3.927
 6938TIP3    H220756   0.653   0.170   3.992
 6939TIP3   OH220757   3.837   2.965   6.191
 6939TIP3    H120758   3.798   3.018   6.122
 6939TIP3    H220759   3.834   2.875   6.156
 6940TIP3   OH220760   1.445   4.925   4.501
 6940TIP3    H120761   1.536   4.955   4.502
 6940TIP3    H220762   1.394   5.006   4.489
 6941TIP3   OH220763   2.793   0.928   4.216
 6941TIP3    H120764   2.877   0.974   4.208
 6941TIP3    H220765   2.751   0.942   4.132
 6942TIP3   OH220766   6.103   4.051   5.146
 6942TIP3    H120767   6.042   4.009   5.085
 6942TIP3    H220768   6.150   4.115   5.093
 6943TIP3   OH220769   0.736   3.789   1.040
 6943TIP3    H120770   0.762   3.718   1.098
 6943TIP3    H220771   0.809   3.799   0.979
 6944TIP3   OH220772   5.590   6.166   3.222
 6944TIP3    H120773   5.671   6.137   3.263
 6944TIP3    H220774   5.601   6.143   3.129
 6945TIP3   OH220775   3.783   6.779   1.314
 6945TIP3    H120776   3.758   6.869   1.335
 6945TIP3    H220777   3.839   6.751   1.387
 6946TIP3   OH220778   8.078   1.334   6.125
 6946TIP3    H120779   8.127   1.312   6.205
 6946TIP3    H220780   8.142   1.378   6.069
 6947TIP3   OH220781   3.189   1.320   4.078
 6947TIP3    H120782   3.186   1.373   3.999
 6947TIP3    H220783   3.185   1.383   4.150
 6948TIP3   OH220784   6.450   4.825   2.106
 6948TIP3    H120785   6.440   4.766   2.031
 6948TIP3    H220786   6.533   4.799   2.146
 6949TIP3   OH220787   0.304   5.041   0.211
 6949TIP3    H120788   0.353   5.046   0.293
 6949TIP3    H220789   0.297   4.948   0.192
 6950TIP3   OH220790   2.753   1.763   5.509
 6950TIP3    H120791   2.828   1.778   5.453
 6950TIP3    H220792   2.762   1.672   5.539
 6951TIP3   OH220793   8.043   0.616   6.847
 6951TIP3    H120794   8.043   0.555   6.921
 6951TIP3    H220795   8.114   0.585   6.791
 6952TIP3   OH220796   1.100   2.762   1.982
 6952TIP3    H120797   1.185   2.735   2.019
 6952TIP3    H220798   1.040   2.693   2.009
 6953TIP3   OH220799   2.312   2.916   2.268
 6953TIP3    H120800   2.322   2.943   2.360
 6953TIP3    H220801   2.302   2.821   2.272
 6954TIP3   OH220802   6.916   6.319   2.772
 6954TIP3    H120803   7.009   6.300   2.788
 6954TIP3    H220804   6.916   6.365   2.688
 6955TIP3   OH220805   2.295   6.278   1.113
 6955TIP3    H120806   2.357   6.302   1.044
 6955TIP3    H220807   2.277   6.359   1.160
 6956TIP3   OH220808   3.169   0.103   0.852
 6956TIP3    H120809   3.159   0.176   0.913
 6956TIP3    H220810   3.112   0.034   0.887
 6957TIP3   OH220811   2.014   5.774   1.968
 6957TIP3    H120812   2.026   5.804   1.878
 6957TIP3    H220813   2.041   5.848   2.022
 6958TIP3   OH220814   5.714   6.923   2.403
 6958TIP3    H120815   5.722   6.902   2.310
 6958TIP3    H220816   5.796   6.893   2.442
 6959TIP3   OH220817   5.701   2.092   0.598
 6959TIP3    H120818   5.704   2.083   0.502
 6959TIP3    H220819   5.707   2.187   0.613
 6960TIP3   OH220820   8.173   4.726   2.346
 6960TIP3    H120821   8.247   4.754   2.401
 6960TIP3    H220822   8.173   4.631   2.353
 6961TIP3   OH220823   3.920   1.820   6.230
 6961TIP3    H120824   3.992   1.859   6.180
 6961TIP3    H220825   3.889   1.890   6.287
 6962TIP3   OH220826   1.500   1.979   1.632
 6962TIP3    H120827   1.539   1.994   1.719
 6962TIP3    H220828   1.573   1.993   1.571
 6963TIP3   OH220829   5.265   3.512   6.560
 6963TIP3    H120830   5.269   3.430   6.609
 6963TIP3    H220831   5.172   3.528   6.547
 6964TIP3   OH220832   8.250   6.439   3.171
 6964TIP3    H120833   8.224   6.421   3.081
 6964TIP3    H220834   8.211   6.525   3.191
 6965TIP3   OH220835   6.258   1.826   0.621
 6965TIP3    H120836   6.247   1.740   0.580
 6965TIP3    H220837   6.187   1.879   0.585
 6966TIP3   OH220838   1.853   3.236   1.690
 6966TIP3    H120839   1.882   3.305   1.631
 6966TIP3    H220840   1.794   3.182   1.636
 6967TIP3   OH220841   7.716   3.086   5.180
 6967TIP3    H120842   7.681   3.000   5.157
 6967TIP3    H220843   7.699   3.095   5.274
 6968TIP3   OH220844   5.249   6.057   3.050
 6968TIP3    H120845   5.215   6.143   3.073
 6968TIP3    H220846   5.208   6.035   2.967
 6969TIP3   OH220847   6.070   5.130   5.046
 6969TIP3    H120848   5.994   5.171   5.004
 6969TIP3    H220849   6.143   5.150   4.987
 6970TIP3   OH220850   0.585   0.204   0.513
 6970TIP3    H120851   0.591   0.128   0.455
 6970TIP3    H220852   0.673   0.241   0.512
 6971TIP3   OH220853   4.792   5.543   6.111
 6971TIP3    H120854   4.813   5.603   6.040
 6971TIP3    H220855   4.824   5.458   6.081
 6972TIP3   OH220856   4.281   4.924   4.414
 6972TIP3    H120857   4.310   4.922   4.505
 6972TIP3    H220858   4.213   4.991   4.411
 6973TIP3   OH220859   8.080   4.966   0.617
 6973TIP3    H120860   8.155   4.963   0.558
 6973TIP3    H220861   8.102   4.902   0.685
 6974TIP3   OH220862   7.073   3.040   0.838
 6974TIP3    H120863   6.978   3.039   0.834
 6974TIP3    H220864   7.094   3.106   0.904
 6975TIP3   OH220865   3.957   3.292   6.866
 6975TIP3    H120866   3.985   3.329   6.782
 6975TIP3    H220867   4.038   3.275   6.914
 6976TIP3   OH220868   2.036   0.822   1.506
 6976TIP3    H120869   2.004   0.880   1.576
 6976TIP3    H220870   1.958   0.775   1.477
 6977TIP3   OH220871   7.252   7.771   3.473
 6977TIP3    H120872   7.217   7.817   3.397
 6977TIP3    H220873   7.210   7.815   3.548
 6978TIP3   OH220874   0.010   7.631   3.987
 6978TIP3    H120875  -0.007   7.677   4.069
 6978TIP3    H220876   0.034   7.699   3.925
 6979TIP3   OH220877   8.176   0.195   4.831
 6979TIP3    H120878   8.103   0.216   4.890
 6979TIP3    H220879   8.165   0.102   4.811
 6980TIP3   OH220880   6.181   7.718   2.367
 6980TIP3    H120881   6.265   7.673   2.353
 6980TIP3    H220882   6.136   7.665   2.433
 6981TIP3   OH220883   0.438   0.155   3.735
 6981TIP3    H120884   0.499   0.101   3.685
 6981TIP3    H220885   0.394   0.209   3.669
 6982TIP3   OH220886   6.982   4.655   6.650
 6982TIP3    H120887   6.995   4.679   6.558
 6982TIP3    H220888   7.037   4.715   6.699
 6983TIP3   OH220889   4.391   4.792   2.730
 6983TIP3    H120890   4.399   4.880   2.766
 6983TIP3    H220891   4.481   4.760   2.727
 6984TIP3   OH220892   0.165   7.653   4.536
 6984TIP3    H120893   0.106   7.697   4.475
 6984TIP3    H220894   0.206   7.723   4.586
 6985TIP3   OH220895   2.559   6.069   3.586
 6985TIP3    H120896   2.477   6.101   3.624
 6985TIP3    H220897   2.572   6.123   3.508
 6986TIP3   OH220898   1.588   2.084   3.639
 6986TIP3    H120899   1.640   2.073   3.560
 6986TIP3    H220900   1.535   2.162   3.623
 6987TIP3   OH220901   1.050   6.840   0.326
 6987TIP3    H120902   0.991   6.914   0.341
 6987TIP3    H220903   1.138   6.877   0.327
 6988TIP3   OH220904   4.599   1.848   1.974
 6988TIP3    H120905   4.572   1.885   2.058
 6988TIP3    H220906   4.664   1.782   1.997
 6989TIP3   OH220907   2.086   3.457   6.403
 6989TIP3    H120908   2.059   3.400   6.330
 6989TIP3    H220909   2.162   3.413   6.440
 6990TIP3   OH220910   3.782   0.534   3.952
 6990TIP3    H120911   3.787   0.607   3.891
 6990TIP3    H220912   3.689   0.529   3.976
 6991TIP3   OH220913   3.078   4.353   2.217
 6991TIP3    H120914   3.127   4.380   2.295
 6991TIP3    H220915   3.110   4.265   2.198
 6992TIP3   OH220916   1.124   5.009   2.668
 6992TIP3    H120917   1.035   5.044   2.660
 6992TIP3    H220918   1.116   4.937   2.730
 6993TIP3   OH220919   6.462   5.359   3.576
 6993TIP3    H120920   6.384   5.336   3.525
 6993TIP3    H220921   6.524   5.393   3.512
 6994TIP3   OH220922   0.085   5.853   0.564
 6994TIP3    H120923   0.078   5.933   0.511
 6994TIP3    H220924   0.063   5.783   0.503
 6995TIP3   OH220925   7.375   3.074   0.169
 6995TIP3    H120926   7.331   2.993   0.144
 6995TIP3    H220927   7.305   3.130   0.204
 6996TIP3   OH220928   7.395   2.438   6.011
 6996TIP3    H120929   7.368   2.369   6.072
 6996TIP3    H220930   7.489   2.447   6.024
 6997TIP3   OH220931   0.775   3.059   1.336
 6997TIP3    H120932   0.732   3.003   1.271
 6997TIP3    H220933   0.787   3.002   1.412
 6998TIP3   OH220934   0.925   2.912   4.641
 6998TIP3    H120935   0.898   2.986   4.587
 6998TIP3    H220936   0.870   2.918   4.719
 6999TIP3   OH220937   8.302   1.616   0.073
 6999TIP3    H120938   8.333   1.704   0.099
 6999TIP3    H220939   8.374   1.558   0.097
 7000TIP3   OH220940   6.051   5.399   5.224
 7000TIP3    H120941   6.100   5.319   5.246
 7000TIP3    H220942   6.062   5.408   5.129
 7001TIP3   OH220943   5.053   0.423   2.158
 7001TIP3    H120944   4.970   0.394   2.195
 7001TIP3    H220945   5.040   0.517   2.142
 7002TIP3   OH220946   5.129   1.964   3.951
 7002TIP3    H120947   5.065   2.035   3.947
 7002TIP3    H220948   5.081   1.889   3.985
 7003TIP3   OH220949   0.928   4.073   1.954
 7003TIP3    H120950   0.850   4.127   1.966
 7003TIP3    H220951   1.001   4.130   1.978
 7004TIP3   OH220952   0.771   1.540   6.310
 7004TIP3    H120953   0.691   1.553   6.259
 7004TIP3    H220954   0.777   1.618   6.365
 7005TIP3   OH220955   3.274   5.709   2.027
 7005TIP3    H120956   3.353   5.661   2.050
 7005TIP3    H220957   3.267   5.701   1.932
 7006TIP3   OH220958   6.505   1.352   4.075
 7006TIP3    H120959   6.549   1.402   4.144
 7006TIP3    H220960   6.461   1.418   4.022
 7007TIP3   OH220961   6.753   0.760   6.185
 7007TIP3    H120962   6.766   0.794   6.274
 7007TIP3    H220963   6.752   0.838   6.130
 7008TIP3   OH220964   6.432   3.455   4.846
 7008TIP3    H120965   6.388   3.372   4.865
 7008TIP3    H220966   6.362   3.513   4.817
 7009TIP3   OH220967   6.738   6.556   1.529
 7009TIP3    H120968   6.790   6.603   1.595
 7009TIP3    H220969   6.743   6.611   1.451
 7010TIP3   OH220970   2.098   0.237   6.344
 7010TIP3    H120971   2.168   0.265   6.286
 7010TIP3    H220972   2.070   0.152   6.310
 7011TIP3   OH220973   5.927   2.282   0.910
 7011TIP3    H120974   5.920   2.197   0.953
 7011TIP3    H220975   5.874   2.273   0.831
 7012TIP3   OH220976   2.843   6.102   1.325
 7012TIP3    H120977   2.755   6.090   1.290
 7012TIP3    H220978   2.900   6.092   1.248
 7013TIP3   OH220979   2.063   0.912   4.368
 7013TIP3    H120980   2.072   0.819   4.347
 7013TIP3    H220981   2.145   0.936   4.410
 7014TIP3   OH220982   2.513   6.459   0.669
 7014TIP3    H120983   2.555   6.378   0.639
 7014TIP3    H220984   2.575   6.496   0.731
 7015TIP3   OH220985   8.354   0.298   4.141
 7015TIP3    H120986   8.425   0.355   4.114
 7015TIP3    H220987   8.276   0.336   4.101
 7016TIP3   OH220988   0.495   4.200   1.514
 7016TIP3    H120989   0.420   4.259   1.502
 7016TIP3    H220990   0.548   4.243   1.581
 7017TIP3   OH220991   4.883   5.285   1.544
 7017TIP3    H120992   4.789   5.294   1.558
 7017TIP3    H220993   4.917   5.251   1.627
 7018TIP3   OH220994   1.546   5.046   2.999
 7018TIP3    H120995   1.524   5.139   2.986
 7018TIP3    H220996   1.553   5.037   3.094
 7019TIP3   OH220997   4.356   6.471   4.067
 7019TIP3    H120998   4.324   6.460   3.978
 7019TIP3    H220999   4.428   6.533   4.059
 7020TIP3   OH221000   2.622   3.103   2.587
 7020TIP3    H121001   2.546   3.147   2.624
 7020TIP3    H221002   2.590   3.015   2.565
 7021TIP3   OH221003   2.447   2.311   1.528
 7021TIP3    H121004   2.515   2.277   1.470
 7021TIP3    H221005   2.469   2.403   1.539
 7022TIP3   OH221006   3.658   1.169   4.139
 7022TIP3    H121007   3.712   1.191   4.215
 7022TIP3    H221008   3.569   1.193   4.166
 7023TIP3   OH221009   5.381   2.428   0.109
 7023TIP3    H121010   5.352   2.385   0.029
 7023TIP3    H221011   5.395   2.356   0.171
 7024TIP3   OH221012   5.246   3.183   0.863
 7024TIP3    H121013   5.241   3.088   0.858
 7024TIP3    H221014   5.247   3.202   0.957
 7025TIP3   OH221015   7.548   1.537   1.444
 7025TIP3    H121016   7.462   1.580   1.449
 7025TIP3    H221017   7.582   1.562   1.358
 7026TIP3   OH221018   2.430   4.818   0.105
 7026TIP3    H121019   2.457   4.738   0.061
 7026TIP3    H221020   2.390   4.788   0.187
 7027TIP3   OH221021   3.699   1.320   0.253
 7027TIP3    H121022   3.746   1.283   0.328
 7027TIP3    H221023   3.677   1.244   0.199
 7028TIP3   OH221024   6.863   5.022   0.577
 7028TIP3    H121025   6.808   5.058   0.507
 7028TIP3    H221026   6.847   5.080   0.651
 7029TIP3   OH221027   4.751   6.850   4.531
 7029TIP3    H121028   4.835   6.856   4.486
 7029TIP3    H221029   4.702   6.783   4.482
 7030TIP3   OH221030   3.549   5.291   2.651
 7030TIP3    H121031   3.514   5.223   2.709
 7030TIP3    H221032   3.579   5.243   2.574
 7031TIP3   OH221033   7.626   1.954   2.525
 7031TIP3    H121034   7.648   2.046   2.508
 7031TIP3    H221035   7.711   1.909   2.522
 7032TIP3   OH221036   7.292   7.841   4.900
 7032TIP3    H121037   7.245   7.924   4.902
 7032TIP3    H221038   7.354   7.850   4.827
 7033TIP3   OH221039   8.215   4.339   6.623
 7033TIP3    H121040   8.196   4.385   6.704
 7033TIP3    H221041   8.129   4.327   6.581
 7034TIP3   OH221042   8.085   5.596   2.861
 7034TIP3    H121043   8.162   5.573   2.808
 7034TIP3    H221044   8.072   5.689   2.845
 7035TIP3   OH221045   6.126   1.965   2.685
 7035TIP3    H121046   6.032   1.982   2.677
 7035TIP3    H221047   6.162   1.995   2.601
 7036TIP3   OH221048   2.920   3.535   1.056
 7036TIP3    H121049   2.825   3.531   1.047
 7036TIP3    H221050   2.939   3.486   1.137
 7037TIP3   OH221051   8.108   1.011   4.081
 7037TIP3    H121052   8.123   0.936   4.023
 7037TIP3    H221053   8.092   0.972   4.167
 7038TIP3   OH221054   7.635   3.529   0.957
 7038TIP3    H121055   7.661   3.509   0.867
 7038TIP3    H221056   7.626   3.444   0.999
 7039TIP3   OH221057   4.829   0.090   3.804
 7039TIP3    H121058   4.831   0.080   3.709
 7039TIP3    H221059   4.841   0.002   3.838
 7040TIP3   OH221060   3.047   6.965   0.549
 7040TIP3    H121061   3.062   6.992   0.640
 7040TIP3    H221062   3.013   6.876   0.556
 7041TIP3   OH221063   3.182   3.489   1.880
 7041TIP3    H121064   3.145   3.568   1.841
 7041TIP3    H221065   3.224   3.519   1.960
 7042TIP3   OH221066   1.569   1.109   4.467
 7042TIP3    H121067   1.596   1.104   4.375
 7042TIP3    H221068   1.651   1.113   4.516
 7043TIP3   OH221069   1.634   3.840   1.602
 7043TIP3    H121070   1.724   3.825   1.574
 7043TIP3    H221071   1.640   3.852   1.697
 7044TIP3   OH221072   5.656   3.949   2.558
 7044TIP3    H121073   5.735   3.896   2.571
 7044TIP3    H221074   5.585   3.895   2.595
 7045TIP3   OH221075   4.810   7.718   3.476
 7045TIP3    H121076   4.734   7.694   3.529
 7045TIP3    H221077   4.792   7.808   3.449
 7046TIP3   OH221078   1.065   6.475   0.987
 7046TIP3    H121079   1.111   6.395   1.010
 7046TIP3    H221080   1.094   6.494   0.897
 7047TIP3   OH221081   8.143   5.082   0.022
 7047TIP3    H121082   8.236   5.099   0.010
 7047TIP3    H221083   8.120   5.129   0.102
 7048TIP3   OH221084   5.959   3.076   5.268
 7048TIP3    H121085   5.965   3.061   5.173
 7048TIP3    H221086   5.865   3.076   5.286
 7049TIP3   OH221087   0.942   2.391   3.985
 7049TIP3    H121088   0.877   2.459   4.003
 7049TIP3    H221089   0.972   2.410   3.896
 7050TIP3   OH221090   8.241   6.910   4.473
 7050TIP3    H121091   8.326   6.952   4.459
 7050TIP3    H221092   8.255   6.820   4.444
 7051TIP3   OH221093   1.356   4.270   3.047
 7051TIP3    H121094   1.306   4.263   3.128
 7051TIP3    H221095   1.409   4.349   3.059
 7052TIP3   OH221096   2.588   0.769   2.079
 7052TIP3    H121097   2.675   0.779   2.116
 7052TIP3    H221098   2.575   0.847   2.025
 7053TIP3   OH221099   7.133   6.119   4.719
 7053TIP3    H121100   7.183   6.070   4.784
 7053TIP3    H221101   7.078   6.178   4.771
 7054TIP3   OH221102   3.424   5.414   5.253
 7054TIP3    H121103   3.398   5.501   5.282
 7054TIP3    H221104   3.350   5.357   5.277
 7055TIP3   OH221105   0.226   5.882   2.180
 7055TIP3    H121106   0.203   5.974   2.165
 7055TIP3    H221107   0.202   5.838   2.099
 7056TIP3   OH221108   3.675   7.734   4.050
 7056TIP3    H121109   3.716   7.821   4.053
 7056TIP3    H221110   3.706   7.696   3.968
 7057TIP3   OH221111   8.138   2.081   0.164
 7057TIP3    H121112   8.079   2.153   0.141
 7057TIP3    H221113   8.193   2.116   0.233
 7058TIP3   OH221114   7.686   1.138   0.596
 7058TIP3    H121115   7.686   1.187   0.514
 7058TIP3    H221116   7.753   1.181   0.649
 7059TIP3   OH221117   3.463   3.636   3.852
 7059TIP3    H121118   3.550   3.673   3.865
 7059TIP3    H221119   3.426   3.629   3.940
 7060TIP3   OH221120   5.421   4.025   0.113
 7060TIP3    H121121   5.502   4.059   0.152
 7060TIP3    H221122   5.381   3.972   0.182
 7061TIP3   OH221123   5.089   4.558   3.978
 7061TIP3    H121124   5.115   4.508   3.901
 7061TIP3    H221125   5.073   4.647   3.945
 7062TIP3   OH221126   4.044   0.348   5.414
 7062TIP3    H121127   3.963   0.348   5.465
 7062TIP3    H221128   4.036   0.272   5.356
 7063TIP3   OH221129   2.286   4.390   1.948
 7063TIP3    H121130   2.227   4.462   1.925
 7063TIP3    H221131   2.350   4.430   2.007
 7064TIP3   OH221132   0.650   1.159   3.244
 7064TIP3    H121133   0.637   1.252   3.262
 7064TIP3    H221134   0.744   1.145   3.257
 7065TIP3   OH221135   3.253   5.106   5.107
 7065TIP3    H121136   3.185   5.161   5.146
 7065TIP3    H221137   3.236   5.019   5.143
 7066TIP3   OH221138   8.140   7.364   4.040
 7066TIP3    H121139   8.160   7.276   4.071
 7066TIP3    H221140   8.058   7.354   3.991
 7067TIP3   OH221141   2.577   1.450   3.390
 7067TIP3    H121142   2.536   1.390   3.452
 7067TIP3    H221143   2.671   1.429   3.395
 7068TIP3   OH221144   0.989   7.654   1.061
 7068TIP3    H121145   0.981   7.650   0.966
 7068TIP3    H221146   1.036   7.574   1.084
 7069TIP3   OH221147   1.384   1.841   2.351
 7069TIP3    H121148   1.320   1.888   2.298
 7069TIP3    H221149   1.465   1.892   2.342
 7070TIP3   OH221150   8.184   2.810   1.778
 7070TIP3    H121151   8.180   2.846   1.689
 7070TIP3    H221152   8.242   2.734   1.770
 7071TIP3   OH221153   0.571   1.675   1.129
 7071TIP3    H121154   0.610   1.629   1.204
 7071TIP3    H221155   0.492   1.716   1.164
 7072TIP3   OH221156   7.673   2.564   5.701
 7072TIP3    H121157   7.651   2.483   5.656
 7072TIP3    H221158   7.744   2.540   5.761
 7073TIP3   OH221159   7.780   5.985   5.520
 7073TIP3    H121160   7.805   5.964   5.431
 7073TIP3    H221161   7.849   6.043   5.552
 7074TIP3   OH221162   5.469   4.993   6.636
 7074TIP3    H121163   5.472   5.067   6.575
 7074TIP3    H221164   5.480   4.916   6.581
 7075TIP3   OH221165   2.058   2.555   3.156
 7075TIP3    H121166   2.114   2.632   3.148
 7075TIP3    H221167   2.102   2.487   3.105
 7076TIP3   OH221168   3.259   0.437   3.860
 7076TIP3    H121169   3.313   0.386   3.921
 7076TIP3    H221170   3.275   0.396   3.775
 7077TIP3   OH221171   6.235   5.895   1.259
 7077TIP3    H121172   6.196   5.930   1.179
 7077TIP3    H221173   6.304   5.958   1.281
 7078TIP3   OH221174   5.319   2.354   4.192
 7078TIP3    H121175   5.396   2.377   4.139
 7078TIP3    H221176   5.304   2.431   4.247
 7079TIP3   OH221177   8.311   2.409   0.022
 7079TIP3    H121178   8.229   2.415   0.071
 7079TIP3    H221179   8.284   2.404  -0.070
 7080TIP3   OH221180   0.921   1.910   5.770
 7080TIP3    H121181   0.902   1.857   5.847
 7080TIP3    H221182   0.860   1.984   5.776
 7081TIP3   OH221183   4.471   6.186   0.043
 7081TIP3    H121184   4.399   6.148  -0.008
 7081TIP3    H221185   4.429   6.220   0.122
 7082TIP3   OH221186   5.200   6.307   6.425
 7082TIP3    H121187   5.143   6.352   6.362
 7082TIP3    H221188   5.188   6.214   6.406
 7083TIP3   OH221189   7.166   6.412   4.914
 7083TIP3    H121190   7.197   6.325   4.940
 7083TIP3    H221191   7.114   6.395   4.835
 7084TIP3   OH221192   2.142   2.329   6.697
 7084TIP3    H121193   2.148   2.342   6.792
 7084TIP3    H221194   2.052   2.301   6.682
 7085TIP3   OH221195   6.416   3.169   0.287
 7085TIP3    H121196   6.326   3.165   0.255
 7085TIP3    H221197   6.429   3.085   0.332
 7086TIP3   OH221198   0.816   4.663   4.914
 7086TIP3    H121199   0.745   4.660   4.978
 7086TIP3    H221200   0.786   4.725   4.848
 7087TIP3   OH221201   7.210   5.657   4.656
 7087TIP3    H121202   7.177   5.735   4.610
 7087TIP3    H221203   7.305   5.667   4.655
 7088TIP3   OH221204   1.280   7.008   2.344
 7088TIP3    H121205   1.211   7.038   2.285
 7088TIP3    H221206   1.284   6.913   2.331
 7089TIP3   OH221207   6.196   3.945   2.664
 7089TIP3    H121208   6.173   3.872   2.722
 7089TIP3    H221209   6.192   4.022   2.721
 7090TIP3   OH221210   6.915   1.293   0.820
 7090TIP3    H121211   6.847   1.327   0.761
 7090TIP3    H221212   6.937   1.207   0.784
 7091TIP3   OH221213   2.890   4.293   0.751
 7091TIP3    H121214   2.977   4.333   0.752
 7091TIP3    H221215   2.885   4.249   0.666
 7092TIP3   OH221216   4.973   2.858   2.814
 7092TIP3    H121217   4.911   2.805   2.764
 7092TIP3    H221218   5.059   2.834   2.779
 7093TIP3   OH221219   3.422   5.506   6.523
 7093TIP3    H121220   3.353   5.496   6.458
 7093TIP3    H221221   3.379   5.552   6.596
 7094TIP3   OH221222   1.699   1.747   2.571
 7094TIP3    H121223   1.687   1.694   2.650
 7094TIP3    H221224   1.625   1.724   2.515
 7095TIP3   OH221225   1.048   4.368   4.112
 7095TIP3    H121226   1.097   4.310   4.054
 7095TIP3    H221227   1.051   4.453   4.069
 7096TIP3   OH221228   5.900   0.461   6.161
 7096TIP3    H121229   5.869   0.551   6.157
 7096TIP3    H221230   5.970   0.462   6.226
 7097TIP3   OH221231   4.089   6.710   5.504
 7097TIP3    H121232   4.074   6.622   5.539
 7097TIP3    H221233   4.033   6.716   5.427
 7098TIP3   OH221234   7.294   1.066   0.750
 7098TIP3    H121235   7.213   1.040   0.706
 7098TIP3    H221236   7.349   0.988   0.749
 7099TIP3   OH221237   3.434   1.350   1.027
 7099TIP3    H121238   3.378   1.318   0.957
 7099TIP3    H221239   3.436   1.445   1.016
 7100TIP3   OH221240   0.504   5.424   4.314
 7100TIP3    H121241   0.597   5.431   4.335
 7100TIP3    H221242   0.482   5.333   4.333
 7101TIP3   OH221243   7.196   0.320   2.698
 7101TIP3    H121244   7.115   0.364   2.720
 7101TIP3    H221245   7.190   0.302   2.604
 7102TIP3   OH221246   0.581   0.351   2.037
 7102TIP3    H121247   0.559   0.262   2.064
 7102TIP3    H221248   0.601   0.343   1.943
 7103TIP3   OH221249   6.016   1.474   6.820
 7103TIP3    H121250   6.040   1.381   6.826
 7103TIP3    H221251   5.957   1.479   6.744
 7104TIP3   OH221252   6.448   4.615   4.959
 7104TIP3    H121253   6.404   4.535   4.930
 7104TIP3    H221254   6.389   4.653   5.025
 7105TIP3   OH221255   7.645   5.073   5.203
 7105TIP3    H121256   7.721   5.065   5.144
 7105TIP3    H221257   7.587   5.134   5.159
 7106TIP3   OH221258   2.719   4.685   5.914
 7106TIP3    H121259   2.794   4.721   5.963
 7106TIP3    H221260   2.745   4.596   5.893
 7107TIP3   OH221261   6.755   1.477   3.844
 7107TIP3    H121262   6.845   1.462   3.871
 7107TIP3    H221263   6.709   1.396   3.867
 7108TIP3   OH221264   2.868   0.176   2.688
 7108TIP3    H121265   2.811   0.225   2.748
 7108TIP3    H221266   2.819   0.095   2.670
 7109TIP3   OH221267   6.434   5.374   2.930
 7109TIP3    H121268   6.521   5.343   2.904
 7109TIP3    H221269   6.428   5.462   2.893
 7110TIP3   OH221270   2.615   5.426   4.089
 7110TIP3    H121271   2.600   5.381   4.172
 7110TIP3    H221272   2.657   5.508   4.114
 7111TIP3   OH221273   2.612   6.885   6.346
 7111TIP3    H121274   2.574   6.901   6.432
 7111TIP3    H221275   2.705   6.906   6.357
 7112TIP3   OH221276   3.952   7.852   0.566
 7112TIP3    H121277   3.959   7.895   0.481
 7112TIP3    H221278   3.900   7.773   0.550
 7113TIP3   OH221279   3.224   1.923   4.020
 7113TIP3    H121280   3.164   1.915   4.094
 7113TIP3    H221281   3.261   1.835   4.009
 7114TIP3   OH221282   4.314   7.570   2.120
 7114TIP3    H121283   4.404   7.595   2.102
 7114TIP3    H221284   4.320   7.507   2.192
 7115TIP3   OH221285   4.550   1.875   2.266
 7115TIP3    H121286   4.562   1.782   2.251
 7115TIP3    H221287   4.496   1.879   2.345
 7116TIP3   OH221288   0.226   5.094   0.594
 7116TIP3    H121289   0.185   5.009   0.581
 7116TIP3    H221290   0.158   5.157   0.569
 7117TIP3   OH221291   2.078   0.014   4.968
 7117TIP3    H121292   2.031   0.059   4.898
 7117TIP3    H221293   2.015   0.011   5.041
 7118TIP3   OH221294   3.483   2.303   4.383
 7118TIP3    H121295   3.457   2.392   4.407
 7118TIP3    H221296   3.570   2.314   4.345
 7119TIP3   OH221297   3.685   3.807   2.039
 7119TIP3    H121298   3.760   3.780   1.985
 7119TIP3    H221299   3.671   3.733   2.098
 7120TIP3   OH221300   2.542   0.139   0.105
 7120TIP3    H121301   2.484   0.085   0.159
 7120TIP3    H221302   2.584   0.077   0.046
 7121TIP3   OH221303   7.264   5.539   4.977
 7121TIP3    H121304   7.311   5.622   4.973
 7121TIP3    H221305   7.282   5.496   4.893
 7122TIP3   OH221306   2.473   5.947   2.171
 7122TIP3    H121307   2.531   5.890   2.222
 7122TIP3    H221308   2.390   5.945   2.218
 7123TIP3   OH221309   4.196   2.711   1.281
 7123TIP3    H121310   4.282   2.682   1.251
 7123TIP3    H221311   4.205   2.722   1.375
 7124TIP3   OH221312   2.058   2.643   0.117
 7124TIP3    H121313   2.088   2.615   0.031
 7124TIP3    H221314   2.056   2.563   0.169
 7125TIP3   OH221315   4.953   4.591   6.676
 7125TIP3    H121316   4.899   4.644   6.618
 7125TIP3    H221317   4.895   4.521   6.707
 7126TIP3   OH221318   7.371   7.192   0.002
 7126TIP3    H121319   7.400   7.127   0.066
 7126TIP3    H221320   7.371   7.275   0.048
 7127TIP3   OH221321   0.704   3.536   0.327
 7127TIP3    H121322   0.746   3.597   0.388
 7127TIP3    H221323   0.645   3.484   0.382
 7128TIP3   OH221324   2.952   4.375   2.561
 7128TIP3    H121325   2.877   4.384   2.502
 7128TIP3    H221326   2.964   4.462   2.599
 7129TIP3   OH221327   0.220   1.272   6.103
 7129TIP3    H121328   0.223   1.256   6.197
 7129TIP3    H221329   0.126   1.270   6.082
 7130TIP3   OH221330   0.691   0.583   4.524
 7130TIP3    H121331   0.770   0.614   4.568
 7130TIP3    H221332   0.709   0.492   4.503
 7131TIP3   OH221333   1.313   1.038   5.286
 7131TIP3    H121334   1.243   1.074   5.231
 7131TIP3    H221335   1.296   1.074   5.373
 7132TIP3   OH221336   1.367   6.524   3.507
 7132TIP3    H121337   1.293   6.483   3.462
 7132TIP3    H221338   1.440   6.463   3.496
 7133TIP3   OH221339   2.322   4.867   1.397
 7133TIP3    H121340   2.258   4.871   1.326
 7133TIP3    H221341   2.402   4.834   1.355
 7134TIP3   OH221342   1.560   2.586   0.839
 7134TIP3    H121343   1.495   2.539   0.890
 7134TIP3    H221344   1.521   2.595   0.752
 7135TIP3   OH221345   1.480   4.943   0.570
 7135TIP3    H121346   1.444   5.031   0.561
 7135TIP3    H221347   1.575   4.957   0.576
 7136TIP3   OH221348   4.599   6.471   3.141
 7136TIP3    H121349   4.606   6.377   3.157
 7136TIP3    H221350   4.592   6.479   3.046
 7137TIP3   OH221351   2.123   3.992   1.058
 7137TIP3    H121352   2.198   4.038   1.095
 7137TIP3    H221353   2.051   4.013   1.118
 7138TIP3   OH221354   3.473   6.493   2.461
 7138TIP3    H121355   3.392   6.539   2.440
 7138TIP3    H221356   3.499   6.451   2.379
 7139TIP3   OH221357   3.398   3.161   4.393
 7139TIP3    H121358   3.414   3.067   4.388
 7139TIP3    H221359   3.453   3.199   4.324
 7140TIP3   OH221360   1.044   2.316   4.410
 7140TIP3    H121361   1.087   2.231   4.408
 7140TIP3    H221362   1.087   2.363   4.482
 7141TIP3   OH221363   2.379   5.615   6.675
 7141TIP3    H121364   2.459   5.564   6.660
 7141TIP3    H221365   2.370   5.616   6.770
 7142TIP3   OH221366   0.670   7.756   3.670
 7142TIP3    H121367   0.592   7.812   3.667
 7142TIP3    H221368   0.736   7.803   3.619
 7143TIP3   OH221369   7.392   4.433   3.914
 7143TIP3    H121370   7.344   4.474   3.986
 7143TIP3    H221371   7.447   4.503   3.879
 7144TIP3   OH221372   4.130   0.419   6.161
 7144TIP3    H121373   4.149   0.382   6.247
 7144TIP3    H221374   4.216   0.429   6.119
 7145TIP3   OH221375   2.473   5.086   6.674
 7145TIP3    H121376   2.562   5.109   6.700
 7145TIP3    H221377   2.422   5.088   6.755
 7146TIP3   OH221378   4.550   7.299   0.942
 7146TIP3    H121379   4.501   7.333   0.867
 7146TIP3    H221380   4.592   7.376   0.981
 7147TIP3   OH221381   0.366   2.860   1.041
 7147TIP3    H121382   0.348   2.786   1.099
 7147TIP3    H221383   0.290   2.864   0.983
 7148TIP3   OH221384   6.661   6.579   3.650
 7148TIP3    H121385   6.728   6.513   3.669
 7148TIP3    H221386   6.597   6.568   3.720
 7149TIP3   OH221387   2.924   7.684   6.315
 7149TIP3    H121388   2.890   7.753   6.371
 7149TIP3    H221389   2.995   7.644   6.366
 7150TIP3   OH221390   6.808   0.633   5.189
 7150TIP3    H121391   6.879   0.586   5.147
 7150TIP3    H221392   6.728   0.590   5.158
 7151TIP3   OH221393   5.796   6.047   1.687
 7151TIP3    H121394   5.746   6.085   1.615
 7151TIP3    H221395   5.883   6.033   1.651
 7152TIP3   OH221396   0.712   4.777   2.972
 7152TIP3    H121397   0.771   4.778   3.047
 7152TIP3    H221398   0.720   4.864   2.933
 7153TIP3   OH221399   2.650   1.579   4.764
 7153TIP3    H121400   2.618   1.503   4.812
 7153TIP3    H221401   2.582   1.597   4.699
 7154TIP3   OH221402   0.888   1.536   4.177
 7154TIP3    H121403   0.862   1.626   4.201
 7154TIP3    H221404   0.931   1.502   4.255
 7155TIP3   OH221405   1.615   2.640   4.483
 7155TIP3    H121406   1.567   2.607   4.407
 7155TIP3    H221407   1.607   2.571   4.548
 7156TIP3   OH221408   7.173   1.599   3.759
 7156TIP3    H121409   7.154   1.661   3.689
 7156TIP3    H221410   7.168   1.513   3.718
 7157TIP3   OH221411   0.127   4.374   1.766
 7157TIP3    H121412   0.094   4.290   1.798
 7157TIP3    H221413   0.209   4.387   1.814
 7158TIP3   OH221414   4.209   5.687   3.596
 7158TIP3    H121415   4.255   5.662   3.677
 7158TIP3    H221416   4.128   5.729   3.626
 7159TIP3   OH221417   8.030   4.963   2.448
 7159TIP3    H121418   8.035   4.907   2.370
 7159TIP3    H221419   8.115   5.007   2.451
 7160TIP3   OH221420   0.811   4.711   5.567
 7160TIP3    H121421   0.720   4.723   5.538
 7160TIP3    H221422   0.840   4.799   5.590
 7161TIP3   OH221423   0.837   4.563   3.349
 7161TIP3    H121424   0.776   4.521   3.410
 7161TIP3    H221425   0.915   4.508   3.350
 7162TIP3   OH221426   3.805   1.020   6.096
 7162TIP3    H121427   3.843   1.005   6.182
 7162TIP3    H221428   3.844   1.102   6.066
 7163TIP3   OH221429   4.603   5.269   4.573
 7163TIP3    H121430   4.511   5.278   4.599
 7163TIP3    H221431   4.640   5.206   4.635
 7164TIP3   OH221432   7.960   5.305   1.165
 7164TIP3    H121433   8.049   5.310   1.131
 7164TIP3    H221434   7.908   5.272   1.093
 7165TIP3   OH221435   1.193   6.964   1.321
 7165TIP3    H121436   1.164   7.048   1.287
 7165TIP3    H221437   1.197   6.977   1.416
 7166TIP3   OH221438   2.716   2.574   1.107
 7166TIP3    H121439   2.754   2.612   1.186
 7166TIP3    H221440   2.789   2.533   1.062
 7167TIP3   OH221441   5.390   6.497   3.118
 7167TIP3    H121442   5.365   6.543   3.038
 7167TIP3    H221443   5.486   6.494   3.114
 7168TIP3   OH221444   8.004   7.879   6.649
 7168TIP3    H121445   7.911   7.890   6.633
 7168TIP3    H221446   8.043   7.961   6.617
 7169TIP3   OH221447   4.381   6.061   1.113
 7169TIP3    H121448   4.322   6.132   1.141
 7169TIP3    H221449   4.442   6.103   1.053
 7170TIP3   OH221450   5.478   0.599   2.592
 7170TIP3    H121451   5.480   0.585   2.686
 7170TIP3    H221452   5.500   0.514   2.554
 7171TIP3   OH221453   1.291   6.866   4.620
 7171TIP3    H121454   1.341   6.946   4.608
 7171TIP3    H221455   1.210   6.879   4.571
 7172TIP3   OH221456   3.404   6.059   5.260
 7172TIP3    H121457   3.414   6.049   5.355
 7172TIP3    H221458   3.482   6.018   5.223
 7173TIP3   OH221459   6.453   3.317   3.333
 7173TIP3    H121460   6.396   3.364   3.273
 7173TIP3    H221461   6.395   3.287   3.403
 7174TIP3   OH221462   4.870   2.927   3.040
 7174TIP3    H121463   4.803   2.862   3.061
 7174TIP3    H221464   4.914   2.893   2.962
 7175TIP3   OH221465   6.342   1.130   4.429
 7175TIP3    H121466   6.288   1.071   4.482
 7175TIP3    H221467   6.307   1.122   4.340
 7176TIP3   OH221468   1.274   4.543   0.763
 7176TIP3    H121469   1.264   4.631   0.725
 7176TIP3    H221470   1.351   4.550   0.820
 7177TIP3   OH221471   7.492   4.739   1.110
 7177TIP3    H121472   7.468   4.832   1.117
 7177TIP3    H221473   7.457   4.711   1.026
 7178TIP3   OH221474   0.830   6.881   2.777
 7178TIP3    H121475   0.820   6.888   2.871
 7178TIP3    H221476   0.782   6.956   2.741
 7179TIP3   OH221477   0.144   7.258   1.404
 7179TIP3    H121478   0.083   7.296   1.467
 7179TIP3    H221479   0.150   7.165   1.429
 7180TIP3   OH221480   2.180   2.197   0.847
 7180TIP3    H121481   2.245   2.257   0.811
 7180TIP3    H221482   2.096   2.235   0.820
 7181TIP3   OH221483   4.654   6.803   5.001
 7181TIP3    H121484   4.620   6.714   5.003
 7181TIP3    H221485   4.634   6.834   4.912
 7182TIP3   OH221486   2.269   2.003   5.933
 7182TIP3    H121487   2.331   1.978   6.002
 7182TIP3    H221488   2.245   1.921   5.891
 7183TIP3   OH221489   4.405   4.223   5.964
 7183TIP3    H121490   4.309   4.225   5.964
 7183TIP3    H221491   4.428   4.141   5.919
 7184TIP3   OH221492   3.789   2.959   4.615
 7184TIP3    H121493   3.766   2.867   4.610
 7184TIP3    H221494   3.804   2.975   4.708
 7185TIP3   OH221495   8.064   1.527   3.406
 7185TIP3    H121496   8.121   1.592   3.365
 7185TIP3    H221497   7.979   1.538   3.362
 7186TIP3   OH221498   1.558   7.263   6.321
 7186TIP3    H121499   1.484   7.318   6.348
 7186TIP3    H221500   1.594   7.230   6.403
 7187TIP3   OH221501   1.269   5.227   1.232
 7187TIP3    H121502   1.319   5.209   1.152
 7187TIP3    H221503   1.182   5.251   1.201
 7188TIP3   OH221504   7.822   1.597   1.969
 7188TIP3    H121505   7.768   1.559   2.038
 7188TIP3    H221506   7.767   1.593   1.890
 7189TIP3   OH221507   6.041   4.256   0.098
 7189TIP3    H121508   6.059   4.324   0.034
 7189TIP3    H221509   6.012   4.302   0.176
 7190TIP3   OH221510   1.798   0.610  -0.019
 7190TIP3    H121511   1.820   0.662   0.058
 7190TIP3    H221512   1.859   0.536  -0.018
 7191TIP3   OH221513   0.091   2.569   5.937
 7191TIP3    H121514   0.008   2.563   5.984
 7191TIP3    H221515   0.155   2.594   6.004
 7192TIP3   OH221516   2.176   7.611   3.013
 7192TIP3    H121517   2.250   7.672   3.017
 7192TIP3    H221518   2.120   7.646   2.943
 7193TIP3   OH221519   6.490   3.350   5.529
 7193TIP3    H121520   6.565   3.400   5.496
 7193TIP3    H221521   6.451   3.311   5.451
 7194TIP3   OH221522   7.258   4.516   5.039
 7194TIP3    H121523   7.210   4.579   4.986
 7194TIP3    H221524   7.349   4.525   5.010
 7195TIP3   OH221525   0.982   2.247   1.761
 7195TIP3    H121526   0.894   2.284   1.753
 7195TIP3    H221527   1.034   2.296   1.698
 7196TIP3   OH221528   0.863   2.962   1.919
 7196TIP3    H121529   0.834   2.876   1.887
 7196TIP3    H221530   0.827   3.025   1.857
 7197TIP3   OH221531   6.876   2.457   0.890
 7197TIP3    H121532   6.934   2.425   0.959
 7197TIP3    H221533   6.805   2.393   0.886
 7198TIP3   OH221534   5.800   1.647   3.364
 7198TIP3    H121535   5.751   1.616   3.288
 7198TIP3    H221536   5.761   1.600   3.438
 7199TIP3   OH221537   2.165   6.845   1.203
 7199TIP3    H121538   2.163   6.938   1.229
 7199TIP3    H221539   2.235   6.840   1.137
 7200TIP3   OH221540   8.186   5.165   1.814
 7200TIP3    H121541   8.176   5.215   1.734
 7200TIP3    H221542   8.101   5.123   1.828
 7201TIP3   OH221543   0.041   6.786   4.135
 7201TIP3    H121544   0.024   6.846   4.209
 7201TIP3    H221545   0.124   6.743   4.158
 7202TIP3   OH221546   7.702   2.871   1.406
 7202TIP3    H121547   7.762   2.926   1.355
 7202TIP3    H221548   7.744   2.784   1.405
 7203TIP3   OH221549   6.664   2.645   0.837
 7203TIP3    H121550   6.700   2.711   0.778
 7203TIP3    H221551   6.739   2.589   0.860
 7204TIP3   OH221552   1.396   6.560   2.062
 7204TIP3    H121553   1.388   6.543   1.968
 7204TIP3    H221554   1.473   6.509   2.089
 7205TIP3   OH221555   1.750   6.358   6.047
 7205TIP3    H121556   1.721   6.409   6.123
 7205TIP3    H221557   1.823   6.409   6.010
 7206TIP3   OH221558   4.710   4.815   2.158
 7206TIP3    H121559   4.747   4.768   2.083
 7206TIP3    H221560   4.618   4.827   2.134
 7207TIP3   OH221561   7.722   2.240   4.720
 7207TIP3    H121562   7.634   2.277   4.713
 7207TIP3    H221563   7.738   2.201   4.634
 7208TIP3   OH221564   0.690   0.784   5.031
 7208TIP3    H121565   0.707   0.703   4.981
 7208TIP3    H221566   0.755   0.783   5.101
 7209TIP3   OH221567   2.759   2.567   4.077
 7209TIP3    H121568   2.808   2.611   4.007
 7209TIP3    H221569   2.736   2.636   4.138
 7210TIP3   OH221570   3.560   5.169   6.019
 7210TIP3    H121571   3.654   5.168   6.035
 7210TIP3    H221572   3.541   5.083   5.981
 7211TIP3   OH221573   2.021   1.760   2.028
 7211TIP3    H121574   2.031   1.838   2.083
 7211TIP3    H221575   1.929   1.734   2.041
 7212TIP3   OH221576   1.434   0.925   2.473
 7212TIP3    H121577   1.354   0.970   2.446
 7212TIP3    H221578   1.404   0.838   2.501
 7213TIP3   OH221579   6.064   1.114   1.509
 7213TIP3    H121580   6.143   1.095   1.459
 7213TIP3    H221581   6.012   1.034   1.504
 7214TIP3   OH221582   0.385   4.040   3.428
 7214TIP3    H121583   0.363   4.027   3.520
 7214TIP3    H221584   0.455   3.977   3.411
 7215TIP3   OH221585   0.975   2.832   2.563
 7215TIP3    H121586   0.927   2.750   2.574
 7215TIP3    H221587   1.062   2.804   2.532
 7216TIP3   OH221588   2.229   1.204   5.248
 7216TIP3    H121589   2.295   1.228   5.313
 7216TIP3    H221590   2.170   1.145   5.296
 7217TIP3   OH221591   4.431   4.075   4.305
 7217TIP3    H121592   4.408   4.038   4.220
 7217TIP3    H221593   4.503   4.135   4.286
 7218TIP3   OH221594   2.700   6.437   5.905
 7218TIP3    H121595   2.759   6.373   5.945
 7218TIP3    H221596   2.759   6.498   5.860
 7219TIP3   OH221597   3.235   6.021   0.532
 7219TIP3    H121598   3.177   5.996   0.459
 7219TIP3    H221599   3.316   6.048   0.490
 7220TIP3   OH221600   4.727   2.532   1.198
 7220TIP3    H121601   4.709   2.554   1.289
 7220TIP3    H221602   4.735   2.437   1.197
 7221TIP3   OH221603   0.678   1.383   4.110
 7221TIP3    H121604   0.745   1.445   4.138
 7221TIP3    H221605   0.654   1.413   4.022
 7222TIP3   OH221606   0.891   7.443   4.093
 7222TIP3    H121607   0.954   7.385   4.137
 7222TIP3    H221608   0.886   7.410   4.004
 7223TIP3   OH221609   7.122   1.487   6.011
 7223TIP3    H121610   7.165   1.415   5.965
 7223TIP3    H221611   7.157   1.482   6.100
 7224TIP3   OH221612   2.575   0.368   6.174
 7224TIP3    H121613   2.589   0.461   6.157
 7224TIP3    H221614   2.621   0.351   6.256
 7225TIP3   OH221615   6.985   5.516   4.667
 7225TIP3    H121616   7.073   5.547   4.689
 7225TIP3    H221617   6.971   5.547   4.578
 7226TIP3   OH221618   7.179   5.592   2.438
 7226TIP3    H121619   7.238   5.661   2.469
 7226TIP3    H221620   7.124   5.635   2.373
 7227TIP3   OH221621   4.743   1.611   1.785
 7227TIP3    H121622   4.746   1.670   1.861
 7227TIP3    H221623   4.662   1.562   1.796
 7228TIP3   OH221624   4.546   1.909   3.430
 7228TIP3    H121625   4.626   1.961   3.440
 7228TIP3    H221626   4.475   1.973   3.431
 7229TIP3   OH221627   1.655   0.369   1.596
 7229TIP3    H121628   1.651   0.328   1.683
 7229TIP3    H221629   1.721   0.319   1.549
 7230TIP3   OH221630   8.118   6.254   1.751
 7230TIP3    H121631   8.205   6.290   1.739
 7230TIP3    H221632   8.112   6.184   1.685
 7231TIP3   OH221633   3.040   7.252   2.795
 7231TIP3    H121634   3.121   7.303   2.799
 7231TIP3    H221635   2.976   7.306   2.841
 7232TIP3   OH221636   0.549   2.158   2.876
 7232TIP3    H121637   0.629   2.111   2.852
 7232TIP3    H221638   0.576   2.216   2.947
 7233TIP3   OH221639   1.699   5.060   2.004
 7233TIP3    H121640   1.619   5.077   2.054
 7233TIP3    H221641   1.712   5.140   1.953
 7234TIP3   OH221642   7.620   3.284   0.203
 7234TIP3    H121643   7.618   3.366   0.253
 7234TIP3    H221644   7.529   3.267   0.180
 7235TIP3   OH221645   5.442   4.533   2.710
 7235TIP3    H121646   5.469   4.616   2.670
 7235TIP3    H221647   5.465   4.466   2.645
 7236TIP3   OH221648   0.110   3.053   4.293
 7236TIP3    H121649   0.131   3.137   4.334
 7236TIP3    H221650   0.161   3.052   4.212
 7237TIP3   OH221651   5.097   4.088   2.820
 7237TIP3    H121652   5.173   4.131   2.782
 7237TIP3    H221653   5.033   4.085   2.748
 7238TIP3   OH221654   7.369   4.380   1.090
 7238TIP3    H121655   7.344   4.457   1.040
 7238TIP3    H221656   7.299   4.368   1.154
 7239TIP3   OH221657   2.734   4.096   2.226
 7239TIP3    H121658   2.653   4.054   2.198
 7239TIP3    H221659   2.738   4.079   2.320
 7240TIP3   OH221660   0.315   5.334   3.629
 7240TIP3    H121661   0.309   5.383   3.712
 7240TIP3    H221662   0.399   5.288   3.634
 7241TIP3   OH221663   2.504   6.743   4.639
 7241TIP3    H121664   2.425   6.797   4.647
 7241TIP3    H221665   2.560   6.791   4.578
 7242TIP3   OH221666   5.967   1.387   5.712
 7242TIP3    H121667   5.933   1.427   5.793
 7242TIP3    H221668   5.899   1.404   5.647
 7243TIP3   OH221669   4.882   7.371   6.411
 7243TIP3    H121670   4.856   7.459   6.384
 7243TIP3    H221671   4.829   7.312   6.356
 7244TIP3   OH221672   4.202   7.072   0.255
 7244TIP3    H121673   4.160   7.145   0.299
 7244TIP3    H221674   4.190   7.089   0.162
 7245TIP3   OH221675   5.577   7.906   0.399
 7245TIP3    H121676   5.625   7.927   0.480
 7245TIP3    H221677   5.646   7.886   0.336
 7246TIP3   OH221678   5.840   6.325   4.037
 7246TIP3    H121679   5.821   6.233   4.019
 7246TIP3    H221680   5.788   6.373   3.972
 7247TIP3   OH221681   6.738   2.472   2.349
 7247TIP3    H121682   6.775   2.412   2.284
 7247TIP3    H221683   6.808   2.483   2.413
 7248TIP3   OH221684   7.697   3.978   1.056
 7248TIP3    H121685   7.778   3.929   1.065
 7248TIP3    H221686   7.635   3.916   1.017
 7249TIP3   OH221687   7.620   4.128   6.285
 7249TIP3    H121688   7.552   4.168   6.231
 7249TIP3    H221689   7.578   4.053   6.325
 7250TIP3   OH221690   6.395   2.520   0.900
 7250TIP3    H121691   6.483   2.540   0.868
 7250TIP3    H221692   6.383   2.427   0.880
 7251TIP3   OH221693   5.845   3.287   0.169
 7251TIP3    H121694   5.809   3.257   0.086
 7251TIP3    H221695   5.832   3.382   0.168
 7252TIP3   OH221696   3.261   5.072   1.693
 7252TIP3    H121697   3.170   5.101   1.683
 7252TIP3    H221698   3.290   5.114   1.774
 7253TIP3   OH221699   4.845   4.386   4.060
 7253TIP3    H121700   4.799   4.391   3.976
 7253TIP3    H221701   4.928   4.432   4.045
 7254TIP3   OH221702   5.287   2.373   0.944
 7254TIP3    H121703   5.208   2.336   0.984
 7254TIP3    H221704   5.342   2.397   1.017
 7255TIP3   OH221705   6.444   1.616   5.453
 7255TIP3    H121706   6.371   1.581   5.505
 7255TIP3    H221707   6.465   1.699   5.496
 7256TIP3   OH221708   4.197   6.355   3.055
 7256TIP3    H121709   4.257   6.420   3.016
 7256TIP3    H221710   4.117   6.404   3.073
 7257TIP3   OH221711   5.904   2.447   2.378
 7257TIP3    H121712   5.841   2.476   2.444
 7257TIP3    H221713   5.860   2.373   2.335
 7258TIP3   OH221714   7.899   0.956   1.565
 7258TIP3    H121715   7.832   0.998   1.618
 7258TIP3    H221716   7.884   0.989   1.476
 7259TIP3   OH221717   2.616   0.714   2.790
 7259TIP3    H121718   2.675   0.639   2.779
 7259TIP3    H221719   2.666   0.789   2.759
 7260TIP3   OH221720   5.605   1.862   0.350
 7260TIP3    H121721   5.630   1.837   0.439
 7260TIP3    H221722   5.653   1.943   0.334
 7261TIP3   OH221723   6.670   6.610   4.944
 7261TIP3    H121724   6.719   6.680   4.987
 7261TIP3    H221725   6.697   6.614   4.853
 7262TIP3   OH221726   7.844   4.307   2.542
 7262TIP3    H121727   7.886   4.281   2.460
 7262TIP3    H221728   7.754   4.273   2.534
 7263TIP3   OH221729   1.842   2.345   1.424
 7263TIP3    H121730   1.907   2.416   1.418
 7263TIP3    H221731   1.774   2.370   1.362
 7264TIP3   OH221732   8.006   1.954   0.365
 7264TIP3    H121733   8.043   1.981   0.450
 7264TIP3    H221734   8.079   1.961   0.304
 7265TIP3   OH221735   3.133   3.204   1.477
 7265TIP3    H121736   3.123   3.153   1.557
 7265TIP3    H221737   3.094   3.289   1.496
 7266TIP3   OH221738   4.076   0.478   2.487
 7266TIP3    H121739   4.048   0.508   2.400
 7266TIP3    H221740   4.155   0.427   2.470
 7267TIP3   OH221741   2.914   0.331   3.128
 7267TIP3    H121742   2.930   0.336   3.034
 7267TIP3    H221743   2.973   0.262   3.159
 7268TIP3   OH221744   5.225   7.219   4.134
 7268TIP3    H121745   5.176   7.141   4.158
 7268TIP3    H221746   5.284   7.190   4.064
 7269TIP3   OH221747   4.789   7.144   1.282
 7269TIP3    H121748   4.844   7.100   1.347
 7269TIP3    H221749   4.795   7.089   1.204
 7270TIP3   OH221750   4.094   2.078   5.399
 7270TIP3    H121751   4.150   2.154   5.382
 7270TIP3    H221752   4.117   2.015   5.332
 7271TIP3   OH221753   3.666   1.477   5.938
 7271TIP3    H121754   3.595   1.486   5.874
 7271TIP3    H221755   3.701   1.565   5.948
 7272TIP3   OH221756   5.318   7.430   2.027
 7272TIP3    H121757   5.239   7.483   2.011
 7272TIP3    H221758   5.384   7.494   2.056
 7273TIP3   OH221759   0.756   7.926   4.342
 7273TIP3    H121760   0.747   7.831   4.351
 7273TIP3    H221761   0.675   7.954   4.299
 7274TIP3   OH221762   1.994   4.895   5.926
 7274TIP3    H121763   1.984   4.962   5.858
 7274TIP3    H221764   2.051   4.829   5.887
 7275TIP3   OH221765   0.763   0.094   5.095
 7275TIP3    H121766   0.787   0.182   5.124
 7275TIP3    H221767   0.792   0.037   5.166
 7276TIP3   OH221768   2.250   7.227   2.887
 7276TIP3    H121769   2.163   7.263   2.904
 7276TIP3    H221770   2.293   7.293   2.833
 7277TIP3   OH221771   8.031   6.459   5.691
 7277TIP3    H121772   8.071   6.482   5.608
 7277TIP3    H221773   8.104   6.447   5.751
 7278TIP3   OH221774   2.332   7.268   5.246
 7278TIP3    H121775   2.303   7.234   5.162
 7278TIP3    H221776   2.425   7.289   5.233
 7279TIP3   OH221777   2.250   4.599   2.714
 7279TIP3    H121778   2.321   4.588   2.777
 7279TIP3    H221779   2.209   4.512   2.709
 7280TIP3   OH221780   6.450   0.432   0.273
 7280TIP3    H121781   6.513   0.474   0.213
 7280TIP3    H221782   6.405   0.368   0.219
 7281TIP3   OH221783   1.223   1.689   4.306
 7281TIP3    H121784   1.171   1.761   4.343
 7281TIP3    H221785   1.260   1.725   4.226
 7282TIP3   OH221786   4.762   1.889   0.425
 7282TIP3    H121787   4.756   1.796   0.446
 7282TIP3    H221788   4.678   1.926   0.454
 7283TIP3   OH221789   1.544   6.636   5.868
 7283TIP3    H121790   1.450   6.619   5.861
 7283TIP3    H221791   1.549   6.727   5.898
 7284TIP3   OH221792   4.949   4.005   1.267
 7284TIP3    H121793   4.929   4.015   1.360
 7284TIP3    H221794   4.936   3.911   1.250
 7285TIP3   OH221795   0.185   3.044   5.080
 7285TIP3    H121796   0.252   2.976   5.089
 7285TIP3    H221797   0.105   3.003   5.114
 7286TIP3   OH221798   7.808   2.923   4.040
 7286TIP3    H121799   7.803   2.953   3.949
 7286TIP3    H221800   7.874   2.979   4.080
 7287TIP3   OH221801   2.934   4.159   4.869
 7287TIP3    H121802   2.901   4.078   4.832
 7287TIP3    H221803   2.933   4.145   4.964
 7288TIP3   OH221804   1.056   0.726   2.706
 7288TIP3    H121805   1.147   0.734   2.735
 7288TIP3    H221806   1.007   0.785   2.764
 7289TIP3   OH221807   3.944   6.705   3.401
 7289TIP3    H121808   3.959   6.624   3.449
 7289TIP3    H221809   4.016   6.763   3.428
 7290TIP3   OH221810   4.133   0.185   3.085
 7290TIP3    H121811   4.130   0.270   3.128
 7290TIP3    H221812   4.155   0.204   2.994
 7291TIP3   OH221813   5.013   1.813   6.702
 7291TIP3    H121814   4.979   1.826   6.614
 7291TIP3    H221815   5.100   1.852   6.701
 7292TIP3   OH221816   4.135   5.097   6.403
 7292TIP3    H121817   4.074   5.026   6.381
 7292TIP3    H221818   4.127   5.106   6.498
 7293TIP3   OH221819   4.905   3.204   2.614
 7293TIP3    H121820   4.999   3.222   2.610
 7293TIP3    H221821   4.896   3.137   2.682
 7294TIP3   OH221822   7.973   3.951   4.318
 7294TIP3    H121823   7.956   3.929   4.409
 7294TIP3    H221824   7.900   4.008   4.293
 7295TIP3   OH221825   7.820   5.940   6.208
 7295TIP3    H121826   7.813   5.912   6.299
 7295TIP3    H221827   7.810   5.859   6.158
 7296TIP3   OH221828   6.352   4.079   3.808
 7296TIP3    H121829   6.303   4.107   3.731
 7296TIP3    H221830   6.420   4.021   3.774
 7297TIP3   OH221831   1.214   2.678   4.273
 7297TIP3    H121832   1.199   2.587   4.247
 7297TIP3    H221833   1.151   2.728   4.222
 7298TIP3   OH221834   5.839   4.459   3.910
 7298TIP3    H121835   5.844   4.370   3.944
 7298TIP3    H221836   5.819   4.448   3.817
 7299TIP3   OH221837   0.321   3.719   0.280
 7299TIP3    H121838   0.411   3.749   0.266
 7299TIP3    H221839   0.275   3.741   0.199
 7300TIP3   OH221840   2.668   3.809   0.900
 7300TIP3    H121841   2.724   3.774   0.830
 7300TIP3    H221842   2.688   3.902   0.903
 7301TIP3   OH221843   6.841   4.930   0.073
 7301TIP3    H121844   6.851   4.896   0.162
 7301TIP3    H221845   6.747   4.942   0.062
 7302TIP3   OH221846   1.845   4.729   4.835
 7302TIP3    H121847   1.762   4.688   4.860
 7302TIP3    H221848   1.911   4.660   4.848
 7303TIP3   OH221849   5.134   6.700   2.344
 7303TIP3    H121850   5.161   6.663   2.427
 7303TIP3    H221851   5.213   6.698   2.289
 7304TIP3   OH221852   0.682   7.501   3.620
 7304TIP3    H121853   0.591   7.478   3.599
 7304TIP3    H221854   0.677   7.593   3.645
 7305TIP3   OH221855   5.345   1.394   4.266
 7305TIP3    H121856   5.415   1.353   4.215
 7305TIP3    H221857   5.373   1.485   4.277
 7306TIP3   OH221858   4.404   6.066   2.329
 7306TIP3    H121859   4.470   6.082   2.262
 7306TIP3    H221860   4.436   5.989   2.377
 7307TIP3   OH221861   5.914   3.022   3.960
 7307TIP3    H121862   5.835   3.067   3.989
 7307TIP3    H221863   5.924   2.950   4.022
 7308TIP3   OH221864   0.058   4.661   6.007
 7308TIP3    H121865   0.145   4.623   5.996
 7308TIP3    H221866   0.048   4.672   6.101
 7309TIP3   OH221867   0.968   5.401   2.733
 7309TIP3    H121868   0.937   5.312   2.719
 7309TIP3    H221869   1.023   5.396   2.811
 7310TIP3   OH221870   5.763   2.793   4.215
 7310TIP3    H121871   5.798   2.747   4.138
 7310TIP3    H221872   5.677   2.754   4.229
 7311TIP3   OH221873   0.933   2.912   0.789
 7311TIP3    H121874   0.911   2.839   0.846
 7311TIP3    H221875   0.865   2.910   0.720
 7312TIP3   OH221876   1.950   2.530   2.083
 7312TIP3    H121877   2.017   2.461   2.086
 7312TIP3    H221878   1.940   2.549   1.989
 7313TIP3   OH221879   3.838   2.397   5.160
 7313TIP3    H121880   3.761   2.368   5.208
 7313TIP3    H221881   3.806   2.465   5.101
 7314TIP3   OH221882   0.818   4.254   6.030
 7314TIP3    H121883   0.856   4.167   6.037
 7314TIP3    H221884   0.861   4.304   6.100
 7315TIP3   OH221885   3.707   0.206   2.708
 7315TIP3    H121886   3.659   0.149   2.648
 7315TIP3    H221887   3.675   0.294   2.688
 7316TIP3   OH221888   4.573   5.407   6.697
 7316TIP3    H121889   4.538   5.317   6.698
 7316TIP3    H221890   4.658   5.400   6.740
 7317TIP3   OH221891   1.761   5.007   3.956
 7317TIP3    H121892   1.822   5.022   4.028
 7317TIP3    H221893   1.675   5.007   3.999
 7318TIP3   OH221894   0.407   4.090   4.219
 7318TIP3    H121895   0.442   4.050   4.298
 7318TIP3    H221896   0.333   4.143   4.249
 7319TIP3   OH221897   1.130   4.620   4.501
 7319TIP3    H121898   1.184   4.633   4.579
 7319TIP3    H221899   1.175   4.669   4.433
 7320TIP3   OH221900   4.170   4.812   0.623
 7320TIP3    H121901   4.207   4.824   0.535
 7320TIP3    H221902   4.076   4.802   0.608
 7321TIP3   OH221903   6.049   7.562   2.563
 7321TIP3    H121904   5.955   7.547   2.553
 7321TIP3    H221905   6.075   7.501   2.633
 7322TIP3   OH221906   2.050   3.772   3.818
 7322TIP3    H121907   1.972   3.781   3.763
 7322TIP3    H221908   2.023   3.711   3.887
 7323TIP3   OH221909   0.097   2.621   0.668
 7323TIP3    H121910   0.143   2.550   0.712
 7323TIP3    H221911   0.162   2.658   0.608
 7324TIP3   OH221912   7.562   3.769   3.055
 7324TIP3    H121913   7.544   3.828   2.982
 7324TIP3    H221914   7.652   3.790   3.081
 7325TIP3   OH221915   6.694   2.304   1.880
 7325TIP3    H121916   6.652   2.350   1.808
 7325TIP3    H221917   6.682   2.211   1.860
 7326TIP3   OH221918   5.842   7.606   6.760
 7326TIP3    H121919   5.818   7.564   6.677
 7326TIP3    H221920   5.852   7.699   6.738
 7327TIP3   OH221921   5.023   7.622   0.053
 7327TIP3    H121922   4.996   7.713   0.046
 7327TIP3    H221923   5.088   7.621   0.123
 7328TIP3   OH221924   3.489   2.712   1.912
 7328TIP3    H121925   3.537   2.631   1.897
 7328TIP3    H221926   3.531   2.751   1.989
 7329TIP3   OH221927   0.144   3.895   5.484
 7329TIP3    H121928   0.146   3.808   5.444
 7329TIP3    H221929   0.086   3.946   5.428
 7330TIP3   OH221930   7.779   0.633   6.830
 7330TIP3    H121931   7.870   0.620   6.857
 7330TIP3    H221932   7.782   0.627   6.734
 7331TIP3   OH221933   4.045   1.855   6.546
 7331TIP3    H121934   4.128   1.868   6.501
 7331TIP3    H221935   3.982   1.909   6.498
 7332TIP3   OH221936   6.442   1.677   0.869
 7332TIP3    H121937   6.405   1.589   0.862
 7332TIP3    H221938   6.446   1.709   0.778
 7333TIP3   OH221939   1.111   4.676   2.398
 7333TIP3    H121940   1.156   4.747   2.351
 7333TIP3    H221941   1.038   4.719   2.442
 7334TIP3   OH221942   8.259   4.527   5.712
 7334TIP3    H121943   8.230   4.460   5.774
 7334TIP3    H221944   8.184   4.586   5.703
 7335TIP3   OH221945   2.202   6.914   4.902
 7335TIP3    H121946   2.266   6.958   4.846
 7335TIP3    H221947   2.167   6.843   4.848
 7336TIP3   OH221948   3.945   3.803   2.438
 7336TIP3    H121949   3.948   3.707   2.436
 7336TIP3    H221950   3.986   3.826   2.522
 7337TIP3   OH221951   8.261   4.809   3.357
 7337TIP3    H121952   8.194   4.872   3.384
 7337TIP3    H221953   8.310   4.853   3.288
 7338TIP3   OH221954   1.907   7.660   4.088
 7338TIP3    H121955   1.932   7.601   4.017
 7338TIP3    H221956   1.815   7.638   4.106
 7339TIP3   OH221957   5.190   7.698   6.799
 7339TIP3    H121958   5.141   7.680   6.879
 7339TIP3    H221959   5.234   7.615   6.778
 7340TIP3   OH221960   3.979   7.598   3.340
 7340TIP3    H121961   3.989   7.650   3.260
 7340TIP3    H221962   3.987   7.507   3.311
 7341TIP3   OH221963   3.264   0.570   4.281
 7341TIP3    H121964   3.250   0.564   4.375
 7341TIP3    H221965   3.179   0.549   4.242
 7342TIP3   OH221966   5.248   6.913   5.362
 7342TIP3    H121967   5.316   6.915   5.295
 7342TIP3    H221968   5.296   6.920   5.445
 7343TIP3   OH221969   1.074   3.486   2.781
 7343TIP3    H121970   1.127   3.414   2.815
 7343TIP3    H221971   0.985   3.468   2.812
 7344TIP3   OH221972   7.994   0.069   4.095
 7344TIP3    H121973   8.067   0.020   4.132
 7344TIP3    H221974   7.996   0.048   4.002
 7345TIP3   OH221975   0.088   2.168   5.054
 7345TIP3    H121976   0.174   2.148   5.017
 7345TIP3    H221977   0.035   2.090   5.036
 7346TIP3   OH221978   4.626   4.779   3.434
 7346TIP3    H121979   4.628   4.873   3.452
 7346TIP3    H221980   4.625   4.773   3.338
 7347TIP3   OH221981   2.407   3.183   6.872
 7347TIP3    H121982   2.356   3.264   6.868
 7347TIP3    H221983   2.472   3.192   6.803
 7348TIP3   OH221984   7.558   7.746   1.105
 7348TIP3    H121985   7.521   7.704   1.183
 7348TIP3    H221986   7.616   7.814   1.140
 7349TIP3   OH221987   5.288   7.720   2.304
 7349TIP3    H121988   5.358   7.656   2.293
 7349TIP3    H221989   5.278   7.728   2.399
 7350TIP3   OH221990   3.994   6.635   0.056
 7350TIP3    H121991   3.984   6.540   0.053
 7350TIP3    H221992   3.923   6.665   0.113
 7351TIP3   OH221993   5.770   2.238   4.612
 7351TIP3    H121994   5.825   2.315   4.598
 7351TIP3    H221995   5.680   2.272   4.605
 7352TIP3   OH221996   0.919   0.505   2.215
 7352TIP3    H121997   0.835   0.549   2.207
 7352TIP3    H221998   0.897   0.412   2.218
 7353TIP3   OH221999   7.598   1.677   3.916
 7353TIP3    H122000   7.593   1.587   3.882
 7353TIP3    H222001   7.561   1.672   4.004
 7354TIP3   OH222002   3.862   5.447   1.542
 7354TIP3    H122003   3.912   5.478   1.618
 7354TIP3    H222004   3.872   5.352   1.543
 7355TIP3   OH222005   5.800   5.669   4.283
 7355TIP3    H122006   5.738   5.707   4.220
 7355TIP3    H222007   5.806   5.736   4.352
 7356TIP3   OH222008   6.136   1.408   5.206
 7356TIP3    H122009   6.190   1.403   5.127
 7356TIP3    H222010   6.163   1.490   5.248
 7357TIP3   OH222011   5.388   3.571   1.271
 7357TIP3    H122012   5.369   3.574   1.177
 7357TIP3    H222013   5.481   3.551   1.275
 7358TIP3   OH222014   5.786   4.645   0.084
 7358TIP3    H122015   5.806   4.654  -0.010
 7358TIP3    H222016   5.871   4.638   0.127
 7359TIP3   OH222017   0.728   0.874   2.021
 7359TIP3    H122018   0.699   0.788   1.991
 7359TIP3    H222019   0.773   0.856   2.103
 7360TIP3   OH222020   1.929   0.035   0.049
 7360TIP3    H122021   1.874  -0.043   0.061
 7360TIP3    H222022   1.888   0.101   0.105
 7361TIP3   OH222023   1.616   2.294   4.136
 7361TIP3    H122024   1.658   2.332   4.059
 7361TIP3    H222025   1.533   2.341   4.144
 7362TIP3   OH222026   0.077   6.454   6.372
 7362TIP3    H122027   0.040   6.382   6.321
 7362TIP3    H222028   0.171   6.444   6.364
 7363TIP3   OH222029   7.547   5.146   3.436
 7363TIP3    H122030   7.545   5.102   3.351
 7363TIP3    H222031   7.476   5.105   3.486
 7364TIP3   OH222032   4.479   7.284   1.239
 7364TIP3    H122033   4.514   7.203   1.275
 7364TIP3    H222034   4.411   7.256   1.178
 7365TIP3   OH222035   3.591   0.312   1.000
 7365TIP3    H122036   3.509   0.331   0.954
 7365TIP3    H222037   3.577   0.226   1.040
 7366TIP3   OH222038   1.762   3.616   4.316
 7366TIP3    H122039   1.703   3.637   4.243
 7366TIP3    H222040   1.844   3.593   4.274
 7367TIP3   OH222041   0.828   2.419   0.531
 7367TIP3    H122042   0.828   2.369   0.449
 7367TIP3    H222043   0.771   2.493   0.514
 7368TIP3   OH222044   2.985   3.926   4.437
 7368TIP3    H122045   2.916   3.992   4.451
 7368TIP3    H222046   3.055   3.952   4.497
 7369TIP3   OH222047   1.964   6.340   1.830
 7369TIP3    H122048   1.927   6.251   1.832
 7369TIP3    H222049   1.946   6.371   1.741
 7370TIP3   OH222050   8.308   1.862   5.274
 7370TIP3    H122051   8.400   1.871   5.299
 7370TIP3    H222052   8.304   1.898   5.185
 7371TIP3   OH222053   0.762   3.629   3.531
 7371TIP3    H122054   0.709   3.692   3.482
 7371TIP3    H222055   0.721   3.625   3.617
 7372TIP3   OH222056   1.261   3.903   2.929
 7372TIP3    H122057   1.244   3.818   2.969
 7372TIP3    H222058   1.268   3.885   2.835
 7373TIP3   OH222059   1.634   3.239   1.413
 7373TIP3    H122060   1.627   3.143   1.410
 7373TIP3    H222061   1.727   3.256   1.399
 7374TIP3   OH222062   7.286   1.303   3.103
 7374TIP3    H122063   7.223   1.310   3.031
 7374TIP3    H222064   7.272   1.383   3.154
 7375TIP3   OH222065   0.363   3.670   3.482
 7375TIP3    H122066   0.318   3.708   3.557
 7375TIP3    H222067   0.447   3.714   3.478
 7376TIP3   OH222068   6.797   0.543   5.498
 7376TIP3    H122069   6.785   0.549   5.403
 7376TIP3    H222070   6.744   0.615   5.533
 7377TIP3   OH222071   7.452   5.975   2.803
 7377TIP3    H122072   7.459   5.984   2.708
 7377TIP3    H222073   7.522   5.914   2.827
 7378TIP3   OH222074   7.528   0.921   1.481
 7378TIP3    H122075   7.452   0.964   1.441
 7378TIP3    H222076   7.491   0.847   1.529
 7379TIP3   OH222077   6.655   2.734   1.330
 7379TIP3    H122078   6.739   2.780   1.324
 7379TIP3    H222079   6.630   2.715   1.240
 7380TIP3   OH222080   1.709   3.583   2.391
 7380TIP3    H122081   1.614   3.594   2.389
 7380TIP3    H222082   1.723   3.489   2.374
 7381TIP3   OH222083   8.321   1.837   3.590
 7381TIP3    H122084   8.265   1.770   3.630
 7381TIP3    H222085   8.393   1.847   3.652
 7382TIP3   OH222086   7.727   7.546   3.959
 7382TIP3    H122087   7.753   7.484   4.027
 7382TIP3    H222088   7.663   7.499   3.906
 7383TIP3   OH222089   0.035   5.040   5.894
 7383TIP3    H122090   0.011   4.963   5.843
 7383TIP3    H222091   0.044   5.007   5.984
 7384TIP3   OH222092   4.911   7.044   3.907
 7384TIP3    H122093   4.982   7.090   3.862
 7384TIP3    H222094   4.857   7.008   3.836
 7385TIP3   OH222095   8.194   7.093   4.107
 7385TIP3    H122096   8.161   7.004   4.119
 7385TIP3    H222097   8.273   7.096   4.162
 7386TIP3   OH222098   5.464   4.856   0.680
 7386TIP3    H122099   5.389   4.893   0.728
 7386TIP3    H222100   5.471   4.766   0.711
 7387TIP3   OH222101   0.744   1.538   2.697
 7387TIP3    H122102   0.709   1.593   2.626
 7387TIP3    H222103   0.771   1.600   2.764
 7388TIP3   OH222104   7.303   7.732   6.366
 7388TIP3    H122105   7.209   7.740   6.347
 7388TIP3    H222106   7.335   7.668   6.303
 7389TIP3   OH222107   1.804   1.195   3.533
 7389TIP3    H122108   1.740   1.186   3.462
 7389TIP3    H222109   1.889   1.182   3.491
 7390TIP3   OH222110   1.303   6.179   1.787
 7390TIP3    H122111   1.357   6.110   1.750
 7390TIP3    H222112   1.260   6.137   1.862
 7391TIP3   OH222113   5.269   7.676   1.864
 7391TIP3    H122114   5.354   7.696   1.904
 7391TIP3    H222115   5.206   7.721   1.920
 7392TIP3   OH222116   7.570   5.587   3.577
 7392TIP3    H122117   7.626   5.628   3.642
 7392TIP3    H222118   7.630   5.560   3.507
 7393TIP3   OH222119   8.228   5.224   6.339
 7393TIP3    H122120   8.271   5.260   6.416
 7393TIP3    H222121   8.205   5.135   6.363
 7394TIP3   OH222122   3.383   1.581   3.001
 7394TIP3    H122123   3.415   1.552   3.087
 7394TIP3    H222124   3.460   1.615   2.957
 7395TIP3   OH222125   2.092   4.726   5.345
 7395TIP3    H122126   2.032   4.665   5.303
 7395TIP3    H222127   2.086   4.706   5.438
 7396TIP3   OH222128   4.748   5.859   4.835
 7396TIP3    H122129   4.655   5.875   4.817
 7396TIP3    H222130   4.752   5.845   4.930
 7397TIP3   OH222131   1.298   0.969   2.108
 7397TIP3    H122132   1.330   0.878   2.107
 7397TIP3    H222133   1.266   0.982   2.197
 7398TIP3   OH222134   1.825   3.628   6.153
 7398TIP3    H122135   1.819   3.549   6.207
 7398TIP3    H222136   1.777   3.694   6.202
 7399TIP3   OH222137   0.476   2.692   6.617
 7399TIP3    H122138   0.406   2.627   6.623
 7399TIP3    H222139   0.501   2.709   6.708
 7400TIP3   OH222140   6.334   4.353   2.391
 7400TIP3    H122141   6.372   4.282   2.444
 7400TIP3    H222142   6.406   4.415   2.380
 7401TIP3   OH222143   0.967   3.851   2.516
 7401TIP3    H122144   0.872   3.853   2.521
 7401TIP3    H222145   0.996   3.926   2.568
 7402TIP3   OH222146   1.809   7.511   4.820
 7402TIP3    H122147   1.845   7.427   4.792
 7402TIP3    H222148   1.753   7.538   4.748
 7403TIP3   OH222149   5.140   3.055   5.329
 7403TIP3    H122150   5.101   2.969   5.309
 7403TIP3    H222151   5.082   3.092   5.395
 7404TIP3   OH222152   7.805   5.455   5.311
 7404TIP3    H122153   7.830   5.409   5.392
 7404TIP3    H222154   7.712   5.438   5.302
 7405TIP3   OH222155   1.231   0.565   6.214
 7405TIP3    H122156   1.249   0.499   6.281
 7405TIP3    H222157   1.317   0.598   6.188
 7406TIP3   OH222158   0.658   4.429   0.843
 7406TIP3    H122159   0.737   4.376   0.846
 7406TIP3    H222160   0.674   4.492   0.772
 7407TIP3   OH222161   4.368   7.280   1.991
 7407TIP3    H122162   4.339   7.302   2.080
 7407TIP3    H222163   4.462   7.298   1.992
 7408TIP3   OH222164   4.182   6.290   3.316
 7408TIP3    H122165   4.173   6.323   3.227
 7408TIP3    H222166   4.268   6.321   3.345
 7409TIP3   OH222167   2.071   2.046   3.362
 7409TIP3    H122168   2.080   1.956   3.329
 7409TIP3    H222169   2.069   2.100   3.282
 7410TIP3   OH222170   2.620   5.599   1.097
 7410TIP3    H122171   2.584   5.543   1.165
 7410TIP3    H222172   2.711   5.571   1.087
 7411TIP3   OH222173   1.679   3.409   0.794
 7411TIP3    H122174   1.673   3.442   0.884
 7411TIP3    H222175   1.649   3.318   0.801
 7412TIP3   OH222176   3.538   0.119   6.729
 7412TIP3    H122177   3.623   0.163   6.727
 7412TIP3    H222178   3.504   0.127   6.640
 7413TIP3   OH222179   6.154   4.487   0.680
 7413TIP3    H122180   6.144   4.477   0.585
 7413TIP3    H222181   6.108   4.568   0.701
 7414TIP3   OH222182   4.127   5.189   1.707
 7414TIP3    H122183   4.137   5.120   1.773
 7414TIP3    H222184   4.137   5.270   1.756
 7415TIP3   OH222185   1.484   7.142   2.480
 7415TIP3    H122186   1.430   7.207   2.526
 7415TIP3    H222187   1.421   7.091   2.428
 7416TIP3   OH222188   5.787   0.513   1.501
 7416TIP3    H122189   5.814   0.604   1.486
 7416TIP3    H222190   5.696   0.519   1.530
 7417TIP3   OH222191   1.945   7.550   6.783
 7417TIP3    H122192   1.880   7.619   6.773
 7417TIP3    H222193   1.906   7.489   6.846
 7418TIP3   OH222194   1.247   1.165   0.117
 7418TIP3    H122195   1.269   1.175   0.209
 7418TIP3    H222196   1.329   1.135   0.076
 7419TIP3   OH222197   2.193   3.886   2.917
 7419TIP3    H122198   2.278   3.843   2.907
 7419TIP3    H222199   2.131   3.813   2.925
 7420TIP3   OH222200   6.360   6.705   5.331
 7420TIP3    H122201   6.268   6.703   5.306
 7420TIP3    H222202   6.374   6.622   5.377
 7421TIP3   OH222203   4.469   4.567   3.502
 7421TIP3    H122204   4.382   4.584   3.466
 7421TIP3    H222205   4.526   4.629   3.456
 7422TIP3   OH222206   6.096   3.072   2.778
 7422TIP3    H122207   6.019   3.086   2.723
 7422TIP3    H222208   6.125   3.160   2.801
 7423TIP3   OH222209   8.142   6.292   5.233
 7423TIP3    H122210   8.166   6.336   5.151
 7423TIP3    H222211   8.164   6.354   5.301
 7424TIP3   OH222212   7.365   5.139   1.766
 7424TIP3    H122213   7.285   5.096   1.795
 7424TIP3    H222214   7.349   5.162   1.674
 7425TIP3   OH222215   6.511   7.398   0.194
 7425TIP3    H122216   6.483   7.480   0.153
 7425TIP3    H222217   6.442   7.378   0.257
 7426TIP3   OH222218   2.997   7.601   1.193
 7426TIP3    H122219   2.958   7.514   1.180
 7426TIP3    H222220   2.922   7.659   1.204
 7427TIP3   OH222221   0.985   7.650   3.951
 7427TIP3    H122222   0.944   7.580   4.001
 7427TIP3    H222223   1.079   7.637   3.965
 7428TIP3   OH222224   8.170   7.360   3.034
 7428TIP3    H122225   8.195   7.269   3.049
 7428TIP3    H222226   8.111   7.357   2.958
 7429TIP3   OH222227   5.214   5.801   1.020
 7429TIP3    H122228   5.254   5.772   0.938
 7429TIP3    H222229   5.147   5.864   0.993
 7430TIP3   OH222230   6.313   1.089   2.078
 7430TIP3    H122231   6.312   1.113   2.171
 7430TIP3    H222232   6.402   1.060   2.061
 7431TIP3   OH222233   2.523   1.116   3.305
 7431TIP3    H122234   2.546   1.026   3.329
 7431TIP3    H222235   2.484   1.153   3.384
 7432TIP3   OH222236   2.583   0.668   2.469
 7432TIP3    H122237   2.579   0.612   2.547
 7432TIP3    H222238   2.513   0.732   2.483
 7433TIP3   OH222239   1.818   5.026   1.293
 7433TIP3    H122240   1.787   5.010   1.203
 7433TIP3    H222241   1.869   5.106   1.287
 7434TIP3   OH222242   4.966   6.180   1.616
 7434TIP3    H122243   4.992   6.225   1.536
 7434TIP3    H222244   5.046   6.134   1.644
 7435TIP3   OH222245   7.284   6.808   4.770
 7435TIP3    H122246   7.250   6.842   4.853
 7435TIP3    H222247   7.375   6.837   4.768
 7436TIP3   OH222248   2.895   3.145   4.567
 7436TIP3    H122249   2.827   3.202   4.531
 7436TIP3    H222250   2.883   3.150   4.662
 7437TIP3   OH222251   7.064   0.803   6.211
 7437TIP3    H122252   7.002   0.846   6.270
 7437TIP3    H222253   7.037   0.832   6.123
 7438TIP3   OH222254   4.031   3.546   2.681
 7438TIP3    H122255   4.051   3.463   2.638
 7438TIP3    H222256   4.108   3.600   2.665
 7439TIP3   OH222257   6.695   4.641   5.077
 7439TIP3    H122258   6.616   4.670   5.031
 7439TIP3    H222259   6.670   4.561   5.122
 7440TIP3   OH222260   7.348   0.145   6.279
 7440TIP3    H122261   7.371   0.233   6.309
 7440TIP3    H222262   7.300   0.159   6.197
 7441TIP3   OH222263   0.233   0.910   6.138
 7441TIP3    H122264   0.186   0.988   6.166
 7441TIP3    H222265   0.325   0.933   6.149
 7442TIP3   OH222266   8.242   2.148   6.670
 7442TIP3    H122267   8.247   2.124   6.762
 7442TIP3    H222268   8.287   2.077   6.624
 7443TIP3   OH222269   4.643   0.598   3.179
 7443TIP3    H122270   4.682   0.685   3.170
 7443TIP3    H222271   4.554   0.608   3.143
 7444TIP3   OH222272   7.173   5.123   2.486
 7444TIP3    H122273   7.222   5.193   2.443
 7444TIP3    H222274   7.146   5.161   2.570
 7445TIP3   OH222275   2.179   6.368   4.208
 7445TIP3    H122276   2.252   6.421   4.240
 7445TIP3    H222277   2.204   6.344   4.119
 7446TIP3   OH222278   7.551   4.455   2.126
 7446TIP3    H122279   7.457   4.439   2.136
 7446TIP3    H222280   7.558   4.549   2.113
 7447TIP3   OH222281   0.861   3.849   3.968
 7447TIP3    H122282   0.784   3.792   3.973
 7447TIP3    H222283   0.826   3.937   3.982
 7448TIP3   OH222284   4.352   0.293   0.471
 7448TIP3    H122285   4.367   0.296   0.565
 7448TIP3    H222286   4.328   0.202   0.453
 7449TIP3   OH222287   5.261   4.482   1.465
 7449TIP3    H122288   5.226   4.467   1.553
 7449TIP3    H222289   5.242   4.575   1.447
 7450TIP3   OH222290   0.266   3.433   1.541
 7450TIP3    H122291   0.257   3.401   1.631
 7450TIP3    H222292   0.299   3.522   1.550
 7451TIP3   OH222293   0.459   3.229   5.260
 7451TIP3    H122294   0.464   3.290   5.186
 7451TIP3    H222295   0.548   3.198   5.272
 7452TIP3   OH222296   0.700   2.024   1.666
 7452TIP3    H122297   0.631   1.983   1.613
 7452TIP3    H222298   0.779   1.972   1.646
 7453TIP3   OH222299   3.062   1.341   4.365
 7453TIP3    H122300   3.031   1.421   4.407
 7453TIP3    H222301   3.039   1.353   4.272
 7454TIP3   OH222302   3.337   6.811   0.468
 7454TIP3    H122303   3.401   6.881   0.452
 7454TIP3    H222304   3.255   6.846   0.434
 7455TIP3   OH222305   2.786   4.752   1.485
 7455TIP3    H122306   2.845   4.725   1.556
 7455TIP3    H222307   2.826   4.716   1.406
 7456TIP3   OH222308   3.325   7.748   4.554
 7456TIP3    H122309   3.238   7.736   4.516
 7456TIP3    H222310   3.375   7.792   4.485
 7457TIP3   OH222311   6.047   4.979   3.670
 7457TIP3    H122312   5.987   5.015   3.735
 7457TIP3    H222313   6.134   5.002   3.702
 7458TIP3   OH222314   0.290   7.499   2.631
 7458TIP3    H122315   0.365   7.479   2.687
 7458TIP3    H222316   0.230   7.547   2.688
 7459TIP3   OH222317   3.967   4.793   3.257
 7459TIP3    H122318   3.920   4.795   3.174
 7459TIP3    H222319   4.009   4.707   3.259
 7460TIP3   OH222320   1.643   6.766   4.451
 7460TIP3    H122321   1.627   6.782   4.358
 7460TIP3    H222322   1.654   6.671   4.457
 7461TIP3   OH222323   2.070   5.891   1.726
 7461TIP3    H122324   2.012   5.917   1.654
 7461TIP3    H222325   2.158   5.897   1.690
 7462TIP3   OH222326   3.615   6.542   3.118
 7462TIP3    H122327   3.645   6.451   3.111
 7462TIP3    H222328   3.533   6.545   3.070
 7463TIP3   OH222329   1.020   4.424   1.018
 7463TIP3    H122330   1.089   4.413   1.084
 7463TIP3    H222331   1.057   4.387   0.938
 7464TIP3   OH222332   2.113   0.077   2.723
 7464TIP3    H122333   2.074   0.060   2.637
 7464TIP3    H222334   2.120   0.172   2.727
 7465TIP3   OH222335   0.514   1.229   5.254
 7465TIP3    H122336   0.455   1.270   5.190
 7465TIP3    H222337   0.599   1.227   5.209
 7466TIP3   OH222338   5.332   4.467   3.417
 7466TIP3    H122339   5.342   4.465   3.321
 7466TIP3    H222340   5.388   4.539   3.445
 7467TIP3   OH222341   6.508   3.400   6.545
 7467TIP3    H122342   6.474   3.311   6.532
 7467TIP3    H222343   6.451   3.455   6.492
 7468TIP3   OH222344   1.025   0.547   4.030
 7468TIP3    H122345   1.010   0.612   4.098
 7468TIP3    H222346   0.963   0.477   4.049
 7469TIP3   OH222347   4.915   0.761   3.991
 7469TIP3    H122348   4.951   0.699   4.054
 7469TIP3    H222349   4.980   0.831   3.986
 7470TIP3   OH222350   5.076   6.943   1.269
 7470TIP3    H122351   4.987   6.938   1.302
 7470TIP3    H222352   5.110   6.854   1.274
 7471TIP3   OH222353   7.127   2.041   3.141
 7471TIP3    H122354   7.141   1.972   3.206
 7471TIP3    H222355   7.053   2.010   3.089
 7472TIP3   OH222356   6.276   3.657   3.412
 7472TIP3    H122357   6.246   3.608   3.335
 7472TIP3    H222358   6.370   3.664   3.400
 7473TIP3   OH222359   8.015   0.643   5.949
 7473TIP3    H122360   8.096   0.633   5.898
 7473TIP3    H222361   7.945   0.632   5.884
 7474TIP3   OH222362   2.167   0.229   4.433
 7474TIP3    H122363   2.209   0.304   4.389
 7474TIP3    H222364   2.197   0.235   4.524
 7475TIP3   OH222365   2.617   4.268   6.377
 7475TIP3    H122366   2.561   4.191   6.367
 7475TIP3    H222367   2.561   4.334   6.417
 7476TIP3   OH222368   5.848   1.492   6.600
 7476TIP3    H122369   5.821   1.468   6.511
 7476TIP3    H222370   5.771   1.478   6.654
 7477TIP3   OH222371   3.172   5.172   3.290
 7477TIP3    H122372   3.156   5.211   3.376
 7477TIP3    H222373   3.124   5.089   3.292
 7478TIP3   OH222374   3.402   1.772   6.703
 7478TIP3    H122375   3.313   1.790   6.672
 7478TIP3    H222376   3.426   1.849   6.753
 7479TIP3   OH222377   7.233   1.757   5.704
 7479TIP3    H122378   7.177   1.702   5.649
 7479TIP3    H222379   7.192   1.755   5.790
 7480TIP3   OH222380   7.734   5.612   0.685
 7480TIP3    H122381   7.798   5.584   0.619
 7480TIP3    H222382   7.661   5.551   0.675
 7481TIP3   OH222383   0.272   7.753   5.619
 7481TIP3    H122384   0.203   7.755   5.553
 7481TIP3    H222385   0.228   7.777   5.700
 7482TIP3   OH222386   1.324   4.602   2.537
 7482TIP3    H122387   1.248   4.638   2.491
 7482TIP3    H222388   1.307   4.507   2.540
 7483TIP3   OH222389   5.806   6.695   3.688
 7483TIP3    H122390   5.864   6.665   3.618
 7483TIP3    H222391   5.863   6.704   3.764
 7484TIP3   OH222392   6.870   6.079   4.093
 7484TIP3    H122393   6.841   6.083   4.001
 7484TIP3    H222394   6.818   6.008   4.131
 7485TIP3   OH222395   0.386   0.281   0.333
 7485TIP3    H122396   0.445   0.215   0.370
 7485TIP3    H222397   0.304   0.269   0.380
 7486TIP3   OH222398   1.898   1.407   5.372
 7486TIP3    H122399   1.891   1.327   5.320
 7486TIP3    H222400   1.850   1.472   5.322
 7487TIP3   OH222401   4.366   4.394   4.283
 7487TIP3    H122402   4.300   4.336   4.322
 7487TIP3    H222403   4.448   4.347   4.294
 7488TIP3   OH222404   2.921  -0.031   6.090
 7488TIP3    H122405   2.911   0.046   6.146
 7488TIP3    H222406   2.935   0.005   6.002
 7489TIP3   OH222407   6.423   1.229   2.836
 7489TIP3    H122408   6.348   1.277   2.870
 7489TIP3    H222409   6.407   1.138   2.860
 7490TIP3   OH222410   0.180   2.265   3.567
 7490TIP3    H122411   0.158   2.231   3.654
 7490TIP3    H222412   0.273   2.286   3.572
 7491TIP3   OH222413   1.268   1.922   0.512
 7491TIP3    H122414   1.331   1.895   0.578
 7491TIP3    H222415   1.288   1.869   0.435
 7492TIP3   OH222416   3.657   3.690   5.746
 7492TIP3    H122417   3.619   3.762   5.795
 7492TIP3    H222418   3.750   3.691   5.770
 7493TIP3   OH222419   1.558   5.614   1.319
 7493TIP3    H122420   1.510   5.647   1.243
 7493TIP3    H222421   1.494   5.563   1.369
 7494TIP3   OH222422   0.042   3.216   3.050
 7494TIP3    H122423   0.084   3.238   3.133
 7494TIP3    H222424  -0.041   3.174   3.075
 7495TIP3   OH222425   6.365   6.221   5.972
 7495TIP3    H122426   6.396   6.174   6.049
 7495TIP3    H222427   6.271   6.201   5.968
 7496TIP3   OH222428   1.869   6.130   4.034
 7496TIP3    H122429   1.846   6.223   4.028
 7496TIP3    H222430   1.791   6.084   4.002
 7497TIP3   OH222431   3.921   1.029   3.045
 7497TIP3    H122432   3.985   1.051   3.113
 7497TIP3    H222433   3.923   1.103   2.985
 7498TIP3   OH222434   5.452   5.377   0.596
 7498TIP3    H122435   5.362   5.402   0.615
 7498TIP3    H222436   5.505   5.425   0.660
 7499TIP3   OH222437   8.224   4.159   0.902
 7499TIP3    H122438   8.130   4.170   0.913
 7499TIP3    H222439   8.239   4.170   0.808
 7500TIP3   OH222440   1.992   3.686   4.695
 7500TIP3    H122441   2.039   3.620   4.745
 7500TIP3    H222442   1.904   3.650   4.685
 7501TIP3   OH222443   2.069   1.327   4.633
 7501TIP3    H122444   2.065   1.410   4.681
 7501TIP3    H222445   2.140   1.339   4.570
 7502TIP3   OH222446   7.366   5.498   6.329
 7502TIP3    H122447   7.419   5.439   6.274
 7502TIP3    H222448   7.357   5.577   6.277
 7503TIP3   OH222449   1.383   6.863   5.636
 7503TIP3    H122450   1.339   6.944   5.612
 7503TIP3    H222451   1.477   6.882   5.626
 7504TIP3   OH222452   7.755   2.864   2.694
 7504TIP3    H122453   7.780   2.869   2.786
 7504TIP3    H222454   7.676   2.918   2.687
 7505TIP3   OH222455   3.483   0.551   6.698
 7505TIP3    H122456   3.507   0.546   6.606
 7505TIP3    H222457   3.544   0.615   6.735
 7506TIP3   OH222458   1.556   4.757   5.631
 7506TIP3    H122459   1.606   4.779   5.552
 7506TIP3    H222460   1.608   4.690   5.675
 7507TIP3   OH222461   4.095   3.087   4.541
 7507TIP3    H122462   4.140   3.004   4.526
 7507TIP3    H222463   4.127   3.145   4.472
 7508TIP3   OH222464   8.429   6.512   5.260
 7508TIP3    H122465   8.415   6.558   5.177
 7508TIP3    H222466   8.351   6.532   5.312
 7509TIP3   OH222467   7.701   3.849   1.637
 7509TIP3    H122468   7.675   3.758   1.656
 7509TIP3    H222469   7.665   3.899   1.709
 7510TIP3   OH222470   2.600   4.464   0.489
 7510TIP3    H122471   2.679   4.410   0.484
 7510TIP3    H222472   2.612   4.515   0.569
 7511TIP3   OH222473   8.323   6.070   5.130
 7511TIP3    H122474   8.415   6.077   5.104
 7511TIP3    H222475   8.317   6.121   5.210
 7512TIP3   OH222476   3.166   4.237   4.783
 7512TIP3    H122477   3.092   4.236   4.843
 7512TIP3    H222478   3.158   4.157   4.732
 7513TIP3   OH222479   1.804   3.266   4.883
 7513TIP3    H122480   1.883   3.217   4.906
 7513TIP3    H222481   1.814   3.351   4.926
 7514TIP3   OH222482   3.516   2.921   4.525
 7514TIP3    H122483   3.514   2.849   4.588
 7514TIP3    H222484   3.553   2.995   4.574
 7515TIP3   OH222485   2.842   7.882   6.503
 7515TIP3    H122486   2.905   7.929   6.558
 7515TIP3    H222487   2.762   7.933   6.509
 7516TIP3   OH222488   6.487   3.975   5.540
 7516TIP3    H122489   6.448   3.999   5.456
 7516TIP3    H222490   6.581   3.970   5.522
 7517TIP3   OH222491   2.307   4.695   6.139
 7517TIP3    H122492   2.391   4.653   6.157
 7517TIP3    H222493   2.323   4.748   6.061
 7518TIP3   OH222494   5.265   6.344   1.566
 7518TIP3    H122495   5.297   6.363   1.654
 7518TIP3    H222496   5.314   6.404   1.510
 7519TIP3   OH222497   7.249   4.215   2.273
 7519TIP3    H122498   7.246   4.301   2.232
 7519TIP3    H222499   7.323   4.219   2.333
 7520TIP3   OH222500   7.176   3.078   6.014
 7520TIP3    H122501   7.123   3.073   5.934
 7520TIP3    H222502   7.234   3.002   6.009
 7521TIP3   OH222503   3.507   7.237   5.276
 7521TIP3    H122504   3.596   7.257   5.248
 7521TIP3    H222505   3.452   7.302   5.232
 7522TIP3   OH222506   3.347   4.869   1.409
 7522TIP3    H122507   3.391   4.884   1.493
 7522TIP3    H222508   3.345   4.956   1.368
 7523TIP3   OH222509   7.290   3.289   5.693
 7523TIP3    H122510   7.208   3.242   5.707
 7523TIP3    H222511   7.335   3.285   5.777
 7524TIP3   OH222512   4.582   5.014   4.968
 7524TIP3    H122513   4.544   5.088   5.015
 7524TIP3    H222514   4.518   4.996   4.898
 7525TIP3   OH222515   5.179   3.486   2.567
 7525TIP3    H122516   5.163   3.449   2.480
 7525TIP3    H222517   5.197   3.410   2.623
 7526TIP3   OH222518   1.925   2.714   2.853
 7526TIP3    H122519   1.841   2.742   2.817
 7526TIP3    H222520   1.931   2.757   2.939
 7527TIP3   OH222521   3.774   5.824   4.635
 7527TIP3    H122522   3.853   5.827   4.689
 7527TIP3    H222523   3.793   5.879   4.560
 7528TIP3   OH222524   1.431   1.630   1.455
 7528TIP3    H122525   1.409   1.677   1.374
 7528TIP3    H222526   1.472   1.697   1.510
 7529TIP3   OH222527   0.502   4.969   4.513
 7529TIP3    H122528   0.510   4.965   4.608
 7529TIP3    H222529   0.418   4.927   4.493
 7530TIP3   OH222530   4.143   7.310   6.784
 7530TIP3    H122531   4.193   7.257   6.722
 7530TIP3    H222532   4.156   7.268   6.869
 7531TIP3   OH222533   1.059   2.282   3.288
 7531TIP3    H122534   1.030   2.229   3.215
 7531TIP3    H222535   0.989   2.275   3.353
 7532TIP3   OH222536   0.892   0.295   5.474
 7532TIP3    H122537   0.817   0.239   5.454
 7532TIP3    H222538   0.927   0.260   5.556
 7533TIP3   OH222539   1.814   7.828   0.218
 7533TIP3    H122540   1.777   7.904   0.263
 7533TIP3    H222541   1.861   7.865   0.143
 7534TIP3   OH222542   1.969   1.392   4.255
 7534TIP3    H122543   2.007   1.473   4.290
 7534TIP3    H222544   1.876   1.399   4.277
 7535TIP3   OH222545   7.611   7.653   1.662
 7535TIP3    H122546   7.671   7.721   1.694
 7535TIP3    H222547   7.575   7.689   1.582
 7536TIP3   OH222548   1.808   4.139   6.184
 7536TIP3    H122549   1.858   4.087   6.121
 7536TIP3    H222550   1.869   4.152   6.257
 7537TIP3   OH222551   0.804   7.384   1.361
 7537TIP3    H122552   0.854   7.407   1.439
 7537TIP3    H222553   0.795   7.466   1.313
 7538TIP3   OH222554   7.131   4.988   0.526
 7538TIP3    H122555   7.172   5.026   0.604
 7538TIP3    H222556   7.038   5.012   0.535
 7539TIP3   OH222557   1.948   1.777   2.408
 7539TIP3    H122558   1.953   1.699   2.353
 7539TIP3    H222559   1.863   1.770   2.451
 7540TIP3   OH222560   5.398   1.320   0.332
 7540TIP3    H122561   5.477   1.275   0.363
 7540TIP3    H222562   5.385   1.286   0.243
 7541TIP3   OH222563   3.760   4.395   2.034
 7541TIP3    H122564   3.816   4.322   2.060
 7541TIP3    H222565   3.671   4.366   2.054
 7542TIP3   OH222566   6.233   6.233   3.077
 7542TIP3    H122567   6.297   6.302   3.062
 7542TIP3    H222568   6.157   6.259   3.026
 7543TIP3   OH222569   0.619   0.485   6.048
 7543TIP3    H122570   0.581   0.541   5.980
 7543TIP3    H222571   0.546   0.464   6.106
 7544TIP3   OH222572   5.449   1.596   3.975
 7544TIP3    H122573   5.406   1.516   4.005
 7544TIP3    H222574   5.378   1.646   3.933
 7545TIP3   OH222575   4.948   5.763   0.349
 7545TIP3    H122576   4.994   5.797   0.426
 7545TIP3    H222577   5.011   5.772   0.277
 7546TIP3   OH222578   5.090   5.906   1.569
 7546TIP3    H122579   5.109   5.925   1.477
 7546TIP3    H222580   5.159   5.952   1.617
 7547TIP3   OH222581   2.383   2.315   5.810
 7547TIP3    H122582   2.294   2.290   5.783
 7547TIP3    H222583   2.435   2.306   5.731
 7548TIP3   OH222584   1.937   1.967   0.090
 7548TIP3    H122585   2.013   1.978   0.033
 7548TIP3    H222586   1.862   1.990   0.035
 7549TIP3   OH222587   1.608   3.185   5.991
 7549TIP3    H122588   1.625   3.167   6.084
 7549TIP3    H222589   1.597   3.280   5.987
 7550TIP3   OH222590   3.181   1.537   4.699
 7550TIP3    H122591   3.208   1.599   4.766
 7550TIP3    H222592   3.089   1.557   4.683
 7551TIP3   OH222593   2.861   5.005   1.825
 7551TIP3    H122594   2.770   4.998   1.798
 7551TIP3    H222595   2.868   4.945   1.900
 7552TIP3   OH222596   2.006   6.670   3.718
 7552TIP3    H122597   1.995   6.762   3.694
 7552TIP3    H222598   2.080   6.640   3.666
 7553TIP3   OH222599   2.400   4.810   1.659
 7553TIP3    H122600   2.380   4.803   1.565
 7553TIP3    H222601   2.316   4.827   1.700
 7554TIP3   OH222602   7.506   2.146   1.817
 7554TIP3    H122603   7.514   2.239   1.800
 7554TIP3    H222604   7.465   2.141   1.903
 7555TIP3   OH222605   3.818   7.527   4.714
 7555TIP3    H122606   3.839   7.573   4.795
 7555TIP3    H222607   3.828   7.435   4.735
 7556TIP3   OH222608   7.761   3.127   5.461
 7556TIP3    H122609   7.774   3.204   5.516
 7556TIP3    H222610   7.749   3.055   5.522
 7557TIP3   OH222611   4.856   0.078   0.673
 7557TIP3    H122612   4.913   0.142   0.714
 7557TIP3    H222613   4.788   0.130   0.631
 7558TIP3   OH222614   0.140   4.154   2.324
 7558TIP3    H122615   0.112   4.203   2.402
 7558TIP3    H222616   0.090   4.073   2.327
 7559TIP3   OH222617   1.929   6.662   2.978
 7559TIP3    H122618   1.880   6.741   2.955
 7559TIP3    H222619   1.946   6.620   2.894
 7560TIP3   OH222620   1.123   6.581   4.503
 7560TIP3    H122621   1.072   6.657   4.530
 7560TIP3    H222622   1.143   6.597   4.411
 7561TIP3   OH222623   3.824   0.265   4.373
 7561TIP3    H122624   3.831   0.360   4.388
 7561TIP3    H222625   3.835   0.255   4.279
 7562TIP3   OH222626   0.986   5.258   0.094
 7562TIP3    H122627   0.934   5.336   0.111
 7562TIP3    H222628   0.927   5.199   0.048
 7563TIP3   OH222629   5.920   2.384   3.403
 7563TIP3    H122630   5.938   2.394   3.310
 7563TIP3    H222631   5.886   2.295   3.412
 7564TIP3   OH222632   6.050   2.189   1.749
 7564TIP3    H122633   5.968   2.218   1.790
 7564TIP3    H222634   6.043   2.093   1.747
 7565TIP3   OH222635   2.429   4.024   2.677
 7565TIP3    H122636   2.404   4.107   2.636
 7565TIP3    H222637   2.393   4.028   2.765
 7566TIP3   OH222638   0.224   1.035   2.852
 7566TIP3    H122639   0.163   1.019   2.925
 7566TIP3    H222640   0.273   0.953   2.844
 7567TIP3   OH222641   0.563   5.930   0.059
 7567TIP3    H122642   0.557   5.859   0.122
 7567TIP3    H222643   0.544   5.889  -0.025
 7568TIP3   OH222644   6.927   7.310   4.967
 7568TIP3    H122645   6.978   7.351   4.897
 7568TIP3    H222646   6.972   7.335   5.048
 7569TIP3   OH222647   1.907   6.633   2.387
 7569TIP3    H122648   1.904   6.539   2.371
 7569TIP3    H222649   1.968   6.666   2.322
 7570TIP3   OH222650   6.162   4.701   3.454
 7570TIP3    H122651   6.166   4.789   3.417
 7570TIP3    H222652   6.197   4.710   3.543
 7571TIP3   OH222653   4.111   3.085   2.683
 7571TIP3    H122654   4.205   3.083   2.664
 7571TIP3    H222655   4.105   3.104   2.776
 7572TIP3   OH222656   5.309   2.356   6.333
 7572TIP3    H122657   5.392   2.391   6.366
 7572TIP3    H222658   5.301   2.393   6.245
 7573TIP3   OH222659   3.395   2.515   6.513
 7573TIP3    H122660   3.388   2.590   6.573
 7573TIP3    H222661   3.468   2.463   6.547
 7574TIP3   OH222662   7.399   2.916   0.529
 7574TIP3    H122663   7.340   2.882   0.462
 7574TIP3    H222664   7.479   2.938   0.483
 7575TIP3   OH222665   6.777   6.840   5.024
 7575TIP3    H122666   6.837   6.912   5.008
 7575TIP3    H222667   6.749   6.852   5.115
 7576TIP3   OH222668   4.284   0.151   6.002
 7576TIP3    H122669   4.327   0.116   5.924
 7576TIP3    H222670   4.287   0.246   5.991
 7577TIP3   OH222671   5.380   5.429   0.944
 7577TIP3    H122672   5.313   5.413   1.010
 7577TIP3    H222673   5.432   5.502   0.980
 7578TIP3   OH222674   7.258   4.529   5.919
 7578TIP3    H122675   7.172   4.546   5.881
 7578TIP3    H222676   7.319   4.551   5.849
 7579TIP3   OH222677   4.033   6.789   5.224
 7579TIP3    H122678   4.107   6.746   5.182
 7579TIP3    H222679   3.957   6.761   5.174
 7580TIP3   OH222680   2.129   4.639   0.706
 7580TIP3    H122681   2.102   4.680   0.788
 7580TIP3    H222682   2.208   4.686   0.681
 7581TIP3   OH222683   5.842   4.601   1.402
 7581TIP3    H122684   5.766   4.615   1.458
 7581TIP3    H222685   5.822   4.649   1.322
 7582TIP3   OH222686   4.971   3.476   2.179
 7582TIP3    H122687   4.906   3.544   2.195
 7582TIP3    H222688   4.952   3.445   2.090
 7583TIP3   OH222689   4.522   3.725   0.347
 7583TIP3    H122690   4.566   3.676   0.278
 7583TIP3    H222691   4.429   3.705   0.336
 7584TIP3   OH222692   2.006   4.730   0.955
 7584TIP3    H122693   1.916   4.702   0.973
 7584TIP3    H222694   1.999   4.824   0.937
 7585TIP3   OH222695   7.217   3.492   2.745
 7585TIP3    H122696   7.254   3.536   2.668
 7585TIP3    H222697   7.255   3.539   2.819
 7586TIP3   OH222698   2.082   2.130   5.294
 7586TIP3    H122699   2.058   2.090   5.210
 7586TIP3    H222700   2.178   2.122   5.297
 7587TIP3   OH222701   2.637   0.011   2.630
 7587TIP3    H122702   2.587  -0.010   2.709
 7587TIP3    H222703   2.596   0.091   2.597
 7588TIP3   OH222704   4.620   5.383   1.148
 7588TIP3    H122705   4.530   5.386   1.181
 7588TIP3    H222706   4.615   5.326   1.071
 7589TIP3   OH222707   6.078   1.940   3.616
 7589TIP3    H122708   6.043   1.962   3.702
 7589TIP3    H222709   6.165   1.904   3.633
 7590TIP3   OH222710   1.421   3.670   1.558
 7590TIP3    H122711   1.499   3.725   1.557
 7590TIP3    H222712   1.454   3.581   1.572
 7591TIP3   OH222713   5.575   5.260   2.881
 7591TIP3    H122714   5.607   5.283   2.968
 7591TIP3    H222715   5.505   5.323   2.864
 7592TIP3   OH222716   1.767   3.726   3.912
 7592TIP3    H122717   1.811   3.643   3.892
 7592TIP3    H222718   1.701   3.734   3.843
 7593TIP3   OH222719   7.205   3.479   6.815
 7593TIP3    H122720   7.141   3.510   6.879
 7593TIP3    H222721   7.208   3.547   6.748
 7594TIP3   OH222722   4.446   7.192   0.013
 7594TIP3    H122723   4.490   7.276   0.002
 7594TIP3    H222724   4.467   7.165   0.102
 7595TIP3   OH222725   0.309   6.203   3.373
 7595TIP3    H122726   0.349   6.119   3.397
 7595TIP3    H222727   0.380   6.267   3.384
 7596TIP3   OH222728   2.867   1.234   4.745
 7596TIP3    H122729   2.791   1.177   4.755
 7596TIP3    H222730   2.883   1.235   4.651
 7597TIP3   OH222731   4.301   4.417   1.490
 7597TIP3    H122732   4.328   4.439   1.579
 7597TIP3    H222733   4.247   4.491   1.462
 7598TIP3   OH222734   5.055   3.660   3.377
 7598TIP3    H122735   5.089   3.663   3.287
 7598TIP3    H222736   4.961   3.648   3.367
 7599TIP3   OH222737   2.456   2.497   4.886
 7599TIP3    H122738   2.368   2.469   4.911
 7599TIP3    H222739   2.471   2.457   4.800
 7600TIP3   OH222740   0.251   7.652   5.915
 7600TIP3    H122741   0.226   7.600   5.992
 7600TIP3    H222742   0.229   7.742   5.940
 7601TIP3   OH222743   1.736   5.348   5.114
 7601TIP3    H122744   1.822   5.389   5.123
 7601TIP3    H222745   1.728   5.330   5.021
 7602TIP3   OH222746   6.968   7.688   5.152
 7602TIP3    H122747   6.880   7.652   5.139
 7602TIP3    H222748   6.956   7.783   5.147
 7603TIP3   OH222749   4.290   1.446   6.334
 7603TIP3    H122750   4.358   1.512   6.319
 7603TIP3    H222751   4.261   1.461   6.424
 7604TIP3   OH222752   1.102   2.412   6.549
 7604TIP3    H122753   1.146   2.335   6.513
 7604TIP3    H222754   1.173   2.473   6.569
 7605TIP3   OH222755   3.190   1.752   0.468
 7605TIP3    H122756   3.104   1.745   0.428
 7605TIP3    H222757   3.232   1.826   0.423
 7606TIP3   OH222758   6.123   6.528   1.331
 7606TIP3    H122759   6.209   6.532   1.373
 7606TIP3    H222760   6.136   6.471   1.256
 7607TIP3   OH222761   6.042   4.199   4.858
 7607TIP3    H122762   5.964   4.239   4.895
 7607TIP3    H222763   6.010   4.143   4.788
 7608TIP3   OH222764   7.738   4.119   2.946
 7608TIP3    H122765   7.667   4.103   2.884
 7608TIP3    H222766   7.746   4.038   2.996
 7609TIP3   OH222767   3.957   4.455   2.324
 7609TIP3    H122768   3.990   4.545   2.313
 7609TIP3    H222769   3.862   4.465   2.332
 7610TIP3   OH222770   6.924   7.184   1.470
 7610TIP3    H122771   6.846   7.229   1.438
 7610TIP3    H222772   6.994   7.249   1.464
 7611TIP3   OH222773   6.122   1.340   0.284
 7611TIP3    H122774   6.177   1.280   0.333
 7611TIP3    H222775   6.146   1.325   0.192
 7612TIP3   OH222776   0.310   3.436   0.409
 7612TIP3    H122777   0.253   3.370   0.449
 7612TIP3    H222778   0.277   3.519   0.442
 7613TIP3   OH222779   6.317   1.863   1.109
 7613TIP3    H122780   6.270   1.790   1.150
 7613TIP3    H222781   6.365   1.903   1.181
 7614TIP3   OH222782   5.757   1.627   1.467
 7614TIP3    H122783   5.666   1.657   1.461
 7614TIP3    H222784   5.750   1.535   1.493
 7615TIP3   OH222785   5.596   0.037   0.803
 7615TIP3    H122786   5.674   0.057   0.751
 7615TIP3    H222787   5.631  -0.007   0.881
 7616TIP3   OH222788   8.121   4.006   5.671
 7616TIP3    H122789   8.206   4.038   5.701
 7616TIP3    H222790   8.141   3.925   5.624
 7617TIP3   OH222791   4.484   7.103   3.087
 7617TIP3    H122792   4.458   7.195   3.086
 7617TIP3    H222793   4.434   7.063   3.015
 7618TIP3   OH222794   3.012   5.996   0.749
 7618TIP3    H122795   3.094   5.947   0.746
 7618TIP3    H222796   2.965   5.959   0.823
 7619TIP3   OH222797   3.170   0.684   1.128
 7619TIP3    H122798   3.160   0.687   1.033
 7619TIP3    H222799   3.264   0.692   1.143
 7620TIP3   OH222800   6.815   3.662   0.858
 7620TIP3    H122801   6.850   3.591   0.804
 7620TIP3    H222802   6.776   3.619   0.934
 7621TIP3   OH222803   5.807   2.021   5.922
 7621TIP3    H122804   5.853   1.938   5.932
 7621TIP3    H222805   5.757   2.011   5.841
 7622TIP3   OH222806   0.854   6.739   6.240
 7622TIP3    H122807   0.858   6.721   6.334
 7622TIP3    H222808   0.938   6.779   6.219
 7623TIP3   OH222809   0.076   5.991   3.263
 7623TIP3    H122810   0.119   6.076   3.259
 7623TIP3    H222811   0.130   5.940   3.324
 7624TIP3   OH222812   1.484   7.068   4.378
 7624TIP3    H122813   1.399   7.085   4.420
 7624TIP3    H222814   1.542   7.046   4.450
 7625TIP3   OH222815   7.730   5.893   3.952
 7625TIP3    H122816   7.731   5.890   4.048
 7625TIP3    H222817   7.643   5.926   3.930
 7626TIP3   OH222818   7.617   1.813   5.002
 7626TIP3    H122819   7.589   1.894   4.960
 7626TIP3    H222820   7.615   1.833   5.095
 7627TIP3   OH222821   0.558   4.089   6.109
 7627TIP3    H122822   0.608   4.071   6.029
 7627TIP3    H222823   0.548   4.003   6.151
 7628TIP3   OH222824   5.874   7.746   4.928
 7628TIP3    H122825   5.960   7.766   4.966
 7628TIP3    H222826   5.814   7.750   5.002
 7629TIP3   OH222827   1.709   1.278   6.709
 7629TIP3    H122828   1.669   1.363   6.689
 7629TIP3    H222829   1.636   1.217   6.712
 7630TIP3   OH222830   4.820   3.343   5.801
 7630TIP3    H122831   4.896   3.347   5.859
 7630TIP3    H222832   4.770   3.268   5.833
 7631TIP3   OH222833   4.673   2.065   6.122
 7631TIP3    H122834   4.690   2.155   6.151
 7631TIP3    H222835   4.724   2.011   6.183
 7632TIP3   OH222836   5.505   3.126   1.475
 7632TIP3    H122837   5.575   3.109   1.411
 7632TIP3    H222838   5.475   3.215   1.455
 7633TIP3   OH222839   7.082   1.904   0.680
 7633TIP3    H122840   7.005   1.952   0.713
 7633TIP3    H222841   7.059   1.812   0.691
 7634TIP3   OH222842   2.309   2.164   2.479
 7634TIP3    H122843   2.354   2.155   2.563
 7634TIP3    H222844   2.319   2.078   2.438
 7635TIP3   OH222845   1.644   0.883   1.631
 7635TIP3    H122846   1.641   0.806   1.575
 7635TIP3    H222847   1.736   0.890   1.657
 7636TIP3   OH222848   1.003   3.643   6.779
 7636TIP3    H122849   1.061   3.688   6.840
 7636TIP3    H222850   1.022   3.550   6.793
 7637TIP3   OH222851   7.835   0.648   6.531
 7637TIP3    H122852   7.873   0.562   6.551
 7637TIP3    H222853   7.744   0.630   6.511
 7638TIP3   OH222854   6.241   0.848   6.783
 7638TIP3    H122855   6.272   0.812   6.700
 7638TIP3    H222856   6.289   0.930   6.793
 7639TIP3   OH222857   4.461   5.034   1.565
 7639TIP3    H122858   4.384   4.986   1.597
 7639TIP3    H222859   4.430   5.124   1.555
 7640TIP3   OH222860   0.107   7.364   4.024
 7640TIP3    H122861   0.057   7.436   3.983
 7640TIP3    H222862   0.190   7.404   4.048
 7641TIP3   OH222863   3.653   2.098   0.360
 7641TIP3    H122864   3.584   2.040   0.327
 7641TIP3    H222865   3.644   2.178   0.309
 7642TIP3   OH222866   3.087   4.166   3.096
 7642TIP3    H122867   3.017   4.128   3.150
 7642TIP3    H222868   3.114   4.094   3.039
 7643TIP3   OH222869   7.464   2.075   4.504
 7643TIP3    H122870   7.435   2.105   4.591
 7643TIP3    H222871   7.557   2.097   4.501
 7644TIP3   OH222872   5.601   1.614   4.729
 7644TIP3    H122873   5.676   1.571   4.771
 7644TIP3    H222874   5.602   1.703   4.765
 7645TIP3   OH222875   2.808   5.152   3.882
 7645TIP3    H122876   2.836   5.244   3.880
 7645TIP3    H222877   2.850   5.116   3.960
 7646TIP3   OH222878   2.727   7.581   1.539
 7646TIP3    H122879   2.660   7.569   1.607
 7646TIP3    H222880   2.686   7.641   1.476
 7647TIP3   OH222881   7.173   2.831   6.315
 7647TIP3    H122882   7.151   2.820   6.407
 7647TIP3    H222883   7.089   2.832   6.270
 7648TIP3   OH222884   2.983   1.681   5.330
 7648TIP3    H122885   3.009   1.738   5.258
 7648TIP3    H222886   3.059   1.623   5.343
 7649TIP3   OH222887   7.288   4.558   6.743
 7649TIP3    H122888   7.349   4.585   6.812
 7649TIP3    H222889   7.222   4.506   6.790
 7650TIP3   OH222890   7.694   6.606   1.487
 7650TIP3    H122891   7.700   6.696   1.453
 7650TIP3    H222892   7.670   6.618   1.579
 7651TIP3   OH222893   1.731   0.684   4.606
 7651TIP3    H122894   1.785   0.736   4.546
 7651TIP3    H222895   1.673   0.635   4.548
 7652TIP3   OH222896   5.511   2.921   4.962
 7652TIP3    H122897   5.475   2.943   5.048
 7652TIP3    H222898   5.534   3.006   4.924
 7653TIP3   OH222899   1.367   3.459   2.915
 7653TIP3    H122900   1.416   3.509   2.849
 7653TIP3    H222901   1.346   3.376   2.872
 7654TIP3   OH222902   4.198   2.011   4.728
 7654TIP3    H122903   4.224   2.100   4.753
 7654TIP3    H222904   4.195   2.013   4.633
 7655TIP3   OH222905   1.317   2.595   2.064
 7655TIP3    H122906   1.393   2.625   2.014
 7655TIP3    H222907   1.306   2.504   2.039
 7656TIP3   OH222908   5.034   3.040   3.253
 7656TIP3    H122909   5.052   2.960   3.302
 7656TIP3    H222910   4.983   3.010   3.177
 7657TIP3   OH222911   5.406   5.218   1.481
 7657TIP3    H122912   5.497   5.220   1.510
 7657TIP3    H222913   5.357   5.256   1.554
 7658TIP3   OH222914   6.746   5.318   5.080
 7658TIP3    H122915   6.815   5.382   5.068
 7658TIP3    H222916   6.774   5.265   5.154
 7659TIP3   OH222917   0.968   5.548   4.220
 7659TIP3    H122918   1.031   5.561   4.149
 7659TIP3    H222919   1.020   5.508   4.290
 7660TIP3   OH222920   3.846   7.064   1.249
 7660TIP3    H122921   3.844   7.130   1.181
 7660TIP3    H222922   3.930   7.020   1.238
 7661TIP3   OH222923   7.550   4.774   3.758
 7661TIP3    H122924   7.573   4.854   3.805
 7661TIP3    H222925   7.456   4.765   3.771
 7662TIP3   OH222926   3.368   5.146   5.456
 7662TIP3    H122927   3.417   5.209   5.509
 7662TIP3    H222928   3.435   5.097   5.409
 7663TIP3   OH222929   5.074   5.075   3.229
 7663TIP3    H122930   5.001   5.126   3.192
 7663TIP3    H222931   5.034   5.021   3.296
 7664TIP3   OH222932   2.459   3.675   3.587
 7664TIP3    H122933   2.448   3.682   3.681
 7664TIP3    H222934   2.387   3.726   3.550
 7665TIP3   OH222935   4.327   3.281   1.013
 7665TIP3    H122936   4.243   3.237   1.026
 7665TIP3    H222937   4.305   3.374   1.014
 7666TIP3   OH222938   3.380   2.625   6.755
 7666TIP3    H122939   3.417   2.625   6.843
 7666TIP3    H222940   3.326   2.704   6.752
 7667TIP3   OH222941   0.987   3.525   5.107
 7667TIP3    H122942   1.038   3.584   5.162
 7667TIP3    H222943   1.017   3.542   5.018
 7668TIP3   OH222944   2.445   4.363   3.266
 7668TIP3    H122945   2.480   4.388   3.180
 7668TIP3    H222946   2.515   4.312   3.306
 7669TIP3   OH222947   3.926   0.173   3.475
 7669TIP3    H122948   3.893   0.260   3.455
 7669TIP3    H222949   3.927   0.169   3.571
 7670TIP3   OH222950  -0.012   2.410   2.093
 7670TIP3    H122951   0.077   2.413   2.060
 7670TIP3    H222952  -0.065   2.450   2.024
 7671TIP3   OH222953   3.401   7.605   2.674
 7671TIP3    H122954   3.368   7.588   2.586
 7671TIP3    H222955   3.327   7.584   2.731
 7672TIP3   OH222956   5.209   5.710   6.337
 7672TIP3    H122957   5.274   5.739   6.273
 7672TIP3    H222958   5.241   5.743   6.421
 7673TIP3   OH222959   6.608   0.022   3.820
 7673TIP3    H122960   6.634  -0.064   3.788
 7673TIP3    H222961   6.674   0.082   3.785
 7674TIP3   OH222962   3.814   2.914   0.892
 7674TIP3    H122963   3.841   2.826   0.862
 7674TIP3    H222964   3.830   2.970   0.816
 7675TIP3   OH222965   7.810   3.253   4.378
 7675TIP3    H122966   7.830   3.259   4.285
 7675TIP3    H222967   7.724   3.210   4.381
 7676TIP3   OH222968   7.977   5.207   4.433
 7676TIP3    H122969   8.048   5.268   4.414
 7676TIP3    H222970   8.022   5.126   4.456
 7677TIP3   OH222971   3.968   0.957   1.278
 7677TIP3    H122972   4.039   0.966   1.342
 7677TIP3    H222973   3.932   1.045   1.270
 7678TIP3   OH222974   7.291   2.598   0.903
 7678TIP3    H122975   7.224   2.663   0.886
 7678TIP3    H222976   7.373   2.649   0.905
 7679TIP3   OH222977   3.944   1.901   5.069
 7679TIP3    H122978   3.926   1.995   5.073
 7679TIP3    H222979   3.964   1.884   4.977
 7680TIP3   OH222980   8.375   4.925   1.802
 7680TIP3    H122981   8.322   4.855   1.765
 7680TIP3    H222982   8.317   5.001   1.805
 7681TIP3   OH222983   3.844   2.620   6.148
 7681TIP3    H122984   3.763   2.581   6.117
 7681TIP3    H222985   3.892   2.548   6.188
 7682TIP3   OH222986   5.700   5.034   1.412
 7682TIP3    H122987   5.763   4.975   1.453
 7682TIP3    H222988   5.695   5.109   1.472
 7683TIP3   OH222989   4.182   5.306   0.800
 7683TIP3    H122990   4.108   5.261   0.839
 7683TIP3    H222991   4.145   5.354   0.726
 7684TIP3   OH222992   5.764   6.934   2.131
 7684TIP3    H122993   5.755   7.020   2.089
 7684TIP3    H222994   5.761   6.871   2.060
 7685TIP3   OH222995   1.448   7.878   4.382
 7685TIP3    H122996   1.527   7.931   4.383
 7685TIP3    H222997   1.435   7.853   4.473
 7686TIP3   OH222998   3.504   7.781   4.829
 7686TIP3    H122999   3.440   7.820   4.888
 7686TIP3    H223000   3.493   7.687   4.840
 7687TIP3   OH223001   6.922   1.806   2.353
 7687TIP3    H123002   6.890   1.741   2.290
 7687TIP3    H223003   6.845   1.858   2.374
 7688TIP3   OH223004   5.874   3.612   5.958
 7688TIP3    H123005   5.862   3.584   5.867
 7688TIP3    H223006   5.879   3.530   6.008
 7689TIP3   OH223007   3.542   1.013   5.994
 7689TIP3    H123008   3.630   1.049   6.008
 7689TIP3    H223009   3.504   1.008   6.081
 7690TIP3   OH223010   0.929   4.698   1.313
 7690TIP3    H123011   0.993   4.756   1.273
 7690TIP3    H223012   0.976   4.652   1.382
 7691TIP3   OH223013   7.188   4.517   0.025
 7691TIP3    H123014   7.247   4.455   0.067
 7691TIP3    H223015   7.170   4.582   0.093
 7692TIP3   OH223016   3.387   6.545   5.219
 7692TIP3    H123017   3.400   6.485   5.293
 7692TIP3    H223018   3.434   6.624   5.244
 7693TIP3   OH223019   8.006   3.761   4.084
 7693TIP3    H123020   7.964   3.782   4.167
 7693TIP3    H223021   8.093   3.727   4.108
 7694TIP3   OH223022   4.065   0.720   0.808
 7694TIP3    H123023   4.125   0.786   0.775
 7694TIP3    H223024   4.084   0.714   0.901
 7695TIP3   OH223025   5.098  -0.026   1.399
 7695TIP3    H123026   5.111   0.065   1.423
 7695TIP3    H223027   5.120  -0.030   1.306
 7696TIP3   OH223028   6.235   4.184   3.575
 7696TIP3    H123029   6.304   4.224   3.523
 7696TIP3    H223030   6.198   4.117   3.518
 7697TIP3   OH223031   2.704   3.267   0.903
 7697TIP3    H123032   2.667   3.349   0.936
 7697TIP3    H223033   2.631   3.206   0.901
 7698TIP3   OH223034   5.095   4.123   5.565
 7698TIP3    H123035   5.092   4.105   5.659
 7698TIP3    H223036   5.169   4.183   5.555
 7699TIP3   OH223037   2.425   0.198   5.909
 7699TIP3    H123038   2.351   0.219   5.851
 7699TIP3    H223039   2.478   0.278   5.910
 7700TIP3   OH223040   4.958   3.574   4.890
 7700TIP3    H123041   4.995   3.639   4.950
 7700TIP3    H223042   4.874   3.551   4.928
 7701TIP3   OH223043   3.814   6.391   4.951
 7701TIP3    H123044   3.758   6.372   4.876
 7701TIP3    H223045   3.758   6.375   5.027
 7702TIP3   OH223046   0.420   6.164   1.705
 7702TIP3    H123047   0.377   6.088   1.664
 7702TIP3    H223048   0.486   6.191   1.641
 7703TIP3   OH223049   5.872   3.789   5.174
 7703TIP3    H123050   5.947   3.752   5.220
 7703TIP3    H223051   5.824   3.839   5.241
 7704TIP3   OH223052   3.724   7.903   4.959
 7704TIP3    H123053   3.681   7.980   4.997
 7704TIP3    H223054   3.662   7.869   4.896
 7705TIP3   OH223055   4.680   7.357   4.376
 7705TIP3    H123056   4.716   7.284   4.428
 7705TIP3    H223057   4.697   7.331   4.285
 7706TIP3   OH223058   7.628   1.836   3.519
 7706TIP3    H123059   7.594   1.909   3.571
 7706TIP3    H223060   7.688   1.790   3.579
 7707TIP3   OH223061   5.980   5.290   1.972
 7707TIP3    H123062   5.996   5.207   2.015
 7707TIP3    H223063   6.067   5.327   1.957
 7708TIP3   OH223064   5.949   1.650   1.640
 7708TIP3    H123065   5.954   1.556   1.659
 7708TIP3    H223066   5.894   1.655   1.561
 7709TIP3   OH223067   2.218   2.949   5.985
 7709TIP3    H123068   2.209   3.014   5.916
 7709TIP3    H223069   2.146   2.888   5.971
 7710TIP3   OH223070   2.602   7.643   4.407
 7710TIP3    H123071   2.510   7.670   4.398
 7710TIP3    H223072   2.643   7.672   4.325
 7711TIP3   OH223073   7.026   4.517   3.527
 7711TIP3    H123074   7.068   4.602   3.520
 7711TIP3    H223075   6.933   4.537   3.533
 7712TIP3   OH223076   8.139   2.916   5.360
 7712TIP3    H123077   8.200   2.851   5.395
 7712TIP3    H223078   8.103   2.959   5.437
 7713TIP3   OH223079   8.403   2.638   2.833
 7713TIP3    H123080   8.341   2.709   2.815
 7713TIP3    H223081   8.427   2.651   2.925
 7714TIP3   OH223082   6.116   4.674   1.551
 7714TIP3    H123083   6.084   4.760   1.524
 7714TIP3    H223084   6.118   4.679   1.647
 7715TIP3   OH223085   5.058   7.717   3.962
 7715TIP3    H123086   5.142   7.743   3.925
 7715TIP3    H223087   5.074   7.712   4.057
 7716TIP3   OH223088   1.639   4.732   0.750
 7716TIP3    H123089   1.558   4.751   0.704
 7716TIP3    H223090   1.687   4.672   0.692
 7717TIP3   OH223091   7.891   4.385   6.011
 7717TIP3    H123092   7.851   4.299   6.012
 7717TIP3    H223093   7.963   4.378   5.948
 7718TIP3   OH223094   2.981   2.382   5.252
 7718TIP3    H123095   3.020   2.317   5.194
 7718TIP3    H223096   2.974   2.461   5.198
 7719TIP3   OH223097   1.907   3.618   6.817
 7719TIP3    H123098   2.000   3.600   6.830
 7719TIP3    H223099   1.899   3.632   6.722
 7720TIP3   OH223100   2.013   0.805   2.783
 7720TIP3    H123101   2.017   0.901   2.777
 7720TIP3    H223102   2.002   0.776   2.693
 7721TIP3   OH223103   6.151   4.620   3.888
 7721TIP3    H123104   6.202   4.616   3.969
 7721TIP3    H223105   6.103   4.538   3.885
 7722TIP3   OH223106   5.446   1.860   4.597
 7722TIP3    H123107   5.510   1.920   4.558
 7722TIP3    H223108   5.473   1.854   4.689
 7723TIP3   OH223109   6.273   6.456   4.602
 7723TIP3    H123110   6.255   6.366   4.575
 7723TIP3    H223111   6.271   6.454   4.697
 7724TIP3   OH223112   7.840   7.771   5.437
 7724TIP3    H123113   7.923   7.725   5.450
 7724TIP3    H223114   7.803   7.732   5.358
 7725TIP3   OH223115   6.057   0.461   5.242
 7725TIP3    H123116   5.966   0.435   5.225
 7725TIP3    H223117   6.081   0.515   5.167
 7726TIP3   OH223118   6.330   0.290   0.087
 7726TIP3    H123119   6.376   0.207   0.078
 7726TIP3    H223120   6.299   0.310  -0.002
 7727TIP3   OH223121   6.551   2.253   2.654
 7727TIP3    H123122   6.537   2.174   2.602
 7727TIP3    H223123   6.532   2.325   2.594
 7728TIP3   OH223124   8.101   5.805   6.167
 7728TIP3    H123125   8.082   5.899   6.165
 7728TIP3    H223126   8.016   5.763   6.181
 7729TIP3   OH223127   7.084   7.894   6.092
 7729TIP3    H123128   7.086   7.798   6.088
 7729TIP3    H223129   7.031   7.920   6.017
 7730TIP3   OH223130   6.205   3.011   6.061
 7730TIP3    H123131   6.203   2.973   5.973
 7730TIP3    H223132   6.219   3.105   6.046
 7731TIP3   OH223133   6.061   7.365   2.073
 7731TIP3    H123134   6.017   7.404   1.997
 7731TIP3    H223135   6.085   7.277   2.044
 7732TIP3   OH223136   3.165   4.851   1.998
 7732TIP3    H123137   3.228   4.804   1.943
 7732TIP3    H223138   3.180   4.817   2.086
 7733TIP3   OH223139   5.780   3.556   3.985
 7733TIP3    H123140   5.823   3.580   4.067
 7733TIP3    H223141   5.851   3.553   3.921
 7734TIP3   OH223142   6.773   6.219   2.308
 7734TIP3    H123143   6.678   6.221   2.317
 7734TIP3    H223144   6.798   6.129   2.332
 7735TIP3   OH223145   1.477   3.784   5.690
 7735TIP3    H123146   1.508   3.795   5.780
 7735TIP3    H223147   1.487   3.690   5.673
 7736TIP3   OH223148   2.023   2.967   1.473
 7736TIP3    H123149   2.033   2.890   1.417
 7736TIP3    H223150   1.999   2.932   1.558
 7737TIP3   OH223151   1.613   3.076   4.735
 7737TIP3    H123152   1.687   3.125   4.768
 7737TIP3    H223153   1.571   3.134   4.672
 7738TIP3   OH223154   0.110   2.943   0.334
 7738TIP3    H123155   0.202   2.926   0.315
 7738TIP3    H223156   0.097   3.035   0.310
 7739TIP3   OH223157   5.797   6.821   0.010
 7739TIP3    H123158   5.720   6.859  -0.033
 7739TIP3    H223159   5.795   6.859   0.098
 7740TIP3   OH223160   4.981   3.145   1.533
 7740TIP3    H123161   5.062   3.110   1.497
 7740TIP3    H223162   4.920   3.146   1.459
 7741TIP3   OH223163   3.404   5.615   5.990
 7741TIP3    H123164   3.315   5.615   5.955
 7741TIP3    H223165   3.452   5.674   5.933
 7742TIP3   OH223166   2.749   2.921   0.094
 7742TIP3    H123167   2.696   2.968   0.158
 7742TIP3    H223168   2.761   2.833   0.131
 7743TIP3   OH223169   0.693   4.263   4.599
 7743TIP3    H123170   0.722   4.286   4.687
 7743TIP3    H223171   0.686   4.167   4.600
 7744TIP3   OH223172   1.187   7.793   1.252
 7744TIP3    H123173   1.142   7.725   1.202
 7744TIP3    H223174   1.247   7.833   1.188
 7745TIP3   OH223175   1.905   3.016   6.185
 7745TIP3    H123176   1.824   2.977   6.217
 7745TIP3    H223177   1.974   2.972   6.234
 7746TIP3   OH223178   7.600   6.793   6.052
 7746TIP3    H123179   7.556   6.733   5.992
 7746TIP3    H223180   7.622   6.738   6.128
 7747TIP3   OH223181   8.426   5.673   1.734
 7747TIP3    H123182   8.399   5.704   1.648
 7747TIP3    H223183   8.349   5.629   1.769
 7748TIP3   OH223184   5.554   0.172   5.035
 7748TIP3    H123185   5.649   0.160   5.033
 7748TIP3    H223186   5.542   0.254   5.083
 7749TIP3   OH223187   2.916   3.336   3.704
 7749TIP3    H123188   2.895   3.254   3.749
 7749TIP3    H223189   2.889   3.404   3.766
 7750TIP3   OH223190   5.052   2.920   4.549
 7750TIP3    H123191   4.999   2.868   4.609
 7750TIP3    H223192   5.038   3.010   4.575
 7751TIP3   OH223193   5.886   6.036   0.583
 7751TIP3    H123194   5.822   6.105   0.563
 7751TIP3    H223195   5.970   6.081   0.586
 7752TIP3   OH223196   6.902   4.611   2.983
 7752TIP3    H123197   6.935   4.654   3.062
 7752TIP3    H223198   6.949   4.527   2.980
 7753TIP3   OH223199   8.279   4.625   1.218
 7753TIP3    H123200   8.194   4.581   1.209
 7753TIP3    H223201   8.313   4.594   1.302
 7754TIP3   OH223202   0.611   5.122   6.366
 7754TIP3    H123203   0.527   5.077   6.370
 7754TIP3    H223204   0.647   5.114   6.454
 7755TIP3   OH223205   3.735   1.038   3.915
 7755TIP3    H123206   3.778   1.124   3.905
 7755TIP3    H223207   3.676   1.049   3.988
 7756TIP3   OH223208   6.950   7.522   6.575
 7756TIP3    H123209   6.907   7.447   6.615
 7756TIP3    H223210   7.041   7.515   6.602
 7757TIP3   OH223211   2.499   3.479   2.103
 7757TIP3    H123212   2.588   3.476   2.068
 7757TIP3    H223213   2.494   3.402   2.160
 7758TIP3   OH223214   6.269   1.126   4.700
 7758TIP3    H123215   6.232   1.209   4.671
 7758TIP3    H223216   6.360   1.128   4.670
 7759TIP3   OH223217   7.000   5.814   6.227
 7759TIP3    H123218   7.020   5.873   6.154
 7759TIP3    H223219   6.917   5.846   6.262
 7760TIP3   OH223220   2.475   3.097   0.825
 7760TIP3    H123221   2.516   3.095   0.738
 7760TIP3    H223222   2.432   3.012   0.832
 7761TIP3   OH223223   4.021   1.361   6.829
 7761TIP3    H123224   3.948   1.304   6.851
 7761TIP3    H223225   3.983   1.449   6.826
 7762TIP3   OH223226   6.819   1.453   1.891
 7762TIP3    H123227   6.725   1.458   1.873
 7762TIP3    H223228   6.857   1.528   1.844
 7763TIP3   OH223229   4.963   1.501   6.370
 7763TIP3    H123230   5.017   1.439   6.420
 7763TIP3    H223231   4.926   1.448   6.299
 7764TIP3   OH223232   5.531   0.117   2.755
 7764TIP3    H123233   5.469   0.185   2.780
 7764TIP3    H223234   5.577   0.153   2.679
 7765TIP3   OH223235   3.396   6.952   1.112
 7765TIP3    H123236   3.350   6.921   1.189
 7765TIP3    H223237   3.337   7.017   1.073
 7766TIP3   OH223238   7.797   1.991   0.903
 7766TIP3    H123239   7.802   1.921   0.968
 7766TIP3    H223240   7.739   1.956   0.835
 7767TIP3   OH223241   3.857   6.110   0.916
 7767TIP3    H123242   3.938   6.159   0.902
 7767TIP3    H223243   3.808   6.119   0.835
 7768TIP3   OH223244   7.156   0.642   2.215
 7768TIP3    H123245   7.127   0.714   2.159
 7768TIP3    H223246   7.124   0.563   2.173
 7769TIP3   OH223247   4.991   2.211   5.987
 7769TIP3    H123248   5.063   2.252   5.940
 7769TIP3    H223249   5.029   2.131   6.025
 7770TIP3   OH223250   5.118   2.901   6.292
 7770TIP3    H123251   5.174   2.940   6.226
 7770TIP3    H223252   5.142   2.808   6.292
 7771TIP3   OH223253   1.489   2.749   4.220
 7771TIP3    H123254   1.473   2.736   4.126
 7771TIP3    H223255   1.402   2.741   4.260
 7772TIP3   OH223256   1.503   3.372   2.103
 7772TIP3    H123257   1.533   3.369   2.194
 7772TIP3    H223258   1.408   3.385   2.110
 7773TIP3   OH223259   5.535   7.052   3.686
 7773TIP3    H123260   5.463   7.066   3.624
 7773TIP3    H223261   5.611   7.093   3.644
 7774TIP3   OH223262   7.012   1.431   3.935
 7774TIP3    H123263   7.050   1.517   3.954
 7774TIP3    H223264   7.070   1.393   3.869
 7775TIP3   OH223265   3.649   6.950   1.541
 7775TIP3    H123266   3.645   7.046   1.537
 7775TIP3    H223267   3.722   6.932   1.600
 7776TIP3   OH223268   5.702   2.543   3.514
 7776TIP3    H123269   5.662   2.465   3.552
 7776TIP3    H223270   5.790   2.515   3.489
 7777TIP3   OH223271   3.667   7.173   2.058
 7777TIP3    H123272   3.637   7.221   1.981
 7777TIP3    H223273   3.762   7.175   2.052
 7778TIP3   OH223274   0.524   7.731   0.806
 7778TIP3    H123275   0.509   7.750   0.899
 7778TIP3    H223276   0.476   7.799   0.759
 7779TIP3   OH223277   2.122   1.397   3.752
 7779TIP3    H123278   2.092   1.474   3.801
 7779TIP3    H223279   2.124   1.427   3.661
 7780TIP3   OH223280   7.331   3.306   2.484
 7780TIP3    H123281   7.287   3.228   2.451
 7780TIP3    H223282   7.269   3.377   2.466
 7781TIP3   OH223283   7.207   6.066   0.362
 7781TIP3    H123284   7.136   6.030   0.416
 7781TIP3    H223285   7.255   6.124   0.420
 7782TIP3   OH223286   0.419   4.090   2.403
 7782TIP3    H123287   0.335   4.114   2.441
 7782TIP3    H223288   0.409   3.998   2.378
 7783TIP3   OH223289   3.884   4.694   0.316
 7783TIP3    H123290   3.915   4.732   0.399
 7783TIP3    H223291   3.892   4.765   0.253
 7784TIP3   OH223292   0.377   1.531   5.786
 7784TIP3    H123293   0.332   1.447   5.778
 7784TIP3    H223294   0.307   1.594   5.805
 7785TIP3   OH223295   0.961   2.981   4.267
 7785TIP3    H123296   0.996   3.066   4.295
 7785TIP3    H223297   0.973   2.980   4.172
 7786TIP3   OH223298   4.860   2.673   1.457
 7786TIP3    H123299   4.802   2.728   1.404
 7786TIP3    H223300   4.803   2.606   1.494
 7787TIP3   OH223301   3.571   4.888   3.879
 7787TIP3    H123302   3.616   4.962   3.919
 7787TIP3    H223303   3.580   4.816   3.941
 7788TIP3   OH223304   4.393   2.558   2.496
 7788TIP3    H123305   4.375   2.495   2.566
 7788TIP3    H223306   4.367   2.512   2.416
 7789TIP3   OH223307   5.063   7.707   0.349
 7789TIP3    H123308   5.108   7.762   0.285
 7789TIP3    H223309   4.995   7.764   0.385
 7790TIP3   OH223310   5.276   3.639   0.453
 7790TIP3    H123311   5.189   3.667   0.424
 7790TIP3    H223312   5.283   3.548   0.423
 7791TIP3   OH223313   0.308   5.240   4.560
 7791TIP3    H123314   0.294   5.185   4.483
 7791TIP3    H223315   0.322   5.178   4.632
 7792TIP3   OH223316   1.240   5.633   5.656
 7792TIP3    H123317   1.327   5.644   5.693
 7792TIP3    H223318   1.251   5.571   5.584
 7793TIP3   OH223319   5.637   2.558   4.618
 7793TIP3    H123320   5.586   2.619   4.672
 7793TIP3    H223321   5.701   2.613   4.574
 7794TIP3   OH223322   2.897   2.675   5.976
 7794TIP3    H123323   2.931   2.707   6.060
 7794TIP3    H223324   2.804   2.662   5.992
 7795TIP3   OH223325   2.617   3.115   0.265
 7795TIP3    H123326   2.580   3.153   0.344
 7795TIP3    H223327   2.692   3.170   0.244
 7796TIP3   OH223328   3.621   0.387   1.435
 7796TIP3    H123329   3.660   0.319   1.489
 7796TIP3    H223330   3.691   0.412   1.374
 7797TIP3   OH223331   6.572   2.074   4.287
 7797TIP3    H123332   6.629   2.152   4.291
 7797TIP3    H223333   6.572   2.041   4.377
 7798TIP3   OH223334   6.674   4.537   6.156
 7798TIP3    H123335   6.656   4.510   6.066
 7798TIP3    H223336   6.614   4.486   6.210
 7799TIP3   OH223337   4.651   5.814   0.935
 7799TIP3    H123338   4.669   5.758   1.010
 7799TIP3    H223339   4.724   5.800   0.876
 7800TIP3   OH223340   4.673   3.690   0.097
 7800TIP3    H123341   4.675   3.655   0.008
 7800TIP3    H223342   4.708   3.779   0.088
 7801TIP3   OH223343   1.229   1.231   0.392
 7801TIP3    H123344   1.216   1.198   0.481
 7801TIP3    H223345   1.262   1.321   0.404
 7802TIP3   OH223346   3.812   5.654   5.065
 7802TIP3    H123347   3.805   5.560   5.079
 7802TIP3    H223348   3.793   5.666   4.971
 7803TIP3   OH223349   7.918   2.014   2.073
 7803TIP3    H123350   7.978   2.011   1.999
 7803TIP3    H223351   7.951   1.949   2.135
 7804TIP3   OH223352   2.408   6.154   5.407
 7804TIP3    H123353   2.497   6.165   5.439
 7804TIP3    H223354   2.361   6.114   5.480
 7805TIP3   OH223355   6.002   4.993   5.580
 7805TIP3    H123356   5.921   5.016   5.535
 7805TIP3    H223357   6.043   4.927   5.525
 7806TIP3   OH223358   0.197   6.192   6.507
 7806TIP3    H123359   0.153   6.261   6.558
 7806TIP3    H223360   0.229   6.237   6.429
 7807TIP3   OH223361   6.818   2.864   4.520
 7807TIP3    H123362   6.735   2.817   4.514
 7807TIP3    H223363   6.885   2.796   4.510
 7808TIP3   OH223364   3.189   3.429   2.539
 7808TIP3    H123365   3.117   3.386   2.584
 7808TIP3    H223366   3.250   3.453   2.609
 7809TIP3   OH223367   7.324   6.584   3.759
 7809TIP3    H123368   7.291   6.495   3.746
 7809TIP3    H223369   7.298   6.631   3.680
 7810TIP3   OH223370   5.599   1.412   5.040
 7810TIP3    H123371   5.559   1.489   5.080
 7810TIP3    H223372   5.688   1.439   5.019
 7811TIP3   OH223373   2.230   7.374   3.144
 7811TIP3    H123374   2.211   7.457   3.100
 7811TIP3    H223375   2.290   7.328   3.085
 7812TIP3   OH223376   4.286   6.783   0.183
 7812TIP3    H123377   4.360   6.804   0.126
 7812TIP3    H223378   4.276   6.860   0.239
 7813TIP3   OH223379   4.474   7.787   3.139
 7813TIP3    H123380   4.474   7.832   3.055
 7813TIP3    H223381   4.566   7.787   3.167
 7814TIP3   OH223382   3.117   7.299   4.720
 7814TIP3    H123383   3.129   7.387   4.758
 7814TIP3    H223384   3.147   7.240   4.788
 7815TIP3   OH223385   6.613   6.024   5.311
 7815TIP3    H123386   6.657   6.014   5.395
 7815TIP3    H223387   6.522   6.044   5.333
 7816TIP3   OH223388   0.102   6.861   3.870
 7816TIP3    H123389   0.075   6.834   3.958
 7816TIP3    H223390   0.094   6.956   3.870
 7817TIP3   OH223391   3.590   4.467   6.294
 7817TIP3    H123392   3.603   4.428   6.381
 7817TIP3    H223393   3.667   4.442   6.245
 7818TIP3   OH223394   7.266   0.326   5.080
 7818TIP3    H123395   7.274   0.275   4.999
 7818TIP3    H223396   7.229   0.410   5.052
 7819TIP3   OH223397   6.750   6.982   0.915
 7819TIP3    H123398   6.671   7.035   0.905
 7819TIP3    H223399   6.717   6.895   0.935
 7820TIP3   OH223400   0.196   4.236   5.472
 7820TIP3    H123401   0.138   4.285   5.529
 7820TIP3    H223402   0.139   4.172   5.428
 7821TIP3   OH223403   4.637   0.695   0.984
 7821TIP3    H123404   4.659   0.662   1.071
 7821TIP3    H223405   4.624   0.616   0.931
 7822TIP3   OH223406   4.307   2.006   0.913
 7822TIP3    H123407   4.313   2.086   0.965
 7822TIP3    H223408   4.393   1.966   0.921
 7823TIP3   OH223409   1.625   4.043   4.404
 7823TIP3    H123410   1.636   4.127   4.359
 7823TIP3    H223411   1.583   4.066   4.487
 7824TIP3   OH223412   0.318   0.080   2.718
 7824TIP3    H123413   0.383   0.015   2.692
 7824TIP3    H223414   0.356   0.164   2.693
 7825TIP3   OH223415   5.561   5.994   6.555
 7825TIP3    H123416   5.622   5.932   6.595
 7825TIP3    H223417   5.596   6.080   6.577
 7826TIP3   OH223418   7.875   2.200   0.715
 7826TIP3    H123419   7.935   2.197   0.641
 7826TIP3    H223420   7.905   2.129   0.773
 7827TIP3   OH223421   1.868   5.905   1.494
 7827TIP3    H123422   1.825   5.991   1.500
 7827TIP3    H223423   1.820   5.851   1.558
 7828TIP3   OH223424   6.019   0.661   4.485
 7828TIP3    H123425   5.961   0.589   4.511
 7828TIP3    H223426   5.961   0.736   4.476
 7829TIP3   OH223427   3.933   4.012   1.007
 7829TIP3    H123428   3.921   4.030   1.100
 7829TIP3    H223429   4.028   4.001   0.997
 7830TIP3   OH223430   2.665   6.487   1.173
 7830TIP3    H123431   2.761   6.487   1.173
 7830TIP3    H223432   2.641   6.526   1.257
 7831TIP3   OH223433   5.451   7.748   2.968
 7831TIP3    H123434   5.407   7.675   2.925
 7831TIP3    H223435   5.436   7.823   2.909
 7832TIP3   OH223436   0.693   3.902   6.417
 7832TIP3    H123437   0.710   3.840   6.346
 7832TIP3    H223438   0.604   3.933   6.400
 7833TIP3   OH223439   4.129   0.808   2.344
 7833TIP3    H123440   4.057   0.767   2.393
 7833TIP3    H223441   4.086   0.872   2.288
 7834TIP3   OH223442   1.775   1.412   4.572
 7834TIP3    H123443   1.774   1.454   4.658
 7834TIP3    H223444   1.866   1.419   4.543
 7835TIP3   OH223445   2.937   1.205   0.676
 7835TIP3    H123446   2.964   1.208   0.767
 7835TIP3    H223447   3.014   1.175   0.628
 7836TIP3   OH223448   4.661   5.610   1.644
 7836TIP3    H123449   4.648   5.634   1.553
 7836TIP3    H223450   4.736   5.662   1.672
 7837TIP3   OH223451   2.349   6.675   3.868
 7837TIP3    H123452   2.416   6.682   3.936
 7837TIP3    H223453   2.269   6.709   3.908
 7838TIP3   OH223454   2.371   1.770   6.373
 7838TIP3    H123455   2.443   1.787   6.312
 7838TIP3    H223456   2.398   1.812   6.455
 7839TIP3   OH223457   7.070   0.329   4.017
 7839TIP3    H123458   7.138   0.270   4.052
 7839TIP3    H223459   7.065   0.307   3.924
 7840TIP3   OH223460   6.166   0.049   6.081
 7840TIP3    H123461   6.181  -0.024   6.021
 7840TIP3    H223462   6.083   0.087   6.052
 7841TIP3   OH223463   8.006   1.280   3.825
 7841TIP3    H123464   8.065   1.355   3.821
 7841TIP3    H223465   7.935   1.309   3.882
 7842TIP3   OH223466   1.719   7.232   3.399
 7842TIP3    H123467   1.716   7.187   3.484
 7842TIP3    H223468   1.806   7.270   3.395
 7843TIP3   OH223469   0.639   4.510   2.932
 7843TIP3    H123470   0.549   4.487   2.953
 7843TIP3    H223471   0.647   4.602   2.960
 7844TIP3   OH223472   2.676   6.029   4.198
 7844TIP3    H123473   2.597   6.073   4.229
 7844TIP3    H223474   2.697   5.967   4.268
 7845TIP3   OH223475   3.877   7.768   6.780
 7845TIP3    H123476   3.882   7.733   6.691
 7845TIP3    H223477   3.887   7.691   6.836
 7846TIP3   OH223478   2.916   4.098   4.134
 7846TIP3    H123479   2.876   4.109   4.048
 7846TIP3    H223480   2.847   4.121   4.196
 7847TIP3   OH223481   1.318   5.468   3.615
 7847TIP3    H123482   1.269   5.548   3.597
 7847TIP3    H223483   1.365   5.449   3.534
 7848TIP3   OH223484   3.242   1.373   5.016
 7848TIP3    H123485   3.294   1.452   5.031
 7848TIP3    H223486   3.152   1.401   5.034
 7849TIP3   OH223487   2.732   7.550   5.962
 7849TIP3    H123488   2.716   7.538   6.056
 7849TIP3    H223489   2.726   7.462   5.925
 7850TIP3   OH223490   5.411   6.892   0.573
 7850TIP3    H123491   5.355   6.921   0.501
 7850TIP3    H223492   5.491   6.862   0.530
 7851TIP3   OH223493   4.235   7.254   6.275
 7851TIP3    H123494   4.198   7.287   6.193
 7851TIP3    H223495   4.241   7.330   6.332
 7852TIP3   OH223496   7.472   7.846   4.667
 7852TIP3    H123497   7.563   7.818   4.658
 7852TIP3    H223498   7.432   7.825   4.583
 7853TIP3   OH223499   5.322   7.462   6.778
 7853TIP3    H123500   5.394   7.423   6.828
 7853TIP3    H223501   5.349   7.454   6.687
 7854TIP3   OH223502   1.797   7.238   1.165
 7854TIP3    H123503   1.822   7.162   1.113
 7854TIP3    H223504   1.724   7.207   1.218
 7855TIP3   OH223505   4.978   5.579   2.307
 7855TIP3    H123506   4.963   5.568   2.400
 7855TIP3    H223507   4.904   5.632   2.277
 7856TIP3   OH223508   1.171   6.116   2.336
 7856TIP3    H123509   1.247   6.072   2.373
 7856TIP3    H223510   1.098   6.088   2.392
 7857TIP3   OH223511   2.861   2.826   3.298
 7857TIP3    H123512   2.851   2.803   3.206
 7857TIP3    H223513   2.955   2.841   3.309
 7858TIP3   OH223514   5.262   6.356   6.692
 7858TIP3    H123515   5.193   6.313   6.742
 7858TIP3    H223516   5.254   6.321   6.603
 7859TIP3   OH223517   4.300   0.054   2.132
 7859TIP3    H123518   4.304   0.137   2.178
 7859TIP3    H223519   4.307  -0.012   2.201
 7860TIP3   OH223520   2.058   6.470   5.376
 7860TIP3    H123521   2.137   6.453   5.428
 7860TIP3    H223522   2.091   6.503   5.292
 7861TIP3   OH223523   5.109   1.294   2.470
 7861TIP3    H123524   5.141   1.212   2.433
 7861TIP3    H223525   5.029   1.313   2.420
 7862TIP3   OH223526   6.834   0.385   4.447
 7862TIP3    H123527   6.820   0.371   4.353
 7862TIP3    H223528   6.917   0.341   4.466
 7863TIP3   OH223529   2.424   3.737   2.954
 7863TIP3    H123530   2.454   3.711   2.867
 7863TIP3    H223531   2.421   3.655   3.004
 7864TIP3   OH223532   7.518   3.993   0.106
 7864TIP3    H123533   7.424   3.981   0.096
 7864TIP3    H223534   7.538   4.069   0.052
 7865TIP3   OH223535   2.284   4.434   3.672
 7865TIP3    H123536   2.190   4.449   3.680
 7865TIP3    H223537   2.322   4.521   3.661
 7866TIP3   OH223538   2.332   0.796   2.520
 7866TIP3    H123539   2.339   0.889   2.497
 7866TIP3    H223540   2.302   0.796   2.611
 7867TIP3   OH223541   6.333   5.200   6.146
 7867TIP3    H123542   6.309   5.270   6.085
 7867TIP3    H223543   6.411   5.233   6.190
 7868TIP3   OH223544   2.465   6.939   0.441
 7868TIP3    H123545   2.465   6.954   0.347
 7868TIP3    H223546   2.378   6.968   0.470
 7869TIP3   OH223547   1.210   2.613   5.285
 7869TIP3    H123548   1.262   2.588   5.361
 7869TIP3    H223549   1.159   2.535   5.264
 7870TIP3   OH223550   2.526   7.624   1.740
 7870TIP3    H123551   2.458   7.560   1.717
 7870TIP3    H223552   2.545   7.606   1.833
 7871TIP3   OH223553   1.308   0.237   5.455
 7871TIP3    H123554   1.290   0.147   5.483
 7871TIP3    H223555   1.307   0.288   5.535
 7872TIP3   OH223556   2.734   5.466   0.352
 7872TIP3    H123557   2.668   5.400   0.332
 7872TIP3    H223558   2.779   5.433   0.429
 7873TIP3   OH223559   6.173   4.803   2.859
 7873TIP3    H123560   6.208   4.729   2.909
 7873TIP3    H223561   6.133   4.763   2.782
 7874TIP3   OH223562   5.281   2.317   2.563
 7874TIP3    H123563   5.343   2.363   2.620
 7874TIP3    H223564   5.262   2.380   2.493
 7875TIP3   OH223565   6.878   2.056   6.534
 7875TIP3    H123566   6.889   2.019   6.446
 7875TIP3    H223567   6.947   2.015   6.586
 7876TIP3   OH223568   1.362   3.956   3.749
 7876TIP3    H123569   1.413   3.999   3.680
 7876TIP3    H223570   1.272   3.982   3.732
 7877TIP3   OH223571   2.839   6.469   2.582
 7877TIP3    H123572   2.863   6.376   2.575
 7877TIP3    H223573   2.904   6.506   2.640
 7878TIP3   OH223574   0.550   7.359   3.306
 7878TIP3    H123575   0.510   7.377   3.392
 7878TIP3    H223576   0.544   7.264   3.296
 7879TIP3   OH223577   3.073   5.013   6.053
 7879TIP3    H123578   3.048   4.961   6.129
 7879TIP3    H223579   3.012   4.986   5.985
 7880TIP3   OH223580   6.863   4.183   6.169
 7880TIP3    H123581   6.878   4.192   6.075
 7880TIP3    H223582   6.803   4.108   6.177
 7881TIP3   OH223583   5.730   3.202   5.481
 7881TIP3    H123584   5.813   3.220   5.524
 7881TIP3    H223585   5.665   3.204   5.552
 7882TIP3   OH223586   7.048   0.430   5.396
 7882TIP3    H123587   7.114   0.488   5.357
 7882TIP3    H223588   6.992   0.405   5.323
 7883TIP3   OH223589   6.981   0.810   6.746
 7883TIP3    H123590   7.011   0.881   6.803
 7883TIP3    H223591   7.047   0.806   6.677
 7884TIP3   OH223592   5.449   4.552   6.587
 7884TIP3    H123593   5.535   4.575   6.622
 7884TIP3    H223594   5.411   4.494   6.653
 7885TIP3   OH223595   7.634   0.824   3.397
 7885TIP3    H123596   7.627   0.850   3.306
 7885TIP3    H223597   7.569   0.877   3.443
 7886TIP3   OH223598   1.440   5.208   0.572
 7886TIP3    H123599   1.528   5.246   0.574
 7886TIP3    H223600   1.381   5.283   0.565
 7887TIP3   OH223601   6.495   4.531   5.331
 7887TIP3    H123602   6.403   4.539   5.306
 7887TIP3    H223603   6.502   4.578   5.414
 7888TIP3   OH223604   5.749   5.392   3.691
 7888TIP3    H123605   5.841   5.368   3.706
 7888TIP3    H223606   5.702   5.309   3.696
 7889TIP3   OH223607   7.033   6.687   1.449
 7889TIP3    H123608   7.039   6.783   1.443
 7889TIP3    H223609   7.005   6.670   1.539
 7890TIP3   OH223610   6.896   5.580   5.051
 7890TIP3    H123611   6.837   5.621   4.988
 7890TIP3    H223612   6.983   5.595   5.015
 7891TIP3   OH223613   3.055   1.643   4.307
 7891TIP3    H123614   3.044   1.728   4.262
 7891TIP3    H223615   3.129   1.657   4.365
 7892TIP3   OH223616   5.561   0.108   5.622
 7892TIP3    H123617   5.643   0.131   5.580
 7892TIP3    H223618   5.587   0.073   5.708
 7893TIP3   OH223619   1.108   0.369   5.330
 7893TIP3    H123620   1.041   0.327   5.384
 7893TIP3    H223621   1.190   0.333   5.361
 7894TIP3   OH223622   1.192   0.021   2.196
 7894TIP3    H123623   1.211   0.078   2.121
 7894TIP3    H223624   1.271  -0.032   2.206
 7895TIP3   OH223625   0.127   6.341   3.885
 7895TIP3    H123626   0.122   6.427   3.843
 7895TIP3    H223627   0.219   6.316   3.879
 7896TIP3   OH223628  -0.012   3.594   5.451
 7896TIP3    H123629   0.047   3.625   5.382
 7896TIP3    H223630   0.043   3.539   5.506
 7897TIP3   OH223631   3.813   6.495   6.034
 7897TIP3    H123632   3.751   6.481   6.106
 7897TIP3    H223633   3.889   6.535   6.075
 7898TIP3   OH223634   6.386   6.081   0.987
 7898TIP3    H123635   6.437   6.009   0.950
 7898TIP3    H223636   6.296   6.049   0.987
 7899TIP3   OH223637   4.782   4.857   5.371
 7899TIP3    H123638   4.844   4.849   5.298
 7899TIP3    H223639   4.804   4.784   5.429
 7900TIP3   OH223640   6.681   4.485   3.287
 7900TIP3    H123641   6.720   4.485   3.199
 7900TIP3    H223642   6.589   4.464   3.273
 7901TIP3   OH223643   3.021   6.046   3.585
 7901TIP3    H123644   3.018   6.131   3.629
 7901TIP3    H223645   3.063   6.064   3.501
 7902TIP3   OH223646   2.848   5.078   5.783
 7902TIP3    H123647   2.759   5.082   5.749
 7902TIP3    H223648   2.876   4.988   5.764
 7903TIP3   OH223649   3.988   3.077   0.085
 7903TIP3    H123650   3.968   2.997   0.134
 7903TIP3    H223651   3.902   3.117   0.069
 7904TIP3   OH223652   5.526   7.854   4.883
 7904TIP3    H123653   5.565   7.886   4.964
 7904TIP3    H223654   5.587   7.879   4.815
 7905TIP3   OH223655   7.371   7.907   1.756
 7905TIP3    H123656   7.430   7.897   1.831
 7905TIP3    H223657   7.297   7.957   1.790
 7906TIP3   OH223658   7.918   6.454   3.857
 7906TIP3    H123659   7.968   6.408   3.924
 7906TIP3    H223660   7.936   6.407   3.776
 7907TIP3   OH223661   3.292   5.020   3.037
 7907TIP3    H123662   3.266   4.999   2.948
 7907TIP3    H223663   3.212   5.050   3.080
 7908TIP3   OH223664   0.893   5.544   6.809
 7908TIP3    H123665   0.901   5.602   6.733
 7908TIP3    H223666   0.825   5.481   6.786
 7909TIP3   OH223667   5.518   0.376   2.429
 7909TIP3    H123668   5.582   0.343   2.491
 7909TIP3    H223669   5.563   0.445   2.381
 7910TIP3   OH223670   1.575   6.970   4.638
 7910TIP3    H123671   1.585   6.883   4.599
 7910TIP3    H223672   1.549   6.952   4.729
 7911TIP3   OH223673   1.194   6.384   1.278
 7911TIP3    H123674   1.190   6.321   1.207
 7911TIP3    H223675   1.218   6.332   1.355
 7912TIP3   OH223676   5.316   7.054   4.905
 7912TIP3    H123677   5.222   7.046   4.889
 7912TIP3    H223678   5.341   7.136   4.862
 7913TIP3   OH223679   5.083   3.697   3.103
 7913TIP3    H123680   5.117   3.779   3.069
 7913TIP3    H223681   5.119   3.630   3.045
 7914TIP3   OH223682   7.753   3.513   1.731
 7914TIP3    H123683   7.663   3.545   1.739
 7914TIP3    H223684   7.749   3.449   1.659
 7915TIP3   OH223685   1.369   1.857   5.123
 7915TIP3    H123686   1.462   1.878   5.111
 7915TIP3    H223687   1.360   1.840   5.216
 7916TIP3   OH223688   7.254   7.063   1.252
 7916TIP3    H123689   7.339   7.019   1.251
 7916TIP3    H223690   7.262   7.132   1.187
 7917TIP3   OH223691   7.652   1.926   0.141
 7917TIP3    H123692   7.584   1.892   0.083
 7917TIP3    H223693   7.728   1.940   0.085
 7918TIP3   OH223694   0.722   2.010   1.969
 7918TIP3    H123695   0.748   1.996   1.878
 7918TIP3    H223696   0.634   2.048   1.963
 7919TIP3   OH223697   6.529   2.654   0.043
 7919TIP3    H123698   6.596   2.596   0.006
 7919TIP3    H223699   6.473   2.677  -0.032
 7920TIP3   OH223700   5.062   1.277   2.762
 7920TIP3    H123701   5.107   1.274   2.677
 7920TIP3    H223702   5.132   1.267   2.826
 7921TIP3   OH223703   8.296   7.162   4.767
 7921TIP3    H123704   8.206   7.192   4.756
 7921TIP3    H223705   8.289   7.070   4.791
 7922TIP3   OH223706   1.087   6.239   0.764
 7922TIP3    H123707   1.072   6.315   0.709
 7922TIP3    H223708   1.013   6.181   0.746
 7923TIP3   OH223709   8.289   2.146   5.573
 7923TIP3    H123710   8.217   2.161   5.512
 7923TIP3    H223711   8.365   2.129   5.516
 7924TIP3   OH223712   4.727   7.295   0.571
 7924TIP3    H123713   4.741   7.352   0.647
 7924TIP3    H223714   4.722   7.207   0.608
 7925TIP3   OH223715   8.303   4.517   4.449
 7925TIP3    H123716   8.325   4.450   4.384
 7925TIP3    H223717   8.250   4.580   4.401
 7926TIP3   OH223718   1.364   0.106   6.310
 7926TIP3    H123719   1.397   0.103   6.220
 7926TIP3    H223720   1.380   0.018   6.344
 7927TIP3   OH223721   4.101   5.537   5.267
 7927TIP3    H123722   4.146   5.503   5.345
 7927TIP3    H223723   4.009   5.513   5.280
 7928TIP3   OH223724   5.571   7.796   6.625
 7928TIP3    H123725   5.597   7.711   6.590
 7928TIP3    H223726   5.593   7.859   6.556
 7929TIP3   OH223727   1.487   2.891   3.646
 7929TIP3    H123728   1.418   2.945   3.607
 7929TIP3    H223729   1.567   2.918   3.603
 7930TIP3   OH223730   1.057   7.382   3.196
 7930TIP3    H123731   0.976   7.389   3.247
 7930TIP3    H223732   1.040   7.434   3.117
 7931TIP3   OH223733   3.448   1.983   1.728
 7931TIP3    H123734   3.456   1.906   1.784
 7931TIP3    H223735   3.519   2.040   1.755
 7932TIP3   OH223736   5.795   4.116   1.775
 7932TIP3    H123737   5.763   4.204   1.753
 7932TIP3    H223738   5.886   4.129   1.800
 7933TIP3   OH223739   3.363   4.792   0.606
 7933TIP3    H123740   3.311   4.776   0.527
 7933TIP3    H223741   3.304   4.769   0.678
 7934TIP3   OH223742   3.521   1.892   4.743
 7934TIP3    H123743   3.447   1.889   4.804
 7934TIP3    H223744   3.551   1.982   4.745
 7935TIP3   OH223745   7.518   3.622   1.816
 7935TIP3    H123746   7.541   3.708   1.850
 7935TIP3    H223747   7.527   3.564   1.892
 7936TIP3   OH223748   6.609   3.311   0.136
 7936TIP3    H123749   6.641   3.369   0.205
 7936TIP3    H223750   6.532   3.269   0.173
 7937TIP3   OH223751   7.889   7.526   1.200
 7937TIP3    H123752   7.983   7.523   1.183
 7937TIP3    H223753   7.882   7.573   1.283
 7938TIP3   OH223754   5.044   4.495   1.733
 7938TIP3    H123755   5.026   4.557   1.804
 7938TIP3    H223756   5.116   4.441   1.765
 7939TIP3   OH223757   6.848   3.413   2.355
 7939TIP3    H123758   6.825   3.501   2.323
 7939TIP3    H223759   6.807   3.353   2.293
 7940TIP3   OH223760   1.405   1.766   0.689
 7940TIP3    H123761   1.393   1.746   0.782
 7940TIP3    H223762   1.443   1.687   0.651
 7941TIP3   OH223763   0.842   4.696   4.444
 7941TIP3    H123764   0.869   4.726   4.357
 7941TIP3    H223765   0.850   4.600   4.439
 7942TIP3   OH223766   3.128   6.456   0.476
 7942TIP3    H123767   3.150   6.501   0.558
 7942TIP3    H223768   3.067   6.387   0.502
 7943TIP3   OH223769   0.953   6.644   2.809
 7943TIP3    H123770   0.914   6.731   2.797
 7943TIP3    H223771   0.954   6.606   2.721
 7944TIP3   OH223772   7.285   6.981   1.922
 7944TIP3    H123773   7.241   6.958   1.840
 7944TIP3    H223774   7.265   7.074   1.935
 7945TIP3   OH223775   5.746   5.868   4.454
 7945TIP3    H123776   5.726   5.960   4.435
 7945TIP3    H223777   5.666   5.833   4.492
 7946TIP3   OH223778   6.246   3.342   3.583
 7946TIP3    H123779   6.323   3.298   3.619
 7946TIP3    H223780   6.231   3.416   3.643
 7947TIP3   OH223781   2.393   1.421   2.402
 7947TIP3    H123782   2.412   1.466   2.484
 7947TIP3    H223783   2.298   1.425   2.394
 7948TIP3   OH223784   5.075   6.765   2.986
 7948TIP3    H123785   5.156   6.772   3.036
 7948TIP3    H223786   5.008   6.744   3.052
 7949TIP3   OH223787   4.714   2.098   3.190
 7949TIP3    H123788   4.793   2.151   3.177
 7949TIP3    H223789   4.675   2.133   3.270
 7950TIP3   OH223790   7.046   2.716   1.863
 7950TIP3    H123791   7.141   2.719   1.865
 7950TIP3    H223792   7.026   2.680   1.776
 7951TIP3   OH223793   1.654   2.053   1.862
 7951TIP3    H123794   1.681   2.011   1.944
 7951TIP3    H223795   1.723   2.118   1.845
 7952TIP3   OH223796   5.701   2.934   1.550
 7952TIP3    H123797   5.635   2.981   1.600
 7952TIP3    H223798   5.654   2.898   1.475
 7953TIP3   OH223799   0.443   1.220   5.644
 7953TIP3    H123800   0.423   1.213   5.737
 7953TIP3    H223801   0.387   1.154   5.602
 7954TIP3   OH223802   4.577   6.187   2.112
 7954TIP3    H123803   4.551   6.108   2.065
 7954TIP3    H223804   4.573   6.256   2.047
 7955TIP3   OH223805   6.963   5.149   4.528
 7955TIP3    H123806   6.895   5.100   4.482
 7955TIP3    H223807   6.921   5.182   4.607
 7956TIP3   OH223808   0.584   7.745   0.221
 7956TIP3    H123809   0.595   7.654   0.249
 7956TIP3    H223810   0.504   7.744   0.168
 7957TIP3   OH223811   6.847   7.645   6.141
 7957TIP3    H123812   6.829   7.566   6.192
 7957TIP3    H223813   6.920   7.620   6.084
 7958TIP3   OH223814   0.396   2.192   1.063
 7958TIP3    H123815   0.458   2.122   1.040
 7958TIP3    H223816   0.335   2.150   1.124
 7959TIP3   OH223817   5.647   2.917   2.663
 7959TIP3    H123818   5.696   2.845   2.703
 7959TIP3    H223819   5.701   2.944   2.589
 7960TIP3   OH223820   2.239   6.666   3.562
 7960TIP3    H123821   2.266   6.726   3.492
 7960TIP3    H223822   2.302   6.682   3.632
 7961TIP3   OH223823   6.970   5.430   0.528
 7961TIP3    H123824   6.941   5.507   0.577
 7961TIP3    H223825   6.983   5.363   0.594
 7962TIP3   OH223826   3.543   6.809   4.086
 7962TIP3    H123827   3.493   6.783   4.008
 7962TIP3    H223828   3.622   6.754   4.083
 7963TIP3   OH223829   4.962   6.162   3.201
 7963TIP3    H123830   5.001   6.087   3.244
 7963TIP3    H223831   5.036   6.215   3.172
 7964TIP3   OH223832   7.473   3.235   5.440
 7964TIP3    H123833   7.497   3.145   5.461
 7964TIP3    H223834   7.400   3.255   5.499
 7965TIP3   OH223835   6.001   2.178   6.701
 7965TIP3    H123836   6.075   2.158   6.759
 7965TIP3    H223837   6.042   2.205   6.619
 7966TIP3   OH223838   6.190   1.732   3.079
 7966TIP3    H123839   6.121   1.763   3.021
 7966TIP3    H223840   6.269   1.775   3.047
 7967TIP3   OH223841   6.828   0.299   4.176
 7967TIP3    H123842   6.923   0.301   4.165
 7967TIP3    H223843   6.793   0.328   4.092
 7968TIP3   OH223844   1.598   1.553   2.818
 7968TIP3    H123845   1.558   1.624   2.867
 7968TIP3    H223846   1.661   1.514   2.879
 7969TIP3   OH223847   8.337   3.531   1.132
 7969TIP3    H123848   8.336   3.626   1.131
 7969TIP3    H223849   8.377   3.508   1.216
 7970TIP3   OH223850   7.617   3.002   0.306
 7970TIP3    H123851   7.656   3.089   0.312
 7970TIP3    H223852   7.553   3.009   0.235
 7971TIP3   OH223853   4.751   5.059   0.246
 7971TIP3    H123854   4.833   5.105   0.262
 7971TIP3    H223855   4.696   5.123   0.200
 7972TIP3   OH223856   1.118   5.958   6.292
 7972TIP3    H123857   1.158   5.981   6.208
 7972TIP3    H223858   1.033   6.003   6.290
 7973TIP3   OH223859   8.283   1.292   6.365
 7973TIP3    H123860   8.363   1.308   6.415
 7973TIP3    H223861   8.272   1.197   6.366
 7974TIP3   OH223862   4.959   6.519   6.638
 7974TIP3    H123863   5.000   6.538   6.554
 7974TIP3    H223864   5.031   6.525   6.701
 7975TIP3   OH223865   1.869   4.511   5.288
 7975TIP3    H123866   1.863   4.514   5.193
 7975TIP3    H223867   1.780   4.491   5.317
 7976TIP3   OH223868   3.989   7.551   1.868
 7976TIP3    H123869   4.064   7.593   1.911
 7976TIP3    H223870   3.933   7.523   1.940
 7977TIP3   OH223871   5.998   7.142   5.601
 7977TIP3    H123872   6.068   7.101   5.551
 7977TIP3    H223873   5.967   7.073   5.660
 7978TIP3   OH223874   0.952   4.016   6.889
 7978TIP3    H123875   0.992   4.103   6.884
 7978TIP3    H223876   0.925   3.997   6.799
 7979TIP3   OH223877   4.286   6.161   5.816
 7979TIP3    H123878   4.369   6.117   5.797
 7979TIP3    H223879   4.305   6.217   5.891
 7980TIP3   OH223880   4.212   0.966   4.465
 7980TIP3    H123881   4.154   0.891   4.474
 7980TIP3    H223882   4.282   0.950   4.529
 7981TIP3   OH223883   7.707   1.129   1.416
 7981TIP3    H123884   7.641   1.061   1.430
 7981TIP3    H223885   7.659   1.211   1.427
 7982TIP3   OH223886   1.693   7.135   2.197
 7982TIP3    H123887   1.741   7.071   2.145
 7982TIP3    H223888   1.699   7.217   2.147
 7983TIP3   OH223889   4.385   4.891   0.048
 7983TIP3    H123890   4.326   4.822   0.077
 7983TIP3    H223891   4.470   4.848   0.038
 7984TIP3   OH223892   1.275   7.708   4.041
 7984TIP3    H123893   1.247   7.787   4.086
 7984TIP3    H223894   1.292   7.735   3.951
 7985TIP3   OH223895   4.260   3.290   3.737
 7985TIP3    H123896   4.198   3.252   3.675
 7985TIP3    H223897   4.314   3.348   3.685
 7986TIP3   OH223898   6.745   3.312   1.279
 7986TIP3    H123899   6.776   3.336   1.366
 7986TIP3    H223900   6.713   3.222   1.289
 7987TIP3   OH223901   7.777   2.166   0.343
 7987TIP3    H123902   7.839   2.104   0.382
 7987TIP3    H223903   7.724   2.113   0.284
 7988TIP3   OH223904   3.729   4.105   4.364
 7988TIP3    H123905   3.733   4.173   4.431
 7988TIP3    H223906   3.746   4.152   4.282
 7989TIP3   OH223907   7.257   1.387   6.621
 7989TIP3    H123908   7.195   1.345   6.560
 7989TIP3    H223909   7.281   1.316   6.681
 7990TIP3   OH223910   3.720   0.580   3.202
 7990TIP3    H123911   3.813   0.598   3.220
 7990TIP3    H223912   3.721   0.503   3.146
 7991TIP3   OH223913   5.688   2.682   5.083
 7991TIP3    H123914   5.686   2.586   5.082
 7991TIP3    H223915   5.660   2.707   4.995
 7992TIP3   OH223916   4.803   3.190   2.091
 7992TIP3    H123917   4.762   3.225   2.171
 7992TIP3    H223918   4.895   3.177   2.116
 7993TIP3   OH223919   5.846   5.316   3.261
 7993TIP3    H123920   5.769   5.319   3.317
 7993TIP3    H223921   5.824   5.249   3.195
 7994TIP3   OH223922   5.219   7.017   0.410
 7994TIP3    H123923   5.267   7.100   0.414
 7994TIP3    H223924   5.160   7.027   0.335
 7995TIP3   OH223925   6.483   4.717   1.803
 7995TIP3    H123926   6.530   4.706   1.720
 7995TIP3    H223927   6.455   4.809   1.802
 7996TIP3   OH223928   3.185   4.786   5.189
 7996TIP3    H123929   3.187   4.769   5.094
 7996TIP3    H223930   3.092   4.788   5.211
 7997TIP3   OH223931   3.963   0.642   4.139
 7997TIP3    H123932   3.884   0.653   4.087
 7997TIP3    H223933   3.945   0.566   4.194
 7998TIP3   OH223934   1.281   2.700   2.320
 7998TIP3    H123935   1.286   2.656   2.235
 7998TIP3    H223936   1.261   2.630   2.382
 7999TIP3   OH223937   7.615   7.578   5.457
 7999TIP3    H123938   7.522   7.561   5.472
 7999TIP3    H223939   7.657   7.556   5.540
 8000TIP3   OH223940   0.196   7.541   6.167
 8000TIP3    H123941   0.133   7.470   6.179
 8000TIP3    H223942   0.201   7.584   6.252
 8001TIP3   OH223943   2.682   2.156   1.518
 8001TIP3    H123944   2.622   2.106   1.574
 8001TIP3    H223945   2.738   2.204   1.579
 8002TIP3   OH223946   2.290   3.991   0.146
 8002TIP3    H123947   2.373   4.039   0.155
 8002TIP3    H223948   2.230   4.035   0.205
 8003TIP3   OH223949   7.531   1.558   5.683
 8003TIP3    H123950   7.604   1.513   5.725
 8003TIP3    H223951   7.469   1.488   5.661
 8004TIP3   OH223952   6.475   1.065   3.772
 8004TIP3    H123953   6.422   1.136   3.736
 8004TIP3    H223954   6.543   1.051   3.706
 8005TIP3   OH223955   4.151   7.072   5.124
 8005TIP3    H123956   4.142   7.159   5.162
 8005TIP3    H223957   4.230   7.078   5.070
 8006TIP3   OH223958   3.877   0.126   1.134
 8006TIP3    H123959   3.965   0.122   1.173
 8006TIP3    H223960   3.839   0.206   1.171
 8007TIP3   OH223961   5.983   3.662   2.123
 8007TIP3    H123962   6.008   3.752   2.104
 8007TIP3    H223963   6.006   3.650   2.216
 8008TIP3   OH223964   8.328   3.959   0.191
 8008TIP3    H123965   8.280   3.878   0.179
 8008TIP3    H223966   8.315   3.983   0.283
 8009TIP3   OH223967   2.883   3.285   3.437
 8009TIP3    H123968   2.944   3.352   3.406
 8009TIP3    H223969   2.881   3.297   3.532
 8010TIP3   OH223970   7.495   5.432   1.367
 8010TIP3    H123971   7.472   5.469   1.452
 8010TIP3    H223972   7.571   5.482   1.338
 8011TIP3   OH223973   5.484   4.909   1.079
 8011TIP3    H123974   5.506   4.863   1.160
 8011TIP3    H223975   5.564   4.955   1.055
 8012TIP3   OH223976   3.950   2.611   0.535
 8012TIP3    H123977   3.875   2.561   0.503
 8012TIP3    H223978   4.026   2.555   0.514
 8013TIP3   OH223979   7.030   6.444   0.736
 8013TIP3    H123980   7.028   6.350   0.721
 8013TIP3    H223981   6.940   6.466   0.762
 8014TIP3   OH223982   0.864   2.462   6.384
 8014TIP3    H123983   0.881   2.373   6.352
 8014TIP3    H223984   0.939   2.481   6.441
 8015TIP3   OH223985   8.331   3.406   2.163
 8015TIP3    H123986   8.348   3.318   2.197
 8015TIP3    H223987   8.237   3.418   2.175
 8016TIP3   OH223988   7.490   2.075   3.064
 8016TIP3    H123989   7.433   2.138   3.108
 8016TIP3    H223990   7.550   2.129   3.013
 8017TIP3   OH223991   8.239   1.876   2.100
 8017TIP3    H123992   8.240   1.887   2.005
 8017TIP3    H223993   8.177   1.806   2.116
 8018TIP3   OH223994   5.379   5.366   3.432
 8018TIP3    H123995   5.294   5.347   3.392
 8018TIP3    H223996   5.375   5.458   3.455
 8019TIP3   OH223997   2.048   4.624   1.572
 8019TIP3    H123998   2.028   4.669   1.655
 8019TIP3    H223999   2.009   4.680   1.505
 8020TIP3   OH224000   3.111   7.403   4.315
 8020TIP3    H124001   3.121   7.308   4.310
 8020TIP3    H224002   3.088   7.430   4.226
 8021TIP3   OH224003   2.110   0.593   4.719
 8021TIP3    H124004   2.119   0.592   4.624
 8021TIP3    H224005   2.157   0.514   4.748
 8022TIP3   OH224006   3.000   3.406   1.573
 8022TIP3    H124007   2.990   3.435   1.664
 8022TIP3    H224008   2.994   3.487   1.521
 8023TIP3   OH224009   8.135   0.136   1.038
 8023TIP3    H124010   8.190   0.158   1.113
 8023TIP3    H224011   8.194   0.094   0.976
 8024TIP3   OH224012   6.629   5.681   2.320
 8024TIP3    H124013   6.606   5.595   2.355
 8024TIP3    H224014   6.637   5.667   2.225
 8025TIP3   OH224015   7.775   1.701   6.210
 8025TIP3    H124016   7.832   1.639   6.166
 8025TIP3    H224017   7.806   1.702   6.300
 8026TIP3   OH224018   7.138   6.987   0.519
 8026TIP3    H124019   7.140   7.008   0.612
 8026TIP3    H224020   7.050   7.013   0.490
 8027TIP3   OH224021   2.424   0.635   1.075
 8027TIP3    H124022   2.379   0.714   1.044
 8027TIP3    H224023   2.483   0.611   1.004
 8028TIP3   OH224024   5.228   3.958   3.043
 8028TIP3    H124025   5.179   3.971   2.962
 8028TIP3    H224026   5.278   4.038   3.055
 8029TIP3   OH224027   0.293   4.860   1.303
 8029TIP3    H124028   0.309   4.780   1.354
 8029TIP3    H224029   0.235   4.831   1.232
 8030TIP3   OH224030   2.410   7.658   0.711
 8030TIP3    H124031   2.358   7.579   0.697
 8030TIP3    H224032   2.416   7.667   0.806
 8031TIP3   OH224033   0.121   0.392   1.304
 8031TIP3    H124034   0.069   0.424   1.230
 8031TIP3    H224035   0.147   0.471   1.351
 8032TIP3   OH224036   2.981   6.768   1.499
 8032TIP3    H124037   3.036   6.700   1.460
 8032TIP3    H224038   3.018   6.783   1.585
 8033TIP3   OH224039   7.843   5.692   0.119
 8033TIP3    H124040   7.856   5.718   0.029
 8033TIP3    H224041   7.866   5.599   0.121
 8034TIP3   OH224042   0.795   6.800   0.464
 8034TIP3    H124043   0.806   6.765   0.553
 8034TIP3    H224044   0.879   6.782   0.422
 8035TIP3   OH224045   6.554   7.863   0.224
 8035TIP3    H124046   6.596   7.901   0.147
 8035TIP3    H224047   6.511   7.936   0.268
 8036TIP3   OH224048   5.173   1.726   1.771
 8036TIP3    H124049   5.179   1.743   1.677
 8036TIP3    H224050   5.149   1.633   1.777
 8037TIP3   OH224051   0.620   4.706   5.117
 8037TIP3    H124052   0.653   4.668   5.199
 8037TIP3    H224053   0.635   4.800   5.127
 8038TIP3   OH224054   4.047   3.045   5.398
 8038TIP3    H124055   3.951   3.048   5.403
 8038TIP3    H224056   4.068   3.085   5.314
 8039TIP3   OH224057   0.059   3.623   5.834
 8039TIP3    H124058   0.132   3.607   5.774
 8039TIP3    H224059  -0.016   3.584   5.790
 8040TIP3   OH224060   5.528   6.543   5.702
 8040TIP3    H124061   5.485   6.521   5.785
 8040TIP3    H224062   5.457   6.575   5.646
 8041TIP3   OH224063   5.784   6.233   6.112
 8041TIP3    H124064   5.801   6.214   6.204
 8041TIP3    H224065   5.815   6.155   6.066
 8042TIP3   OH224066   4.164   6.961   3.760
 8042TIP3    H124067   4.230   7.022   3.791
 8042TIP3    H224068   4.083   7.012   3.757
 8043TIP3   OH224069   7.905   0.962   5.890
 8043TIP3    H124070   7.888   1.041   5.941
 8043TIP3    H224071   7.869   0.891   5.943
 8044TIP3   OH224072   7.533   5.004   2.922
 8044TIP3    H124073   7.440   5.005   2.902
 8044TIP3    H224074   7.575   4.973   2.842
 8045TIP3   OH224075   7.921   1.296   2.188
 8045TIP3    H124076   7.874   1.226   2.143
 8045TIP3    H224077   7.994   1.317   2.129
 8046TIP3   OH224078   1.485   4.799   3.793
 8046TIP3    H124079   1.448   4.884   3.771
 8046TIP3    H224080   1.418   4.756   3.846
 8047TIP3   OH224081   6.437   4.766   1.077
 8047TIP3    H124082   6.436   4.736   0.986
 8047TIP3    H224083   6.349   4.800   1.091
 8048TIP3   OH224084   1.308   7.573   6.637
 8048TIP3    H124085   1.317   7.668   6.635
 8048TIP3    H224086   1.233   7.557   6.694
 8049TIP3   OH224087   4.354   3.550   2.256
 8049TIP3    H124088   4.319   3.634   2.284
 8049TIP3    H224089   4.435   3.573   2.210
 8050TIP3   OH224090   4.676   5.550   0.120
 8050TIP3    H124091   4.599   5.531   0.174
 8050TIP3    H224092   4.641   5.601   0.047
 8051TIP3   OH224093   4.413   1.063   5.784
 8051TIP3    H124094   4.430   1.133   5.722
 8051TIP3    H224095   4.319   1.068   5.802
 8052TIP3   OH224096   7.630   7.873   0.417
 8052TIP3    H124097   7.627   7.949   0.474
 8052TIP3    H224098   7.564   7.891   0.350
 8053TIP3   OH224099   0.855   1.904   6.783
 8053TIP3    H124100   0.775   1.930   6.736
 8053TIP3    H224101   0.879   1.982   6.833
 8054TIP3   OH224102   3.299   2.237   0.131
 8054TIP3    H124103   3.332   2.234   0.221
 8054TIP3    H224104   3.230   2.302   0.134
 8055TIP3   OH224105   5.660   5.211   2.590
 8055TIP3    H124106   5.724   5.281   2.607
 8055TIP3    H224107   5.602   5.213   2.666
 8056TIP3   OH224108   5.436   4.369   2.142
 8056TIP3    H124109   5.424   4.421   2.062
 8056TIP3    H224110   5.438   4.434   2.212
 8057TIP3   OH224111   5.836   0.598   0.420
 8057TIP3    H124112   5.809   0.585   0.510
 8057TIP3    H224113   5.849   0.692   0.411
 8058TIP3   OH224114   6.172   4.548   1.837
 8058TIP3    H124115   6.214   4.632   1.820
 8058TIP3    H224116   6.238   4.498   1.885
 8059TIP3   OH224117   2.505   6.328   0.939
 8059TIP3    H124118   2.583   6.370   0.975
 8059TIP3    H224119   2.537   6.284   0.860
 8060TIP3   OH224120   0.908   4.079   2.890
 8060TIP3    H124121   0.887   4.172   2.892
 8060TIP3    H224122   0.961   4.068   2.811
 8061TIP3   OH224123   7.429   0.259   3.890
 8061TIP3    H124124   7.478   0.178   3.881
 8061TIP3    H224125   7.379   0.248   3.971
 8062TIP3   OH224126   2.876   6.359   1.952
 8062TIP3    H124127   2.839   6.394   1.871
 8062TIP3    H224128   2.831   6.276   1.965
 8063TIP3   OH224129   3.418   5.231   0.330
 8063TIP3    H124130   3.464   5.217   0.247
 8063TIP3    H224131   3.326   5.211   0.309
 8064TIP3   OH224132   5.453   0.532   5.529
 8064TIP3    H124133   5.424   0.441   5.520
 8064TIP3    H224134   5.548   0.528   5.521
 8065TIP3   OH224135   7.738   0.578   3.435
 8065TIP3    H124136   7.701   0.663   3.412
 8065TIP3    H224137   7.828   0.581   3.405
 8066TIP3   OH224138   5.081   2.728   2.587
 8066TIP3    H124139   4.987   2.720   2.603
 8066TIP3    H224140   5.103   2.651   2.535
 8067TIP3   OH224141   6.591   6.174   3.617
 8067TIP3    H124142   6.569   6.238   3.549
 8067TIP3    H224143   6.643   6.108   3.573
 8068TIP3   OH224144   0.572   1.988   4.859
 8068TIP3    H124145   0.547   1.896   4.862
 8068TIP3    H224146   0.577   2.009   4.766
 8069TIP3   OH224147   4.251   5.348   4.059
 8069TIP3    H124148   4.253   5.254   4.078
 8069TIP3    H224149   4.314   5.360   3.988
 8070TIP3   OH224150   6.099   6.812   0.226
 8070TIP3    H124151   6.054   6.728   0.227
 8070TIP3    H224152   6.180   6.796   0.178
 8071TIP3   OH224153   2.032   6.962   3.683
 8071TIP3    H124154   2.105   6.931   3.738
 8071TIP3    H224155   2.048   7.055   3.673
 8072TIP3   OH224156   1.570   1.935   0.514
 8072TIP3    H124157   1.564   2.014   0.567
 8072TIP3    H224158   1.549   1.864   0.574
 8073TIP3   OH224159   7.135   1.757   5.382
 8073TIP3    H124160   7.095   1.702   5.449
 8073TIP3    H224161   7.124   1.846   5.414
 8074TIP3   OH224162   3.645   1.120   0.066
 8074TIP3    H124163   3.655   1.039   0.016
 8074TIP3    H224164   3.552   1.121   0.091
 8075TIP3   OH224165   7.881   1.519   3.903
 8075TIP3    H124166   7.848   1.558   3.822
 8075TIP3    H224167   7.803   1.485   3.946
 8076TIP3   OH224168   1.408   7.692   0.345
 8076TIP3    H124169   1.437   7.746   0.272
 8076TIP3    H224170   1.386   7.608   0.305
 8077TIP3   OH224171   1.207   2.721   3.770
 8077TIP3    H124172   1.193   2.815   3.778
 8077TIP3    H224173   1.207   2.704   3.676
 8078TIP3   OH224174   6.660   1.614   6.131
 8078TIP3    H124175   6.581   1.633   6.080
 8078TIP3    H224176   6.628   1.576   6.213
 8079TIP3   OH224177   1.801   3.348   3.333
 8079TIP3    H124178   1.889   3.360   3.296
 8079TIP3    H224179   1.758   3.287   3.273
 8080TIP3   OH224180   6.699   7.703   4.144
 8080TIP3    H124181   6.656   7.732   4.225
 8080TIP3    H224182   6.709   7.608   4.155
 8081TIP3   OH224183   2.549   2.483   6.673
 8081TIP3    H124184   2.456   2.504   6.685
 8081TIP3    H224185   2.564   2.496   6.579
 8082TIP3   OH224186   0.533   6.825   2.381
 8082TIP3    H124187   0.481   6.858   2.454
 8082TIP3    H224188   0.474   6.830   2.306
 8083TIP3   OH224189   6.288   4.528   6.718
 8083TIP3    H124190   6.271   4.617   6.689
 8083TIP3    H224191   6.202   4.493   6.739
 8084TIP3   OH224192   6.669   5.391   2.307
 8084TIP3    H124193   6.656   5.325   2.239
 8084TIP3    H224194   6.764   5.399   2.315
 8085TIP3   OH224195   7.354   5.832   0.664
 8085TIP3    H124196   7.318   5.769   0.601
 8085TIP3    H224197   7.332   5.796   0.750
 8086TIP3   OH224198   4.796   2.281   5.326
 8086TIP3    H124199   4.765   2.305   5.414
 8086TIP3    H224200   4.722   2.297   5.269
 8087TIP3   OH224201   7.494   7.485   2.577
 8087TIP3    H124202   7.528   7.432   2.504
 8087TIP3    H224203   7.572   7.527   2.614
 8088TIP3   OH224204   6.430   0.059   3.568
 8088TIP3    H124205   6.398  -0.008   3.508
 8088TIP3    H224206   6.494   0.013   3.623
 8089TIP3   OH224207   0.274   2.392   5.039
 8089TIP3    H124208   0.312   2.307   5.019
 8089TIP3    H224209   0.185   2.388   5.004
 8090TIP3   OH224210   5.448   4.294   5.790
 8090TIP3    H124211   5.395   4.307   5.868
 8090TIP3    H224212   5.531   4.337   5.810
 8091TIP3   OH224213   7.284   5.075   3.883
 8091TIP3    H124214   7.328   5.092   3.966
 8091TIP3    H224215   7.207   5.023   3.908
 8092TIP3   OH224216   7.490   3.683   6.442
 8092TIP3    H124217   7.551   3.689   6.368
 8092TIP3    H224218   7.447   3.768   6.444
 8093TIP3   OH224219   5.732   7.328   3.263
 8093TIP3    H124220   5.793   7.359   3.197
 8093TIP3    H224221   5.646   7.337   3.223
 8094TIP3   OH224222   4.280   4.570   5.392
 8094TIP3    H124223   4.204   4.588   5.448
 8094TIP3    H224224   4.319   4.490   5.429
 8095TIP3   OH224225   3.483   6.520   4.310
 8095TIP3    H124226   3.508   6.428   4.323
 8095TIP3    H224227   3.445   6.521   4.222
 8096TIP3   OH224228   0.175   1.188   2.318
 8096TIP3    H124229   0.262   1.228   2.318
 8096TIP3    H224230   0.138   1.210   2.403
 8097TIP3   OH224231   4.998   5.223   6.420
 8097TIP3    H124232   5.036   5.298   6.374
 8097TIP3    H224233   4.904   5.240   6.421
 8098TIP3   OH224234   3.820   4.687   2.047
 8098TIP3    H124235   3.834   4.594   2.067
 8098TIP3    H224236   3.819   4.730   2.132
 8099TIP3   OH224237   0.810   1.780   5.986
 8099TIP3    H124238   0.847   1.698   5.953
 8099TIP3    H224239   0.732   1.794   5.932
 8100TIP3   OH224240   2.162   6.126   0.461
 8100TIP3    H124241   2.251   6.147   0.488
 8100TIP3    H224242   2.151   6.033   0.481
 8101TIP3   OH224243   0.620   4.271   6.341
 8101TIP3    H124244   0.620   4.190   6.291
 8101TIP3    H224245   0.560   4.253   6.414
 8102TIP3   OH224246   6.725   6.137   5.064
 8102TIP3    H124247   6.719   6.230   5.087
 8102TIP3    H224248   6.690   6.091   5.141
 8103TIP3   OH224249   3.055   4.350   4.095
 8103TIP3    H124250   3.021   4.269   4.133
 8103TIP3    H224251   3.150   4.340   4.098
 8104TIP3   OH224252   0.736   3.394   2.067
 8104TIP3    H124253   0.787   3.459   2.017
 8104TIP3    H224254   0.771   3.401   2.156
 8105TIP3   OH224255   1.847   0.071   5.561
 8105TIP3    H124256   1.933   0.037   5.585
 8105TIP3    H224257   1.785   0.008   5.598
 8106TIP3   OH224258   5.637   0.727   5.873
 8106TIP3    H124259   5.687   0.775   5.807
 8106TIP3    H224260   5.702   0.671   5.916
 8107TIP3   OH224261   7.348   0.558   4.781
 8107TIP3    H124262   7.400   0.635   4.806
 8107TIP3    H224263   7.410   0.486   4.782
 8108TIP3   OH224264   1.457   4.181   1.420
 8108TIP3    H124265   1.548   4.161   1.445
 8108TIP3    H224266   1.410   4.099   1.435
 8109TIP3   OH224267   4.049   5.428   1.281
 8109TIP3    H124268   4.053   5.507   1.334
 8109TIP3    H224269   4.116   5.440   1.214
 8110TIP3   OH224270   3.889   7.464   4.318
 8110TIP3    H124271   3.797   7.480   4.297
 8110TIP3    H224272   3.914   7.538   4.374
 8111TIP3   OH224273   4.993   2.430   6.725
 8111TIP3    H124274   4.998   2.382   6.643
 8111TIP3    H224275   5.085   2.443   6.751
 8112TIP3   OH224276   7.310   7.577   4.952
 8112TIP3    H124277   7.300   7.671   4.935
 8112TIP3    H224278   7.345   7.573   5.041
 8113TIP3   OH224279   2.213   5.421   0.136
 8113TIP3    H124280   2.230   5.512   0.162
 8113TIP3    H224281   2.126   5.402   0.171
 8114TIP3   OH224282   4.313   2.293   4.305
 8114TIP3    H124283   4.294   2.380   4.269
 8114TIP3    H224284   4.408   2.285   4.299
 8115TIP3   OH224285   4.697   5.708   3.755
 8115TIP3    H124286   4.760   5.763   3.801
 8115TIP3    H224287   4.645   5.668   3.823
 8116TIP3   OH224288   1.772   5.529   0.958
 8116TIP3    H124289   1.713   5.483   0.899
 8116TIP3    H224290   1.771   5.477   1.038
 8117TIP3   OH224291   0.125   7.497   0.855
 8117TIP3    H124292   0.136   7.523   0.764
 8117TIP3    H224293   0.203   7.446   0.875
 8118TIP3   OH224294   0.606   6.717   6.763
 8118TIP3    H124295   0.536   6.662   6.797
 8118TIP3    H224296   0.611   6.790   6.825
 8119TIP3   OH224297   0.140   3.101   1.946
 8119TIP3    H124298   0.116   3.064   1.861
 8119TIP3    H224299   0.210   3.163   1.926
 8120TIP3   OH224300   0.103   3.800   4.515
 8120TIP3    H124301   0.082   3.726   4.572
 8120TIP3    H224302   0.195   3.788   4.494
 8121TIP3   OH224303   4.820   0.053   2.914
 8121TIP3    H124304   4.803  -0.026   2.862
 8121TIP3    H224305   4.788   0.031   3.001
 8122TIP3   OH224306   6.668   7.729   0.637
 8122TIP3    H124307   6.650   7.640   0.666
 8122TIP3    H224308   6.750   7.723   0.588
 8123TIP3   OH224309   5.723   3.108   3.468
 8123TIP3    H124310   5.815   3.092   3.444
 8123TIP3    H224311   5.693   3.025   3.504
 8124TIP3   OH224312   1.135   5.383   4.365
 8124TIP3    H124313   1.155   5.401   4.457
 8124TIP3    H224314   1.215   5.406   4.318
 8125TIP3   OH224315   2.107   7.473   5.948
 8125TIP3    H124316   2.178   7.455   5.887
 8125TIP3    H224317   2.027   7.452   5.900
 8126TIP3   OH224318   5.832   0.261   6.753
 8126TIP3    H124319   5.923   0.290   6.751
 8126TIP3    H224320   5.781   0.341   6.759
 8127TIP3   OH224321   1.700   5.377   6.247
 8127TIP3    H124322   1.757   5.307   6.278
 8127TIP3    H224323   1.653   5.407   6.325
 8128TIP3   OH224324   3.559   2.314   6.655
 8128TIP3    H124325   3.596   2.378   6.715
 8128TIP3    H224326   3.504   2.258   6.710
 8129TIP3   OH224327   0.708   1.736   0.791
 8129TIP3    H124328   0.658   1.796   0.736
 8129TIP3    H224329   0.716   1.781   0.875
 8130TIP3   OH224330   1.602   5.194   4.896
 8130TIP3    H124331   1.635   5.127   4.836
 8130TIP3    H224332   1.604   5.151   4.982
 8131TIP3   OH224333   6.311   5.222   1.090
 8131TIP3    H124334   6.405   5.207   1.088
 8131TIP3    H224335   6.302   5.315   1.112
 8132TIP3   OH224336   7.614   7.491   4.706
 8132TIP3    H124337   7.670   7.413   4.706
 8132TIP3    H224338   7.543   7.469   4.767
 8133TIP3   OH224339   3.386   7.167   1.701
 8133TIP3    H124340   3.347   7.085   1.730
 8133TIP3    H224341   3.359   7.176   1.610
 8134TIP3   OH224342   6.266   7.566   1.473
 8134TIP3    H124343   6.205   7.618   1.525
 8134TIP3    H224344   6.296   7.626   1.405
 8135TIP3   OH224345   2.682   4.687   5.007
 8135TIP3    H124346   2.588   4.673   5.002
 8135TIP3    H224347   2.720   4.625   4.945
 8136TIP3   OH224348   7.679   0.424   0.285
 8136TIP3    H124349   7.771   0.420   0.312
 8136TIP3    H224350   7.666   0.515   0.258
 8137TIP3   OH224351   5.045   2.486   1.708
 8137TIP3    H124352   5.104   2.435   1.653
 8137TIP3    H224353   4.964   2.436   1.711
 8138TIP3   OH224354   3.590   3.801   1.217
 8138TIP3    H124355   3.577   3.893   1.195
 8138TIP3    H224356   3.519   3.755   1.172
 8139TIP3   OH224357   5.254   2.453   6.750
 8139TIP3    H124358   5.345   2.434   6.773
 8139TIP3    H224359   5.254   2.546   6.726
 8140TIP3   OH224360   8.045   4.737   2.643
 8140TIP3    H124361   7.974   4.674   2.653
 8140TIP3    H224362   8.007   4.808   2.590
 8141TIP3   OH224363   3.227   7.819   3.167
 8141TIP3    H124364   3.247   7.876   3.094
 8141TIP3    H224365   3.137   7.789   3.151
 8142TIP3   OH224366   2.629   3.227   5.856
 8142TIP3    H124367   2.624   3.290   5.785
 8142TIP3    H224368   2.722   3.206   5.864
 8143TIP3   OH224369   3.488   3.269   4.134
 8143TIP3    H124370   3.459   3.183   4.105
 8143TIP3    H224371   3.486   3.324   4.055
 8144TIP3   OH224372   2.047   3.772   1.243
 8144TIP3    H124373   2.114   3.803   1.183
 8144TIP3    H224374   1.969   3.761   1.189
 8145TIP3   OH224375   0.606   1.181   3.863
 8145TIP3    H124376   0.522   1.180   3.817
 8145TIP3    H224377   0.630   1.273   3.867
 8146TIP3   OH224378   4.434   2.122   3.071
 8146TIP3    H124379   4.362   2.103   3.011
 8146TIP3    H224380   4.476   2.038   3.087
 8147TIP3   OH224381   4.208   4.807   6.643
 8147TIP3    H124382   4.278   4.846   6.695
 8147TIP3    H224383   4.253   4.769   6.568
 8148TIP3   OH224384   7.816   0.587   5.483
 8148TIP3    H124385   7.847   0.499   5.505
 8148TIP3    H224386   7.753   0.574   5.412
 8149TIP3   OH224387   5.179   7.046   3.284
 8149TIP3    H124388   5.221   7.091   3.211
 8149TIP3    H224389   5.165   6.957   3.252
 8150TIP3   OH224390   1.377   6.113   6.265
 8150TIP3    H124391   1.397   6.023   6.289
 8150TIP3    H224392   1.361   6.157   6.348
 8151TIP3   OH224393   3.322   0.615   0.380
 8151TIP3    H124394   3.282   0.532   0.406
 8151TIP3    H224395   3.414   0.607   0.407
 8152TIP3   OH224396   1.887   5.409   4.856
 8152TIP3    H124397   1.938   5.387   4.778
 8152TIP3    H224398   1.900   5.503   4.869
 8153TIP3   OH224399   0.587   4.274   5.337
 8153TIP3    H124400   0.607   4.286   5.430
 8153TIP3    H224401   0.517   4.337   5.318
 8154TIP3   OH224402   7.831   4.302   1.117
 8154TIP3    H124403   7.786   4.386   1.112
 8154TIP3    H224404   7.768   4.239   1.083
 8155TIP3   OH224405   1.122   2.676   5.595
 8155TIP3    H124406   1.095   2.644   5.509
 8155TIP3    H224407   1.216   2.662   5.598
 8156TIP3   OH224408   7.416   6.569   0.618
 8156TIP3    H124409   7.447   6.508   0.551
 8156TIP3    H224410   7.323   6.581   0.599
 8157TIP3   OH224411   1.316   6.667   6.179
 8157TIP3    H124412   1.331   6.679   6.085
 8157TIP3    H224413   1.290   6.576   6.188
 8158TIP3   OH224414   5.478   2.081   3.057
 8158TIP3    H124415   5.432   2.016   3.109
 8158TIP3    H224416   5.555   2.104   3.109
 8159TIP3   OH224417   6.172   5.799   5.773
 8159TIP3    H124418   6.207   5.758   5.694
 8159TIP3    H224419   6.077   5.802   5.759
 8160TIP3   OH224420   5.417   1.997   3.943
 8160TIP3    H124421   5.440   1.995   4.036
 8160TIP3    H224422   5.325   1.970   3.940
 8161TIP3   OH224423   3.509   2.752   4.741
 8161TIP3    H124424   3.437   2.793   4.789
 8161TIP3    H224425   3.480   2.663   4.726
 8162TIP3   OH224426   7.935   0.599   2.442
 8162TIP3    H124427   7.846   0.617   2.412
 8162TIP3    H224428   7.958   0.517   2.400
 8163TIP3   OH224429   4.594   5.516   0.453
 8163TIP3    H124430   4.590   5.427   0.489
 8163TIP3    H224431   4.687   5.539   0.456
 8164TIP3   OH224432   4.446   6.952   4.275
 8164TIP3    H124433   4.457   7.043   4.246
 8164TIP3    H224434   4.361   6.926   4.239
 8165TIP3   OH224435   7.823   1.388   1.697
 8165TIP3    H124436   7.828   1.388   1.602
 8165TIP3    H224437   7.777   1.468   1.719
 8166TIP3   OH224438   1.972   5.100   4.145
 8166TIP3    H124439   2.010   5.082   4.230
 8166TIP3    H224440   2.046   5.099   4.084
 8167TIP3   OH224441   1.323   0.528   1.270
 8167TIP3    H124442   1.350   0.616   1.296
 8167TIP3    H224443   1.256   0.542   1.204
 8168TIP3   OH224444   0.058   6.877   4.996
 8168TIP3    H124445   0.114   6.934   5.049
 8168TIP3    H224446  -0.031   6.907   5.014
 8169TIP3   OH224447   6.516   5.355   0.838
 8169TIP3    H124448   6.540   5.288   0.902
 8169TIP3    H224449   6.429   5.384   0.866
 8170TIP3   OH224450   7.491   1.336   4.724
 8170TIP3    H124451   7.417   1.333   4.784
 8170TIP3    H224452   7.567   1.316   4.778
 8171TIP3   OH224453   6.365   6.550   5.589
 8171TIP3    H124454   6.293   6.611   5.602
 8171TIP3    H224455   6.324   6.464   5.587
 8172TIP3   OH224456   7.320   4.858   6.012
 8172TIP3    H124457   7.229   4.841   5.989
 8172TIP3    H224458   7.322   4.856   6.108
 8173TIP3   OH224459   0.677   2.872   4.995
 8173TIP3    H124460   0.728   2.795   4.971
 8173TIP3    H224461   0.742   2.940   5.009
 8174TIP3   OH224462   3.276   5.304   1.455
 8174TIP3    H124463   3.288   5.220   1.410
 8174TIP3    H224464   3.357   5.316   1.505
 8175TIP3   OH224465   0.426   5.195   1.763
 8175TIP3    H124466   0.514   5.196   1.727
 8175TIP3    H224467   0.395   5.106   1.747
 8176TIP3   OH224468   4.114   2.403   1.378
 8176TIP3    H124469   4.197   2.404   1.331
 8176TIP3    H224470   4.086   2.311   1.376
 8177TIP3   OH224471   4.384   7.255   5.400
 8177TIP3    H124472   4.438   7.189   5.358
 8177TIP3    H224473   4.306   7.261   5.345
 8178TIP3   OH224474   2.220   7.494   6.732
 8178TIP3    H124475   2.125   7.484   6.744
 8178TIP3    H224476   2.229   7.546   6.653
 8179TIP3   OH224477   2.056   4.440   6.809
 8179TIP3    H124478   2.123   4.423   6.876
 8179TIP3    H224479   2.015   4.522   6.836
 8180TIP3   OH224480   6.930   2.689   5.352
 8180TIP3    H124481   6.944   2.782   5.337
 8180TIP3    H224482   6.961   2.646   5.273
 8181TIP3   OH224483   7.356   0.598   4.125
 8181TIP3    H124484   7.289   0.618   4.191
 8181TIP3    H224485   7.388   0.511   4.149
 8182TIP3   OH224486   0.187   3.892   0.487
 8182TIP3    H124487   0.251   3.820   0.488
 8182TIP3    H224488   0.102   3.849   0.498
 8183TIP3   OH224489   7.319   4.682   5.234
 8183TIP3    H124490   7.413   4.691   5.217
 8183TIP3    H224491   7.285   4.644   5.153
 8184TIP3   OH224492   3.047   5.765   4.217
 8184TIP3    H124493   3.024   5.764   4.309
 8184TIP3    H224494   3.127   5.817   4.213
 8185TIP3   OH224495   4.230   5.684   2.418
 8185TIP3    H124496   4.292   5.665   2.346
 8185TIP3    H224497   4.228   5.602   2.468
 8186TIP3   OH224498   3.148   0.940   3.826
 8186TIP3    H124499   3.209   1.002   3.866
 8186TIP3    H224500   3.154   0.862   3.881
 8187TIP3   OH224501   3.489   1.725   1.851
 8187TIP3    H124502   3.522   1.637   1.870
 8187TIP3    H224503   3.405   1.711   1.807
 8188TIP3   OH224504   4.463   4.650   3.748
 8188TIP3    H124505   4.457   4.620   3.657
 8188TIP3    H224506   4.387   4.706   3.760
 8189TIP3   OH224507   3.828   3.342   5.583
 8189TIP3    H124508   3.851   3.255   5.615
 8189TIP3    H224509   3.754   3.369   5.639
 8190TIP3   OH224510   4.016   4.080   3.986
 8190TIP3    H124511   3.940   4.045   3.940
 8190TIP3    H224512   4.018   4.172   3.963
 8191TIP3   OH224513   0.103   3.997   6.209
 8191TIP3    H124514   0.050   3.963   6.136
 8191TIP3    H224515   0.167   4.055   6.168
 8192TIP3   OH224516   1.866   0.475   1.896
 8192TIP3    H124517   1.916   0.423   1.833
 8192TIP3    H224518   1.839   0.412   1.963
 8193TIP3   OH224519   6.636   6.201   4.508
 8193TIP3    H124520   6.703   6.236   4.449
 8193TIP3    H224521   6.654   6.243   4.592
 8194TIP3   OH224522   2.218   4.158   5.076
 8194TIP3    H124523   2.189   4.117   4.994
 8194TIP3    H224524   2.138   4.167   5.128
 8195TIP3   OH224525   7.595   4.267   3.761
 8195TIP3    H124526   7.623   4.354   3.733
 8195TIP3    H224527   7.504   4.278   3.788
 8196TIP3   OH224528   2.965   4.857   2.938
 8196TIP3    H124529   2.998   4.767   2.946
 8196TIP3    H224530   2.884   4.848   2.888
 8197TIP3   OH224531   3.847   4.807   1.586
 8197TIP3    H124532   3.797   4.745   1.533
 8197TIP3    H224533   3.885   4.868   1.523
 8198TIP3   OH224534   1.310   3.738   5.233
 8198TIP3    H124535   1.224   3.779   5.241
 8198TIP3    H224536   1.310   3.668   5.298
 8199TIP3   OH224537   4.266   6.381   4.309
 8199TIP3    H124538   4.284   6.437   4.234
 8199TIP3    H224539   4.170   6.372   4.311
 8200TIP3   OH224540   0.606   3.295   6.509
 8200TIP3    H124541   0.518   3.271   6.538
 8200TIP3    H224542   0.598   3.387   6.483
 8201TIP3   OH224543   7.222   3.106   6.806
 8201TIP3    H124544   7.272   3.121   6.886
 8201TIP3    H224545   7.279   3.050   6.752
 8202TIP3   OH224546   1.109   7.458   4.476
 8202TIP3    H124547   1.158   7.463   4.394
 8202TIP3    H224548   1.095   7.549   4.501
 8203TIP3   OH224549   2.270   5.114   3.747
 8203TIP3    H124550   2.361   5.094   3.725
 8203TIP3    H224551   2.275   5.171   3.824
 8204TIP3   OH224552   1.879   7.337   1.836
 8204TIP3    H124553   1.843   7.417   1.798
 8204TIP3    H224554   1.836   7.329   1.921
 8205TIP3   OH224555   1.646   3.128   0.803
 8205TIP3    H124556   1.627   3.044   0.844
 8205TIP3    H224557   1.739   3.124   0.781
 8206TIP3   OH224558   5.977   7.423   5.717
 8206TIP3    H124559   5.886   7.451   5.720
 8206TIP3    H224560   5.975   7.341   5.668
 8207TIP3   OH224561   7.779   4.639   5.109
 8207TIP3    H124562   7.758   4.558   5.064
 8207TIP3    H224563   7.801   4.611   5.199
 8208TIP3   OH224564   3.669   7.531   1.228
 8208TIP3    H124565   3.757   7.560   1.205
 8208TIP3    H224566   3.639   7.483   1.151
 8209TIP3   OH224567   3.356   6.899   2.234
 8209TIP3    H124568   3.375   6.811   2.203
 8209TIP3    H224569   3.262   6.910   2.219
 8210TIP3   OH224570   3.539   5.042   4.274
 8210TIP3    H124571   3.534   4.979   4.346
 8210TIP3    H224572   3.462   5.024   4.220
 8211TIP3   OH224573   5.667   0.728   5.346
 8211TIP3    H124574   5.719   0.651   5.321
 8211TIP3    H224575   5.598   0.733   5.280
 8212TIP3   OH224576   7.807   2.251   6.663
 8212TIP3    H124577   7.834   2.159   6.663
 8212TIP3    H224578   7.885   2.299   6.690
 8213TIP3   OH224579   0.896   5.769   2.194
 8213TIP3    H124580   0.876   5.863   2.200
 8213TIP3    H224581   0.897   5.751   2.100
 8214TIP3   OH224582   7.314   1.793   4.586
 8214TIP3    H124583   7.223   1.811   4.610
 8214TIP3    H224584   7.340   1.870   4.534
 8215TIP3   OH224585   4.923   6.835   5.016
 8215TIP3    H124586   4.947   6.850   5.107
 8215TIP3    H224587   4.836   6.794   5.020
 8216TIP3   OH224588   2.553   2.818   3.431
 8216TIP3    H124589   2.588   2.819   3.341
 8216TIP3    H224590   2.561   2.908   3.461
 8217TIP3   OH224591   8.222   7.635   5.208
 8217TIP3    H124592   8.284   7.640   5.135
 8217TIP3    H224593   8.143   7.678   5.174
 8218TIP3   OH224594   1.318   2.571   6.515
 8218TIP3    H124595   1.376   2.594   6.588
 8218TIP3    H224596   1.310   2.652   6.465
 8219TIP3   OH224597   3.096   0.980   0.128
 8219TIP3    H124598   3.149   1.003   0.204
 8219TIP3    H224599   3.113   1.051   0.065
 8220TIP3   OH224600   2.594   6.934   3.640
 8220TIP3    H124601   2.531   6.951   3.570
 8220TIP3    H224602   2.662   6.880   3.599
 8221TIP3   OH224603   2.257   6.966   2.710
 8221TIP3    H124604   2.182   6.968   2.651
 8221TIP3    H224605   2.244   7.041   2.768
 8222TIP3   OH224606   7.464   4.168   6.060
 8222TIP3    H124607   7.380   4.213   6.069
 8222TIP3    H224608   7.441   4.076   6.052
 8223TIP3   OH224609   1.633   0.192   4.876
 8223TIP3    H124610   1.573   0.247   4.926
 8223TIP3    H224611   1.707   0.249   4.856
 8224TIP3   OH224612   2.444   3.889   1.859
 8224TIP3    H124613   2.498   3.957   1.819
 8224TIP3    H224614   2.356   3.928   1.865
 8225TIP3   OH224615   3.318   6.898   5.365
 8225TIP3    H124616   3.345   6.861   5.450
 8225TIP3    H224617   3.229   6.930   5.381
 8226TIP3   OH224618   1.736   3.945   0.169
 8226TIP3    H124619   1.747   4.020   0.110
 8226TIP3    H224620   1.826   3.922   0.194
 8227TIP3   OH224621   6.313   5.939   2.345
 8227TIP3    H124622   6.292   5.891   2.425
 8227TIP3    H224623   6.407   5.954   2.350
 8228TIP3   OH224624   6.570   6.785   4.187
 8228TIP3    H124625   6.532   6.782   4.274
 8228TIP3    H224626   6.499   6.817   4.131
 8229TIP3   OH224627   3.386   6.341   5.428
 8229TIP3    H124628   3.364   6.360   5.519
 8229TIP3    H224629   3.302   6.336   5.383
 8230TIP3   OH224630   5.300   3.726   6.821
 8230TIP3    H124631   5.318   3.692   6.734
 8230TIP3    H224632   5.352   3.806   6.826
 8231TIP3   OH224633   4.232   0.648   5.805
 8231TIP3    H124634   4.209   0.669   5.714
 8231TIP3    H224635   4.327   0.637   5.803
 8232TIP3   OH224636   6.457   1.604   3.474
 8232TIP3    H124637   6.379   1.549   3.482
 8232TIP3    H224638   6.517   1.552   3.420
 8233TIP3   OH224639   3.442   0.801   5.026
 8233TIP3    H124640   3.454   0.875   4.967
 8233TIP3    H224641   3.364   0.756   4.992
 8234TIP3   OH224642   4.770   7.442   3.026
 8234TIP3    H124643   4.757   7.489   3.108
 8234TIP3    H224644   4.798   7.509   2.964
 8235TIP3   OH224645   5.893   0.956   5.419
 8235TIP3    H124646   5.819   1.014   5.404
 8235TIP3    H224647   5.953   1.008   5.473
 8236TIP3   OH224648   6.418   4.402   0.726
 8236TIP3    H124649   6.436   4.327   0.670
 8236TIP3    H224650   6.336   4.439   0.693
 8237TIP3   OH224651   7.092   0.106   3.787
 8237TIP3    H124652   7.132   0.152   3.714
 8237TIP3    H224653   6.998   0.108   3.768
 8238TIP3   OH224654   0.545   2.867   5.701
 8238TIP3    H124655   0.493   2.792   5.673
 8238TIP3    H224656   0.531   2.873   5.795
 8239TIP3   OH224657   8.277   5.218   0.799
 8239TIP3    H124658   8.198   5.266   0.774
 8239TIP3    H224659   8.299   5.251   0.886
 8240TIP3   OH224660   2.206   4.391   1.633
 8240TIP3    H124661   2.177   4.472   1.593
 8240TIP3    H224662   2.185   4.400   1.725
 8241TIP3   OH224663   7.162   7.293   0.586
 8241TIP3    H124664   7.123   7.276   0.500
 8241TIP3    H224665   7.243   7.339   0.567
 8242TIP3   OH224666   5.204   1.807   4.693
 8242TIP3    H124667   5.227   1.715   4.702
 8242TIP3    H224668   5.278   1.846   4.646
 8243TIP3   OH224669   6.720   2.777   3.858
 8243TIP3    H124670   6.681   2.704   3.810
 8243TIP3    H224671   6.815   2.761   3.853
 8244TIP3   OH224672   1.515   4.135   5.355
 8244TIP3    H124673   1.471   4.148   5.439
 8244TIP3    H224674   1.458   4.074   5.308
 8245TIP3   OH224675   0.866   5.160   6.817
 8245TIP3    H124676   0.908   5.093   6.763
 8245TIP3    H224677   0.937   5.221   6.839
 8246TIP3   OH224678   4.476   0.365   3.937
 8246TIP3    H124679   4.544   0.311   3.976
 8246TIP3    H224680   4.491   0.453   3.972
 8247TIP3   OH224681   1.578   1.171   4.188
 8247TIP3    H124682   1.584   1.248   4.245
 8247TIP3    H224683   1.498   1.126   4.217
 8248TIP3   OH224684   3.808   1.130   0.438
 8248TIP3    H124685   3.799   1.048   0.390
 8248TIP3    H224686   3.899   1.155   0.426
 8249TIP3   OH224687   3.114   4.527   1.067
 8249TIP3    H124688   3.097   4.449   1.014
 8249TIP3    H224689   3.206   4.547   1.050
 8250TIP3   OH224690   1.633   0.822   2.291
 8250TIP3    H124691   1.581   0.815   2.212
 8250TIP3    H224692   1.578   0.870   2.353
 8251TIP3   OH224693   7.244   6.096   6.677
 8251TIP3    H124694   7.259   6.006   6.649
 8251TIP3    H224695   7.288   6.102   6.762
 8252TIP3   OH224696   0.793   3.338   1.337
 8252TIP3    H124697   0.881   3.302   1.325
 8252TIP3    H224698   0.736   3.262   1.327
 8253TIP3   OH224699   2.212   4.433   5.135
 8253TIP3    H124700   2.238   4.349   5.097
 8253TIP3    H224701   2.144   4.411   5.199
 8254TIP3   OH224702   1.041   3.764   6.278
 8254TIP3    H124703   1.056   3.758   6.373
 8254TIP3    H224704   1.098   3.836   6.250
 8255TIP3   OH224705   4.768   0.933   2.226
 8255TIP3    H124706   4.753   0.847   2.187
 8255TIP3    H224707   4.685   0.956   2.267
 8256TIP3   OH224708   6.799   2.246   4.318
 8256TIP3    H124709   6.756   2.314   4.370
 8256TIP3    H224710   6.817   2.176   4.381
 8257TIP3   OH224711   2.765   4.983   2.437
 8257TIP3    H124712   2.675   5.007   2.419
 8257TIP3    H224713   2.817   5.053   2.398
 8258TIP3   OH224714   4.818   1.634   3.798
 8258TIP3    H124715   4.814   1.600   3.708
 8258TIP3    H224716   4.728   1.662   3.816
 8259TIP3   OH224717   7.863   6.296   5.483
 8259TIP3    H124718   7.860   6.275   5.390
 8259TIP3    H224719   7.896   6.386   5.487
 8260TIP3   OH224720   4.069   2.746   3.411
 8260TIP3    H124721   4.148   2.800   3.404
 8260TIP3    H224722   4.073   2.688   3.335
 8261TIP3   OH224723   0.814   0.538   5.704
 8261TIP3    H124724   0.867   0.575   5.633
 8261TIP3    H224725   0.790   0.451   5.674
 8262TIP3   OH224726   0.377   5.336   0.522
 8262TIP3    H124727   0.425   5.344   0.604
 8262TIP3    H224728   0.358   5.242   0.514
 8263TIP3   OH224729   3.163   5.062   6.473
 8263TIP3    H124730   3.116   5.145   6.472
 8263TIP3    H224731   3.252   5.085   6.501
 8264TIP3   OH224732   6.903   6.337   5.424
 8264TIP3    H124733   6.826   6.392   5.439
 8264TIP3    H224734   6.978   6.397   5.433
 8265TIP3   OH224735   1.000   5.187   3.348
 8265TIP3    H124736   0.932   5.220   3.289
 8265TIP3    H224737   0.953   5.147   3.420
 8266TIP3   OH224738   7.067   4.447   0.899
 8266TIP3    H124739   7.082   4.363   0.942
 8266TIP3    H224740   7.017   4.499   0.963
 8267TIP3   OH224741   0.815   4.385   4.370
 8267TIP3    H124742   0.897   4.378   4.419
 8267TIP3    H224743   0.747   4.366   4.434
 8268TIP3   OH224744   3.921   4.300   4.563
 8268TIP3    H124745   4.003   4.293   4.514
 8268TIP3    H224746   3.911   4.215   4.606
 8269TIP3   OH224747   0.390   1.356   0.025
 8269TIP3    H124748   0.432   1.357   0.111
 8269TIP3    H224749   0.414   1.440  -0.014
 8270TIP3   OH224750   4.296   7.811   2.363
 8270TIP3    H124751   4.387   7.802   2.394
 8270TIP3    H224752   4.246   7.831   2.442
 8271TIP3   OH224753   3.316   7.076   3.064
 8271TIP3    H124754   3.321   7.171   3.060
 8271TIP3    H224755   3.254   7.052   2.995
 8272TIP3   OH224756   3.067   4.243   0.401
 8272TIP3    H124757   2.995   4.305   0.392
 8272TIP3    H224758   3.032   4.171   0.453
 8273TIP3   OH224759   2.392   2.080   5.383
 8273TIP3    H124760   2.473   2.052   5.426
 8273TIP3    H224761   2.422   2.118   5.300
 8274TIP3   OH224762   3.358   1.889   6.409
 8274TIP3    H124763   3.315   1.873   6.492
 8274TIP3    H224764   3.442   1.843   6.416
 8275TIP3   OH224765   8.281   7.254   1.070
 8275TIP3    H124766   8.249   7.268   1.159
 8275TIP3    H224767   8.271   7.340   1.028
 8276TIP3   OH224768   0.364   5.423   6.203
 8276TIP3    H124769   0.382   5.453   6.114
 8276TIP3    H224770   0.269   5.420   6.209
 8277TIP3   OH224771   2.555   4.073   1.389
 8277TIP3    H124772   2.527   4.155   1.429
 8277TIP3    H224773   2.553   4.090   1.294
 8278TIP3   OH224774   7.089   1.688   4.033
 8278TIP3    H124775   7.116   1.772   3.997
 8278TIP3    H224776   7.053   1.709   4.119
 8279TIP3   OH224777   3.660   4.203   2.490
 8279TIP3    H124778   3.734   4.166   2.441
 8279TIP3    H224779   3.609   4.250   2.423
 8280TIP3   OH224780   6.727   5.792   5.926
 8280TIP3    H124781   6.802   5.851   5.919
 8280TIP3    H224782   6.651   5.847   5.906
 8281TIP3   OH224783   4.263   4.127   3.560
 8281TIP3    H124784   4.356   4.121   3.583
 8281TIP3    H224785   4.252   4.216   3.526
 8282TIP3   OH224786   7.049   7.522   3.334
 8282TIP3    H124787   7.032   7.551   3.423
 8282TIP3    H224788   6.991   7.576   3.280
 8283TIP3   OH224789   7.797   3.340   5.926
 8283TIP3    H124790   7.701   3.337   5.917
 8283TIP3    H224791   7.824   3.249   5.921
 8284TIP3   OH224792   6.438   1.712   5.917
 8284TIP3    H124793   6.439   1.794   5.869
 8284TIP3    H224794   6.401   1.734   6.002
 8285TIP3   OH224795   1.747   1.234   1.444
 8285TIP3    H124796   1.824   1.229   1.386
 8285TIP3    H224797   1.746   1.324   1.474
 8286TIP3   OH224798   7.818   6.544   2.741
 8286TIP3    H124799   7.785   6.613   2.798
 8286TIP3    H224800   7.900   6.516   2.782
 8287TIP3   OH224801   2.264   6.381   3.550
 8287TIP3    H124802   2.325   6.324   3.504
 8287TIP3    H224803   2.262   6.462   3.498
 8288TIP3   OH224804   3.230   5.813   6.576
 8288TIP3    H124805   3.218   5.762   6.495
 8288TIP3    H224806   3.228   5.904   6.547
 8289TIP3   OH224807   0.626   6.804   3.752
 8289TIP3    H124808   0.597   6.803   3.843
 8289TIP3    H224809   0.557   6.757   3.704
 8290TIP3   OH224810   4.439   5.162   3.397
 8290TIP3    H124811   4.376   5.153   3.468
 8290TIP3    H224812   4.386   5.173   3.319
 8291TIP3   OH224813   4.230   4.432   2.733
 8291TIP3    H124814   4.320   4.403   2.743
 8291TIP3    H224815   4.201   4.393   2.650
 8292TIP3   OH224816   3.082   7.524   3.355
 8292TIP3    H124817   3.048   7.613   3.346
 8292TIP3    H224818   3.043   7.492   3.436
 8293TIP3   OH224819   5.824   1.892   3.496
 8293TIP3    H124820   5.909   1.880   3.538
 8293TIP3    H224821   5.817   1.820   3.434
 8294TIP3   OH224822   0.950   3.336   6.796
 8294TIP3    H124823   0.879   3.395   6.770
 8294TIP3    H224824   0.954   3.344   6.891
 8295TIP3   OH224825   0.391   1.172   5.912
 8295TIP3    H124826   0.365   1.081   5.917
 8295TIP3    H224827   0.348   1.214   5.986
 8296TIP3   OH224828   4.556   5.382   3.590
 8296TIP3    H124829   4.543   5.468   3.551
 8296TIP3    H224830   4.529   5.320   3.523
 8297TIP3   OH224831   5.147   0.408   5.843
 8297TIP3    H124832   5.068   0.360   5.868
 8297TIP3    H224833   5.144   0.488   5.896
 8298TIP3   OH224834   0.248   0.696   4.544
 8298TIP3    H124835   0.305   0.622   4.568
 8298TIP3    H224836   0.280   0.769   4.597
 8299TIP3   OH224837   4.169   2.825   4.433
 8299TIP3    H124838   4.202   2.735   4.435
 8299TIP3    H224839   4.171   2.849   4.341
 8300TIP3   OH224840   2.070   3.539   0.463
 8300TIP3    H124841   2.158   3.562   0.433
 8300TIP3    H224842   2.080   3.526   0.557
 8301TIP3   OH224843   4.744   7.267   4.116
 8301TIP3    H124844   4.838   7.288   4.118
 8301TIP3    H224845   4.709   7.324   4.049
 8302TIP3   OH224846   1.124   1.621   3.425
 8302TIP3    H124847   1.158   1.636   3.514
 8302TIP3    H224848   1.176   1.680   3.370
 8303TIP3   OH224849   3.057   1.939   2.351
 8303TIP3    H124850   3.089   1.933   2.441
 8303TIP3    H224851   2.975   1.889   2.351
 8304TIP3   OH224852   3.994   1.066   5.089
 8304TIP3    H124853   3.944   1.003   5.141
 8304TIP3    H224854   3.940   1.083   5.013
 8305TIP3   OH224855   7.717   1.978   1.226
 8305TIP3    H124856   7.635   1.992   1.178
 8305TIP3    H224857   7.694   1.916   1.296
 8306TIP3   OH224858   0.497   7.567   4.695
 8306TIP3    H124859   0.541   7.603   4.618
 8306TIP3    H224860   0.535   7.615   4.769
 8307TIP3   OH224861   5.082   1.473   3.322
 8307TIP3    H124862   5.158   1.510   3.276
 8307TIP3    H224863   5.098   1.379   3.322
 8308TIP3   OH224864   2.336   5.841   1.066
 8308TIP3    H124865   2.428   5.837   1.095
 8308TIP3    H224866   2.339   5.826   0.972
 8309TIP3   OH224867   0.252   0.919   0.258
 8309TIP3    H124868   0.320   0.942   0.195
 8309TIP3    H224869   0.241   0.824   0.249
 8310TIP3   OH224870   2.576   6.401   2.329
 8310TIP3    H124871   2.658   6.404   2.279
 8310TIP3    H224872   2.573   6.312   2.365
 8311TIP3   OH224873   8.383   7.803   2.017
 8311TIP3    H124874   8.440   7.727   2.034
 8311TIP3    H224875   8.381   7.850   2.100
 8312TIP3   OH224876   2.430   0.584   1.355
 8312TIP3    H124877   2.408   0.598   1.263
 8312TIP3    H224878   2.397   0.496   1.373
 8313TIP3   OH224879   2.286   0.811   1.401
 8313TIP3    H124880   2.330   0.726   1.405
 8313TIP3    H224881   2.200   0.796   1.438
 8314TIP3   OH224882   8.349   0.859  -0.006
 8314TIP3    H124883   8.266   0.815   0.015
 8314TIP3    H224884   8.406   0.841   0.068
 8315TIP3   OH224885   4.219   2.119   5.070
 8315TIP3    H124886   4.235   2.028   5.095
 8315TIP3    H224887   4.127   2.121   5.044
 8316TIP3   OH224888   3.052   2.527   3.155
 8316TIP3    H124889   2.973   2.565   3.115
 8316TIP3    H224890   3.027   2.512   3.247
 8317TIP3   OH224891   2.172   5.671   3.554
 8317TIP3    H124892   2.137   5.587   3.525
 8317TIP3    H224893   2.148   5.733   3.485
 8318TIP3   OH224894   4.602   5.479   4.819
 8318TIP3    H124895   4.563   5.394   4.839
 8318TIP3    H224896   4.543   5.542   4.859
 8319TIP3   OH224897   0.901   3.306   4.773
 8319TIP3    H124898   0.974   3.365   4.754
 8319TIP3    H224899   0.849   3.351   4.839
 8320TIP3   OH224900   3.227   2.843   4.001
 8320TIP3    H124901   3.282   2.918   4.025
 8320TIP3    H224902   3.137   2.877   4.007
 8321TIP3   OH224903   3.862   3.250   4.149
 8321TIP3    H124904   3.844   3.287   4.235
 8321TIP3    H224905   3.856   3.324   4.089
 8322TIP3   OH224906   8.175   7.262   4.412
 8322TIP3    H124907   8.190   7.346   4.370
 8322TIP3    H224908   8.262   7.230   4.435
 8323TIP3   OH224909   6.506   3.468   2.509
 8323TIP3    H124910   6.584   3.476   2.564
 8323TIP3    H224911   6.451   3.405   2.555
 8324TIP3   OH224912   6.027   2.618   4.828
 8324TIP3    H124913   5.991   2.705   4.807
 8324TIP3    H224914   5.952   2.568   4.859
 8325TIP3   OH224915   3.891   1.024   0.896
 8325TIP3    H124916   3.948   0.968   0.948
 8325TIP3    H224917   3.832   0.963   0.850
 8326TIP3   OH224918   0.859   4.296   6.659
 8326TIP3    H124919   0.848   4.328   6.570
 8326TIP3    H224920   0.887   4.372   6.709
 8327TIP3   OH224921   2.046   7.784   1.399
 8327TIP3    H124922   2.084   7.698   1.416
 8327TIP3    H224923   2.121   7.843   1.394
 8328TIP3   OH224924   0.326   6.373   6.326
 8328TIP3    H124925   0.371   6.356   6.409
 8328TIP3    H224926   0.388   6.428   6.277
 8329TIP3   OH224927   7.485   6.238   2.488
 8329TIP3    H124928   7.399   6.278   2.474
 8329TIP3    H224929   7.528   6.296   2.551
 8330TIP3   OH224930   6.453   5.045   3.514
 8330TIP3    H124931   6.509   4.984   3.562
 8330TIP3    H224932   6.480   5.131   3.546
 8331TIP3   OH224933   1.723   7.059   0.198
 8331TIP3    H124934   1.778   7.060   0.276
 8331TIP3    H224935   1.742   6.975   0.156
 8332TIP3   OH224936   5.056   7.821   2.018
 8332TIP3    H124937   5.044   7.891   1.954
 8332TIP3    H224938   5.013   7.852   2.097
 8333TIP3   OH224939   1.229   7.483   4.207
 8333TIP3    H124940   1.273   7.544   4.147
 8333TIP3    H224941   1.270   7.398   4.188
 8334TIP3   OH224942   1.809   0.165   2.635
 8334TIP3    H124943   1.891   0.207   2.662
 8334TIP3    H224944   1.798   0.093   2.697
 8335TIP3   OH224945   6.625   2.901   4.878
 8335TIP3    H124946   6.639   2.806   4.882
 8335TIP3    H224947   6.707   2.939   4.909
 8336TIP3   OH224948   0.001   6.770   5.677
 8336TIP3    H124949   0.071   6.812   5.726
 8336TIP3    H224950   0.035   6.683   5.654
 8337TIP3   OH224951  -0.001   6.050   2.979
 8337TIP3    H124952   0.013   6.017   3.068
 8337TIP3    H224953   0.065   6.005   2.926
 8338TIP3   OH224954   4.044   3.240   4.768
 8338TIP3    H124955   3.962   3.202   4.799
 8338TIP3    H224956   4.065   3.190   4.689
 8339TIP3   OH224957   8.124   2.665   6.126
 8339TIP3    H124958   8.050   2.702   6.078
 8339TIP3    H224959   8.109   2.571   6.123
 8340TIP3   OH224960   4.258   5.936   2.802
 8340TIP3    H124961   4.196   5.971   2.865
 8340TIP3    H224962   4.333   5.995   2.806
 8341TIP3   OH224963   6.123   7.158   3.207
 8341TIP3    H124964   6.097   7.237   3.253
 8341TIP3    H224965   6.217   7.150   3.224
 8342TIP3   OH224966   5.303   1.257   4.909
 8342TIP3    H124967   5.335   1.168   4.924
 8342TIP3    H224968   5.351   1.288   4.833
 8343TIP3   OH224969   1.891   0.738   3.847
 8343TIP3    H124970   1.811   0.746   3.900
 8343TIP3    H224971   1.913   0.828   3.822
 8344TIP3   OH224972   1.464   4.009   6.281
 8344TIP3    H124973   1.434   4.100   6.284
 8344TIP3    H224974   1.535   4.006   6.345
 8345TIP3   OH224975   3.509   2.356   4.069
 8345TIP3    H124976   3.570   2.289   4.099
 8345TIP3    H224977   3.455   2.312   4.003
 8346TIP3   OH224978   6.598   1.296   2.584
 8346TIP3    H124979   6.509   1.316   2.555
 8346TIP3    H224980   6.590   1.213   2.631
 8347TIP3   OH224981   0.871   6.118   2.936
 8347TIP3    H124982   0.901   6.085   3.021
 8347TIP3    H224983   0.776   6.117   2.942
 8348TIP3   OH224984   6.943   6.096   1.588
 8348TIP3    H124985   6.929   6.190   1.597
 8348TIP3    H224986   7.028   6.089   1.545
 8349TIP3   OH224987   5.888   5.854   5.734
 8349TIP3    H124988   5.847   5.870   5.650
 8349TIP3    H224989   5.828   5.892   5.798
 8350TIP3   OH224990   1.226   5.858   1.808
 8350TIP3    H124991   1.222   5.839   1.901
 8350TIP3    H224992   1.134   5.859   1.780
 8351TIP3   OH224993   6.552   6.854   1.563
 8351TIP3    H124994   6.614   6.922   1.590
 8351TIP3    H224995   6.592   6.815   1.485
 8352TIP3   OH224996   8.002   0.113   5.828
 8352TIP3    H124997   7.971   0.168   5.901
 8352TIP3    H224998   8.029   0.032   5.870
 8353TIP3   OH224999   3.761   3.376   6.238
 8353TIP3    H125000   3.771   3.301   6.298
 8353TIP3    H225001   3.851   3.402   6.217
 8354TIP3   OH225002   5.575   7.414   3.693
 8354TIP3    H125003   5.541   7.493   3.650
 8354TIP3    H225004   5.662   7.401   3.655
 8355TIP3   OH225005   4.043   4.234   5.112
 8355TIP3    H125006   4.050   4.329   5.099
 8355TIP3    H225007   4.060   4.221   5.205
 8356TIP3   OH225008   7.531   0.871   2.087
 8356TIP3    H125009   7.507   0.826   2.168
 8356TIP3    H225010   7.447   0.898   2.049
 8357TIP3   OH225011   4.672   0.773   4.109
 8357TIP3    H125012   4.741   0.766   4.043
 8357TIP3    H225013   4.718   0.766   4.192
 8358TIP3   OH225014   7.162   3.711   4.861
 8358TIP3    H125015   7.248   3.749   4.877
 8358TIP3    H225016   7.103   3.786   4.850
 8359TIP3   OH225017   0.592   7.029   5.660
 8359TIP3    H125018   0.525   6.961   5.656
 8359TIP3    H225019   0.581   7.079   5.579
 8360TIP3   OH225020   7.995   7.761   4.826
 8360TIP3    H125021   8.003   7.855   4.838
 8360TIP3    H225022   8.068   7.738   4.768
 8361TIP3   OH225023   6.279   4.114   6.211
 8361TIP3    H125024   6.229   4.033   6.208
 8361TIP3    H225025   6.236   4.171   6.147
 8362TIP3   OH225026   4.386   7.494   6.474
 8362TIP3    H125027   4.440   7.426   6.514
 8362TIP3    H225028   4.438   7.524   6.399
 8363TIP3   OH225029   5.260   5.133   2.975
 8363TIP3    H125030   5.216   5.127   3.060
 8363TIP3    H225031   5.194   5.171   2.917
 8364TIP3   OH225032   5.908   1.983   1.310
 8364TIP3    H125033   5.863   2.056   1.353
 8364TIP3    H225034   6.000   2.009   1.310
 8365TIP3   OH225035   4.459   3.586   6.625
 8365TIP3    H125036   4.503   3.601   6.542
 8365TIP3    H225037   4.529   3.567   6.687
 8366TIP3   OH225038   4.486   3.657   4.539
 8366TIP3    H125039   4.435   3.733   4.566
 8366TIP3    H225040   4.421   3.598   4.500
 8367TIP3   OH225041   0.125   3.490   5.118
 8367TIP3    H125042   0.147   3.441   5.039
 8367TIP3    H225043   0.096   3.424   5.180
 8368TIP3   OH225044   7.460   5.523   1.616
 8368TIP3    H125045   7.393   5.463   1.647
 8368TIP3    H225046   7.436   5.608   1.652
 8369TIP3   OH225047   3.128   6.527   6.039
 8369TIP3    H125048   3.185   6.500   5.966
 8369TIP3    H225049   3.056   6.573   5.997
 8370TIP3   OH225050   2.928   3.990   2.093
 8370TIP3    H125051   2.858   4.039   2.135
 8370TIP3    H225052   2.899   3.899   2.095
 8371TIP3   OH225053   2.411   3.483   2.748
 8371TIP3    H125054   2.318   3.491   2.768
 8371TIP3    H225055   2.435   3.566   2.707
 8372TIP3   OH225056   2.927   2.821   1.005
 8372TIP3    H125057   2.976   2.748   1.042
 8372TIP3    H225058   2.958   2.828   0.914
 8373TIP3   OH225059   6.800   3.322   6.740
 8373TIP3    H125060   6.814   3.256   6.672
 8373TIP3    H225061   6.881   3.320   6.791
 8374TIP3   OH225062   2.528   4.757   1.915
 8374TIP3    H125063   2.529   4.777   1.821
 8374TIP3    H225064   2.452   4.700   1.927
 8375TIP3   OH225065   8.321   2.453   5.393
 8375TIP3    H125066   8.286   2.433   5.306
 8375TIP3    H225067   8.396   2.394   5.403
 8376TIP3   OH225068   7.542   2.564   0.265
 8376TIP3    H125069   7.550   2.469   0.254
 8376TIP3    H225070   7.514   2.575   0.356
 8377TIP3   OH225071   8.196   3.504   3.308
 8377TIP3    H125072   8.128   3.452   3.267
 8377TIP3    H225073   8.204   3.582   3.252
 8378TIP3   OH225074   0.955   2.491   5.476
 8378TIP3    H125075   0.886   2.482   5.542
 8378TIP3    H225076   1.008   2.413   5.486
 8379TIP3   OH225077   8.260   7.213   0.009
 8379TIP3    H125078   8.338   7.219   0.064
 8379TIP3    H225079   8.290   7.169  -0.071
 8380TIP3   OH225080   7.559   7.077   0.200
 8380TIP3    H125081   7.518   7.041   0.279
 8380TIP3    H225082   7.567   7.003   0.140
 8381TIP3   OH225083   1.571   1.533   5.221
 8381TIP3    H125084   1.593   1.485   5.141
 8381TIP3    H225085   1.485   1.499   5.246
 8382TIP3   OH225086   4.217   7.638   5.405
 8382TIP3    H125087   4.288   7.656   5.344
 8382TIP3    H225088   4.256   7.648   5.491
 8383TIP3   OH225089   2.271   5.345   1.451
 8383TIP3    H125090   2.269   5.279   1.521
 8383TIP3    H225091   2.273   5.293   1.370
 8384TIP3   OH225092   7.890   6.249   4.965
 8384TIP3    H125093   7.960   6.220   4.906
 8384TIP3    H225094   7.819   6.187   4.949
 8385TIP3   OH225095   3.883   5.929   1.756
 8385TIP3    H125096   3.957   5.903   1.811
 8385TIP3    H225097   3.916   6.004   1.706
 8386TIP3   OH225098   3.848   2.787   4.017
 8386TIP3    H125099   3.856   2.717   4.082
 8386TIP3    H225100   3.790   2.751   3.949
 8387TIP3   OH225101   1.596   0.426   1.189
 8387TIP3    H125102   1.591   0.361   1.259
 8387TIP3    H225103   1.506   0.455   1.177
 8388TIP3   OH225104   2.328   6.987   3.794
 8388TIP3    H125105   2.403   6.934   3.768
 8388TIP3    H225106   2.364   7.074   3.809
 8389TIP3   OH225107   1.774   0.496   4.121
 8389TIP3    H125108   1.789   0.437   4.047
 8389TIP3    H225109   1.708   0.558   4.089
 8390TIP3   OH225110   4.569   4.718   1.465
 8390TIP3    H125111   4.631   4.675   1.406
 8390TIP3    H225112   4.608   4.804   1.481
 8391TIP3   OH225113   8.273   1.079   2.782
 8391TIP3    H125114   8.335   1.074   2.709
 8391TIP3    H225115   8.323   1.050   2.858
 8392TIP3   OH225116   5.993   7.035   0.479
 8392TIP3    H125117   6.039   7.119   0.470
 8392TIP3    H225118   5.982   7.023   0.573
 8393TIP3   OH225119   2.580   2.550   1.527
 8393TIP3    H125120   2.600   2.643   1.531
 8393TIP3    H225121   2.651   2.513   1.474
 8394TIP3   OH225122   3.042   4.878   6.291
 8394TIP3    H125123   3.098   4.934   6.346
 8394TIP3    H225124   2.963   4.931   6.277
 8395TIP3   OH225125   5.574   0.105   1.544
 8395TIP3    H125126   5.528   0.066   1.618
 8395TIP3    H225127   5.511   0.103   1.472
 8396TIP3   OH225128   8.364   6.507   4.143
 8396TIP3    H125129   8.381   6.461   4.061
 8396TIP3    H225130   8.377   6.599   4.122
 8397TIP3   OH225131   1.190   2.917   4.509
 8397TIP3    H125132   1.105   2.879   4.532
 8397TIP3    H225133   1.253   2.848   4.532
 8398TIP3   OH225134   3.989   3.360   1.578
 8398TIP3    H125135   4.067   3.374   1.631
 8398TIP3    H225136   3.952   3.278   1.611
 8399TIP3   OH225137   4.586   6.301   4.252
 8399TIP3    H125138   4.505   6.344   4.225
 8399TIP3    H225139   4.651   6.333   4.190
 8400TIP3   OH225140   5.236   3.369   3.248
 8400TIP3    H125141   5.148   3.344   3.279
 8400TIP3    H225142   5.263   3.440   3.306
 8401TIP3   OH225143   7.528   6.687   0.843
 8401TIP3    H125144   7.481   6.652   0.768
 8401TIP3    H225145   7.533   6.613   0.905
 8402TIP3   OH225146   1.282   3.868   0.250
 8402TIP3    H125147   1.299   3.902   0.162
 8402TIP3    H225148   1.358   3.896   0.301
 8403TIP3   OH225149   2.863   6.657   2.392
 8403TIP3    H125150   2.833   6.596   2.459
 8403TIP3    H225151   2.870   6.605   2.312
 8404TIP3   OH225152   4.184   4.451   3.815
 8404TIP3    H125153   4.198   4.546   3.825
 8404TIP3    H225154   4.272   4.416   3.800
 8405TIP3   OH225155   4.948   5.460   6.814
 8405TIP3    H125156   4.998   5.490   6.738
 8405TIP3    H225157   4.874   5.519   6.820
 8406TIP3   OH225158   7.973   6.645   4.444
 8406TIP3    H125159   7.996   6.556   4.419
 8406TIP3    H225160   8.039   6.670   4.509
 8407TIP3   OH225161   7.617   4.833   5.342
 8407TIP3    H125162   7.649   4.780   5.270
 8407TIP3    H225163   7.620   4.923   5.309
 8408TIP3   OH225164   5.131   7.119   1.731
 8408TIP3    H125165   5.157   7.192   1.674
 8408TIP3    H225166   5.058   7.155   1.783
 8409TIP3   OH225167   1.227   3.885   4.369
 8409TIP3    H125168   1.201   3.976   4.354
 8409TIP3    H225169   1.217   3.843   4.283
 8410TIP3   OH225170   1.350   2.219   2.700
 8410TIP3    H125171   1.392   2.151   2.753
 8410TIP3    H225172   1.422   2.267   2.660
 8411TIP3   OH225173   7.456   0.417   2.586
 8411TIP3    H125174   7.525   0.462   2.634
 8411TIP3    H225175   7.387   0.404   2.650
 8412TIP3   OH225176   4.332   0.487   6.619
 8412TIP3    H125177   4.348   0.494   6.713
 8412TIP3    H225178   4.377   0.563   6.582
 8413TIP3   OH225179   3.965   5.182   0.930
 8413TIP3    H125180   3.935   5.249   0.992
 8413TIP3    H225181   3.975   5.103   0.983
 8414TIP3   OH225182   1.930   2.400   5.160
 8414TIP3    H125183   1.978   2.475   5.194
 8414TIP3    H225184   1.997   2.337   5.135
 8415TIP3   OH225185   2.565   5.808   5.709
 8415TIP3    H125186   2.506   5.855   5.650
 8415TIP3    H225187   2.530   5.719   5.712
 8416TIP3   OH225188   1.431   1.830   6.014
 8416TIP3    H125189   1.345   1.791   6.031
 8416TIP3    H225190   1.413   1.923   6.001
 8417TIP3   OH225191   4.445   0.024   1.455
 8417TIP3    H125192   4.361   0.066   1.473
 8417TIP3    H225193   4.496   0.091   1.410
 8418TIP3   OH225194   5.187   2.668   0.914
 8418TIP3    H125195   5.141   2.649   0.832
 8418TIP3    H225196   5.260   2.605   0.916
 8419TIP3   OH225197   0.959   3.050   2.795
 8419TIP3    H125198   0.920   3.081   2.876
 8419TIP3    H225199   0.888   3.004   2.750
 8420TIP3   OH225200   2.282   5.877   2.888
 8420TIP3    H125201   2.348   5.931   2.846
 8420TIP3    H225202   2.199   5.902   2.846
 8421TIP3   OH225203   5.476   7.287   0.662
 8421TIP3    H125204   5.450   7.350   0.594
 8421TIP3    H225205   5.523   7.219   0.614
 8422TIP3   OH225206   7.738   5.097   1.678
 8422TIP3    H125207   7.714   5.005   1.691
 8422TIP3    H225208   7.827   5.093   1.641
 8423TIP3   OH225209   2.907   0.872   2.695
 8423TIP3    H125210   2.949   0.864   2.781
 8423TIP3    H225211   2.948   0.948   2.655
 8424TIP3   OH225212   0.454   5.088   2.646
 8424TIP3    H125213   0.430   5.180   2.643
 8424TIP3    H225214   0.400   5.051   2.716
 8425TIP3   OH225215   4.384   5.890   3.501
 8425TIP3    H125216   4.340   5.928   3.425
 8425TIP3    H225217   4.322   5.827   3.536
 8426TIP3   OH225218   1.193   0.950   2.382
 8426TIP3    H125219   1.106   0.982   2.406
 8426TIP3    H225220   1.181   0.856   2.371
 8427TIP3   OH225221   5.511   1.134   1.878
 8427TIP3    H125222   5.591   1.119   1.829
 8427TIP3    H225223   5.491   1.049   1.918
 8428TIP3   OH225224   0.940   2.428   1.536
 8428TIP3    H125225   0.865   2.373   1.561
 8428TIP3    H225226   0.910   2.517   1.552
 8429TIP3   OH225227   6.348   0.112   3.926
 8429TIP3    H125228   6.424   0.076   3.880
 8429TIP3    H225229   6.378   0.123   4.016
 8430TIP3   OH225230   7.751   5.588   1.305
 8430TIP3    H125231   7.805   5.634   1.240
 8430TIP3    H225232   7.712   5.658   1.357
 8431TIP3   OH225233   6.676   4.268   3.586
 8431TIP3    H125234   6.670   4.327   3.661
 8431TIP3    H225235   6.628   4.312   3.516
 8432TIP3   OH225236   1.695   7.780   6.086
 8432TIP3    H125237   1.665   7.735   6.007
 8432TIP3    H225238   1.743   7.712   6.135
 8433TIP3   OH225239   0.327   2.492   0.090
 8433TIP3    H125240   0.353   2.495   0.182
 8433TIP3    H225241   0.324   2.584   0.063
 8434TIP3   OH225242   7.664   2.246   2.947
 8434TIP3    H125243   7.713   2.228   2.867
 8434TIP3    H225244   7.697   2.331   2.977
 8435TIP3   OH225245   2.070   2.621   5.258
 8435TIP3    H125246   2.004   2.631   5.326
 8435TIP3    H225247   2.042   2.680   5.188
 8436TIP3   OH225248   2.954   4.844   5.784
 8436TIP3    H125249   2.968   4.767   5.729
 8436TIP3    H225250   3.042   4.877   5.802
 8437TIP3   OH225251   6.939   0.850   2.134
 8437TIP3    H125252   6.950   0.875   2.042
 8437TIP3    H225253   6.957   0.931   2.183
 8438TIP3   OH225254   2.765   4.306   6.647
 8438TIP3    H125255   2.714   4.233   6.682
 8438TIP3    H225256   2.826   4.264   6.585
 8439TIP3   OH225257   7.576   6.798   6.439
 8439TIP3    H125258   7.650   6.859   6.438
 8439TIP3    H225259   7.597   6.733   6.372
 8440TIP3   OH225260   5.319   4.420   1.734
 8440TIP3    H125261   5.357   4.503   1.706
 8440TIP3    H225262   5.392   4.358   1.733
 8441TIP3   OH225263   5.269   4.872   3.259
 8441TIP3    H125264   5.220   4.796   3.291
 8441TIP3    H225265   5.203   4.925   3.213
 8442TIP3   OH225266   5.159   6.486   4.471
 8442TIP3    H125267   5.079   6.452   4.430
 8442TIP3    H225268   5.186   6.558   4.414
 8443TIP3   OH225269   5.703   3.240   4.106
 8443TIP3    H125270   5.614   3.266   4.129
 8443TIP3    H225271   5.720   3.285   4.023
 8444TIP3   OH225272   1.643   3.787   1.995
 8444TIP3    H125273   1.716   3.727   2.010
 8444TIP3    H225274   1.680   3.874   2.013
 8445TIP3   OH225275   6.338   3.886   6.021
 8445TIP3    H125276   6.337   3.931   5.936
 8445TIP3    H225277   6.260   3.830   6.020
 8446TIP3   OH225278   3.385   1.685   4.016
 8446TIP3    H125279   3.337   1.631   4.079
 8446TIP3    H225280   3.427   1.622   3.958
 8447TIP3   OH225281   3.345   3.927   5.876
 8447TIP3    H125282   3.386   3.998   5.826
 8447TIP3    H225283   3.391   3.926   5.959
 8448TIP3   OH225284   1.186   1.042   3.839
 8448TIP3    H125285   1.191   0.987   3.761
 8448TIP3    H225286   1.270   1.089   3.840
 8449TIP3   OH225287   6.592   3.782   3.097
 8449TIP3    H125288   6.504   3.751   3.120
 8449TIP3    H225289   6.638   3.705   3.065
 8450TIP3   OH225290   4.855   3.086   0.648
 8450TIP3    H125291   4.865   2.994   0.624
 8450TIP3    H225292   4.775   3.114   0.604
 8451TIP3   OH225293   7.993   7.753   1.419
 8451TIP3    H125294   8.029   7.768   1.332
 8451TIP3    H225295   7.946   7.834   1.440
 8452TIP3   OH225296   6.893   4.177   3.399
 8452TIP3    H125297   6.880   4.086   3.374
 8452TIP3    H225298   6.826   4.193   3.466
 8453TIP3   OH225299   6.972   5.310   1.569
 8453TIP3    H125300   6.975   5.265   1.653
 8453TIP3    H225301   6.907   5.379   1.581
 8454TIP3   OH225302   5.645   7.120   0.137
 8454TIP3    H125303   5.596   7.050   0.093
 8454TIP3    H225304   5.696   7.076   0.204
 8455TIP3   OH225305   3.381   3.489   6.015
 8455TIP3    H125306   3.357   3.495   6.107
 8455TIP3    H225307   3.476   3.498   6.014
 8456TIP3   OH225308   3.226   7.323   6.629
 8456TIP3    H125309   3.166   7.317   6.554
 8456TIP3    H225310   3.221   7.237   6.671
 8457TIP3   OH225311   6.534   3.088   4.689
 8457TIP3    H125312   6.577   3.020   4.740
 8457TIP3    H225313   6.464   3.121   4.745
 8458TIP3   OH225314   7.670   4.071   4.571
 8458TIP3    H125315   7.734   4.012   4.610
 8458TIP3    H225316   7.585   4.039   4.601
 8459TIP3   OH225317   8.128   2.904   3.000
 8459TIP3    H125318   8.157   2.838   3.062
 8459TIP3    H225319   8.107   2.856   2.920
 8460TIP3   OH225320   5.332   1.761   0.587
 8460TIP3    H125321   5.297   1.730   0.504
 8460TIP3    H225322   5.256   1.764   0.645
 8461TIP3   OH225323   5.952   5.764   6.815
 8461TIP3    H125324   6.038   5.751   6.855
 8461TIP3    H225325   5.893   5.710   6.867
 8462TIP3   OH225326   7.365   1.626   0.689
 8462TIP3    H125327   7.380   1.533   0.704
 8462TIP3    H225328   7.319   1.629   0.604
 8463TIP3   OH225329   2.413   3.552   0.686
 8463TIP3    H125330   2.353   3.538   0.759
 8463TIP3    H225331   2.488   3.598   0.724
 8464TIP3   OH225332   3.794   5.963   4.061
 8464TIP3    H125333   3.858   5.903   4.023
 8464TIP3    H225334   3.847   6.028   4.107
 8465TIP3   OH225335   5.254   6.380   5.227
 8465TIP3    H125336   5.269   6.311   5.163
 8465TIP3    H225337   5.317   6.363   5.297
 8466TIP3   OH225338   2.858   1.496   3.035
 8466TIP3    H125339   2.772   1.502   3.076
 8466TIP3    H225340   2.917   1.477   3.108
 8467TIP3   OH225341   2.332   6.886   3.410
 8467TIP3    H125342   2.419   6.922   3.390
 8467TIP3    H225343   2.292   6.951   3.467
 8468TIP3   OH225344   0.683   7.339   2.029
 8468TIP3    H125345   0.634   7.397   2.087
 8468TIP3    H225346   0.616   7.287   1.984
 8469TIP3   OH225347   5.176   6.305   3.078
 8469TIP3    H125348   5.251   6.357   3.105
 8469TIP3    H225349   5.119   6.367   3.032
 8470TIP3   OH225350   7.660   6.186   4.742
 8470TIP3    H125351   7.610   6.256   4.783
 8470TIP3    H225352   7.657   6.114   4.806
 8471TIP3   OH225353   5.169   2.259   6.549
 8471TIP3    H125354   5.216   2.309   6.616
 8471TIP3    H225355   5.215   2.279   6.467
 8472TIP3   OH225356   5.034   1.182   4.717
 8472TIP3    H125357   5.100   1.119   4.686
 8472TIP3    H225358   5.085   1.253   4.755
 8473TIP3   OH225359   7.786   5.710   4.908
 8473TIP3    H125360   7.708   5.670   4.945
 8473TIP3    H225361   7.835   5.637   4.869
 8474TIP3   OH225362   6.043   2.353   2.621
 8474TIP3    H125363   5.988   2.311   2.556
 8474TIP3    H225364   6.122   2.378   2.573
 8475TIP3   OH225365   6.363   5.409   5.633
 8475TIP3    H125366   6.370   5.467   5.557
 8475TIP3    H225367   6.310   5.336   5.603
 8476TIP3   OH225368   2.861   4.867   0.444
 8476TIP3    H125369   2.815   4.791   0.409
 8476TIP3    H225370   2.794   4.936   0.450
 8477TIP3   OH225371   7.255   7.873   5.318
 8477TIP3    H125372   7.333   7.915   5.352
 8477TIP3    H225373   7.184   7.935   5.335
 8478TIP3   OH225374   4.818   5.857   0.708
 8478TIP3    H125375   4.766   5.924   0.664
 8478TIP3    H225376   4.899   5.852   0.658
 8479TIP3   OH225377   0.406   0.815   5.105
 8479TIP3    H125378   0.477   0.796   5.044
 8479TIP3    H225379   0.372   0.900   5.076
 8480TIP3   OH225380   6.853   2.882   6.686
 8480TIP3    H125381   6.910   2.883   6.763
 8480TIP3    H225382   6.815   2.794   6.685
 8481TIP3   OH225383   0.598   6.125   2.956
 8481TIP3    H125384   0.516   6.167   2.932
 8481TIP3    H225385   0.613   6.151   3.046
 8482TIP3   OH225386   5.694   7.093   5.185
 8482TIP3    H125387   5.719   7.138   5.266
 8482TIP3    H225388   5.760   7.120   5.121
 8483TIP3   OH225389   1.353   1.322   3.663
 8483TIP3    H125390   1.397   1.283   3.738
 8483TIP3    H225391   1.302   1.395   3.701
 8484TIP3   OH225392   0.498   2.295   3.315
 8484TIP3    H125393   0.448   2.371   3.346
 8484TIP3    H225394   0.436   2.246   3.261
 8485TIP3   OH225395   2.603   0.628   6.020
 8485TIP3    H125396   2.578   0.714   6.053
 8485TIP3    H225397   2.611   0.639   5.926
 8486TIP3   OH225398   0.325   3.555   3.044
 8486TIP3    H125399   0.353   3.620   2.979
 8486TIP3    H225400   0.399   3.546   3.103
 8487TIP3   OH225401   5.460   2.772   3.375
 8487TIP3    H125402   5.553   2.788   3.394
 8487TIP3    H225403   5.422   2.751   3.460
 8488TIP3   OH225404   3.884   7.837   1.902
 8488TIP3    H125405   3.969   7.811   1.938
 8488TIP3    H225406   3.864   7.771   1.837
 8489TIP3   OH225407   2.560   7.527   5.157
 8489TIP3    H125408   2.590   7.586   5.088
 8489TIP3    H225409   2.531   7.449   5.110
 8490TIP3   OH225410   2.762   0.831   3.613
 8490TIP3    H125411   2.686   0.784   3.648
 8490TIP3    H225412   2.725   0.909   3.571
 8491TIP3   OH225413   6.985   0.643   0.795
 8491TIP3    H125414   6.899   0.605   0.812
 8491TIP3    H225415   6.995   0.712   0.861
 8492TIP3   OH225416   4.438   2.709   4.982
 8492TIP3    H125417   4.371   2.660   4.936
 8492TIP3    H225418   4.456   2.658   5.061
 8493TIP3   OH225419   7.941   1.549   6.050
 8493TIP3    H125420   7.980   1.471   6.089
 8493TIP3    H225421   8.016   1.600   6.018
 8494TIP3   OH225422   5.557   5.969   0.887
 8494TIP3    H125423   5.483   5.958   0.828
 8494TIP3    H225424   5.632   5.937   0.838
 8495TIP3   OH225425   8.165   6.649   0.325
 8495TIP3    H125426   8.228   6.613   0.262
 8495TIP3    H225427   8.115   6.714   0.274
 8496TIP3   OH225428   2.893   4.495   1.754
 8496TIP3    H125429   2.940   4.576   1.737
 8496TIP3    H225430   2.902   4.481   1.848
 8497TIP3   OH225431   5.732   7.828   1.215
 8497TIP3    H125432   5.675   7.780   1.155
 8497TIP3    H225433   5.778   7.891   1.159
 8498TIP3   OH225434   6.200   6.382   0.325
 8498TIP3    H125435   6.113   6.422   0.332
 8498TIP3    H225436   6.242   6.402   0.409
 8499TIP3   OH225437   6.708   3.866   4.443
 8499TIP3    H125438   6.720   3.861   4.348
 8499TIP3    H225439   6.654   3.790   4.465
 8500TIP3   OH225440   0.770   6.767   3.509
 8500TIP3    H125441   0.812   6.836   3.458
 8500TIP3    H225442   0.709   6.814   3.567
 8501TIP3   OH225443   4.713   7.229   2.822
 8501TIP3    H125444   4.707   7.316   2.862
 8501TIP3    H225445   4.626   7.215   2.783
 8502TIP3   OH225446   1.727   3.865   5.171
 8502TIP3    H125447   1.687   3.779   5.157
 8502TIP3    H225448   1.716   3.881   5.265
 8503TIP3   OH225449   4.128   7.606   1.627
 8503TIP3    H125450   4.059   7.628   1.565
 8503TIP3    H225451   4.082   7.561   1.699
 8504TIP3   OH225452   1.572   6.565   0.410
 8504TIP3    H125453   1.492   6.617   0.397
 8504TIP3    H225454   1.629   6.622   0.462
 8505TIP3   OH225455   4.314   4.032   1.704
 8505TIP3    H125456   4.332   3.979   1.781
 8505TIP3    H225457   4.400   4.064   1.676
 8506TIP3   OH225458   6.706   6.178   2.642
 8506TIP3    H125459   6.727   6.212   2.555
 8506TIP3    H225460   6.769   6.221   2.700
 8507TIP3   OH225461   6.856   1.102   6.648
 8507TIP3    H125462   6.875   1.134   6.736
 8507TIP3    H225463   6.783   1.157   6.617
 8508TIP3   OH225464   6.563   2.478   5.324
 8508TIP3    H125465   6.471   2.454   5.327
 8508TIP3    H225466   6.572   2.548   5.389
 8509TIP3   OH225467   1.985   2.827   2.536
 8509TIP3    H125468   1.907   2.780   2.505
 8509TIP3    H225469   2.020   2.871   2.459
 8510TIP3   OH225470   0.105   0.299   3.885
 8510TIP3    H125471   0.063   0.373   3.929
 8510TIP3    H225472   0.085   0.312   3.792
 8511TIP3   OH225473   4.876   4.302   0.166
 8511TIP3    H125474   4.947   4.262   0.116
 8511TIP3    H225475   4.898   4.395   0.168
 8512TIP3   OH225476   8.391   7.879   0.636
 8512TIP3    H125477   8.383   7.808   0.573
 8512TIP3    H225478   8.330   7.855   0.706
 8513TIP3   OH225479   0.012   1.586   2.019
 8513TIP3    H125480   0.059   1.531   1.957
 8513TIP3    H225481   0.073   1.658   2.037
 8514TIP3   OH225482   5.424   4.689   5.983
 8514TIP3    H125483   5.418   4.782   6.006
 8514TIP3    H225484   5.382   4.644   6.056
 8515TIP3   OH225485   6.803   4.884   4.603
 8515TIP3    H125486   6.736   4.937   4.646
 8515TIP3    H225487   6.759   4.801   4.585
 8516TIP3   OH225488   2.690   5.839   3.661
 8516TIP3    H125489   2.650   5.913   3.615
 8516TIP3    H225490   2.633   5.824   3.736
 8517TIP3   OH225491   3.635   3.796   0.574
 8517TIP3    H125492   3.668   3.862   0.635
 8517TIP3    H225493   3.591   3.846   0.506
 8518TIP3   OH225494   7.812   4.558   2.608
 8518TIP3    H125495   7.768   4.556   2.693
 8518TIP3    H225496   7.829   4.466   2.588
 8519TIP3   OH225497   1.487   6.206   1.533
 8519TIP3    H125498   1.418   6.271   1.549
 8519TIP3    H225499   1.460   6.130   1.585
 8520TIP3   OH225500   5.666   7.349   2.089
 8520TIP3    H125501   5.760   7.355   2.106
 8520TIP3    H225502   5.657   7.273   2.032
 8521TIP3   OH225503   2.887   7.153   6.144
 8521TIP3    H125504   2.794   7.155   6.164
 8521TIP3    H225505   2.892   7.176   6.051
 8522TIP3   OH225506   2.961   5.344   1.048
 8522TIP3    H125507   2.898   5.365   0.980
 8522TIP3    H225508   3.029   5.293   1.003
 8523TIP3   OH225509   1.974   3.678   5.924
 8523TIP3    H125510   1.938   3.640   6.004
 8523TIP3    H225511   1.959   3.772   5.933
 8524TIP3   OH225512   0.570   3.243   4.879
 8524TIP3    H125513   0.618   3.323   4.859
 8524TIP3    H225514   0.520   3.263   4.958
 8525TIP3   OH225515   6.222   6.763   4.190
 8525TIP3    H125516   6.152   6.729   4.246
 8525TIP3    H225517   6.297   6.705   4.207
 8526TIP3   OH225518   0.969   1.227   1.667
 8526TIP3    H125519   0.884   1.257   1.637
 8526TIP3    H225520   1.018   1.209   1.586
 8527TIP3   OH225521   6.667   3.122   5.132
 8527TIP3    H125522   6.729   3.097   5.063
 8527TIP3    H225523   6.636   3.039   5.167
 8528TIP3   OH225524   7.479   7.120   2.474
 8528TIP3    H125525   7.500   7.042   2.525
 8528TIP3    H225526   7.421   7.089   2.405
 8529TIP3   OH225527   2.289   3.073   4.967
 8529TIP3    H125528   2.329   3.134   5.028
 8529TIP3    H225529   2.338   2.991   4.979
 8530TIP3   OH225530   5.391   3.770   5.580
 8530TIP3    H125531   5.430   3.828   5.515
 8530TIP3    H225532   5.319   3.728   5.534
 8531TIP3   OH225533   4.071   3.095   0.802
 8531TIP3    H125534   3.999   3.052   0.756
 8531TIP3    H225535   4.049   3.087   0.895
 8532TIP3   OH225536   6.215   2.887   1.075
 8532TIP3    H125537   6.162   2.810   1.095
 8532TIP3    H225538   6.257   2.866   0.991
 8533TIP3   OH225539   6.545   2.584   3.180
 8533TIP3    H125540   6.455   2.597   3.210
 8533TIP3    H225541   6.536   2.556   3.089
 8534TIP3   OH225542   3.805   4.087   5.196
 8534TIP3    H125543   3.851   4.122   5.119
 8534TIP3    H225544   3.852   4.006   5.217
 8535TIP3   OH225545   1.135   1.862   1.869
 8535TIP3    H125546   1.226   1.834   1.857
 8535TIP3    H225547   1.141   1.954   1.894
 8536TIP3   OH225548   2.147   7.550   4.761
 8536TIP3    H125549   2.235   7.531   4.794
 8536TIP3    H225550   2.143   7.506   4.676
 8537TIP3   OH225551   6.182   1.622   6.688
 8537TIP3    H125552   6.124   1.551   6.715
 8537TIP3    H225553   6.241   1.634   6.763
 8538TIP3   OH225554   6.641   1.767   1.466
 8538TIP3    H125555   6.657   1.700   1.533
 8538TIP3    H225556   6.622   1.717   1.387
 8539TIP3   OH225557   4.206   5.417   3.509
 8539TIP3    H125558   4.281   5.437   3.452
 8539TIP3    H225559   4.166   5.502   3.525
 8540TIP3   OH225560   2.221   7.284   3.688
 8540TIP3    H125561   2.127   7.294   3.679
 8540TIP3    H225562   2.252   7.260   3.601
 8541TIP3   OH225563   4.276   3.904   3.284
 8541TIP3    H125564   4.182   3.891   3.281
 8541TIP3    H225565   4.313   3.822   3.250
 8542TIP3   OH225566   5.558   1.700   1.800
 8542TIP3    H125567   5.522   1.703   1.711
 8542TIP3    H225568   5.559   1.792   1.828
 8543TIP3   OH225569   0.727   0.810   3.983
 8543TIP3    H125570   0.689   0.750   3.919
 8543TIP3    H225571   0.819   0.816   3.958
 8544TIP3   OH225572   3.920   2.395   6.308
 8544TIP3    H125573   3.871   2.320   6.344
 8544TIP3    H225574   3.998   2.356   6.268
 8545TIP3   OH225575   5.047   1.283   1.927
 8545TIP3    H125576   5.126   1.271   1.875
 8545TIP3    H225577   4.994   1.205   1.909
 8546TIP3   OH225578   6.404   0.149   4.723
 8546TIP3    H125579   6.468   0.080   4.742
 8546TIP3    H225580   6.455   0.230   4.729
 8547TIP3   OH225581   1.257   1.192   2.925
 8547TIP3    H125582   1.167   1.171   2.953
 8547TIP3    H225583   1.312   1.134   2.978
 8548TIP3   OH225584   3.771   1.809   3.239
 8548TIP3    H125585   3.830   1.752   3.289
 8548TIP3    H225586   3.740   1.873   3.303
 8549TIP3   OH225587   6.537   1.027   6.474
 8549TIP3    H125588   6.526   1.108   6.523
 8549TIP3    H225589   6.604   0.978   6.523
 8550TIP3   OH225590   2.048   5.999   2.745
 8550TIP3    H125591   2.002   6.056   2.806
 8550TIP3    H225592   2.125   6.050   2.717
 8551TIP3   OH225593   3.185   3.922   0.207
 8551TIP3    H125594   3.199   3.965   0.291
 8551TIP3    H225595   3.261   3.945   0.154
 8552TIP3   OH225596   3.077   6.619   4.650
 8552TIP3    H125597   3.076   6.597   4.743
 8552TIP3    H225598   3.144   6.562   4.612
 8553TIP3   OH225599   0.190   0.483   1.931
 8553TIP3    H125600   0.182   0.473   1.837
 8553TIP3    H225601   0.145   0.406   1.967
 8554TIP3   OH225602   1.673   1.799   0.909
 8554TIP3    H125603   1.759   1.759   0.903
 8554TIP3    H225604   1.626   1.768   0.831
 8555TIP3   OH225605   7.391   0.829   0.120
 8555TIP3    H125606   7.425   0.866   0.201
 8555TIP3    H225607   7.327   0.763   0.149
 8556TIP3   OH225608   1.749   2.503   1.027
 8556TIP3    H125609   1.811   2.573   1.047
 8556TIP3    H225610   1.686   2.543   0.966
 8557TIP3   OH225611   6.614   3.909   3.801
 8557TIP3    H125612   6.645   3.948   3.882
 8557TIP3    H225613   6.686   3.920   3.739
 8558TIP3   OH225614   5.301   7.447   5.079
 8558TIP3    H125615   5.391   7.418   5.067
 8558TIP3    H225616   5.264   7.385   5.142
 8559TIP3   OH225617   4.350   6.111   4.415
 8559TIP3    H125618   4.358   6.202   4.385
 8559TIP3    H225619   4.440   6.084   4.433
 8560TIP3   OH225620   0.634   3.144   0.543
 8560TIP3    H125621   0.611   3.236   0.528
 8560TIP3    H225622   0.623   3.102   0.458
 8561TIP3   OH225623   4.987   1.540   5.955
 8561TIP3    H125624   4.964   1.492   6.035
 8561TIP3    H225625   4.939   1.623   5.962
 8562TIP3   OH225626   2.748   1.702   3.767
 8562TIP3    H125627   2.837   1.686   3.736
 8562TIP3    H225628   2.755   1.777   3.825
 8563TIP3   OH225629   4.378   6.877   2.524
 8563TIP3    H125630   4.298   6.860   2.573
 8563TIP3    H225631   4.422   6.792   2.521
 8564TIP3   OH225632   7.270   6.121   5.277
 8564TIP3    H125633   7.285   6.122   5.371
 8564TIP3    H225634   7.180   6.152   5.267
 8565TIP3   OH225635   7.675   2.114   5.914
 8565TIP3    H125636   7.605   2.093   5.852
 8565TIP3    H225637   7.673   2.042   5.977
 8566TIP3   OH225638   5.074   6.025   2.860
 8566TIP3    H125639   5.108   5.963   2.796
 8566TIP3    H225640   5.082   6.110   2.819
 8567TIP3   OH225641   1.960   1.771   2.766
 8567TIP3    H125642   1.992   1.838   2.706
 8567TIP3    H225643   2.007   1.691   2.740
 8568TIP3   OH225644   1.492   3.602   2.697
 8568TIP3    H125645   1.461   3.579   2.610
 8568TIP3    H225646   1.463   3.692   2.710
 8569TIP3   OH225647   1.323   4.321   2.530
 8569TIP3    H125648   1.324   4.290   2.620
 8569TIP3    H225649   1.400   4.282   2.490
 8570TIP3   OH225650   3.831   5.498   3.572
 8570TIP3    H125651   3.858   5.488   3.663
 8570TIP3    H225652   3.754   5.555   3.577
 8571TIP3   OH225653   8.007   7.054   4.490
 8571TIP3    H125654   8.049   7.130   4.448
 8571TIP3    H225655   8.071   6.984   4.482
 8572TIP3   OH225656   1.206   6.782   0.926
 8572TIP3    H125657   1.229   6.705   0.875
 8572TIP3    H225658   1.290   6.814   0.959
 8573TIP3   OH225659   4.214   5.811   5.378
 8573TIP3    H125660   4.150   5.750   5.341
 8573TIP3    H225661   4.269   5.757   5.435
 8574TIP3   OH225662   5.727   3.420   5.155
 8574TIP3    H125663   5.822   3.410   5.142
 8574TIP3    H225664   5.700   3.483   5.089
 8575TIP3   OH225665   0.976   0.289   0.073
 8575TIP3    H125666   0.909   0.253   0.015
 8575TIP3    H225667   0.974   0.232   0.150
 8576TIP3   OH225668   5.422   2.904   2.265
 8576TIP3    H125669   5.337   2.935   2.296
 8576TIP3    H225670   5.410   2.891   2.171
 8577TIP3   OH225671   3.174   1.013   2.703
 8577TIP3    H125672   3.244   1.003   2.639
 8577TIP3    H225673   3.117   1.081   2.666
 8578TIP3   OH225674   4.408   6.617   2.434
 8578TIP3    H125675   4.360   6.549   2.483
 8578TIP3    H225676   4.495   6.581   2.423
 8579TIP3   OH225677   5.500   3.555   4.195
 8579TIP3    H125678   5.594   3.572   4.187
 8579TIP3    H225679   5.462   3.598   4.119
 8580TIP3   OH225680   1.854   2.696   3.667
 8580TIP3    H125681   1.787   2.755   3.699
 8580TIP3    H225682   1.863   2.630   3.736
 8581TIP3   OH225683   4.629   7.793   1.090
 8581TIP3    H125684   4.569   7.821   1.160
 8581TIP3    H225685   4.633   7.698   1.099
 8582TIP3   OH225686   7.194   5.687   0.898
 8582TIP3    H125687   7.199   5.670   0.992
 8582TIP3    H225688   7.156   5.608   0.861
 8583TIP3   OH225689   4.350   2.703   0.087
 8583TIP3    H125690   4.305   2.619   0.084
 8583TIP3    H225691   4.318   2.744   0.167
 8584TIP3   OH225692   6.602   0.107   1.212
 8584TIP3    H125693   6.625   0.106   1.305
 8584TIP3    H225694   6.686   0.108   1.166
 8585TIP3   OH225695   1.011   0.213   3.433
 8585TIP3    H125696   1.105   0.227   3.427
 8585TIP3    H225697   0.973   0.297   3.405
 8586TIP3   OH225698   6.852   7.064   6.260
 8586TIP3    H125699   6.849   7.112   6.176
 8586TIP3    H225700   6.939   7.082   6.295
 8587TIP3   OH225701   3.500   6.394   4.689
 8587TIP3    H125702   3.510   6.437   4.774
 8587TIP3    H225703   3.568   6.327   4.689
 8588TIP3   OH225704   0.622   7.002   6.863
 8588TIP3    H125705   0.606   7.049   6.782
 8588TIP3    H225706   0.589   7.060   6.932
 8589TIP3   OH225707   0.351   2.538   3.393
 8589TIP3    H125708   0.264   2.557   3.429
 8589TIP3    H225709   0.362   2.603   3.324
 8590TIP3   OH225710   8.172   7.297   0.623
 8590TIP3    H125711   8.211   7.214   0.649
 8590TIP3    H225712   8.107   7.275   0.558
 8591TIP3   OH225713   7.093   7.721   1.790
 8591TIP3    H125714   7.177   7.706   1.833
 8591TIP3    H225715   7.049   7.635   1.793
 8592TIP3   OH225716   1.541   0.811   1.237
 8592TIP3    H125717   1.628   0.772   1.223
 8592TIP3    H225718   1.515   0.781   1.324
 8593TIP3   OH225719   1.108   1.610   4.626
 8593TIP3    H125720   1.051   1.589   4.552
 8593TIP3    H225721   1.075   1.556   4.698
 8594TIP3   OH225722   4.881   0.377   3.885
 8594TIP3    H125723   4.954   0.366   3.945
 8594TIP3    H225724   4.863   0.289   3.852
 8595TIP3   OH225725   6.928   3.990   6.403
 8595TIP3    H125726   6.863   4.027   6.462
 8595TIP3    H225727   6.888   3.909   6.372
 8596TIP3   OH225728   0.391   2.143   5.011
 8596TIP3    H125729   0.379   2.100   5.096
 8596TIP3    H225730   0.453   2.087   4.964
 8597TIP3   OH225731   1.571   6.327   3.550
 8597TIP3    H125732   1.650   6.288   3.587
 8597TIP3    H225733   1.513   6.253   3.534
 8598TIP3   OH225734   4.252   1.767   4.469
 8598TIP3    H125735   4.272   1.839   4.529
 8598TIP3    H225736   4.335   1.722   4.456
 8599TIP3   OH225737   4.996   3.849   2.161
 8599TIP3    H125738   4.925   3.791   2.134
 8599TIP3    H225739   5.076   3.802   2.136
 8600TIP3   OH225740   1.213   3.661   3.039
 8600TIP3    H125741   1.233   3.586   2.983
 8600TIP3    H225742   1.231   3.629   3.128
 8601TIP3   OH225743   1.410   1.203   2.690
 8601TIP3    H125744   1.341   1.184   2.626
 8601TIP3    H225745   1.375   1.170   2.773
 8602TIP3   OH225746   7.184   0.448   0.684
 8602TIP3    H125747   7.117   0.514   0.698
 8602TIP3    H225748   7.138   0.365   0.693
 8603TIP3   OH225749   3.305   1.207   2.116
 8603TIP3    H125750   3.237   1.200   2.050
 8603TIP3    H225751   3.328   1.117   2.137
 8604TIP3   OH225752   4.929   5.956   5.504
 8604TIP3    H125753   4.897   5.961   5.414
 8604TIP3    H225754   4.876   6.020   5.553
 8605TIP3   OH225755   7.666   4.422   5.802
 8605TIP3    H125756   7.676   4.331   5.832
 8605TIP3    H225757   7.664   4.473   5.883
 8606TIP3   OH225758   4.407   1.988   0.422
 8606TIP3    H125759   4.446   1.928   0.486
 8606TIP3    H225760   4.389   2.067   0.472
 8607TIP3   OH225761   3.170   1.494   3.866
 8607TIP3    H125762   3.140   1.582   3.844
 8607TIP3    H225763   3.264   1.496   3.847
 8608TIP3   OH225764   0.179   7.165   6.763
 8608TIP3    H125765   0.241   7.142   6.694
 8608TIP3    H225766   0.147   7.080   6.796
 8609TIP3   OH225767   4.191   3.908   0.981
 8609TIP3    H125768   4.127   3.836   0.976
 8609TIP3    H225769   4.259   3.885   0.918
 8610TIP3   OH225770   2.164   7.628   2.255
 8610TIP3    H125771   2.210   7.685   2.194
 8610TIP3    H225772   2.199   7.541   2.239
 8611TIP3   OH225773   7.356   3.391   1.006
 8611TIP3    H125774   7.428   3.332   1.029
 8611TIP3    H225775   7.348   3.449   1.082
 8612TIP3   OH225776   1.602   4.378   5.286
 8612TIP3    H125777   1.563   4.297   5.319
 8612TIP3    H225778   1.537   4.413   5.225
 8613TIP3   OH225779   6.563   0.810   0.658
 8613TIP3    H125780   6.552   0.748   0.586
 8613TIP3    H225781   6.618   0.764   0.721
 8614TIP3   OH225782   2.390   7.068   4.796
 8614TIP3    H125783   2.463   7.029   4.845
 8614TIP3    H225784   2.433   7.123   4.730
 8615TIP3   OH225785   3.374   0.152   5.073
 8615TIP3    H125786   3.413   0.224   5.121
 8615TIP3    H225787   3.280   0.162   5.085
 8616TIP3   OH225788   4.641   6.790   1.551
 8616TIP3    H125789   4.548   6.772   1.543
 8616TIP3    H225790   4.657   6.793   1.645
 8617TIP3   OH225791   5.640   1.355   6.756
 8617TIP3    H125792   5.645   1.268   6.795
 8617TIP3    H225793   5.572   1.348   6.690
 8618TIP3   OH225794   1.318   2.067   1.963
 8618TIP3    H125795   1.395   2.071   1.906
 8618TIP3    H225796   1.293   2.158   1.976
 8619TIP3   OH225797   0.079   6.637   3.714
 8619TIP3    H125798  -0.012   6.621   3.688
 8619TIP3    H225799   0.076   6.717   3.766
 8620TIP3   OH225800   3.762   4.433   3.115
 8620TIP3    H125801   3.801   4.356   3.074
 8620TIP3    H225802   3.835   4.495   3.123
 8621TIP3   OH225803   7.597   1.291   6.789
 8621TIP3    H125804   7.608   1.258   6.700
 8621TIP3    H225805   7.662   1.243   6.840
 8622TIP3   OH225806   4.050   7.051   6.307
 8622TIP3    H125807   4.013   7.123   6.359
 8622TIP3    H225808   4.112   7.094   6.247
 8623TIP3   OH225809   0.040   3.984   4.838
 8623TIP3    H125810   0.129   3.981   4.805
 8623TIP3    H225811   0.043   3.930   4.918
 8624TIP3   OH225812   1.373   2.906   5.598
 8624TIP3    H125813   1.444   2.960   5.630
 8624TIP3    H225814   1.299   2.927   5.655
 8625TIP3   OH225815   1.851   1.041   3.197
 8625TIP3    H125816   1.870   1.085   3.114
 8625TIP3    H225817   1.787   0.974   3.174
 8626TIP3   OH225818   0.680   1.379   5.085
 8626TIP3    H125819   0.650   1.408   4.999
 8626TIP3    H225820   0.770   1.411   5.091
 8627TIP3   OH225821   7.107   2.850   4.974
 8627TIP3    H125822   7.175   2.806   4.922
 8627TIP3    H225823   7.149   2.930   5.006
 8628TIP3   OH225824   1.750   7.757   3.383
 8628TIP3    H125825   1.726   7.683   3.328
 8628TIP3    H225826   1.793   7.718   3.459
 8629TIP3   OH225827   2.279   7.675   6.528
 8629TIP3    H125828   2.278   7.767   6.551
 8629TIP3    H225829   2.247   7.673   6.437
 8630TIP3   OH225830   2.431   4.235   0.490
 8630TIP3    H125831   2.497   4.300   0.467
 8630TIP3    H225832   2.424   4.240   0.585
 8631TIP3   OH225833   4.641   0.987   6.628
 8631TIP3    H125834   4.638   1.083   6.627
 8631TIP3    H225835   4.557   0.961   6.667
 8632TIP3   OH225836   3.544   1.514   0.142
 8632TIP3    H125837   3.527   1.568   0.219
 8632TIP3    H225838   3.595   1.440   0.175
 8633TIP3   OH225839   5.620   5.152   3.732
 8633TIP3    H125840   5.536   5.134   3.773
 8633TIP3    H225841   5.636   5.076   3.676
 8634TIP3   OH225842   3.562   4.676   5.579
 8634TIP3    H125843   3.503   4.617   5.626
 8634TIP3    H225844   3.508   4.711   5.509
 8635TIP3   OH225845   1.292   7.732   4.914
 8635TIP3    H125846   1.201   7.705   4.928
 8635TIP3    H225847   1.288   7.789   4.836
 8636TIP3   OH225848   7.571   3.427   5.628
 8636TIP3    H125849   7.499   3.395   5.683
 8636TIP3    H225850   7.561   3.380   5.546
 8637TIP3   OH225851   0.402   7.472   0.835
 8637TIP3    H125852   0.492   7.438   0.843
 8637TIP3    H225853   0.413   7.564   0.814
 8638TIP3   OH225854   6.839   1.743   3.956
 8638TIP3    H125855   6.934   1.731   3.956
 8638TIP3    H225856   6.807   1.687   3.885
 8639TIP3   OH225857   6.167   5.620   4.124
 8639TIP3    H125858   6.169   5.704   4.171
 8639TIP3    H225859   6.074   5.597   4.120
 8640TIP3   OH225860   7.631   6.349   2.939
 8640TIP3    H125861   7.598   6.371   2.852
 8640TIP3    H225862   7.719   6.314   2.923
 8641TIP3   OH225863   0.919   3.320   3.354
 8641TIP3    H125864   0.857   3.247   3.346
 8641TIP3    H225865   0.872   3.395   3.318
 8642TIP3   OH225866   1.987   1.122   1.323
 8642TIP3    H125867   1.975   1.045   1.268
 8642TIP3    H225868   2.080   1.123   1.344
 8643TIP3   OH225869   1.859   2.482   2.336
 8643TIP3    H125870   1.863   2.531   2.254
 8643TIP3    H225871   1.948   2.449   2.348
 8644TIP3   OH225872   3.213   2.699   3.483
 8644TIP3    H125873   3.156   2.749   3.540
 8644TIP3    H225874   3.189   2.608   3.498
 8645TIP3   OH225875   2.357   2.725   4.099
 8645TIP3    H125876   2.397   2.643   4.071
 8645TIP3    H225877   2.422   2.766   4.156
 8646TIP3   OH225878   7.685   1.606   2.227
 8646TIP3    H125879   7.608   1.623   2.281
 8646TIP3    H225880   7.724   1.527   2.265
 8647TIP3   OH225881   5.163   4.584   2.695
 8647TIP3    H125882   5.253   4.556   2.709
 8647TIP3    H225883   5.133   4.531   2.621
 8648TIP3   OH225884   4.423   6.730   5.253
 8648TIP3    H125885   4.333   6.715   5.223
 8648TIP3    H225886   4.418   6.727   5.349
 8649TIP3   OH225887   0.815   7.915   5.522
 8649TIP3    H125888   0.745   7.955   5.574
 8649TIP3    H225889   0.799   7.821   5.531
 8650TIP3   OH225890   5.989   7.608   3.907
 8650TIP3    H125891   6.056   7.668   3.942
 8650TIP3    H225892   5.925   7.665   3.866
 8651TIP3   OH225893   2.103   1.445   0.639
 8651TIP3    H125894   2.162   1.510   0.677
 8651TIP3    H225895   2.119   1.450   0.545
 8652TIP3   OH225896   8.206   3.620   4.162
 8652TIP3    H125897   8.279   3.668   4.204
 8652TIP3    H225898   8.224   3.528   4.180
 8653TIP3   OH225899   0.563   4.373   6.046
 8653TIP3    H125900   0.548   4.303   6.110
 8653TIP3    H225901   0.656   4.366   6.024
 8654TIP3   OH225902   5.133   3.334   2.341
 8654TIP3    H125903   5.188   3.316   2.265
 8654TIP3    H225904   5.061   3.388   2.306
 8655TIP3   OH225905   1.294   5.453   5.449
 8655TIP3    H125906   1.372   5.422   5.404
 8655TIP3    H225907   1.261   5.376   5.495
 8656TIP3   OH225908   1.293   0.427   6.446
 8656TIP3    H125909   1.377   0.380   6.449
 8656TIP3    H225910   1.228   0.358   6.437
 8657TIP3   OH225911   4.668   4.077   2.827
 8657TIP3    H125912   4.757   4.076   2.793
 8657TIP3    H225913   4.665   4.004   2.890
 8658TIP3   OH225914   7.148   3.627   6.600
 8658TIP3    H125915   7.116   3.584   6.520
 8658TIP3    H225916   7.161   3.718   6.575
 8659TIP3   OH225917   4.004   0.374   4.813
 8659TIP3    H125918   4.024   0.319   4.888
 8659TIP3    H225919   4.004   0.314   4.738
 8660TIP3   OH225920   3.229   6.303   0.062
 8660TIP3    H125921   3.165   6.346   0.006
 8660TIP3    H225922   3.198   6.212   0.067
 8661TIP3   OH225923   2.185   2.819   3.178
 8661TIP3    H125924   2.207   2.910   3.159
 8661TIP3    H225925   2.202   2.810   3.272
 8662TIP3   OH225926   1.135   5.543   0.186
 8662TIP3    H125927   1.171   5.608   0.246
 8662TIP3    H225928   1.151   5.459   0.229
 8663TIP3   OH225929   7.299   0.979   3.956
 8663TIP3    H125930   7.311   1.044   4.025
 8663TIP3    H225931   7.292   0.895   4.002
 8664TIP3   OH225932   3.212   2.090   6.654
 8664TIP3    H125933   3.238   2.130   6.571
 8664TIP3    H225934   3.295   2.074   6.699
 8665TIP3   OH225935   5.271   3.740   2.450
 8665TIP3    H125936   5.187   3.775   2.421
 8665TIP3    H225937   5.254   3.646   2.463
 8666TIP3   OH225938   0.712   6.658   1.940
 8666TIP3    H125939   0.767   6.592   1.982
 8666TIP3    H225940   0.643   6.676   2.004
 8667TIP3   OH225941   2.499   2.877   0.367
 8667TIP3    H125942   2.544   2.804   0.326
 8667TIP3    H225943   2.439   2.910   0.300
 8668TIP3   OH225944   8.385   1.702   4.238
 8668TIP3    H125945   8.366   1.625   4.185
 8668TIP3    H225946   8.435   1.669   4.312
 8669TIP3   OH225947   5.577   3.322   1.037
 8669TIP3    H125948   5.541   3.386   0.977
 8669TIP3    H225949   5.605   3.372   1.113
 8670TIP3   OH225950   0.183   2.430   6.809
 8670TIP3    H125951   0.178   2.339   6.781
 8670TIP3    H225952   0.093   2.454   6.832
 8671TIP3   OH225953   7.932   1.310   5.475
 8671TIP3    H125954   7.848   1.304   5.431
 8671TIP3    H225955   7.917   1.368   5.549
 8672TIP3   OH225956   1.369   2.254   6.766
 8672TIP3    H125957   1.364   2.186   6.833
 8672TIP3    H225958   1.282   2.256   6.726
 8673TIP3   OH225959   2.054   5.647   3.996
 8673TIP3    H125960   2.091   5.593   3.927
 8673TIP3    H225961   1.970   5.676   3.961
 8674TIP3   OH225962   6.163   1.143   0.820
 8674TIP3    H125963   6.204   1.228   0.805
 8674TIP3    H225964   6.221   1.081   0.776
 8675TIP3   OH225965   6.504   6.592   3.984
 8675TIP3    H125966   6.527   6.618   4.074
 8675TIP3    H225967   6.556   6.513   3.968
 8676TIP3   OH225968   4.108   7.289   0.379
 8676TIP3    H125969   4.179   7.349   0.355
 8676TIP3    H225970   4.081   7.317   0.467
 8677TIP3   OH225971   1.684   4.050   5.622
 8677TIP3    H125972   1.597   4.087   5.606
 8677TIP3    H225973   1.668   3.957   5.639
 8678TIP3   OH225974   4.528   0.124   2.424
 8678TIP3    H125975   4.526   0.170   2.340
 8678TIP3    H225976   4.619   0.127   2.451
 8679TIP3   OH225977   0.702   1.218   1.077
 8679TIP3    H125978   0.781   1.166   1.064
 8679TIP3    H225979   0.637   1.177   1.021
 8680TIP3   OH225980   1.630   5.118   6.778
 8680TIP3    H125981   1.669   5.186   6.723
 8680TIP3    H225982   1.564   5.077   6.723
 8681TIP3   OH225983   6.342   1.717   4.640
 8681TIP3    H125984   6.300   1.731   4.555
 8681TIP3    H225985   6.269   1.704   4.701
 8682TIP3   OH225986   7.617   5.764   2.797
 8682TIP3    H125987   7.670   5.725   2.867
 8682TIP3    H225988   7.656   5.730   2.716
 8683TIP3   OH225989   4.991   7.473   2.484
 8683TIP3    H125990   4.934   7.493   2.410
 8683TIP3    H225991   5.067   7.429   2.445
 8684TIP3   OH225992   6.843   2.152   2.916
 8684TIP3    H125993   6.751   2.149   2.942
 8684TIP3    H225994   6.888   2.190   2.992
 8685TIP3   OH225995   7.452   3.589   4.076
 8685TIP3    H125996   7.476   3.612   4.166
 8685TIP3    H225997   7.492   3.658   4.023
 8686TIP3   OH225998   6.846   4.211   2.376
 8686TIP3    H125999   6.761   4.172   2.358
 8686TIP3    H226000   6.849   4.218   2.472
 8687TIP3   OH226001   3.664   4.751   2.929
 8687TIP3    H126002   3.624   4.729   3.013
 8687TIP3    H226003   3.608   4.711   2.863
 8688TIP3   OH226004   5.783   0.223   5.522
 8688TIP3    H126005   5.727   0.299   5.536
 8688TIP3    H226006   5.871   0.260   5.515
 8689TIP3   OH226007   6.912   6.254   5.722
 8689TIP3    H126008   6.899   6.273   5.629
 8689TIP3    H226009   6.840   6.299   5.766
 8690TIP3   OH226010   4.783   7.448   1.646
 8690TIP3    H126011   4.825   7.498   1.717
 8690TIP3    H226012   4.852   7.438   1.580
 8691TIP3   OH226013   4.017   3.202   1.073
 8691TIP3    H126014   3.981   3.217   1.160
 8691TIP3    H226015   3.969   3.261   1.016
 8692TIP3   OH226016   2.016   3.149   5.132
 8692TIP3    H126017   2.084   3.127   5.195
 8692TIP3    H226018   2.058   3.213   5.074
 8693TIP3   OH226019   6.177   5.632   1.137
 8693TIP3    H126020   6.198   5.710   1.188
 8693TIP3    H226021   6.081   5.630   1.134
 8694TIP3   OH226022   3.650   2.648   0.598
 8694TIP3    H126023   3.620   2.558   0.590
 8694TIP3    H226024   3.744   2.641   0.615
 8695TIP3   OH226025   5.374   7.410   4.391
 8695TIP3    H126026   5.459   7.391   4.352
 8695TIP3    H226027   5.315   7.422   4.316
 8696TIP3   OH226028   3.865   1.639   6.570
 8696TIP3    H126029   3.879   1.585   6.492
 8696TIP3    H226030   3.931   1.708   6.563
 8697TIP3   OH226031   4.964   1.116   2.260
 8697TIP3    H126032   5.050   1.110   2.219
 8697TIP3    H226033   4.912   1.048   2.219
 8698TIP3   OH226034   2.379   2.433   5.544
 8698TIP3    H126035   2.288   2.418   5.518
 8698TIP3    H226036   2.389   2.528   5.543
 8699TIP3   OH226037   4.943   0.686   2.076
 8699TIP3    H126038   4.928   0.714   1.986
 8699TIP3    H226039   4.857   0.664   2.110
 8700TIP3   OH226040   3.034   2.305   0.654
 8700TIP3    H126041   2.954   2.252   0.657
 8700TIP3    H226042   3.057   2.318   0.746
 8701TIP3   OH226043   8.055   4.168   1.195
 8701TIP3    H126044   7.964   4.192   1.179
 8701TIP3    H226045   8.066   4.083   1.152
 8702TIP3   OH226046   4.949   1.718   4.026
 8702TIP3    H126047   4.928   1.683   3.940
 8702TIP3    H226048   5.022   1.664   4.057
 8703TIP3   OH226049   6.447   2.247   4.811
 8703TIP3    H126050   6.441   2.209   4.723
 8703TIP3    H226051   6.517   2.197   4.854
 8704TIP3   OH226052   5.564   3.194   0.615
 8704TIP3    H126053   5.486   3.161   0.570
 8704TIP3    H226054   5.617   3.233   0.545
 8705TIP3   OH226055   1.019   5.299   1.103
 8705TIP3    H126056   0.927   5.284   1.128
 8705TIP3    H226057   1.016   5.312   1.008
 8706TIP3   OH226058   7.973   1.825   1.823
 8706TIP3    H126059   8.064   1.806   1.842
 8706TIP3    H226060   7.924   1.765   1.880
 8707TIP3   OH226061   8.202   5.632   5.713
 8707TIP3    H126062   8.122   5.665   5.671
 8707TIP3    H226063   8.174   5.610   5.802
 8708TIP3   OH226064   7.340   3.670   2.898
 8708TIP3    H126065   7.345   3.763   2.877
 8708TIP3    H226066   7.411   3.656   2.960
 8709TIP3   OH226067   4.127   1.500   6.579
 8709TIP3    H126068   4.185   1.569   6.611
 8709TIP3    H226069   4.101   1.451   6.657
 8710TIP3   OH226070   1.676   3.264   2.809
 8710TIP3    H126071   1.738   3.207   2.853
 8710TIP3    H226072   1.592   3.249   2.853
 8711TIP3   OH226073   2.446   2.538   2.793
 8711TIP3    H126074   2.462   2.444   2.795
 8711TIP3    H226075   2.352   2.547   2.811
 8712TIP3   OH226076   0.974   1.735   2.835
 8712TIP3    H126077   1.049   1.793   2.849
 8712TIP3    H226078   0.967   1.685   2.916
 8713TIP3   OH226079   6.536   3.117   6.122
 8713TIP3    H126080   6.485   3.196   6.139
 8713TIP3    H226081   6.625   3.140   6.147
 8714TIP3   OH226082   7.061   1.492   0.173
 8714TIP3    H126083   7.069   1.503   0.268
 8714TIP3    H226084   7.114   1.562   0.136
 8715TIP3   OH226085   3.755   2.482   3.766
 8715TIP3    H126086   3.746   2.530   3.849
 8715TIP3    H226087   3.665   2.474   3.734
 8716TIP3   OH226088   4.118   1.881   3.360
 8716TIP3    H126089   4.188   1.936   3.397
 8716TIP3    H226090   4.077   1.841   3.437
 8717TIP3   OH226091   4.941   0.964   0.408
 8717TIP3    H126092   4.909   0.941   0.496
 8717TIP3    H226093   5.016   1.021   0.424
 8718TIP3   OH226094   0.200   6.037   5.126
 8718TIP3    H126095   0.240   6.040   5.039
 8718TIP3    H226096   0.173   5.946   5.136
 8719TIP3   OH226097   6.346   0.057   1.278
 8719TIP3    H126098   6.437   0.072   1.253
 8719TIP3    H226099   6.294   0.101   1.211
 8720TIP3   OH226100   5.950   5.540   0.256
 8720TIP3    H126101   5.958   5.624   0.210
 8720TIP3    H226102   6.002   5.552   0.335
 8721TIP3   OH226103   6.736   2.806   6.243
 8721TIP3    H126104   6.818   2.853   6.226
 8721TIP3    H226105   6.751   2.718   6.209
 8722TIP3   OH226106   2.457   4.265   2.138
 8722TIP3    H126107   2.494   4.289   2.054
 8722TIP3    H226108   2.452   4.170   2.136
 8723TIP3   OH226109   5.455   0.856   0.070
 8723TIP3    H126110   5.425   0.854  -0.020
 8723TIP3    H226111   5.543   0.894   0.065
 8724TIP3   OH226112   2.071   4.722   6.821
 8724TIP3    H126113   1.995   4.737   6.765
 8724TIP3    H226114   2.130   4.794   6.800
 8725TIP3   OH226115   2.556   0.340   4.913
 8725TIP3    H126116   2.470   0.368   4.945
 8725TIP3    H226117   2.560   0.247   4.932
 8726TIP3   OH226118   3.555   1.812   6.149
 8726TIP3    H126119   3.599   1.845   6.070
 8726TIP3    H226120   3.513   1.890   6.187
 8727TIP3   OH226121   3.176   5.178   3.743
 8727TIP3    H126122   3.262   5.197   3.782
 8727TIP3    H226123   3.116   5.237   3.788
 8728TIP3   OH226124   3.897   1.234   0.695
 8728TIP3    H126125   3.886   1.175   0.770
 8728TIP3    H226126   3.829   1.206   0.633
 8729TIP3   OH226127   8.087   4.234   5.207
 8729TIP3    H126128   8.034   4.219   5.129
 8729TIP3    H226129   8.088   4.329   5.218
 8730TIP3   OH226130   4.590   6.355   0.440
 8730TIP3    H126131   4.631   6.270   0.456
 8730TIP3    H226132   4.658   6.419   0.463
 8731TIP3   OH226133   5.100   4.170   6.598
 8731TIP3    H126134   5.020   4.122   6.618
 8731TIP3    H226135   5.071   4.244   6.545
 8732TIP3   OH226136   0.380   2.012   1.789
 8732TIP3    H126137   0.400   1.920   1.803
 8732TIP3    H226138   0.289   2.013   1.759
 8733TIP3   OH226139   3.127   3.710   0.577
 8733TIP3    H126140   3.176   3.628   0.574
 8733TIP3    H226141   3.181   3.772   0.527
 8734TIP3   OH226142   2.841   5.109   6.508
 8734TIP3    H126143   2.919   5.164   6.497
 8734TIP3    H226144   2.803   5.136   6.591
 8735TIP3   OH226145   2.921   2.247   0.069
 8735TIP3    H126146   2.988   2.191   0.030
 8735TIP3    H226147   2.846   2.189   0.082
 8736TIP3   OH226148   4.456   1.617   4.378
 8736TIP3    H126149   4.549   1.628   4.361
 8736TIP3    H226150   4.423   1.570   4.301
 8737TIP3   OH226151   0.915   5.570   5.374
 8737TIP3    H126152   1.009   5.567   5.388
 8737TIP3    H226153   0.884   5.642   5.428
 8738TIP3   OH226154   3.813   4.347   6.160
 8738TIP3    H126155   3.786   4.328   6.070
 8738TIP3    H226156   3.813   4.262   6.204
 8739TIP3   OH226157   2.548   0.234   0.848
 8739TIP3    H126158   2.612   0.171   0.883
 8739TIP3    H226159   2.531   0.294   0.922
 8740TIP3   OH226160   3.143   0.086   1.944
 8740TIP3    H126161   3.047   0.094   1.949
 8740TIP3    H226162   3.175   0.168   1.981
 8741TIP3   OH226163   4.742   1.192   0.431
 8741TIP3    H126164   4.803   1.130   0.471
 8741TIP3    H226165   4.673   1.138   0.394
 8742TIP3   OH226166   3.668   3.520   6.045
 8742TIP3    H126167   3.700   3.479   6.126
 8742TIP3    H226168   3.728   3.488   5.978
 8743TIP3   OH226169   5.493   2.406   2.734
 8743TIP3    H126170   5.499   2.501   2.723
 8743TIP3    H226171   5.520   2.390   2.824
 8744TIP3   OH226172   3.120   0.653   1.763
 8744TIP3    H126173   3.029   0.659   1.794
 8744TIP3    H226174   3.113   0.646   1.668
 8745TIP3   OH226175   2.200   0.844   5.274
 8745TIP3    H126176   2.155   0.839   5.190
 8745TIP3    H226177   2.177   0.763   5.319
 8746TIP3   OH226178   8.048   2.165   1.863
 8746TIP3    H126179   8.059   2.213   1.781
 8746TIP3    H226180   7.962   2.191   1.895
 8747TIP3   OH226181   4.429   6.865   4.531
 8747TIP3    H126182   4.384   6.939   4.572
 8747TIP3    H226183   4.433   6.889   4.438
 8748TIP3   OH226184   1.785   1.350   3.136
 8748TIP3    H126185   1.799   1.277   3.076
 8748TIP3    H226186   1.695   1.377   3.120
 8749TIP3   OH226187   3.907   2.459   1.214
 8749TIP3    H126188   3.919   2.373   1.172
 8749TIP3    H226189   3.953   2.452   1.297
 8750TIP3   OH226190   2.448   5.362   0.290
 8750TIP3    H126191   2.410   5.358   0.377
 8750TIP3    H226192   2.376   5.392   0.234
 8751TIP3   OH226193   6.310   1.309   2.496
 8751TIP3    H126194   6.323   1.235   2.437
 8751TIP3    H226195   6.251   1.368   2.449
 8752TIP3   OH226196   3.247   5.710   1.744
 8752TIP3    H126197   3.249   5.615   1.744
 8752TIP3    H226198   3.155   5.732   1.727
 8753TIP3   OH226199   5.009   5.200   0.357
 8753TIP3    H126200   4.989   5.290   0.382
 8753TIP3    H226201   5.014   5.152   0.440
 8754TIP3   OH226202   4.219   4.972   5.076
 8754TIP3    H126203   4.258   4.963   4.989
 8754TIP3    H226204   4.273   4.917   5.132
 8755TIP3   OH226205   7.417   0.755   0.385
 8755TIP3    H126206   7.381   0.810   0.454
 8755TIP3    H226207   7.397   0.665   0.413
 8756TIP3   OH226208   1.902   2.325   0.860
 8756TIP3    H126209   1.863   2.385   0.923
 8756TIP3    H226210   1.851   2.244   0.869
 8757TIP3   OH226211   6.267   2.461   6.622
 8757TIP3    H126212   6.322   2.438   6.547
 8757TIP3    H226213   6.300   2.547   6.649
 8758TIP3   OH226214   0.380   1.758   3.356
 8758TIP3    H126215   0.464   1.792   3.326
 8758TIP3    H226216   0.333   1.835   3.388
 8759TIP3   OH226217   7.186   3.489   2.132
 8759TIP3    H126218   7.267   3.539   2.140
 8759TIP3    H226219   7.166   3.461   2.222
 8760TIP3   OH226220   6.503   6.234   1.975
 8760TIP3    H126221   6.530   6.147   1.946
 8760TIP3    H226222   6.528   6.292   1.903
 8761TIP3   OH226223   2.917   5.294   5.337
 8761TIP3    H126224   2.905   5.274   5.430
 8761TIP3    H226225   2.923   5.208   5.295
 8762TIP3   OH226226   5.232   4.825   2.382
 8762TIP3    H126227   5.315   4.832   2.429
 8762TIP3    H226228   5.256   4.804   2.292
 8763TIP3   OH226229   7.543   0.741   5.576
 8763TIP3    H126230   7.553   0.818   5.633
 8763TIP3    H226231   7.615   0.683   5.602
 8764TIP3   OH226232   2.032   4.964   5.676
 8764TIP3    H126233   1.983   4.884   5.661
 8764TIP3    H226234   2.027   5.011   5.593
 8765TIP3   OH226235   0.799   0.704   5.939
 8765TIP3    H126236   0.758   0.667   6.018
 8765TIP3    H226237   0.774   0.643   5.869
 8766TIP3   OH226238   6.175   1.174   3.489
 8766TIP3    H126239   6.106   1.213   3.436
 8766TIP3    H226240   6.159   1.080   3.484
 8767TIP3   OH226241   0.048   1.820   3.303
 8767TIP3    H126242   0.020   1.823   3.394
 8767TIP3    H226243  -0.013   1.759   3.261
 8768TIP3   OH226244   6.615   6.751   2.171
 8768TIP3    H126245   6.645   6.794   2.091
 8768TIP3    H226246   6.546   6.691   2.142
 8769TIP3   OH226247   6.284   5.531   0.860
 8769TIP3    H126248   6.268   5.580   0.941
 8769TIP3    H226249   6.354   5.581   0.816
 8770TIP3   OH226250   3.451   0.671   4.569
 8770TIP3    H126251   3.459   0.766   4.583
 8770TIP3    H226252   3.366   0.660   4.527
 8771TIP3   OH226253   1.274   1.461   1.277
 8771TIP3    H126254   1.353   1.433   1.231
 8771TIP3    H226255   1.306   1.507   1.355
 8772TIP3   OH226256   3.468   2.532   0.341
 8772TIP3    H126257   3.415   2.470   0.391
 8772TIP3    H226258   3.406   2.570   0.278
 8773TIP3   OH226259   1.899   7.072   0.424
 8773TIP3    H126260   1.961   7.111   0.363
 8773TIP3    H226261   1.932   7.096   0.511
 8774TIP3   OH226262   7.692   4.780   3.523
 8774TIP3    H126263   7.631   4.802   3.452
 8774TIP3    H226264   7.644   4.803   3.603
 8775TIP3   OH226265   1.470   6.051   5.491
 8775TIP3    H126266   1.550   5.998   5.485
 8775TIP3    H226267   1.486   6.127   5.436
 8776TIP3   OH226268   6.196   1.389   4.556
 8776TIP3    H126269   6.290   1.393   4.537
 8776TIP3    H226270   6.155   1.430   4.480
 8777TIP3   OH226271   2.712   2.206   2.188
 8777TIP3    H126272   2.705   2.223   2.094
 8777TIP3    H226273   2.805   2.189   2.202
 8778TIP3   OH226274   0.424   4.550   3.285
 8778TIP3    H126275   0.419   4.610   3.359
 8778TIP3    H226276   0.433   4.463   3.325
 8779TIP3   OH226277   1.162   1.427   2.840
 8779TIP3    H126278   1.219   1.351   2.832
 8779TIP3    H226279   1.189   1.484   2.768
 8780TIP3   OH226280   2.237   6.339   2.764
 8780TIP3    H126281   2.164   6.299   2.813
 8780TIP3    H226282   2.315   6.301   2.804
 8781TIP3   OH226283   5.678   5.469   3.964
 8781TIP3    H126284   5.683   5.430   3.877
 8781TIP3    H226285   5.607   5.421   4.007
 8782TIP3   OH226286   3.158   1.433   0.596
 8782TIP3    H126287   3.068   1.464   0.606
 8782TIP3    H226288   3.190   1.420   0.686
 8783TIP3   OH226289   3.412   2.974   6.004
 8783TIP3    H126290   3.372   3.049   5.959
 8783TIP3    H226291   3.451   3.011   6.083
 8784TIP3   OH226292   5.489   0.727   5.150
 8784TIP3    H126293   5.552   0.793   5.121
 8784TIP3    H226294   5.404   0.766   5.131
 8785TIP3   OH226295   2.782   5.320   1.309
 8785TIP3    H126296   2.867   5.331   1.353
 8785TIP3    H226297   2.805   5.313   1.216
 8786TIP3   OH226298   2.950   2.144   2.960
 8786TIP3    H126299   3.026   2.087   2.968
 8786TIP3    H226300   2.933   2.175   3.048
 8787TIP3   OH226301   0.419   2.633   4.893
 8787TIP3    H126302   0.514   2.636   4.877
 8787TIP3    H226303   0.409   2.570   4.965
 8788TIP3   OH226304   4.600   7.833   5.486
 8788TIP3    H126305   4.548   7.758   5.454
 8788TIP3    H226306   4.657   7.795   5.553
 8789TIP3   OH226307   3.623   6.518   1.371
 8789TIP3    H126308   3.601   6.547   1.282
 8789TIP3    H226309   3.606   6.594   1.426
 8790TIP3   OH226310   6.262   0.946   5.712
 8790TIP3    H126311   6.306   0.887   5.773
 8790TIP3    H226312   6.272   0.904   5.626
 8791TIP3   OH226313   0.760   4.987   6.580
 8791TIP3    H126314   0.787   4.946   6.499
 8791TIP3    H226315   0.828   4.965   6.643
 8792TIP3   OH226316   1.338   4.734   4.354
 8792TIP3    H126317   1.310   4.779   4.274
 8792TIP3    H226318   1.383   4.802   4.405
 8793TIP3   OH226319   2.413   5.002   2.066
 8793TIP3    H126320   2.318   5.002   2.072
 8793TIP3    H226321   2.437   4.911   2.052
 8794TIP3   OH226322   1.612   2.362   1.235
 8794TIP3    H126323   1.665   2.402   1.167
 8794TIP3    H226324   1.544   2.314   1.188
 8795TIP3   OH226325   3.600   4.145   1.294
 8795TIP3    H126326   3.695   4.142   1.287
 8795TIP3    H226327   3.581   4.111   1.382
 8796TIP3   OH226328   1.243   5.869   4.794
 8796TIP3    H126329   1.305   5.812   4.749
 8796TIP3    H226330   1.244   5.838   4.885
 8797TIP3   OH226331   7.710   2.777   0.417
 8797TIP3    H126332   7.693   2.715   0.346
 8797TIP3    H226333   7.679   2.861   0.383
 8798TIP3   OH226334   6.635   2.161   6.405
 8798TIP3    H126335   6.611   2.103   6.477
 8798TIP3    H226336   6.630   2.106   6.327
 8799TIP3   OH226337   3.967   4.851   3.861
 8799TIP3    H126338   3.930   4.847   3.773
 8799TIP3    H226339   3.903   4.806   3.916
 8800TIP3   OH226340   2.285   6.499   1.449
 8800TIP3    H126341   2.232   6.423   1.473
 8800TIP3    H226342   2.268   6.512   1.356
 8801TIP3   OH226343   6.069   6.470   3.991
 8801TIP3    H126344   6.143   6.437   4.042
 8801TIP3    H226345   5.997   6.411   4.014
 8802TIP3   OH226346   7.986   0.901   0.754
 8802TIP3    H126347   7.979   0.913   0.849
 8802TIP3    H226348   8.017   0.985   0.721
 8803TIP3   OH226349   7.749   7.336   4.335
 8803TIP3    H126350   7.775   7.264   4.278
 8803TIP3    H226351   7.807   7.408   4.310
 8804TIP3   OH226352   3.307   0.302   2.708
 8804TIP3    H126353   3.246   0.376   2.709
 8804TIP3    H226354   3.393   0.343   2.699
 8805TIP3   OH226355   8.105   4.809   5.252
 8805TIP3    H126356   8.183   4.797   5.306
 8805TIP3    H226357   8.066   4.890   5.284
 8806TIP3   OH226358   5.439   5.342   5.363
 8806TIP3    H126359   5.472   5.310   5.279
 8806TIP3    H226360   5.499   5.412   5.388
 8807TIP3   OH226361   0.720   2.285   3.078
 8807TIP3    H126362   0.678   2.258   3.160
 8807TIP3    H226363   0.813   2.273   3.093
 8808TIP3   OH226364   2.133   1.476   2.449
 8808TIP3    H126365   2.079   1.523   2.385
 8808TIP3    H226366   2.078   1.404   2.480
 8809TIP3   OH226367   5.603   2.824   0.548
 8809TIP3    H126368   5.609   2.879   0.470
 8809TIP3    H226369   5.633   2.738   0.519
 8810TIP3   OH226370   8.243   7.483   0.163
 8810TIP3    H126371   8.331   7.467   0.130
 8810TIP3    H226372   8.189   7.416   0.121
 8811TIP3   OH226373   6.292   6.504   5.946
 8811TIP3    H126374   6.336   6.419   5.951
 8811TIP3    H226375   6.219   6.490   5.886
 8812TIP3   OH226376   1.904   2.303   0.361
 8812TIP3    H126377   1.853   2.224   0.376
 8812TIP3    H226378   1.840   2.374   0.363
 8813TIP3   OH226379   5.889   5.110   0.819
 8813TIP3    H126380   5.831   5.173   0.775
 8813TIP3    H226381   5.967   5.106   0.764
 8814TIP3   OH226382   1.424   3.743   0.718
 8814TIP3    H126383   1.380   3.703   0.643
 8814TIP3    H226384   1.467   3.670   0.763
 8815TIP3   OH226385   1.066   7.450   3.676
 8815TIP3    H126386   0.987   7.471   3.725
 8815TIP3    H226387   1.042   7.373   3.624
 8816TIP3   OH226388   2.579   1.659   6.197
 8816TIP3    H126389   2.602   1.688   6.109
 8816TIP3    H226390   2.559   1.566   6.187
 8817TIP3   OH226391   2.747   7.188   3.482
 8817TIP3    H126392   2.709   7.101   3.494
 8817TIP3    H226393   2.674   7.248   3.496
 8818TIP3   OH226394   0.026   6.571   4.632
 8818TIP3    H126395   0.094   6.546   4.570
 8818TIP3    H226396   0.045   6.662   4.653
 8819TIP3   OH226397   0.654   2.011   6.625
 8819TIP3    H126398   0.695   2.087   6.582
 8819TIP3    H226399   0.581   1.987   6.568
 8820TIP3   OH226400   2.631   5.780   3.924
 8820TIP3    H126401   2.701   5.794   3.988
 8820TIP3    H226402   2.562   5.736   3.973
 8821TIP3   OH226403   3.683   5.497   6.477
 8821TIP3    H126404   3.703   5.436   6.548
 8821TIP3    H226405   3.589   5.516   6.487
 8822TIP3   OH226406   5.650   5.181   1.636
 8822TIP3    H126407   5.681   5.210   1.722
 8822TIP3    H226408   5.584   5.114   1.656
 8823TIP3   OH226409   5.108   7.410   0.393
 8823TIP3    H126410   5.028   7.359   0.384
 8823TIP3    H226411   5.079   7.501   0.395
 8824TIP3   OH226412   2.961   7.143   0.294
 8824TIP3    H126413   2.970   7.191   0.376
 8824TIP3    H226414   2.991   7.054   0.315
 8825TIP3   OH226415   6.166   3.766   6.674
 8825TIP3    H126416   6.126   3.750   6.589
 8825TIP3    H226417   6.221   3.689   6.690
 8826TIP3   OH226418   4.743   6.074   0.098
 8826TIP3    H126419   4.669   6.133   0.112
 8826TIP3    H226420   4.705   5.986   0.106
 8827TIP3   OH226421   2.856   2.672   0.144
 8827TIP3    H126422   2.925   2.690   0.081
 8827TIP3    H226423   2.817   2.589   0.115
 8828TIP3   OH226424   6.763   6.127   0.978
 8828TIP3    H126425   6.726   6.213   0.960
 8828TIP3    H226426   6.800   6.099   0.894
 8829TIP3   OH226427   5.866   1.834   3.169
 8829TIP3    H126428   5.833   1.762   3.223
 8829TIP3    H226429   5.823   1.824   3.085
 8830TIP3   OH226430   7.129   0.645   5.219
 8830TIP3    H126431   7.112   0.733   5.186
 8830TIP3    H226432   7.202   0.655   5.280
 8831TIP3   OH226433   2.987   7.548   6.748
 8831TIP3    H126434   2.907   7.497   6.760
 8831TIP3    H226435   2.972   7.629   6.797
 8832TIP3   OH226436   6.672   4.632   5.585
 8832TIP3    H126437   6.756   4.606   5.546
 8832TIP3    H226438   6.697   4.692   5.656
 8833TIP3   OH226439   0.366   6.289   4.787
 8833TIP3    H126440   0.455   6.286   4.753
 8833TIP3    H226441   0.349   6.201   4.821
 8834TIP3   OH226442   3.509   3.265   6.622
 8834TIP3    H126443   3.474   3.289   6.707
 8834TIP3    H226444   3.557   3.183   6.638
 8835TIP3   OH226445   3.479   6.470   2.011
 8835TIP3    H126446   3.404   6.450   1.955
 8835TIP3    H226447   3.553   6.426   1.970
 8836TIP3   OH226448   7.760   2.825   1.087
 8836TIP3    H126449   7.782   2.814   1.179
 8836TIP3    H226450   7.845   2.828   1.042
 8837TIP3   OH226451   5.826   6.448   3.377
 8837TIP3    H126452   5.863   6.388   3.313
 8837TIP3    H226453   5.731   6.442   3.364
 8838TIP3   OH226454   3.205   0.679   4.985
 8838TIP3    H126455   3.165   0.634   4.910
 8838TIP3    H226456   3.222   0.610   5.049
 8839TIP3   OH226457   4.756   2.348   4.989
 8839TIP3    H126458   4.718   2.261   5.002
 8839TIP3    H226459   4.715   2.380   4.909
 8840TIP3   OH226460   3.950   6.811   6.216
 8840TIP3    H126461   3.946   6.747   6.287
 8840TIP3    H226462   3.974   6.893   6.260
 8841TIP3   OH226463   2.756   7.010   0.693
 8841TIP3    H126464   2.805   6.932   0.669
 8841TIP3    H226465   2.768   7.017   0.788
 8842TIP3   OH226466   2.571   6.443   5.512
 8842TIP3    H126467   2.626   6.490   5.449
 8842TIP3    H226468   2.530   6.512   5.564
 8843TIP3   OH226469   6.971   2.566   0.019
 8843TIP3    H126470   7.055   2.596   0.054
 8843TIP3    H226471   6.914   2.643   0.024
 8844TIP3   OH226472   7.640   7.606   6.050
 8844TIP3    H126473   7.552   7.590   6.084
 8844TIP3    H226474   7.698   7.593   6.125
 8845TIP3   OH226475   7.140   3.179   0.264
 8845TIP3    H126476   7.125   3.222   0.349
 8845TIP3    H226477   7.053   3.150   0.236
 8846TIP3   OH226478   7.226   4.568   0.555
 8846TIP3    H126479   7.314   4.598   0.533
 8846TIP3    H226480   7.239   4.483   0.597
 8847TIP3   OH226481   3.968   7.611   3.046
 8847TIP3    H126482   4.050   7.642   3.009
 8847TIP3    H226483   3.941   7.540   2.987
 8848TIP3   OH226484   8.309   0.066   2.144
 8848TIP3    H126485   8.357  -0.013   2.120
 8848TIP3    H226486   8.236   0.070   2.082
 8849TIP3   OH226487   3.462   1.122   5.603
 8849TIP3    H126488   3.473   1.172   5.684
 8849TIP3    H226489   3.473   1.188   5.533
 8850TIP3   OH226490   1.579   5.566   5.750
 8850TIP3    H126491   1.582   5.658   5.777
 8850TIP3    H226492   1.655   5.526   5.792
 8851TIP3   OH226493   3.050   0.393   5.049
 8851TIP3    H126494   3.138   0.404   5.085
 8851TIP3    H226495   2.993   0.437   5.113
 8852TIP3   OH226496   1.983   1.054   0.806
 8852TIP3    H126497   1.961   1.011   0.888
 8852TIP3    H226498   1.900   1.060   0.759
 8853TIP3   OH226499   0.341   1.071   5.059
 8853TIP3    H126500   0.416   1.104   5.009
 8853TIP3    H226501   0.270   1.131   5.037
 8854TIP3   OH226502   7.634   0.513   6.213
 8854TIP3    H126503   7.641   0.510   6.118
 8854TIP3    H226504   7.540   0.513   6.231
 8855TIP3   OH226505   6.496   5.016   1.848
 8855TIP3    H126506   6.429   5.020   1.779
 8855TIP3    H226507   6.450   5.044   1.927
 8856TIP3   OH226508   1.366   6.702   0.296
 8856TIP3    H126509   1.305   6.654   0.239
 8856TIP3    H226510   1.354   6.794   0.271
 8857TIP3   OH226511   1.290   3.230   4.424
 8857TIP3    H126512   1.311   3.161   4.361
 8857TIP3    H226513   1.195   3.237   4.421
 8858TIP3   OH226514   1.709   2.615   4.900
 8858TIP3    H126515   1.712   2.522   4.925
 8858TIP3    H226516   1.620   2.629   4.869
 8859TIP3   OH226517   1.301   1.698   0.015
 8859TIP3    H126518   1.273   1.670  -0.072
 8859TIP3    H226519   1.303   1.618   0.067
 8860TIP3   OH226520   4.332   2.900   0.309
 8860TIP3    H126521   4.409   2.911   0.253
 8860TIP3    H226522   4.338   2.972   0.372
 8861TIP3   OH226523   3.290   1.709   6.129
 8861TIP3    H126524   3.386   1.718   6.134
 8861TIP3    H226525   3.263   1.689   6.218
 8862TIP3   OH226526   8.178   6.382   6.447
 8862TIP3    H126527   8.195   6.469   6.411
 8862TIP3    H226528   8.245   6.327   6.409
 8863TIP3   OH226529   2.788   5.903   4.889
 8863TIP3    H126530   2.744   5.827   4.928
 8863TIP3    H226531   2.749   5.978   4.934
 8864TIP3   OH226532   4.730   1.856   5.687
 8864TIP3    H126533   4.740   1.894   5.600
 8864TIP3    H226534   4.765   1.923   5.746
 8865TIP3   OH226535   5.705   0.977   0.067
 8865TIP3    H126536   5.737   1.023   0.144
 8865TIP3    H226537   5.747   1.021  -0.007
 8866TIP3   OH226538   8.343   1.248   5.999
 8866TIP3    H126539   8.336   1.172   6.057
 8866TIP3    H226540   8.277   1.232   5.931
 8867TIP3   OH226541   6.819   7.659   0.958
 8867TIP3    H126542   6.841   7.566   0.955
 8867TIP3    H226543   6.904   7.704   0.954
 8868TIP3   OH226544   8.169   1.637   5.282
 8868TIP3    H126545   8.125   1.631   5.198
 8868TIP3    H226546   8.226   1.714   5.274
 8869TIP3   OH226547   0.335   4.591   2.564
 8869TIP3    H126548   0.379   4.663   2.608
 8869TIP3    H226549   0.254   4.578   2.613
 8870TIP3   OH226550   3.669   1.223   0.997
 8870TIP3    H126551   3.584   1.255   1.027
 8870TIP3    H226552   3.649   1.156   0.932
 8871TIP3   OH226553   8.348   3.761   3.764
 8871TIP3    H126554   8.415   3.696   3.743
 8871TIP3    H226555   8.274   3.709   3.795
 8872TIP3   OH226556   2.134   4.951   4.630
 8872TIP3    H126557   2.163   4.892   4.699
 8872TIP3    H226558   2.142   5.039   4.668
 8873TIP3   OH226559   5.056   6.187   6.830
 8873TIP3    H126560   4.990   6.221   6.891
 8873TIP3    H226561   5.022   6.209   6.744
 8874TIP3   OH226562   1.542   1.140   5.904
 8874TIP3    H126563   1.621   1.163   5.953
 8874TIP3    H226564   1.573   1.079   5.837
 8875TIP3   OH226565   0.172   7.221   3.224
 8875TIP3    H126566   0.114   7.167   3.170
 8875TIP3    H226567   0.128   7.306   3.227
 8876TIP3   OH226568   6.417   1.106   2.352
 8876TIP3    H126569   6.509   1.084   2.341
 8876TIP3    H226570   6.374   1.022   2.370
 8877TIP3   OH226571   0.611   3.001   4.356
 8877TIP3    H126572   0.666   2.924   4.366
 8877TIP3    H226573   0.659   3.071   4.400
 8878TIP3   OH226574   0.451   6.660   2.082
 8878TIP3    H126575   0.395   6.737   2.081
 8878TIP3    H226576   0.390   6.586   2.085
 8879TIP3   OH226577   5.764   1.737   1.020
 8879TIP3    H126578   5.803   1.683   0.951
 8879TIP3    H226579   5.797   1.699   1.102
 8880TIP3   OH226580   6.839   1.719   4.505
 8880TIP3    H126581   6.751   1.758   4.511
 8880TIP3    H226582   6.824   1.625   4.512
 8881TIP3   OH226583   1.768   7.529   1.706
 8881TIP3    H126584   1.723   7.505   1.625
 8881TIP3    H226585   1.828   7.599   1.680
 8882TIP3   OH226586   2.238   7.113   0.392
 8882TIP3    H126587   2.178   7.152   0.329
 8882TIP3    H226588   2.302   7.181   0.410
 8883TIP3   OH226589   1.913   7.652   0.483
 8883TIP3    H126590   1.915   7.646   0.388
 8883TIP3    H226591   1.849   7.720   0.502
 8884TIP3   OH226592   3.610   5.650   4.461
 8884TIP3    H126593   3.583   5.741   4.446
 8884TIP3    H226594   3.683   5.657   4.522
 8885TIP3   OH226595   6.313   5.072   2.535
 8885TIP3    H126596   6.239   5.075   2.595
 8885TIP3    H226597   6.332   4.978   2.526
 8886TIP3   OH226598   0.731   2.476   2.819
 8886TIP3    H126599   0.803   2.426   2.858
 8886TIP3    H226600   0.684   2.413   2.765
 8887TIP3   OH226601   1.763   4.755   5.997
 8887TIP3    H126602   1.698   4.818   5.966
 8887TIP3    H226603   1.847   4.799   5.982
 8888TIP3   OH226604   2.658   7.130   0.258
 8888TIP3    H126605   2.632   7.150   0.169
 8888TIP3    H226606   2.753   7.118   0.254
 8889TIP3   OH226607   1.598   2.685   2.969
 8889TIP3    H126608   1.675   2.628   2.963
 8889TIP3    H226609   1.635   2.774   2.971
 8890TIP3   OH226610   7.568   0.494   0.953
 8890TIP3    H126611   7.584   0.545   0.873
 8890TIP3    H226612   7.562   0.560   1.022
 8891TIP3   OH226613   3.310   0.433   1.772
 8891TIP3    H126614   3.303   0.397   1.860
 8891TIP3    H226615   3.238   0.496   1.767
 8892TIP3   OH226616   5.076   0.331   6.738
 8892TIP3    H126617   5.061   0.412   6.690
 8892TIP3    H226618   5.162   0.342   6.778
 8893TIP3   OH226619   5.493   0.716   2.352
 8893TIP3    H126620   5.541   0.650   2.300
 8893TIP3    H226621   5.477   0.672   2.436
 8894TIP3   OH226622   3.035   0.017   0.097
 8894TIP3    H126623   3.006  -0.063   0.054
 8894TIP3    H226624   3.108   0.048   0.043
 8895TIP3   OH226625   3.547   7.467   2.188
 8895TIP3    H126626   3.575   7.380   2.158
 8895TIP3    H226627   3.467   7.450   2.237
 8896TIP3   OH226628   5.295   6.765   3.157
 8896TIP3    H126629   5.320   6.676   3.182
 8896TIP3    H226630   5.372   6.818   3.178
 8897TIP3   OH226631   7.008   6.296   3.643
 8897TIP3    H126632   7.009   6.375   3.589
 8897TIP3    H226633   7.100   6.277   3.660
 8898TIP3   OH226634   0.839   5.237   3.130
 8898TIP3    H126635   0.752   5.242   3.089
 8898TIP3    H226636   0.900   5.248   3.057
 8899TIP3   OH226637   0.264   3.332   4.008
 8899TIP3    H126638   0.328   3.371   4.068
 8899TIP3    H226639   0.302   3.247   3.986
 8900TIP3   OH226640   6.236   2.359   5.665
 8900TIP3    H126641   6.210   2.402   5.584
 8900TIP3    H226642   6.175   2.393   5.731
 8901TIP3   OH226643   3.771   2.521   1.921
 8901TIP3    H126644   3.737   2.526   1.831
 8901TIP3    H226645   3.835   2.592   1.926
 8902TIP3   OH226646   6.719   5.015   2.870
 8902TIP3    H126647   6.698   5.108   2.883
 8902TIP3    H226648   6.653   4.968   2.920
 8903TIP3   OH226649   5.123   7.626   5.257
 8903TIP3    H126650   5.107   7.533   5.274
 8903TIP3    H226651   5.056   7.650   5.193
 8904TIP3   OH226652   3.946   1.943   1.059
 8904TIP3    H126653   3.910   1.943   1.147
 8904TIP3    H226654   3.870   1.932   1.002
 8905TIP3   OH226655   3.859   3.933   5.642
 8905TIP3    H126656   3.810   3.961   5.719
 8905TIP3    H226657   3.805   3.961   5.568
 8906TIP3   OH226658   8.245   3.042   4.172
 8906TIP3    H126659   8.275   2.982   4.104
 8906TIP3    H226660   8.319   3.051   4.231
 8907TIP3   OH226661   2.287   1.369   4.478
 8907TIP3    H126662   2.333   1.290   4.450
 8907TIP3    H226663   2.313   1.436   4.415
 8908TIP3   OH226664   5.064   6.775   3.532
 8908TIP3    H126665   5.156   6.764   3.508
 8908TIP3    H226666   5.053   6.870   3.540
 8909TIP3   OH226667   4.396   4.731   3.266
 8909TIP3    H126668   4.428   4.702   3.181
 8909TIP3    H226669   4.392   4.827   3.258
 8910TIP3   OH226670   1.821   1.050   6.567
 8910TIP3    H126671   1.783   1.130   6.602
 8910TIP3    H226672   1.901   1.037   6.617
 8911TIP3   OH226673   0.604   1.547   1.943
 8911TIP3    H126674   0.545   1.508   2.008
 8911TIP3    H226675   0.634   1.628   1.983
 8912TIP3   OH226676  -0.004   0.378   6.824
 8912TIP3    H126677  -0.061   0.410   6.754
 8912TIP3    H226678   0.084   0.381   6.787
 8913TIP3   OH226679   1.953   6.960   5.560
 8913TIP3    H126680   2.000   6.933   5.481
 8913TIP3    H226681   1.862   6.937   5.542
 8914TIP3   OH226682   1.149   2.992   5.719
 8914TIP3    H126683   1.091   2.968   5.647
 8914TIP3    H226684   1.102   3.062   5.765
 8915TIP3   OH226685   5.037   4.530   0.113
 8915TIP3    H126686   5.123   4.492   0.098
 8915TIP3    H226687   5.020   4.583   0.036
 8916TIP3   OH226688   1.916   1.547   2.274
 8916TIP3    H126689   1.895   1.477   2.336
 8916TIP3    H226690   1.906   1.506   2.188
 8917TIP3   OH226691   3.482   3.351   3.876
 8917TIP3    H126692   3.556   3.305   3.836
 8917TIP3    H226693   3.456   3.416   3.810
 8918TIP3   OH226694   5.220   3.861   1.542
 8918TIP3    H126695   5.299   3.882   1.493
 8918TIP3    H226696   5.191   3.777   1.506
 8919TIP3   OH226697   4.580   7.762   6.603
 8919TIP3    H126698   4.615   7.675   6.622
 8919TIP3    H226699   4.537   7.789   6.684
 8920TIP3   OH226700   6.286   2.796   3.855
 8920TIP3    H126701   6.331   2.853   3.917
 8920TIP3    H226702   6.341   2.797   3.777
 8921TIP3   OH226703   3.585   3.426   0.256
 8921TIP3    H126704   3.517   3.460   0.197
 8921TIP3    H226705   3.632   3.503   0.287
 8922TIP3   OH226706   5.441   6.972   5.168
 8922TIP3    H126707   5.524   7.016   5.187
 8922TIP3    H226708   5.406   7.019   5.092
 8923TIP3   OH226709   7.467   5.713   4.695
 8923TIP3    H126710   7.535   5.655   4.661
 8923TIP3    H226711   7.464   5.695   4.789
 8924TIP3   OH226712   4.322   2.258   3.283
 8924TIP3    H126713   4.375   2.223   3.211
 8924TIP3    H226714   4.232   2.240   3.258
 8925TIP3   OH226715   4.448   6.926   1.717
 8925TIP3    H126716   4.392   6.856   1.751
 8925TIP3    H226717   4.481   6.971   1.795
 8926TIP3   OH226718   8.159   3.615   3.036
 8926TIP3    H126719   8.223   3.587   2.971
 8926TIP3    H226720   8.074   3.602   2.994
 8927TIP3   OH226721   1.227   3.576   5.453
 8927TIP3    H126722   1.199   3.493   5.415
 8927TIP3    H226723   1.184   3.579   5.538
 8928TIP3   OH226724   4.849   3.637   5.741
 8928TIP3    H126725   4.834   3.553   5.784
 8928TIP3    H226726   4.820   3.624   5.651
 8929TIP3   OH226727   8.106   0.106   0.724
 8929TIP3    H126728   8.139   0.195   0.739
 8929TIP3    H226729   8.155   0.053   0.787
 8930TIP3   OH226730   3.145   4.101   3.838
 8930TIP3    H126731   3.149   4.197   3.842
 8930TIP3    H226732   3.051   4.081   3.838
 8931TIP3   OH226733   4.282   5.245   1.983
 8931TIP3    H126734   4.308   5.292   1.904
 8931TIP3    H226735   4.233   5.309   2.034
 8932TIP3   OH226736   6.559   7.115   5.803
 8932TIP3    H126737   6.578   7.021   5.807
 8932TIP3    H226738   6.493   7.122   5.734
 8933TIP3   OH226739   3.255   7.425   6.299
 8933TIP3    H126740   3.265   7.502   6.355
 8933TIP3    H226741   3.226   7.460   6.215
 8934TIP3   OH226742   3.000   3.239   2.663
 8934TIP3    H126743   2.982   3.152   2.700
 8934TIP3    H226744   2.924   3.292   2.688
 8935TIP3   OH226745   1.030   2.108   1.986
 8935TIP3    H126746   0.986   2.126   2.070
 8935TIP3    H226747   0.969   2.141   1.920
 8936TIP3   OH226748   0.141   6.029   0.777
 8936TIP3    H126749   0.103   5.950   0.739
 8936TIP3    H226750   0.189   6.070   0.706
 8937TIP3   OH226751   7.708   1.094   2.346
 8937TIP3    H126752   7.659   1.012   2.338
 8937TIP3    H226753   7.651   1.160   2.307
 8938TIP3   OH226754   7.638   6.304   4.467
 8938TIP3    H126755   7.579   6.269   4.400
 8938TIP3    H226756   7.588   6.374   4.509
 8939TIP3   OH226757   1.200   3.732   2.708
 8939TIP3    H126758   1.136   3.771   2.649
 8939TIP3    H226759   1.158   3.652   2.740
 8940TIP3   OH226760   6.098   6.850   3.784
 8940TIP3    H126761   6.026   6.814   3.836
 8940TIP3    H226762   6.174   6.796   3.808
 8941TIP3   OH226763   5.759   2.495   0.130
 8941TIP3    H126764   5.699   2.427   0.100
 8941TIP3    H226765   5.825   2.449   0.181
 8942TIP3   OH226766   5.425   3.966   3.752
 8942TIP3    H126767   5.429   3.899   3.684
 8942TIP3    H226768   5.456   4.046   3.710
 8943TIP3   OH226769   2.929   5.918   2.202
 8943TIP3    H126770   2.877   5.875   2.133
 8943TIP3    H226771   2.985   5.848   2.237
 8944TIP3   OH226772   3.618   0.161   1.784
 8944TIP3    H126773   3.690   0.219   1.809
 8944TIP3    H226774   3.555   0.218   1.740
 8945TIP3   OH226775   7.840   6.473   6.390
 8945TIP3    H126776   7.885   6.513   6.315
 8945TIP3    H226777   7.866   6.527   6.465
 8946TIP3   OH226778   2.246   6.199   1.937
 8946TIP3    H126779   2.179   6.266   1.926
 8946TIP3    H226780   2.275   6.178   1.848
 8947TIP3   OH226781   1.156   2.554   0.704
 8947TIP3    H126782   1.249   2.544   0.723
 8947TIP3    H226783   1.130   2.631   0.754
 8948TIP3   OH226784   6.622   5.012   5.152
 8948TIP3    H126785   6.642   5.024   5.059
 8948TIP3    H226786   6.704   5.035   5.197
 8949TIP3   OH226787   2.269   3.710   0.189
 8949TIP3    H126788   2.263   3.704   0.285
 8949TIP3    H226789   2.277   3.803   0.171
 8950TIP3   OH226790   7.532   3.144   6.424
 8950TIP3    H126791   7.518   3.156   6.330
 8950TIP3    H226792   7.452   3.178   6.464
 8951TIP3   OH226793   3.117   7.265   1.984
 8951TIP3    H126794   3.186   7.325   1.955
 8951TIP3    H226795   3.049   7.323   2.019
 8952TIP3   OH226796   2.210   1.643   1.469
 8952TIP3    H126797   2.247   1.594   1.543
 8952TIP3    H226798   2.120   1.611   1.461
 8953TIP3   OH226799   7.729   6.402   2.191
 8953TIP3    H126800   7.724   6.307   2.195
 8953TIP3    H226801   7.738   6.422   2.097
 8954TIP3   OH226802   4.408   6.155   2.807
 8954TIP3    H126803   4.357   6.176   2.886
 8954TIP3    H226804   4.370   6.210   2.739
 8955TIP3   OH226805   1.924   0.507   5.091
 8955TIP3    H126806   1.895   0.559   5.166
 8955TIP3    H226807   1.851   0.511   5.030
 8956TIP3   OH226808   5.245   0.835   2.305
 8956TIP3    H126809   5.336   0.806   2.315
 8956TIP3    H226810   5.194   0.759   2.333
 8957TIP3   OH226811   2.336   6.489   6.121
 8957TIP3    H126812   2.250   6.510   6.158
 8957TIP3    H226813   2.353   6.399   6.150
 8958TIP3   OH226814   2.237   3.578   2.082
 8958TIP3    H126815   2.250   3.640   2.154
 8958TIP3    H226816   2.324   3.545   2.062
 8959TIP3   OH226817   1.517   5.341   5.282
 8959TIP3    H126818   1.580   5.346   5.210
 8959TIP3    H226819   1.566   5.370   5.358
 8960TIP3   OH226820   5.767   0.053   3.702
 8960TIP3    H126821   5.786   0.134   3.654
 8960TIP3    H226822   5.676   0.063   3.729
 8961TIP3   OH226823   7.907   4.523   3.299
 8961TIP3    H126824   7.881   4.518   3.207
 8961TIP3    H226825   8.002   4.526   3.297
 8962TIP3   OH226826   6.917   1.051   1.633
 8962TIP3    H126827   6.924   0.967   1.677
 8962TIP3    H226828   6.825   1.059   1.608
 8963TIP3   OH226829   7.150   6.908   1.676
 8963TIP3    H126830   7.231   6.945   1.642
 8963TIP3    H226831   7.167   6.814   1.684
 8964TIP3   OH226832   5.170   0.683   0.000
 8964TIP3    H126833   5.188   0.594  -0.031
 8964TIP3    H226834   5.182   0.678   0.095
 8965TIP3   OH226835   6.770   3.996  -0.010
 8965TIP3    H126836   6.740   4.067   0.047
 8965TIP3    H226837   6.837   3.951   0.040
 8966TIP3   OH226838   0.817   4.903   4.048
 8966TIP3    H126839   0.779   4.876   3.964
 8966TIP3    H226840   0.878   4.973   4.025
 8967TIP3   OH226841   0.632   3.248   6.221
 8967TIP3    H126842   0.661   3.245   6.312
 8967TIP3    H226843   0.537   3.243   6.226
 8968TIP3   OH226844   7.207   3.645   3.526
 8968TIP3    H126845   7.243   3.662   3.439
 8968TIP3    H226846   7.242   3.559   3.550
 8969TIP3   OH226847   8.063   0.564   1.856
 8969TIP3    H126848   8.063   0.470   1.874
 8969TIP3    H226849   7.973   0.591   1.870
 8970TIP3   OH226850   5.177   0.931   6.752
 8970TIP3    H126851   5.222   0.992   6.811
 8970TIP3    H226852   5.208   0.844   6.779
 8971TIP3   OH226853   4.850   6.897   1.433
 8971TIP3    H126854   4.770   6.846   1.444
 8971TIP3    H226855   4.906   6.871   1.507
 8972TIP3   OH226856   3.737   0.730   4.466
 8972TIP3    H126857   3.724   0.741   4.561
 8972TIP3    H226858   3.653   0.756   4.428
 8973TIP3   OH226859   3.049   1.890   1.298
 8973TIP3    H126860   3.111   1.948   1.253
 8973TIP3    H226861   3.086   1.879   1.386
 8974TIP3   OH226862   2.833   0.944   0.871
 8974TIP3    H126863   2.760   0.933   0.810
 8974TIP3    H226864   2.801   1.005   0.937
 8975TIP3   OH226865   3.260   5.568   6.767
 8975TIP3    H126866   3.321   5.633   6.800
 8975TIP3    H226867   3.181   5.578   6.820
 8976TIP3   OH226868   0.233   1.265   1.481
 8976TIP3    H126869   0.247   1.219   1.564
 8976TIP3    H226870   0.273   1.351   1.493
 8977TIP3   OH226871   1.736   7.828   3.868
 8977TIP3    H126872   1.781   7.753   3.829
 8977TIP3    H226873   1.764   7.903   3.816
 8978TIP3   OH226874   2.199   4.171   0.337
 8978TIP3    H126875   2.286   4.182   0.376
 8978TIP3    H226876   2.140   4.166   0.413
 8979TIP3   OH226877   5.699   6.295   2.604
 8979TIP3    H126878   5.731   6.284   2.694
 8979TIP3    H226879   5.747   6.230   2.553
 8980TIP3   OH226880   1.914   6.417   0.464
 8980TIP3    H126881   1.993   6.471   0.462
 8980TIP3    H226882   1.858   6.460   0.529
 8981TIP3   OH226883   1.910   2.075   4.314
 8981TIP3    H126884   1.945   2.020   4.244
 8981TIP3    H226885   1.925   2.164   4.285
 8982TIP3   OH226886   3.262   6.490   4.105
 8982TIP3    H126887   3.337   6.440   4.072
 8982TIP3    H226888   3.191   6.426   4.111
 8983TIP3   OH226889   1.805   0.380   4.784
 8983TIP3    H126890   1.777   0.389   4.693
 8983TIP3    H226891   1.812   0.470   4.816
 8984TIP3   OH226892   5.459   1.624   5.375
 8984TIP3    H126893   5.425   1.551   5.427
 8984TIP3    H226894   5.516   1.672   5.436
 8985TIP3   OH226895   0.360   0.077   6.325
 8985TIP3    H126896   0.424   0.048   6.260
 8985TIP3    H226897   0.302   0.136   6.276
 8986TIP3   OH226898   0.578   7.272   0.999
 8986TIP3    H126899   0.564   7.317   1.082
 8986TIP3    H226900   0.493   7.276   0.955
 8987TIP3   OH226901   5.117   0.880   1.266
 8987TIP3    H126902   5.054   0.890   1.337
 8987TIP3    H226903   5.168   0.961   1.268
 8988TIP3   OH226904   6.042   3.343   3.399
 8988TIP3    H126905   5.990   3.263   3.400
 8988TIP3    H226906   6.118   3.323   3.454
 8989TIP3   OH226907   1.046   1.255   4.578
 8989TIP3    H126908   1.009   1.172   4.547
 8989TIP3    H226909   1.140   1.246   4.560
 8990TIP3   OH226910   5.300   5.292   6.572
 8990TIP3    H126911   5.381   5.263   6.530
 8990TIP3    H226912   5.231   5.250   6.521
 8991TIP3   OH226913   1.390   1.984   3.819
 8991TIP3    H126914   1.436   1.997   3.902
 8991TIP3    H226915   1.438   2.038   3.756
 8992TIP3   OH226916   6.548   0.562   2.494
 8992TIP3    H126917   6.513   0.497   2.555
 8992TIP3    H226918   6.629   0.593   2.536
 8993TIP3   OH226919   5.680   0.199   2.000
 8993TIP3    H126920   5.728   0.201   2.082
 8993TIP3    H226921   5.739   0.239   1.936
 8994TIP3   OH226922   6.215   3.561   5.088
 8994TIP3    H126923   6.250   3.612   5.161
 8994TIP3    H226924   6.242   3.609   5.010
 8995TIP3   OH226925   5.526   4.540   1.498
 8995TIP3    H126926   5.579   4.471   1.539
 8995TIP3    H226927   5.458   4.492   1.451
 8996TIP3   OH226928   3.119   1.359   2.450
 8996TIP3    H126929   3.171   1.282   2.426
 8996TIP3    H226930   3.082   1.390   2.368
 8997TIP3   OH226931   2.665   5.586   6.196
 8997TIP3    H126932   2.717   5.513   6.162
 8997TIP3    H226933   2.594   5.596   6.133
 8998TIP3   OH226934   0.616   7.343   5.517
 8998TIP3    H126935   0.581   7.430   5.540
 8998TIP3    H226936   0.581   7.325   5.430
 8999TIP3   OH226937   6.700   6.402   1.036
 8999TIP3    H126938   6.760   6.458   1.085
 8999TIP3    H226939   6.634   6.376   1.100
 9000TIP3   OH226940   7.157   7.359   4.836
 9000TIP3    H126941   7.186   7.356   4.745
 9000TIP3    H226942   7.184   7.446   4.866
 9001TIP3   OH226943   7.450   5.926   3.908
 9001TIP3    H126944   7.440   5.944   3.814
 9001TIP3    H226945   7.365   5.951   3.945
 9002TIP3   OH226946   6.972   0.272   0.776
 9002TIP3    H126947   6.913   0.342   0.805
 9002TIP3    H226948   7.017   0.244   0.856
 9003TIP3   OH226949   0.282   2.475   4.674
 9003TIP3    H126950   0.323   2.532   4.739
 9003TIP3    H226951   0.337   2.485   4.595
 9004TIP3   OH226952   5.029   5.943   0.902
 9004TIP3    H126953   5.041   6.023   0.850
 9004TIP3    H226954   4.951   5.902   0.865
 9005TIP3   OH226955   6.338   1.513   3.919
 9005TIP3    H126956   6.314   1.596   3.960
 9005TIP3    H226957   6.404   1.536   3.854
 9006TIP3   OH226958   6.241   7.120   1.757
 9006TIP3    H126959   6.258   7.105   1.664
 9006TIP3    H226960   6.310   7.071   1.803
 9007TIP3   OH226961   2.127   0.986   6.142
 9007TIP3    H126962   2.130   0.892   6.155
 9007TIP3    H226963   2.075   0.998   6.063
 9008TIP3   OH226964   5.443   5.483   4.289
 9008TIP3    H126965   5.367   5.439   4.326
 9008TIP3    H226966   5.414   5.573   4.273
 9009TIP3   OH226967   1.595   2.809   5.948
 9009TIP3    H126968   1.603   2.857   6.030
 9009TIP3    H226969   1.561   2.872   5.885
 9010TIP3   OH226970   2.355   2.771   6.222
 9010TIP3    H126971   2.330   2.780   6.130
 9010TIP3    H226972   2.300   2.700   6.255
 9011TIP3   OH226973   6.412   7.613   3.871
 9011TIP3    H126974   6.370   7.540   3.825
 9011TIP3    H226975   6.488   7.573   3.915
 9012TIP3   OH226976   0.684   7.447   6.759
 9012TIP3    H126977   0.713   7.400   6.681
 9012TIP3    H226978   0.765   7.476   6.801
 9013TIP3   OH226979   1.637   7.465   1.234
 9013TIP3    H126980   1.585   7.388   1.208
 9013TIP3    H226981   1.704   7.430   1.292
 9014TIP3   OH226982   0.543   6.207   2.640
 9014TIP3    H126983   0.472   6.194   2.577
 9014TIP3    H226984   0.501   6.247   2.716
 9015TIP3   OH226985   5.267   3.961   4.000
 9015TIP3    H126986   5.245   4.053   4.011
 9015TIP3    H226987   5.327   3.959   3.925
 9016TIP3   OH226988   1.152   6.649   0.097
 9016TIP3    H126989   1.099   6.573   0.072
 9016TIP3    H226990   1.091   6.708   0.141
 9017TIP3   OH226991   6.320   1.091   1.405
 9017TIP3    H126992   6.267   1.097   1.325
 9017TIP3    H226993   6.410   1.104   1.375
 9018TIP3   OH226994   6.777   7.568   5.829
 9018TIP3    H126995   6.759   7.475   5.841
 9018TIP3    H226996   6.705   7.613   5.873
 9019TIP3   OH226997   0.281   4.627   5.789
 9019TIP3    H126998   0.371   4.660   5.790
 9019TIP3    H226999   0.287   4.541   5.831
 9020TIP3   OH227000   6.130   1.950   4.316
 9020TIP3    H127001   6.083   2.011   4.372
 9020TIP3    H227002   6.203   2.001   4.281
 9021TIP3   OH227003   4.184   6.073   1.679
 9021TIP3    H127004   4.171   6.013   1.753
 9021TIP3    H227005   4.257   6.035   1.630
 9022TIP3   OH227006   4.188   5.743   5.968
 9022TIP3    H127007   4.166   5.806   6.037
 9022TIP3    H227008   4.280   5.759   5.950
 9023TIP3   OH227009   2.690   1.031   5.815
 9023TIP3    H127010   2.606   0.992   5.837
 9023TIP3    H227011   2.745   1.015   5.892
 9024TIP3   OH227012   4.042   3.654   0.861
 9024TIP3    H127013   3.979   3.658   0.932
 9024TIP3    H227014   4.111   3.596   0.893
 9025TIP3   OH227015   3.102   5.999   1.754
 9025TIP3    H127016   3.192   5.995   1.720
 9025TIP3    H227017   3.112   5.997   1.849
 9026TIP3   OH227018   7.030   7.288   5.435
 9026TIP3    H127019   6.988   7.312   5.352
 9026TIP3    H227020   7.004   7.197   5.449
 9027TIP3   OH227021   3.531   1.708   2.779
 9027TIP3    H127022   3.495   1.787   2.738
 9027TIP3    H227023   3.507   1.637   2.719
 9028TIP3   OH227024   1.311   4.911   5.720
 9028TIP3    H127025   1.328   4.818   5.732
 9028TIP3    H227026   1.273   4.917   5.632
 9029TIP3   OH227027   8.370   5.275   0.326
 9029TIP3    H127028   8.447   5.319   0.290
 9029TIP3    H227029   8.363   5.307   0.416
 9030TIP3   OH227030   5.928   5.141   5.865
 9030TIP3    H127031   5.845   5.094   5.870
 9030TIP3    H227032   5.964   5.118   5.780
 9031TIP3   OH227033   3.719   4.432   5.403
 9031TIP3    H127034   3.656   4.390   5.344
 9031TIP3    H227035   3.678   4.515   5.427
 9032TIP3   OH227036   7.136   3.235   1.043
 9032TIP3    H127037   7.123   3.316   1.093
 9032TIP3    H227038   7.230   3.232   1.026
 9033TIP3   OH227039   0.577   0.316   2.376
 9033TIP3    H127040   0.485   0.298   2.356
 9033TIP3    H227041   0.599   0.392   2.322
 9034TIP3   OH227042   1.905   3.268   1.415
 9034TIP3    H127043   1.962   3.205   1.371
 9034TIP3    H227044   1.954   3.351   1.412
 9035TIP3   OH227045   6.369   3.638   3.081
 9035TIP3    H127046   6.304   3.573   3.109
 9035TIP3    H227047   6.430   3.588   3.026
 9036TIP3   OH227048   4.788   5.044   3.948
 9036TIP3    H127049   4.751   4.978   3.889
 9036TIP3    H227050   4.713   5.083   3.992
 9037TIP3   OH227051   8.359   3.815   3.216
 9037TIP3    H127052   8.438   3.776   3.253
 9037TIP3    H227053   8.295   3.811   3.287
 9038TIP3   OH227054   2.441   3.839   1.595
 9038TIP3    H127055   2.465   3.850   1.687
 9038TIP3    H227056   2.462   3.923   1.554
 9039TIP3   OH227057   5.110   5.845   6.059
 9039TIP3    H127058   5.020   5.862   6.085
 9039TIP3    H227059   5.140   5.928   6.021
 9040TIP3   OH227060   7.324   0.938   6.178
 9040TIP3    H127061   7.268   0.867   6.209
 9040TIP3    H227062   7.365   0.903   6.098
 9041TIP3   OH227063   3.395   1.117   1.226
 9041TIP3    H127064   3.406   1.060   1.150
 9041TIP3    H227065   3.404   1.206   1.190
 9042TIP3   OH227066   3.858   1.862   2.717
 9042TIP3    H127067   3.861   1.887   2.624
 9042TIP3    H227068   3.801   1.786   2.719
 9043TIP3   OH227069   2.491   0.967   1.589
 9043TIP3    H127070   2.423   0.913   1.550
 9043TIP3    H227071   2.569   0.951   1.536
 9044TIP3   OH227072   0.305   4.501   6.066
 9044TIP3    H127073   0.390   4.465   6.040
 9044TIP3    H227074   0.297   4.481   6.159
 9045TIP3   OH227075   6.628   7.137   3.933
 9045TIP3    H127076   6.664   7.224   3.947
 9045TIP3    H227077   6.533   7.150   3.937
 9046TIP3   OH227078   3.166   2.432   6.867
 9046TIP3    H127079   3.239   2.448   6.807
 9046TIP3    H227080   3.091   2.476   6.827
 9047TIP3   OH227081   1.074   0.866   0.152
 9047TIP3    H127082   1.162   0.900   0.170
 9047TIP3    H227083   1.063   0.875   0.057
 9048TIP3   OH227084   0.680   0.434   3.636
 9048TIP3    H127085   0.749   0.449   3.571
 9048TIP3    H227086   0.626   0.365   3.598
 9049TIP3   OH227087   2.756   7.490   0.911
 9049TIP3    H127088   2.684   7.433   0.885
 9049TIP3    H227089   2.834   7.437   0.898
 9050TIP3   OH227090   0.248   0.129   1.371
 9050TIP3    H127091   0.223   0.060   1.309
 9050TIP3    H227092   0.218   0.210   1.330
 9051TIP3   OH227093   1.857   1.408   4.975
 9051TIP3    H127094   1.763   1.410   4.990
 9051TIP3    H227095   1.875   1.485   4.920
 9052TIP3   OH227096   3.008   3.367   1.267
 9052TIP3    H127097   2.980   3.431   1.333
 9052TIP3    H227098   3.086   3.326   1.305
 9053TIP3   OH227099   5.307   0.736   5.614
 9053TIP3    H127100   5.356   0.662   5.576
 9053TIP3    H227101   5.217   0.723   5.584
 9054TIP3   OH227102   1.351   3.091   6.151
 9054TIP3    H127103   1.366   3.115   6.243
 9054TIP3    H227104   1.434   3.054   6.122
 9055TIP3   OH227105   4.396   0.507   1.269
 9055TIP3    H127106   4.391   0.528   1.176
 9055TIP3    H227107   4.448   0.427   1.272
 9056TIP3   OH227108   6.229   4.751   4.376
 9056TIP3    H127109   6.144   4.796   4.368
 9056TIP3    H227110   6.229   4.716   4.465
 9057TIP3   OH227111   7.030   2.746   0.913
 9057TIP3    H127112   6.942   2.775   0.890
 9057TIP3    H227113   7.088   2.802   0.860
 9058TIP3   OH227114   2.551   6.522   1.464
 9058TIP3    H127115   2.456   6.528   1.466
 9058TIP3    H227116   2.581   6.613   1.474
 9059TIP3   OH227117   2.383   7.348   2.672
 9059TIP3    H127118   2.399   7.278   2.609
 9059TIP3    H227119   2.461   7.403   2.668
 9060TIP3   OH227120   2.565   4.284   0.744
 9060TIP3    H127121   2.641   4.231   0.720
 9060TIP3    H227122   2.518   4.231   0.808
 9061TIP3   OH227123   7.055   3.576   5.751
 9061TIP3    H127124   7.024   3.518   5.680
 9061TIP3    H227125   7.090   3.516   5.817
 9062TIP3   OH227126   5.756   5.556   2.930
 9062TIP3    H127127   5.672   5.564   2.885
 9062TIP3    H227128   5.800   5.639   2.914
 9063TIP3   OH227129   5.183   3.139   3.458
 9063TIP3    H127130   5.149   3.080   3.524
 9063TIP3    H227131   5.138   3.115   3.377
 9064TIP3   OH227132   6.115   4.355   4.464
 9064TIP3    H127133   6.086   4.351   4.373
 9064TIP3    H227134   6.207   4.378   4.460
 9065TIP3   OH227135   7.267   4.188   0.381
 9065TIP3    H127136   7.325   4.244   0.328
 9065TIP3    H227137   7.194   4.168   0.322
 9066TIP3   OH227138   1.752   5.239   6.552
 9066TIP3    H127139   1.770   5.204   6.465
 9066TIP3    H227140   1.783   5.330   6.548
 9067TIP3   OH227141   7.266   7.653   2.546
 9067TIP3    H127142   7.323   7.580   2.570
 9067TIP3    H227143   7.250   7.699   2.628
 9068TIP3   OH227144   5.096   4.827   4.334
 9068TIP3    H127145   5.058   4.912   4.354
 9068TIP3    H227146   5.028   4.781   4.284
 9069TIP3   OH227147   0.202   5.979   1.617
 9069TIP3    H127148   0.249   5.918   1.674
 9069TIP3    H227149   0.110   5.955   1.628
 9070TIP3   OH227150   7.824   4.664   1.239
 9070TIP3    H127151   7.838   4.753   1.270
 9070TIP3    H227152   7.881   4.655   1.162
 9071TIP3   OH227153   4.551   0.706   2.449
 9071TIP3    H127154   4.533   0.782   2.394
 9071TIP3    H227155   4.624   0.733   2.504
 9072TIP3   OH227156   4.527   1.837   1.007
 9072TIP3    H127157   4.587   1.865   1.076
 9072TIP3    H227158   4.511   1.744   1.025
 9073TIP3   OH227159   0.084   4.483   4.228
 9073TIP3    H127160   0.081   4.578   4.213
 9073TIP3    H227161   0.053   4.445   4.146
 9074TIP3   OH227162   7.808   7.425   0.408
 9074TIP3    H127163   7.869   7.483   0.365
 9074TIP3    H227164   7.863   7.358   0.450
 9075TIP3   OH227165   1.170   5.842   2.206
 9075TIP3    H127166   1.087   5.796   2.207
 9075TIP3    H227167   1.163   5.906   2.277
 9076TIP3   OH227168   6.405   0.643   4.013
 9076TIP3    H127169   6.467   0.687   4.071
 9076TIP3    H227170   6.390   0.558   4.054
 9077TIP3   OH227171   0.183   2.870   6.756
 9077TIP3    H127172   0.273   2.904   6.753
 9077TIP3    H227173   0.128   2.948   6.757
 9078TIP3   OH227174   8.080   2.231   5.419
 9078TIP3    H127175   8.077   2.323   5.445
 9078TIP3    H227176   8.076   2.233   5.323
 9079TIP3   OH227177   1.764   5.198   0.408
 9079TIP3    H127178   1.794   5.116   0.448
 9079TIP3    H227179   1.696   5.171   0.346
 9080TIP3   OH227180   7.404   6.749   6.662
 9080TIP3    H127181   7.359   6.666   6.676
 9080TIP3    H227182   7.448   6.739   6.578
 9081TIP3   OH227183   4.804   3.129   3.544
 9081TIP3    H127184   4.737   3.107   3.609
 9081TIP3    H227185   4.885   3.092   3.580
 9082TIP3   OH227186   6.394   0.281   0.695
 9082TIP3    H127187   6.302   0.255   0.704
 9082TIP3    H227188   6.443   0.206   0.730
 9083TIP3   OH227189   7.740   4.079   4.292
 9083TIP3    H127190   7.694   4.094   4.375
 9083TIP3    H227191   7.703   4.144   4.232
 9084TIP3   OH227192   0.879   0.562   1.465
 9084TIP3    H127193   0.838   0.505   1.399
 9084TIP3    H227194   0.963   0.520   1.483
 9085TIP3   OH227195   3.121   0.055   5.196
 9085TIP3    H127196   3.182   0.023   5.263
 9085TIP3    H227197   3.042   0.080   5.245
 9086TIP3   OH227198   2.660   0.646   5.766
 9086TIP3    H127199   2.754   0.640   5.748
 9086TIP3    H227200   2.624   0.694   5.692
 9087TIP3   OH227201   2.682   1.529   6.652
 9087TIP3    H127202   2.601   1.515   6.700
 9087TIP3    H227203   2.751   1.515   6.717
 9088TIP3   OH227204   5.601   1.194   1.289
 9088TIP3    H127205   5.691   1.162   1.275
 9088TIP3    H227206   5.546   1.117   1.280
 9089TIP3   OH227207   3.564   6.691   5.757
 9089TIP3    H127208   3.544   6.665   5.667
 9089TIP3    H227209   3.613   6.773   5.748
 9090TIP3   OH227210   4.432   3.963   5.852
 9090TIP3    H127211   4.508   3.905   5.849
 9090TIP3    H227212   4.400   3.965   5.762
 9091TIP3   OH227213   1.769   5.322   4.109
 9091TIP3    H127214   1.830   5.324   4.035
 9091TIP3    H227215   1.770   5.232   4.139
 9092TIP3   OH227216   2.897   0.735   3.972
 9092TIP3    H127217   2.901   0.789   3.893
 9092TIP3    H227218   2.925   0.648   3.943
 9093TIP3   OH227219   0.114   7.157   5.615
 9093TIP3    H127220   0.118   7.253   5.613
 9093TIP3    H227221   0.021   7.138   5.599
 9094TIP3   OH227222   8.118   4.868   3.770
 9094TIP3    H127223   8.039   4.896   3.816
 9094TIP3    H227224   8.114   4.913   3.686
 9095TIP3   OH227225   3.313   7.533   3.111
 9095TIP3    H127226   3.275   7.619   3.125
 9095TIP3    H227227   3.240   7.472   3.125
 9096TIP3   OH227228   3.235   4.578   2.109
 9096TIP3    H127229   3.239   4.496   2.059
 9096TIP3    H227230   3.169   4.562   2.176
 9097TIP3   OH227231   7.227   6.682   4.374
 9097TIP3    H127232   7.313   6.668   4.334
 9097TIP3    H227233   7.236   6.647   4.463
 9098TIP3   OH227234   2.874   1.764   5.916
 9098TIP3    H127235   2.914   1.735   5.998
 9098TIP3    H227236   2.812   1.695   5.893
 9099TIP3   OH227237   3.793   6.505   1.939
 9099TIP3    H127238   3.820   6.469   2.024
 9099TIP3    H227239   3.744   6.434   1.898
 9100TIP3   OH227240   6.532   6.720   3.195
 9100TIP3    H127241   6.517   6.698   3.287
 9100TIP3    H227242   6.563   6.810   3.197
 9101TIP3   OH227243   0.233   5.650   6.510
 9101TIP3    H127244   0.306   5.619   6.565
 9101TIP3    H227245   0.227   5.743   6.529
 9102TIP3   OH227246   2.392   7.219   6.698
 9102TIP3    H127247   2.377   7.311   6.720
 9102TIP3    H227248   2.438   7.183   6.773
 9103TIP3   OH227249   4.925   0.571   0.307
 9103TIP3    H127250   4.961   0.484   0.292
 9103TIP3    H227251   4.997   0.631   0.286
 9104TIP3   OH227252   4.537   3.547   6.348
 9104TIP3    H127253   4.474   3.572   6.280
 9104TIP3    H227254   4.496   3.472   6.391
 9105TIP3   OH227255   4.022   1.712   4.261
 9105TIP3    H127256   4.067   1.759   4.331
 9105TIP3    H227257   4.004   1.625   4.298
 9106TIP3   OH227258   2.866   3.106   4.827
 9106TIP3    H127259   2.778   3.068   4.827
 9106TIP3    H227260   2.924   3.031   4.836
 9107TIP3   OH227261   0.925   4.081   3.525
 9107TIP3    H127262   0.961   4.085   3.613
 9107TIP3    H227263   0.993   4.040   3.472
 9108TIP3   OH227264   3.851   2.160   1.798
 9108TIP3    H127265   3.849   2.067   1.820
 9108TIP3    H227266   3.933   2.192   1.835
 9109TIP3   OH227267   1.157   1.428   4.314
 9109TIP3    H127268   1.203   1.393   4.390
 9109TIP3    H227269   1.183   1.520   4.310
 9110TIP3   OH227270   8.104   7.058   1.998
 9110TIP3    H127271   8.125   6.973   1.959
 9110TIP3    H227272   8.011   7.070   1.979
 9111TIP3   OH227273   1.495   3.017   0.122
 9111TIP3    H127274   1.435   2.968   0.178
 9111TIP3    H227275   1.504   2.963   0.043
 9112TIP3   OH227276   0.192   6.342   5.068
 9112TIP3    H127277   0.145   6.402   5.126
 9112TIP3    H227278   0.124   6.304   5.012
 9113TIP3   OH227279   2.279   7.618   0.072
 9113TIP3    H127280   2.255   7.599  -0.019
 9113TIP3    H227281   2.244   7.544   0.122
 9114TIP3   OH227282   3.469   4.875   4.681
 9114TIP3    H127283   3.474   4.947   4.744
 9114TIP3    H227284   3.527   4.808   4.717
 9115TIP3   OH227285   3.016   6.379   6.710
 9115TIP3    H127286   3.057   6.421   6.785
 9115TIP3    H227287   2.925   6.409   6.711
 9116TIP3   OH227288   4.330   0.968   2.528
 9116TIP3    H127289   4.324   0.933   2.617
 9116TIP3    H227290   4.254   0.932   2.482
 9117TIP3   OH227291   2.081   0.352   3.468
 9117TIP3    H127292   2.045   0.272   3.431
 9117TIP3    H227293   2.098   0.330   3.560
 9118TIP3   OH227294   7.959   7.190   0.491
 9118TIP3    H127295   7.883   7.150   0.534
 9118TIP3    H227296   7.975   7.136   0.414
 9119TIP3   OH227297   6.516   4.383   6.329
 9119TIP3    H127298   6.566   4.430   6.395
 9119TIP3    H227299   6.543   4.292   6.338
 9120TIP3   OH227300   4.397   4.817   5.843
 9120TIP3    H127301   4.353   4.892   5.883
 9120TIP3    H227302   4.490   4.839   5.846
 9121TIP3   OH227303   8.040   2.788   4.617
 9121TIP3    H127304   8.116   2.786   4.676
 9121TIP3    H227305   8.035   2.700   4.581
 9122TIP3   OH227306   8.375   0.500   6.188
 9122TIP3    H127307   8.391   0.590   6.214
 9122TIP3    H227308   8.337   0.506   6.100
 9123TIP3   OH227309   7.228   1.685   0.090
 9123TIP3    H127310   7.173   1.742   0.144
 9123TIP3    H227311   7.306   1.738   0.072
 9124TIP3   OH227312   2.218   5.671   6.452
 9124TIP3    H127313   2.264   5.654   6.534
 9124TIP3    H227314   2.223   5.587   6.405
 9125TIP3   OH227315   5.503   5.265   3.148
 9125TIP3    H127316   5.433   5.328   3.135
 9125TIP3    H227317   5.530   5.277   3.239
 9126TIP3   OH227318   6.736   6.032   5.571
 9126TIP3    H127319   6.694   6.079   5.643
 9126TIP3    H227320   6.829   6.041   5.588
 9127TIP3   OH227321   5.704   1.367   3.901
 9127TIP3    H127322   5.686   1.297   3.839
 9127TIP3    H227323   5.763   1.426   3.854
 9128TIP3   OH227324   3.322   0.408   1.310
 9128TIP3    H127325   3.393   0.374   1.364
 9128TIP3    H227326   3.350   0.497   1.287
 9129TIP3   OH227327   3.421   5.066   4.881
 9129TIP3    H127328   3.361   5.088   4.953
 9129TIP3    H227329   3.428   5.148   4.831
 9130TIP3   OH227330   4.034   2.500   4.475
 9130TIP3    H127331   3.980   2.459   4.407
 9130TIP3    H227332   4.102   2.435   4.493
 9131TIP3   OH227333   2.244   7.400   5.715
 9131TIP3    H127334   2.316   7.419   5.655
 9131TIP3    H227335   2.193   7.333   5.671
 9132TIP3   OH227336   2.095   4.223   1.449
 9132TIP3    H127337   2.117   4.291   1.512
 9132TIP3    H227338   2.074   4.147   1.502
 9133TIP3   OH227339   7.439   0.994   5.310
 9133TIP3    H127340   7.531   0.969   5.306
 9133TIP3    H227341   7.391   0.911   5.299
 9134TIP3   OH227342   7.891   5.433   6.312
 9134TIP3    H127343   7.826   5.370   6.344
 9134TIP3    H227344   7.927   5.474   6.391
 9135TIP3   OH227345   3.430   5.950   2.224
 9135TIP3    H127346   3.428   5.854   2.218
 9135TIP3    H227347   3.425   5.969   2.317
 9136TIP3   OH227348   7.795   0.638   1.254
 9136TIP3    H127349   7.713   0.614   1.210
 9136TIP3    H227350   7.805   0.732   1.237
 9137TIP3   OH227351   7.932   7.746   4.418
 9137TIP3    H127352   7.870   7.767   4.488
 9137TIP3    H227353   7.994   7.685   4.458
 9138TIP3   OH227354   0.255   6.808   2.827
 9138TIP3    H127355   0.163   6.793   2.848
 9138TIP3    H227356   0.294   6.839   2.909
 9139TIP3   OH227357   3.108   3.516   5.416
 9139TIP3    H127358   3.100   3.444   5.353
 9139TIP3    H227359   3.025   3.563   5.408
 9140TIP3   OH227360   7.123   7.144   0.844
 9140TIP3    H127361   7.148   7.200   0.771
 9140TIP3    H227362   7.043   7.100   0.815
 9141TIP3   OH227363   7.870   6.377   4.654
 9141TIP3    H127364   7.877   6.468   4.681
 9141TIP3    H227365   7.957   6.341   4.668
 9142TIP3   OH227366   1.626   3.880   5.886
 9142TIP3    H127367   1.613   3.841   5.973
 9142TIP3    H227368   1.721   3.892   5.880
 9143TIP3   OH227369   4.630   5.324   1.596
 9143TIP3    H127370   4.624   5.401   1.653
 9143TIP3    H227371   4.547   5.324   1.548
 9144TIP3   OH227372   3.194   1.403   5.464
 9144TIP3    H127373   3.194   1.382   5.557
 9144TIP3    H227374   3.108   1.374   5.432
 9145TIP3   OH227375   8.063   1.940   6.307
 9145TIP3    H127376   8.063   1.846   6.323
 9145TIP3    H227377   7.973   1.968   6.326
 9146TIP3   OH227378   4.100   7.603   0.981
 9146TIP3    H127379   4.117   7.664   0.910
 9146TIP3    H227380   4.182   7.600   1.030
 9147TIP3   OH227381   0.498   6.037   0.795
 9147TIP3    H127382   0.532   5.953   0.764
 9147TIP3    H227383   0.442   6.068   0.724
 9148TIP3   OH227384   0.113   5.825   2.684
 9148TIP3    H127385   0.175   5.894   2.704
 9148TIP3    H227386   0.060   5.859   2.612
 9149TIP3   OH227387   1.378   5.909   4.368
 9149TIP3    H127388   1.472   5.894   4.378
 9149TIP3    H227389   1.362   5.990   4.416
 9150TIP3   OH227390   0.865   1.801   4.243
 9150TIP3    H127391   0.821   1.883   4.220
 9150TIP3    H227392   0.937   1.827   4.300
 9151TIP3   OH227393   2.837   2.509   1.382
 9151TIP3    H127394   2.871   2.456   1.310
 9151TIP3    H227395   2.878   2.595   1.369
 9152TIP3   OH227396   0.141   2.777   1.365
 9152TIP3    H127397   0.161   2.871   1.360
 9152TIP3    H227398   0.224   2.734   1.343
 9153TIP3   OH227399   6.159   4.508   3.261
 9153TIP3    H127400   6.174   4.563   3.338
 9153TIP3    H227401   6.134   4.423   3.297
 9154TIP3   OH227402   4.227   0.181   3.350
 9154TIP3    H127403   4.150   0.157   3.402
 9154TIP3    H227404   4.198   0.172   3.259
 9155TIP3   OH227405   2.018   7.186   4.827
 9155TIP3    H127406   2.090   7.123   4.826
 9155TIP3    H227407   2.038   7.247   4.756
 9156TIP3   OH227408   6.315   0.407   1.362
 9156TIP3    H127409   6.398   0.430   1.404
 9156TIP3    H227410   6.337   0.392   1.271
 9157TIP3   OH227411   7.207   4.353   1.337
 9157TIP3    H127412   7.286   4.351   1.390
 9157TIP3    H227413   7.135   4.356   1.400
 9158TIP3   OH227414   8.187   2.731   3.550
 9158TIP3    H127415   8.141   2.748   3.632
 9158TIP3    H227416   8.251   2.663   3.572
 9159TIP3   OH227417   4.785   6.221   4.430
 9159TIP3    H127418   4.700   6.233   4.387
 9159TIP3    H227419   4.767   6.162   4.503
 9160TIP3   OH227420   1.829   6.146   6.683
 9160TIP3    H127421   1.755   6.085   6.677
 9160TIP3    H227422   1.814   6.208   6.612
 9161TIP3   OH227423   2.215   1.014   3.551
 9161TIP3    H127424   2.145   1.070   3.518
 9161TIP3    H227425   2.267   0.993   3.474
 9162TIP3   OH227426   6.735   0.108   0.791
 9162TIP3    H127427   6.801   0.176   0.776
 9162TIP3    H227428   6.722   0.067   0.705
 9163TIP3   OH227429   4.330   3.056   4.202
 9163TIP3    H127430   4.346   3.114   4.128
 9163TIP3    H227431   4.240   3.026   4.190
 9164TIP3   OH227432   6.858   3.250   0.861
 9164TIP3    H127433   6.904   3.261   0.944
 9164TIP3    H227434   6.766   3.240   0.884
 9165TIP3   OH227435   1.835   6.968   4.846
 9165TIP3    H127436   1.850   6.958   4.752
 9165TIP3    H227437   1.871   7.055   4.867
 9166TIP3   OH227438   1.431   1.321   6.178
 9166TIP3    H127439   1.391   1.263   6.113
 9166TIP3    H227440   1.515   1.281   6.198
 9167TIP3   OH227441   8.171   5.398   4.671
 9167TIP3    H127442   8.263   5.417   4.692
 9167TIP3    H227443   8.171   5.304   4.651
 9168TIP3   OH227444   4.580   4.182   1.668
 9168TIP3    H127445   4.656   4.236   1.689
 9168TIP3    H227446   4.567   4.194   1.574
 9169TIP3   OH227447   3.611   1.541   6.612
 9169TIP3    H127448   3.692   1.571   6.571
 9169TIP3    H227449   3.630   1.451   6.640
 9170TIP3   OH227450   2.251   0.746   4.230
 9170TIP3    H127451   2.194   0.779   4.160
 9170TIP3    H227452   2.328   0.711   4.183
 9171TIP3   OH227453   1.863   4.611   4.310
 9171TIP3    H127454   1.799   4.640   4.245
 9171TIP3    H227455   1.868   4.683   4.373
 9172TIP3   OH227456   4.027   1.437   5.607
 9172TIP3    H127457   4.037   1.343   5.597
 9172TIP3    H227458   4.002   1.448   5.699
 9173TIP3   OH227459   0.163   6.437   0.653
 9173TIP3    H127460   0.215   6.514   0.675
 9173TIP3    H227461   0.081   6.472   0.619
 9174TIP3   OH227462   2.317   0.034   0.946
 9174TIP3    H127463   2.260  -0.007   0.880
 9174TIP3    H227464   2.377   0.088   0.895
 9175TIP3   OH227465   1.528   4.756   1.225
 9175TIP3    H127466   1.462   4.687   1.234
 9175TIP3    H227467   1.546   4.783   1.315
 9176TIP3   OH227468   1.697   5.375   2.597
 9176TIP3    H127469   1.685   5.424   2.515
 9176TIP3    H227470   1.790   5.387   2.619
 9177TIP3   OH227471   0.637   3.342   4.430
 9177TIP3    H127472   0.704   3.391   4.382
 9177TIP3    H227473   0.555   3.382   4.403
 9178TIP3   OH227474   7.704   4.198   5.299
 9178TIP3    H127475   7.734   4.273   5.246
 9178TIP3    H227476   7.632   4.233   5.351
 9179TIP3   OH227477   3.651   6.979   5.690
 9179TIP3    H127478   3.585   7.032   5.645
 9179TIP3    H227479   3.664   7.022   5.774
 9180TIP3   OH227480   5.512   0.747   2.944
 9180TIP3    H127481   5.560   0.802   2.883
 9180TIP3    H227482   5.426   0.735   2.903
 9181TIP3   OH227483   6.985   3.800   3.840
 9181TIP3    H127484   7.044   3.773   3.911
 9181TIP3    H227485   6.912   3.738   3.846
 9182TIP3   OH227486   7.475   2.990   6.760
 9182TIP3    H127487   7.524   3.072   6.749
 9182TIP3    H227488   7.539   2.928   6.794
 9183TIP3   OH227489   0.003   1.445   5.230
 9183TIP3    H127490   0.081   1.419   5.279
 9183TIP3    H227491  -0.063   1.462   5.298
 9184TIP3   OH227492   7.583   2.508   2.330
 9184TIP3    H127493   7.585   2.504   2.425
 9184TIP3    H227494   7.664   2.554   2.306
 9185TIP3   OH227495   7.177   6.721   3.959
 9185TIP3    H127496   7.253   6.677   3.922
 9185TIP3    H227497   7.195   6.814   3.947
 9186TIP3   OH227498   5.761   1.530   4.257
 9186TIP3    H127499   5.783   1.560   4.345
 9186TIP3    H227500   5.697   1.593   4.226
 9187TIP3   OH227501   8.028   0.557   1.107
 9187TIP3    H127502   7.976   0.601   1.040
 9187TIP3    H227503   7.964   0.525   1.171
 9188TIP3   OH227504   7.118   1.257   2.458
 9188TIP3    H127505   7.201   1.250   2.411
 9188TIP3    H227506   7.083   1.342   2.433
 9189TIP3   OH227507   3.943   7.121   2.075
 9189TIP3    H127508   3.934   7.031   2.107
 9189TIP3    H227509   4.034   7.126   2.045
 9190TIP3   OH227510   2.312   1.660   3.680
 9190TIP3    H127511   2.338   1.622   3.596
 9190TIP3    H227512   2.216   1.660   3.678
 9191TIP3   OH227513   0.094   4.860   0.494
 9191TIP3    H127514   0.082   4.766   0.484
 9191TIP3    H227515   0.016   4.899   0.454
 9192TIP3   OH227516   7.669   2.410   5.977
 9192TIP3    H127517   7.748   2.448   5.938
 9192TIP3    H227518   7.656   2.327   5.931
 9193TIP3   OH227519   5.431   0.674   1.319
 9193TIP3    H127520   5.451   0.727   1.243
 9193TIP3    H227521   5.465   0.724   1.393
 9194TIP3   OH227522   5.622   2.211   3.900
 9194TIP3    H127523   5.570   2.135   3.924
 9194TIP3    H227524   5.578   2.285   3.942
 9195TIP3   OH227525   0.810   3.118   6.047
 9195TIP3    H127526   0.745   3.141   6.114
 9195TIP3    H227527   0.843   3.033   6.074
 9196TIP3   OH227528   5.399   6.410   2.326
 9196TIP3    H127529   5.454   6.389   2.252
 9196TIP3    H227530   5.313   6.375   2.303
 9197TIP3   OH227531   5.068   7.721   0.831
 9197TIP3    H127532   5.029   7.637   0.805
 9197TIP3    H227533   5.101   7.759   0.750
 9198TIP3   OH227534   4.846   3.931   4.998
 9198TIP3    H127535   4.891   3.877   5.063
 9198TIP3    H227536   4.808   3.869   4.936
 9199TIP3   OH227537   8.406   7.721   2.539
 9199TIP3    H127538   8.355   7.642   2.522
 9199TIP3    H227539   8.348   7.775   2.593
 9200TIP3   OH227540   2.581   3.590   5.045
 9200TIP3    H127541   2.579   3.520   5.111
 9200TIP3    H227542   2.606   3.668   5.093
 9201TIP3   OH227543   7.004   7.922   1.950
 9201TIP3    H127544   6.920   7.943   1.909
 9201TIP3    H227545   7.032   7.841   1.907
 9202TIP3   OH227546   4.626   2.418   3.293
 9202TIP3    H127547   4.546   2.470   3.304
 9202TIP3    H227548   4.688   2.478   3.250
 9203TIP3   OH227549   6.466   3.771   0.214
 9203TIP3    H127550   6.394   3.719   0.249
 9203TIP3    H227551   6.432   3.861   0.212
 9204TIP3   OH227552   0.449   0.180   3.111
 9204TIP3    H127553   0.392   0.254   3.132
 9204TIP3    H227554   0.534   0.220   3.095
 9205TIP3   OH227555   6.346   5.479   1.320
 9205TIP3    H127556   6.312   5.404   1.369
 9205TIP3    H227557   6.270   5.511   1.271
 9206TIP3   OH227558   7.090   3.240   5.304
 9206TIP3    H127559   7.125   3.206   5.386
 9206TIP3    H227560   7.166   3.253   5.248
 9207TIP3   OH227561   7.432   0.356   5.807
 9207TIP3    H127562   7.496   0.391   5.869
 9207TIP3    H227563   7.484   0.329   5.732
 9208TIP3   OH227564   5.054   1.762   5.135
 9208TIP3    H127565   4.977   1.716   5.168
 9208TIP3    H227566   5.092   1.701   5.071
 9209TIP3   OH227567   1.057   5.627   2.965
 9209TIP3    H127568   1.005   5.643   3.044
 9209TIP3    H227569   1.079   5.534   2.969
 9210TIP3   OH227570   7.032   2.186   5.254
 9210TIP3    H127571   7.046   2.132   5.332
 9210TIP3    H227572   6.971   2.254   5.282
 9211TIP3   OH227573   0.356   6.465   2.659
 9211TIP3    H127574   0.280   6.522   2.665
 9211TIP3    H227575   0.362   6.441   2.566
 9212TIP3   OH227576   7.508   6.669   5.049
 9212TIP3    H127577   7.578   6.660   5.113
 9212TIP3    H227578   7.532   6.747   4.998
 9213TIP3   OH227579   3.215   5.970   4.302
 9213TIP3    H127580   3.151   6.029   4.262
 9213TIP3    H227581   3.208   5.989   4.396
 9214TIP3   OH227582   5.706   3.142   1.282
 9214TIP3    H127583   5.700   3.186   1.197
 9214TIP3    H227584   5.746   3.058   1.263
 9215TIP3   OH227585   7.424   7.140   4.711
 9215TIP3    H127586   7.456   7.064   4.761
 9215TIP3    H227587   7.410   7.208   4.777
 9216TIP3   OH227588   4.703   7.319   5.781
 9216TIP3    H127589   4.703   7.228   5.810
 9216TIP3    H227590   4.730   7.316   5.690
 9217TIP3   OH227591   6.864   2.052   3.420
 9217TIP3    H127592   6.918   2.131   3.431
 9217TIP3    H227593   6.781   2.085   3.387
 9218TIP3   OH227594   6.702   2.913   3.626
 9218TIP3    H127595   6.787   2.950   3.653
 9218TIP3    H227596   6.667   2.873   3.706
 9219TIP3   OH227597   5.378   2.683   3.624
 9219TIP3    H127598   5.403   2.722   3.708
 9219TIP3    H227599   5.293   2.643   3.641
 9220TIP3   OH227600   1.094   7.657   2.694
 9220TIP3    H127601   1.110   7.643   2.787
 9220TIP3    H227602   1.168   7.710   2.665
 9221TIP3   OH227603   6.527   5.276   0.586
 9221TIP3    H127604   6.543   5.182   0.580
 9221TIP3    H227605   6.543   5.297   0.678
 9222TIP3   OH227606   7.486   3.735   4.608
 9222TIP3    H127607   7.502   3.659   4.552
 9222TIP3    H227608   7.450   3.801   4.549
 9223TIP3   OH227609   4.458   5.950   6.069
 9223TIP3    H127610   4.530   5.888   6.081
 9223TIP3    H227611   4.467   5.979   5.978
 9224TIP3   OH227612   5.233   1.815   5.510
 9224TIP3    H127613   5.205   1.901   5.476
 9224TIP3    H227614   5.186   1.752   5.455
 9225TIP3   OH227615   2.634   4.931   1.645
 9225TIP3    H127616   2.539   4.936   1.641
 9225TIP3    H227617   2.657   4.853   1.594
 9226TIP3   OH227618   6.935   0.835   1.855
 9226TIP3    H127619   6.986   0.757   1.837
 9226TIP3    H227620   6.852   0.802   1.890
 9227TIP3   OH227621   4.539   0.774   2.774
 9227TIP3    H127622   4.450   0.759   2.743
 9227TIP3    H227623   4.563   0.693   2.819
 9228TIP3   OH227624   0.406   0.725   6.827
 9228TIP3    H127625   0.412   0.647   6.882
 9228TIP3    H227626   0.442   0.698   6.742
 9229TIP3   OH227627   5.374   0.419   4.545
 9229TIP3    H127628   5.419   0.381   4.620
 9229TIP3    H227629   5.320   0.348   4.509
 9230TIP3   OH227630   5.299   7.333   3.671
 9230TIP3    H127631   5.359   7.406   3.654
 9230TIP3    H227632   5.340   7.257   3.630
 9231TIP3   OH227633   8.370   4.215   3.438
 9231TIP3    H127634   8.362   4.140   3.497
 9231TIP3    H227635   8.290   4.265   3.452
 9232TIP3   OH227636   6.821   2.649   5.708
 9232TIP3    H127637   6.834   2.554   5.719
 9232TIP3    H227638   6.777   2.677   5.788
 9233TIP3   OH227639   2.429   5.627   3.527
 9233TIP3    H127640   2.476   5.604   3.607
 9233TIP3    H227641   2.342   5.653   3.556
 9234TIP3   OH227642   8.049   5.524   4.071
 9234TIP3    H127643   8.091   5.507   3.987
 9234TIP3    H227644   7.993   5.600   4.056
 9235TIP3   OH227645   0.190   6.244   1.841
 9235TIP3    H127646   0.155   6.207   1.922
 9235TIP3    H227647   0.242   6.173   1.803
 9236TIP3   OH227648   8.270   7.545   4.519
 9236TIP3    H127649   8.286   7.525   4.427
 9236TIP3    H227650   8.328   7.486   4.567
 9237TIP3   OH227651   7.560   4.623   1.357
 9237TIP3    H127652   7.633   4.650   1.301
 9237TIP3    H227653   7.482   4.643   1.306
 9238TIP3   OH227654   7.695   6.202   6.284
 9238TIP3    H127655   7.613   6.181   6.328
 9238TIP3    H227656   7.712   6.126   6.228
 9239TIP3   OH227657   0.239   6.952   1.172
 9239TIP3    H127658   0.206   7.018   1.111
 9239TIP3    H227659   0.171   6.885   1.175
 9240TIP3   OH227660   5.209   3.868   5.254
 9240TIP3    H127661   5.236   3.878   5.345
 9240TIP3    H227662   5.145   3.938   5.240
 9241TIP3   OH227663   1.840   0.320   6.564
 9241TIP3    H127664   1.814   0.263   6.492
 9241TIP3    H227665   1.816   0.271   6.643
 9242TIP3   OH227666   1.275   5.443   0.499
 9242TIP3    H127667   1.356   5.469   0.455
 9242TIP3    H227668   1.234   5.526   0.525
 9243TIP3   OH227669   0.773   5.553   2.915
 9243TIP3    H127670   0.819   5.514   2.840
 9243TIP3    H227671   0.833   5.540   2.988
 9244TIP3   OH227672   3.806   0.449   2.179
 9244TIP3    H127673   3.808   0.524   2.120
 9244TIP3    H227674   3.854   0.380   2.132
 9245TIP3   OH227675   8.027   7.269   4.746
 9245TIP3    H127676   7.961   7.250   4.679
 9245TIP3    H227677   7.990   7.342   4.795
 9246TIP3   OH227678   2.662   0.043   5.819
 9246TIP3    H127679   2.678   0.102   5.745
 9246TIP3    H227680   2.604   0.092   5.877
 9247TIP3   OH227681   1.810   0.768   6.533
 9247TIP3    H127682   1.794   0.859   6.560
 9247TIP3    H227683   1.857   0.729   6.607
 9248TIP3   OH227684   3.785   7.278   0.572
 9248TIP3    H127685   3.732   7.254   0.648
 9248TIP3    H227686   3.864   7.224   0.580
 9249TIP3   OH227687   7.912   6.692   1.763
 9249TIP3    H127688   7.854   6.755   1.806
 9249TIP3    H227689   7.993   6.697   1.813
 9250TIP3   OH227690   4.423   2.865   6.606
 9250TIP3    H127691   4.508   2.820   6.613
 9250TIP3    H227692   4.367   2.803   6.558
 9251TIP3   OH227693   4.614   6.496   6.635
 9251TIP3    H127694   4.701   6.461   6.619
 9251TIP3    H227695   4.566   6.424   6.675
 9252TIP3   OH227696   6.071   4.861   3.999
 9252TIP3    H127697   6.000   4.904   3.952
 9252TIP3    H227698   6.078   4.775   3.957
 9253TIP3   OH227699   7.822   5.640   2.963
 9253TIP3    H127700   7.775   5.563   2.994
 9253TIP3    H227701   7.890   5.605   2.905
 9254TIP3   OH227702   6.676   0.583   1.681
 9254TIP3    H127703   6.615   0.616   1.747
 9254TIP3    H227704   6.747   0.544   1.732
 9255TIP3   OH227705   1.981   2.503   3.422
 9255TIP3    H127706   1.949   2.582   3.466
 9255TIP3    H227707   2.030   2.536   3.346
 9256TIP3   OH227708   1.212   2.094   4.506
 9256TIP3    H127709   1.306   2.076   4.514
 9256TIP3    H227710   1.180   2.090   4.596
 9257TIP3   OH227711   4.496   7.536   1.334
 9257TIP3    H127712   4.504   7.555   1.428
 9257TIP3    H227713   4.485   7.441   1.329
 9258TIP3   OH227714   7.767   3.763   5.615
 9258TIP3    H127715   7.674   3.743   5.609
 9258TIP3    H227716   7.770   3.857   5.637
 9259TIP3   OH227717   0.221   0.443   4.823
 9259TIP3    H127718   0.267   0.363   4.849
 9259TIP3    H227719   0.143   0.412   4.776
 9260TIP3   OH227720   0.399   7.828   6.179
 9260TIP3    H127721   0.414   7.813   6.086
 9260TIP3    H227722   0.304   7.836   6.188
 9261TIP3   OH227723   3.751   1.413   3.461
 9261TIP3    H127724   3.748   1.331   3.412
 9261TIP3    H227725   3.708   1.393   3.544
 9262TIP3   OH227726   3.853   1.464   2.445
 9262TIP3    H127727   3.778   1.520   2.425
 9262TIP3    H227728   3.815   1.378   2.462
 9263TIP3   OH227729   6.358   1.255   6.647
 9263TIP3    H127730   6.279   1.267   6.594
 9263TIP3    H227731   6.329   1.269   6.737
 9264TIP3   OH227732   2.186  -0.008   1.194
 9264TIP3    H127733   2.204   0.086   1.192
 9264TIP3    H227734   2.213  -0.040   1.108
 9265TIP3   OH227735   0.861   6.608   3.962
 9265TIP3    H127736   0.914   6.548   4.014
 9265TIP3    H227737   0.775   6.567   3.956
 9266TIP3   OH227738   5.912   3.277   1.426
 9266TIP3    H127739   5.857   3.244   1.355
 9266TIP3    H227740   5.952   3.356   1.392
 9267TIP3   OH227741   5.813   3.080   4.988
 9267TIP3    H127742   5.803   3.161   4.938
 9267TIP3    H227743   5.735   3.077   5.044
 9268TIP3   OH227744   8.193   5.455   3.082
 9268TIP3    H127745   8.192   5.532   3.025
 9268TIP3    H227746   8.160   5.487   3.166
 9269TIP3   OH227747   6.886   0.014   3.243
 9269TIP3    H127748   6.845   0.101   3.245
 9269TIP3    H227749   6.915   0.003   3.153
 9270TIP3   OH227750   1.000   4.700   5.216
 9270TIP3    H127751   1.033   4.790   5.211
 9270TIP3    H227752   1.010   4.666   5.127
 9271TIP3   OH227753   6.513   5.864   0.906
 9271TIP3    H127754   6.501   5.802   0.834
 9271TIP3    H227755   6.540   5.809   0.980
 9272TIP3   OH227756   2.773   7.779   2.812
 9272TIP3    H127757   2.701   7.737   2.764
 9272TIP3    H227758   2.772   7.870   2.781
 9273TIP3   OH227759   5.500   4.682   0.022
 9273TIP3    H127760   5.502   4.724  -0.064
 9273TIP3    H227761   5.591   4.677   0.049
 9274TIP3   OH227762   0.196   3.656   0.663
 9274TIP3    H127763   0.146   3.689   0.737
 9274TIP3    H227764   0.283   3.636   0.699
 9275TIP3   OH227765   0.327   2.209   0.110
 9275TIP3    H127766   0.371   2.206   0.196
 9275TIP3    H227767   0.312   2.303   0.095
 9276TIP3   OH227768   3.084   3.039   1.708
 9276TIP3    H127769   3.027   3.058   1.783
 9276TIP3    H227770   3.157   2.989   1.745
 9277TIP3   OH227771   0.054   4.949   2.235
 9277TIP3    H127772   0.067   4.886   2.306
 9277TIP3    H227773   0.009   5.022   2.277
 9278TIP3   OH227774   0.872   7.818   2.840
 9278TIP3    H127775   0.854   7.815   2.746
 9278TIP3    H227776   0.929   7.895   2.851
 9279TIP3   OH227777   3.322   4.763   5.428
 9279TIP3    H127778   3.254   4.765   5.360
 9279TIP3    H227779   3.290   4.824   5.495
 9280TIP3   OH227780   6.117   0.619   3.070
 9280TIP3    H127781   6.187   0.553   3.063
 9280TIP3    H227782   6.037   0.571   3.051
 9281TIP3   OH227783   5.428   6.073   0.333
 9281TIP3    H127784   5.336   6.069   0.308
 9281TIP3    H227785   5.475   6.054   0.252
 9282TIP3   OH227786   8.323   7.767   0.198
 9282TIP3    H127787   8.297   7.677   0.175
 9282TIP3    H227788   8.386   7.791   0.130
 9283TIP3   OH227789   6.827   5.253   6.380
 9283TIP3    H127790   6.859   5.336   6.415
 9283TIP3    H227791   6.883   5.235   6.305
 9284TIP3   OH227792   4.171   6.847   3.486
 9284TIP3    H127793   4.223   6.883   3.414
 9284TIP3    H227794   4.177   6.913   3.555
 9285TIP3   OH227795   3.177   3.562   6.819
 9285TIP3    H127796   3.113   3.582   6.887
 9285TIP3    H227797   3.193   3.646   6.776
 9286TIP3   OH227798   4.094   7.912   2.211
 9286TIP3    H127799   4.060   7.968   2.281
 9286TIP3    H227800   4.162   7.860   2.254
 9287TIP3   OH227801   3.976   6.529   3.075
 9287TIP3    H127802   3.931   6.559   3.154
 9287TIP3    H227803   4.000   6.609   3.029
 9288TIP3   OH227804   5.309   7.369   3.352
 9288TIP3    H127805   5.361   7.419   3.288
 9288TIP3    H227806   5.307   7.426   3.429
 9289TIP3   OH227807   0.456   3.807   2.106
 9289TIP3    H127808   0.422   3.804   2.195
 9289TIP3    H227809   0.489   3.719   2.090
 9290TIP3   OH227810   6.372   2.055   4.600
 9290TIP3    H127811   6.450   1.999   4.597
 9290TIP3    H227812   6.300   1.994   4.614
 9291TIP3   OH227813   8.378   2.118   4.715
 9291TIP3    H127814   8.471   2.110   4.736
 9291TIP3    H227815   8.344   2.030   4.726
 9292TIP3   OH227816   0.562   3.557   6.366
 9292TIP3    H127817   0.656   3.567   6.350
 9292TIP3    H227818   0.549   3.584   6.457
 9293TIP3   OH227819   0.330   6.018   3.896
 9293TIP3    H127820   0.379   6.082   3.844
 9293TIP3    H227821   0.372   6.021   3.982
 9294TIP3   OH227822   6.506   6.101   3.097
 9294TIP3    H127823   6.465   6.187   3.106
 9294TIP3    H227824   6.540   6.082   3.184
 9295TIP3   OH227825   4.645   2.688   2.204
 9295TIP3    H127826   4.605   2.610   2.165
 9295TIP3    H227827   4.733   2.659   2.229
 9296TIP3   OH227828   6.006   5.290   2.375
 9296TIP3    H127829   6.022   5.264   2.466
 9296TIP3    H227830   5.922   5.250   2.353
 9297TIP3   OH227831   5.478   1.256   5.307
 9297TIP3    H127832   5.554   1.216   5.265
 9297TIP3    H227833   5.449   1.323   5.245
 9298TIP3   OH227834   7.430   7.226   3.000
 9298TIP3    H127835   7.484   7.149   3.018
 9298TIP3    H227836   7.404   7.215   2.908
 9299TIP3   OH227837   1.687   2.576   6.387
 9299TIP3    H127838   1.700   2.502   6.328
 9299TIP3    H227839   1.646   2.644   6.333
 9300TIP3   OH227840   2.698   0.277   2.877
 9300TIP3    H127841   2.732   0.194   2.912
 9300TIP3    H227842   2.604   0.271   2.890
 9301TIP3   OH227843   3.483   6.320   2.242
 9301TIP3    H127844   3.476   6.363   2.157
 9301TIP3    H227845   3.408   6.262   2.246
 9302TIP3   OH227846   6.031   3.867   3.861
 9302TIP3    H127847   6.039   3.785   3.812
 9302TIP3    H227848   6.017   3.934   3.793
 9303TIP3   OH227849   1.116   3.224   6.183
 9303TIP3    H127850   1.184   3.229   6.117
 9303TIP3    H227851   1.113   3.131   6.208
 9304TIP3   OH227852   0.044   7.397   6.748
 9304TIP3    H127853   0.111   7.329   6.753
 9304TIP3    H227854   0.037   7.417   6.655
 9305TIP3   OH227855   5.192   2.268   0.293
 9305TIP3    H127856   5.238   2.198   0.340
 9305TIP3    H227857   5.186   2.237   0.203
 9306TIP3   OH227858   0.354   6.455   6.619
 9306TIP3    H127859   0.328   6.393   6.687
 9306TIP3    H227860   0.425   6.411   6.573
 9307TIP3   OH227861   3.864   7.564   0.853
 9307TIP3    H127862   3.949   7.606   0.867
 9307TIP3    H227863   3.859   7.550   0.759
 9308TIP3   OH227864   0.854   4.279   5.214
 9308TIP3    H127865   0.861   4.368   5.251
 9308TIP3    H227866   0.774   4.243   5.253
 9309TIP3   OH227867   4.852   3.434   2.985
 9309TIP3    H127868   4.918   3.498   2.958
 9309TIP3    H227869   4.867   3.359   2.927
 9310TIP3   OH227870   3.686   5.381   3.949
 9310TIP3    H127871   3.613   5.425   3.905
 9310TIP3    H227872   3.691   5.424   4.035
 9311TIP3   OH227873   7.685   1.285   4.928
 9311TIP3    H127874   7.668   1.315   5.018
 9311TIP3    H227875   7.713   1.194   4.939
 9312TIP3   OH227876   7.107   1.878   0.271
 9312TIP3    H127877   7.139   1.964   0.296
 9312TIP3    H227878   7.052   1.850   0.345
 9313TIP3   OH227879   1.439   7.321   5.818
 9313TIP3    H127880   1.373   7.334   5.886
 9313TIP3    H227881   1.516   7.289   5.865
 9314TIP3   OH227882   1.262   7.378   6.066
 9314TIP3    H127883   1.301   7.460   6.097
 9314TIP3    H227884   1.169   7.397   6.059
 9315TIP3   OH227885   4.377   5.755   6.791
 9315TIP3    H127886   4.288   5.786   6.778
 9315TIP3    H227887   4.368   5.678   6.847
 9316TIP3   OH227888   1.966   6.759   5.043
 9316TIP3    H127889   2.013   6.831   4.999
 9316TIP3    H227890   1.881   6.756   5.000
 9317TIP3   OH227891   5.564   0.193   1.096
 9317TIP3    H127892   5.510   0.208   1.019
 9317TIP3    H227893   5.654   0.194   1.063
 9318TIP3   OH227894   8.056   3.418   6.040
 9318TIP3    H127895   7.960   3.410   6.046
 9318TIP3    H227896   8.080   3.356   5.971
 9319TIP3   OH227897   8.264   7.068   0.721
 9319TIP3    H127898   8.247   6.977   0.696
 9319TIP3    H227899   8.337   7.063   0.782
 9320TIP3   OH227900   6.377   2.497   5.116
 9320TIP3    H127901   6.472   2.502   5.128
 9320TIP3    H227902   6.359   2.403   5.110
 9321TIP3   OH227903   3.981   0.017   0.366
 9321TIP3    H127904   3.966   0.089   0.428
 9321TIP3    H227905   3.900   0.011   0.316
 9322TIP3   OH227906   0.620   1.373   5.822
 9322TIP3    H127907   0.624   1.285   5.783
 9322TIP3    H227908   0.528   1.383   5.846
 9323TIP3   OH227909   1.203   4.678   1.033
 9323TIP3    H127910   1.179   4.654   1.123
 9323TIP3    H227911   1.174   4.604   0.980
 9324TIP3   OH227912   5.402   4.369   6.072
 9324TIP3    H127913   5.336   4.309   6.106
 9324TIP3    H227914   5.480   4.350   6.124
 9325TIP3   OH227915   4.625   4.787   0.045
 9325TIP3    H127916   4.702   4.824   0.002
 9325TIP3    H227917   4.656   4.761   0.132
 9326TIP3   OH227918   5.717   3.740   6.861
 9326TIP3    H127919   5.775   3.679   6.906
 9326TIP3    H227920   5.685   3.692   6.785
 9327TIP3   OH227921   6.037   1.403   4.796
 9327TIP3    H127922   6.089   1.420   4.718
 9327TIP3    H227923   6.101   1.394   4.866
 9328TIP3   OH227924   7.933   5.134   1.384
 9328TIP3    H127925   7.951   5.170   1.297
 9328TIP3    H227926   7.868   5.194   1.421
 9329TIP3   OH227927   0.072   6.083   3.763
 9329TIP3    H127928   0.152   6.055   3.807
 9329TIP3    H227929   0.036   6.151   3.819
 9330TIP3   OH227930   6.662   7.188   5.177
 9330TIP3    H127931   6.567   7.178   5.173
 9330TIP3    H227932   6.695   7.149   5.096
 9331TIP3   OH227933   5.030   2.043   5.662
 9331TIP3    H127934   4.959   2.107   5.661
 9331TIP3    H227935   5.088   2.071   5.591
 9332TIP3   OH227936   2.128   0.375   6.595
 9332TIP3    H127937   2.164   0.329   6.519
 9332TIP3    H227938   2.035   0.383   6.576
 9333TIP3   OH227939   0.889   5.874   5.031
 9333TIP3    H127940   0.948   5.918   5.092
 9333TIP3    H227941   0.808   5.926   5.034
 9334TIP3   OH227942   7.577   6.504   1.758
 9334TIP3    H127943   7.616   6.570   1.816
 9334TIP3    H227944   7.493   6.484   1.799
 9335TIP3   OH227945   0.720   4.740   2.632
 9335TIP3    H127946   0.719   4.815   2.573
 9335TIP3    H227947   0.628   4.723   2.651
 9336TIP3   OH227948   6.559   5.928   3.328
 9336TIP3    H127949   6.471   5.932   3.367
 9336TIP3    H227950   6.570   5.835   3.307
 9337TIP3   OH227951   1.373   0.547   2.330
 9337TIP3    H127952   1.377   0.559   2.425
 9337TIP3    H227953   1.407   0.459   2.315
 9338TIP3   OH227954   2.962   1.024   1.541
 9338TIP3    H127955   2.937   1.109   1.578
 9338TIP3    H227956   3.024   1.046   1.472
 9339TIP3   OH227957   1.176   3.290   4.932
 9339TIP3    H127958   1.118   3.233   4.982
 9339TIP3    H227959   1.206   3.237   4.859
 9340TIP3   OH227960   1.106   4.427   2.868
 9340TIP3    H127961   1.108   4.371   2.945
 9340TIP3    H227962   1.191   4.470   2.867
 9341TIP3   OH227963   2.303   5.875   1.556
 9341TIP3    H127964   2.304   5.929   1.477
 9341TIP3    H227965   2.284   5.787   1.524
 9342TIP3   OH227966   2.496   7.741   6.182
 9342TIP3    H127967   2.499   7.745   6.086
 9342TIP3    H227968   2.439   7.813   6.208
 9343TIP3   OH227969   3.420   7.041   3.579
 9343TIP3    H127970   3.436   7.044   3.485
 9343TIP3    H227971   3.380   6.956   3.594
 9344TIP3   OH227972   5.424   3.895   6.032
 9344TIP3    H127973   5.339   3.932   6.054
 9344TIP3    H227974   5.435   3.914   5.939
 9345TIP3   OH227975   5.657   7.912   4.667
 9345TIP3    H127976   5.723   7.977   4.643
 9345TIP3    H227977   5.701   7.827   4.656
 9346TIP3   OH227978   2.194   1.917   0.901
 9346TIP3    H127979   2.186   2.010   0.882
 9346TIP3    H227980   2.281   1.907   0.939
 9347TIP3   OH227981   6.436   7.523   2.631
 9347TIP3    H127982   6.524   7.519   2.593
 9347TIP3    H227983   6.377   7.505   2.558
 9348TIP3   OH227984   4.609   6.160   3.989
 9348TIP3    H127985   4.514   6.156   4.000
 9348TIP3    H227986   4.639   6.218   4.058
 9349TIP3   OH227987   2.454   2.914   2.525
 9349TIP3    H127988   2.444   2.819   2.533
 9349TIP3    H227989   2.375   2.950   2.566
 9350TIP3   OH227990   7.545   3.554   0.353
 9350TIP3    H127991   7.470   3.527   0.405
 9350TIP3    H227992   7.610   3.582   0.417
 9351TIP3   OH227993   5.660   2.758   5.802
 9351TIP3    H127994   5.728   2.718   5.747
 9351TIP3    H227995   5.579   2.716   5.774
 9352TIP3   OH227996   8.256   1.456   4.233
 9352TIP3    H127997   8.250   1.407   4.151
 9352TIP3    H227998   8.285   1.392   4.298
 9353TIP3   OH227999   7.267   6.082   3.491
 9353TIP3    H128000   7.321   6.112   3.418
 9353TIP3    H228001   7.319   6.015   3.535
 9354TIP3   OH228002   4.516   7.487   4.557
 9354TIP3    H128003   4.514   7.512   4.465
 9354TIP3    H228004   4.595   7.435   4.566
 9355TIP3   OH228005   0.901   0.835   0.985
 9355TIP3    H128006   0.875   0.882   1.064
 9355TIP3    H228007   0.844   0.758   0.983
 9356TIP3   OH228008   7.997   4.657   4.915
 9356TIP3    H128009   7.935   4.648   4.987
 9356TIP3    H228010   7.995   4.573   4.869
 9357TIP3   OH228011   1.235   5.054   3.386
 9357TIP3    H128012   1.308   5.113   3.368
 9357TIP3    H228013   1.157   5.110   3.382
 9358TIP3   OH228014   7.582   0.966   5.733
 9358TIP3    H128015   7.629   0.999   5.657
 9358TIP3    H228016   7.575   1.042   5.791
 9359TIP3   OH228017   4.862   7.646   4.717
 9359TIP3    H128018   4.943   7.658   4.666
 9359TIP3    H228019   4.792   7.662   4.654
 9360TIP3   OH228020   5.557   6.949   3.053
 9360TIP3    H128021   5.569   6.978   3.143
 9360TIP3    H228022   5.646   6.939   3.019
 9361TIP3   OH228023   1.884   7.594   2.118
 9361TIP3    H128024   1.918   7.596   2.207
 9361TIP3    H228025   1.961   7.605   2.062
 9362TIP3   OH228026   4.129   1.822   2.751
 9362TIP3    H128027   4.171   1.736   2.757
 9362TIP3    H228028   4.038   1.803   2.732
 9363TIP3   OH228029   4.251   5.368   0.029
 9363TIP3    H128030   4.283   5.297   0.085
 9363TIP3    H228031   4.313   5.440   0.044
 9364TIP3   OH228032   8.005   7.567   6.681
 9364TIP3    H128033   8.047   7.647   6.649
 9364TIP3    H228034   7.934   7.551   6.619
 9365TIP3   OH228035   4.796   1.122   2.545
 9365TIP3    H128036   4.841   1.117   2.461
 9365TIP3    H228037   4.855   1.079   2.607
 9366TIP3   OH228038   7.835   7.036   1.725
 9366TIP3    H128039   7.787   7.106   1.681
 9366TIP3    H228040   7.925   7.043   1.692
 9367TIP3   OH228041   4.338   4.336   2.356
 9367TIP3    H128042   4.262   4.279   2.339
 9367TIP3    H228043   4.346   4.389   2.277
 9368TIP3   OH228044   1.343   5.507   4.245
 9368TIP3    H128045   1.430   5.522   4.207
 9368TIP3    H228046   1.298   5.590   4.234
 9369TIP3   OH228047   3.313   7.427   0.434
 9369TIP3    H128048   3.304   7.332   0.421
 9369TIP3    H228049   3.320   7.463   0.346
 9370TIP3   OH228050   3.190   3.605   4.901
 9370TIP3    H128051   3.213   3.555   4.979
 9370TIP3    H228052   3.264   3.590   4.841
 9371TIP3   OH228053   6.319   5.996   5.171
 9371TIP3    H128054   6.226   5.980   5.188
 9371TIP3    H228055   6.323   6.086   5.140
 9372TIP3   OH228056   2.439   1.253   4.269
 9372TIP3    H128057   2.480   1.231   4.185
 9372TIP3    H228058   2.460   1.179   4.326
 9373TIP3   OH228059   0.088   6.772   3.451
 9373TIP3    H128060   0.006   6.789   3.498
 9373TIP3    H228061   0.156   6.776   3.519
 9374TIP3   OH228062   4.292   4.060   0.395
 9374TIP3    H128063   4.237   4.027   0.466
 9374TIP3    H228064   4.381   4.034   0.420
 9375TIP3   OH228065   5.835   6.148   1.068
 9375TIP3    H128066   5.906   6.172   1.128
 9375TIP3    H228067   5.827   6.053   1.079
 9376TIP3   OH228068   7.612   1.378   5.181
 9376TIP3    H128069   7.531   1.417   5.213
 9376TIP3    H228070   7.646   1.330   5.257
 9377TIP3   OH228071   1.796   0.108   0.323
 9377TIP3    H128072   1.739   0.064   0.387
 9377TIP3    H228073   1.825   0.187   0.367
 9378TIP3   OH228074   5.210   0.461   5.340
 9378TIP3    H128075   5.181   0.499   5.423
 9378TIP3    H228076   5.279   0.400   5.364
 9379TIP3   OH228077   6.636   7.289   1.772
 9379TIP3    H128078   6.611   7.357   1.710
 9379TIP3    H228079   6.582   7.306   1.850
 9380TIP3   OH228080   4.222   5.659   2.917
 9380TIP3    H128081   4.248   5.736   2.865
 9380TIP3    H228082   4.280   5.589   2.887
 9381TIP3   OH228083   2.713   2.313   5.280
 9381TIP3    H128084   2.714   2.390   5.338
 9381TIP3    H228085   2.805   2.297   5.261
 9382TIP3   OH228086   1.544   6.484   5.639
 9382TIP3    H128087   1.573   6.555   5.695
 9382TIP3    H228088   1.597   6.492   5.560
 9383TIP3   OH228089   0.400   1.861   3.830
 9383TIP3    H128090   0.421   1.936   3.774
 9383TIP3    H228091   0.329   1.892   3.887
 9384TIP3   OH228092   1.672   7.249   5.911
 9384TIP3    H128093   1.700   7.242   6.002
 9384TIP3    H228094   1.749   7.284   5.865
 9385TIP3   OH228095   6.795   4.794   6.145
 9385TIP3    H128096   6.865   4.747   6.100
 9385TIP3    H228097   6.725   4.730   6.154
 9386TIP3   OH228098   4.636   5.603   2.425
 9386TIP3    H128099   4.646   5.519   2.470
 9386TIP3    H228100   4.636   5.580   2.332
 9387TIP3   OH228101   3.381   0.752   5.889
 9387TIP3    H128102   3.452   0.784   5.834
 9387TIP3    H228103   3.424   0.698   5.955
 9388TIP3   OH228104   2.595   7.302   3.907
 9388TIP3    H128105   2.515   7.335   3.948
 9388TIP3    H228106   2.590   7.207   3.918
 9389TIP3   OH228107   1.204   1.515   3.779
 9389TIP3    H128108   1.112   1.532   3.801
 9389TIP3    H228109   1.244   1.602   3.774
 9390TIP3   OH228110   4.395   1.169   1.906
 9390TIP3    H128111   4.427   1.089   1.865
 9390TIP3    H228112   4.314   1.189   1.859
 9391TIP3   OH228113   6.271   3.717   0.411
 9391TIP3    H128114   6.178   3.739   0.400
 9391TIP3    H228115   6.273   3.622   0.415
 9392TIP3   OH228116   4.056   4.062   3.327
 9392TIP3    H128117   3.992   4.056   3.397
 9392TIP3    H228118   4.136   4.091   3.370
 9393TIP3   OH228119   4.918   0.100   6.320
 9393TIP3    H128120   4.880   0.057   6.243
 9393TIP3    H228121   4.889   0.190   6.315
 9394TIP3   OH228122   5.448   0.621   0.250
 9394TIP3    H128123   5.461   0.677   0.174
 9394TIP3    H228124   5.477   0.674   0.324
 9395TIP3   OH228125   2.778   2.320   6.723
 9395TIP3    H128126   2.683   2.337   6.718
 9395TIP3    H228127   2.801   2.287   6.636
 9396TIP3   OH228128   2.150   5.499   3.800
 9396TIP3    H128129   2.108   5.536   3.722
 9396TIP3    H228130   2.243   5.505   3.783
 9397TIP3   OH228131   7.014   5.081   4.945
 9397TIP3    H128132   6.995   5.113   4.857
 9397TIP3    H228133   6.944   5.018   4.963
 9398TIP3   OH228134   0.430   7.582   5.272
 9398TIP3    H128135   0.428   7.664   5.222
 9398TIP3    H228136   0.492   7.527   5.224
 9399TIP3   OH228137   0.385   6.924   0.463
 9399TIP3    H128138   0.421   6.846   0.504
 9399TIP3    H228139   0.290   6.910   0.464
 9400TIP3   OH228140   4.041   1.201   2.219
 9400TIP3    H128141   4.084   1.227   2.137
 9400TIP3    H228142   3.987   1.125   2.194
 9401TIP3   OH228143   3.493   5.384   6.197
 9401TIP3    H128144   3.522   5.362   6.285
 9401TIP3    H228145   3.461   5.474   6.203
 9402TIP3   OH228146   5.285   5.720   3.841
 9402TIP3    H128147   5.378   5.717   3.820
 9402TIP3    H228148   5.245   5.657   3.780
 9403TIP3   OH228149   2.262   1.307   1.802
 9403TIP3    H128150   2.274   1.397   1.832
 9403TIP3    H228151   2.350   1.275   1.786
 9404TIP3   OH228152   1.794   3.491   0.415
 9404TIP3    H128153   1.889   3.480   0.414
 9404TIP3    H228154   1.774   3.519   0.504
 9405TIP3   OH228155   1.271   6.593   5.550
 9405TIP3    H128156   1.293   6.685   5.566
 9405TIP3    H228157   1.350   6.545   5.575
 9406TIP3   OH228158   7.534   2.324   5.657
 9406TIP3    H128159   7.552   2.234   5.628
 9406TIP3    H228160   7.439   2.333   5.648
 9407TIP3   OH228161   1.005   0.656   6.637
 9407TIP3    H128162   1.024   0.743   6.601
 9407TIP3    H228163   1.080   0.602   6.610
 9408TIP3   OH228164   6.939   6.634   3.964
 9408TIP3    H128165   7.023   6.680   3.970
 9408TIP3    H228166   6.875   6.703   3.948
 9409TIP3   OH228167   4.804   1.276   1.381
 9409TIP3    H128168   4.847   1.222   1.315
 9409TIP3    H228169   4.867   1.345   1.401
 9410TIP3   OH228170   6.061   7.682   0.813
 9410TIP3    H128171   5.995   7.639   0.867
 9410TIP3    H228172   6.102   7.610   0.764
 9411TIP3   OH228173   4.618   6.765   6.625
 9411TIP3    H128174   4.649   6.784   6.713
 9411TIP3    H228175   4.597   6.672   6.626
 9412TIP3   OH228176   6.037   2.499   3.639
 9412TIP3    H128177   6.036   2.576   3.582
 9412TIP3    H228178   5.989   2.432   3.591
 9413TIP3   OH228179   6.427   7.711   3.444
 9413TIP3    H128180   6.507   7.669   3.413
 9413TIP3    H228181   6.453   7.757   3.524
 9414TIP3   OH228182   6.903   5.122   5.247
 9414TIP3    H128183   6.982   5.105   5.195
 9414TIP3    H228184   6.937   5.148   5.333
 9415TIP3   OH228185   0.370   3.230   5.930
 9415TIP3    H128186   0.326   3.228   6.015
 9415TIP3    H228187   0.370   3.139   5.901
 9416TIP3   OH228188   0.298   7.551   4.955
 9416TIP3    H128189   0.242   7.628   4.971
 9416TIP3    H228190   0.386   7.581   4.978
 9417TIP3   OH228191   3.133   3.375   3.545
 9417TIP3    H128192   3.184   3.444   3.588
 9417TIP3    H228193   3.057   3.363   3.601
 9418TIP3   OH228194   2.245   2.678   2.020
 9418TIP3    H128195   2.241   2.681   2.115
 9418TIP3    H228196   2.212   2.763   1.991
 9419TIP3   OH228197   4.819   2.086   3.678
 9419TIP3    H128198   4.908   2.065   3.650
 9419TIP3    H228199   4.790   2.008   3.725
 9420TIP3   OH228200   6.724   1.614   5.400
 9420TIP3    H128201   6.640   1.653   5.374
 9420TIP3    H228202   6.730   1.630   5.494
 9421TIP3   OH228203   8.112   7.702   1.921
 9421TIP3    H128204   8.148   7.698   1.832
 9421TIP3    H228205   8.162   7.772   1.963
 9422TIP3   OH228206   3.013   0.422   6.090
 9422TIP3    H128207   3.077   0.470   6.143
 9422TIP3    H228208   2.995   0.481   6.016
 9423TIP3   OH228209   7.838   4.710   6.362
 9423TIP3    H128210   7.822   4.624   6.401
 9423TIP3    H228211   7.864   4.692   6.272
 9424TIP3   OH228212   7.884   5.144   2.987
 9424TIP3    H128213   7.816   5.081   3.009
 9424TIP3    H228214   7.966   5.094   2.994
 9425TIP3   OH228215   2.741   6.744   1.406
 9425TIP3    H128216   2.820   6.748   1.459
 9425TIP3    H228217   2.744   6.823   1.352
 9426TIP3   OH228218   2.047   1.029   5.394
 9426TIP3    H128219   2.091   0.959   5.347
 9426TIP3    H228220   1.961   0.993   5.416
 9427TIP3   OH228221   6.401   6.191   2.838
 9427TIP3    H128222   6.426   6.133   2.910
 9427TIP3    H228223   6.410   6.279   2.875
 9428TIP3   OH228224   0.669   6.053   3.983
 9428TIP3    H128225   0.644   6.084   3.896
 9428TIP3    H228226   0.705   6.130   4.027
 9429TIP3   OH228227   6.939   0.368   0.087
 9429TIP3    H128228   6.987   0.288   0.107
 9429TIP3    H228229   6.994   0.413   0.022
 9430TIP3   OH228230   5.635   0.206   0.095
 9430TIP3    H128231   5.649   0.227   0.003
 9430TIP3    H228232   5.666   0.283   0.143
 9431TIP3   OH228233   0.470   6.241   3.827
 9431TIP3    H128234   0.531   6.190   3.774
 9431TIP3    H228235   0.444   6.314   3.771
 9432TIP3   OH228236   0.592   2.999   4.772
 9432TIP3    H128237   0.604   3.093   4.785
 9432TIP3    H228238   0.602   2.961   4.859
 9433TIP3   OH228239   2.761   7.171   6.724
 9433TIP3    H128240   2.733   7.261   6.742
 9433TIP3    H228241   2.704   7.117   6.779
 9434TIP3   OH228242   7.157   5.195   4.327
 9434TIP3    H128243   7.208   5.115   4.314
 9434TIP3    H228244   7.111   5.181   4.410
 9435TIP3   OH228245   8.061   2.600   4.976
 9435TIP3    H128246   8.008   2.522   4.994
 9435TIP3    H228247   8.021   2.670   5.027
 9436TIP3   OH228248   5.268   2.205   2.324
 9436TIP3    H128249   5.175   2.225   2.318
 9436TIP3    H228250   5.291   2.226   2.415
 9437TIP3   OH228251   0.100   7.507   4.765
 9437TIP3    H128252   0.112   7.574   4.698
 9437TIP3    H228253   0.178   7.514   4.820
 9438TIP3   OH228254   7.686   3.880   5.950
 9438TIP3    H128255   7.685   3.833   5.866
 9438TIP3    H228256   7.673   3.811   6.015
 9439TIP3   OH228257   5.232   7.601   3.202
 9439TIP3    H128258   5.160   7.661   3.220
 9439TIP3    H228259   5.198   7.541   3.136
 9440TIP3   OH228260   8.359   5.933   6.015
 9440TIP3    H128261   8.310   6.004   5.974
 9440TIP3    H228262   8.420   5.904   5.947
 9441TIP3   OH228263   7.946   4.999   2.073
 9441TIP3    H128264   7.925   4.987   1.980
 9441TIP3    H228265   8.036   4.970   2.081
 9442TIP3   OH228266   4.454   0.901   5.526
 9442TIP3    H128267   4.543   0.869   5.536
 9442TIP3    H228268   4.425   0.922   5.614
 9443TIP3   OH228269   4.225   2.094   6.503
 9443TIP3    H128270   4.285   2.167   6.521
 9443TIP3    H228271   4.181   2.078   6.586
 9444TIP3   OH228272   3.358   6.107   0.797
 9444TIP3    H128273   3.346   6.032   0.855
 9444TIP3    H228274   3.313   6.083   0.717
 9445TIP3   OH228275   5.196   1.175   4.171
 9445TIP3    H128276   5.109   1.212   4.182
 9445TIP3    H228277   5.248   1.216   4.240
 9446TIP3   OH228278   2.371   0.600   2.871
 9446TIP3    H128279   2.389   0.512   2.838
 9446TIP3    H228280   2.453   0.647   2.859
 9447TIP3   OH228281   5.522   4.749   4.531
 9447TIP3    H128282   5.484   4.778   4.448
 9447TIP3    H228283   5.569   4.826   4.564
 9448TIP3   OH228284   2.905   5.826   0.938
 9448TIP3    H128285   2.823   5.791   0.904
 9448TIP3    H228286   2.936   5.759   0.999
 9449TIP3   OH228287   3.404   6.573   2.946
 9449TIP3    H128288   3.310   6.575   2.963
 9449TIP3    H228289   3.417   6.634   2.873
 9450TIP3   OH228290   1.321   5.186   5.164
 9450TIP3    H128291   1.389   5.236   5.210
 9450TIP3    H228292   1.340   5.095   5.183
 9451TIP3   OH228293   0.881   2.594   0.196
 9451TIP3    H128294   0.970   2.581   0.165
 9451TIP3    H228295   0.884   2.676   0.245
 9452TIP3   OH228296   5.761   7.118   1.927
 9452TIP3    H128297   5.839   7.076   1.891
 9452TIP3    H228298   5.691   7.094   1.866
 9453TIP3   OH228299   4.925   5.401   2.594
 9453TIP3    H128300   4.973   5.352   2.528
 9453TIP3    H228301   4.838   5.360   2.596
 9454TIP3   OH228302   4.814   0.509   5.801
 9454TIP3    H128303   4.827   0.598   5.835
 9454TIP3    H228304   4.892   0.492   5.749
 9455TIP3   OH228305   0.727   4.502   4.138
 9455TIP3    H128306   0.792   4.468   4.199
 9455TIP3    H228307   0.645   4.502   4.187
 9456TIP3   OH228308   4.602   2.282   4.279
 9456TIP3    H128309   4.610   2.304   4.372
 9456TIP3    H228310   4.666   2.213   4.265
 9457TIP3   OH228311   0.680   5.509   0.576
 9457TIP3    H128312   0.722   5.434   0.534
 9457TIP3    H228313   0.586   5.490   0.571
 9458TIP3   OH228314   1.229   1.411   0.944
 9458TIP3    H128315   1.134   1.412   0.934
 9458TIP3    H228316   1.245   1.348   1.015
 9459TIP3   OH228317   8.270   2.465   5.106
 9459TIP3    H128318   8.322   2.423   5.037
 9459TIP3    H228319   8.205   2.517   5.059
 9460TIP3   OH228320   1.758   4.510   0.625
 9460TIP3    H128321   1.678   4.473   0.589
 9460TIP3    H228322   1.818   4.515   0.551
 9461TIP3   OH228323   6.248   1.952   0.234
 9461TIP3    H128324   6.249   1.858   0.255
 9461TIP3    H228325   6.322   1.988   0.282
 9462TIP3   OH228326   4.090   6.120   4.404
 9462TIP3    H128327   4.171   6.112   4.453
 9462TIP3    H228328   4.063   6.212   4.415
 9463TIP3   OH228329   5.768   6.478   5.046
 9463TIP3    H128330   5.801   6.420   4.978
 9463TIP3    H228331   5.773   6.565   5.008
 9464TIP3   OH228332   3.728   1.274   3.016
 9464TIP3    H128333   3.646   1.259   2.969
 9464TIP3    H228334   3.796   1.258   2.951
 9465TIP3   OH228335   5.448   7.094   2.475
 9465TIP3    H128336   5.385   7.161   2.500
 9465TIP3    H228337   5.482   7.123   2.390
 9466TIP3   OH228338   8.247   1.960   2.986
 9466TIP3    H128339   8.294   1.996   3.061
 9466TIP3    H228340   8.164   1.929   3.022
 9467TIP3   OH228341   4.436   4.388   1.887
 9467TIP3    H128342   4.429   4.457   1.822
 9467TIP3    H228343   4.529   4.365   1.889
 9468TIP3   OH228344   2.669   5.055   0.475
 9468TIP3    H128345   2.644   5.138   0.516
 9468TIP3    H228346   2.587   5.020   0.441
 9469TIP3   OH228347   6.483   0.630   2.990
 9469TIP3    H128348   6.510   0.543   3.021
 9469TIP3    H228349   6.418   0.659   3.053
 9470TIP3   OH228350   3.444   4.807   0.959
 9470TIP3    H128351   3.408   4.719   0.955
 9470TIP3    H228352   3.535   4.795   0.987
 9471TIP3   OH228353   1.642   3.863   0.614
 9471TIP3    H128354   1.697   3.786   0.623
 9471TIP3    H228355   1.555   3.834   0.644
 9472TIP3   OH228356   2.454   0.399   0.486
 9472TIP3    H128357   2.491   0.316   0.516
 9472TIP3    H228358   2.471   0.400   0.392
 9473TIP3   OH228359   3.485   3.202   1.141
 9473TIP3    H128360   3.453   3.222   1.230
 9473TIP3    H228361   3.570   3.246   1.136
 9474TIP3   OH228362   5.470   2.670   4.895
 9474TIP3    H128363   5.483   2.765   4.902
 9474TIP3    H228364   5.376   2.658   4.906
 9475TIP3   OH228365   6.621   6.422   6.687
 9475TIP3    H128366   6.628   6.503   6.737
 9475TIP3    H228367   6.529   6.398   6.692
 9476TIP3   OH228368   2.722   5.436   5.668
 9476TIP3    H128369   2.689   5.474   5.586
 9476TIP3    H228370   2.808   5.401   5.644
 9477TIP3   OH228371   3.394   7.540   4.038
 9477TIP3    H128372   3.366   7.626   4.069
 9477TIP3    H228373   3.478   7.556   3.996
 9478TIP3   OH228374   4.657   7.322   6.276
 9478TIP3    H128375   4.612   7.303   6.358
 9478TIP3    H228376   4.645   7.416   6.263
 9479TIP3   OH228377   6.747   4.523   0.288
 9479TIP3    H128378   6.832   4.481   0.300
 9479TIP3    H228379   6.685   4.450   0.289
 9480TIP3   OH228380   0.325   6.584   6.072
 9480TIP3    H128381   0.380   6.609   6.146
 9480TIP3    H228382   0.278   6.664   6.049
 9481TIP3   OH228383   0.074   4.068   0.912
 9481TIP3    H128384   0.125   4.072   0.993
 9481TIP3    H228385  -0.013   4.100   0.936
 9482TIP3   OH228386   2.189   4.537   4.019
 9482TIP3    H128387   2.122   4.538   3.950
 9482TIP3    H228388   2.256   4.477   3.986
 9483TIP3   OH228389   2.308   4.291   2.529
 9483TIP3    H128390   2.232   4.268   2.475
 9483TIP3    H228391   2.276   4.285   2.619
 9484TIP3   OH228392   1.847   1.776   6.452
 9484TIP3    H128393   1.874   1.864   6.428
 9484TIP3    H228394   1.756   1.786   6.482
 9485TIP3   OH228395   2.341   7.865   4.090
 9485TIP3    H128396   2.296   7.829   4.166
 9485TIP3    H228397   2.333   7.960   4.100
 9486TIP3   OH228398   3.394   1.390   3.523
 9486TIP3    H128399   3.345   1.335   3.583
 9486TIP3    H228400   3.350   1.379   3.438
 9487TIP3   OH228401   4.550   1.154   1.124
 9487TIP3    H128402   4.507   1.090   1.180
 9487TIP3    H228403   4.501   1.235   1.138
 9488TIP3   OH228404   2.887   0.391   5.739
 9488TIP3    H128405   2.924   0.479   5.732
 9488TIP3    H228406   2.962   0.335   5.757
 9489TIP3   OH228407   1.917   6.671   4.013
 9489TIP3    H128408   1.971   6.676   3.934
 9489TIP3    H228409   1.978   6.690   4.085
 9490TIP3   OH228410   7.027   6.682   6.070
 9490TIP3    H128411   7.037   6.589   6.089
 9490TIP3    H228412   7.110   6.709   6.032
 9491TIP3   OH228413   3.612   5.443   1.337
 9491TIP3    H128414   3.608   5.408   1.426
 9491TIP3    H228415   3.676   5.387   1.293
 9492TIP3   OH228416   0.150   0.582   0.352
 9492TIP3    H128417   0.197   0.618   0.277
 9492TIP3    H228418   0.136   0.490   0.331
 9493TIP3   OH228419   6.901   6.428   4.505
 9493TIP3    H128420   6.930   6.408   4.416
 9493TIP3    H228421   6.906   6.523   4.512
 9494TIP3   OH228422   3.984   5.138   5.826
 9494TIP3    H128423   3.944   5.223   5.805
 9494TIP3    H228424   3.945   5.113   5.910
 9495TIP3   OH228425   0.221   3.743   1.370
 9495TIP3    H128426   0.127   3.758   1.380
 9495TIP3    H228427   0.250   3.713   1.456
 9496TIP3   OH228428   4.211   4.613   5.796
 9496TIP3    H128429   4.280   4.551   5.773
 9496TIP3    H228430   4.258   4.693   5.819
 9497TIP3   OH228431   7.042   6.806   6.343
 9497TIP3    H128432   7.083   6.737   6.397
 9497TIP3    H228433   7.051   6.774   6.253
 9498TIP3   OH228434   2.295   2.053   2.136
 9498TIP3    H128435   2.220   2.061   2.195
 9498TIP3    H228436   2.257   2.047   2.049
 9499TIP3   OH228437   4.963   7.022   6.800
 9499TIP3    H128438   5.044   6.973   6.809
 9499TIP3    H228439   4.990   7.114   6.805
 9500TIP3   OH228440   4.829   2.570   6.278
 9500TIP3    H128441   4.766   2.637   6.302
 9500TIP3    H228442   4.881   2.609   6.208
 9501TIP3   OH228443   2.617   4.476   1.639
 9501TIP3    H128444   2.707   4.467   1.608
 9501TIP3    H228445   2.625   4.493   1.733
 9502TIP3   OH228446   3.824   6.028   5.846
 9502TIP3    H128447   3.911   6.009   5.811
 9502TIP3    H228448   3.823   5.986   5.932
 9503TIP3   OH228449   1.436   0.103   3.376
 9503TIP3    H128450   1.368   0.123   3.440
 9503TIP3    H228451   1.506   0.165   3.394
 9504TIP3   OH228452   6.781   0.585   0.102
 9504TIP3    H128453   6.846   0.620   0.042
 9504TIP3    H228454   6.816   0.500   0.129
 9505TIP3   OH228455   1.282   2.841   3.082
 9505TIP3    H128456   1.248   2.893   3.010
 9505TIP3    H228457   1.213   2.778   3.102
 9506TIP3   OH228458   3.298   4.261   1.027
 9506TIP3    H128459   3.277   4.181   1.076
 9506TIP3    H228460   3.394   4.263   1.026
 9507TIP3   OH228461   0.169   5.843   4.804
 9507TIP3    H128462   0.188   5.816   4.714
 9507TIP3    H228463   0.088   5.796   4.826
 9508TIP3   OH228464   4.515   7.567   1.609
 9508TIP3    H128465   4.459   7.490   1.602
 9508TIP3    H228466   4.604   7.533   1.608
 9509TIP3   OH228467   7.380   1.626   3.541
 9509TIP3    H128468   7.375   1.694   3.607
 9509TIP3    H228469   7.473   1.601   3.538
 9510TIP3   OH228470   3.496   1.242   4.551
 9510TIP3    H128471   3.434   1.279   4.614
 9510TIP3    H228472   3.455   1.256   4.466
 9511TIP3   OH228473   0.046   6.168   1.079
 9511TIP3    H128474  -0.038   6.156   1.035
 9511TIP3    H228475   0.109   6.178   1.008
 9512TIP3   OH228476   3.974   3.010   3.403
 9512TIP3    H128477   3.883   3.025   3.428
 9512TIP3    H228478   3.988   2.916   3.416
 9513TIP3   OH228479   7.374   3.706   6.107
 9513TIP3    H128480   7.385   3.645   6.034
 9513TIP3    H228481   7.323   3.658   6.172
 9514TIP3   OH228482   5.905   5.624   1.143
 9514TIP3    H128483   5.930   5.537   1.175
 9514TIP3    H228484   5.846   5.659   1.210
 9515TIP3   OH228485   3.311   3.736   1.215
 9515TIP3    H128486   3.267   3.713   1.296
 9515TIP3    H228487   3.247   3.717   1.146
 9516TIP3   OH228488   5.209   3.803   1.797
 9516TIP3    H128489   5.296   3.820   1.833
 9516TIP3    H228490   5.208   3.851   1.714
 9517TIP3   OH228491   5.104   3.934   3.671
 9517TIP3    H128492   5.020   3.905   3.635
 9517TIP3    H228493   5.154   3.853   3.681
 9518TIP3   OH228494   3.727   7.724   5.197
 9518TIP3    H128495   3.747   7.793   5.133
 9518TIP3    H228496   3.761   7.644   5.158
 9519TIP3   OH228497   6.221   6.328   1.165
 9519TIP3    H128498   6.250   6.285   1.084
 9519TIP3    H228499   6.302   6.343   1.214
 9520TIP3   OH228500   3.434   3.596   5.409
 9520TIP3    H128501   3.520   3.557   5.397
 9520TIP3    H228502   3.396   3.550   5.484
 9521TIP3   OH228503   3.649   2.466   0.113
 9521TIP3    H128504   3.603   2.478   0.196
 9521TIP3    H228505   3.647   2.552   0.071
 9522TIP3   OH228506   4.595   2.240   5.536
 9522TIP3    H128507   4.562   2.156   5.504
 9522TIP3    H228508   4.539   2.305   5.494
 9523TIP3   OH228509   0.992   2.510   2.009
 9523TIP3    H128510   0.946   2.434   2.044
 9523TIP3    H228511   1.055   2.474   1.947
 9524TIP3   OH228512   6.815   0.075   1.059
 9524TIP3    H128513   6.902   0.104   1.031
 9524TIP3    H228514   6.762   0.078   0.980
 9525TIP3   OH228515   0.789   5.260   4.537
 9525TIP3    H128516   0.849   5.313   4.588
 9525TIP3    H228517   0.748   5.321   4.475
 9526TIP3   OH228518   1.658   6.713   2.450
 9526TIP3    H128519   1.615   6.740   2.369
 9526TIP3    H228520   1.747   6.691   2.424
 9527TIP3   OH228521   3.416   1.044   1.714
 9527TIP3    H128522   3.450   1.104   1.781
 9527TIP3    H228523   3.444   1.082   1.631
 9528TIP3   OH228524   4.028   1.190   4.423
 9528TIP3    H128525   4.086   1.114   4.424
 9528TIP3    H228526   3.943   1.157   4.450
 9529TIP3   OH228527   7.669   5.858   3.494
 9529TIP3    H128528   7.759   5.866   3.527
 9529TIP3    H228529   7.676   5.798   3.420
 9530TIP3   OH228530   6.807   5.157   0.827
 9530TIP3    H128531   6.856   5.239   0.827
 9530TIP3    H228532   6.745   5.167   0.899
 9531TIP3   OH228533   3.739   6.289   3.099
 9531TIP3    H128534   3.747   6.195   3.085
 9531TIP3    H228535   3.780   6.328   3.022
 9532TIP3   OH228536   0.495   0.160   4.260
 9532TIP3    H128537   0.515   0.243   4.218
 9532TIP3    H228538   0.575   0.137   4.308
 9533TIP3   OH228539   2.815   3.957   5.117
 9533TIP3    H128540   2.863   3.881   5.083
 9533TIP3    H228541   2.880   4.027   5.120
 9534TIP3   OH228542   2.636   7.834   5.111
 9534TIP3    H128543   2.567   7.813   5.048
 9534TIP3    H228544   2.666   7.921   5.086
 9535TIP3   OH228545   0.388   0.920   1.075
 9535TIP3    H128546   0.451   0.966   1.019
 9535TIP3    H228547   0.306   0.922   1.025
 9536TIP3   OH228548   8.383   5.303   4.322
 9536TIP3    H128549   8.344   5.242   4.259
 9536TIP3    H228550   8.445   5.250   4.372
 9537TIP3   OH228551   1.959   7.282   6.380
 9537TIP3    H128552   2.054   7.271   6.380
 9537TIP3    H228553   1.938   7.315   6.467
 9538TIP3   OH228554   2.260   5.656   0.269
 9538TIP3    H128555   2.223   5.635   0.354
 9538TIP3    H228556   2.343   5.700   0.288
 9539TIP3   OH228557   3.649   5.468   3.237
 9539TIP3    H128558   3.713   5.430   3.297
 9539TIP3    H228559   3.636   5.558   3.269
 9540TIP3   OH228560   2.318   6.723   3.182
 9540TIP3    H128561   2.314   6.778   3.260
 9540TIP3    H228562   2.251   6.758   3.124
 9541TIP3   OH228563   1.100   1.607   3.054
 9541TIP3    H128564   1.151   1.551   2.996
 9541TIP3    H228565   1.061   1.546   3.117
 9542TIP3   OH228566   6.631   3.630   5.198
 9542TIP3    H128567   6.648   3.611   5.106
 9542TIP3    H228568   6.597   3.548   5.234
 9543TIP3   OH228569   5.140   0.789   0.271
 9543TIP3    H128570   5.188   0.871   0.281
 9543TIP3    H228571   5.189   0.726   0.325
 9544TIP3   OH228572   3.471   0.795   4.020
 9544TIP3    H128573   3.394   0.772   3.968
 9544TIP3    H228574   3.435   0.816   4.107
 9545TIP3   OH228575   5.659   7.004   1.703
 9545TIP3    H128576   5.633   6.928   1.652
 9545TIP3    H228577   5.718   7.053   1.645
 9546TIP3   OH228578   3.173   1.348   3.027
 9546TIP3    H128579   3.217   1.432   3.012
 9546TIP3    H228580   3.084   1.362   2.993
 9547TIP3   OH228581   7.499   6.964   4.204
 9547TIP3    H128582   7.423   7.020   4.190
 9547TIP3    H228583   7.495   6.900   4.133
 9548TIP3   OH228584   2.437   6.294   4.711
 9548TIP3    H128585   2.424   6.379   4.752
 9548TIP3    H228586   2.362   6.285   4.651
 9549TIP3   OH228587   1.327   0.219   4.086
 9549TIP3    H128588   1.307   0.234   4.178
 9549TIP3    H228589   1.328   0.123   4.076
 9550TIP3   OH228590   5.455   2.146   0.159
 9550TIP3    H128591   5.453   2.112   0.249
 9550TIP3    H228592   5.412   2.077   0.108
 9551TIP3   OH228593   1.031   1.788   2.149
 9551TIP3    H128594   1.109   1.733   2.160
 9551TIP3    H228595   1.052   1.845   2.075
 9552TIP3   OH228596   7.135   6.137   2.623
 9552TIP3    H128597   7.145   6.200   2.552
 9552TIP3    H228598   7.165   6.184   2.701
 9553TIP3   OH228599   6.108   0.856   1.415
 9553TIP3    H128600   6.191   0.862   1.464
 9553TIP3    H228601   6.134   0.828   1.328
 9554TIP3   OH228602   7.378   7.147   6.182
 9554TIP3    H128603   7.440   7.204   6.227
 9554TIP3    H228604   7.333   7.100   6.252
 9555TIP3   OH228605   2.738   7.584   5.677
 9555TIP3    H128606   2.761   7.591   5.770
 9555TIP3    H228607   2.668   7.648   5.665
 9556TIP3   OH228608   6.307   5.695   0.205
 9556TIP3    H128609   6.297   5.789   0.188
 9556TIP3    H228610   6.274   5.683   0.293
 9557TIP3   OH228611   6.404   7.096   6.549
 9557TIP3    H128612   6.331   7.050   6.507
 9557TIP3    H228613   6.450   7.139   6.477
 9558TIP3   OH228614   3.974   5.153   3.753
 9558TIP3    H128615   4.066   5.130   3.740
 9558TIP3    H228616   3.973   5.249   3.754
 9559TIP3   OH228617   5.255   6.870   0.919
 9559TIP3    H128618   5.238   6.958   0.953
 9559TIP3    H228619   5.190   6.858   0.850
 9560TIP3   OH228620   7.509   5.619   3.075
 9560TIP3    H128621   7.482   5.566   3.001
 9560TIP3    H228622   7.491   5.709   3.047
 9561TIP3   OH228623   1.188   5.472   4.943
 9561TIP3    H128624   1.209   5.562   4.969
 9561TIP3    H228625   1.270   5.425   4.949
 9562TIP3   OH228626   2.757   1.306   5.182
 9562TIP3    H128627   2.665   1.307   5.210
 9562TIP3    H228628   2.767   1.386   5.131
 9563TIP3   OH228629   0.867   2.127   3.776
 9563TIP3    H128630   0.820   2.043   3.779
 9563TIP3    H228631   0.920   2.127   3.855
 9564TIP3   OH228632   0.277   3.470   4.507
 9564TIP3    H128633   0.291   3.475   4.602
 9564TIP3    H228634   0.253   3.379   4.491
 9565TIP3   OH228635   1.734   2.195   2.952
 9565TIP3    H128636   1.646   2.191   2.989
 9565TIP3    H228637   1.790   2.156   3.019
 9566TIP3   OH228638   3.374   4.506   3.026
 9566TIP3    H128639   3.396   4.436   3.087
 9566TIP3    H228640   3.417   4.584   3.062
 9567TIP3   OH228641   1.695   5.376   3.265
 9567TIP3    H128642   1.711   5.374   3.171
 9567TIP3    H228643   1.752   5.308   3.301
 9568TIP3   OH228644   5.984   5.202   0.436
 9568TIP3    H128645   5.930   5.124   0.430
 9568TIP3    H228646   5.931   5.264   0.486
 9569TIP3   OH228647   1.931   2.709   1.117
 9569TIP3    H128648   2.011   2.742   1.076
 9569TIP3    H228649   1.958   2.681   1.204
 9570TIP3   OH228650   6.845   4.347   3.101
 9570TIP3    H128651   6.801   4.322   3.183
 9570TIP3    H228652   6.778   4.335   3.034
 9571TIP3   OH228653   3.804   5.693   5.638
 9571TIP3    H128654   3.806   5.698   5.734
 9571TIP3    H228655   3.873   5.753   5.610
 9572TIP3   OH228656   5.446   3.790   4.383
 9572TIP3    H128657   5.502   3.834   4.319
 9572TIP3    H228658   5.394   3.728   4.331
 9573TIP3   OH228659   6.602   1.089   0.432
 9573TIP3    H128660   6.539   1.019   0.416
 9573TIP3    H228661   6.688   1.049   0.413
 9574TIP3   OH228662   0.844   2.325   4.655
 9574TIP3    H128663   0.864   2.412   4.689
 9574TIP3    H228664   0.917   2.304   4.596
 9575TIP3   OH228665   4.624   5.864   2.177
 9575TIP3    H128666   4.689   5.855   2.108
 9575TIP3    H228667   4.547   5.819   2.143
 9576TIP3   OH228668   6.462   5.613   2.826
 9576TIP3    H128669   6.436   5.679   2.890
 9576TIP3    H228670   6.545   5.645   2.791
 9577TIP3   OH228671   2.676   2.316   5.597
 9577TIP3    H128672   2.765   2.306   5.633
 9577TIP3    H228673   2.652   2.406   5.618
 9578TIP3   OH228674   7.035   3.529   1.025
 9578TIP3    H128675   7.088   3.573   1.092
 9578TIP3    H228676   7.064   3.568   0.943
 9579TIP3   OH228677   1.002   3.773   0.959
 9579TIP3    H128678   1.020   3.827   0.882
 9579TIP3    H228679   0.999   3.683   0.924
 9580TIP3   OH228680   0.640   4.009   4.048
 9580TIP3    H128681   0.705   4.077   4.066
 9580TIP3    H228682   0.556   4.048   4.071
 9581TIP3   OH228683   4.535   2.822   1.397
 9581TIP3    H128684   4.553   2.791   1.308
 9581TIP3    H228685   4.460   2.881   1.386
 9582TIP3   OH228686   8.340   2.157   0.305
 9582TIP3    H128687   8.392   2.237   0.295
 9582TIP3    H228688   8.404   2.086   0.302
 9583TIP3   OH228689   4.292   4.508   6.216
 9583TIP3    H128690   4.214   4.510   6.160
 9583TIP3    H228691   4.270   4.448   6.286
 9584TIP3   OH228692   0.002   6.005   4.614
 9584TIP3    H128693   0.053   5.950   4.673
 9584TIP3    H228694  -0.052   5.944   4.564
 9585TIP3   OH228695   6.130   0.808   0.195
 9585TIP3    H128696   6.051   0.787   0.146
 9585TIP3    H228697   6.174   0.724   0.207
 9586TIP3   OH228698   5.881   6.328   1.545
 9586TIP3    H128699   5.937   6.296   1.615
 9586TIP3    H228700   5.934   6.318   1.466
 9587TIP3   OH228701   4.123   4.714   6.115
 9587TIP3    H128702   4.040   4.674   6.141
 9587TIP3    H228703   4.110   4.741   6.024
 9588TIP3   OH228704   6.023   4.495   5.026
 9588TIP3    H128705   6.038   4.589   5.031
 9588TIP3    H228706   5.997   4.480   4.935
 9589TIP3   OH228707   0.483   7.478   2.124
 9589TIP3    H128708   0.467   7.539   2.196
 9589TIP3    H228709   0.494   7.533   2.047
 9590TIP3   OH228710   1.871   2.512   1.811
 9590TIP3    H128711   1.838   2.423   1.801
 9590TIP3    H228712   1.840   2.558   1.733
 9591TIP3   OH228713   4.271   1.774   2.106
 9591TIP3    H128714   4.330   1.760   2.179
 9591TIP3    H228715   4.288   1.863   2.077
 9592TIP3   OH228716   3.816   4.830   6.755
 9592TIP3    H128717   3.733   4.784   6.764
 9592TIP3    H228718   3.850   4.802   6.669
 9593TIP3   OH228719   6.849   4.160   5.876
 9593TIP3    H128720   6.794   4.101   5.824
 9593TIP3    H228721   6.931   4.165   5.827
 9594TIP3   OH228722   5.358   1.657   4.380
 9594TIP3    H128723   5.436   1.690   4.335
 9594TIP3    H228724   5.335   1.725   4.443
 9595TIP3   OH228725   4.149   1.118   6.590
 9595TIP3    H128726   4.172   1.164   6.670
 9595TIP3    H228727   4.210   1.152   6.524
 9596TIP3   OH228728   0.849   3.338   0.204
 9596TIP3    H128729   0.766   3.365   0.243
 9596TIP3    H228730   0.915   3.364   0.268
 9597TIP3   OH228731   4.402   0.317   0.747
 9597TIP3    H128732   4.318   0.289   0.782
 9597TIP3    H228733   4.394   0.412   0.737
 9598TIP3   OH228734   2.209   2.111   0.280
 9598TIP3    H128735   2.157   2.066   0.346
 9598TIP3    H228736   2.226   2.197   0.317
 9599TIP3   OH228737   0.270   1.041   5.556
 9599TIP3    H128738   0.314   1.003   5.480
 9599TIP3    H228739   0.216   0.970   5.590
 9600TIP3   OH228740   7.504   0.203   1.614
 9600TIP3    H128741   7.532   0.244   1.696
 9600TIP3    H228742   7.493   0.111   1.636
 9601TIP3   OH228743   5.085   1.041   3.707
 9601TIP3    H128744   5.040   1.098   3.645
 9601TIP3    H228745   5.074   0.953   3.671
 9602TIP3   OH228746   3.144   3.312   4.657
 9602TIP3    H128747   3.070   3.347   4.708
 9602TIP3    H228748   3.190   3.390   4.625
 9603TIP3   OH228749   2.244   5.161   0.782
 9603TIP3    H128750   2.239   5.067   0.797
 9603TIP3    H228751   2.290   5.196   0.858
 9604TIP3   OH228752   0.211   4.438   4.558
 9604TIP3    H128753   0.116   4.444   4.545
 9604TIP3    H228754   0.236   4.526   4.588
 9605TIP3   OH228755   7.340   7.233   2.737
 9605TIP3    H128756   7.373   7.187   2.661
 9605TIP3    H228757   7.362   7.325   2.722
 9606TIP3   OH228758   3.280   7.193   2.591
 9606TIP3    H128759   3.273   7.262   2.657
 9606TIP3    H228760   3.344   7.132   2.628
 9607TIP3   OH228761   3.157   4.399   5.109
 9607TIP3    H128762   3.117   4.465   5.052
 9607TIP3    H228763   3.248   4.393   5.079
 9608TIP3   OH228764   5.052   6.025   5.828
 9608TIP3    H128765   5.133   6.067   5.801
 9608TIP3    H228766   5.054   5.939   5.786
 9609TIP3   OH228767   6.622   1.513   1.710
 9609TIP3    H128768   6.537   1.481   1.678
 9609TIP3    H228769   6.687   1.468   1.656
 9610TIP3   OH228770   2.272   5.399   5.340
 9610TIP3    H128771   2.288   5.485   5.377
 9610TIP3    H228772   2.344   5.345   5.373
 9611TIP3   OH228773   6.555   7.238   2.841
 9611TIP3    H128774   6.632   7.278   2.800
 9611TIP3    H228775   6.531   7.167   2.781
 9612TIP3   OH228776   0.898   6.161   5.902
 9612TIP3    H128777   0.857   6.158   5.988
 9612TIP3    H228778   0.912   6.255   5.886
 9613TIP3   OH228779   2.568   1.690   1.798
 9613TIP3    H128780   2.473   1.699   1.796
 9613TIP3    H228781   2.588   1.638   1.720
 9614TIP3   OH228782   4.450   0.579   4.140
 9614TIP3    H128783   4.518   0.646   4.137
 9614TIP3    H228784   4.370   0.625   4.115
 9615TIP3   OH228785   5.874   2.950   1.806
 9615TIP3    H128786   5.956   2.954   1.854
 9615TIP3    H228787   5.867   3.035   1.763
 9616TIP3   OH228788   0.912   5.595   0.723
 9616TIP3    H128789   0.827   5.575   0.686
 9616TIP3    H228790   0.895   5.666   0.785
 9617TIP3   OH228791   2.625   1.243   0.130
 9617TIP3    H128792   2.542   1.238   0.178
 9617TIP3    H228793   2.637   1.156   0.094
 9618TIP3   OH228794   7.256   3.856   1.066
 9618TIP3    H128795   7.265   3.922   1.134
 9618TIP3    H228796   7.163   3.858   1.042
 9619TIP3   OH228797   6.477   3.284   6.834
 9619TIP3    H128798   6.540   3.212   6.836
 9619TIP3    H228799   6.474   3.311   6.742
 9620TIP3   OH228800   1.022   2.142   4.018
 9620TIP3    H128801   1.074   2.137   4.098
 9620TIP3    H228802   0.992   2.232   4.014
 9621TIP3   OH228803   8.162   3.764   6.667
 9621TIP3    H128804   8.169   3.741   6.574
 9621TIP3    H228805   8.088   3.824   6.671
 9622TIP3   OH228806   5.083   3.612   4.643
 9622TIP3    H128807   5.061   3.583   4.732
 9622TIP3    H228808   5.044   3.699   4.636
 9623TIP3   OH228809   3.359   2.369   1.215
 9623TIP3    H128810   3.449   2.374   1.181
 9623TIP3    H228811   3.307   2.338   1.141
 9624TIP3   OH228812   2.383   3.721   0.973
 9624TIP3    H128813   2.394   3.763   1.059
 9624TIP3    H228814   2.443   3.768   0.916
 9625TIP3   OH228815   2.891   6.738   5.218
 9625TIP3    H128816   2.924   6.781   5.139
 9625TIP3    H228817   2.964   6.741   5.280
 9626TIP3   OH228818   0.241   2.433   1.670
 9626TIP3    H128819   0.208   2.346   1.649
 9626TIP3    H228820   0.335   2.428   1.654
 9627TIP3   OH228821   3.691   0.117   4.995
 9627TIP3    H128822   3.674   0.034   5.037
 9627TIP3    H228823   3.743   0.166   5.058
 9628TIP3   OH228824   8.260   4.970   0.424
 9628TIP3    H128825   8.288   5.041   0.366
 9628TIP3    H228826   8.195   4.922   0.372
 9629TIP3   OH228827   6.579   5.783   5.578
 9629TIP3    H128828   6.498   5.835   5.578
 9629TIP3    H228829   6.641   5.836   5.527
 9630TIP3   OH228830   7.974   4.666   2.148
 9630TIP3    H128831   8.031   4.703   2.216
 9630TIP3    H228832   7.947   4.741   2.096
 9631TIP3   OH228833   1.942   5.644   4.319
 9631TIP3    H128834   1.850   5.667   4.301
 9631TIP3    H228835   1.979   5.627   4.232
 9632TIP3   OH228836   0.682   1.313   2.556
 9632TIP3    H128837   0.715   1.392   2.599
 9632TIP3    H228838   0.757   1.278   2.509
 9633TIP3   OH228839   5.646   7.646   4.427
 9633TIP3    H128840   5.577   7.646   4.493
 9633TIP3    H228841   5.657   7.554   4.404
 9634TIP3   OH228842   4.871   5.522   3.015
 9634TIP3    H128843   4.785   5.483   3.006
 9634TIP3    H228844   4.884   5.531   3.110
 9635TIP3   OH228845   4.076   4.496   1.038
 9635TIP3    H128846   4.040   4.514   1.125
 9635TIP3    H228847   4.102   4.581   1.005
 9636TIP3   OH228848   4.032   5.361   6.466
 9636TIP3    H128849   3.976   5.318   6.531
 9636TIP3    H228850   4.092   5.292   6.436
 9637TIP3   OH228851   6.784   5.844   6.395
 9637TIP3    H128852   6.711   5.785   6.373
 9637TIP3    H228853   6.741   5.921   6.434
 9638TIP3   OH228854   3.349   5.662   5.279
 9638TIP3    H128855   3.276   5.700   5.230
 9638TIP3    H228856   3.390   5.736   5.323
 9639TIP3   OH228857   2.484   2.050   3.450
 9639TIP3    H128858   2.394   2.049   3.485
 9639TIP3    H228859   2.505   1.957   3.436
 9640TIP3   OH228860   0.556   3.327   3.043
 9640TIP3    H128861   0.474   3.281   3.057
 9640TIP3    H228862   0.534   3.420   3.054
 9641TIP3   OH228863   2.764   0.655   4.173
 9641TIP3    H128864   2.716   0.728   4.211
 9641TIP3    H228865   2.807   0.693   4.096
 9642TIP3   OH228866   2.809   0.441   0.426
 9642TIP3    H128867   2.792   0.355   0.465
 9642TIP3    H228868   2.775   0.433   0.336
 9643TIP3   OH228869   4.262   1.170   4.680
 9643TIP3    H128870   4.281   1.140   4.769
 9643TIP3    H228871   4.177   1.129   4.659
 9644TIP3   OH228872   8.010   3.128   6.711
 9644TIP3    H128873   7.967   3.117   6.627
 9644TIP3    H228874   8.065   3.051   6.721
 9645TIP3   OH228875   5.236   6.596   2.823
 9645TIP3    H128876   5.305   6.660   2.840
 9645TIP3    H228877   5.158   6.633   2.864
 9646TIP3   OH228878   3.951   6.289   5.920
 9646TIP3    H128879   3.907   6.356   5.971
 9646TIP3    H228880   3.888   6.218   5.913
 9647TIP3   OH228881   4.341   7.723   1.734
 9647TIP3    H128882   4.270   7.665   1.704
 9647TIP3    H228883   4.420   7.670   1.725
 9648TIP3   OH228884   4.745   2.806   6.372
 9648TIP3    H128885   4.719   2.897   6.353
 9648TIP3    H228886   4.720   2.794   6.464
 9649TIP3   OH228887   2.842   7.829   1.305
 9649TIP3    H128888   2.860   7.918   1.335
 9649TIP3    H228889   2.754   7.810   1.337
 9650TIP3   OH228890   2.199   2.600   4.640
 9650TIP3    H128891   2.161   2.688   4.630
 9650TIP3    H228892   2.125   2.541   4.629
 9651TIP3   OH228893   1.274   6.721   5.879
 9651TIP3    H128894   1.223   6.783   5.931
 9651TIP3    H228895   1.287   6.766   5.795
 9652TIP3   OH228896   7.722   4.255   6.530
 9652TIP3    H128897   7.644   4.304   6.556
 9652TIP3    H228898   7.713   4.241   6.436
 9653TIP3   OH228899   5.141   2.114   5.413
 9653TIP3    H128900   5.237   2.123   5.412
 9653TIP3    H228901   5.113   2.147   5.328
 9654TIP3   OH228902   0.575   6.425   5.827
 9654TIP3    H128903   0.612   6.505   5.788
 9654TIP3    H228904   0.595   6.434   5.921
 9655TIP3   OH228905   4.455   6.387   3.373
 9655TIP3    H128906   4.438   6.454   3.439
 9655TIP3    H228907   4.500   6.434   3.302
 9656TIP3   OH228908   5.514   7.571   5.944
 9656TIP3    H128909   5.474   7.523   5.871
 9656TIP3    H228910   5.499   7.516   6.021
 9657TIP3   OH228911   7.032   6.528   4.219
 9657TIP3    H128912   7.094   6.587   4.262
 9657TIP3    H228913   6.995   6.580   4.148
 9658TIP3   OH228914   3.928   3.505   2.052
 9658TIP3    H128915   4.018   3.474   2.054
 9658TIP3    H228916   3.908   3.526   2.144
 9659TIP3   OH228917   7.833   7.090   3.636
 9659TIP3    H128918   7.859   7.015   3.583
 9659TIP3    H228919   7.806   7.052   3.720
 9660TIP3   OH228920   8.352   0.724   6.338
 9660TIP3    H128921   8.283   0.771   6.291
 9660TIP3    H228922   8.352   0.762   6.426
 9661TIP3   OH228923   5.785   4.351   6.633
 9661TIP3    H128924   5.759   4.441   6.614
 9661TIP3    H228925   5.738   4.299   6.568
 9662TIP3   OH228926   2.093   1.092   2.811
 9662TIP3    H128927   2.187   1.109   2.802
 9662TIP3    H228928   2.059   1.094   2.722
 9663TIP3   OH228929   6.448   1.892   2.949
 9663TIP3    H128930   6.496   1.857   3.024
 9663TIP3    H228931   6.498   1.970   2.922
 9664TIP3   OH228932   2.953   1.189   5.007
 9664TIP3    H128933   2.941   1.276   5.044
 9664TIP3    H228934   2.926   1.198   4.916
 9665TIP3   OH228935   7.056   1.363   5.743
 9665TIP3    H128936   7.018   1.369   5.831
 9665TIP3    H228937   7.108   1.283   5.745
 9666TIP3   OH228938   1.270   0.032   4.762
 9666TIP3    H128939   1.333   0.061   4.696
 9666TIP3    H228940   1.313  -0.041   4.806
 9667TIP3   OH228941   6.461   3.580   1.612
 9667TIP3    H128942   6.472   3.665   1.569
 9667TIP3    H228943   6.501   3.592   1.698
 9668TIP3   OH228944   2.260   5.095   0.405
 9668TIP3    H128945   2.169   5.111   0.433
 9668TIP3    H228946   2.310   5.164   0.449
 9669TIP3   OH228947   6.299   4.352   5.448
 9669TIP3    H128948   6.254   4.433   5.472
 9669TIP3    H228949   6.392   4.374   5.454
 9670TIP3   OH228950   5.841   4.894   3.335
 9670TIP3    H128951   5.800   4.943   3.264
 9670TIP3    H228952   5.935   4.912   3.325
 9671TIP3   OH228953   0.781   6.156   0.313
 9671TIP3    H128954   0.825   6.161   0.228
 9671TIP3    H228955   0.690   6.134   0.291
 9672TIP3   OH228956   0.386   0.188   6.768
 9672TIP3    H128957   0.362   0.123   6.701
 9672TIP3    H228958   0.359   0.272   6.730
 9673TIP3   OH228959   6.954   1.264   0.084
 9673TIP3    H128960   6.991   1.348   0.111
 9673TIP3    H228961   7.026   1.218   0.043
 9674TIP3   OH228962   3.348   1.194   5.195
 9674TIP3    H128963   3.317   1.262   5.135
 9674TIP3    H228964   3.268   1.156   5.232
 9675TIP3   OH228965   1.984   7.864   6.537
 9675TIP3    H128966   2.056   7.928   6.543
 9675TIP3    H228967   2.014   7.801   6.471
 9676TIP3   OH228968   4.391   3.315   2.408
 9676TIP3    H128969   4.374   3.390   2.351
 9676TIP3    H228970   4.375   3.348   2.496
 9677TIP3   OH228971   7.865   5.721   1.710
 9677TIP3    H128972   7.800   5.785   1.741
 9677TIP3    H228973   7.949   5.761   1.731
 9678TIP3   OH228974   6.102   2.983   0.420
 9678TIP3    H128975   6.042   2.914   0.393
 9678TIP3    H228976   6.128   2.959   0.509
 9679TIP3   OH228977   1.441   4.075   2.210
 9679TIP3    H128978   1.521   4.095   2.162
 9679TIP3    H228979   1.390   4.020   2.150
 9680TIP3   OH228980   0.324   2.718   5.618
 9680TIP3    H128981   0.250   2.762   5.659
 9680TIP3    H228982   0.294   2.698   5.529
 9681TIP3   OH228983   0.937   2.651   2.254
 9681TIP3    H128984   0.933   2.746   2.250
 9681TIP3    H228985   0.946   2.623   2.163
 9682TIP3   OH228986   2.317   4.124   4.093
 9682TIP3    H128987   2.344   4.202   4.043
 9682TIP3    H228988   2.303   4.057   4.026
 9683TIP3   OH228989   0.438   6.602   4.420
 9683TIP3    H128990   0.473   6.628   4.505
 9683TIP3    H228991   0.379   6.529   4.439
 9684TIP3   OH228992   0.720   6.605   5.673
 9684TIP3    H128993   0.763   6.690   5.689
 9684TIP3    H228994   0.701   6.605   5.579
 9685TIP3   OH228995   2.309   4.396   4.844
 9685TIP3    H128996   2.336   4.305   4.831
 9685TIP3    H228997   2.389   4.447   4.835
 9686TIP3   OH228998   5.060   4.856   6.016
 9686TIP3    H128999   5.126   4.879   5.951
 9686TIP3    H229000   5.104   4.793   6.073
 9687TIP3   OH229001   1.644   4.764   6.241
 9687TIP3    H129002   1.707   4.811   6.297
 9687TIP3    H229003   1.678   4.777   6.152
 9688TIP3   OH229004   4.737   7.469   0.751
 9688TIP3    H129005   4.718   7.563   0.754
 9688TIP3    H229006   4.820   7.461   0.797
 9689TIP3   OH229007   5.857   0.253   2.193
 9689TIP3    H129008   5.920   0.321   2.169
 9689TIP3    H229009   5.793   0.298   2.248
 9690TIP3   OH229010   3.375   7.102   0.709
 9690TIP3    H129011   3.439   7.168   0.736
 9690TIP3    H229012   3.425   7.021   0.702
 9691TIP3   OH229013   3.644   5.716   0.312
 9691TIP3    H129014   3.557   5.742   0.280
 9691TIP3    H229015   3.631   5.630   0.350
 9692TIP3   OH229016   0.866   1.356   1.913
 9692TIP3    H129017   0.893   1.404   1.991
 9692TIP3    H229018   0.771   1.350   1.920
 9693TIP3   OH229019   5.508   4.232   1.705
 9693TIP3    H129020   5.504   4.187   1.621
 9693TIP3    H229021   5.527   4.164   1.769
 9694TIP3   OH229022   7.298   3.451   0.738
 9694TIP3    H129023   7.240   3.527   0.741
 9694TIP3    H229024   7.323   3.436   0.829
 9695TIP3   OH229025   5.918   6.771   4.614
 9695TIP3    H129026   5.925   6.865   4.633
 9695TIP3    H229027   6.001   6.749   4.572
 9696TIP3   OH229028   4.316   2.211   0.265
 9696TIP3    H129029   4.341   2.126   0.301
 9696TIP3    H229030   4.399   2.252   0.241
 9697TIP3   OH229031   7.881   3.084   1.400
 9697TIP3    H129032   7.946   3.020   1.429
 9697TIP3    H229033   7.931   3.165   1.390
 9698TIP3   OH229034   2.231   6.976   2.290
 9698TIP3    H129035   2.222   7.027   2.209
 9698TIP3    H229036   2.188   6.893   2.271
 9699TIP3   OH229037   3.416   7.303   5.775
 9699TIP3    H129038   3.492   7.326   5.828
 9699TIP3    H229039   3.453   7.275   5.691
 9700TIP3   OH229040   2.956   1.524   4.081
 9700TIP3    H129041   3.008   1.535   4.002
 9700TIP3    H229042   3.010   1.560   4.151
 9701TIP3   OH229043   1.514   2.807   6.573
 9701TIP3    H129044   1.567   2.730   6.594
 9701TIP3    H229045   1.546   2.836   6.487
 9702TIP3   OH229046   3.715   2.437   4.642
 9702TIP3    H129047   3.641   2.381   4.667
 9702TIP3    H229048   3.752   2.395   4.565
 9703TIP3   OH229049   6.483   4.450   4.210
 9703TIP3    H129050   6.510   4.525   4.158
 9703TIP3    H229051   6.502   4.374   4.155
 9704TIP3   OH229052   4.018   3.928   0.408
 9704TIP3    H129053   3.972   3.896   0.330
 9704TIP3    H229054   4.006   3.859   0.473
 9705TIP3   OH229055   1.438   6.321   0.525
 9705TIP3    H129056   1.486   6.374   0.461
 9705TIP3    H229057   1.351   6.360   0.528
 9706TIP3   OH229058   2.268   6.057   3.635
 9706TIP3    H129059   2.300   6.134   3.681
 9706TIP3    H229060   2.236   5.999   3.705
 9707TIP3   OH229061   7.584   5.184   3.714
 9707TIP3    H129062   7.600   5.176   3.620
 9707TIP3    H229063   7.639   5.256   3.742
 9708TIP3   OH229064   5.136   2.453   4.652
 9708TIP3    H129065   5.068   2.481   4.591
 9708TIP3    H229066   5.217   2.491   4.618
 9709TIP3   OH229067   3.034   2.541   3.772
 9709TIP3    H129068   2.991   2.615   3.815
 9709TIP3    H229069   2.966   2.504   3.716
 9710TIP3   OH229070   6.767   4.678   2.559
 9710TIP3    H129071   6.831   4.609   2.571
 9710TIP3    H229072   6.807   4.738   2.496
 9711TIP3   OH229073   4.189   0.033   4.636
 9711TIP3    H129074   4.260   0.066   4.691
 9711TIP3    H229075   4.135   0.109   4.617
 9712TIP3   OH229076   2.515   5.732   0.273
 9712TIP3    H129077   2.478   5.812   0.236
 9712TIP3    H229078   2.608   5.737   0.254
 9713TIP3   OH229079   5.325   1.632   5.911
 9713TIP3    H129080   5.247   1.615   5.963
 9713TIP3    H229081   5.331   1.728   5.906
 9714TIP3   OH229082   8.223   7.902   1.523
 9714TIP3    H129083   8.266   7.936   1.602
 9714TIP3    H229084   8.172   7.828   1.553
 9715TIP3   OH229085   0.600   5.910   4.965
 9715TIP3    H129086   0.542   5.889   5.038
 9715TIP3    H229087   0.597   5.833   4.909
 9716TIP3   OH229088   3.063   4.844   1.377
 9716TIP3    H129089   3.014   4.921   1.404
 9716TIP3    H229090   3.152   4.861   1.407
 9717TIP3   OH229091   0.343   4.955   2.406
 9717TIP3    H129092   0.344   5.011   2.328
 9717TIP3    H229093   0.386   5.008   2.473
 9718TIP3   OH229094   2.750   1.680   2.678
 9718TIP3    H129095   2.792   1.765   2.687
 9718TIP3    H229096   2.822   1.617   2.675
 9719TIP3   OH229097   0.624   1.676   2.487
 9719TIP3    H129098   0.688   1.652   2.420
 9719TIP3    H229099   0.572   1.745   2.446
 9720TIP3   OH229100   4.428   1.804   0.174
 9720TIP3    H129101   4.351   1.795   0.117
 9720TIP3    H229102   4.405   1.876   0.233
 9721TIP3   OH229103   5.888   2.848   5.955
 9721TIP3    H129104   5.818   2.802   5.910
 9721TIP3    H229105   5.903   2.798   6.035
 9722TIP3   OH229106   3.374   4.091   4.137
 9722TIP3    H129107   3.408   4.068   4.051
 9722TIP3    H229108   3.307   4.025   4.155
 9723TIP3   OH229109   5.992   0.174   3.436
 9723TIP3    H129110   6.075   0.185   3.484
 9723TIP3    H229111   5.936   0.243   3.470
 9724TIP3   OH229112   4.993   2.837   2.331
 9724TIP3    H129113   5.070   2.893   2.324
 9724TIP3    H229114   4.976   2.833   2.425
 9725TIP3   OH229115   6.713   1.862   4.788
 9725TIP3    H129116   6.781   1.851   4.855
 9725TIP3    H229117   6.698   1.773   4.756
 9726TIP3   OH229118   2.488   7.120   0.682
 9726TIP3    H129119   2.562   7.060   0.677
 9726TIP3    H229120   2.490   7.167   0.598
 9727TIP3   OH229121   5.809   0.948   2.036
 9727TIP3    H129122   5.730   0.922   1.990
 9727TIP3    H229123   5.853   0.865   2.057
 9728TIP3   OH229124   6.576   6.947   6.278
 9728TIP3    H129125   6.658   6.995   6.278
 9728TIP3    H229126   6.523   6.988   6.210
 9729TIP3   OH229127   7.677   1.612   2.580
 9729TIP3    H129128   7.585   1.630   2.559
 9729TIP3    H229129   7.688   1.519   2.564
 9730TIP3   OH229130   3.588   0.757   0.116
 9730TIP3    H129131   3.495   0.776   0.127
 9730TIP3    H229132   3.617   0.816   0.046
 9731TIP3   OH229133   0.424   5.482   2.543
 9731TIP3    H129134   0.350   5.440   2.585
 9731TIP3    H229135   0.428   5.570   2.582
 9732TIP3   OH229136   1.811   4.499   4.576
 9732TIP3    H129137   1.899   4.481   4.608
 9732TIP3    H229138   1.821   4.518   4.483
 9733TIP3   OH229139   4.314   5.249   4.705
 9733TIP3    H129140   4.346   5.198   4.779
 9733TIP3    H229141   4.281   5.330   4.744
 9734TIP3   OH229142   6.779   5.992   3.516
 9734TIP3    H129143   6.852   5.933   3.536
 9734TIP3    H229144   6.728   5.945   3.449
 9735TIP3   OH229145   3.599   5.323   1.595
 9735TIP3    H129146   3.562   5.312   1.682
 9735TIP3    H229147   3.684   5.279   1.599
 9736TIP3   OH229148   5.206   6.687   0.052
 9736TIP3    H129149   5.234   6.770   0.013
 9736TIP3    H229150   5.175   6.635  -0.022
 9737TIP3   OH229151   0.711   3.118   5.304
 9737TIP3    H129152   0.761   3.051   5.259
 9737TIP3    H229153   0.777   3.173   5.347
 9738TIP3   OH229154   6.895   6.567   2.563
 9738TIP3    H129155   6.845   6.564   2.481
 9738TIP3    H229156   6.882   6.656   2.596
 9739TIP3   OH229157   3.953   5.685   2.374
 9739TIP3    H129158   3.897   5.629   2.320
 9739TIP3    H229159   3.937   5.654   2.464
 9740TIP3   OH229160   1.515   0.852   4.705
 9740TIP3    H129161   1.597   0.803   4.694
 9740TIP3    H229162   1.502   0.896   4.622
 9741TIP3   OH229163   1.543   5.131   0.285
 9741TIP3    H129164   1.533   5.222   0.258
 9741TIP3    H229165   1.453   5.096   0.284
 9742TIP3   OH229166   0.686   0.924   1.192
 9742TIP3    H129167   0.711   0.839   1.228
 9742TIP3    H229168   0.596   0.938   1.221
 9743TIP3   OH229169   7.732   6.618   0.139
 9743TIP3    H129170   7.652   6.662   0.168
 9743TIP3    H229171   7.716   6.599   0.046
 9744TIP3   OH229172   3.169   6.175   5.215
 9744TIP3    H129173   3.244   6.115   5.223
 9744TIP3    H229174   3.095   6.118   5.198
 9745TIP3   OH229175   6.289   3.774   4.897
 9745TIP3    H129176   6.209   3.821   4.874
 9745TIP3    H229177   6.350   3.797   4.827
 9746TIP3   OH229178   2.717   1.254   3.619
 9746TIP3    H129179   2.622   1.249   3.607
 9746TIP3    H229180   2.728   1.303   3.700
 9747TIP3   OH229181   2.271   0.101   4.214
 9747TIP3    H129182   2.214   0.142   4.279
 9747TIP3    H229183   2.219   0.100   4.134
 9748TIP3   OH229184   2.082   7.258   0.211
 9748TIP3    H129185   2.139   7.331   0.230
 9748TIP3    H229186   2.015   7.293   0.152
 9749TIP3   OH229187   5.615   3.964   1.194
 9749TIP3    H129188   5.589   3.979   1.103
 9749TIP3    H229189   5.648   4.049   1.224
 9750TIP3   OH229190   4.746   0.701   5.212
 9750TIP3    H129191   4.726   0.767   5.146
 9750TIP3    H229192   4.752   0.749   5.294
 9751TIP3   OH229193   2.722   6.283   4.806
 9751TIP3    H129194   2.723   6.368   4.762
 9751TIP3    H229195   2.633   6.249   4.791
 9752TIP3   OH229196   1.743   4.426   2.997
 9752TIP3    H129197   1.739   4.352   2.936
 9752TIP3    H229198   1.652   4.456   3.005
 9753TIP3   OH229199   0.470   1.829   5.568
 9753TIP3    H129200   0.414   1.759   5.534
 9753TIP3    H229201   0.415   1.907   5.566
 9754TIP3   OH229202   1.608   6.069   3.919
 9754TIP3    H129203   1.560   6.151   3.910
 9754TIP3    H229204   1.543   6.006   3.949
 9755TIP3   OH229205   6.978   3.865   6.049
 9755TIP3    H129206   7.047   3.912   6.097
 9755TIP3    H229207   6.897   3.898   6.087
 9756TIP3   OH229208   0.195   5.111   4.993
 9756TIP3    H129209   0.267   5.067   5.039
 9756TIP3    H229210   0.116   5.065   5.022
 9757TIP3   OH229211   4.553   6.455   1.217
 9757TIP3    H129212   4.490   6.398   1.261
 9757TIP3    H229213   4.556   6.424   1.127
 9758TIP3   OH229214   7.702   0.851   3.115
 9758TIP3    H129215   7.654   0.770   3.097
 9758TIP3    H229216   7.729   0.882   3.028
 9759TIP3   OH229217   6.129   0.268   1.678
 9759TIP3    H129218   6.044   0.229   1.660
 9759TIP3    H229219   6.130   0.348   1.626
 9760TIP3   OH229220   1.584   2.586   5.686
 9760TIP3    H129221   1.661   2.530   5.695
 9760TIP3    H229222   1.520   2.548   5.745
 9761TIP3   OH229223   6.921   2.707   2.133
 9761TIP3    H129224   6.947   2.724   2.043
 9761TIP3    H229225   6.863   2.631   2.128
 9762TIP3   OH229226   4.986   0.995   6.187
 9762TIP3    H129227   5.011   0.983   6.278
 9762TIP3    H229228   4.925   0.924   6.169
 9763TIP3   OH229229   2.585   6.373   6.616
 9763TIP3    H129230   2.615   6.456   6.580
 9763TIP3    H229231   2.491   6.372   6.599
 9764TIP3   OH229232   8.225   3.736   2.440
 9764TIP3    H129233   8.173   3.656   2.453
 9764TIP3    H229234   8.302   3.723   2.496
 9765TIP3   OH229235   3.869   2.997   0.626
 9765TIP3    H129236   3.825   3.071   0.584
 9765TIP3    H229237   3.839   2.921   0.576
 9766TIP3   OH229238   8.049   3.662   4.689
 9766TIP3    H129239   8.038   3.658   4.784
 9766TIP3    H229240   8.019   3.576   4.658
 9767TIP3   OH229241   1.445   5.561   3.863
 9767TIP3    H129242   1.443   5.550   3.768
 9767TIP3    H229243   1.412   5.478   3.897
 9768TIP3   OH229244   7.850   0.300   5.442
 9768TIP3    H129245   7.890   0.220   5.476
 9768TIP3    H229246   7.878   0.304   5.351
 9769TIP3   OH229247   2.848   5.822   6.471
 9769TIP3    H129248   2.892   5.893   6.425
 9769TIP3    H229249   2.754   5.839   6.456
 9770TIP3   OH229250   6.761   4.705   4.256
 9770TIP3    H129251   6.782   4.620   4.295
 9770TIP3    H229252   6.665   4.706   4.252
 9771TIP3   OH229253   5.676   6.187   0.457
 9771TIP3    H129254   5.587   6.160   0.432
 9771TIP3    H229255   5.675   6.282   0.450
 9772TIP3   OH229256   3.160   7.820   4.947
 9772TIP3    H129257   3.250   7.847   4.964
 9772TIP3    H229258   3.108   7.897   4.969
 9773TIP3   OH229259   2.673   5.650   0.803
 9773TIP3    H129260   2.594   5.671   0.853
 9773TIP3    H229261   2.646   5.653   0.711
 9774TIP3   OH229262   7.279   7.016   6.412
 9774TIP3    H129263   7.229   6.938   6.388
 9774TIP3    H229264   7.331   6.989   6.487
 9775TIP3   OH229265   6.994   6.856   2.429
 9775TIP3    H129266   6.907   6.819   2.412
 9775TIP3    H229267   6.983   6.909   2.508
 9776TIP3   OH229268   3.585   0.228   6.256
 9776TIP3    H129269   3.633   0.275   6.188
 9776TIP3    H229270   3.631   0.144   6.264
 9777TIP3   OH229271   0.763   1.033   5.496
 9777TIP3    H129272   0.823   0.984   5.552
 9777TIP3    H229273   0.718   0.966   5.445
 9778TIP3   OH229274   6.318   1.328   1.682
 9778TIP3    H129275   6.380   1.255   1.692
 9778TIP3    H229276   6.330   1.357   1.592
 9779TIP3   OH229277   0.681   5.042   2.843
 9779TIP3    H129278   0.622   5.030   2.769
 9779TIP3    H229279   0.652   5.122   2.885
 9780TIP3   OH229280   0.139   1.803   6.439
 9780TIP3    H129281   0.110   1.712   6.454
 9780TIP3    H229282   0.063   1.856   6.463
 9781TIP3   OH229283   0.847   0.848   2.910
 9781TIP3    H129284   0.877   0.768   2.954
 9781TIP3    H229285   0.782   0.885   2.971
 9782TIP3   OH229286   0.699   1.857   3.818
 9782TIP3    H129287   0.701   1.807   3.737
 9782TIP3    H229288   0.606   1.868   3.838
 9783TIP3   OH229289   2.580   7.819   5.612
 9783TIP3    H129290   2.630   7.891   5.574
 9783TIP3    H229291   2.551   7.767   5.537
 9784TIP3   OH229292   1.088   6.967   3.025
 9784TIP3    H129293   1.111   7.033   3.091
 9784TIP3    H229294   0.994   6.953   3.037
 9785TIP3   OH229295   6.470   4.546   2.223
 9785TIP3    H129296   6.411   4.511   2.156
 9785TIP3    H229297   6.551   4.565   2.176
 9786TIP3   OH229298   5.490   2.276   1.952
 9786TIP3    H129299   5.413   2.265   1.895
 9786TIP3    H229300   5.496   2.370   1.965
 9787TIP3   OH229301   2.240   1.298   4.005
 9787TIP3    H129302   2.201   1.291   3.917
 9787TIP3    H229303   2.188   1.239   4.059
 9788TIP3   OH229304   1.480   4.503   3.013
 9788TIP3    H129305   1.453   4.547   2.933
 9788TIP3    H229306   1.468   4.569   3.082
 9789TIP3   OH229307   1.489   2.130   4.447
 9789TIP3    H129308   1.581   2.158   4.440
 9789TIP3    H229309   1.488   2.042   4.410
 9790TIP3   OH229310   7.533   1.589   6.092
 9790TIP3    H129311   7.612   1.623   6.135
 9790TIP3    H229312   7.510   1.656   6.028
 9791TIP3   OH229313   4.882   5.502   0.386
 9791TIP3    H129314   4.874   5.504   0.291
 9791TIP3    H229315   4.901   5.593   0.410
 9792TIP3   OH229316   3.756   3.389   2.370
 9792TIP3    H129317   3.698   3.323   2.332
 9792TIP3    H229318   3.720   3.406   2.457
 9793TIP3   OH229319   8.403   3.751   1.555
 9793TIP3    H129320   8.324   3.769   1.504
 9793TIP3    H229321   8.386   3.790   1.641
 9794TIP3   OH229322   7.779   6.049   1.489
 9794TIP3    H129323   7.707   6.051   1.425
 9794TIP3    H229324   7.805   6.141   1.498
 9795TIP3   OH229325   8.270   2.184   2.818
 9795TIP3    H129326   8.262   2.095   2.852
 9795TIP3    H229327   8.281   2.173   2.724
 9796TIP3   OH229328   5.876   0.776   3.919
 9796TIP3    H129329   5.878   0.680   3.913
 9796TIP3    H229330   5.967   0.801   3.934
 9797TIP3   OH229331   7.385   6.190   6.457
 9797TIP3    H129332   7.376   6.102   6.420
 9797TIP3    H229333   7.328   6.191   6.533
 9798TIP3   OH229334   4.896   3.494   1.886
 9798TIP3    H129335   4.810   3.474   1.850
 9798TIP3    H229336   4.945   3.531   1.813
 9799TIP3   OH229337   7.602   1.134   4.535
 9799TIP3    H129338   7.541   1.119   4.463
 9799TIP3    H229339   7.573   1.217   4.574
 9800TIP3   OH229340   7.830   2.078   6.331
 9800TIP3    H129341   7.777   2.114   6.260
 9800TIP3    H229342   7.870   2.155   6.372
 9801TIP3   OH229343   5.251   0.333   2.487
 9801TIP3    H129344   5.337   0.308   2.454
 9801TIP3    H229345   5.254   0.316   2.581
 9802TIP3   OH229346   6.319   1.774   6.144
 9802TIP3    H129347   6.267   1.827   6.204
 9802TIP3    H229348   6.267   1.695   6.129
 9803TIP3   OH229349   3.924   2.405   3.273
 9803TIP3    H129350   3.953   2.487   3.234
 9803TIP3    H229351   3.972   2.338   3.225
 9804TIP3   OH229352   7.166   2.382   3.951
 9804TIP3    H129353   7.115   2.338   4.018
 9804TIP3    H229354   7.198   2.462   3.994
 9805TIP3   OH229355   0.431   4.634   6.700
 9805TIP3    H129356   0.502   4.699   6.696
 9805TIP3    H229357   0.450   4.584   6.779
 9806TIP3   OH229358   4.890   0.084   0.305
 9806TIP3    H129359   4.879   0.030   0.227
 9806TIP3    H229360   4.816   0.145   0.303
 9807TIP3   OH229361   5.836   2.865   1.010
 9807TIP3    H129362   5.846   2.933   0.943
 9807TIP3    H229363   5.910   2.805   0.995
 9808TIP3   OH229364   2.394   6.244   6.215
 9808TIP3    H129365   2.471   6.187   6.228
 9808TIP3    H229366   2.358   6.255   6.303
 9809TIP3   OH229367   0.594   2.693   2.091
 9809TIP3    H129368   0.529   2.752   2.128
 9809TIP3    H229369   0.562   2.605   2.112
 9810TIP3   OH229370   7.203   7.411   6.508
 9810TIP3    H129371   7.237   7.500   6.506
 9810TIP3    H229372   7.251   7.369   6.580
 9811TIP3   OH229373   3.562   4.248   5.217
 9811TIP3    H129374   3.632   4.190   5.188
 9811TIP3    H229375   3.481   4.201   5.195
 9812TIP3   OH229376   5.731   7.564   0.112
 9812TIP3    H129377   5.693   7.644   0.076
 9812TIP3    H229378   5.711   7.567   0.205
 9813TIP3   OH229379   2.770   1.808   0.870
 9813TIP3    H129380   2.823   1.873   0.917
 9813TIP3    H229381   2.693   1.796   0.925
 9814TIP3   OH229382   2.022   1.095   5.662
 9814TIP3    H129383   2.065   1.058   5.585
 9814TIP3    H229384   1.930   1.103   5.637
 9815TIP3   OH229385   1.465   4.091   5.841
 9815TIP3    H129386   1.498   4.129   5.922
 9815TIP3    H229387   1.514   4.009   5.830
 9816TIP3   OH229388   4.631   1.836   4.048
 9816TIP3    H129389   4.682   1.780   4.107
 9816TIP3    H229390   4.626   1.786   3.966
 9817TIP3   OH229391   1.991   7.904   1.949
 9817TIP3    H129392   2.028   7.825   1.989
 9817TIP3    H229393   1.900   7.905   1.979
 9818TIP3   OH229394   6.385   1.437   1.459
 9818TIP3    H129395   6.338   1.403   1.382
 9818TIP3    H229396   6.353   1.527   1.469
 9819TIP3   OH229397   6.004   5.906   4.583
 9819TIP3    H129398   6.061   5.882   4.510
 9819TIP3    H229399   5.915   5.898   4.547
 9820TIP3   OH229400   7.916   0.096   5.024
 9820TIP3    H129401   7.883   0.016   4.982
 9820TIP3    H229402   7.909   0.079   5.118
 9821TIP3   OH229403   4.497   4.992   2.924
 9821TIP3    H129404   4.509   5.049   2.848
 9821TIP3    H229405   4.582   4.994   2.968
 9822TIP3   OH229406   3.278   1.403   2.712
 9822TIP3    H129407   3.219   1.338   2.673
 9822TIP3    H229408   3.267   1.481   2.659
 9823TIP3   OH229409   5.053   0.797   3.609
 9823TIP3    H129410   5.063   0.711   3.650
 9823TIP3    H229411   4.979   0.787   3.549
 9824TIP3   OH229412   1.291   0.840   6.537
 9824TIP3    H129413   1.340   0.769   6.578
 9824TIP3    H229414   1.352   0.877   6.473
 9825TIP3   OH229415   5.308   4.506   0.081
 9825TIP3    H129416   5.378   4.563   0.047
 9825TIP3    H229417   5.296   4.440   0.013
 9826TIP3   OH229418   4.994   0.554   4.747
 9826TIP3    H129419   5.045   0.574   4.669
 9826TIP3    H229420   4.996   0.458   4.753
 9827TIP3   OH229421   6.605   4.949   6.237
 9827TIP3    H129422   6.586   4.920   6.326
 9827TIP3    H229423   6.685   4.902   6.213
 9828TIP3   OH229424   4.625   6.885   0.223
 9828TIP3    H129425   4.585   6.875   0.137
 9828TIP3    H229426   4.604   6.974   0.249
 9829TIP3   OH229427   4.396   1.760   6.690
 9829TIP3    H129428   4.484   1.731   6.664
 9829TIP3    H229429   4.366   1.694   6.752
 9830TIP3   OH229430   4.081   4.494   1.765
 9830TIP3    H129431   4.039   4.576   1.789
 9830TIP3    H229432   4.010   4.430   1.767
 9831TIP3   OH229433   0.846   4.405   6.407
 9831TIP3    H129434   0.759   4.377   6.377
 9831TIP3    H229435   0.907   4.353   6.355
 9832TIP3   OH229436   5.326   3.373   5.707
 9832TIP3    H129437   5.260   3.308   5.682
 9832TIP3    H229438   5.384   3.378   5.631
 9833TIP3   OH229439   4.095   1.119   0.348
 9833TIP3    H129440   4.070   1.138   0.258
 9833TIP3    H229441   4.058   1.032   0.366
 9834TIP3   OH229442   2.201   6.485   5.787
 9834TIP3    H129443   2.175   6.398   5.815
 9834TIP3    H229444   2.283   6.502   5.834
 9835TIP3   OH229445   1.451   7.047   0.474
 9835TIP3    H129446   1.398   7.002   0.408
 9835TIP3    H229447   1.389   7.076   0.540
 9836TIP3   OH229448   3.426   5.229   2.226
 9836TIP3    H129449   3.498   5.205   2.284
 9836TIP3    H229450   3.417   5.155   2.166
 9837TIP3   OH229451   6.558   5.488   0.125
 9837TIP3    H129452   6.467   5.515   0.135
 9837TIP3    H229453   6.563   5.402   0.168
 9838TIP3   OH229454   6.865   1.149   1.095
 9838TIP3    H129455   6.879   1.151   1.001
 9838TIP3    H229456   6.833   1.060   1.113
 9839TIP3   OH229457   6.487   2.112   2.149
 9839TIP3    H129458   6.438   2.168   2.210
 9839TIP3    H229459   6.430   2.102   2.073
 9840TIP3   OH229460   7.948   2.901   0.520
 9840TIP3    H129461   7.962   2.996   0.514
 9840TIP3    H229462   7.878   2.884   0.457
 9841TIP3   OH229463   3.540   2.473   2.044
 9841TIP3    H129464   3.544   2.381   2.021
 9841TIP3    H229465   3.626   2.508   2.022
 9842TIP3   OH229466   2.432   4.600   5.080
 9842TIP3    H129467   2.345   4.564   5.094
 9842TIP3    H229468   2.480   4.579   5.160
 9843TIP3   OH229469   0.251   2.342   5.869
 9843TIP3    H129470   0.190   2.270   5.855
 9843TIP3    H229471   0.196   2.419   5.877
 9844TIP3   OH229472   8.293   5.152   3.094
 9844TIP3    H129473   8.344   5.173   3.172
 9844TIP3    H229474   8.241   5.230   3.078
 9845TIP3   OH229475   6.039   1.503   6.346
 9845TIP3    H129476   6.080   1.532   6.264
 9845TIP3    H229477   5.958   1.554   6.351
 9846TIP3   OH229478   5.847   2.606   0.757
 9846TIP3    H129479   5.917   2.550   0.789
 9846TIP3    H229480   5.887   2.693   0.749
 9847TIP3   OH229481   3.980   3.922   2.038
 9847TIP3    H129482   4.069   3.893   2.021
 9847TIP3    H229483   3.968   4.000   1.983
 9848TIP3   OH229484   0.820   6.853   5.611
 9848TIP3    H129485   0.895   6.898   5.573
 9848TIP3    H229486   0.760   6.923   5.637
 9849TIP3   OH229487   2.254   2.985   5.294
 9849TIP3    H129488   2.309   3.060   5.271
 9849TIP3    H229489   2.260   2.926   5.218
 9850TIP3   OH229490   1.991   4.478   3.850
 9850TIP3    H129491   1.959   4.461   3.762
 9850TIP3    H229492   1.965   4.568   3.868
 9851TIP3   OH229493   8.307   3.927   6.024
 9851TIP3    H129494   8.362   3.939   5.947
 9851TIP3    H229495   8.233   3.875   5.994
 9852TIP3   OH229496   4.920   2.077   1.252
 9852TIP3    H129497   4.932   1.984   1.230
 9852TIP3    H229498   4.974   2.124   1.189
 9853TIP3   OH229499   7.037   3.359   4.515
 9853TIP3    H129500   7.014   3.270   4.541
 9853TIP3    H229501   7.057   3.352   4.422
 9854TIP3   OH229502   3.179   3.058   4.589
 9854TIP3    H129503   3.121   3.133   4.602
 9854TIP3    H229504   3.264   3.088   4.621
 9855TIP3   OH229505   2.720   4.853   0.715
 9855TIP3    H129506   2.770   4.901   0.781
 9855TIP3    H229507   2.763   4.875   0.632
 9856TIP3   OH229508   0.090   7.395   0.109
 9856TIP3    H129509   0.158   7.458   0.131
 9856TIP3    H229510   0.133   7.310   0.114
 9857TIP3   OH229511   2.919   5.612   1.145
 9857TIP3    H129512   2.964   5.530   1.127
 9857TIP3    H229513   2.963   5.647   1.222
 9858TIP3   OH229514   7.764   5.769   4.465
 9858TIP3    H129515   7.821   5.775   4.542
 9858TIP3    H229516   7.795   5.691   4.419
 9859TIP3   OH229517   4.552   7.874   1.631
 9859TIP3    H129518   4.501   7.800   1.664
 9859TIP3    H229519   4.614   7.835   1.570
 9860TIP3   OH229520   2.254   6.579   0.070
 9860TIP3    H129521   2.205   6.517   0.123
 9860TIP3    H229522   2.249   6.662   0.119
 9861TIP3   OH229523   2.918   0.560   1.384
 9861TIP3    H129524   2.908   0.556   1.289
 9861TIP3    H229525   2.981   0.631   1.398
 9862TIP3   OH229526   3.698   3.184   0.771
 9862TIP3    H129527   3.661   3.102   0.740
 9862TIP3    H229528   3.654   3.200   0.855
 9863TIP3   OH229529   0.567   2.899   1.203
 9863TIP3    H129530   0.508   2.899   1.128
 9863TIP3    H229531   0.591   2.807   1.215
 9864TIP3   OH229532   1.585   6.720   5.239
 9864TIP3    H129533   1.528   6.643   5.229
 9864TIP3    H229534   1.618   6.737   5.150
 9865TIP3   OH229535   6.511   5.756   3.686
 9865TIP3    H129536   6.440   5.730   3.746
 9865TIP3    H229537   6.477   5.738   3.599
 9866TIP3   OH229538   3.582   1.475   2.279
 9866TIP3    H129539   3.505   1.494   2.226
 9866TIP3    H229540   3.654   1.474   2.217
 9867TIP3   OH229541   7.442   1.118   4.317
 9867TIP3    H129542   7.348   1.099   4.324
 9867TIP3    H229543   7.445   1.207   4.281
 9868TIP3   OH229544   1.948   7.870   5.818
 9868TIP3    H129545   2.035   7.846   5.850
 9868TIP3    H229546   1.916   7.792   5.772
 9869TIP3   OH229547   5.308   1.349   2.907
 9869TIP3    H129548   5.395   1.313   2.925
 9869TIP3    H229549   5.319   1.401   2.827
 9870TIP3   OH229550   6.888   3.322   3.830
 9870TIP3    H129551   6.873   3.261   3.902
 9870TIP3    H229552   6.800   3.347   3.800
 9871TIP3   OH229553   5.180   4.462   6.489
 9871TIP3    H129554   5.110   4.485   6.550
 9871TIP3    H229555   5.223   4.546   6.471
 9872TIP3   OH229556   1.971   5.312   3.924
 9872TIP3    H129557   2.027   5.372   3.876
 9872TIP3    H229558   2.029   5.271   3.988
 9873TIP3   OH229559   6.177   0.198   1.012
 9873TIP3    H129560   6.254   0.166   0.966
 9873TIP3    H229561   6.198   0.289   1.034
 9874TIP3   OH229562   0.259   7.210   0.390
 9874TIP3    H129563   0.287   7.285   0.444
 9874TIP3    H229564   0.268   7.134   0.448
 9875TIP3   OH229565   3.487   4.555   2.764
 9875TIP3    H129566   3.450   4.507   2.837
 9875TIP3    H229567   3.557   4.499   2.731
 9876TIP3   OH229568   8.222   0.025   4.533
 9876TIP3    H129569   8.301   0.028   4.586
 9876TIP3    H229570   8.253   0.002   4.445
 9877TIP3   OH229571   3.430   2.098   3.002
 9877TIP3    H129572   3.493   2.027   2.989
 9877TIP3    H229573   3.463   2.169   2.948
 9878TIP3   OH229574   0.916   5.519   3.447
 9878TIP3    H129575   0.983   5.477   3.500
 9878TIP3    H229576   0.871   5.579   3.506
 9879TIP3   OH229577   1.365   3.934   1.449
 9879TIP3    H129578   1.355   3.920   1.355
 9879TIP3    H229579   1.408   3.855   1.480
 9880TIP3   OH229580   6.028   1.346   1.613
 9880TIP3    H129581   6.100   1.360   1.674
 9880TIP3    H229582   6.044   1.259   1.576
 9881TIP3   OH229583   6.146   2.843   5.835
 9881TIP3    H129584   6.074   2.828   5.896
 9881TIP3    H229585   6.145   2.766   5.778
 9882TIP3   OH229586   7.771   1.223   3.534
 9882TIP3    H129587   7.701   1.158   3.541
 9882TIP3    H229588   7.744   1.293   3.593
 9883TIP3   OH229589   2.164   6.576   5.098
 9883TIP3    H129590   2.245   6.622   5.076
 9883TIP3    H229591   2.095   6.640   5.082
 9884TIP3   OH229592   7.050   5.203   6.245
 9884TIP3    H129593   7.131   5.152   6.249
 9884TIP3    H229594   7.059   5.254   6.165
 9885TIP3   OH229595   0.459   1.998   4.576
 9885TIP3    H129596   0.527   1.988   4.510
 9885TIP3    H229597   0.409   2.075   4.548
 9886TIP3   OH229598   5.641   7.174   6.797
 9886TIP3    H129599   5.733   7.170   6.824
 9886TIP3    H229600   5.601   7.236   6.858
 9887TIP3   OH229601   5.622   0.180   3.305
 9887TIP3    H129602   5.566   0.224   3.241
 9887TIP3    H229603   5.563   0.159   3.378
 9888TIP3   OH229604   6.717   6.194   4.798
 9888TIP3    H129605   6.660   6.271   4.791
 9888TIP3    H229606   6.726   6.179   4.892
 9889TIP3   OH229607   4.181   7.701   6.137
 9889TIP3    H129608   4.119   7.652   6.082
 9889TIP3    H229609   4.263   7.699   6.088
 9890TIP3   OH229610   1.140   4.748   2.997
 9890TIP3    H129611   1.222   4.727   2.952
 9890TIP3    H229612   1.078   4.766   2.926
 9891TIP3   OH229613   7.625   0.880   0.920
 9891TIP3    H129614   7.567   0.898   0.846
 9891TIP3    H229615   7.681   0.957   0.926
 9892TIP3   OH229616   3.254   2.227   4.245
 9892TIP3    H129617   3.263   2.225   4.150
 9892TIP3    H229618   3.342   2.242   4.278
 9893TIP3   OH229619   3.808   4.447   1.006
 9893TIP3    H129620   3.892   4.452   0.963
 9893TIP3    H229621   3.828   4.452   1.100
 9894TIP3   OH229622   1.838   5.608   1.830
 9894TIP3    H129623   1.904   5.650   1.886
 9894TIP3    H229624   1.837   5.516   1.860
 9895TIP3   OH229625   5.485   5.440   5.859
 9895TIP3    H129626   5.576   5.446   5.831
 9895TIP3    H229627   5.449   5.527   5.840
 9896TIP3   OH229628   0.496   6.808   3.503
 9896TIP3    H129629   0.479   6.731   3.449
 9896TIP3    H229630   0.417   6.818   3.555
 9897TIP3   OH229631   3.735   6.277   4.418
 9897TIP3    H129632   3.733   6.236   4.505
 9897TIP3    H229633   3.648   6.261   4.382
 9898TIP3   OH229634   8.330   5.414   5.032
 9898TIP3    H129635   8.322   5.506   5.056
 9898TIP3    H229636   8.402   5.381   5.086
 9899TIP3   OH229637   5.717   2.151   0.348
 9899TIP3    H129638   5.775   2.226   0.356
 9899TIP3    H229639   5.765   2.090   0.291
 9900TIP3   OH229640   3.238   6.396   4.645
 9900TIP3    H129641   3.331   6.417   4.649
 9900TIP3    H229642   3.220   6.349   4.727
 9901TIP3   OH229643   1.607   6.039   0.370
 9901TIP3    H129644   1.592   6.080   0.285
 9901TIP3    H229645   1.697   6.062   0.392
 9902TIP3   OH229646   0.130   6.220   5.405
 9902TIP3    H129647   0.206   6.223   5.465
 9902TIP3    H229648   0.167   6.240   5.319
 9903TIP3   OH229649   0.979   3.783   5.250
 9903TIP3    H129650   0.893   3.794   5.290
 9903TIP3    H229651   0.998   3.869   5.212
 9904TIP3   OH229652   2.660   0.994   2.485
 9904TIP3    H129653   2.606   1.000   2.564
 9904TIP3    H229654   2.739   0.950   2.514
 9905TIP3   OH229655   3.211   0.584   5.760
 9905TIP3    H129656   3.127   0.618   5.732
 9905TIP3    H229657   3.249   0.654   5.813
 9906TIP3   OH229658   4.415   4.654   6.452
 9906TIP3    H129659   4.399   4.566   6.487
 9906TIP3    H229660   4.340   4.672   6.397
 9907TIP3   OH229661   3.255   1.771   3.632
 9907TIP3    H129662   3.235   1.819   3.552
 9907TIP3    H229663   3.347   1.747   3.624
 9908TIP3   OH229664   3.972   7.331   1.035
 9908TIP3    H129665   3.877   7.328   1.022
 9908TIP3    H229666   4.000   7.412   0.992
 9909TIP3   OH229667   8.429   1.039   2.002
 9909TIP3    H129668   8.350   0.995   2.033
 9909TIP3    H229669   8.397   1.098   1.933
 9910TIP3   OH229670   4.294   5.968   0.550
 9910TIP3    H129671   4.382   5.982   0.515
 9910TIP3    H229672   4.282   5.873   0.549
 9911TIP3   OH229673   0.561   7.619   5.845
 9911TIP3    H129674   0.477   7.634   5.888
 9911TIP3    H229675   0.626   7.642   5.911
 9912TIP3   OH229676   3.995   7.445   2.660
 9912TIP3    H129677   3.937   7.377   2.695
 9912TIP3    H229678   3.973   7.524   2.709
 9913TIP3   OH229679   2.310   7.830   5.216
 9913TIP3    H129680   2.230   7.847   5.265
 9913TIP3    H229681   2.282   7.777   5.141
 9914TIP3   OH229682   6.638   2.639   5.929
 9914TIP3    H129683   6.621   2.733   5.923
 9914TIP3    H229684   6.720   2.633   5.978
 9915TIP3   OH229685   0.276   7.837   2.892
 9915TIP3    H129686   0.266   7.742   2.904
 9915TIP3    H229687   0.347   7.861   2.951
 9916TIP3   OH229688   2.556   7.689   3.138
 9916TIP3    H129689   2.558   7.765   3.080
 9916TIP3    H229690   2.506   7.718   3.215
 9917TIP3   OH229691   0.062   7.779   3.163
 9917TIP3    H129692   0.088   7.725   3.237
 9917TIP3    H229693   0.002   7.724   3.113
 9918TIP3   OH229694   3.152   7.185   3.495
 9918TIP3    H129695   3.192   7.268   3.519
 9918TIP3    H229696   3.081   7.209   3.435
 9919TIP3   OH229697   2.177   3.174   3.992
 9919TIP3    H129698   2.225   3.116   3.933
 9919TIP3    H229699   2.228   3.173   4.073
 9920TIP3   OH229700   2.651   2.058   5.494
 9920TIP3    H129701   2.729   2.041   5.441
 9920TIP3    H229702   2.647   2.153   5.500
 9921TIP3   OH229703   2.226   1.605   4.729
 9921TIP3    H129704   2.282   1.558   4.667
 9921TIP3    H229705   2.280   1.617   4.807
 9922TIP3   OH229706   6.052   4.354   3.715
 9922TIP3    H129707   6.127   4.320   3.667
 9922TIP3    H229708   6.016   4.422   3.659
 9923TIP3   OH229709   4.879   1.670   2.299
 9923TIP3    H129710   4.868   1.585   2.342
 9923TIP3    H229711   4.862   1.734   2.368
 9924TIP3   OH229712   2.819   1.413   0.212
 9924TIP3    H129713   2.802   1.397   0.304
 9924TIP3    H229714   2.766   1.348   0.166
 9925TIP3   OH229715   3.620   2.396   1.107
 9925TIP3    H129716   3.607   2.469   1.047
 9925TIP3    H229717   3.692   2.422   1.163
 9926TIP3   OH229718   2.267   7.838   4.842
 9926TIP3    H129719   2.225   7.768   4.893
 9926TIP3    H229720   2.208   7.913   4.851
 9927TIP3   OH229721   3.105   6.639   5.376
 9927TIP3    H129722   3.092   6.545   5.381
 9927TIP3    H229723   3.162   6.652   5.300
 9928TIP3   OH229724   1.166   3.358   1.809
 9928TIP3    H129725   1.128   3.366   1.722
 9928TIP3    H229726   1.104   3.304   1.858
 9929TIP3   OH229727   4.457   1.251   3.623
 9929TIP3    H129728   4.405   1.278   3.699
 9929TIP3    H229729   4.548   1.259   3.652
 9930TIP3   OH229730   6.352   2.598   4.838
 9930TIP3    H129731   6.432   2.551   4.815
 9930TIP3    H229732   6.367   2.628   4.928
 9931TIP3   OH229733   6.656   0.872   1.404
 9931TIP3    H129734   6.649   0.959   1.445
 9931TIP3    H229735   6.708   0.821   1.466
 9932TIP3   OH229736   7.988   0.288   5.212
 9932TIP3    H129737   8.002   0.379   5.184
 9932TIP3    H229738   8.022   0.236   5.139
 9933TIP3   OH229739   4.428   0.176   4.367
 9933TIP3    H129740   4.358   0.209   4.311
 9933TIP3    H229741   4.499   0.238   4.355
 9934TIP3   OH229742   6.186   2.705   6.152
 9934TIP3    H129743   6.270   2.659   6.156
 9934TIP3    H229744   6.208   2.793   6.120
 9935TIP3   OH229745   1.926   5.469   1.454
 9935TIP3    H129746   1.919   5.504   1.365
 9935TIP3    H229747   1.986   5.529   1.498
 9936TIP3   OH229748   0.407   4.703   2.305
 9936TIP3    H129749   0.444   4.721   2.219
 9936TIP3    H229750   0.367   4.786   2.332
 9937TIP3   OH229751   5.938   6.454   4.390
 9937TIP3    H129752   5.870   6.485   4.449
 9937TIP3    H229753   5.932   6.359   4.393
 9938TIP3   OH229754   2.504   7.235   6.443
 9938TIP3    H129755   2.462   7.238   6.528
 9938TIP3    H229756   2.503   7.325   6.412
 9939TIP3   OH229757   7.450   7.475   3.902
 9939TIP3    H129758   7.416   7.486   3.813
 9939TIP3    H229759   7.377   7.501   3.959
 9940TIP3   OH229760   2.330   4.673   5.496
 9940TIP3    H129761   2.270   4.733   5.451
 9940TIP3    H229762   2.389   4.731   5.544
 9941TIP3   OH229763   2.243   1.001   4.547
 9941TIP3    H129764   2.331   1.024   4.516
 9941TIP3    H229765   2.225   1.063   4.617
 9942TIP3   OH229766   3.531   1.909   2.069
 9942TIP3    H129767   3.541   1.843   2.001
 9942TIP3    H229768   3.447   1.890   2.110
 9943TIP3   OH229769   4.216   6.750   0.774
 9943TIP3    H129770   4.275   6.770   0.701
 9943TIP3    H229771   4.172   6.833   0.793
 9944TIP3   OH229772   0.198   0.298   5.345
 9944TIP3    H129773   0.261   0.229   5.324
 9944TIP3    H229774   0.147   0.309   5.265
 9945TIP3   OH229775   7.472   2.962   5.530
 9945TIP3    H129776   7.456   2.971   5.624
 9945TIP3    H229777   7.500   2.871   5.519
 9946TIP3   OH229778   4.420   3.159   3.445
 9946TIP3    H129779   4.388   3.177   3.534
 9946TIP3    H229780   4.464   3.240   3.419
 9947TIP3   OH229781   1.855   4.742   1.403
 9947TIP3    H129782   1.764   4.733   1.430
 9947TIP3    H229783   1.856   4.822   1.351
 9948TIP3   OH229784   6.078   0.547   2.454
 9948TIP3    H129785   6.084   0.481   2.522
 9948TIP3    H229786   6.144   0.612   2.478
 9949TIP3   OH229787   4.116   7.214   5.978
 9949TIP3    H129788   4.055   7.186   5.909
 9949TIP3    H229789   4.167   7.135   5.998
 9950TIP3   OH229790   2.982   4.080   2.670
 9950TIP3    H129791   2.891   4.086   2.698
 9950TIP3    H229792   2.986   4.127   2.587
 9951TIP3   OH229793   4.633   2.113   0.035
 9951TIP3    H129794   4.623   2.175   0.107
 9951TIP3    H229795   4.702   2.053   0.063
 9952TIP3   OH229796   6.077   6.157   4.293
 9952TIP3    H129797   6.138   6.085   4.309
 9952TIP3    H229798   6.010   6.120   4.235
 9953TIP3   OH229799   8.264   4.517   5.379
 9953TIP3    H129800   8.223   4.537   5.463
 9953TIP3    H229801   8.191   4.506   5.318
 9954TIP3   OH229802   6.484   4.894   4.798
 9954TIP3    H129803   6.396   4.892   4.761
 9954TIP3    H229804   6.517   4.805   4.785
 9955TIP3   OH229805   7.286   3.578   4.363
 9955TIP3    H129806   7.337   3.539   4.434
 9955TIP3    H229807   7.288   3.672   4.381
 9956TIP3   OH229808   3.454   2.483   2.581
 9956TIP3    H129809   3.416   2.447   2.662
 9956TIP3    H229810   3.528   2.536   2.611
 9957TIP3   OH229811   5.571   1.240   2.926
 9957TIP3    H129812   5.546   1.212   3.014
 9957TIP3    H229813   5.662   1.212   2.918
 9958TIP3   OH229814   6.838   2.792   0.073
 9958TIP3    H129815   6.756   2.842   0.070
 9958TIP3    H229816   6.841   2.756   0.162
 9959TIP3   OH229817   3.548   3.498   4.282
 9959TIP3    H129818   3.461   3.534   4.265
 9959TIP3    H229819   3.542   3.407   4.253
 9960TIP3   OH229820   1.503   2.872   4.880
 9960TIP3    H129821   1.578   2.924   4.852
 9960TIP3    H229822   1.505   2.877   4.976
 9961TIP3   OH229823   7.257   0.691   1.161
 9961TIP3    H129824   7.243   0.684   1.255
 9961TIP3    H229825   7.347   0.662   1.147
 9962TIP3   OH229826   2.286   6.702   6.742
 9962TIP3    H129827   2.310   6.754   6.665
 9962TIP3    H229828   2.224   6.637   6.710
 9963TIP3   OH229829   3.863   2.682   4.595
 9963TIP3    H129830   3.917   2.653   4.522
 9963TIP3    H229831   3.809   2.606   4.618
 9964TIP3   OH229832   4.131   0.729   3.506
 9964TIP3    H129833   4.096   0.810   3.543
 9964TIP3    H229834   4.224   0.746   3.494
 9965TIP3   OH229835   4.413   3.934   4.532
 9965TIP3    H129836   4.404   3.947   4.437
 9965TIP3    H229837   4.486   3.991   4.556
 9966TIP3   OH229838   8.159   6.023   4.913
 9966TIP3    H129839   8.106   5.978   4.979
 9966TIP3    H229840   8.230   6.063   4.962
 9967TIP3   OH229841   4.664   6.677   0.402
 9967TIP3    H129842   4.660   6.748   0.338
 9967TIP3    H229843   4.690   6.600   0.351
 9968TIP3   OH229844   1.343   4.664   4.689
 9968TIP3    H129845   1.431   4.628   4.697
 9968TIP3    H229846   1.351   4.753   4.723
 9969TIP3   OH229847   8.237   1.750   0.911
 9969TIP3    H129848   8.143   1.761   0.901
 9969TIP3    H229849   8.272   1.759   0.822
 9970TIP3   OH229850   7.823   0.593   3.732
 9970TIP3    H129851   7.858   0.674   3.769
 9970TIP3    H229852   7.795   0.618   3.643
 9971TIP3   OH229853   7.029   2.480   1.137
 9971TIP3    H129854   6.947   2.507   1.177
 9971TIP3    H229855   7.069   2.562   1.107
 9972TIP3   OH229856   5.021   0.973   2.638
 9972TIP3    H129857   5.097   0.993   2.583
 9972TIP3    H229858   5.058   0.924   2.712
 9973TIP3   OH229859   7.607   0.593   0.694
 9973TIP3    H129860   7.556   0.572   0.615
 9973TIP3    H229861   7.638   0.683   0.679
 9974TIP3   OH229862   7.972   4.646   6.117
 9974TIP3    H129863   7.932   4.576   6.066
 9974TIP3    H229864   7.987   4.716   6.053
 9975TIP3   OH229865   8.049   2.347   4.176
 9975TIP3    H129866   8.112   2.393   4.121
 9975TIP3    H229867   7.972   2.335   4.119
 9976TIP3   OH229868   2.494   1.763   5.621
 9976TIP3    H129869   2.400   1.771   5.605
 9976TIP3    H229870   2.527   1.708   5.549
 9977TIP3   OH229871   1.752   1.157   0.283
 9977TIP3    H129872   1.781   1.066   0.287
 9977TIP3    H229873   1.805   1.202   0.349
 9978TIP3   OH229874   7.343   5.906   3.047
 9978TIP3    H129875   7.252   5.902   3.017
 9978TIP3    H229876   7.393   5.933   2.970
 9979TIP3   OH229877   8.054   2.444   2.621
 9979TIP3    H129878   8.006   2.523   2.599
 9979TIP3    H229879   7.988   2.383   2.654
 9980TIP3   OH229880   1.280   7.755   1.536
 9980TIP3    H129881   1.247   7.835   1.577
 9980TIP3    H229882   1.263   7.767   1.442
 9981TIP3   OH229883   5.172   1.506   0.452
 9981TIP3    H129884   5.082   1.477   0.433
 9981TIP3    H229885   5.227   1.441   0.408
 9982TIP3   OH229886   4.638   5.459   2.160
 9982TIP3    H129887   4.648   5.478   2.067
 9982TIP3    H229888   4.685   5.376   2.173
 9983TIP3   OH229889   1.060   7.548   1.444
 9983TIP3    H129890   1.014   7.609   1.387
 9983TIP3    H229891   1.055   7.588   1.531
 9984TIP3   OH229892   2.855   6.444   3.199
 9984TIP3    H129893   2.831   6.510   3.264
 9984TIP3    H229894   2.883   6.369   3.251
 9985TIP3   OH229895   1.571   0.620   6.030
 9985TIP3    H129896   1.624   0.699   6.017
 9985TIP3    H229897   1.530   0.633   6.115
 9986TIP3   OH229898   6.437   0.737   1.209
 9986TIP3    H129899   6.419   0.809   1.149
 9986TIP3    H229900   6.509   0.769   1.263
 9987TIP3   OH229901   7.004   3.482   0.163
 9987TIP3    H129902   6.936   3.415   0.173
 9987TIP3    H229903   7.060   3.449   0.093
 9988TIP3   OH229904   2.441   4.285   5.519
 9988TIP3    H129905   2.381   4.329   5.578
 9988TIP3    H229906   2.463   4.203   5.564
 9989TIP3   OH229907   3.129   7.250   5.668
 9989TIP3    H129908   3.176   7.179   5.712
 9989TIP3    H229909   3.145   7.234   5.574
 9990TIP3   OH229910   3.008   7.176   1.541
 9990TIP3    H129911   2.971   7.263   1.527
 9990TIP3    H229912   2.949   7.134   1.604
 9991TIP3   OH229913   6.217   2.426   3.391
 9991TIP3    H129914   6.163   2.354   3.424
 9991TIP3    H229915   6.268   2.387   3.320
 9992TIP3   OH229916   1.990   0.842   4.745
 9992TIP3    H129917   2.040   0.762   4.734
 9992TIP3    H229918   2.034   0.906   4.688
 9993TIP3   OH229919   6.045   4.598   0.179
 9993TIP3    H129920   6.113   4.665   0.188
 9993TIP3    H229921   6.079   4.522   0.225
 9994TIP3   OH229922   4.246   5.381   6.732
 9994TIP3    H129923   4.159   5.352   6.705
 9994TIP3    H229924   4.305   5.348   6.664
 9995TIP3   OH229925   7.280   3.246   6.198
 9995TIP3    H129926   7.356   3.288   6.158
 9995TIP3    H229927   7.241   3.193   6.128
 9996TIP3   OH229928   7.120   0.389   2.139
 9996TIP3    H129929   7.025   0.382   2.147
 9996TIP3    H229930   7.151   0.298   2.136
 9997TIP3   OH229931   0.472   5.470   0.217
 9997TIP3    H129932   0.530   5.394   0.227
 9997TIP3    H229933   0.500   5.510   0.135
 9998TIP3   OH229934   2.170   5.618   1.530
 9998TIP3    H129935   2.242   5.561   1.504
 9998TIP3    H229936   2.157   5.677   1.455
 9999TIP3   OH229937   0.093   5.080   0.924
 9999TIP3    H129938   0.175   5.032   0.909
 9999TIP3    H229939   0.032   5.044   0.860
10000TIP3   OH229940   5.186   3.868   5.815
10000TIP3    H129941   5.226   3.954   5.807
10000TIP3    H229942   5.252   3.807   5.781
10001TIP3   OH229943   3.087   3.974   2.907
10001TIP3    H129944   3.166   3.923   2.886
10001TIP3    H229945   3.054   4.004   2.822
10002TIP3   OH229946   1.267   0.124   3.603
10002TIP3    H129947   1.256   0.190   3.670
10002TIP3    H229948   1.225   0.046   3.638
10003TIP3   OH229949   2.846   5.850   1.441
10003TIP3    H129950   2.850   5.940   1.407
10003TIP3    H229951   2.760   5.818   1.416
10004TIP3   OH229952   2.726   4.325   5.150
10004TIP3    H129953   2.632   4.310   5.157
10004TIP3    H229954   2.737   4.374   5.068
10005TIP3   OH229955   3.989   0.860   3.766
10005TIP3    H129956   3.988   0.862   3.861
10005TIP3    H229957   4.071   0.904   3.742
10006TIP3   OH229958   2.520   0.802   4.889
10006TIP3    H129959   2.527   0.758   4.804
10006TIP3    H229960   2.592   0.767   4.940
10007TIP3   OH229961   2.598   3.191   5.534
10007TIP3    H129962   2.548   3.127   5.584
10007TIP3    H229963   2.629   3.254   5.598
10008TIP3   OH229964   0.625   5.732   0.270
10008TIP3    H129965   0.646   5.646   0.306
10008TIP3    H229966   0.585   5.780   0.343
10009TIP3   OH229967   3.665   2.079   2.268
10009TIP3    H129968   3.608   2.022   2.216
10009TIP3    H229969   3.604   2.140   2.311
10010TIP3   OH229970   5.385   7.094   6.761
10010TIP3    H129971   5.470   7.127   6.790
10010TIP3    H229972   5.360   7.151   6.689
10011TIP3   OH229973   2.447   6.880   0.172
10011TIP3    H129974   2.536   6.846   0.181
10011TIP3    H229975   2.445   6.922   0.086
10012TIP3   OH229976   5.730   3.255   3.823
10012TIP3    H129977   5.649   3.305   3.812
10012TIP3    H229978   5.759   3.236   3.734
10013TIP3   OH229979   5.802   3.009   6.607
10013TIP3    H129980   5.789   2.953   6.684
10013TIP3    H229981   5.893   3.037   6.613
10014TIP3   OH229982   3.960   6.058   2.741
10014TIP3    H129983   4.001   6.079   2.825
10014TIP3    H229984   3.880   6.011   2.764
10015TIP3   OH229985   7.968   5.673   5.578
10015TIP3    H129986   7.904   5.689   5.647
10015TIP3    H229987   7.920   5.624   5.511
10016TIP3   OH229988   4.290   1.605   1.863
10016TIP3    H129989   4.226   1.669   1.831
10016TIP3    H229990   4.309   1.633   1.952
10017TIP3   OH229991   1.363   2.090   0.840
10017TIP3    H129992   1.287   2.135   0.803
10017TIP3    H229993   1.428   2.093   0.769
10018TIP3   OH229994   6.957   3.781   1.240
10018TIP3    H129995   6.899   3.728   1.295
10018TIP3    H229996   7.016   3.824   1.302
10019TIP3   OH229997   6.028   4.282   5.351
10019TIP3    H129998   6.118   4.253   5.370
10019TIP3    H229999   6.017   4.361   5.404
10020TIP3   OH230000   2.418   6.182   0.471
10020TIP3    H130001   2.448   6.106   0.520
10020TIP3    H230002   2.498   6.226   0.443
10021TIP3   OH230003   2.937   6.501   1.159
10021TIP3    H130004   2.931   6.547   1.243
10021TIP3    H230005   3.028   6.516   1.130
10022TIP3   OH230006   2.250   7.730   1.627
10022TIP3    H130007   2.315   7.786   1.585
10022TIP3    H230008   2.179   7.789   1.653
10023TIP3   OH230009   6.986   0.099   2.993
10023TIP3    H130010   6.988   0.098   2.897
10023TIP3    H230011   7.075   0.122   3.019
10024TIP3   OH230012   5.187   5.694   4.140
10024TIP3    H130013   5.211   5.673   4.050
10024TIP3    H230014   5.097   5.725   4.135
10025TIP3   OH230015   2.978   1.630   6.129
10025TIP3    H130016   2.968   1.666   6.217
10025TIP3    H230017   3.031   1.551   6.142
10026TIP3   OH230018   3.992   0.311   2.687
10026TIP3    H130019   3.901   0.286   2.678
10026TIP3    H230020   4.007   0.374   2.616
10027TIP3   OH230021   2.449   4.140   6.010
10027TIP3    H130022   2.431   4.088   6.088
10027TIP3    H230023   2.468   4.076   5.942
10028TIP3   OH230024   4.794   4.366   1.725
10028TIP3    H130025   4.885   4.394   1.726
10028TIP3    H230026   4.773   4.346   1.816
10029TIP3   OH230027   6.539   7.730   6.814
10029TIP3    H130028   6.460   7.690   6.777
10029TIP3    H230029   6.592   7.755   6.738
10030TIP3   OH230030   3.215   6.989   6.403
10030TIP3    H130031   3.146   7.055   6.396
10030TIP3    H230032   3.278   7.027   6.465
10031TIP3   OH230033   5.320   7.532   0.152
10031TIP3    H130034   5.406   7.494   0.168
10031TIP3    H230035   5.259   7.469   0.190
10032TIP3   OH230036   5.542   4.173   2.421
10032TIP3    H130037   5.480   4.140   2.357
10032TIP3    H230038   5.573   4.095   2.467
10033TIP3   OH230039   7.123   2.924   2.148
10033TIP3    H130040   7.056   2.872   2.193
10033TIP3    H230041   7.080   2.954   2.068
10034TIP3   OH230042   0.070   3.012   3.641
10034TIP3    H130043  -0.015   3.056   3.650
10034TIP3    H230044   0.134   3.077   3.670
10035TIP3   OH230045   4.804   3.225   1.307
10035TIP3    H130046   4.854   3.154   1.267
10035TIP3    H230047   4.717   3.219   1.268
10036TIP3   OH230048   2.863   4.441   5.984
10036TIP3    H130049   2.880   4.510   6.048
10036TIP3    H230050   2.816   4.373   6.033
10037TIP3   OH230051   7.720   2.430   3.299
10037TIP3    H130052   7.776   2.383   3.238
10037TIP3    H230053   7.696   2.364   3.365
10038TIP3   OH230054   2.587   2.492   1.801
10038TIP3    H130055   2.523   2.426   1.827
10038TIP3    H230056   2.617   2.463   1.715
10039TIP3   OH230057   1.523   7.356   1.878
10039TIP3    H130058   1.484   7.277   1.915
10039TIP3    H230059   1.450   7.417   1.870
10040TIP3   OH230060   6.027   0.722   3.314
10040TIP3    H130061   6.047   0.702   3.223
10040TIP3    H230062   5.933   0.709   3.322
10041TIP3   OH230063   4.567   3.382   0.457
10041TIP3    H130064   4.521   3.369   0.374
10041TIP3    H230065   4.500   3.413   0.517
10042TIP3   OH230066   6.113   4.340   4.198
10042TIP3    H130067   6.148   4.296   4.121
10042TIP3    H230068   6.123   4.433   4.179
10043TIP3   OH230069   1.634   7.649   4.128
10043TIP3    H130070   1.569   7.638   4.198
10043TIP3    H230071   1.614   7.734   4.090
10044TIP3   OH230072   6.170   6.109   0.493
10044TIP3    H130073   6.200   6.199   0.480
10044TIP3    H230074   6.165   6.072   0.405
10045TIP3   OH230075   5.170   2.672   0.046
10045TIP3    H130076   5.171   2.603   0.113
10045TIP3    H230077   5.114   2.740   0.083
10046TIP3   OH230078   0.109   4.332   5.934
10046TIP3    H130079   0.128   4.278   6.010
10046TIP3    H230080   0.146   4.418   5.956
10047TIP3   OH230081   5.301   0.322   6.534
10047TIP3    H130082   5.307   0.360   6.621
10047TIP3    H230083   5.222   0.361   6.496
10048TIP3   OH230084   1.448   3.548   6.305
10048TIP3    H130085   1.372   3.559   6.362
10048TIP3    H230086   1.417   3.489   6.236
10049TIP3   OH230087   3.156   3.786   0.948
10049TIP3    H130088   3.195   3.720   0.891
10049TIP3    H230089   3.185   3.870   0.912
10050TIP3   OH230090   2.266   6.391   5.506
10050TIP3    H130091   2.354   6.357   5.495
10050TIP3    H230092   2.262   6.419   5.598
10051TIP3   OH230093   4.261   5.620   3.875
10051TIP3    H130094   4.332   5.674   3.909
10051TIP3    H230095   4.195   5.620   3.945
10052TIP3   OH230096   1.234   6.487   3.768
10052TIP3    H130097   1.194   6.563   3.811
10052TIP3    H230098   1.291   6.525   3.701
10053TIP3   OH230099   2.461   2.101   2.717
10053TIP3    H130100   2.494   2.158   2.787
10053TIP3    H230101   2.536   2.046   2.694
10054TIP3   OH230102   2.360   3.146   2.115
10054TIP3    H130103   2.283   3.193   2.145
10054TIP3    H230104   2.352   3.059   2.155
10055TIP3   OH230105   5.442   5.261   0.078
10055TIP3    H130106   5.505   5.331   0.065
10055TIP3    H230107   5.420   5.266   0.171
10056TIP3   OH230108   4.657   1.365   5.575
10056TIP3    H130109   4.704   1.436   5.619
10056TIP3    H230110   4.565   1.385   5.591
10057TIP3   OH230111   6.340   4.151   2.200
10057TIP3    H130112   6.342   4.221   2.266
10057TIP3    H230113   6.289   4.188   2.127
10058TIP3   OH230114   2.261   7.406   0.615
10058TIP3    H130115   2.288   7.441   0.530
10058TIP3    H230116   2.177   7.362   0.597
10059TIP3   OH230117   5.541   7.348   0.216
10059TIP3    H130118   5.617   7.399   0.244
10059TIP3    H230119   5.574   7.259   0.209
10060TIP3   OH230120   4.360   3.087   0.514
10060TIP3    H130121   4.392   3.095   0.604
10060TIP3    H230122   4.282   3.143   0.512
10061TIP3   OH230123   3.389   5.633   4.694
10061TIP3    H130124   3.416   5.570   4.627
10061TIP3    H230125   3.302   5.605   4.721
10062TIP3   OH230126   1.447   1.730   2.983
10062TIP3    H130127   1.413   1.641   2.991
10062TIP3    H230128   1.466   1.757   3.073
10063TIP3   OH230129   0.800   3.945   5.366
10063TIP3    H130130   0.761   3.912   5.447
10063TIP3    H230131   0.872   4.001   5.395
10064TIP3   OH230132   1.697   6.730   4.961
10064TIP3    H130133   1.705   6.816   4.921
10064TIP3    H230134   1.660   6.675   4.893
10065TIP3   OH230135   0.191   0.390   6.599
10065TIP3    H130136   0.183   0.393   6.504
10065TIP3    H230137   0.273   0.436   6.618
10066TIP3   OH230138   5.228   4.252   4.219
10066TIP3    H130139   5.138   4.220   4.223
10066TIP3    H230140   5.257   4.256   4.310
10067TIP3   OH230141   6.409   2.898   4.085
10067TIP3    H130142   6.452   2.908   4.169
10067TIP3    H230143   6.377   2.808   4.085
10068TIP3   OH230144   1.522   3.253   4.541
10068TIP3    H130145   1.562   3.340   4.543
10068TIP3    H230146   1.432   3.267   4.513
10069TIP3   OH230147   0.179   7.500   4.282
10069TIP3    H130148   0.185   7.521   4.375
10069TIP3    H230149   0.270   7.494   4.252
10070TIP3   OH230150   6.095   7.012   2.656
10070TIP3    H130151   6.034   6.962   2.710
10070TIP3    H230152   6.175   6.961   2.656
10071TIP3   OH230153   2.855   3.577   5.516
10071TIP3    H130154   2.919   3.604   5.582
10071TIP3    H230155   2.793   3.650   5.512
10072TIP3   OH230156   8.319   6.861   0.936
10072TIP3    H130157   8.320   6.809   0.856
10072TIP3    H230158   8.302   6.797   1.005
10073TIP3   OH230159   1.211   0.363   6.753
10073TIP3    H130160   1.181   0.344   6.664
10073TIP3    H230161   1.157   0.307   6.808
10074TIP3   OH230162   5.611   5.588   3.524
10074TIP3    H130163   5.678   5.607   3.459
10074TIP3    H230164   5.656   5.537   3.592
10075TIP3   OH230165   4.137   7.752   2.006
10075TIP3    H130166   4.101   7.780   2.090
10075TIP3    H230167   4.212   7.696   2.029
10076TIP3   OH230168   7.348   4.951   2.098
10076TIP3    H130169   7.299   4.995   2.028
10076TIP3    H230170   7.415   5.014   2.125
10077TIP3   OH230171   4.288   2.642   4.741
10077TIP3    H130172   4.213   2.700   4.728
10077TIP3    H230173   4.303   2.604   4.655
10078TIP3   OH230174   7.994   7.768   3.944
10078TIP3    H130175   8.032   7.694   3.895
10078TIP3    H230176   8.031   7.760   4.032
10079TIP3   OH230177   6.883   2.683   1.637
10079TIP3    H130178   6.924   2.657   1.555
10079TIP3    H230179   6.818   2.616   1.655
10080TIP3   OH230180   1.384   1.461   3.111
10080TIP3    H130181   1.401   1.519   3.185
10080TIP3    H230182   1.313   1.404   3.142
10081TIP3   OH230183   5.992   4.719   0.542
10081TIP3    H130184   5.965   4.811   0.537
10081TIP3    H230185   5.918   4.675   0.584
10082TIP3   OH230186   6.889   3.890   3.363
10082TIP3    H130187   6.866   3.896   3.456
10082TIP3    H230188   6.909   3.797   3.349
10083TIP3   OH230189   8.012   3.285   0.795
10083TIP3    H130190   8.088   3.342   0.803
10083TIP3    H230191   8.022   3.221   0.865
10084TIP3   OH230192   1.293   4.634   0.161
10084TIP3    H130193   1.353   4.559   0.168
10084TIP3    H230194   1.270   4.637   0.068
10085TIP3   OH230195   5.253   4.145   0.456
10085TIP3    H130196   5.252   4.062   0.409
10085TIP3    H230197   5.326   4.137   0.518
10086TIP3   OH230198   6.202   1.509   3.526
10086TIP3    H130199   6.134   1.492   3.590
10086TIP3    H230200   6.158   1.554   3.454
10087TIP3   OH230201   7.880   2.572   2.306
10087TIP3    H130202   7.856   2.641   2.244
10087TIP3    H230203   7.955   2.528   2.265
10088TIP3   OH230204   6.948   1.034   0.740
10088TIP3    H130205   6.990   0.971   0.799
10088TIP3    H230206   6.967   1.000   0.652
10089TIP3   OH230207   5.933   6.038   4.853
10089TIP3    H130208   6.024   6.025   4.877
10089TIP3    H230209   5.929   6.016   4.760
10090TIP3   OH230210   1.812   6.897   5.837
10090TIP3    H130211   1.741   6.956   5.812
10090TIP3    H230212   1.876   6.905   5.766
10091TIP3   OH230213   3.825   1.247   5.952
10091TIP3    H130214   3.856   1.244   5.861
10091TIP3    H230215   3.764   1.320   5.955
10092TIP3   OH230216   8.234   0.572   0.281
10092TIP3    H130217   8.272   0.618   0.356
10092TIP3    H230218   8.218   0.641   0.217
10093TIP3   OH230219   6.245   6.266   0.068
10093TIP3    H130220   6.220   6.183   0.109
10093TIP3    H230221   6.216   6.333   0.129
10094TIP3   OH230222   0.214   7.048   5.185
10094TIP3    H130223   0.156   7.055   5.261
10094TIP3    H230224   0.266   7.128   5.186
10095TIP3   OH230225   3.870   2.113   6.012
10095TIP3    H130226   3.874   2.200   6.052
10095TIP3    H230227   3.953   2.105   5.965
10096TIP3   OH230228   1.566   6.574   4.790
10096TIP3    H130229   1.476   6.605   4.779
10096TIP3    H230230   1.597   6.557   4.701
10097TIP3   OH230231   0.006   7.072   6.343
10097TIP3    H130232  -0.013   6.996   6.288
10097TIP3    H230233   0.008   7.038   6.432
10098TIP3   OH230234   2.131   3.811   6.146
10098TIP3    H130235   2.218   3.773   6.155
10098TIP3    H230236   2.072   3.736   6.143
10099TIP3   OH230237   7.746   4.539   1.538
10099TIP3    H130238   7.698   4.527   1.620
10099TIP3    H230239   7.678   4.546   1.471
10100TIP3   OH230240   6.028   5.471   6.737
10100TIP3    H130241   5.991   5.546   6.783
10100TIP3    H230242   6.123   5.484   6.742
10101TIP3   OH230243   0.521   5.868   0.491
10101TIP3    H130244   0.573   5.860   0.571
10101TIP3    H230245   0.456   5.798   0.498
10102TIP3   OH230246   6.309   7.588   6.731
10102TIP3    H130247   6.254   7.571   6.807
10102TIP3    H230248   6.322   7.502   6.690
10103TIP3   OH230249   8.315   7.474   4.243
10103TIP3    H130250   8.292   7.448   4.154
10103TIP3    H230251   8.410   7.464   4.247
10104TIP3   OH230252   7.388   4.243   1.676
10104TIP3    H130253   7.390   4.305   1.603
10104TIP3    H230254   7.443   4.283   1.743
10105TIP3   OH230255   2.723   6.836   0.198
10105TIP3    H130256   2.698   6.766   0.259
10105TIP3    H230257   2.809   6.809   0.166
10106TIP3   OH230258   2.464   7.824   2.021
10106TIP3    H130259   2.559   7.830   2.021
10106TIP3    H230260   2.435   7.909   2.053
10107TIP3   OH230261   1.216   5.171   6.107
10107TIP3    H130262   1.224   5.158   6.012
10107TIP3    H230263   1.299   5.211   6.133
10108TIP3   OH230264   5.250   7.841   0.189
10108TIP3    H130265   5.285   7.764   0.145
10108TIP3    H230266   5.247   7.909   0.122
10109TIP3   OH230267   6.830   0.696   3.718
10109TIP3    H130268   6.825   0.778   3.669
10109TIP3    H230269   6.741   0.681   3.748
10110TIP3   OH230270   0.766   1.540   3.065
10110TIP3    H130271   0.716   1.481   3.122
10110TIP3    H230272   0.808   1.483   3.001
10111TIP3   OH230273   1.663   0.347   5.702
10111TIP3    H130274   1.693   0.410   5.767
10111TIP3    H230275   1.672   0.262   5.745
10112TIP3   OH230276   3.305   0.978   5.448
10112TIP3    H130277   3.359   1.038   5.500
10112TIP3    H230278   3.368   0.926   5.398
10113TIP3   OH230279   0.388   5.314   5.014
10113TIP3    H130280   0.354   5.398   4.985
10113TIP3    H230281   0.326   5.250   4.980
10114TIP3   OH230282   0.214   4.106   1.819
10114TIP3    H130283   0.252   4.044   1.758
10114TIP3    H230284   0.254   4.084   1.903
10115TIP3   OH230285   4.516   4.413   4.735
10115TIP3    H130286   4.594   4.454   4.695
10115TIP3    H230287   4.515   4.447   4.824
10116TIP3   OH230288   1.659   1.128   0.950
10116TIP3    H130289   1.671   1.107   1.042
10116TIP3    H230290   1.711   1.208   0.936
10117TIP3   OH230291   1.644   4.711   2.023
10117TIP3    H130292   1.600   4.774   2.080
10117TIP3    H230293   1.590   4.632   2.029
10118TIP3   OH230294   2.543   7.181   2.255
10118TIP3    H130295   2.570   7.139   2.336
10118TIP3    H230296   2.622   7.225   2.223
10119TIP3   OH230297   5.921   3.355   1.122
10119TIP3    H130298   5.931   3.260   1.127
10119TIP3    H230299   6.010   3.388   1.114
10120TIP3   OH230300   0.315   3.758   1.110
10120TIP3    H130301   0.385   3.693   1.112
10120TIP3    H230302   0.289   3.769   1.201
10121TIP3   OH230303   4.514   4.574   4.169
10121TIP3    H130304   4.553   4.607   4.250
10121TIP3    H230305   4.469   4.494   4.195
10122TIP3   OH230306   3.002   5.152   3.024
10122TIP3    H130307   2.948   5.193   3.091
10122TIP3    H230308   2.977   5.060   3.026
10123TIP3   OH230309   1.580   2.592   2.277
10123TIP3    H130310   1.498   2.547   2.291
10123TIP3    H230311   1.599   2.581   2.184
10124TIP3   OH230312   3.454   2.116   3.681
10124TIP3    H130313   3.430   2.093   3.591
10124TIP3    H230314   3.548   2.130   3.678
10125TIP3   OH230315   4.165   3.582   6.000
10125TIP3    H130316   4.200   3.493   6.007
10125TIP3    H230317   4.100   3.576   5.930
10126TIP3   OH230318   0.713   0.744   5.415
10126TIP3    H130319   0.743   0.756   5.325
10126TIP3    H230320   0.651   0.671   5.410
10127TIP3   OH230321   1.625   5.346   4.610
10127TIP3    H130322   1.595   5.325   4.699
10127TIP3    H230323   1.618   5.441   4.605
10128TIP3   OH230324   8.114   4.588   0.371
10128TIP3    H130325   8.110   4.516   0.308
10128TIP3    H230326   8.023   4.601   0.399
10129TIP3   OH230327   4.541   0.727   0.607
10129TIP3    H130328   4.632   0.713   0.583
10129TIP3    H230329   4.494   0.733   0.524
10130TIP3   OH230330   2.692   7.391   5.346
10130TIP3    H130331   2.770   7.381   5.292
10130TIP3    H230332   2.633   7.446   5.294
10131TIP3   OH230333   1.711   3.835   6.285
10131TIP3    H130334   1.629   3.874   6.253
10131TIP3    H230335   1.721   3.871   6.373
10132TIP3   OH230336   5.439   3.152   3.234
10132TIP3    H130337   5.487   3.141   3.316
10132TIP3    H230338   5.372   3.218   3.254
10133TIP3   OH230339   1.348   4.166   2.773
10133TIP3    H130340   1.394   4.084   2.755
10133TIP3    H230341   1.376   4.192   2.860
10134TIP3   OH230342   1.599   0.053   2.124
10134TIP3    H130343   1.607  -0.033   2.166
10134TIP3    H230344   1.529   0.042   2.060
10135TIP3   OH230345   2.094   0.527   0.664
10135TIP3    H130346   2.003   0.554   0.653
10135TIP3    H230347   2.120   0.495   0.577
10136TIP3   OH230348   7.753   0.043   4.689
10136TIP3    H130349   7.686   0.092   4.640
10136TIP3    H230350   7.764  -0.038   4.639
10137TIP3   OH230351   2.933   5.936   5.426
10137TIP3    H130352   2.912   5.867   5.363
10137TIP3    H230353   2.914   5.898   5.512
10138TIP3   OH230354   2.446   4.441   2.877
10138TIP3    H130355   2.419   4.373   2.939
10138TIP3    H230356   2.514   4.398   2.824
10139TIP3   OH230357   0.456   6.093   6.228
10139TIP3    H130358   0.428   6.176   6.265
10139TIP3    H230359   0.446   6.030   6.300
10140TIP3   OH230360   7.676   4.829   1.637
10140TIP3    H130361   7.589   4.850   1.604
10140TIP3    H230362   7.695   4.741   1.605
10141TIP3   OH230363   7.293   5.620   1.945
10141TIP3    H130364   7.311   5.543   2.000
10141TIP3    H230365   7.323   5.694   1.998
10142TIP3   OH230366   7.545   7.298   6.326
10142TIP3    H130367   7.637   7.318   6.311
10142TIP3    H230368   7.540   7.274   6.418
10143TIP3   OH230369   6.364   4.673   5.570
10143TIP3    H130370   6.433   4.734   5.545
10143TIP3    H230371   6.339   4.700   5.658
10144TIP3   OH230372   0.889   2.914   5.229
10144TIP3    H130373   0.856   2.826   5.212
10144TIP3    H230374   0.963   2.902   5.289
10145TIP3   OH230375   7.922   6.641   6.125
10145TIP3    H130376   7.936   6.650   6.030
10145TIP3    H230377   7.907   6.730   6.156
10146TIP3   OH230378   2.863   7.467   1.808
10146TIP3    H130379   2.894   7.541   1.757
10146TIP3    H230380   2.902   7.479   1.894
10147TIP3   OH230381   8.249   0.483   4.369
10147TIP3    H130382   8.291   0.562   4.335
10147TIP3    H230383   8.175   0.468   4.309
10148TIP3   OH230384   6.422   0.903   5.306
10148TIP3    H130385   6.416   0.997   5.295
10148TIP3    H230386   6.512   0.881   5.281
10149TIP3   OH230387   0.007   3.745   2.059
10149TIP3    H130388   0.002   3.775   1.968
10149TIP3    H230389   0.091   3.698   2.064
10150TIP3   OH230390   1.009   0.932   3.565
10150TIP3    H130391   0.956   0.964   3.638
10150TIP3    H230392   0.992   0.838   3.563
10151TIP3   OH230393   1.780   2.104   6.246
10151TIP3    H130394   1.745   2.193   6.239
10151TIP3    H230395   1.828   2.104   6.329
10152TIP3   OH230396   1.596   5.684   4.046
10152TIP3    H130397   1.531   5.641   3.991
10152TIP3    H230398   1.679   5.672   3.998
10153TIP3   OH230399   1.377   6.729   4.247
10153TIP3    H130400   1.398   6.662   4.312
10153TIP3    H230401   1.453   6.786   4.246
10154TIP3   OH230402   0.014   4.873   3.151
10154TIP3    H130403   0.045   4.946   3.096
10154TIP3    H230404   0.072   4.801   3.129
10155TIP3   OH230405   0.972   3.713   4.840
10155TIP3    H130406   1.023   3.634   4.823
10155TIP3    H230407   1.006   3.778   4.778
10156TIP3   OH230408   4.655   4.156   0.966
10156TIP3    H130409   4.613   4.075   0.995
10156TIP3    H230410   4.692   4.194   1.046
10157TIP3   OH230411   4.511   1.875   1.698
10157TIP3    H130412   4.592   1.854   1.652
10157TIP3    H230413   4.533   1.867   1.791
10158TIP3   OH230414   1.454   2.508   3.100
10158TIP3    H130415   1.505   2.564   3.043
10158TIP3    H230416   1.381   2.477   3.045
10159TIP3   OH230417   1.150   4.493   1.802
10159TIP3    H130418   1.101   4.418   1.767
10159TIP3    H230419   1.242   4.470   1.789
10160TIP3   OH230420   4.449   1.356   2.882
10160TIP3    H130421   4.486   1.273   2.852
10160TIP3    H230422   4.518   1.396   2.934
10161TIP3   OH230423   7.304   2.278   6.234
10161TIP3    H130424   7.220   2.244   6.204
10161TIP3    H230425   7.282   2.359   6.281
10162TIP3   OH230426   4.164   7.931   5.071
10162TIP3    H130427   4.191   7.917   4.980
10162TIP3    H230428   4.121   7.849   5.096
10163TIP3   OH230429   0.543   3.420   0.530
10163TIP3    H130430   0.538   3.504   0.576
10163TIP3    H230431   0.455   3.408   0.494
10164TIP3   OH230432   3.348   6.310   3.262
10164TIP3    H130433   3.304   6.393   3.244
10164TIP3    H230434   3.396   6.326   3.344
10165TIP3   OH230435   3.523   1.098   3.464
10165TIP3    H130436   3.460   1.058   3.525
10165TIP3    H230437   3.607   1.060   3.489
10166TIP3   OH230438   7.812   0.938   2.878
10166TIP3    H130439   7.753   0.993   2.825
10166TIP3    H230440   7.891   0.929   2.824
10167TIP3   OH230441   2.029   4.132   2.868
10167TIP3    H130442   2.079   4.051   2.859
10167TIP3    H230443   2.030   4.151   2.962
10168TIP3   OH230444   5.970   3.282   2.429
10168TIP3    H130445   5.922   3.222   2.373
10168TIP3    H230446   6.050   3.234   2.453
10169TIP3   OH230447   6.114   7.499   4.811
10169TIP3    H130448   6.034   7.466   4.853
10169TIP3    H230449   6.094   7.590   4.789
10170TIP3   OH230450   5.822   0.210   1.613
10170TIP3    H130451   5.732   0.197   1.586
10170TIP3    H230452   5.859   0.121   1.620
10171TIP3   OH230453   0.889   0.379   2.667
10171TIP3    H130454   0.813   0.346   2.715
10171TIP3    H230455   0.854   0.450   2.613
10172TIP3   OH230456   3.446   5.305   4.771
10172TIP3    H130457   3.438   5.370   4.841
10172TIP3    H230458   3.517   5.337   4.716
10173TIP3   OH230459   0.040   3.102   6.719
10173TIP3    H130460   0.096   3.170   6.756
10173TIP3    H230461  -0.029   3.149   6.673
10174TIP3   OH230462   6.607   6.975   4.567
10174TIP3    H130463   6.565   6.971   4.654
10174TIP3    H230464   6.695   7.008   4.585
10175TIP3   OH230465   1.625   1.511   0.060
10175TIP3    H130466   1.570   1.490  -0.015
10175TIP3    H230467   1.677   1.432   0.074
10176TIP3   OH230468   0.042   5.092   4.762
10176TIP3    H130469   0.126   5.124   4.794
10176TIP3    H230470  -0.013   5.086   4.840
10177TIP3   OH230471   1.238   0.230   1.303
10177TIP3    H130472   1.193   0.146   1.304
10177TIP3    H230473   1.174   0.292   1.268
10178TIP3   OH230474   2.824   1.049   6.424
10178TIP3    H130475   2.773   1.122   6.460
10178TIP3    H230476   2.915   1.073   6.441
10179TIP3   OH230477   1.679   7.372   4.081
10179TIP3    H130478   1.642   7.457   4.104
10179TIP3    H230479   1.608   7.324   4.039
10180TIP3   OH230480   1.660   4.956   2.772
10180TIP3    H130481   1.607   5.003   2.837
10180TIP3    H230482   1.695   4.881   2.820
10181TIP3   OH230483   1.397   5.977   1.125
10181TIP3    H130484   1.401   5.974   1.029
10181TIP3    H230485   1.481   6.015   1.151
10182TIP3   OH230486   4.919   6.735   0.086
10182TIP3    H130487   4.877   6.704   0.166
10182TIP3    H230488   4.988   6.671   0.068
10183TIP3   OH230489   7.355   0.053   3.560
10183TIP3    H130490   7.267   0.083   3.539
10183TIP3    H230491   7.403   0.058   3.477
10184TIP3   OH230492   2.130   0.374   0.892
10184TIP3    H130493   2.128   0.440   0.822
10184TIP3    H230494   2.127   0.291   0.846
10185TIP3   OH230495   1.204   5.558   2.666
10185TIP3    H130496   1.187   5.648   2.692
10185TIP3    H230497   1.119   5.526   2.634
10186TIP3   OH230498   2.737   0.518   4.807
10186TIP3    H130499   2.674   0.453   4.838
10186TIP3    H230500   2.684   0.595   4.784
10187TIP3   OH230501   6.565   4.092   3.337
10187TIP3    H130502   6.535   4.020   3.393
10187TIP3    H230503   6.517   4.169   3.370
10188TIP3   OH230504   6.233   1.969   3.992
10188TIP3    H130505   6.269   2.024   4.062
10188TIP3    H230506   6.308   1.950   3.936
10189TIP3   OH230507   2.768   6.615   3.768
10189TIP3    H130508   2.775   6.607   3.863
10189TIP3    H230509   2.799   6.704   3.749
10190TIP3   OH230510   4.446   5.805   4.070
10190TIP3    H130511   4.411   5.893   4.059
10190TIP3    H230512   4.500   5.810   4.148
10191TIP3   OH230513   4.177   5.011   2.742
10191TIP3    H130514   4.109   5.063   2.785
10191TIP3    H230515   4.255   5.067   2.745
10192TIP3   OH230516   4.607   2.098   2.599
10192TIP3    H130517   4.597   2.021   2.655
10192TIP3    H230518   4.611   2.172   2.659
10193TIP3   OH230519   4.147   6.979   5.442
10193TIP3    H130520   4.152   6.885   5.459
10193TIP3    H230521   4.193   7.020   5.516
10194TIP3   OH230522   4.200   5.237   5.692
10194TIP3    H130523   4.145   5.184   5.750
10194TIP3    H230524   4.176   5.328   5.713
10195TIP3   OH230525   1.112   4.702   1.607
10195TIP3    H130526   1.111   4.786   1.654
10195TIP3    H230527   1.119   4.636   1.676
10196TIP3   OH230528   3.286   1.658   1.319
10196TIP3    H130529   3.195   1.635   1.337
10196TIP3    H230530   3.304   1.732   1.377
10197TIP3   OH230531   7.088   3.014   3.934
10197TIP3    H130532   7.024   3.023   4.004
10197TIP3    H230533   7.111   2.921   3.935
10198TIP3   OH230534   1.190   2.612   1.228
10198TIP3    H130535   1.236   2.550   1.285
10198TIP3    H230536   1.127   2.655   1.286
10199TIP3   OH230537   2.261   7.772   0.375
10199TIP3    H130538   2.192   7.837   0.383
10199TIP3    H230539   2.337   7.811   0.418
10200TIP3   OH230540   5.034   2.200   4.660
10200TIP3    H130541   5.055   2.293   4.647
10200TIP3    H230542   5.114   2.163   4.698
10201TIP3   OH230543   3.742   1.373   1.666
10201TIP3    H130544   3.659   1.408   1.635
10201TIP3    H230545   3.809   1.417   1.613
10202TIP3   OH230546   3.696   3.473   1.131
10202TIP3    H130547   3.758   3.518   1.187
10202TIP3    H230548   3.643   3.542   1.091
10203TIP3   OH230549   2.953   6.513   6.376
10203TIP3    H130550   2.930   6.432   6.330
10203TIP3    H230551   3.034   6.542   6.335
10204TIP3   OH230552   5.905   7.865   6.036
10204TIP3    H130553   5.905   7.952   5.996
10204TIP3    H230554   5.991   7.856   6.076
10205TIP3   OH230555   3.295   4.391   6.805
10205TIP3    H130556   3.312   4.484   6.819
10205TIP3    H230557   3.345   4.369   6.726
10206TIP3   OH230558   3.838   5.456   6.260
10206TIP3    H130559   3.756   5.464   6.310
10206TIP3    H230560   3.900   5.421   6.324
10207TIP3   OH230561   6.110   4.120   2.864
10207TIP3    H130562   6.046   4.184   2.895
10207TIP3    H230563   6.159   4.094   2.942
10208TIP3   OH230564   5.879   0.460   4.851
10208TIP3    H130565   5.867   0.399   4.924
10208TIP3    H230566   5.809   0.525   4.862
10209TIP3   OH230567   0.972   2.676   3.277
10209TIP3    H130568   1.014   2.644   3.197
10209TIP3    H230569   0.879   2.679   3.255
10210TIP3   OH230570   1.767   1.697   5.309
10210TIP3    H130571   1.709   1.631   5.272
10210TIP3    H230572   1.764   1.770   5.247
10211TIP3   OH230573   7.703   7.569   2.721
10211TIP3    H130574   7.681   7.528   2.805
10211TIP3    H230575   7.764   7.639   2.743
10212TIP3   OH230576   2.569   5.758   1.750
10212TIP3    H130577   2.557   5.847   1.716
10212TIP3    H230578   2.631   5.717   1.689
10213TIP3   OH230579   2.844   3.924   3.013
10213TIP3    H130580   2.928   3.936   2.970
10213TIP3    H230581   2.865   3.919   3.107
10214TIP3   OH230582   5.231   3.689   3.587
10214TIP3    H130583   5.181   3.675   3.507
10214TIP3    H230584   5.308   3.739   3.559
10215TIP3   OH230585   4.749   3.306   1.647
10215TIP3    H130586   4.800   3.243   1.596
10215TIP3    H230587   4.693   3.251   1.703
10216TIP3   OH230588   3.024   5.354   3.908
10216TIP3    H130589   3.064   5.440   3.921
10216TIP3    H230590   3.031   5.310   3.993
10217TIP3   OH230591   1.328   1.270   4.504
10217TIP3    H130592   1.352   1.263   4.596
10217TIP3    H230593   1.399   1.227   4.456
10218TIP3   OH230594   7.422   5.849   2.038
10218TIP3    H130595   7.433   5.898   2.120
10218TIP3    H230596   7.509   5.816   2.018
10219TIP3   OH230597   2.390   4.860   0.361
10219TIP3    H130598   2.326   4.794   0.387
10219TIP3    H230599   2.339   4.940   0.351
10220TIP3   OH230600   7.301   2.735   4.806
10220TIP3    H130601   7.268   2.748   4.717
10220TIP3    H230602   7.395   2.722   4.795
10221TIP3   OH230603   4.918   1.427   3.108
10221TIP3    H130604   4.973   1.355   3.077
10221TIP3    H230605   4.967   1.464   3.181
10222TIP3   OH230606   0.148   0.479   1.642
10222TIP3    H130607   0.184   0.542   1.580
10222TIP3    H230608   0.056   0.471   1.617
10223TIP3   OH230609   5.535   2.411   0.377
10223TIP3    H130610   5.526   2.324   0.337
10223TIP3    H230611   5.490   2.404   0.460
10224TIP3   OH230612   4.825   7.257   3.492
10224TIP3    H130613   4.747   7.307   3.465
10224TIP3    H230614   4.896   7.293   3.438
10225TIP3   OH230615   0.529   2.431   2.131
10225TIP3    H130616   0.483   2.449   2.213
10225TIP3    H230617   0.459   2.411   2.068
10226TIP3   OH230618   6.620   3.212   0.983
10226TIP3    H130619   6.631   3.125   1.021
10226TIP3    H230620   6.591   3.267   1.057
10227TIP3   OH230621   1.754   2.101   4.885
10227TIP3    H130622   1.726   2.049   4.960
10227TIP3    H230623   1.850   2.097   4.888
10228TIP3   OH230624   3.684   6.659   3.388
10228TIP3    H130625   3.777   6.682   3.382
10228TIP3    H230626   3.666   6.610   3.307
10229TIP3   OH230627   5.780   7.838   5.468
10229TIP3    H130628   5.830   7.844   5.550
10229TIP3    H230629   5.726   7.917   5.467
10230TIP3   OH230630   0.514   4.729   4.073
10230TIP3    H130631   0.500   4.709   4.166
10230TIP3    H230632   0.608   4.747   4.066
10231TIP3   OH230633   7.035   0.100   1.954
10231TIP3    H130634   7.009   0.008   1.945
10231TIP3    H230635   6.957   0.144   1.987
10232TIP3   OH230636   4.298   0.459   3.372
10232TIP3    H130637   4.277   0.367   3.383
10232TIP3    H230638   4.287   0.476   3.279
10233TIP3   OH230639   1.151   1.156   6.018
10233TIP3    H130640   1.222   1.096   6.041
10233TIP3    H230641   1.119   1.123   5.934
10234TIP3   OH230642   5.202   7.484   4.814
10234TIP3    H130643   5.229   7.489   4.906
10234TIP3    H230644   5.133   7.419   4.812
10235TIP3   OH230645   8.178   6.578   6.203
10235TIP3    H130646   8.201   6.508   6.142
10235TIP3    H230647   8.083   6.585   6.197
10236TIP3   OH230648   6.539   5.823   0.338
10236TIP3    H130649   6.544   5.737   0.382
10236TIP3    H230650   6.488   5.807   0.259
10237TIP3   OH230651   4.699   6.220   6.812
10237TIP3    H130652   4.763   6.210   6.742
10237TIP3    H230653   4.623   6.171   6.781
10238TIP3   OH230654   5.867   7.431   4.951
10238TIP3    H130655   5.827   7.502   5.002
10238TIP3    H230656   5.827   7.439   4.864
10239TIP3   OH230657   4.161   7.589   4.719
10239TIP3    H130658   4.124   7.542   4.644
10239TIP3    H230659   4.098   7.574   4.790
10240TIP3   OH230660   6.117   1.295   6.532
10240TIP3    H130661   6.100   1.371   6.477
10240TIP3    H230662   6.046   1.234   6.512
10241TIP3   OH230663   4.653   6.721   5.695
10241TIP3    H130664   4.653   6.654   5.763
10241TIP3    H230665   4.597   6.791   5.730
10242TIP3   OH230666   7.191   1.690   6.816
10242TIP3    H130667   7.142   1.725   6.891
10242TIP3    H230668   7.283   1.707   6.838
10243TIP3   OH230669   6.355   5.685   4.585
10243TIP3    H130670   6.340   5.775   4.558
10243TIP3    H230671   6.448   5.670   4.572
10244TIP3   OH230672   3.321   0.670   2.891
10244TIP3    H130673   3.390   0.604   2.898
10244TIP3    H230674   3.328   0.722   2.971
10245TIP3   OH230675   0.178   0.610   5.137
10245TIP3    H130676   0.268   0.634   5.117
10245TIP3    H230677   0.152   0.552   5.066
10246TIP3   OH230678   1.976   2.444   4.547
10246TIP3    H130679   2.043   2.382   4.518
10246TIP3    H230680   1.893   2.406   4.518
10247TIP3   OH230681   5.833   0.659   1.742
10247TIP3    H130682   5.812   0.618   1.826
10247TIP3    H230683   5.780   0.611   1.678
10248TIP3   OH230684   4.862   7.229   1.866
10248TIP3    H130685   4.909   7.260   1.789
10248TIP3    H230686   4.812   7.305   1.896
10249TIP3   OH230687   7.600   4.624   2.444
10249TIP3    H130688   7.676   4.586   2.487
10249TIP3    H230689   7.550   4.549   2.411
10250TIP3   OH230690   5.318   5.861   6.551
10250TIP3    H130691   5.400   5.911   6.551
10250TIP3    H230692   5.328   5.800   6.624
10251TIP3   OH230693   5.690   3.473   1.252
10251TIP3    H130694   5.777   3.440   1.230
10251TIP3    H230695   5.670   3.432   1.337
10252TIP3   OH230696   6.333   1.564   0.456
10252TIP3    H130697   6.346   1.572   0.361
10252TIP3    H230698   6.367   1.478   0.478
10253TIP3   OH230699   6.077   0.487   0.299
10253TIP3    H130700   6.007   0.515   0.358
10253TIP3    H230701   6.157   0.519   0.339
10254TIP3   OH230702   6.382   0.871   2.720
10254TIP3    H130703   6.351   0.889   2.809
10254TIP3    H230704   6.475   0.854   2.729
10255TIP3   OH230705   0.572   0.462   4.905
10255TIP3    H130706   0.546   0.378   4.943
10255TIP3    H230707   0.662   0.476   4.937
10256TIP3   OH230708   3.947   0.147   2.357
10256TIP3    H130709   3.882   0.082   2.332
10256TIP3    H230710   4.008   0.150   2.283
10257TIP3   OH230711   2.369   7.182   4.093
10257TIP3    H130712   2.306   7.215   4.158
10257TIP3    H230713   2.418   7.115   4.139
10258TIP3   OH230714   4.491   1.452   1.864
10258TIP3    H130715   4.426   1.523   1.860
10258TIP3    H230716   4.442   1.377   1.897
10259TIP3   OH230717   1.005   6.936   4.107
10259TIP3    H130718   0.997   6.848   4.145
10259TIP3    H230719   1.096   6.941   4.078
10260TIP3   OH230720   4.035   5.553   4.042
10260TIP3    H130721   4.024   5.578   4.134
10260TIP3    H230722   4.083   5.470   4.045
10261TIP3   OH230723   6.284   4.958   1.365
10261TIP3    H130724   6.191   4.979   1.364
10261TIP3    H230725   6.318   4.997   1.284
10262TIP3   OH230726   4.701   7.798   0.700
10262TIP3    H130727   4.668   7.887   0.700
10262TIP3    H230728   4.795   7.807   0.684
10263TIP3   OH230729   0.571   3.670   2.731
10263TIP3    H130730   0.637   3.736   2.712
10263TIP3    H230731   0.512   3.711   2.794
10264TIP3   OH230732   7.053   2.118   4.725
10264TIP3    H130733   7.057   2.023   4.714
10264TIP3    H230734   7.073   2.133   4.817
10265TIP3   OH230735   5.839   7.054   6.285
10265TIP3    H130736   5.910   7.036   6.346
10265TIP3    H230737   5.760   7.029   6.333
10266TIP3   OH230738   7.653   3.714   5.259
10266TIP3    H130739   7.716   3.786   5.269
10266TIP3    H230740   7.596   3.720   5.335
10267TIP3   OH230741   4.101   7.527   4.126
10267TIP3    H130742   4.048   7.492   4.198
10267TIP3    H230743   4.070   7.617   4.116
10268TIP3   OH230744   6.736   2.231   2.159
10268TIP3    H130745   6.656   2.179   2.169
10268TIP3    H230746   6.725   2.277   2.076
10269TIP3   OH230747   0.909   6.277   3.739
10269TIP3    H130748   1.002   6.277   3.763
10269TIP3    H230749   0.885   6.370   3.736
10270TIP3   OH230750   1.942   1.603   4.743
10270TIP3    H130751   2.035   1.627   4.737
10270TIP3    H230752   1.896   1.687   4.737
10271TIP3   OH230753   7.960   5.672   5.235
10271TIP3    H130754   8.038   5.616   5.241
10271TIP3    H230755   7.887   5.611   5.247
10272TIP3   OH230756   6.917   2.538   6.369
10272TIP3    H130757   6.852   2.545   6.440
10272TIP3    H230758   6.871   2.492   6.299
10273TIP3   OH230759   2.518   4.994   3.726
10273TIP3    H130760   2.482   4.909   3.698
10273TIP3    H230761   2.597   5.005   3.672
10274TIP3   OH230762   6.689   1.895   6.164
10274TIP3    H130763   6.765   1.945   6.135
10274TIP3    H230764   6.726   1.813   6.197
10275TIP3   OH230765   1.738   2.662   1.414
10275TIP3    H130766   1.822   2.617   1.420
10275TIP3    H230767   1.729   2.709   1.496
10276TIP3   OH230768   5.233   4.099   1.309
10276TIP3    H130769   5.141   4.070   1.305
10276TIP3    H230770   5.255   4.094   1.401
10277TIP3   OH230771   4.317   3.827   1.410
10277TIP3    H130772   4.302   3.758   1.474
10277TIP3    H230773   4.411   3.827   1.395
10278TIP3   OH230774   0.070   5.408   2.132
10278TIP3    H130775  -0.012   5.368   2.104
10278TIP3    H230776   0.043   5.475   2.195
10279TIP3   OH230777   1.493   0.176   2.561
10279TIP3    H130778   1.568   0.119   2.579
10279TIP3    H230779   1.417   0.122   2.585
10280TIP3   OH230780   4.785   4.692   2.637
10280TIP3    H130781   4.837   4.678   2.558
10280TIP3    H230782   4.750   4.780   2.628
10281TIP3   OH230783   3.229   6.651   0.033
10281TIP3    H130784   3.284   6.730   0.036
10281TIP3    H230785   3.259   6.599   0.108
10282TIP3   OH230786   4.297   5.039   6.849
10282TIP3    H130787   4.371   4.986   6.820
10282TIP3    H230788   4.335   5.125   6.867
10283TIP3   OH230789   1.478   2.276   1.798
10283TIP3    H130790   1.531   2.201   1.825
10283TIP3    H230791   1.489   2.279   1.703
10284TIP3   OH230792   6.719   6.537   1.909
10284TIP3    H130793   6.693   6.495   1.991
10284TIP3    H230794   6.656   6.505   1.845
10285TIP3   OH230795   0.461   5.744   2.616
10285TIP3    H130796   0.426   5.799   2.546
10285TIP3    H230797   0.531   5.796   2.654
10286TIP3   OH230798   7.984   3.627   5.222
10286TIP3    H130799   8.055   3.565   5.204
10286TIP3    H230800   7.950   3.601   5.307
10287TIP3   OH230801   0.367   4.622   4.665
10287TIP3    H130802   0.306   4.696   4.669
10287TIP3    H230803   0.413   4.624   4.748
10288TIP3   OH230804   1.298   0.678   0.374
10288TIP3    H130805   1.335   0.765   0.356
10288TIP3    H230806   1.346   0.619   0.316
10289TIP3   OH230807   0.423   3.126   3.893
10289TIP3    H130808   0.444   3.037   3.866
10289TIP3    H230809   0.376   3.164   3.819
10290TIP3   OH230810   4.183   4.742   2.940
10290TIP3    H130811   4.091   4.765   2.935
10290TIP3    H230812   4.220   4.769   2.856
10291TIP3   OH230813   2.884   4.672   6.164
10291TIP3    H130814   2.930   4.750   6.196
10291TIP3    H230815   2.833   4.642   6.240
10292TIP3   OH230816   8.297   0.748   4.283
10292TIP3    H130817   8.261   0.817   4.339
10292TIP3    H230818   8.257   0.764   4.197
10293TIP3   OH230819   5.824   2.132   2.876
10293TIP3    H130820   5.882   2.202   2.905
10293TIP3    H230821   5.766   2.174   2.812
10294TIP3   OH230822   1.861   4.922   2.572
10294TIP3    H130823   1.951   4.903   2.600
10294TIP3    H230824   1.817   4.952   2.651
10295TIP3   OH230825   4.713   3.031   1.044
10295TIP3    H130826   4.658   3.106   1.066
10295TIP3    H230827   4.797   3.069   1.020
10296TIP3   OH230828   2.173   1.899   6.486
10296TIP3    H130829   2.205   1.908   6.576
10296TIP3    H230830   2.224   1.827   6.449
10297TIP3   OH230831   3.437   2.841   3.309
10297TIP3    H130832   3.469   2.761   3.352
10297TIP3    H230833   3.432   2.905   3.380
10298TIP3   OH230834   7.201   0.066   0.685
10298TIP3    H130835   7.179   0.006   0.756
10298TIP3    H230836   7.289   0.097   0.706
10299TIP3   OH230837   6.005   1.194   2.424
10299TIP3    H130838   6.050   1.144   2.493
10299TIP3    H230839   6.021   1.144   2.344
10300TIP3   OH230840   1.911   6.154   0.962
10300TIP3    H130841   1.987   6.103   0.934
10300TIP3    H230842   1.862   6.170   0.882
10301TIP3   OH230843   7.957   5.857   1.473
10301TIP3    H130844   7.917   5.779   1.511
10301TIP3    H230845   7.897   5.928   1.495
10302TIP3   OH230846   6.532   2.659   1.547
10302TIP3    H130847   6.545   2.566   1.562
10302TIP3    H230848   6.588   2.679   1.471
10303TIP3   OH230849   5.087   6.507   1.673
10303TIP3    H130850   5.148   6.441   1.641
10303TIP3    H230851   5.135   6.590   1.663
10304TIP3   OH230852   3.849   1.688   4.655
10304TIP3    H130853   3.793   1.655   4.726
10304TIP3    H230854   3.927   1.721   4.699
10305TIP3   OH230855   1.236   6.785   3.518
10305TIP3    H130856   1.239   6.690   3.501
10305TIP3    H230857   1.306   6.821   3.463
10306TIP3   OH230858   1.799   5.059   2.272
10306TIP3    H130859   1.761   5.060   2.184
10306TIP3    H230860   1.832   5.148   2.284
10307TIP3   OH230861   7.963   6.872   4.112
10307TIP3    H130862   7.924   6.933   4.174
10307TIP3    H230863   8.004   6.805   4.166
10308TIP3   OH230864   2.959   3.696   5.105
10308TIP3    H130865   3.053   3.698   5.085
10308TIP3    H230866   2.939   3.603   5.114
10309TIP3   OH230867   0.369   4.074   0.398
10309TIP3    H130868   0.405   4.007   0.339
10309TIP3    H230869   0.289   4.034   0.432
10310TIP3   OH230870   7.303   2.316   1.650
10310TIP3    H130871   7.375   2.354   1.700
10310TIP3    H230872   7.331   2.323   1.559
10311TIP3   OH230873   4.785   1.636   0.809
10311TIP3    H130874   4.741   1.556   0.780
10311TIP3    H230875   4.754   1.704   0.749
10312TIP3   OH230876   3.206   5.233   1.941
10312TIP3    H130877   3.266   5.203   2.009
10312TIP3    H230878   3.121   5.239   1.984
10313TIP3   OH230879   4.359   7.730   4.589
10313TIP3    H130880   4.290   7.665   4.581
10313TIP3    H230881   4.344   7.790   4.516
10314TIP3   OH230882   6.294   0.466   3.795
10314TIP3    H130883   6.273   0.393   3.854
10314TIP3    H230884   6.345   0.526   3.849
10315TIP3   OH230885   0.935   0.681   4.304
10315TIP3    H130886   0.862   0.742   4.291
10315TIP3    H230887   0.955   0.689   4.397
10316TIP3   OH230888   4.872   6.970   0.426
10316TIP3    H130889   4.790   6.948   0.381
10316TIP3    H230890   4.913   7.035   0.370
10317TIP3   OH230891   1.877   0.317   0.518
10317TIP3    H130892   1.962   0.360   0.511
10317TIP3    H230893   1.854   0.324   0.611
10318TIP3   OH230894   8.132   4.089   3.842
10318TIP3    H130895   8.116   4.086   3.936
10318TIP3    H230896   8.214   4.041   3.829
10319TIP3   OH230897   6.759   7.369   5.584
10319TIP3    H130898   6.704   7.314   5.528
10319TIP3    H230899   6.819   7.412   5.524
10320TIP3   OH230900   4.574   2.169   4.627
10320TIP3    H130901   4.591   2.254   4.586
10320TIP3    H230902   4.654   2.120   4.612
10321TIP3   OH230903   5.516   5.266   6.751
10321TIP3    H130904   5.491   5.271   6.843
10321TIP3    H230905   5.433   5.251   6.704
10322TIP3   OH230906   6.484   7.288   6.014
10322TIP3    H130907   6.390   7.272   6.018
10322TIP3    H230908   6.511   7.256   5.928
10323TIP3   OH230909   7.110   0.121   4.666
10323TIP3    H130910   7.061   0.054   4.714
10323TIP3    H230911   7.129   0.080   4.582
10324TIP3   OH230912   3.852   4.870   5.076
10324TIP3    H130913   3.875   4.803   5.140
10324TIP3    H230914   3.886   4.951   5.113
10325TIP3   OH230915   1.209   2.928   4.971
10325TIP3    H130916   1.254   2.883   4.900
10325TIP3    H230917   1.141   2.980   4.928
10326TIP3   OH230918   4.439   6.828   3.789
10326TIP3    H130919   4.385   6.892   3.741
10326TIP3    H230920   4.390   6.811   3.870
10327TIP3   OH230921   0.055   5.915   2.431
10327TIP3    H130922   0.111   5.882   2.361
10327TIP3    H230923   0.005   5.986   2.391
10328TIP3   OH230924   1.225   5.035   0.286
10328TIP3    H130925   1.199   4.945   0.304
10328TIP3    H230926   1.203   5.049   0.194
10329TIP3   OH230927   5.380   2.840   2.002
10329TIP3    H130928   5.320   2.898   1.955
10329TIP3    H230929   5.467   2.875   1.984
10330TIP3   OH230930   6.497   0.313   1.799
10330TIP3    H130931   6.484   0.408   1.801
10330TIP3    H230932   6.448   0.284   1.721
10331TIP3   OH230933   8.366   4.606   6.690
10331TIP3    H130934   8.417   4.542   6.740
10331TIP3    H230935   8.417   4.687   6.695
10332TIP3   OH230936   2.674   7.440   0.477
10332TIP3    H130937   2.648   7.528   0.506
10332TIP3    H230938   2.768   7.446   0.463
10333TIP3   OH230939   0.188   3.461   0.946
10333TIP3    H130940   0.120   3.479   1.012
10333TIP3    H230941   0.270   3.482   0.990
10334TIP3   OH230942   8.395   4.526   1.573
10334TIP3    H130943   8.424   4.479   1.652
10334TIP3    H230944   8.383   4.457   1.508
10335TIP3   OH230945   4.553   3.399   3.346
10335TIP3    H130946   4.507   3.441   3.274
10335TIP3    H230947   4.639   3.378   3.310
10336TIP3   OH230948   8.008   1.042   5.350
10336TIP3    H130949   8.011   1.082   5.437
10336TIP3    H230950   8.007   0.948   5.366
10337TIP3   OH230951   4.091   3.997   4.224
10337TIP3    H130952   4.055   4.032   4.143
10337TIP3    H230953   4.084   3.902   4.215
10338TIP3   OH230954   1.061   6.544   3.050
10338TIP3    H130955   1.141   6.592   3.032
10338TIP3    H230956   0.993   6.590   3.000
10339TIP3   OH230957   2.884   0.666   0.579
10339TIP3    H130958   2.923   0.734   0.525
10339TIP3    H230959   2.796   0.654   0.543
10340TIP3   OH230960   1.748   6.522   2.143
10340TIP3    H130961   1.723   6.473   2.065
10340TIP3    H230962   1.843   6.518   2.145
10341TIP3   OH230963   6.231   7.810   6.587
10341TIP3    H130964   6.296   7.878   6.602
10341TIP3    H230965   6.243   7.748   6.658
10342TIP3   OH230966   3.968   4.683   5.287
10342TIP3    H130967   3.996   4.617   5.224
10342TIP3    H230968   4.014   4.660   5.367
10343TIP3   OH230969   5.067   5.065   3.929
10343TIP3    H130970   5.109   5.077   4.014
10343TIP3    H230971   4.978   5.038   3.950
10344TIP3   OH230972   0.408   3.811   2.452
10344TIP3    H130973   0.485   3.753   2.456
10344TIP3    H230974   0.390   3.832   2.543
10345TIP3   OH230975   6.460   1.636   4.988
10345TIP3    H130976   6.387   1.696   4.969
10345TIP3    H230977   6.482   1.597   4.903
10346TIP3   OH230978   8.009   0.758   4.182
10346TIP3    H130979   7.986   0.744   4.274
10346TIP3    H230980   7.927   0.741   4.134
10347TIP3   OH230981   7.061   4.852   3.872
10347TIP3    H130982   7.042   4.915   3.803
10347TIP3    H230983   6.976   4.811   3.891
10348TIP3   OH230984   0.104   2.100   0.914
10348TIP3    H130985   0.163   2.026   0.898
10348TIP3    H230986   0.162   2.175   0.926
10349TIP3   OH230987   6.731   3.425   3.279
10349TIP3    H130988   6.646   3.395   3.313
10349TIP3    H230989   6.710   3.464   3.194
10350TIP3   OH230990   1.665   6.780   5.493
10350TIP3    H130991   1.742   6.724   5.502
10350TIP3    H230992   1.632   6.762   5.405
10351TIP3   OH230993   1.478   5.643   1.671
10351TIP3    H130994   1.480   5.590   1.751
10351TIP3    H230995   1.392   5.626   1.633
10352TIP3   OH230996   7.455   6.875   5.431
10352TIP3    H130997   7.541   6.875   5.473
10352TIP3    H230998   7.469   6.914   5.345
10353TIP3   OH230999   7.198   2.105   6.068
10353TIP3    H131000   7.222   2.185   6.020
10353TIP3    H231001   7.257   2.038   6.034
10354TIP3   OH231002   1.022   5.094   4.758
10354TIP3    H131003   0.987   5.018   4.710
10354TIP3    H231004   1.110   5.068   4.784
10355TIP3   OH231005   4.925   2.313   0.785
10355TIP3    H131006   4.873   2.374   0.732
10355TIP3    H231007   4.953   2.246   0.722
10356TIP3   OH231008   3.104   6.484   5.755
10356TIP3    H131009   3.028   6.455   5.704
10356TIP3    H231010   3.130   6.566   5.715
10357TIP3   OH231011   7.073   1.862   6.268
10357TIP3    H131012   7.075   1.900   6.181
10357TIP3    H231013   7.157   1.887   6.307
10358TIP3   OH231014   3.116   1.925   6.298
10358TIP3    H131015   3.060   1.872   6.354
10358TIP3    H231016   3.199   1.932   6.346
10359TIP3   OH231017   3.325   4.683   6.836
10359TIP3    H131018   3.415   4.714   6.847
10359TIP3    H231019   3.285   4.746   6.776
10360TIP3   OH231020   6.883   2.247   0.029
10360TIP3    H131021   6.914   2.334   0.052
10360TIP3    H231022   6.883   2.199   0.112
10361TIP3   OH231023   3.964   7.401   1.454
10361TIP3    H131024   3.922   7.389   1.539
10361TIP3    H231025   4.006   7.316   1.436
10362TIP3   OH231026   4.968   6.465   4.945
10362TIP3    H131027   5.037   6.435   4.886
10362TIP3    H231028   4.890   6.473   4.890
10363TIP3   OH231029   2.513   7.318   5.860
10363TIP3    H131030   2.464   7.247   5.901
10363TIP3    H231031   2.462   7.339   5.781
10364TIP3   OH231032   4.217   4.244   1.965
10364TIP3    H131033   4.300   4.197   1.970
10364TIP3    H231034   4.239   4.329   1.928
10365TIP3   OH231035   8.075   1.652   3.644
10365TIP3    H131036   8.139   1.594   3.686
10365TIP3    H231037   8.066   1.618   3.555
10366TIP3   OH231038   6.989   1.990   2.085
10366TIP3    H131039   6.976   1.921   2.020
10366TIP3    H231040   6.915   1.982   2.144
10367TIP3   OH231041   5.932   6.169   5.845
10367TIP3    H131042   5.850   6.196   5.804
10367TIP3    H231043   5.914   6.081   5.878
10368TIP3   OH231044   2.774   4.853   6.565
10368TIP3    H131045   2.785   4.941   6.530
10368TIP3    H231046   2.756   4.866   6.658
10369TIP3   OH231047   7.701   4.963   0.487
10369TIP3    H131048   7.759   5.037   0.508
10369TIP3    H231049   7.728   4.894   0.547
10370TIP3   OH231050   0.764   5.813   6.176
10370TIP3    H131051   0.690   5.766   6.137
10370TIP3    H231052   0.763   5.787   6.268
10371TIP3   OH231053   5.849   6.376   2.311
10371TIP3    H131054   5.822   6.288   2.285
10371TIP3    H231055   5.779   6.406   2.369
10372TIP3   OH231056   4.736   1.296   1.817
10372TIP3    H131057   4.742   1.247   1.899
10372TIP3    H231058   4.667   1.360   1.832
10373TIP3   OH231059   2.040   3.581   5.657
10373TIP3    H131060   2.029   3.624   5.742
10373TIP3    H231061   1.952   3.556   5.631
10374TIP3   OH231062   2.264   3.940   3.834
10374TIP3    H131063   2.196   3.873   3.843
10374TIP3    H231064   2.246   3.979   3.748
10375TIP3   OH231065   1.099   0.553   4.813
10375TIP3    H131066   1.189   0.583   4.801
10375TIP3    H231067   1.099   0.509   4.898
10376TIP3   OH231068   1.527   7.450   4.388
10376TIP3    H131069   1.461   7.451   4.457
10376TIP3    H231070   1.499   7.380   4.329
10377TIP3   OH231071   4.652   3.357   5.302
10377TIP3    H131072   4.674   3.311   5.383
10377TIP3    H231073   4.592   3.297   5.257
10378TIP3   OH231074   0.226   6.619   0.295
10378TIP3    H131075   0.290   6.609   0.225
10378TIP3    H231076   0.190   6.531   0.308
10379TIP3   OH231077   3.308   5.549   2.535
10379TIP3    H131078   3.259   5.489   2.479
10379TIP3    H231079   3.247   5.620   2.554
10380TIP3   OH231080   8.074   7.016   5.575
10380TIP3    H131081   8.059   7.084   5.510
10380TIP3    H231082   8.131   6.952   5.531
10381TIP3   OH231083   4.363   0.371   5.478
10381TIP3    H131084   4.381   0.465   5.470
10381TIP3    H231085   4.431   0.339   5.537
10382TIP3   OH231086   3.933   6.075   0.467
10382TIP3    H131087   4.016   6.110   0.435
10382TIP3    H231088   3.868   6.103   0.402
10383TIP3   OH231089   3.144   1.729   5.886
10383TIP3    H131090   3.160   1.702   5.977
10383TIP3    H231091   3.050   1.716   5.873
10384TIP3   OH231092   3.198   3.685   1.465
10384TIP3    H131093   3.272   3.649   1.514
10384TIP3    H231094   3.199   3.778   1.485
10385TIP3   OH231095   4.071   1.277   2.557
10385TIP3    H131096   4.048   1.356   2.605
10385TIP3    H231097   4.075   1.305   2.465
10386TIP3   OH231098   3.180   1.340   1.724
10386TIP3    H131099   3.101   1.361   1.674
10386TIP3    H231100   3.164   1.252   1.758
10387TIP3   OH231101   0.295   2.474   0.824
10387TIP3    H131102   0.387   2.499   0.836
10387TIP3    H231103   0.297   2.406   0.758
10388TIP3   OH231104   6.101   3.759   1.477
10388TIP3    H131105   6.181   3.781   1.428
10388TIP3    H231106   6.034   3.817   1.441
10389TIP3   OH231107   0.253   5.147   4.303
10389TIP3    H131108   0.342   5.162   4.271
10389TIP3    H231109   0.217   5.081   4.244
10390TIP3   OH231110   4.985   1.626   1.003
10390TIP3    H131111   5.056   1.660   0.949
10390TIP3    H231112   4.910   1.621   0.943
10391TIP3   OH231113   2.835   3.387   6.792
10391TIP3    H131114   2.825   3.319   6.859
10391TIP3    H231115   2.847   3.468   6.842
10392TIP3   OH231116   5.412   3.273   6.428
10392TIP3    H131117   5.353   3.280   6.503
10392TIP3    H231118   5.497   3.249   6.466
10393TIP3   OH231119   2.680   1.322   2.492
10393TIP3    H131120   2.598   1.335   2.443
10393TIP3    H231121   2.735   1.271   2.433
10394TIP3   OH231122   0.073   1.440   0.922
10394TIP3    H131123   0.069   1.359   0.973
10394TIP3    H231124   0.145   1.489   0.961
10395TIP3   OH231125   8.054   4.462   1.220
10395TIP3    H131126   8.079   4.370   1.224
10395TIP3    H231127   7.968   4.462   1.176
10396TIP3   OH231128   1.027   1.856   4.443
10396TIP3    H131129   1.081   1.914   4.495
10396TIP3    H231130   0.963   1.820   4.505
10397TIP3   OH231131   3.007   1.367   2.211
10397TIP3    H131132   2.965   1.283   2.191
10397TIP3    H231133   3.035   1.401   2.126
10398TIP3   OH231134   7.665   4.880   4.222
10398TIP3    H131135   7.697   4.927   4.299
10398TIP3    H231136   7.738   4.885   4.159
10399TIP3   OH231137   5.077   7.382   4.506
10399TIP3    H131138   5.036   7.314   4.559
10399TIP3    H231139   5.168   7.384   4.536
10400TIP3   OH231140   6.159   3.980   3.398
10400TIP3    H131141   6.073   3.940   3.401
10400TIP3    H231142   6.220   3.907   3.386
10401TIP3   OH231143   6.214   3.795   2.236
10401TIP3    H131144   6.174   3.708   2.243
10401TIP3    H231145   6.273   3.801   2.312
10402TIP3   OH231146   0.756   3.789   6.810
10402TIP3    H131147   0.842   3.747   6.810
10402TIP3    H231148   0.765   3.862   6.749
10403TIP3   OH231149   1.918   0.112   4.287
10403TIP3    H131150   1.991   0.134   4.344
10403TIP3    H231151   1.875   0.038   4.330
10404TIP3   OH231152   1.503   4.456   5.869
10404TIP3    H131153   1.530   4.378   5.918
10404TIP3    H231154   1.584   4.499   5.844
10405TIP3   OH231155   2.367   5.240   1.919
10405TIP3    H131156   2.396   5.171   1.979
10405TIP3    H231157   2.323   5.304   1.975
10406TIP3   OH231158   8.110   6.147   3.196
10406TIP3    H131159   8.144   6.061   3.169
10406TIP3    H231160   8.108   6.198   3.115
10407TIP3   OH231161   3.355   1.467   2.135
10407TIP3    H131162   3.367   1.372   2.135
10407TIP3    H231163   3.280   1.481   2.077
10408TIP3   OH231164   4.892   3.908   3.244
10408TIP3    H131165   4.975   3.863   3.229
10408TIP3    H231166   4.827   3.854   3.200
10409TIP3   OH231167   2.670   1.730   6.472
10409TIP3    H131168   2.619   1.684   6.405
10409TIP3    H231169   2.664   1.673   6.549
10410TIP3   OH231170   6.491   4.682   2.643
10410TIP3    H131171   6.581   4.675   2.611
10410TIP3    H231172   6.492   4.637   2.728
10411TIP3   OH231173   7.211   2.765   4.546
10411TIP3    H131174   7.265   2.726   4.477
10411TIP3    H231175   7.207   2.858   4.523
10412TIP3   OH231176   0.351   0.159   5.611
10412TIP3    H131177   0.293   0.234   5.605
10412TIP3    H231178   0.341   0.128   5.701
10413TIP3   OH231179   0.068   2.200   1.654
10413TIP3    H131180   0.013   2.140   1.604
10413TIP3    H231181   0.092   2.151   1.733
10414TIP3   OH231182   4.271   1.609   3.587
10414TIP3    H131183   4.320   1.595   3.668
10414TIP3    H231184   4.230   1.524   3.569
10415TIP3   OH231185   7.452   1.889   4.328
10415TIP3    H131186   7.417   1.929   4.248
10415TIP3    H231187   7.461   1.961   4.389
10416TIP3   OH231188   8.065   1.253   6.544
10416TIP3    H131189   8.116   1.231   6.622
10416TIP3    H231190   8.128   1.295   6.485
10417TIP3   OH231191   7.687   6.149   0.298
10417TIP3    H131192   7.639   6.124   0.220
10417TIP3    H231193   7.771   6.104   0.290
10418TIP3   OH231194   2.694   5.960   5.925
10418TIP3    H131195   2.756   6.011   5.873
10418TIP3    H231196   2.661   5.894   5.865
10419TIP3   OH231197   6.356   4.711   2.405
10419TIP3    H131198   6.410   4.691   2.482
10419TIP3    H231199   6.387   4.652   2.337
10420TIP3   OH231200   0.075   7.126   3.858
10420TIP3    H131201   0.082   7.189   3.929
10420TIP3    H231202   0.023   7.171   3.791
10421TIP3   OH231203   1.825   4.782   0.178
10421TIP3    H131204   1.791   4.821   0.098
10421TIP3    H231205   1.752   4.729   0.211
10422TIP3   OH231206   6.171   0.279   4.981
10422TIP3    H131207   6.076   0.273   4.988
10422TIP3    H231208   6.187   0.300   4.889
10423TIP3   OH231209   7.664   0.430   5.953
10423TIP3    H131210   7.672   0.345   5.996
10423TIP3    H231211   7.745   0.439   5.903
10424TIP3   OH231212   7.919   5.713   1.126
10424TIP3    H131213   7.966   5.723   1.044
10424TIP3    H231214   7.980   5.743   1.193
10425TIP3   OH231215   4.285   0.972   4.878
10425TIP3    H131216   4.365   0.986   4.927
10425TIP3    H231217   4.310   0.914   4.807
10426TIP3   OH231218   6.584   5.933   4.457
10426TIP3    H131219   6.613   6.024   4.447
10426TIP3    H231220   6.522   5.936   4.530
10427TIP3   OH231221   2.932   0.233   1.255
10427TIP3    H131222   2.861   0.176   1.284
10427TIP3    H231223   2.889   0.316   1.236
10428TIP3   OH231224   8.033   1.975   1.299
10428TIP3    H131225   7.938   1.985   1.299
10428TIP3    H231226   8.049   1.900   1.241
10429TIP3   OH231227   6.140   0.276   3.929
10429TIP3    H131228   6.070   0.236   3.981
10429TIP3    H231229   6.208   0.208   3.925
10430TIP3   OH231230   6.916   3.578   6.140
10430TIP3    H131231   6.939   3.658   6.093
10430TIP3    H231232   7.000   3.535   6.157
10431TIP3   OH231233   6.199   1.736   4.950
10431TIP3    H131234   6.116   1.782   4.940
10431TIP3    H231235   6.189   1.686   5.032
10432TIP3   OH231236   6.647   1.948   0.794
10432TIP3    H131237   6.552   1.951   0.796
10432TIP3    H231238   6.673   1.946   0.887
10433TIP3   OH231239   5.931   5.798   0.138
10433TIP3    H131240   5.919   5.787   0.043
10433TIP3    H231241   5.849   5.837   0.168
10434TIP3   OH231242   3.474   0.685   2.436
10434TIP3    H131243   3.419   0.618   2.396
10434TIP3    H231244   3.415   0.733   2.495
10435TIP3   OH231245   4.567   3.486   4.761
10435TIP3    H131246   4.487   3.496   4.812
10435TIP3    H231247   4.551   3.537   4.681
10436TIP3   OH231248   2.124   5.857   0.505
10436TIP3    H131249   2.066   5.785   0.481
10436TIP3    H231250   2.114   5.865   0.600
10437TIP3   OH231251   0.614   5.660   3.221
10437TIP3    H131252   0.545   5.633   3.281
10437TIP3    H231253   0.666   5.581   3.207
10438TIP3   OH231254   2.728   3.475   6.555
10438TIP3    H131255   2.672   3.531   6.607
10438TIP3    H231256   2.810   3.470   6.604
10439TIP3   OH231257   4.786   2.035   5.890
10439TIP3    H131258   4.753   2.052   5.978
10439TIP3    H231259   4.862   2.092   5.882
10440TIP3   OH231260   4.446   3.089   4.442
10440TIP3    H131261   4.404   3.068   4.359
10440TIP3    H231262   4.539   3.095   4.420
10441TIP3   OH231263   4.531   7.151   2.610
10441TIP3    H131264   4.502   7.102   2.532
10441TIP3    H231265   4.453   7.156   2.665
10442TIP3   OH231266   8.096   1.553   2.904
10442TIP3    H131267   8.187   1.552   2.934
10442TIP3    H231268   8.085   1.639   2.864
10443TIP3   OH231269   2.552   4.535   5.345
10443TIP3    H131270   2.497   4.610   5.368
10443TIP3    H231271   2.513   4.462   5.392
10444TIP3   OH231272   0.302   2.624   6.088
10444TIP3    H131273   0.339   2.579   6.164
10444TIP3    H231274   0.375   2.674   6.051
10445TIP3   OH231275   5.291   5.685   6.790
10445TIP3    H131276   5.253   5.660   6.874
10445TIP3    H231277   5.377   5.644   6.789
10446TIP3   OH231278   5.168   1.468   4.489
10446TIP3    H131279   5.232   1.451   4.420
10446TIP3    H231280   5.083   1.454   4.448
10447TIP3   OH231281   1.566   1.100   4.880
10447TIP3    H131282   1.658   1.098   4.853
10447TIP3    H231283   1.521   1.043   4.817
10448TIP3   OH231284   0.038   5.446   4.787
10448TIP3    H131285  -0.014   5.429   4.865
10448TIP3    H231286   0.118   5.487   4.820
10449TIP3   OH231287   2.711   1.633   4.203
10449TIP3    H131288   2.674   1.704   4.151
10449TIP3    H231289   2.785   1.600   4.151
10450TIP3   OH231290   7.997   1.281   6.823
10450TIP3    H131291   8.077   1.332   6.836
10450TIP3    H231292   7.941   1.307   6.896
10451TIP3   OH231293   3.966   2.597   4.178
10451TIP3    H131294   4.054   2.628   4.198
10451TIP3    H231295   3.980   2.519   4.124
10452TIP3   OH231296   0.810   6.516   3.701
10452TIP3    H131297   0.830   6.581   3.633
10452TIP3    H231298   0.827   6.562   3.784
10453TIP3   OH231299   1.828   1.848   4.732
10453TIP3    H131300   1.778   1.815   4.807
10453TIP3    H231301   1.868   1.929   4.764
10454TIP3   OH231302   0.671   4.117   2.538
10454TIP3    H131303   0.612   4.114   2.462
10454TIP3    H231304   0.702   4.207   2.540
10455TIP3   OH231305   6.439   3.953   1.471
10455TIP3    H131306   6.513   3.918   1.520
10455TIP3    H231307   6.412   3.881   1.413
10456TIP3   OH231308   1.888   6.973   4.215
10456TIP3    H131309   1.875   7.066   4.234
10456TIP3    H231310   1.975   6.968   4.176
10457TIP3   OH231311   3.451   5.716   3.804
10457TIP3    H131312   3.456   5.642   3.865
10457TIP3    H231313   3.491   5.683   3.723
10458TIP3   OH231314   0.102   6.819   4.712
10458TIP3    H131315   0.191   6.840   4.741
10458TIP3    H231316   0.046   6.852   4.782
10459TIP3   OH231317   5.439   4.899   3.050
10459TIP3    H131318   5.452   4.804   3.048
10459TIP3    H231319   5.375   4.913   3.119
10460TIP3   OH231320   4.629   3.618   5.254
10460TIP3    H131321   4.665   3.617   5.166
10460TIP3    H231322   4.629   3.526   5.281
10461TIP3   OH231323   7.858   3.756   0.993
10461TIP3    H131324   7.774   3.716   1.012
10461TIP3    H231325   7.889   3.712   0.914
10462TIP3   OH231326   2.153   6.838   4.077
10462TIP3    H131327   2.225   6.889   4.116
10462TIP3    H231328   2.124   6.780   4.147
10463TIP3   OH231329   5.607   1.568   3.180
10463TIP3    H131330   5.544   1.514   3.229
10463TIP3    H231331   5.582   1.557   3.089
10464TIP3   OH231332   5.143   3.418   0.733
10464TIP3    H131333   5.146   3.373   0.649
10464TIP3    H231334   5.189   3.360   0.793
10465TIP3   OH231335   6.257   6.610   6.426
10465TIP3    H131336   6.349   6.613   6.398
10465TIP3    H231337   6.208   6.594   6.346
10466TIP3   OH231338   0.191   0.911   2.239
10466TIP3    H131339   0.234   0.882   2.158
10466TIP3    H231340   0.192   1.006   2.234
10467TIP3   OH231341   5.104   6.801   5.605
10467TIP3    H131342   5.087   6.815   5.512
10467TIP3    H231343   5.049   6.727   5.629
10468TIP3   OH231344   1.382   0.151   1.535
10468TIP3    H131345   1.339   0.181   1.455
10468TIP3    H231346   1.476   0.156   1.514
10469TIP3   OH231347   7.581   6.320   0.488
10469TIP3    H131348   7.616   6.277   0.565
10469TIP3    H231349   7.624   6.276   0.414
10470TIP3   OH231350   2.276   2.854   0.599
10470TIP3    H131351   2.283   2.943   0.566
10470TIP3    H231352   2.216   2.811   0.538
10471TIP3   OH231353   5.440   0.307   4.833
10471TIP3    H131354   5.491   0.276   4.909
10471TIP3    H231355   5.475   0.256   4.759
10472TIP3   OH231356   6.854   4.230   2.671
10472TIP3    H131357   6.777   4.223   2.727
10472TIP3    H231358   6.901   4.306   2.706
10473TIP3   OH231359   4.806   4.338   6.772
10473TIP3    H131360   4.717   4.304   6.778
10473TIP3    H231361   4.849   4.308   6.851
10474TIP3   OH231362   2.441   2.813   5.938
10474TIP3    H131363   2.407   2.734   5.895
10474TIP3    H231364   2.366   2.872   5.941
10475TIP3   OH231365   2.331   4.596   0.403
10475TIP3    H131366   2.250   4.546   0.404
10475TIP3    H231367   2.345   4.621   0.494
10476TIP3   OH231368   2.860   4.725   0.148
10476TIP3    H131369   2.784   4.696   0.198
10476TIP3    H231370   2.825   4.750   0.063
10477TIP3   OH231371   8.205   3.123   2.487
10477TIP3    H131372   8.243   3.170   2.562
10477TIP3    H231373   8.111   3.139   2.496
10478TIP3   OH231374   6.988   2.120   2.693
10478TIP3    H131375   6.957   2.122   2.784
10478TIP3    H231376   7.035   2.037   2.685
10479TIP3   OH231377   6.856   2.907   5.931
10479TIP3    H131378   6.762   2.911   5.913
10479TIP3    H231379   6.895   2.964   5.866
10480TIP3   OH231380   0.451   1.877   0.320
10480TIP3    H131381   0.400   1.913   0.248
10480TIP3    H231382   0.542   1.894   0.295
10481TIP3   OH231383   3.948   6.728   0.604
10481TIP3    H131384   3.884   6.667   0.567
10481TIP3    H231385   4.017   6.672   0.640
10482TIP3   OH231386   5.725   6.844   0.970
10482TIP3    H131387   5.710   6.909   0.901
10482TIP3    H231388   5.715   6.760   0.925
10483TIP3   OH231389   6.565   4.926   0.041
10483TIP3    H131390   6.590   4.927  -0.052
10483TIP3    H231391   6.597   4.841   0.073
10484TIP3   OH231392   6.984   4.949   2.804
10484TIP3    H131393   7.013   5.040   2.807
10484TIP3    H231394   6.889   4.953   2.815
10485TIP3   OH231395   4.157   1.780   0.081
10485TIP3    H131396   4.132   1.792  -0.011
10485TIP3    H231397   4.075   1.792   0.130
10486TIP3   OH231398   7.745   0.140   1.270
10486TIP3    H131399   7.702   0.164   1.188
10486TIP3    H231400   7.790   0.058   1.250
10487TIP3   OH231401   3.442   0.129   6.469
10487TIP3    H131402   3.401   0.048   6.439
10487TIP3    H231403   3.484   0.165   6.391
10488TIP3   OH231404   2.291   5.096   3.187
10488TIP3    H131405   2.316   5.173   3.239
10488TIP3    H231406   2.372   5.046   3.177
10489TIP3   OH231407   4.013   6.656   4.732
10489TIP3    H131408   3.917   6.663   4.737
10489TIP3    H231409   4.035   6.584   4.792
10490TIP3   OH231410   3.084   0.793   6.700
10490TIP3    H131411   3.050   0.880   6.719
10490TIP3    H231412   3.077   0.784   6.605
10491TIP3   OH231413   7.925   1.780   2.261
10491TIP3    H131414   7.917   1.772   2.356
10491TIP3    H231415   7.846   1.739   2.226
10492TIP3   OH231416   6.995   0.857   5.461
10492TIP3    H131417   7.048   0.872   5.382
10492TIP3    H231418   6.960   0.943   5.483
10493TIP3   OH231419   5.994   3.603   5.322
10493TIP3    H131420   6.005   3.543   5.248
10493TIP3    H231421   6.066   3.581   5.382
10494TIP3   OH231422   1.583   4.249   6.062
10494TIP3    H131423   1.518   4.209   6.120
10494TIP3    H231424   1.664   4.201   6.081
10495TIP3   OH231425   3.704   3.570   4.491
10495TIP3    H131426   3.630   3.551   4.434
10495TIP3    H231427   3.669   3.559   4.580
10496TIP3   OH231428   4.492   5.436   5.676
10496TIP3    H131429   4.475   5.382   5.753
10496TIP3    H231430   4.558   5.387   5.626
10497TIP3   OH231431   3.943   4.542   1.258
10497TIP3    H131432   3.883   4.616   1.258
10497TIP3    H231433   3.909   4.482   1.325
10498TIP3   OH231434   4.050   3.833   5.992
10498TIP3    H131435   4.094   3.752   6.018
10498TIP3    H231436   4.083   3.899   6.053
10499TIP3   OH231437   6.515   3.259   0.581
10499TIP3    H131438   6.438   3.312   0.559
10499TIP3    H231439   6.563   3.251   0.498
10500TIP3   OH231440   2.323   1.738   1.892
10500TIP3    H131441   2.376   1.728   1.971
10500TIP3    H231442   2.257   1.668   1.898
10501TIP3   OH231443   4.072   7.391   5.661
10501TIP3    H131444   4.033   7.314   5.702
10501TIP3    H231445   4.132   7.426   5.727
10502TIP3   OH231446   1.598   5.713   3.071
10502TIP3    H131447   1.655   5.733   2.997
10502TIP3    H231448   1.516   5.682   3.032
10503TIP3   OH231449   1.852   4.225   1.611
10503TIP3    H131450   1.889   4.298   1.561
10503TIP3    H231451   1.788   4.186   1.552
10504TIP3   OH231452   4.234   3.692   5.460
10504TIP3    H131453   4.198   3.609   5.432
10504TIP3    H231454   4.188   3.713   5.542
10505TIP3   OH231455   1.109   7.626   2.987
10505TIP3    H131456   1.073   7.706   3.024
10505TIP3    H231457   1.034   7.567   2.980
10506TIP3   OH231458   6.236   2.895   5.338
10506TIP3    H131459   6.291   2.956   5.290
10506TIP3    H231460   6.181   2.950   5.394
10507TIP3   OH231461   5.121   0.950   4.389
10507TIP3    H131462   5.085   0.890   4.323
10507TIP3    H231463   5.190   0.899   4.432
10508TIP3   OH231464   0.894   5.078   4.362
10508TIP3    H131465   0.869   5.144   4.296
10508TIP3    H231466   0.872   5.119   4.446
10509TIP3   OH231467   2.437   5.388   4.894
10509TIP3    H131468   2.431   5.479   4.863
10509TIP3    H231469   2.356   5.375   4.944
10510TIP3   OH231470   5.717   4.400   1.744
10510TIP3    H131471   5.737   4.454   1.820
10510TIP3    H231472   5.622   4.388   1.747
10511TIP3   OH231473   7.854   1.363   1.400
10511TIP3    H131474   7.948   1.364   1.383
10511TIP3    H231475   7.828   1.272   1.386
10512TIP3   OH231476   4.989   5.980   2.327
10512TIP3    H131477   4.926   6.046   2.297
10512TIP3    H231478   4.942   5.929   2.393
10513TIP3   OH231479   1.714   4.632   3.846
10513TIP3    H131480   1.782   4.657   3.909
10513TIP3    H231481   1.637   4.681   3.872
10514TIP3   OH231482   7.522   7.803   6.498
10514TIP3    H131483   7.518   7.839   6.586
10514TIP3    H231484   7.436   7.764   6.484
10515TIP3   OH231485   0.058   5.739   4.084
10515TIP3    H131486   0.010   5.822   4.078
10515TIP3    H231487   0.000   5.683   4.135
10516TIP3   OH231488   2.057   5.808   6.267
10516TIP3    H131489   2.117   5.813   6.342
10516TIP3    H231490   2.037   5.715   6.259
10517TIP3   OH231491   2.568   7.390   3.481
10517TIP3    H131492   2.601   7.441   3.555
10517TIP3    H231493   2.506   7.448   3.437
10518TIP3   OH231494   4.042   0.799   5.943
10518TIP3    H131495   4.128   0.772   5.911
10518TIP3    H231496   4.027   0.745   6.021
10519TIP3   OH231497   0.086   6.408   0.190
10519TIP3    H131498   0.047   6.335   0.238
10519TIP3    H231499   0.115   6.370   0.108
10520TIP3   OH231500   2.762   1.880   6.183
10520TIP3    H131501   2.720   1.826   6.249
10520TIP3    H231502   2.803   1.818   6.123
10521TIP3   OH231503   0.267   5.929   6.536
10521TIP3    H131504   0.250   6.023   6.532
10521TIP3    H231505   0.340   5.915   6.475
10522TIP3   OH231506   4.748   4.565   0.333
10522TIP3    H131507   4.816   4.508   0.369
10522TIP3    H231508   4.796   4.638   0.293
10523TIP3   OH231509   7.442   3.812   4.945
10523TIP3    H131510   7.446   3.727   4.988
10523TIP3    H231511   7.533   3.839   4.936
10524TIP3   OH231512   6.767   0.278   3.267
10524TIP3    H131513   6.738   0.305   3.354
10524TIP3    H231514   6.845   0.330   3.250
10525TIP3   OH231515   1.534   1.629   6.395
10525TIP3    H131516   1.580   1.611   6.312
10525TIP3    H231517   1.449   1.587   6.384
10526TIP3   OH231518   7.861   3.376   6.810
10526TIP3    H131519   7.899   3.390   6.897
10526TIP3    H231520   7.911   3.303   6.773
10527TIP3   OH231521   4.251   1.184   2.761
10527TIP3    H131522   4.312   1.252   2.790
10527TIP3    H231523   4.224   1.211   2.674
10528TIP3   OH231524   5.406   4.620   5.713
10528TIP3    H131525   5.416   4.636   5.807
10528TIP3    H231526   5.333   4.560   5.706
10529TIP3   OH231527   6.299   2.331   2.241
10529TIP3    H131528   6.331   2.396   2.179
10529TIP3    H231529   6.240   2.275   2.190
10530TIP3   OH231530   3.160   0.630   0.864
10530TIP3    H131531   3.160   0.675   0.780
10530TIP3    H231532   3.070   0.596   0.874
10531TIP3   OH231533   7.340   5.853   6.597
10531TIP3    H131534   7.424   5.852   6.551
10531TIP3    H231535   7.345   5.779   6.657
10532TIP3   OH231536   6.448   3.174   4.415
10532TIP3    H131537   6.433   3.245   4.477
10532TIP3    H231538   6.507   3.114   4.460
10533TIP3   OH231539   0.536   3.950   2.966
10533TIP3    H131540   0.486   3.898   2.904
10533TIP3    H231541   0.539   4.037   2.928
10534TIP3   OH231542   7.019   2.538   5.092
10534TIP3    H131543   7.083   2.482   5.137
10534TIP3    H231544   7.012   2.500   5.004
10535TIP3   OH231545   3.815   2.675   3.573
10535TIP3    H131546   3.902   2.674   3.534
10535TIP3    H231547   3.815   2.600   3.633
10536TIP3   OH231548   0.591   4.082   0.574
10536TIP3    H131549   0.581   4.111   0.664
10536TIP3    H231550   0.503   4.089   0.536
10537TIP3   OH231551   1.147   5.870   5.502
10537TIP3    H131552   1.223   5.811   5.507
10537TIP3    H231553   1.119   5.881   5.593
10538TIP3   OH231554   7.252   4.070   6.764
10538TIP3    H131555   7.197   4.148   6.768
10538TIP3    H231556   7.243   4.029   6.851
10539TIP3   OH231557   6.721   7.571   5.094
10539TIP3    H131558   6.652   7.634   5.116
10539TIP3    H231559   6.701   7.544   5.005
10540TIP3   OH231560   3.917   3.631   6.723
10540TIP3    H131561   3.938   3.647   6.815
10540TIP3    H231562   4.002   3.626   6.679
10541TIP3   OH231563   3.367   3.211   3.178
10541TIP3    H131564   3.408   3.170   3.102
10541TIP3    H231565   3.276   3.225   3.151
10542TIP3   OH231566   7.251   0.036   2.904
10542TIP3    H131567   7.279   0.030   2.813
10542TIP3    H231568   7.271   0.127   2.929
10543TIP3   OH231569   3.235   7.751   5.344
10543TIP3    H131570   3.160   7.702   5.379
10543TIP3    H231571   3.217   7.842   5.368
10544TIP3   OH231572   3.077   5.690   1.350
10544TIP3    H131573   3.028   5.752   1.404
10544TIP3    H231574   3.155   5.738   1.322
10545TIP3   OH231575   4.979   1.846   3.574
10545TIP3    H131576   4.961   1.756   3.600
10545TIP3    H231577   4.959   1.848   3.480
10546TIP3   OH231578   3.068   6.280   4.060
10546TIP3    H131579   2.993   6.314   4.011
10546TIP3    H231580   3.030   6.215   4.119
10547TIP3   OH231581   2.189   3.677   1.640
10547TIP3    H131582   2.224   3.727   1.565
10547TIP3    H231583   2.262   3.623   1.669
10548TIP3   OH231584   0.711   1.682   3.618
10548TIP3    H131585   0.757   1.711   3.539
10548TIP3    H231586   0.650   1.615   3.588
10549TIP3   OH231587   4.754   3.422   2.547
10549TIP3    H131588   4.821   3.357   2.567
10549TIP3    H231589   4.677   3.392   2.595
10550TIP3   OH231590   4.150   7.242   1.822
10550TIP3    H131591   4.220   7.292   1.865
10550TIP3    H231592   4.160   7.153   1.856
10551TIP3   OH231593   5.611   6.499   2.936
10551TIP3    H131594   5.624   6.406   2.918
10551TIP3    H231595   5.700   6.535   2.940
10552TIP3   OH231596   7.115   0.518   2.948
10552TIP3    H131597   7.071   0.475   2.875
10552TIP3    H231598   7.182   0.572   2.907
10553TIP3   OH231599   6.194   0.503   0.639
10553TIP3    H131600   6.234   0.419   0.615
10553TIP3    H231601   6.219   0.562   0.568
10554TIP3   OH231602   6.129   0.134   5.307
10554TIP3    H131603   6.217   0.166   5.326
10554TIP3    H231604   6.077   0.212   5.290
10555TIP3   OH231605   7.808   1.432   4.435
10555TIP3    H131606   7.804   1.399   4.525
10555TIP3    H231607   7.762   1.516   4.439
10556TIP3   OH231608   8.175   7.494   5.742
10556TIP3    H131609   8.173   7.590   5.751
10556TIP3    H231610   8.247   7.467   5.798
10557TIP3   OH231611   5.151   5.808   2.690
10557TIP3    H131612   5.068   5.761   2.698
10557TIP3    H231613   5.168   5.811   2.596
10558TIP3   OH231614   0.833   5.772   1.563
10558TIP3    H131615   0.812   5.690   1.517
10558TIP3    H231616   0.913   5.803   1.521
10559TIP3   OH231617   3.985   2.249   1.072
10559TIP3    H131618   3.976   2.154   1.063
10559TIP3    H231619   3.931   2.285   1.003
10560TIP3   OH231620   3.549   4.408   3.580
10560TIP3    H131621   3.511   4.427   3.494
10560TIP3    H231622   3.558   4.494   3.621
10561TIP3   OH231623   1.369   1.520   2.660
10561TIP3    H131624   1.427   1.556   2.727
10561TIP3    H231625   1.402   1.556   2.578
10562TIP3   OH231626   5.438   4.570   0.672
10562TIP3    H131627   5.467   4.555   0.762
10562TIP3    H231628   5.358   4.517   0.663
10563TIP3   OH231629   6.311   2.276   2.991
10563TIP3    H131630   6.321   2.291   3.085
10563TIP3    H231631   6.259   2.196   2.985
10564TIP3   OH231632   3.983   5.674   3.208
10564TIP3    H131633   4.074   5.668   3.238
10564TIP3    H231634   3.936   5.609   3.260
10565TIP3   OH231635   2.031   7.210   5.611
10565TIP3    H131636   1.988   7.126   5.597
10565TIP3    H231637   2.124   7.192   5.595
10566TIP3   OH231638   3.161   1.992   2.944
10566TIP3    H131639   3.242   2.042   2.955
10566TIP3    H231640   3.188   1.901   2.944
10567TIP3   OH231641   8.315   1.173   0.803
10567TIP3    H131642   8.285   1.263   0.811
10567TIP3    H231643   8.329   1.144   0.894
10568TIP3   OH231644   2.072   0.319   1.735
10568TIP3    H131645   2.095   0.233   1.771
10568TIP3    H231646   2.155   0.360   1.714
10569TIP3   OH231647   8.300   7.699   5.893
10569TIP3    H131648   8.261   7.693   5.979
10569TIP3    H231649   8.295   7.792   5.870
10570TIP3   OH231650   1.657   5.120   2.516
10570TIP3    H131651   1.654   5.076   2.601
10570TIP3    H231652   1.670   5.212   2.538
10571TIP3   OH231653   7.336   6.722   6.289
10571TIP3    H131654   7.363   6.630   6.294
10571TIP3    H231655   7.404   6.770   6.337
10572TIP3   OH231656   8.337   3.903   4.002
10572TIP3    H131657   8.340   3.826   3.946
10572TIP3    H231658   8.380   3.875   4.083
10573TIP3   OH231659   2.054   1.381   3.254
10573TIP3    H131660   2.077   1.359   3.163
10573TIP3    H231661   1.963   1.408   3.250
10574TIP3   OH231662   4.027   2.363   5.374
10574TIP3    H131663   3.984   2.332   5.294
10574TIP3    H231664   3.957   2.405   5.424
10575TIP3   OH231665   1.805   0.642   4.885
10575TIP3    H131666   1.896   0.665   4.900
10575TIP3    H231667   1.782   0.684   4.802
10576TIP3   OH231668   3.128   1.387   5.738
10576TIP3    H131669   3.086   1.301   5.730
10576TIP3    H231670   3.202   1.372   5.797
10577TIP3   OH231671   7.565   1.434   0.514
10577TIP3    H131672   7.558   1.523   0.549
10577TIP3    H231673   7.503   1.432   0.441
10578TIP3   OH231674   2.463   1.659   0.599
10578TIP3    H131675   2.492   1.594   0.535
10578TIP3    H231676   2.402   1.714   0.550
10579TIP3   OH231677   7.122   5.547   5.663
10579TIP3    H131678   7.154   5.634   5.686
10579TIP3    H231679   7.027   5.551   5.676
10580TIP3   OH231680   7.507   4.480   6.155
10580TIP3    H131681   7.417   4.485   6.188
10580TIP3    H231682   7.513   4.549   6.089
10581TIP3   OH231683   5.541   2.914   1.290
10581TIP3    H131684   5.468   2.867   1.329
10581TIP3    H231685   5.503   2.961   1.216
10582TIP3   OH231686   2.310   3.584   4.895
10582TIP3    H131687   2.369   3.656   4.914
10582TIP3    H231688   2.242   3.590   4.963
10583TIP3   OH231689   6.161   0.926   4.498
10583TIP3    H131690   6.128   0.890   4.415
10583TIP3    H231691   6.131   0.863   4.564
10584TIP3   OH231692   8.276   4.329   3.164
10584TIP3    H131693   8.337   4.303   3.233
10584TIP3    H231694   8.253   4.419   3.185
10585TIP3   OH231695   5.406   5.384   5.006
10585TIP3    H131696   5.334   5.435   4.971
10585TIP3    H231697   5.427   5.427   5.089
10586TIP3   OH231698   7.136   6.989   0.187
10586TIP3    H131699   7.143   6.917   0.249
10586TIP3    H231700   7.084   6.953   0.115
10587TIP3   OH231701   3.059   3.913   6.157
10587TIP3    H131702   3.064   3.912   6.062
10587TIP3    H231703   3.039   4.004   6.179
10588TIP3   OH231704   3.236   7.200   1.106
10588TIP3    H131705   3.195   7.244   1.032
10588TIP3    H231706   3.194   7.237   1.183
10589TIP3   OH231707   6.149   3.189   0.228
10589TIP3    H131708   6.120   3.116   0.283
10589TIP3    H231709   6.073   3.207   0.172
10590TIP3   OH231710   3.042   5.405   1.389
10590TIP3    H131711   3.126   5.387   1.432
10590TIP3    H231712   3.032   5.500   1.396
10591TIP3   OH231713   2.214   2.624   6.002
10591TIP3    H131714   2.158   2.546   6.009
10591TIP3    H231715   2.269   2.607   5.926
10592TIP3   OH231716   3.169   1.641   6.794
10592TIP3    H131717   3.161   1.574   6.862
10592TIP3    H231718   3.124   1.603   6.718
10593TIP3   OH231719   6.888   6.006   2.479
10593TIP3    H131720   6.979   5.986   2.459
10593TIP3    H231721   6.889   6.033   2.571
10594TIP3   OH231722   6.138   0.581   1.882
10594TIP3    H131723   6.146   0.573   1.786
10594TIP3    H231724   6.180   0.502   1.915
10595TIP3   OH231725   4.329   1.823   3.857
10595TIP3    H131726   4.384   1.900   3.845
10595TIP3    H231727   4.240   1.854   3.841
10596TIP3   OH231728   3.473   5.702   2.282
10596TIP3    H131729   3.467   5.617   2.238
10596TIP3    H231730   3.504   5.681   2.370
10597TIP3   OH231731   4.585   5.002   1.839
10597TIP3    H131732   4.549   5.026   1.754
10597TIP3    H231733   4.677   4.983   1.823
10598TIP3   OH231734   6.617   2.088   3.274
10598TIP3    H131735   6.589   1.998   3.260
10598TIP3    H231736   6.655   2.116   3.191
10599TIP3   OH231737   1.285   3.073   1.025
10599TIP3    H131738   1.303   2.986   1.059
10599TIP3    H231739   1.369   3.119   1.029
10600TIP3   OH231740   7.833   6.225   0.630
10600TIP3    H131741   7.874   6.139   0.619
10600TIP3    H231742   7.891   6.285   0.583
10601TIP3   OH231743   4.542   1.281   3.346
10601TIP3    H131744   4.627   1.324   3.356
10601TIP3    H231745   4.506   1.279   3.435
10602TIP3   OH231746   8.076   7.075   6.405
10602TIP3    H131747   8.072   7.162   6.365
10602TIP3    H231748   8.082   7.015   6.331
10603TIP3   OH231749   2.141   1.520   2.741
10603TIP3    H131750   2.103   1.449   2.688
10603TIP3    H231751   2.183   1.577   2.677
10604TIP3   OH231752   3.089   1.070   0.890
10604TIP3    H131753   3.061   1.141   0.948
10604TIP3    H231754   3.028   0.999   0.907
10605TIP3   OH231755   6.205   0.044   6.374
10605TIP3    H131756   6.191   0.078   6.286
10605TIP3    H231757   6.187  -0.050   6.367
10606TIP3   OH231758   4.424   6.025   6.432
10606TIP3    H131759   4.519   6.014   6.430
10606TIP3    H231760   4.389   5.937   6.445
10607TIP3   OH231761   6.746   4.063   6.601
10607TIP3    H131762   6.688   4.018   6.539
10607TIP3    H231763   6.734   4.018   6.684
10608TIP3   OH231764   6.195   1.076   5.941
10608TIP3    H131765   6.127   1.021   5.980
10608TIP3    H231766   6.233   1.021   5.872
10609TIP3   OH231767   5.448   0.298   3.101
10609TIP3    H131768   5.521   0.354   3.076
10609TIP3    H231769   5.370   0.350   3.084
10610TIP3   OH231770   3.825   4.071   4.700
10610TIP3    H131771   3.862   4.052   4.786
10610TIP3    H231772   3.830   3.989   4.652
10611TIP3   OH231773   5.476   3.939   6.774
10611TIP3    H131774   5.464   3.967   6.683
10611TIP3    H231775   5.571   3.928   6.784
10612TIP3   OH231776   2.759   5.853   3.172
10612TIP3    H131777   2.781   5.761   3.189
10612TIP3    H231778   2.699   5.877   3.243
10613TIP3   OH231779   2.556   0.505   6.648
10613TIP3    H131780   2.648   0.529   6.664
10613TIP3    H231781   2.542   0.523   6.556
10614TIP3   OH231782   3.818   0.008   4.446
10614TIP3    H131783   3.729   0.007   4.412
10614TIP3    H231784   3.845   0.100   4.439
10615TIP3   OH231785   3.263   2.689   3.785
10615TIP3    H131786   3.260   2.749   3.859
10615TIP3    H231787   3.174   2.655   3.778
10616TIP3   OH231788   0.239   1.585   2.401
10616TIP3    H131789   0.274   1.497   2.416
10616TIP3    H231790   0.145   1.571   2.387
10617TIP3   OH231791   2.918   6.764   0.664
10617TIP3    H131792   2.948   6.673   0.665
10617TIP3    H231793   2.827   6.758   0.635
10618TIP3   OH231794   4.339   1.630   3.321
10618TIP3    H131795   4.314   1.574   3.249
10618TIP3    H231796   4.292   1.595   3.397
10619TIP3   OH231797   3.736   0.783   1.299
10619TIP3    H131798   3.779   0.868   1.292
10619TIP3    H231799   3.779   0.741   1.374
10620TIP3   OH231800   5.386   4.570   4.013
10620TIP3    H131801   5.398   4.596   3.922
10620TIP3    H231802   5.291   4.566   4.024
10621TIP3   OH231803   2.081   4.565   6.251
10621TIP3    H131804   2.160   4.608   6.217
10621TIP3    H231805   2.014   4.585   6.186
10622TIP3   OH231806   3.029   0.082   3.253
10622TIP3    H131807   3.095   0.025   3.291
10622TIP3    H231808   2.961   0.022   3.221
10623TIP3   OH231809   6.067   2.518   0.475
10623TIP3    H131810   6.076   2.519   0.570
10623TIP3    H231811   6.057   2.610   0.450
10624TIP3   OH231812   2.409   1.061   5.702
10624TIP3    H131813   2.464   1.008   5.645
10624TIP3    H231814   2.349   0.999   5.743
10625TIP3   OH231815   3.262   3.604   2.109
10625TIP3    H131816   3.215   3.681   2.139
10625TIP3    H231817   3.271   3.549   2.187
10626TIP3   OH231818   1.688   1.663   0.635
10626TIP3    H131819   1.708   1.571   0.617
10626TIP3    H231820   1.774   1.706   0.636
10627TIP3   OH231821   7.999   4.345   2.817
10627TIP3    H131822   7.998   4.261   2.862
10627TIP3    H231823   8.048   4.329   2.737
10628TIP3   OH231824   5.027   3.404   6.824
10628TIP3    H131825   5.069   3.358   6.751
10628TIP3    H231826   5.052   3.354   6.901
10629TIP3   OH231827   1.471   0.201   5.249
10629TIP3    H131828   1.408   0.216   5.320
10629TIP3    H231829   1.556   0.221   5.287
10630TIP3   OH231830   1.999   1.937   6.075
10630TIP3    H131831   2.037   1.949   5.988
10630TIP3    H231832   2.045   1.862   6.112
10631TIP3   OH231833   0.312   2.762   0.539
10631TIP3    H131834   0.364   2.812   0.603
10631TIP3    H231835   0.277   2.829   0.480
10632TIP3   OH231836   4.677   0.007   5.525
10632TIP3    H131837   4.737   0.057   5.580
10632TIP3    H231838   4.681   0.051   5.440
10633TIP3   OH231839   1.140   1.347   5.701
10633TIP3    H131840   1.192   1.350   5.781
10633TIP3    H231841   1.067   1.289   5.721
10634TIP3   OH231842   3.183   4.859   6.667
10634TIP3    H131843   3.170   4.936   6.613
10634TIP3    H231844   3.124   4.793   6.630
10635TIP3   OH231845   2.008   6.605   0.202
10635TIP3    H131846   2.051   6.688   0.221
10635TIP3    H231847   1.992   6.566   0.288
10636TIP3   OH231848   6.802   0.122   3.646
10636TIP3    H131849   6.786   0.054   3.580
10636TIP3    H231850   6.797   0.204   3.598
10637TIP3   OH231851   3.782   7.084   4.414
10637TIP3    H131852   3.818   7.100   4.501
10637TIP3    H231853   3.711   7.147   4.405
10638TIP3   OH231854   2.676   6.516   4.659
10638TIP3    H131855   2.748   6.566   4.621
10638TIP3    H231856   2.604   6.579   4.666
10639TIP3   OH231857   0.676   2.406   6.735
10639TIP3    H131858   0.602   2.372   6.785
10639TIP3    H231859   0.664   2.370   6.647
10640TIP3   OH231860   3.440   5.502   2.111
10640TIP3    H131861   3.432   5.407   2.124
10640TIP3    H231862   3.509   5.511   2.044
10641TIP3   OH231863   1.693   2.809   0.508
10641TIP3    H131864   1.644   2.847   0.436
10641TIP3    H231865   1.762   2.757   0.466
10642TIP3   OH231866   1.165   7.465   0.771
10642TIP3    H131867   1.116   7.419   0.702
10642TIP3    H231868   1.123   7.551   0.776
10643TIP3   OH231869   6.756   0.532   2.930
10643TIP3    H131870   6.730   0.469   2.997
10643TIP3    H231871   6.690   0.601   2.933
10644TIP3   OH231872   3.352   6.122   2.883
10644TIP3    H131873   3.291   6.123   2.809
10644TIP3    H231874   3.420   6.185   2.859
10645TIP3   OH231875   3.403   1.004   3.687
10645TIP3    H131876   3.338   0.935   3.698
10645TIP3    H231877   3.352   1.084   3.672
10646TIP3   OH231878   1.978   4.449   2.162
10646TIP3    H131879   1.899   4.410   2.199
10646TIP3    H231880   2.046   4.384   2.179
10647TIP3   OH231881   3.509   1.233   2.441
10647TIP3    H131882   3.589   1.200   2.481
10647TIP3    H231883   3.537   1.312   2.393
10648TIP3   OH231884   7.377   7.299   3.281
10648TIP3    H131885   7.402   7.291   3.189
10648TIP3    H231886   7.460   7.299   3.329
10649TIP3   OH231887   3.602   6.355   5.812
10649TIP3    H131888   3.657   6.423   5.772
10649TIP3    H231889   3.579   6.391   5.898
10650TIP3   OH231890   0.270  -0.017   3.171
10650TIP3    H131891   0.242  -0.028   3.080
10650TIP3    H231892   0.324   0.063   3.170
10651TIP3   OH231893   8.000   6.724   1.493
10651TIP3    H131894   7.984   6.711   1.587
10651TIP3    H231895   7.943   6.797   1.469
10652TIP3   OH231896   0.310   1.538   0.996
10652TIP3    H131897   0.374   1.597   1.036
10652TIP3    H231898   0.351   1.452   0.996
10653TIP3   OH231899   2.299   1.744   4.317
10653TIP3    H131900   2.266   1.764   4.230
10653TIP3    H231901   2.357   1.669   4.305
10654TIP3   OH231902   3.963   0.309   4.129
10654TIP3    H131903   3.884   0.268   4.094
10654TIP3    H231904   4.014   0.334   4.052
10655TIP3   OH231905   2.799   3.875   0.438
10655TIP3    H131906   2.768   3.787   0.418
10655TIP3    H231907   2.720   3.924   0.463
10656TIP3   OH231908   1.780   7.435   4.455
10656TIP3    H131909   1.776   7.491   4.533
10656TIP3    H231910   1.696   7.449   4.412
10657TIP3   OH231911   6.777   1.140   2.115
10657TIP3    H131912   6.844   1.161   2.049
10657TIP3    H231913   6.766   1.222   2.164
10658TIP3   OH231914   4.242   3.466   6.313
10658TIP3    H131915   4.253   3.376   6.344
10658TIP3    H231916   4.255   3.461   6.219
10659TIP3   OH231917   7.551   3.058   3.118
10659TIP3    H131918   7.543   2.993   3.188
10659TIP3    H231919   7.470   3.047   3.067
10660TIP3   OH231920   8.221   6.503   1.125
10660TIP3    H131921   8.303   6.487   1.078
10660TIP3    H231922   8.241   6.479   1.216
10661TIP3   OH231923   5.359   5.727   0.094
10661TIP3    H131924   5.414   5.725   0.172
10661TIP3    H231925   5.329   5.637   0.083
10662TIP3   OH231926   6.351   4.979   6.351
10662TIP3    H131927   6.299   5.014   6.423
10662TIP3    H231928   6.321   5.026   6.274
10663TIP3   OH231929   8.205   4.668   2.914
10663TIP3    H131930   8.185   4.753   2.953
10663TIP3    H231931   8.144   4.660   2.841
10664TIP3   OH231932   1.267   5.138   4.895
10664TIP3    H131933   1.247   5.218   4.846
10664TIP3    H231934   1.299   5.169   4.980
10665TIP3   OH231935   3.481   6.341   6.074
10665TIP3    H131936   3.511   6.341   6.165
10665TIP3    H231937   3.452   6.431   6.059
10666TIP3   OH231938   8.374   2.908   3.258
10666TIP3    H131939   8.289   2.929   3.218
10666TIP3    H231940   8.398   2.987   3.306
10667TIP3   OH231941   3.661   7.709   0.247
10667TIP3    H131942   3.657   7.740   0.338
10667TIP3    H231943   3.654   7.789   0.195
10668TIP3   OH231944   0.865   3.218   0.654
10668TIP3    H131945   0.781   3.203   0.611
10668TIP3    H231946   0.911   3.134   0.647
10669TIP3   OH231947   2.743   7.123   6.447
10669TIP3    H131948   2.757   7.133   6.542
10669TIP3    H231949   2.655   7.157   6.432
10670TIP3   OH231950   5.065   2.213   1.013
10670TIP3    H131951   5.108   2.133   0.982
10670TIP3    H231952   5.007   2.238   0.941
10671TIP3   OH231953   0.055   4.749   0.841
10671TIP3    H131954   0.110   4.793   0.777
10671TIP3    H231955   0.081   4.657   0.836
10672TIP3   OH231956   1.542   3.355   0.500
10672TIP3    H131957   1.630   3.349   0.463
10672TIP3    H231958   1.555   3.347   0.595
10673TIP3   OH231959   6.095   5.087   1.052
10673TIP3    H131960   6.034   5.115   0.983
10673TIP3    H231961   6.164   5.153   1.050
10674TIP3   OH231962   4.219   2.194   0.694
10674TIP3    H131963   4.229   2.124   0.759
10674TIP3    H231964   4.292   2.254   0.714
10675TIP3   OH231965   7.692   6.538   4.304
10675TIP3    H131966   7.765   6.599   4.318
10675TIP3    H231967   7.658   6.521   4.391
10676TIP3   OH231968   6.755   3.506   1.787
10676TIP3    H131969   6.814   3.492   1.861
10676TIP3    H231970   6.668   3.514   1.827
10677TIP3   OH231971   8.363   4.347   1.376
10677TIP3    H131972   8.321   4.264   1.399
10677TIP3    H231973   8.368   4.345   1.280
10678TIP3   OH231974   1.420   2.962   3.988
10678TIP3    H131975   1.456   3.047   4.013
10678TIP3    H231976   1.389   2.924   4.069
10679TIP3   OH231977   3.127   0.277   2.938
10679TIP3    H131978   3.140   0.197   2.887
10679TIP3    H231979   3.126   0.347   2.874
10680TIP3   OH231980   8.054   7.291   5.068
10680TIP3    H131981   7.970   7.311   5.027
10680TIP3    H231982   8.119   7.334   5.012
10681TIP3   OH231983   2.643   5.876   1.094
10681TIP3    H131984   2.627   5.781   1.092
10681TIP3    H231985   2.622   5.902   1.184
10682TIP3   OH231986   1.805   2.023   2.537
10682TIP3    H131987   1.756   1.952   2.579
10682TIP3    H231988   1.892   2.018   2.575
10683TIP3   OH231989   6.480   7.557   6.083
10683TIP3    H131990   6.511   7.468   6.070
10683TIP3    H231991   6.464   7.563   6.178
10684TIP3   OH231992   7.241   2.848   0.728
10684TIP3    H131993   7.197   2.930   0.751
10684TIP3    H231994   7.307   2.874   0.664
10685TIP3   OH231995   4.901   7.461   3.899
10685TIP3    H131996   4.969   7.427   3.841
10685TIP3    H231997   4.935   7.544   3.931
10686TIP3   OH231998   4.027   2.651   2.319
10686TIP3    H131999   3.994   2.736   2.348
10686TIP3    H232000   4.024   2.595   2.397
10687TIP3   OH232001   1.988   4.575   0.304
10687TIP3    H132002   1.950   4.615   0.226
10687TIP3    H232003   2.001   4.483   0.281
10688TIP3   OH232004   3.183   3.023   6.534
10688TIP3    H132005   3.219   3.112   6.538
10688TIP3    H232006   3.102   3.032   6.484
10689TIP3   OH232007   8.199   7.776   0.829
10689TIP3    H132008   8.205   7.835   0.904
10689TIP3    H232009   8.190   7.689   0.868
10690TIP3   OH232010   1.238   6.145   0.097
10690TIP3    H132011   1.216   6.081   0.029
10690TIP3    H232012   1.333   6.152   0.095
10691TIP3   OH232013   7.446   0.416   2.177
10691TIP3    H132014   7.359   0.448   2.151
10691TIP3    H232015   7.489   0.493   2.214
10692TIP3   OH232016   8.114   7.658   3.306
10692TIP3    H132017   8.191   7.605   3.288
10692TIP3    H232018   8.106   7.716   3.229
10693TIP3   OH232019   2.048   6.253   6.806
10693TIP3    H132020   1.968   6.212   6.774
10693TIP3    H232021   2.047   6.342   6.769
10694TIP3   OH232022   6.796   2.921   0.829
10694TIP3    H132023   6.758   2.948   0.913
10694TIP3    H232024   6.735   2.955   0.764
10695TIP3   OH232025   1.863   5.393   5.824
10695TIP3    H132026   1.924   5.371   5.895
10695TIP3    H232027   1.911   5.457   5.771
10696TIP3   OH232028   1.652   0.143   4.391
10696TIP3    H132029   1.743   0.169   4.376
10696TIP3    H232030   1.623   0.108   4.307
10697TIP3   OH232031   6.817   1.836   5.868
10697TIP3    H132032   6.906   1.801   5.872
10697TIP3    H232033   6.785   1.831   5.959
10698TIP3   OH232034   1.302   5.873   6.484
10698TIP3    H132035   1.243   5.903   6.415
10698TIP3    H232036   1.258   5.799   6.524
10699TIP3   OH232037   4.311   2.666   5.382
10699TIP3    H132038   4.321   2.761   5.372
10699TIP3    H232039   4.321   2.651   5.476
10700TIP3   OH232040   6.324   1.576   6.467
10700TIP3    H132041   6.236   1.554   6.436
10700TIP3    H232042   6.314   1.587   6.562
10701TIP3   OH232043   1.980   3.800   3.163
10701TIP3    H132044   1.912   3.856   3.126
10701TIP3    H232045   2.044   3.861   3.199
10702TIP3   OH232046   2.462   1.678   2.149
10702TIP3    H132047   2.381   1.667   2.199
10702TIP3    H232048   2.466   1.772   2.129
10703TIP3   OH232049   5.136   6.363   4.749
10703TIP3    H132050   5.123   6.350   4.655
10703TIP3    H232051   5.198   6.295   4.774
10704TIP3   OH232052   7.653   2.724   4.130
10704TIP3    H132053   7.711   2.653   4.103
10704TIP3    H232054   7.694   2.803   4.096
10705TIP3   OH232055   4.656   7.130   4.550
10705TIP3    H132056   4.678   7.041   4.519
10705TIP3    H232057   4.561   7.130   4.555
10706TIP3   OH232058   3.957   7.493   6.848
10706TIP3    H132059   3.881   7.452   6.890
10706TIP3    H232060   4.005   7.420   6.809
10707TIP3   OH232061   2.746   3.402   1.966
10707TIP3    H132062   2.835   3.410   2.001
10707TIP3    H232063   2.739   3.309   1.942
10708TIP3   OH232064   3.063   1.413   6.233
10708TIP3    H132065   3.066   1.391   6.326
10708TIP3    H232066   3.142   1.373   6.197
10709TIP3   OH232067   7.896   5.214   6.085
10709TIP3    H132068   7.988   5.226   6.061
10709TIP3    H232069   7.899   5.180   6.175
10710TIP3   OH232070   0.525   3.908   1.553
10710TIP3    H132071   0.515   4.004   1.557
10710TIP3    H232072   0.549   3.891   1.462
10711TIP3   OH232073   7.336   1.362   5.615
10711TIP3    H132074   7.254   1.387   5.658
10711TIP3    H232075   7.310   1.299   5.548
10712TIP3   OH232076   2.239   2.857   6.508
10712TIP3    H132077   2.163   2.837   6.562
10712TIP3    H232078   2.268   2.772   6.475
10713TIP3   OH232079   0.238   5.851   4.277
10713TIP3    H132080   0.181   5.778   4.254
10713TIP3    H232081   0.325   5.826   4.245
10714TIP3   OH232082   4.158   1.160   3.134
10714TIP3    H132083   4.090   1.224   3.151
10714TIP3    H232084   4.237   1.212   3.120
10715TIP3   OH232085   0.812   6.579   0.928
10715TIP3    H132086   0.890   6.555   0.979
10715TIP3    H232087   0.765   6.640   0.983
10716TIP3   OH232088   4.663   3.726   4.250
10716TIP3    H132089   4.723   3.800   4.239
10716TIP3    H232090   4.577   3.761   4.228
10717TIP3   OH232091   7.540   6.881   4.461
10717TIP3    H132092   7.535   6.912   4.371
10717TIP3    H232093   7.628   6.904   4.490
10718TIP3   OH232094   3.364   6.385   5.693
10718TIP3    H132095   3.445   6.390   5.742
10718TIP3    H232096   3.296   6.406   5.756
10719TIP3   OH232097   1.227   2.022   2.217
10719TIP3    H132098   1.136   1.991   2.215
10719TIP3    H232099   1.243   2.053   2.128
10720TIP3   OH232100   5.689   0.777   4.644
10720TIP3    H132101   5.737   0.859   4.633
10720TIP3    H232102   5.720   0.742   4.728
10721TIP3   OH232103   7.733   6.386   0.864
10721TIP3    H132104   7.658   6.331   0.888
10721TIP3    H232105   7.787   6.330   0.809
10722TIP3   OH232106   6.577   0.479   4.418
10722TIP3    H132107   6.558   0.565   4.453
10722TIP3    H232108   6.672   0.476   4.411
10723TIP3   OH232109   4.957   4.151   4.259
10723TIP3    H132110   4.905   4.089   4.311
10723TIP3    H232111   4.894   4.192   4.201
10724TIP3   OH232112   5.128   5.706   4.522
10724TIP3    H132113   5.102   5.777   4.463
10724TIP3    H232114   5.092   5.731   4.607
10725TIP3   OH232115   3.559   7.897   3.006
10725TIP3    H132116   3.628   7.855   3.058
10725TIP3    H232117   3.605   7.960   2.951
10726TIP3   OH232118   6.275   5.738   5.531
10726TIP3    H132119   6.190   5.732   5.488
10726TIP3    H232120   6.333   5.685   5.476
10727TIP3   OH232121   2.390   1.265   0.306
10727TIP3    H132122   2.370   1.172   0.300
10727TIP3    H232123   2.322   1.307   0.253
10728TIP3   OH232124   6.568   5.577   1.448
10728TIP3    H132125   6.491   5.530   1.417
10728TIP3    H232126   6.537   5.627   1.523
10729TIP3   OH232127   0.369   3.737   4.496
10729TIP3    H132128   0.344   3.645   4.483
10729TIP3    H232129   0.463   3.739   4.476
10730TIP3   OH232130   5.660   1.352   1.508
10730TIP3    H132131   5.622   1.297   1.440
10730TIP3    H232132   5.701   1.290   1.569
10731TIP3   OH232133   2.307   3.165   4.233
10731TIP3    H132134   2.287   3.203   4.319
10731TIP3    H232135   2.359   3.087   4.254
10732TIP3   OH232136   2.912   1.653   4.764
10732TIP3    H132137   2.929   1.696   4.848
10732TIP3    H232138   2.819   1.633   4.766
10733TIP3   OH232139   4.444   5.849   2.504
10733TIP3    H132140   4.358   5.811   2.523
10733TIP3    H232141   4.493   5.777   2.463
10734TIP3   OH232142   3.625   4.586   1.551
10734TIP3    H132143   3.657   4.496   1.541
10734TIP3    H232144   3.534   4.575   1.580
10735TIP3   OH232145   6.082   0.786   1.148
10735TIP3    H132146   6.056   0.763   1.059
10735TIP3    H232147   6.098   0.703   1.191
10736TIP3   OH232148   0.505   1.533   4.877
10736TIP3    H132149   0.548   1.589   4.942
10736TIP3    H232150   0.446   1.592   4.830
10737TIP3   OH232151   4.422   0.823   3.789
10737TIP3    H132152   4.493   0.822   3.724
10737TIP3    H232153   4.459   0.867   3.865
10738TIP3   OH232154   3.384   7.578   5.097
10738TIP3    H132155   3.334   7.505   5.134
10738TIP3    H232156   3.341   7.656   5.131
10739TIP3   OH232157   4.677   1.417   1.191
10739TIP3    H132158   4.768   1.429   1.165
10739TIP3    H232159   4.680   1.349   1.258
10740TIP3   OH232160   4.917   4.872   4.587
10740TIP3    H132161   4.962   4.788   4.590
10740TIP3    H232162   4.830   4.854   4.621
10741TIP3   OH232163   0.497   2.422   6.046
10741TIP3    H132164   0.421   2.386   6.001
10741TIP3    H232165   0.520   2.356   6.111
10742TIP3   OH232166   3.327   7.785   4.154
10742TIP3    H132167   3.397   7.811   4.214
10742TIP3    H232168   3.286   7.868   4.129
10743TIP3   OH232169   4.729   2.447   2.482
10743TIP3    H132170   4.647   2.459   2.531
10743TIP3    H232171   4.703   2.452   2.390
10744TIP3   OH232172   3.163   1.714   2.901
10744TIP3    H132173   3.239   1.674   2.943
10744TIP3    H232174   3.173   1.691   2.809
10745TIP3   OH232175   2.073   4.455   4.658
10745TIP3    H132176   2.085   4.363   4.631
10745TIP3    H232177   2.108   4.458   4.747
10746TIP3   OH232178   1.896   6.688   3.270
10746TIP3    H132179   1.921   6.670   3.179
10746TIP3    H232180   1.930   6.613   3.319
10747TIP3   OH232181   6.546   3.861   3.496
10747TIP3    H132182   6.568   3.777   3.456
10747TIP3    H232183   6.560   3.847   3.590
10748TIP3   OH232184   1.983   6.033   3.809
10748TIP3    H132185   2.034   6.098   3.762
10748TIP3    H232186   1.956   6.077   3.889
10749TIP3   OH232187   5.387   0.287   5.481
10749TIP3    H132188   5.340   0.221   5.431
10749TIP3    H232189   5.462   0.240   5.519
10750TIP3   OH232190   1.570   0.691   0.715
10750TIP3    H132191   1.592   0.747   0.790
10750TIP3    H232192   1.478   0.709   0.697
10751TIP3   OH232193   0.742   0.898   4.326
10751TIP3    H132194   0.724   0.966   4.261
10751TIP3    H232195   0.655   0.869   4.354
10752TIP3   OH232196   2.905   7.062   5.562
10752TIP3    H132197   2.997   7.050   5.536
10752TIP3    H232198   2.892   7.157   5.563
10753TIP3   OH232199   6.435   1.800   2.466
10753TIP3    H132200   6.475   1.759   2.389
10753TIP3    H232201   6.488   1.768   2.539
10754TIP3   OH232202   0.634   2.617   4.252
10754TIP3    H132203   0.641   2.532   4.295
10754TIP3    H232204   0.690   2.675   4.303
10755TIP3   OH232205   0.770   4.962   2.070
10755TIP3    H132206   0.732   5.035   2.022
10755TIP3    H232207   0.865   4.972   2.057
10756TIP3   OH232208   1.130   4.739   0.396
10756TIP3    H132209   1.051   4.688   0.383
10756TIP3    H232210   1.187   4.714   0.323
10757TIP3   OH232211   5.593   2.132   4.937
10757TIP3    H132212   5.608   2.223   4.911
10757TIP3    H232213   5.502   2.130   4.968
10758TIP3   OH232214   4.079   6.978   0.831
10758TIP3    H132215   4.012   6.999   0.766
10758TIP3    H232216   4.137   7.054   0.833
10759TIP3   OH232217   6.684   1.463   2.834
10759TIP3    H132218   6.607   1.454   2.890
10759TIP3    H232219   6.673   1.394   2.768
10760TIP3   OH232220   4.666   1.170   0.848
10760TIP3    H132221   4.647   1.091   0.798
10760TIP3    H232222   4.645   1.146   0.939
10761TIP3   OH232223   4.854   5.952   4.502
10761TIP3    H132224   4.865   5.879   4.562
10761TIP3    H232225   4.913   5.932   4.429
10762TIP3   OH232226   4.177   4.671   2.617
10762TIP3    H132227   4.241   4.734   2.650
10762TIP3    H232228   4.199   4.589   2.662
10763TIP3   OH232229   2.629   0.368   5.358
10763TIP3    H132230   2.567   0.435   5.330
10763TIP3    H232231   2.609   0.292   5.302
10764TIP3   OH232232   7.555   4.231   2.463
10764TIP3    H132233   7.504   4.312   2.465
10764TIP3    H232234   7.548   4.202   2.372
10765TIP3   OH232235   2.542   2.161   5.093
10765TIP3    H132236   2.612   2.190   5.151
10765TIP3    H232237   2.582   2.090   5.042
10766TIP3   OH232238   1.486   3.936   2.732
10766TIP3    H132239   1.574   3.966   2.708
10766TIP3    H232240   1.449   3.903   2.650
10767TIP3   OH232241   3.189   4.469   1.661
10767TIP3    H132242   3.215   4.533   1.595
10767TIP3    H232243   3.144   4.401   1.611
10768TIP3   OH232244   7.520   5.691   6.463
10768TIP3    H132245   7.477   5.613   6.428
10768TIP3    H232246   7.593   5.658   6.514
10769TIP3   OH232247   2.434   6.879   4.110
10769TIP3    H132248   2.499   6.813   4.134
10769TIP3    H232249   2.474   6.925   4.036
10770TIP3   OH232250   5.044   0.452   6.486
10770TIP3    H132251   5.032   0.470   6.392
10770TIP3    H232252   4.957   0.466   6.524
10771TIP3   OH232253   7.801   7.581   5.247
10771TIP3    H132254   7.761   7.561   5.163
10771TIP3    H232255   7.735   7.555   5.312
10772TIP3   OH232256   0.353   6.491   2.349
10772TIP3    H132257   0.446   6.509   2.361
10772TIP3    H232258   0.349   6.445   2.265
10773TIP3   OH232259   4.045   1.763   3.620
10773TIP3    H132260   4.125   1.711   3.612
10773TIP3    H232261   4.034   1.774   3.715
10774TIP3   OH232262   3.917   3.750   3.773
10774TIP3    H132263   3.974   3.692   3.824
10774TIP3    H232264   3.965   3.833   3.769
10775TIP3   OH232265   6.131   1.986   4.713
10775TIP3    H132266   6.081   1.907   4.694
10775TIP3    H232267   6.105   2.047   4.644
10776TIP3   OH232268   1.073   4.440   3.810
10776TIP3    H132269   1.138   4.384   3.854
10776TIP3    H232270   1.095   4.432   3.717
10777TIP3   OH232271   4.508   0.599   4.934
10777TIP3    H132272   4.505   0.516   4.888
10777TIP3    H232273   4.433   0.648   4.901
10778TIP3   OH232274   7.744   7.098   4.138
10778TIP3    H132275   7.682   7.154   4.092
10778TIP3    H232276   7.692   7.025   4.171
10779TIP3   OH232277   2.134   2.007   3.060
10779TIP3    H132278   2.149   1.972   2.972
10779TIP3    H232279   2.213   1.984   3.109
10780TIP3   OH232280   3.184   2.291   2.427
10780TIP3    H132281   3.167   2.315   2.518
10780TIP3    H232282   3.212   2.372   2.385
10781TIP3   OH232283   4.588   5.781   2.943
10781TIP3    H132284   4.577   5.875   2.937
10781TIP3    H232285   4.640   5.757   2.866
10782TIP3   OH232286   1.785   5.783   3.304
10782TIP3    H132287   1.725   5.833   3.250
10782TIP3    H232288   1.798   5.837   3.382
10783TIP3   OH232289   0.423   0.907   4.747
10783TIP3    H132290   0.433   0.849   4.822
10783TIP3    H232291   0.331   0.933   4.749
10784TIP3   OH232292   8.214   6.883   4.764
10784TIP3    H132293   8.138   6.869   4.820
10784TIP3    H232294   8.177   6.912   4.681
10785TIP3   OH232295   0.501   0.646   0.947
10785TIP3    H132296   0.556   0.618   0.873
10785TIP3    H232297   0.435   0.703   0.907
10786TIP3   OH232298   7.200   5.737   1.183
10786TIP3    H132299   7.149   5.690   1.250
10786TIP3    H232300   7.273   5.775   1.232
10787TIP3   OH232301   0.043   7.691   5.369
10787TIP3    H132302  -0.029   7.654   5.319
10787TIP3    H232303   0.097   7.616   5.393
10788TIP3   OH232304   1.246   6.062   2.029
10788TIP3    H132305   1.248   5.982   2.081
10788TIP3    H232306   1.315   6.117   2.066
10789TIP3   OH232307   2.512   0.612   6.426
10789TIP3    H132308   2.418   0.604   6.407
10789TIP3    H232309   2.537   0.698   6.392
10790TIP3   OH232310   7.794   0.514   1.552
10790TIP3    H132311   7.854   0.442   1.530
10790TIP3    H232312   7.783   0.561   1.469
10791TIP3   OH232313   1.961   7.769   4.800
10791TIP3    H132314   1.873   7.732   4.806
10791TIP3    H232315   2.018   7.693   4.786
10792TIP3   OH232316   3.551   3.965   0.353
10792TIP3    H132317   3.529   3.965   0.260
10792TIP3    H232318   3.599   4.047   0.367
10793TIP3   OH232319   3.971   0.932   4.030
10793TIP3    H132320   4.003   0.966   4.114
10793TIP3    H232321   3.908   0.997   4.000
10794TIP3   OH232322   3.478   5.394   5.550
10794TIP3    H132323   3.546   5.441   5.502
10794TIP3    H232324   3.433   5.461   5.601
10795TIP3   OH232325   0.380   3.094   3.022
10795TIP3    H132326   0.467   3.055   3.018
10795TIP3    H232327   0.333   3.055   2.948
10796TIP3   OH232328   6.722   3.571   3.019
10796TIP3    H132329   6.698   3.489   2.977
10796TIP3    H232330   6.805   3.595   2.979
10797TIP3   OH232331   4.329   5.771   6.495
10797TIP3    H132332   4.355   5.776   6.586
10797TIP3    H232333   4.233   5.765   6.497
10798TIP3   OH232334   7.663   6.337   2.668
10798TIP3    H132335   7.711   6.258   2.643
10798TIP3    H232336   7.731   6.401   2.690
10799TIP3   OH232337   4.995   3.077   5.909
10799TIP3    H132338   5.029   3.167   5.911
10799TIP3    H232339   5.052   3.029   5.969
10800TIP3   OH232340   7.024   3.654   4.337
10800TIP3    H132341   7.103   3.600   4.348
10800TIP3    H232342   6.998   3.677   4.426
10801TIP3   OH232343   1.726   4.751   2.997
10801TIP3    H132344   1.691   4.703   2.922
10801TIP3    H232345   1.821   4.743   2.988
10802TIP3   OH232346   2.704   3.880   6.038
10802TIP3    H132347   2.687   3.821   6.111
10802TIP3    H232348   2.786   3.924   6.062
10803TIP3   OH232349   5.164   5.330   3.875
10803TIP3    H132350   5.115   5.248   3.883
10803TIP3    H232351   5.161   5.369   3.963
10804TIP3   OH232352   4.025   6.863   5.743
10804TIP3    H132353   4.104   6.917   5.734
10804TIP3    H232354   4.030   6.800   5.671
10805TIP3   OH232355   0.798   0.812   1.515
10805TIP3    H132356   0.827   0.721   1.509
10805TIP3    H232357   0.705   0.807   1.532
10806TIP3   OH232358   1.329   7.774   5.191
10806TIP3    H132359   1.281   7.693   5.208
10806TIP3    H232360   1.328   7.783   5.096
10807TIP3   OH232361   2.897   0.206   4.893
10807TIP3    H132362   2.813   0.167   4.916
10807TIP3    H232363   2.926   0.250   4.973
10808TIP3   OH232364   7.251   1.066   0.185
10808TIP3    H132365   7.312   1.136   0.208
10808TIP3    H232366   7.233   1.080   0.092
10809TIP3   OH232367   4.279   7.628   3.591
10809TIP3    H132368   4.283   7.551   3.533
10809TIP3    H232369   4.274   7.702   3.531
10810TIP3   OH232370   2.797   4.628   2.794
10810TIP3    H132371   2.833   4.544   2.765
10810TIP3    H232372   2.761   4.667   2.714
10811TIP3   OH232373   8.316   4.006   2.484
10811TIP3    H132374   8.389   3.990   2.544
10811TIP3    H232375   8.278   3.920   2.469
10812TIP3   OH232376   4.175   7.373   2.463
10812TIP3    H132377   4.115   7.409   2.528
10812TIP3    H232378   4.118   7.331   2.399
10813TIP3   OH232379   2.291   6.043   5.998
10813TIP3    H132380   2.197   6.055   6.012
10813TIP3    H232381   2.332   6.105   6.058
10814TIP3   OH232382   2.513   7.726   4.905
10814TIP3    H132383   2.421   7.738   4.880
10814TIP3    H232384   2.562   7.746   4.826
10815TIP3   OH232385   5.997   7.335   2.342
10815TIP3    H132386   6.070   7.302   2.393
10815TIP3    H232387   6.033   7.349   2.254
10816TIP3   OH232388   7.461   4.683   0.481
10816TIP3    H132389   7.513   4.664   0.559
10816TIP3    H232390   7.499   4.626   0.413
10817TIP3   OH232391   3.839   5.983   4.406
10817TIP3    H132392   3.789   6.043   4.352
10817TIP3    H232393   3.928   6.018   4.406
10818TIP3   OH232394   4.954   2.191   6.286
10818TIP3    H132395   4.966   2.216   6.194
10818TIP3    H232396   5.026   2.131   6.305
10819TIP3   OH232397   6.983   5.383   3.014
10819TIP3    H132398   6.910   5.441   2.993
10819TIP3    H232399   6.997   5.395   3.108
10820TIP3   OH232400   0.210   1.706   0.036
10820TIP3    H132401   0.253   1.790   0.048
10820TIP3    H232402   0.136   1.724  -0.023
10821TIP3   OH232403   1.249   6.643   4.023
10821TIP3    H132404   1.214   6.725   3.988
10821TIP3    H232405   1.301   6.669   4.099
10822TIP3   OH232406   1.120   5.978   1.177
10822TIP3    H132407   1.081   6.043   1.119
10822TIP3    H232408   1.214   5.982   1.158
10823TIP3   OH232409   6.038   7.374   0.950
10823TIP3    H132410   5.969   7.439   0.964
10823TIP3    H232411   5.994   7.289   0.958
10824TIP3   OH232412   2.378   3.996   3.380
10824TIP3    H132413   2.344   4.068   3.433
10824TIP3    H232414   2.314   3.986   3.309
10825TIP3   OH232415   2.774   6.431   1.697
10825TIP3    H132416   2.795   6.385   1.615
10825TIP3    H232417   2.696   6.482   1.676
10826TIP3   OH232418   8.077   7.326   2.743
10826TIP3    H132419   8.143   7.256   2.745
10826TIP3    H232420   8.002   7.290   2.790
10827TIP3   OH232421   5.832   7.546   6.472
10827TIP3    H132422   5.754   7.584   6.431
10827TIP3    H232423   5.904   7.601   6.442
10828TIP3   OH232424   5.526   5.175   4.880
10828TIP3    H132425   5.509   5.118   4.955
10828TIP3    H232426   5.470   5.251   4.895
10829TIP3   OH232427   2.636   2.317   4.056
10829TIP3    H132428   2.562   2.295   3.999
10829TIP3    H232429   2.667   2.401   4.023
10830TIP3   OH232430   8.304   4.332   4.651
10830TIP3    H132431   8.376   4.275   4.623
10830TIP3    H232432   8.295   4.397   4.581
10831TIP3   OH232433   7.719   4.173   5.944
10831TIP3    H132434   7.738   4.079   5.936
10831TIP3    H232435   7.650   4.178   6.011
10832TIP3   OH232436   7.563   2.438   5.386
10832TIP3    H132437   7.588   2.431   5.294
10832TIP3    H232438   7.575   2.349   5.421
10833TIP3   OH232439   6.505   3.163   1.545
10833TIP3    H132440   6.447   3.125   1.611
10833TIP3    H232441   6.449   3.221   1.494
10834TIP3   OH232442   7.073   7.276   3.235
10834TIP3    H132443   7.053   7.366   3.259
10834TIP3    H232444   7.120   7.283   3.152
10835TIP3   OH232445   5.228   1.075   5.374
10835TIP3    H132446   5.317   1.089   5.404
10835TIP3    H232447   5.197   1.162   5.349
10836TIP3   OH232448   3.557   6.242   2.548
10836TIP3    H132449   3.553   6.262   2.641
10836TIP3    H232450   3.514   6.317   2.506
10837TIP3   OH232451   1.388   0.604   6.692
10837TIP3    H132452   1.464   0.582   6.638
10837TIP3    H232453   1.342   0.521   6.704
10838TIP3   OH232454   2.082   0.674   3.232
10838TIP3    H132455   2.128   0.593   3.257
10838TIP3    H232456   2.133   0.709   3.159
10839TIP3   OH232457   0.865   5.146   2.663
10839TIP3    H132458   0.813   5.117   2.737
10839TIP3    H232459   0.802   5.168   2.595
10840TIP3   OH232460   2.402   1.537   5.828
10840TIP3    H132461   2.441   1.537   5.741
10840TIP3    H232462   2.370   1.626   5.840
10841TIP3   OH232463   1.634   7.521   2.853
10841TIP3    H132464   1.639   7.430   2.883
10841TIP3    H232465   1.569   7.562   2.910
10842TIP3   OH232466   2.872   7.579   2.414
10842TIP3    H132467   2.886   7.671   2.393
10842TIP3    H232468   2.778   7.564   2.398
10843TIP3   OH232469   5.982   2.345   3.900
10843TIP3    H132470   6.060   2.399   3.910
10843TIP3    H232471   5.945   2.371   3.816
10844TIP3   OH232472   8.378   7.401   6.484
10844TIP3    H132473   8.296   7.358   6.509
10844TIP3    H232474   8.397   7.368   6.396
10845TIP3   OH232475   6.485   3.058   5.710
10845TIP3    H132476   6.397   3.070   5.674
10845TIP3    H232477   6.543   3.084   5.639
10846TIP3   OH232478   5.836   2.721   6.439
10846TIP3    H132479   5.776   2.756   6.373
10846TIP3    H232480   5.785   2.722   6.520
10847TIP3   OH232481   3.353   2.218   0.417
10847TIP3    H132482   3.319   2.295   0.463
10847TIP3    H232483   3.390   2.164   0.486
10848TIP3   OH232484   2.401   5.974   3.943
10848TIP3    H132485   2.463   5.901   3.947
10848TIP3    H232486   2.322   5.936   3.905
10849TIP3   OH232487   6.312   0.693   2.543
10849TIP3    H132488   6.392   0.652   2.509
10849TIP3    H232489   6.343   0.747   2.615
10850TIP3   OH232490   1.726   1.106   3.791
10850TIP3    H132491   1.645   1.133   3.835
10850TIP3    H232492   1.725   1.155   3.708
10851TIP3   OH232493   7.530   4.471   2.774
10851TIP3    H132494   7.478   4.546   2.744
10851TIP3    H232495   7.557   4.496   2.863
10852TIP3   OH232496   5.064   0.584   3.393
10852TIP3    H132497   5.073   0.509   3.452
10852TIP3    H232498   5.012   0.647   3.441
10853TIP3   OH232499   1.380   3.203   6.847
10853TIP3    H132500   1.476   3.207   6.849
10853TIP3    H232501   1.361   3.113   6.821
10854TIP3   OH232502   7.715   6.119   1.003
10854TIP3    H132503   7.741   6.042   1.053
10854TIP3    H232504   7.776   6.187   1.031
10855TIP3   OH232505   3.698   6.830   3.705
10855TIP3    H132506   3.676   6.804   3.794
10855TIP3    H232507   3.735   6.750   3.666
10856TIP3   OH232508   1.142   5.512   4.000
10856TIP3    H132509   1.118   5.551   3.916
10856TIP3    H232510   1.230   5.478   3.986
10857TIP3   OH232511   4.173   7.505   5.946
10857TIP3    H132512   4.260   7.466   5.943
10857TIP3    H232513   4.115   7.432   5.971
10858TIP3   OH232514   1.044   1.700   2.549
10858TIP3    H132515   1.016   1.710   2.640
10858TIP3    H232516   1.133   1.737   2.547
10859TIP3   OH232517   7.829   1.207   0.022
10859TIP3    H132518   7.805   1.299   0.015
10859TIP3    H232519   7.757   1.159  -0.019
10860TIP3   OH232520   1.660   5.767   0.383
10860TIP3    H132521   1.648   5.862   0.389
10860TIP3    H232522   1.680   5.751   0.291
10861TIP3   OH232523   4.580   0.065   5.094
10861TIP3    H132524   4.569   0.069   5.189
10861TIP3    H232525   4.544   0.148   5.062
10862TIP3   OH232526   1.322   0.642   5.523
10862TIP3    H132527   1.243   0.602   5.558
10862TIP3    H232528   1.387   0.572   5.522
10863TIP3   OH232529   3.066   2.938   3.577
10863TIP3    H132530   2.997   2.975   3.523
10863TIP3    H232531   3.144   2.989   3.555
10864TIP3   OH232532   4.117   1.385   0.841
10864TIP3    H132533   4.163   1.323   0.897
10864TIP3    H232534   4.173   1.463   0.840
10865TIP3   OH232535   0.163   1.687   5.836
10865TIP3    H132536   0.127   1.741   5.766
10865TIP3    H232537   0.125   1.600   5.820
10866TIP3   OH232538   6.744   1.619   0.034
10866TIP3    H132539   6.651   1.596   0.024
10866TIP3    H232540   6.754   1.638   0.127
10867TIP3   OH232541   7.090   5.791   2.913
10867TIP3    H132542   7.047   5.860   2.863
10867TIP3    H232543   7.086   5.714   2.856
10868TIP3   OH232544   2.103   0.844   4.034
10868TIP3    H132545   2.054   0.781   3.981
10868TIP3    H232546   2.057   0.927   4.021
10869TIP3   OH232547   1.265   6.069   2.924
10869TIP3    H132548   1.270   6.032   3.012
10869TIP3    H232549   1.295   6.160   2.935
10870TIP3   OH232550   3.716   6.456   6.746
10870TIP3    H132551   3.624   6.451   6.721
10870TIP3    H232552   3.718   6.518   6.819
10871TIP3   OH232553   6.884   2.463   3.619
10871TIP3    H132554   6.858   2.553   3.638
10871TIP3    H232555   6.843   2.411   3.688
10872TIP3   OH232556   2.112   5.696   4.528
10872TIP3    H132557   2.202   5.708   4.498
10872TIP3    H232558   2.058   5.710   4.450
10873TIP3   OH232559   7.159   3.679   0.763
10873TIP3    H132560   7.125   3.698   0.675
10873TIP3    H232561   7.138   3.757   0.814
10874TIP3   OH232562   1.535   7.195   1.359
10874TIP3    H132563   1.443   7.203   1.333
10874TIP3    H232564   1.551   7.272   1.413
10875TIP3   OH232565   5.255   2.589   4.338
10875TIP3    H132566   5.211   2.669   4.308
10875TIP3    H232567   5.275   2.606   4.430
10876TIP3   OH232568   7.263   6.287   3.686
10876TIP3    H132569   7.342   6.332   3.656
10876TIP3    H232570   7.266   6.202   3.642
10877TIP3   OH232571   2.959   0.491   3.841
10877TIP3    H132572   2.918   0.519   3.760
10877TIP3    H232573   3.049   0.468   3.816
10878TIP3   OH232574   7.143   2.172   4.996
10878TIP3    H132575   7.099   2.162   5.080
10878TIP3    H232576   7.185   2.087   4.980
10879TIP3   OH232577   1.730   4.771   5.388
10879TIP3    H132578   1.810   4.721   5.407
10879TIP3    H232579   1.734   4.790   5.295
10880TIP3   OH232580   5.504   7.911   0.876
10880TIP3    H132581   5.595   7.899   0.850
10880TIP3    H232582   5.471   7.822   0.889
10881TIP3   OH232583   6.406   5.962   4.672
10881TIP3    H132584   6.344   5.926   4.735
10881TIP3    H232585   6.492   5.945   4.710
10882TIP3   OH232586   3.355   3.604   0.860
10882TIP3    H132587   3.409   3.547   0.805
10882TIP3    H232588   3.411   3.629   0.932
10883TIP3   OH232589   5.265   3.256   6.673
10883TIP3    H132590   5.289   3.272   6.765
10883TIP3    H232591   5.177   3.218   6.678
10884TIP3   OH232592   6.319   5.918   3.937
10884TIP3    H132593   6.320   5.925   4.033
10884TIP3    H232594   6.276   5.998   3.908
10885TIP3   OH232595   2.328   5.158   1.656
10885TIP3    H132596   2.329   5.186   1.748
10885TIP3    H232597   2.267   5.085   1.654
10886TIP3   OH232598   1.891   7.407   0.871
10886TIP3    H132599   1.798   7.406   0.894
10886TIP3    H232600   1.921   7.494   0.900
10887TIP3   OH232601   6.742   7.292   5.845
10887TIP3    H132602   6.677   7.222   5.842
10887TIP3    H232603   6.771   7.301   5.754
10888TIP3   OH232604   8.209   0.502   5.013
10888TIP3    H132605   8.180   0.521   5.103
10888TIP3    H232606   8.153   0.557   4.958
10889TIP3   OH232607   0.492   3.500   5.989
10889TIP3    H132608   0.452   3.414   5.976
10889TIP3    H232609   0.579   3.481   6.024
10890TIP3   OH232610   6.247   1.585   2.025
10890TIP3    H132611   6.332   1.609   2.063
10890TIP3    H232612   6.250   1.489   2.020
10891TIP3   OH232613   1.196   7.728   4.598
10891TIP3    H132614   1.257   7.800   4.615
10891TIP3    H232615   1.133   7.763   4.536
10892TIP3   OH232616   3.827   1.801   1.673
10892TIP3    H132617   3.821   1.849   1.755
10892TIP3    H232618   3.747   1.824   1.626
10893TIP3   OH232619   4.046   4.862   5.892
10893TIP3    H132620   4.069   4.916   5.816
10893TIP3    H232621   3.950   4.858   5.889
10894TIP3   OH232622   3.933   4.725   6.520
10894TIP3    H132623   4.004   4.662   6.509
10894TIP3    H232624   3.961   4.802   6.469
10895TIP3   OH232625   0.113   6.253   1.329
10895TIP3    H132626   0.090   6.264   1.237
10895TIP3    H232627   0.209   6.259   1.330
10896TIP3   OH232628   2.503   7.517   6.641
10896TIP3    H132629   2.415   7.556   6.637
10896TIP3    H232630   2.517   7.482   6.553
10897TIP3   OH232631   6.792   4.963   2.171
10897TIP3    H132632   6.848   4.889   2.145
10897TIP3    H232633   6.843   5.008   2.238
10898TIP3   OH232634   6.393   4.955   5.276
10898TIP3    H132635   6.474   4.980   5.232
10898TIP3    H232636   6.417   4.950   5.369
10899TIP3   OH232637   1.821   7.090   3.936
10899TIP3    H132638   1.917   7.094   3.936
10899TIP3    H232639   1.801   6.997   3.920
10900TIP3   OH232640   2.199   4.881   5.183
10900TIP3    H132641   2.231   4.825   5.113
10900TIP3    H232642   2.155   4.822   5.244
10901TIP3   OH232643   1.765   7.075   3.155
10901TIP3    H132644   1.734   7.117   3.235
10901TIP3    H232645   1.852   7.041   3.178
10902TIP3   OH232646   4.716   0.148   6.004
10902TIP3    H132647   4.660   0.089   6.054
10902TIP3    H232648   4.739   0.099   5.926
10903TIP3   OH232649   0.565   3.665   6.650
10903TIP3    H132650   0.483   3.710   6.630
10903TIP3    H232651   0.619   3.732   6.692
10904TIP3   OH232652   3.297   4.788   1.781
10904TIP3    H132653   3.365   4.764   1.718
10904TIP3    H232654   3.266   4.874   1.752
10905TIP3   OH232655   2.130   0.642   5.954
10905TIP3    H132656   2.178   0.616   5.876
10905TIP3    H232657   2.193   0.635   6.025
10906TIP3   OH232658   4.189   3.961   2.209
10906TIP3    H132659   4.175   4.041   2.259
10906TIP3    H232660   4.105   3.945   2.165
10907TIP3   OH232661   6.348   4.082   5.341
10907TIP3    H132662   6.276   4.066   5.281
10907TIP3    H232663   6.327   4.165   5.383
10908TIP3   OH232664   4.985   5.603   1.071
10908TIP3    H132665   4.964   5.691   1.101
10908TIP3    H232666   4.937   5.593   0.989
10909TIP3   OH232667   4.757   7.896   5.749
10909TIP3    H132668   4.765   7.902   5.844
10909TIP3    H232669   4.847   7.901   5.717
10910TIP3   OH232670   0.980   7.541   5.909
10910TIP3    H132671   0.904   7.529   5.966
10910TIP3    H232672   1.030   7.612   5.949
10911TIP3   OH232673   0.634   1.301   2.204
10911TIP3    H132674   0.641   1.279   2.111
10911TIP3    H232675   0.568   1.370   2.209
10912TIP3   OH232676   3.160   2.716   6.454
10912TIP3    H132677   3.218   2.663   6.400
10912TIP3    H232678   3.207   2.726   6.537
10913TIP3   OH232679   4.910   2.068   6.585
10913TIP3    H132680   4.982   2.101   6.530
10913TIP3    H232681   4.924   2.109   6.670
10914TIP3   OH232682   4.325   0.479   2.810
10914TIP3    H132683   4.301   0.397   2.767
10914TIP3    H232684   4.417   0.466   2.834
10915TIP3   OH232685   7.702   4.537   1.002
10915TIP3    H132686   7.680   4.616   1.051
10915TIP3    H232687   7.628   4.478   1.015
10916TIP3   OH232688   2.964   2.336   4.569
10916TIP3    H132689   2.968   2.391   4.491
10916TIP3    H232690   2.871   2.330   4.590
10917TIP3   OH232691   6.815   3.629   1.435
10917TIP3    H132692   6.909   3.609   1.444
10917TIP3    H232693   6.771   3.547   1.458
10918TIP3   OH232694   6.034   5.924   5.178
10918TIP3    H132695   5.998   5.961   5.259
10918TIP3    H232696   5.958   5.888   5.133
10919TIP3   OH232697   1.916   0.539   1.017
10919TIP3    H132698   1.996   0.491   0.997
10919TIP3    H232699   1.845   0.478   0.996
10920TIP3   OH232700   7.898   0.784   0.356
10920TIP3    H132701   7.926   0.703   0.398
10920TIP3    H232702   7.839   0.755   0.286
10921TIP3   OH232703   4.290   5.605   1.452
10921TIP3    H132704   4.305   5.660   1.529
10921TIP3    H232705   4.247   5.663   1.389
10922TIP3   OH232706   0.354   3.234   4.676
10922TIP3    H132707   0.401   3.186   4.745
10922TIP3    H232708   0.370   3.326   4.695
10923TIP3   OH232709   8.101   7.105   5.277
10923TIP3    H132710   8.098   7.165   5.202
10923TIP3    H232711   8.043   7.145   5.342
10924TIP3   OH232712   4.145   2.415   0.526
10924TIP3    H132713   4.161   2.335   0.576
10924TIP3    H232714   4.180   2.397   0.439
10925TIP3   OH232715   2.378   7.152   1.724
10925TIP3    H132716   2.444   7.128   1.659
10925TIP3    H232717   2.339   7.068   1.751
10926TIP3   OH232718   5.500   6.701   4.453
10926TIP3    H132719   5.426   6.674   4.399
10926TIP3    H232720   5.506   6.633   4.521
10927TIP3   OH232721   3.885   5.036   2.437
10927TIP3    H132722   3.883   5.061   2.529
10927TIP3    H232723   3.902   5.118   2.390
10928TIP3   OH232724   3.711   2.262   5.369
10928TIP3    H132725   3.636   2.270   5.428
10928TIP3    H232726   3.675   2.224   5.289
10929TIP3   OH232727   1.594   0.584   6.509
10929TIP3    H132728   1.674   0.636   6.508
10929TIP3    H232729   1.624   0.495   6.530
10930TIP3   OH232730   0.214   2.424   5.299
10930TIP3    H132731   0.242   2.416   5.208
10930TIP3    H232732   0.143   2.360   5.307
10931TIP3   OH232733   7.294   5.547   2.884
10931TIP3    H132734   7.264   5.625   2.931
10931TIP3    H232735   7.261   5.474   2.937
10932TIP3   OH232736   8.386   4.212   1.971
10932TIP3    H132737   8.466   4.160   1.966
10932TIP3    H232738   8.347   4.205   1.884
10933TIP3   OH232739   5.139   4.138   0.754
10933TIP3    H132740   5.191   4.059   0.736
10933TIP3    H232741   5.094   4.118   0.836
10934TIP3   OH232742   2.831   4.406   4.863
10934TIP3    H132743   2.908   4.456   4.890
10934TIP3    H232744   2.859   4.314   4.871
10935TIP3   OH232745   3.293   4.023   5.242
10935TIP3    H132746   3.290   3.981   5.155
10935TIP3    H232747   3.281   3.950   5.303
10936TIP3   OH232748   1.206   3.963   6.211
10936TIP3    H132749   1.298   3.953   6.236
10936TIP3    H232750   1.209   4.015   6.131
10937TIP3   OH232751   6.481   5.280   4.010
10937TIP3    H132752   6.541   5.346   4.044
10937TIP3    H232753   6.398   5.298   4.056
10938TIP3   OH232754   5.918   4.510   1.947
10938TIP3    H132755   6.005   4.488   1.912
10938TIP3    H232756   5.937   4.568   2.021
10939TIP3   OH232757   7.381   6.277   1.216
10939TIP3    H132758   7.326   6.227   1.155
10939TIP3    H232759   7.318   6.322   1.273
10940TIP3   OH232760   3.121   5.162   0.866
10940TIP3    H132761   3.197   5.205   0.827
10940TIP3    H232762   3.158   5.101   0.930
10941TIP3   OH232763   1.354   1.755   1.697
10941TIP3    H132764   1.394   1.832   1.657
10941TIP3    H232765   1.297   1.719   1.629
10942TIP3   OH232766   1.767   2.063   0.332
10942TIP3    H132767   1.730   2.020   0.409
10942TIP3    H232768   1.731   2.014   0.258
10943TIP3   OH232769   4.988   5.854   6.797
10943TIP3    H132770   5.081   5.871   6.809
10943TIP3    H232771   4.977   5.846   6.702
10944TIP3   OH232772   0.419   7.261   2.956
10944TIP3    H132773   0.450   7.332   2.899
10944TIP3    H232774   0.343   7.224   2.910
10945TIP3   OH232775   6.201   0.216   3.604
10945TIP3    H132776   6.195   0.302   3.646
10945TIP3    H232777   6.293   0.192   3.612
10946TIP3   OH232778   5.491   0.424   5.168
10946TIP3    H132779   5.475   0.501   5.115
10946TIP3    H232780   5.428   0.430   5.239
10947TIP3   OH232781   2.621   0.073   4.991
10947TIP3    H132782   2.648  -0.018   4.996
10947TIP3    H232783   2.554   0.083   5.058
10948TIP3   OH232784   0.850   7.659   2.611
10948TIP3    H132785   0.830   7.568   2.631
10948TIP3    H232786   0.937   7.673   2.648
10949TIP3   OH232787   0.031   0.236   3.613
10949TIP3    H132788  -0.051   0.202   3.576
10949TIP3    H232789   0.098   0.212   3.548
10950TIP3   OH232790   7.748   5.695   3.738
10950TIP3    H132791   7.815   5.746   3.692
10950TIP3    H232792   7.757   5.720   3.830
10951TIP3   OH232793   4.493   5.714   4.343
10951TIP3    H132794   4.506   5.714   4.438
10951TIP3    H232795   4.418   5.657   4.329
10952TIP3   OH232796   7.102   7.136   2.848
10952TIP3    H132797   7.175   7.177   2.801
10952TIP3    H232798   7.062   7.207   2.898
10953TIP3   OH232799   1.920   4.362   0.799
10953TIP3    H132800   1.904   4.436   0.741
10953TIP3    H232801   1.847   4.302   0.784
10954TIP3   OH232802   4.450   2.939   3.897
10954TIP3    H132803   4.381   3.003   3.914
10954TIP3    H232804   4.406   2.854   3.904
10955TIP3   OH232805   6.420   3.439   2.879
10955TIP3    H132806   6.429   3.420   2.786
10955TIP3    H232807   6.336   3.484   2.887
10956TIP3   OH232808   2.667   4.520   1.951
10956TIP3    H132809   2.632   4.604   1.980
10956TIP3    H232810   2.761   4.536   1.940
10957TIP3   OH232811   7.507   6.874   2.595
10957TIP3    H132812   7.435   6.814   2.616
10957TIP3    H232813   7.574   6.817   2.557
10958TIP3   OH232814   2.605   2.961   0.613
10958TIP3    H132815   2.557   2.944   0.532
10958TIP3    H232816   2.605   2.877   0.659
10959TIP3   OH232817   7.824   3.844   3.140
10959TIP3    H132818   7.903   3.880   3.179
10959TIP3    H232819   7.855   3.771   3.086
10960TIP3   OH232820   8.277   2.842   1.322
10960TIP3    H132821   8.353   2.834   1.379
10960TIP3    H232822   8.302   2.911   1.260
10961TIP3   OH232823   6.704   6.651   6.814
10961TIP3    H132824   6.736   6.718   6.753
10961TIP3    H232825   6.621   6.687   6.846
10962TIP3   OH232826   8.109   7.563   2.196
10962TIP3    H132827   8.194   7.569   2.151
10962TIP3    H232828   8.045   7.590   2.131
10963TIP3   OH232829   7.691   5.425   3.995
10963TIP3    H132830   7.611   5.425   4.047
10963TIP3    H232831   7.756   5.384   4.052
10964TIP3   OH232832   4.628   2.826   3.152
10964TIP3    H132833   4.611   2.902   3.208
10964TIP3    H232834   4.541   2.785   3.141
10965TIP3   OH232835   8.084   2.431   3.720
10965TIP3    H132836   8.021   2.466   3.656
10965TIP3    H232837   8.114   2.349   3.680
10966TIP3   OH232838   2.825   4.357   3.145
10966TIP3    H132839   2.806   4.411   3.068
10966TIP3    H232840   2.919   4.369   3.161
10967TIP3   OH232841   0.549   5.990   3.352
10967TIP3    H132842   0.582   6.076   3.325
10967TIP3    H232843   0.490   5.964   3.281
10968TIP3   OH232844   4.280   5.699   5.658
10968TIP3    H132845   4.280   5.613   5.616
10968TIP3    H232846   4.334   5.686   5.737
10969TIP3   OH232847   6.848   4.208   1.223
10969TIP3    H132848   6.800   4.156   1.159
10969TIP3    H232849   6.849   4.153   1.302
10970TIP3   OH232850   2.847   3.328   0.320
10970TIP3    H132851   2.851   3.411   0.368
10970TIP3    H232852   2.921   3.278   0.353
10971TIP3   OH232853   7.863   6.247   3.257
10971TIP3    H132854   7.839   6.321   3.201
10971TIP3    H232855   7.947   6.217   3.222
10972TIP3   OH232856   6.100   5.501   6.126
10972TIP3    H132857   6.173   5.494   6.188
10972TIP3    H232858   6.142   5.512   6.041
10973TIP3   OH232859   5.934   6.691   1.441
10973TIP3    H132860   5.979   6.614   1.407
10973TIP3    H232861   5.938   6.754   1.369
10974TIP3   OH232862   5.715   7.553   5.125
10974TIP3    H132863   5.659   7.629   5.112
10974TIP3    H232864   5.660   7.478   5.100
10975TIP3   OH232865   7.106   6.959   4.592
10975TIP3    H132866   7.169   6.995   4.528
10975TIP3    H232867   7.160   6.930   4.665
10976TIP3   OH232868   3.319   5.847   1.319
10976TIP3    H132869   3.361   5.925   1.282
10976TIP3    H232870   3.371   5.774   1.286
10977TIP3   OH232871   3.980   1.567   3.053
10977TIP3    H132872   3.913   1.621   3.011
10977TIP3    H232873   4.057   1.623   3.057
10978TIP3   OH232874   5.913   2.906   2.174
10978TIP3    H132875   5.944   2.817   2.190
10978TIP3    H232876   5.859   2.899   2.095
10979TIP3   OH232877   0.779   6.834   4.510
10979TIP3    H132878   0.726   6.824   4.590
10979TIP3    H232879   0.773   6.748   4.468
10980TIP3   OH232880   6.439   2.491   1.788
10980TIP3    H132881   6.493   2.569   1.799
10980TIP3    H232882   6.371   2.499   1.855
10981TIP3   OH232883   1.388   7.378   2.680
10981TIP3    H132884   1.418   7.307   2.737
10981TIP3    H232885   1.383   7.454   2.739
10982TIP3   OH232886   6.439   5.008   4.393
10982TIP3    H132887   6.347   5.034   4.406
10982TIP3    H232888   6.486   5.049   4.465
10983TIP3   OH232889   7.976   2.306   6.406
10983TIP3    H132890   8.043   2.335   6.468
10983TIP3    H232891   8.000   2.347   6.323
10984TIP3   OH232892   5.657   5.529   0.054
10984TIP3    H132893   5.672   5.475   0.132
10984TIP3    H232894   5.669   5.619   0.084
10985TIP3   OH232895   6.913   6.908   5.781
10985TIP3    H132896   6.953   6.836   5.731
10985TIP3    H232897   6.890   6.869   5.865
10986TIP3   OH232898   0.809   6.595   3.299
10986TIP3    H132899   0.794   6.646   3.378
10986TIP3    H232900   0.904   6.583   3.296
10987TIP3   OH232901   2.357   3.321   0.946
10987TIP3    H132902   2.387   3.238   0.908
10987TIP3    H232903   2.362   3.307   1.040
10988TIP3   OH232904   1.721   6.214   5.089
10988TIP3    H132905   1.811   6.241   5.070
10988TIP3    H232906   1.667   6.275   5.040
10989TIP3   OH232907   4.687   5.106   1.011
10989TIP3    H132908   4.771   5.143   0.986
10989TIP3    H232909   4.641   5.092   0.928
10990TIP3   OH232910   7.921   3.903   6.658
10990TIP3    H132911   7.937   3.925   6.566
10990TIP3    H232912   7.830   3.876   6.661
10991TIP3   OH232913   4.322   1.206   1.416
10991TIP3    H132914   4.329   1.243   1.328
10991TIP3    H232915   4.402   1.234   1.460
10992TIP3   OH232916   6.308   2.483   6.306
10992TIP3    H132917   6.253   2.546   6.352
10992TIP3    H232918   6.387   2.533   6.285
10993TIP3   OH232919   5.694   7.330   4.422
10993TIP3    H132920   5.776   7.356   4.380
10993TIP3    H232921   5.672   7.246   4.381
10994TIP3   OH232922   1.334   3.398   0.262
10994TIP3    H132923   1.323   3.371   0.353
10994TIP3    H232924   1.257   3.363   0.217
10995TIP3   OH232925   1.006   6.030   3.197
10995TIP3    H132926   1.098   6.053   3.183
10995TIP3    H232927   1.003   5.935   3.184
10996TIP3   OH232928   1.496   4.300   3.876
10996TIP3    H132929   1.517   4.359   3.948
10996TIP3    H232930   1.566   4.314   3.812
10997TIP3   OH232931   7.872   1.308   4.705
10997TIP3    H132932   7.817   1.300   4.783
10997TIP3    H232933   7.944   1.364   4.732
10998TIP3   OH232934   0.529   0.051   1.821
10998TIP3    H132935   0.552  -0.008   1.893
10998TIP3    H232936   0.445   0.018   1.789
10999TIP3   OH232937   4.917   7.048   2.558
10999TIP3    H132938   4.836   7.051   2.608
10999TIP3    H232939   4.936   6.955   2.547
11000TIP3   OH232940   3.850   4.409   3.941
11000TIP3    H132941   3.871   4.393   3.849
11000TIP3    H232942   3.935   4.422   3.983
11001TIP3   OH232943   1.637   3.459   5.364
11001TIP3    H132944   1.544   3.436   5.358
11001TIP3    H232945   1.678   3.410   5.292
11002TIP3   OH232946   1.024   7.719   0.787
11002TIP3    H132947   1.051   7.803   0.826
11002TIP3    H232948   0.970   7.744   0.712
11003TIP3   OH232949   3.900   7.332   1.742
11003TIP3    H132950   3.924   7.421   1.767
11003TIP3    H232951   3.969   7.277   1.779
11004TIP3   OH232952   4.833   4.239   5.528
11004TIP3    H132953   4.856   4.308   5.466
11004TIP3    H232954   4.917   4.198   5.550
11005TIP3   OH232955   8.360   3.479   3.577
11005TIP3    H132956   8.311   3.546   3.529
11005TIP3    H232957   8.363   3.404   3.517
11006TIP3   OH232958   2.570   3.386   4.791
11006TIP3    H132959   2.585   3.451   4.859
11006TIP3    H232960   2.649   3.390   4.736
11007TIP3   OH232961   3.235   4.145   2.223
11007TIP3    H132962   3.294   4.111   2.290
11007TIP3    H232963   3.261   4.100   2.143
11008TIP3   OH232964   0.328   3.131   3.281
11008TIP3    H132965   0.315   3.122   3.187
11008TIP3    H232966   0.405   3.078   3.300
11009TIP3   OH232967   0.727   7.881   0.042
11009TIP3    H132968   0.738   7.824  -0.034
11009TIP3    H232969   0.650   7.846   0.087
11010TIP3   OH232970   0.648   5.461   5.358
11010TIP3    H132971   0.665   5.402   5.285
11010TIP3    H232972   0.722   5.522   5.358
11011TIP3   OH232973   1.476   0.272   0.792
11011TIP3    H132974   1.456   0.234   0.706
11011TIP3    H232975   1.423   0.221   0.853
11012TIP3   OH232976   1.295   3.687   3.789
11012TIP3    H132977   1.226   3.623   3.773
11012TIP3    H232978   1.258   3.746   3.855
11013TIP3   OH232979   2.725   7.564   4.150
11013TIP3    H132980   2.745   7.471   4.147
11013TIP3    H232981   2.729   7.592   4.058
11014TIP3   OH232982   2.449   4.277   1.533
11014TIP3    H132983   2.358   4.305   1.547
11014TIP3    H232984   2.500   4.357   1.545
11015TIP3   OH232985   5.544   0.013   6.104
11015TIP3    H132986   5.492  -0.054   6.149
11015TIP3    H232987   5.520   0.094   6.148
11016TIP3   OH232988   4.569   1.064   0.255
11016TIP3    H132989   4.536   1.120   0.184
11016TIP3    H232990   4.578   0.978   0.215
11017TIP3   OH232991   1.640   0.476   0.420
11017TIP3    H132992   1.721   0.439   0.457
11017TIP3    H232993   1.631   0.561   0.464
11018TIP3   OH232994   5.422   3.787   4.732
11018TIP3    H132995   5.493   3.788   4.668
11018TIP3    H232996   5.375   3.870   4.716
11019TIP3   OH232997   7.412   5.840   1.316
11019TIP3    H132998   7.476   5.776   1.346
11019TIP3    H232999   7.465   5.915   1.286
11020TIP3   OH233000   8.133   5.462   6.215
11020TIP3    H133001   8.040   5.475   6.235
11020TIP3    H233002   8.155   5.380   6.260
11021TIP3   OH233003   2.516   4.808   1.199
11021TIP3    H133004   2.588   4.789   1.260
11021TIP3    H233005   2.555   4.800   1.112
11022TIP3   OH233006   4.985   7.690   1.140
11022TIP3    H133007   5.034   7.612   1.167
11022TIP3    H233008   4.915   7.698   1.205
11023TIP3   OH233009   3.502   7.326   0.850
11023TIP3    H133010   3.413   7.356   0.866
11023TIP3    H233011   3.529   7.370   0.770
11024TIP3   OH233012   7.306   6.694   3.500
11024TIP3    H133013   7.313   6.787   3.478
11024TIP3    H233014   7.379   6.653   3.453
11025TIP3   OH233015   5.399   2.020   0.706
11025TIP3    H133016   5.475   2.011   0.764
11025TIP3    H233017   5.379   1.930   0.679
11026TIP3   OH233018   1.811   3.052   3.819
11026TIP3    H133019   1.754   3.129   3.821
11026TIP3    H233020   1.779   3.002   3.743
11027TIP3   OH233021   1.407   4.865   1.793
11027TIP3    H133022   1.470   4.928   1.758
11027TIP3    H233023   1.401   4.887   1.886
11028TIP3   OH233024   2.364   5.972   4.621
11028TIP3    H133025   2.391   5.889   4.582
11028TIP3    H233026   2.441   6.029   4.611
11029TIP3   OH233027   1.772   4.054   4.812
11029TIP3    H133028   1.819   4.000   4.876
11029TIP3    H233029   1.837   4.074   4.745
11030TIP3   OH233030   5.407   5.792   5.295
11030TIP3    H133031   5.430   5.709   5.335
11030TIP3    H233032   5.325   5.818   5.338
11031TIP3   OH233033   7.442   2.449   2.874
11031TIP3    H133034   7.491   2.415   2.949
11031TIP3    H233035   7.409   2.372   2.830
11032TIP3   OH233036   3.964   6.756   6.736
11032TIP3    H133037   4.050   6.795   6.752
11032TIP3    H233038   3.907   6.831   6.716
11033TIP3   OH233039   6.770   0.954   6.017
11033TIP3    H133040   6.765   1.047   6.042
11033TIP3    H233041   6.780   0.956   5.922
11034TIP3   OH233042   3.400   0.775   1.493
11034TIP3    H133043   3.444   0.708   1.545
11034TIP3    H233044   3.415   0.856   1.541
11035TIP3   OH233045   3.549   0.391   4.275
11035TIP3    H133046   3.638   0.389   4.309
11035TIP3    H233047   3.499   0.338   4.337
11036TIP3   OH233048   4.456   0.139   0.223
11036TIP3    H133049   4.390   0.082   0.260
11036TIP3    H233050   4.407   0.209   0.180
11037TIP3   OH233051   4.252   3.925   3.940
11037TIP3    H133052   4.175   3.964   3.980
11037TIP3    H233053   4.280   3.989   3.874
11038TIP3   OH233054   2.105   7.154   6.111
11038TIP3    H133055   2.094   7.085   6.177
11038TIP3    H233056   2.123   7.107   6.030
11039TIP3   OH233057   4.361   6.942   3.305
11039TIP3    H133058   4.401   6.856   3.288
11039TIP3    H233059   4.400   6.999   3.239
11040TIP3   OH233060   1.810   2.984   5.274
11040TIP3    H133061   1.873   3.032   5.220
11040TIP3    H233062   1.861   2.916   5.317
11041TIP3   OH233063   1.378   3.384   6.107
11041TIP3    H133064   1.382   3.289   6.110
11041TIP3    H233065   1.315   3.404   6.038
11042TIP3   OH233066   0.700   2.875   2.751
11042TIP3    H133067   0.697   2.847   2.660
11042TIP3    H233068   0.633   2.943   2.757
11043TIP3   OH233069   7.126   3.689   3.076
11043TIP3    H133070   7.170   3.691   2.992
11043TIP3    H233071   7.045   3.738   3.062
11044TIP3   OH233072   1.586   5.235   2.247
11044TIP3    H133073   1.501   5.270   2.275
11044TIP3    H233074   1.614   5.180   2.320
11045TIP3   OH233075   8.008   1.900   3.088
11045TIP3    H133076   7.980   1.876   3.177
11045TIP3    H233077   7.926   1.912   3.040
11046TIP3   OH233078   5.107   1.744   0.341
11046TIP3    H133079   5.099   1.726   0.248
11046TIP3    H233080   5.112   1.658   0.382
11047TIP3   OH233081   4.925   5.715   6.577
11047TIP3    H133082   4.851   5.673   6.533
11047TIP3    H233083   4.988   5.644   6.591
11048TIP3   OH233084   3.622   0.476   4.647
11048TIP3    H133085   3.561   0.547   4.626
11048TIP3    H233086   3.585   0.399   4.604
11049TIP3   OH233087   1.870   2.547   5.750
11049TIP3    H133088   1.948   2.511   5.709
11049TIP3    H233089   1.897   2.633   5.783
11050TIP3   OH233090   5.458   2.273   0.608
11050TIP3    H133091   5.457   2.196   0.664
11050TIP3    H233092   5.379   2.322   0.631
11051TIP3   OH233093   6.471   2.900   0.385
11051TIP3    H133094   6.505   2.817   0.353
11051TIP3    H233095   6.396   2.876   0.440
11052TIP3   OH233096   4.952   0.240   5.147
11052TIP3    H133097   5.044   0.256   5.125
11052TIP3    H233098   4.908   0.323   5.132
11053TIP3   OH233099   8.408   5.352   1.609
11053TIP3    H133100   8.314   5.368   1.607
11053TIP3    H233101   8.427   5.332   1.701
11054TIP3   OH233102   7.365   7.791   1.501
11054TIP3    H133103   7.393   7.862   1.443
11054TIP3    H233104   7.352   7.833   1.586
11055TIP3   OH233105   7.946   4.096   1.819
11055TIP3    H133106   8.020   4.035   1.823
11055TIP3    H233107   7.935   4.125   1.910
11056TIP3   OH233108   3.615   2.380   0.581
11056TIP3    H133109   3.612   2.284   0.587
11056TIP3    H233110   3.664   2.397   0.501
11057TIP3   OH233111   7.285   0.608   1.436
11057TIP3    H133112   7.271   0.682   1.495
11057TIP3    H233113   7.372   0.575   1.458
11058TIP3   OH233114   1.143   0.301   2.617
11058TIP3    H133115   1.108   0.258   2.539
11058TIP3    H233116   1.065   0.331   2.665
11059TIP3   OH233117   1.334   1.804   6.624
11059TIP3    H133118   1.295   1.798   6.537
11059TIP3    H233119   1.260   1.794   6.684
11060TIP3   OH233120   3.966   7.690   2.415
11060TIP3    H133121   4.020   7.663   2.341
11060TIP3    H233122   4.027   7.733   2.475
11061TIP3   OH233123   2.226   2.972   3.712
11061TIP3    H133124   2.195   2.912   3.780
11061TIP3    H233125   2.294   3.024   3.756
11062TIP3   OH233126   4.569   2.557   2.719
11062TIP3    H133127   4.502   2.620   2.745
11062TIP3    H233128   4.537   2.473   2.754
11063TIP3   OH233129   1.862   0.053   1.304
11063TIP3    H133130   1.901   0.110   1.371
11063TIP3    H233131   1.906   0.079   1.223
11064TIP3   OH233132   0.945   5.833   1.790
11064TIP3    H133133   0.920   5.754   1.839
11064TIP3    H233134   0.918   5.815   1.700
11065TIP3   OH233135   4.422   7.747   6.032
11065TIP3    H133136   4.505   7.784   6.003
11065TIP3    H233137   4.369   7.823   6.056
11066TIP3   OH233138   4.138   3.209   3.252
11066TIP3    H133139   4.146   3.279   3.318
11066TIP3    H233140   4.077   3.146   3.291
11067TIP3   OH233141   6.376   5.021   0.888
11067TIP3    H133142   6.404   5.075   0.962
11067TIP3    H233143   6.455   4.974   0.862
11068TIP3   OH233144   4.523   0.507   5.237
11068TIP3    H133145   4.446   0.544   5.280
11068TIP3    H233146   4.583   0.581   5.228
11069TIP3   OH233147   4.595   7.212   1.714
11069TIP3    H133148   4.503   7.233   1.729
11069TIP3    H233149   4.638   7.296   1.699
11070TIP3   OH233150   6.841   5.630   1.846
11070TIP3    H133151   6.828   5.642   1.752
11070TIP3    H233152   6.879   5.542   1.853
11071TIP3   OH233153   7.253   0.144   4.086
11071TIP3    H133154   7.308   0.161   4.162
11071TIP3    H233155   7.232   0.051   4.092
11072TIP3   OH233156   2.774   7.277   5.882
11072TIP3    H133157   2.678   7.272   5.884
11072TIP3    H233158   2.795   7.287   5.789
11073TIP3   OH233159   3.972   7.297   0.154
11073TIP3    H133160   3.970   7.202   0.140
11073TIP3    H233161   4.000   7.307   0.245
11074TIP3   OH233162   4.478   0.123   6.223
11074TIP3    H133163   4.439   0.125   6.136
11074TIP3    H233164   4.470   0.032   6.251
11075TIP3   OH233165   7.395   0.957   3.483
11075TIP3    H133166   7.384   0.926   3.393
11075TIP3    H233167   7.345   0.895   3.536
11076TIP3   OH233168   7.689   4.945   2.197
11076TIP3    H133169   7.771   4.964   2.151
11076TIP3    H233170   7.651   5.032   2.213
11077TIP3   OH233171   0.497   2.429   5.323
11077TIP3    H133172   0.403   2.430   5.306
11077TIP3    H233173   0.534   2.487   5.257
11078TIP3   OH233174   3.296   5.045   4.106
11078TIP3    H133175   3.332   5.004   4.028
11078TIP3    H233176   3.219   4.992   4.128
11079TIP3   OH233177   3.647   7.708   4.562
11079TIP3    H133178   3.574   7.721   4.623
11079TIP3    H233179   3.664   7.614   4.565
11080TIP3   OH233180   0.057   5.309   3.997
11080TIP3    H133181   0.006   5.239   3.957
11080TIP3    H233182   0.007   5.334   4.075
11081TIP3   OH233183   4.507   1.622   6.252
11081TIP3    H133184   4.581   1.647   6.307
11081TIP3    H233185   4.546   1.598   6.169
11082TIP3   OH233186   3.767   4.857   4.821
11082TIP3    H133187   3.778   4.872   4.915
11082TIP3    H233188   3.682   4.815   4.813
11083TIP3   OH233189   7.895   7.549   0.912
11083TIP3    H133190   7.932   7.461   0.907
11083TIP3    H233191   7.873   7.560   1.005
11084TIP3   OH233192   5.784   1.712   5.137
11084TIP3    H133193   5.689   1.711   5.124
11084TIP3    H233194   5.800   1.786   5.196
11085TIP3   OH233195   4.096   6.522   0.954
11085TIP3    H133196   4.149   6.565   0.887
11085TIP3    H233197   4.070   6.592   1.013
11086TIP3   OH233198   1.407   4.199   0.553
11086TIP3    H133199   1.453   4.127   0.511
11086TIP3    H233200   1.333   4.218   0.495
11087TIP3   OH233201   4.796   7.006   5.593
11087TIP3    H133202   4.795   6.911   5.600
11087TIP3    H233203   4.776   7.037   5.681
11088TIP3   OH233204   4.387   3.471   0.677
11088TIP3    H133205   4.431   3.553   0.700
11088TIP3    H233206   4.305   3.499   0.636
11089TIP3   OH233207   2.593   5.432   2.509
11089TIP3    H133208   2.540   5.362   2.546
11089TIP3    H233209   2.614   5.489   2.584
11090TIP3   OH233210   1.949   2.114   1.361
11090TIP3    H133211   2.001   2.127   1.281
11090TIP3    H233212   1.924   2.202   1.387
11091TIP3   OH233213   6.759   6.886   1.849
11091TIP3    H133214   6.745   6.953   1.782
11091TIP3    H233215   6.846   6.906   1.885
11092TIP3   OH233216   0.601   0.158   4.855
11092TIP3    H133217   0.651   0.128   4.931
11092TIP3    H233218   0.668   0.182   4.791
11093TIP3   OH233219   7.461   7.689   5.198
11093TIP3    H133220   7.459   7.627   5.270
11093TIP3    H233221   7.459   7.775   5.239
11094TIP3   OH233222   2.345   6.561   4.344
11094TIP3    H133223   2.284   6.604   4.405
11094TIP3    H233224   2.422   6.619   4.343
11095TIP3   OH233225   5.872   2.535   1.397
11095TIP3    H133226   5.893   2.485   1.476
11095TIP3    H233227   5.907   2.622   1.414
11096TIP3   OH233228   6.200   3.132   4.252
11096TIP3    H133229   6.224   3.191   4.180
11096TIP3    H233230   6.222   3.180   4.331
11097TIP3   OH233231   1.527   1.577   3.521
11097TIP3    H133232   1.535   1.483   3.503
11097TIP3    H233233   1.523   1.583   3.616
11098TIP3   OH233234   1.890   5.191   2.766
11098TIP3    H133235   1.961   5.126   2.762
11098TIP3    H233236   1.911   5.254   2.697
11099TIP3   OH233237   5.544   2.047   2.336
11099TIP3    H133238   5.510   1.959   2.351
11099TIP3    H233239   5.466   2.101   2.323
11100TIP3   OH233240   3.314   3.060   0.652
11100TIP3    H133241   3.222   3.052   0.627
11100TIP3    H233242   3.313   3.120   0.727
11101TIP3   OH233243   1.810   2.305   2.723
11101TIP3    H133244   1.783   2.275   2.810
11101TIP3    H233245   1.735   2.286   2.666
11102TIP3   OH233246   8.252   0.374   0.508
11102TIP3    H133247   8.248   0.368   0.603
11102TIP3    H233248   8.266   0.468   0.491
11103TIP3   OH233249   0.623   5.714   2.074
11103TIP3    H133250   0.560   5.724   2.002
11103TIP3    H233251   0.707   5.700   2.031
11104TIP3   OH233252   2.097   3.331   2.448
11104TIP3    H133253   2.089   3.236   2.439
11104TIP3    H233254   2.009   3.359   2.474
11105TIP3   OH233255   1.305   1.397   5.267
11105TIP3    H133256   1.280   1.375   5.178
11105TIP3    H233257   1.237   1.357   5.322
11106TIP3   OH233258   0.266   2.873   3.479
11106TIP3    H133259   0.248   2.781   3.463
11106TIP3    H233260   0.200   2.900   3.542
11107TIP3   OH233261   4.220   3.530   1.337
11107TIP3    H133262   4.134   3.496   1.310
11107TIP3    H233263   4.199   3.608   1.390
11108TIP3   OH233264   3.424   2.024   6.831
11108TIP3    H133265   3.516   2.031   6.805
11108TIP3    H233266   3.427   2.015   6.926
11109TIP3   OH233267   5.806   4.754   4.855
11109TIP3    H133268   5.758   4.837   4.859
11109TIP3    H233269   5.743   4.691   4.821
11110TIP3   OH233270   5.768   3.062   4.329
11110TIP3    H133271   5.766   3.117   4.251
11110TIP3    H233272   5.786   2.974   4.296
11111TIP3   OH233273   4.550   4.231   6.810
11111TIP3    H133274   4.494   4.169   6.857
11111TIP3    H233275   4.492   4.276   6.750
11112TIP3   OH233276   4.243   5.241   3.178
11112TIP3    H133277   4.244   5.262   3.084
11112TIP3    H233278   4.219   5.148   3.180
11113TIP3   OH233279   0.405   5.076   1.158
11113TIP3    H133280   0.456   5.048   1.233
11113TIP3    H233281   0.314   5.063   1.184
11114TIP3   OH233282   2.775   6.119   3.813
11114TIP3    H133283   2.807   6.036   3.848
11114TIP3    H233284   2.752   6.100   3.722
11115TIP3   OH233285   6.228   6.362   6.571
11115TIP3    H133286   6.148   6.396   6.610
11115TIP3    H233287   6.244   6.417   6.495
11116TIP3   OH233288   0.565   0.584   2.554
11116TIP3    H133289   0.647   0.587   2.504
11116TIP3    H233290   0.505   0.535   2.498
11117TIP3   OH233291   4.127   4.837   4.679
11117TIP3    H133292   4.096   4.753   4.712
11117TIP3    H233293   4.062   4.863   4.614
11118TIP3   OH233294   0.642   5.898   2.734
11118TIP3    H133295   0.615   5.990   2.737
11118TIP3    H233296   0.615   5.863   2.819
11119TIP3   OH233297   6.919   7.935   5.850
11119TIP3    H133298   6.823   7.936   5.847
11119TIP3    H233299   6.945   7.887   5.771
11120TIP3   OH233300   2.148   3.737   4.463
11120TIP3    H133301   2.160   3.647   4.431
11120TIP3    H233302   2.086   3.727   4.536
11121TIP3   OH233303   2.778   7.073   1.968
11121TIP3    H133304   2.780   6.978   1.953
11121TIP3    H233305   2.826   7.086   2.049
11122TIP3   OH233306   5.884   7.772   3.544
11122TIP3    H133307   5.811   7.788   3.604
11122TIP3    H233308   5.842   7.741   3.464
11123TIP3   OH233309   5.465   1.298   2.623
11123TIP3    H133310   5.475   1.247   2.543
11123TIP3    H233311   5.529   1.260   2.684
11124TIP3   OH233312   4.571   7.063   1.435
11124TIP3    H133313   4.601   7.061   1.526
11124TIP3    H233314   4.650   7.079   1.384
11125TIP3   OH233315   5.079   3.238   0.534
11125TIP3    H133316   5.021   3.303   0.494
11125TIP3    H233317   5.019   3.180   0.582
11126TIP3   OH233318   0.944   3.777   3.132
11126TIP3    H133319   0.993   3.854   3.162
11126TIP3    H233320   0.997   3.740   3.061
11127TIP3   OH233321   4.110   1.278   5.216
11127TIP3    H133322   4.058   1.216   5.165
11127TIP3    H233323   4.064   1.361   5.206
11128TIP3   OH233324   6.175   2.155   2.041
11128TIP3    H133325   6.087   2.119   2.051
11128TIP3    H233326   6.194   2.146   1.948
11129TIP3   OH233327   3.820   1.734   5.957
11129TIP3    H133328   3.844   1.773   6.041
11129TIP3    H233329   3.850   1.797   5.891
11130TIP3   OH233330   3.303   0.080   1.241
11130TIP3    H133331   3.294   0.159   1.187
11130TIP3    H233332   3.244   0.095   1.315
11131TIP3   OH233333   6.337   3.403   0.986
11131TIP3    H133334   6.369   3.366   1.068
11131TIP3    H233335   6.296   3.486   1.012
11132TIP3   OH233336   6.454   3.033   2.425
11132TIP3    H133337   6.463   3.029   2.520
11132TIP3    H233338   6.462   2.942   2.396
11133TIP3   OH233339   8.255   5.270   2.077
11133TIP3    H133340   8.174   5.320   2.088
11133TIP3    H233341   8.250   5.237   1.987
11134TIP3   OH233342   2.948   0.511   2.122
11134TIP3    H133343   2.986   0.424   2.108
11134TIP3    H233344   2.868   0.494   2.172
11135TIP3   OH233345   5.664   0.524   2.249
11135TIP3    H133346   5.719   0.575   2.308
11135TIP3    H233347   5.697   0.544   2.162
11136TIP3   OH233348   2.607   6.214   0.090
11136TIP3    H133349   2.653   6.273   0.031
11136TIP3    H233350   2.676   6.175   0.144
11137TIP3   OH233351   7.977   0.095   2.982
11137TIP3    H133352   8.009   0.166   2.927
11137TIP3    H233353   8.032   0.098   3.060
11138TIP3   OH233354   6.654   6.477   3.182
11138TIP3    H133355   6.606   6.560   3.171
11138TIP3    H233356   6.745   6.503   3.192
11139TIP3   OH233357   4.160   4.115   5.489
11139TIP3    H133358   4.137   4.117   5.582
11139TIP3    H233359   4.102   4.179   5.448
11140TIP3   OH233360   4.419   0.814   1.866
11140TIP3    H133361   4.411   0.738   1.809
11140TIP3    H233362   4.511   0.839   1.861
11141TIP3   OH233363   4.739   6.938   3.687
11141TIP3    H133364   4.714   7.013   3.634
11141TIP3    H233365   4.686   6.866   3.654
11142TIP3   OH233366   1.275   6.770   0.598
11142TIP3    H133367   1.281   6.732   0.510
11142TIP3    H233368   1.341   6.839   0.598
11143TIP3   OH233369   5.255   5.014   1.330
11143TIP3    H133370   5.348   5.024   1.349
11143TIP3    H233371   5.215   5.093   1.366
11144TIP3   OH233372   4.462   0.628   0.356
11144TIP3    H133373   4.542   0.627   0.304
11144TIP3    H233374   4.441   0.536   0.370
11145TIP3   OH233375   7.279   4.736   3.777
11145TIP3    H133376   7.255   4.729   3.684
11145TIP3    H233377   7.198   4.762   3.821
11146TIP3   OH233378   0.023   5.778   3.089
11146TIP3    H133379   0.076   5.771   3.009
11146TIP3    H233380   0.077   5.735   3.156
11147TIP3   OH233381   3.483   1.646   0.453
11147TIP3    H133382   3.481   1.555   0.483
11147TIP3    H233383   3.391   1.674   0.456
11148TIP3   OH233384   0.761   4.817   4.683
11148TIP3    H133385   0.835   4.850   4.632
11148TIP3    H233386   0.741   4.732   4.643
11149TIP3   OH233387   1.202   4.951   6.362
11149TIP3    H133388   1.293   4.968   6.339
11149TIP3    H233389   1.164   5.038   6.377
11150TIP3   OH233390   4.252   2.796   1.558
11150TIP3    H133391   4.224   2.884   1.532
11150TIP3    H233392   4.263   2.801   1.653
11151TIP3   OH233393   2.057   5.794   0.171
11151TIP3    H133394   2.137   5.758   0.210
11151TIP3    H233395   2.045   5.744   0.090
11152TIP3   OH233396   4.931   7.250   0.051
11152TIP3    H133397   4.894   7.162   0.040
11152TIP3    H233398   4.908   7.274   0.141
11153TIP3   OH233399   3.771   2.452   2.268
11153TIP3    H133400   3.862   2.471   2.245
11153TIP3    H233401   3.723   2.462   2.186
11154TIP3   OH233402   0.691   5.179   1.930
11154TIP3    H133403   0.717   5.163   1.840
11154TIP3    H233404   0.688   5.274   1.938
11155TIP3   OH233405   2.877   3.578   1.786
11155TIP3    H133406   2.812   3.635   1.744
11155TIP3    H233407   2.827   3.530   1.852
11156TIP3   OH233408   2.136   4.941   6.505
11156TIP3    H133409   2.208   4.989   6.463
11156TIP3    H233410   2.093   4.895   6.433
11157TIP3   OH233411   5.860   3.861   6.411
11157TIP3    H133412   5.893   3.780   6.448
11157TIP3    H233413   5.777   3.837   6.370
11158TIP3   OH233414   6.445   3.320   5.790
11158TIP3    H133415   6.471   3.228   5.785
11158TIP3    H233416   6.444   3.350   5.699
11159TIP3   OH233417   2.678   0.432   4.431
11159TIP3    H133418   2.621   0.501   4.399
11159TIP3    H233419   2.624   0.383   4.493
11160TIP3   OH233420   5.534   6.435   3.431
11160TIP3    H133421   5.486   6.353   3.429
11160TIP3    H233422   5.523   6.473   3.344
11161TIP3   OH233423   6.922   1.446   4.509
11161TIP3    H133424   6.953   1.361   4.540
11161TIP3    H233425   6.985   1.472   4.442
11162TIP3   OH233426   3.165   6.237   2.722
11162TIP3    H133427   3.168   6.221   2.628
11162TIP3    H233428   3.149   6.330   2.731
11163TIP3   OH233429   7.123   0.057   6.103
11163TIP3    H133430   7.145   0.124   6.038
11163TIP3    H233431   7.035   0.081   6.132
11164TIP3   OH233432   2.559   5.299   5.146
11164TIP3    H133433   2.504   5.332   5.075
11164TIP3    H233434   2.585   5.211   5.117
11165TIP3   OH233435   4.064   5.468   1.792
11165TIP3    H133436   4.039   5.513   1.872
11165TIP3    H233437   4.102   5.535   1.736
11166TIP3   OH233438   3.362   3.800   1.715
11166TIP3    H133439   3.403   3.791   1.801
11166TIP3    H233440   3.278   3.756   1.724
11167TIP3   OH233441   3.443   5.440   4.495
11167TIP3    H133442   3.475   5.361   4.452
11167TIP3    H233443   3.509   5.507   4.475
11168TIP3   OH233444   4.643   6.253   4.723
11168TIP3    H133445   4.558   6.271   4.683
11168TIP3    H233446   4.628   6.261   4.817
11169TIP3   OH233447   6.015   7.749   6.455
11169TIP3    H133448   5.999   7.838   6.423
11169TIP3    H233449   6.105   7.751   6.486
11170TIP3   OH233450   7.968   7.431   3.228
11170TIP3    H133451   8.006   7.512   3.261
11170TIP3    H233452   8.023   7.409   3.152
11171TIP3   OH233453   7.100   0.052   6.418
11171TIP3    H133454   7.090  -0.042   6.427
11171TIP3    H233455   7.165   0.063   6.348
11172TIP3   OH233456   5.387   7.901   6.813
11172TIP3    H133457   5.452   7.891   6.744
11172TIP3    H233458   5.316   7.841   6.788
11173TIP3   OH233459   8.145   6.374   0.196
11173TIP3    H133460   8.189   6.338   0.119
11173TIP3    H233461   8.052   6.375   0.172
11174TIP3   OH233462   7.777   5.382   3.715
11174TIP3    H133463   7.752   5.446   3.647
11174TIP3    H233464   7.737   5.416   3.795
11175TIP3   OH233465   4.798   7.081   5.893
11175TIP3    H133466   4.823   6.990   5.910
11175TIP3    H233467   4.828   7.129   5.969
11176TIP3   OH233468   1.092   1.782   6.779
11176TIP3    H133469   1.018   1.841   6.761
11176TIP3    H233470   1.054   1.694   6.774
11177TIP3   OH233471   5.397   2.145   5.335
11177TIP3    H133472   5.432   2.233   5.324
11177TIP3    H233473   5.467   2.096   5.379
11178TIP3   OH233474   6.226   3.706   0.065
11178TIP3    H133475   6.261   3.794   0.051
11178TIP3    H233476   6.258   3.656  -0.010
11179TIP3   OH233477   2.513   5.399   1.308
11179TIP3    H133478   2.600   5.362   1.323
11179TIP3    H233479   2.455   5.350   1.367
11180TIP3   OH233480   8.088   4.157   3.048
11180TIP3    H133481   8.173   4.182   3.085
11180TIP3    H233482   8.095   4.063   3.035
11181TIP3   OH233483   0.619   7.852   2.278
11181TIP3    H133484   0.665   7.838   2.195
11181TIP3    H233485   0.687   7.841   2.345
11182TIP3   OH233486   0.804   5.502   1.516
11182TIP3    H133487   0.816   5.490   1.610
11182TIP3    H233488   0.845   5.425   1.476
11183TIP3   OH233489   0.815   0.910   4.674
11183TIP3    H133490   0.743   0.971   4.656
11183TIP3    H233491   0.866   0.953   4.743
11184TIP3   OH233492   7.951   2.852   4.277
11184TIP3    H133493   7.925   2.837   4.186
11184TIP3    H233494   8.015   2.922   4.272
11185TIP3   OH233495   0.948   7.912   0.212
11185TIP3    H133496   0.998   7.831   0.200
11185TIP3    H233497   0.874   7.903   0.151
11186TIP3   OH233498   3.275   7.075   4.882
11186TIP3    H133499   3.326   7.051   4.805
11186TIP3    H233500   3.320   7.034   4.956
11187TIP3   OH233501   1.250   1.205   1.127
11187TIP3    H133502   1.211   1.136   1.073
11187TIP3    H233503   1.227   1.182   1.217
11188TIP3   OH233504   1.162   5.388   3.269
11188TIP3    H133505   1.250   5.383   3.306
11188TIP3    H233506   1.112   5.323   3.319
11189TIP3   OH233507   6.940   6.766   4.546
11189TIP3    H133508   6.996   6.840   4.571
11189TIP3    H233509   6.905   6.791   4.460
11190TIP3   OH233510   6.627   2.963   2.739
11190TIP3    H133511   6.669   3.047   2.757
11190TIP3    H233512   6.695   2.913   2.693
11191TIP3   OH233513   4.648   4.847   0.677
11191TIP3    H133514   4.736   4.855   0.640
11191TIP3    H233515   4.597   4.802   0.610
11192TIP3   OH233516   5.010   6.438   0.604
11192TIP3    H133517   4.918   6.430   0.630
11192TIP3    H233518   5.032   6.530   0.619
11193TIP3   OH233519   6.601   0.860   2.342
11193TIP3    H133520   6.684   0.875   2.387
11193TIP3    H233521   6.537   0.851   2.413
11194TIP3   OH233522   0.254   6.939   2.128
11194TIP3    H133523   0.209   7.008   2.176
11194TIP3    H233524   0.189   6.869   2.120
11195TIP3   OH233525   3.226   2.831   0.062
11195TIP3    H133526   3.281   2.904   0.033
11195TIP3    H233527   3.242   2.826   0.157
11196TIP3   OH233528   2.702   2.863   5.420
11196TIP3    H133529   2.646   2.932   5.456
11196TIP3    H233530   2.774   2.856   5.483
11197TIP3   OH233531   7.865   0.529   5.767
11197TIP3    H133532   7.812   0.565   5.696
11197TIP3    H233533   7.924   0.467   5.725
11198TIP3   OH233534   1.213   6.217   0.995
11198TIP3    H133535   1.153   6.230   0.922
11198TIP3    H233536   1.289   6.173   0.957
11199TIP3   OH233537   7.703   3.339   0.493
11199TIP3    H133538   7.612   3.312   0.480
11199TIP3    H233539   7.700   3.392   0.573
11200TIP3   OH233540   7.814   4.400   2.137
11200TIP3    H133541   7.829   4.486   2.098
11200TIP3    H233542   7.719   4.390   2.138
11201TIP3   OH233543   1.661   5.318   1.831
11201TIP3    H133544   1.639   5.411   1.824
11201TIP3    H233545   1.587   5.280   1.880
11202TIP3   OH233546   5.904   1.327   6.126
11202TIP3    H133547   5.917   1.371   6.210
11202TIP3    H233548   5.907   1.234   6.147
11203TIP3   OH233549   7.821   3.454   1.451
11203TIP3    H133550   7.910   3.420   1.442
11203TIP3    H233551   7.822   3.536   1.402
11204TIP3   OH233552   3.230   4.303   2.657
11204TIP3    H133553   3.148   4.299   2.706
11204TIP3    H233554   3.290   4.245   2.704
11205TIP3   OH233555   3.487   0.737   6.340
11205TIP3    H133556   3.487   0.650   6.379
11205TIP3    H233557   3.557   0.735   6.275
11206TIP3   OH233558   4.069   5.408   0.576
11206TIP3    H133559   4.075   5.397   0.481
11206TIP3    H233560   4.041   5.499   0.587
11207TIP3   OH233561   8.233   4.144   4.830
11207TIP3    H133562   8.247   4.206   4.758
11207TIP3    H233563   8.317   4.101   4.841
11208TIP3   OH233564   2.600   7.027   3.901
11208TIP3    H133565   2.613   6.996   3.811
11208TIP3    H233566   2.677   6.994   3.948
11209TIP3   OH233567   3.205   3.326   3.993
11209TIP3    H133568   3.206   3.305   4.086
11209TIP3    H233569   3.230   3.245   3.949
11210TIP3   OH233570   8.232   5.743   2.091
11210TIP3    H133571   8.247   5.831   2.055
11210TIP3    H233572   8.138   5.739   2.106
11211TIP3   OH233573   3.322   5.811   3.437
11211TIP3    H133574   3.403   5.857   3.416
11211TIP3    H233575   3.268   5.820   3.358
11212TIP3   OH233576   3.786   5.487   0.719
11212TIP3    H133577   3.835   5.519   0.795
11212TIP3    H233578   3.841   5.510   0.644
11213TIP3   OH233579   7.596   3.306   5.064
11213TIP3    H133580   7.514   3.256   5.063
11213TIP3    H233581   7.655   3.256   5.120
11214TIP3   OH233582   7.740   7.845   2.956
11214TIP3    H133583   7.732   7.901   2.879
11214TIP3    H233584   7.730   7.904   3.030
11215TIP3   OH233585   6.867   0.209   6.433
11215TIP3    H133586   6.832   0.181   6.348
11215TIP3    H233587   6.940   0.149   6.449
11216TIP3   OH233588   6.364   0.420   2.251
11216TIP3    H133589   6.398   0.335   2.280
11216TIP3    H233590   6.401   0.483   2.312
11217TIP3   OH233591   6.299   0.334   5.562
11217TIP3    H133592   6.352   0.260   5.529
11217TIP3    H233593   6.331   0.348   5.651
11218TIP3   OH233594   6.016   6.175   1.291
11218TIP3    H133595   6.045   6.141   1.375
11218TIP3    H233596   6.088   6.230   1.261
11219TIP3   OH233597   5.954   1.281   4.436
11219TIP3    H133598   5.936   1.374   4.451
11219TIP3    H233599   6.043   1.269   4.469
11220TIP3   OH233600   0.226   4.275   4.311
11220TIP3    H133601   0.229   4.308   4.400
11220TIP3    H233602   0.195   4.349   4.258
11221TIP3   OH233603   3.740   7.865   6.397
11221TIP3    H133604   3.825   7.824   6.411
11221TIP3    H233605   3.679   7.810   6.446
11222TIP3   OH233606   4.368   0.570   0.716
11222TIP3    H133607   4.436   0.624   0.676
11222TIP3    H233608   4.288   0.623   0.708
11223TIP3   OH233609   3.024   7.329   2.514
11223TIP3    H133610   3.103   7.316   2.567
11223TIP3    H233611   3.019   7.424   2.502
11224TIP3   OH233612   4.792   2.602   3.145
11224TIP3    H133613   4.873   2.620   3.193
11224TIP3    H233614   4.735   2.675   3.166
11225TIP3   OH233615   4.317   2.514   4.525
11225TIP3    H133616   4.298   2.427   4.558
11225TIP3    H233617   4.369   2.499   4.446
11226TIP3   OH233618   4.733   2.339   6.153
11226TIP3    H133619   4.740   2.407   6.220
11226TIP3    H233620   4.823   2.322   6.126
11227TIP3   OH233621   7.487   0.502   4.431
11227TIP3    H133622   7.504   0.590   4.398
11227TIP3    H233623   7.417   0.513   4.495
11228TIP3   OH233624   5.697   3.517   6.651
11228TIP3    H133625   5.681   3.455   6.722
11228TIP3    H233626   5.621   3.508   6.593
11229TIP3   OH233627   7.466   1.587   6.616
11229TIP3    H133628   7.405   1.517   6.639
11229TIP3    H233629   7.424   1.634   6.544
11230TIP3   OH233630   2.375   4.438   1.187
11230TIP3    H133631   2.433   4.426   1.111
11230TIP3    H233632   2.434   4.467   1.257
11231TIP3   OH233633   1.823   4.118   3.515
11231TIP3    H133634   1.800   4.041   3.566
11231TIP3    H233635   1.845   4.184   3.581
11232TIP3   OH233636   3.973   7.720   3.746
11232TIP3    H133637   4.003   7.715   3.655
11232TIP3    H233638   4.013   7.645   3.789
11233TIP3   OH233639   3.095   3.541   6.536
11233TIP3    H133640   3.068   3.632   6.551
11233TIP3    H233641   3.123   3.509   6.622
11234TIP3   OH233642   5.262   4.971   5.856
11234TIP3    H133643   5.245   5.042   5.918
11234TIP3    H233644   5.325   5.007   5.795
11235TIP3   OH233645   0.212   3.539   6.475
11235TIP3    H133646   0.120   3.529   6.450
11235TIP3    H233647   0.226   3.633   6.481
11236TIP3   OH233648   2.129   4.321   6.566
11236TIP3    H133649   2.153   4.235   6.601
11236TIP3    H233650   2.131   4.379   6.642
11237TIP3   OH233651   7.343   7.067   4.473
11237TIP3    H133652   7.342   7.120   4.552
11237TIP3    H233653   7.425   7.019   4.477
11238TIP3   OH233654   4.532   1.607   2.254
11238TIP3    H133655   4.459   1.568   2.301
11238TIP3    H233656   4.591   1.533   2.236
11239TIP3   OH233657   5.973   4.293   5.803
11239TIP3    H133658   6.057   4.330   5.775
11239TIP3    H233659   5.987   4.199   5.803
11240TIP3   OH233660   1.501   5.598   3.348
11240TIP3    H133661   1.566   5.591   3.278
11240TIP3    H233662   1.552   5.606   3.428
11241TIP3   OH233663   0.939   4.916   0.495
11241TIP3    H133664   0.966   4.828   0.468
11241TIP3    H233665   1.016   4.953   0.537
11242TIP3   OH233666   4.001   5.170   5.474
11242TIP3    H133667   4.021   5.144   5.564
11242TIP3    H233668   3.977   5.262   5.480
11243TIP3   OH233669   3.522   1.646   3.564
11243TIP3    H133670   3.478   1.562   3.559
11243TIP3    H233671   3.614   1.626   3.547
11244TIP3   OH233672   5.215   0.614   6.634
11244TIP3    H133673   5.278   0.674   6.594
11244TIP3    H233674   5.153   0.595   6.563
11245TIP3   OH233675   2.849   6.464   2.213
11245TIP3    H133676   2.845   6.422   2.127
11245TIP3    H233677   2.906   6.407   2.265
11246TIP3   OH233678   2.960   2.501   5.497
11246TIP3    H133679   3.015   2.456   5.560
11246TIP3    H233680   2.960   2.444   5.420
11247TIP3   OH233681   7.771   4.753   6.681
11247TIP3    H133682   7.817   4.717   6.757
11247TIP3    H233683   7.824   4.728   6.606
11248TIP3   OH233684   3.458   1.011   6.263
11248TIP3    H133685   3.532   1.004   6.323
11248TIP3    H233686   3.424   0.922   6.257
11249TIP3   OH233687   1.775   7.022   0.862
11249TIP3    H133688   1.856   7.070   0.840
11249TIP3    H233689   1.799   6.971   0.940
11250TIP3   OH233690   3.048   0.467   4.792
11250TIP3    H133691   2.952   0.473   4.789
11250TIP3    H233692   3.066   0.412   4.868
11251TIP3   OH233693   0.226   5.653   0.716
11251TIP3    H133694   0.155   5.589   0.716
11251TIP3    H233695   0.190   5.728   0.668
11252TIP3   OH233696   0.529   2.081   1.346
11252TIP3    H133697   0.443   2.112   1.316
11252TIP3    H233698   0.509   2.007   1.403
11253TIP3   OH233699   5.748   4.624   0.681
11253TIP3    H133700   5.697   4.702   0.702
11253TIP3    H233701   5.694   4.576   0.619
11254TIP3   OH233702   0.456   1.770   2.137
11254TIP3    H133703   0.549   1.774   2.158
11254TIP3    H233704   0.412   1.801   2.216
11255TIP3   OH233705   8.160   3.882   6.393
11255TIP3    H133706   8.113   3.959   6.362
11255TIP3    H233707   8.150   3.818   6.322
11256TIP3   OH233708   4.098   3.680   6.454
11256TIP3    H133709   4.117   3.593   6.489
11256TIP3    H233710   4.004   3.680   6.440
11257TIP3   OH233711   0.991   5.275   1.459
11257TIP3    H133712   1.034   5.316   1.384
11257TIP3    H233713   1.011   5.182   1.450
11258TIP3   OH233714   4.605   2.248   0.276
11258TIP3    H133715   4.699   2.251   0.293
11258TIP3    H233716   4.572   2.333   0.305
11259TIP3   OH233717   3.402   2.083   0.649
11259TIP3    H133718   3.443   1.996   0.652
11259TIP3    H233719   3.314   2.069   0.682
11260TIP3   OH233720   5.557   7.065   5.559
11260TIP3    H133721   5.582   7.085   5.649
11260TIP3    H233722   5.493   6.995   5.566
11261TIP3   OH233723   5.563   3.703   0.266
11261TIP3    H133724   5.500   3.662   0.207
11261TIP3    H233725   5.644   3.654   0.251
11262TIP3   OH233726   6.976   2.621   4.574
11262TIP3    H133727   7.068   2.650   4.578
11262TIP3    H233728   6.963   2.571   4.654
11263TIP3   OH233729   5.869   7.867   1.721
11263TIP3    H133730   5.793   7.809   1.717
11263TIP3    H233731   5.839   7.949   1.683
11264TIP3   OH233732   4.057   6.514   4.136
11264TIP3    H133733   4.032   6.576   4.068
11264TIP3    H233734   4.054   6.565   4.217
11265TIP3   OH233735   1.893   7.409   2.582
11265TIP3    H133736   1.832   7.482   2.596
11265TIP3    H233737   1.839   7.340   2.543
11266TIP3   OH233738   7.020   2.230   6.322
11266TIP3    H133739   7.021   2.226   6.417
11266TIP3    H233740   6.946   2.287   6.301
11267TIP3   OH233741   5.578   6.373   2.117
11267TIP3    H133742   5.623   6.292   2.140
11267TIP3    H233743   5.644   6.441   2.129
11268TIP3   OH233744   0.278   6.611   4.178
11268TIP3    H133745   0.331   6.610   4.258
11268TIP3    H233746   0.289   6.524   4.140
11269TIP3   OH233747   8.001   5.887   5.061
11269TIP3    H133748   7.978   5.930   5.144
11269TIP3    H233749   7.967   5.798   5.070
11270TIP3   OH233750   0.420   4.934   6.436
11270TIP3    H133751   0.363   4.893   6.371
11270TIP3    H233752   0.413   4.878   6.513
11271TIP3   OH233753   0.295   1.156   0.915
11271TIP3    H133754   0.320   1.178   1.004
11271TIP3    H233755   0.352   1.210   0.860
11272TIP3   OH233756   4.422   4.722   4.680
11272TIP3    H133757   4.384   4.687   4.761
11272TIP3    H233758   4.387   4.665   4.611
11273TIP3   OH233759   4.241   1.616   1.026
11273TIP3    H133760   4.336   1.613   1.014
11273TIP3    H233761   4.227   1.676   1.098
11274TIP3   OH233762   3.624   0.590   5.109
11274TIP3    H133763   3.591   0.515   5.060
11274TIP3    H233764   3.570   0.663   5.079
11275TIP3   OH233765   7.529   6.301   3.823
11275TIP3    H133766   7.587   6.376   3.811
11275TIP3    H233767   7.583   6.224   3.803
11276TIP3   OH233768   4.175   5.953   6.186
11276TIP3    H133769   4.155   6.007   6.262
11276TIP3    H233770   4.267   5.970   6.168
11277TIP3   OH233771   7.701   1.551   0.796
11277TIP3    H133772   7.741   1.605   0.864
11277TIP3    H233773   7.662   1.615   0.736
11278TIP3   OH233774   7.865   7.071   4.865
11278TIP3    H133775   7.916   6.991   4.883
11278TIP3    H233776   7.931   7.138   4.849
11279TIP3   OH233777   0.162   3.852   0.046
11279TIP3    H133778   0.101   3.873   0.117
11279TIP3    H233779   0.236   3.911   0.060
11280TIP3   OH233780   8.006   6.895   6.205
11280TIP3    H133781   7.950   6.972   6.198
11280TIP3    H233782   8.056   6.893   6.124
11281TIP3   OH233783   8.354   2.498   3.616
11281TIP3    H133784   8.316   2.412   3.601
11281TIP3    H233785   8.392   2.493   3.704
11282TIP3   OH233786   7.714   5.395   3.409
11282TIP3    H133787   7.778   5.359   3.348
11282TIP3    H233788   7.656   5.322   3.430
11283TIP3   OH233789   1.779   0.498   2.241
11283TIP3    H133790   1.744   0.449   2.315
11283TIP3    H233791   1.791   0.432   2.172
11284TIP3   OH233792   5.716   7.541   5.729
11284TIP3    H133793   5.714   7.600   5.804
11284TIP3    H233794   5.649   7.475   5.747
11285TIP3   OH233795   3.108   1.070   5.291
11285TIP3    H133796   3.181   1.030   5.339
11285TIP3    H233797   3.061   1.121   5.358
11286TIP3   OH233798   3.320   2.861   1.750
11286TIP3    H133799   3.392   2.838   1.809
11286TIP3    H233800   3.353   2.840   1.663
11287TIP3   OH233801   7.284   4.349   2.825
11287TIP3    H133802   7.335   4.423   2.792
11287TIP3    H233803   7.288   4.359   2.921
11288TIP3   OH233804   3.708   3.340   4.949
11288TIP3    H133805   3.742   3.369   5.034
11288TIP3    H233806   3.618   3.314   4.966
11289TIP3   OH233807   8.030   5.243   2.424
11289TIP3    H133808   8.001   5.248   2.333
11289TIP3    H233809   7.988   5.165   2.458
11290TIP3   OH233810   7.429   5.834   4.414
11290TIP3    H133811   7.342   5.855   4.448
11290TIP3    H233812   7.484   5.827   4.491
11291TIP3   OH233813   1.814   3.879   4.339
11291TIP3    H133814   1.729   3.916   4.362
11291TIP3    H233815   1.800   3.784   4.343
11292TIP3   OH233816   7.565   7.159   3.740
11292TIP3    H133817   7.587   7.171   3.832
11292TIP3    H233818   7.512   7.079   3.738
11293TIP3   OH233819   3.103   0.104   3.858
11293TIP3    H133820   3.101   0.168   3.929
11293TIP3    H233821   3.012   0.102   3.826
11294TIP3   OH233822   1.548   2.943   5.140
11294TIP3    H133823   1.628   2.963   5.188
11294TIP3    H233824   1.503   2.878   5.195
11295TIP3   OH233825   3.809   0.960   5.342
11295TIP3    H133826   3.761   1.041   5.360
11295TIP3    H233827   3.757   0.892   5.383
11296TIP3   OH233828   3.417   5.749   0.165
11296TIP3    H133829   3.452   5.677   0.113
11296TIP3    H233830   3.414   5.823   0.104
11297TIP3   OH233831   5.927   2.837   5.457
11297TIP3    H133832   5.852   2.847   5.399
11297TIP3    H233833   5.996   2.891   5.418
11298TIP3   OH233834   5.910   6.942   4.866
11298TIP3    H133835   5.901   7.015   4.927
11298TIP3    H233836   6.001   6.914   4.874
11299TIP3   OH233837   2.853   2.013   3.391
11299TIP3    H133838   2.795   2.043   3.461
11299TIP3    H233839   2.814   1.930   3.363
11300TIP3   OH233840   7.375   2.537   6.809
11300TIP3    H133841   7.364   2.590   6.731
11300TIP3    H233842   7.469   2.519   6.814
11301TIP3   OH233843   1.527   0.539  -0.021
11301TIP3    H133844   1.604   0.594  -0.010
11301TIP3    H233845   1.524   0.486   0.059
11302TIP3   OH233846   0.982   3.176   5.850
11302TIP3    H133847   0.988   3.271   5.860
11302TIP3    H233848   0.931   3.147   5.926
11303TIP3   OH233849   3.962   6.990   0.478
11303TIP3    H133850   4.048   6.947   0.474
11303TIP3    H233851   3.918   6.950   0.553
11304TIP3   OH233852   5.912   0.212   6.053
11304TIP3    H133853   5.844   0.247   5.996
11304TIP3    H233854   5.929   0.281   6.117
11305TIP3   OH233855   1.075   2.636   3.032
11305TIP3    H133856   1.010   2.656   2.965
11305TIP3    H233857   1.104   2.547   3.011
11306TIP3   OH233858   0.852   1.220   6.071
11306TIP3    H133859   0.897   1.197   5.990
11306TIP3    H233860   0.864   1.145   6.128
11307TIP3   OH233861   7.978   1.203   4.434
11307TIP3    H133862   7.966   1.193   4.529
11307TIP3    H233863   7.937   1.286   4.413
11308TIP3   OH233864   3.921   7.558   6.083
11308TIP3    H133865   3.928   7.603   6.167
11308TIP3    H233866   3.931   7.465   6.104
11309TIP3   OH233867   8.268   0.014   2.758
11309TIP3    H133868   8.349   0.013   2.809
11309TIP3    H233869   8.255   0.106   2.735
11310TIP3   OH233870   6.525   2.596   2.198
11310TIP3    H133871   6.589   2.600   2.127
11310TIP3    H233872   6.560   2.530   2.258
11311TIP3   OH233873   3.010   3.798   2.525
11311TIP3    H133874   3.012   3.767   2.434
11311TIP3    H233875   3.013   3.893   2.518
11312TIP3   OH233876   6.497   6.923   3.758
11312TIP3    H133877   6.539   6.848   3.801
11312TIP3    H233878   6.570   6.975   3.724
11313TIP3   OH233879   1.379   2.868   0.572
11313TIP3    H133880   1.316   2.902   0.636
11313TIP3    H233881   1.352   2.908   0.489
11314TIP3   OH233882   5.106   1.002   5.769
11314TIP3    H133883   5.170   0.954   5.822
11314TIP3    H233884   5.141   1.091   5.764
11315TIP3   OH233885   3.507   2.601   2.326
11315TIP3    H133886   3.579   2.551   2.288
11315TIP3    H233887   3.473   2.546   2.396
11316TIP3   OH233888   6.521   5.178   3.767
11316TIP3    H133889   6.525   5.257   3.714
11316TIP3    H233890   6.501   5.209   3.856
11317TIP3   OH233891   2.237   0.065   1.466
11317TIP3    H133892   2.150   0.105   1.470
11317TIP3    H233893   2.243   0.028   1.378
11318TIP3   OH233894   0.483   5.040   0.461
11318TIP3    H133895   0.562   5.023   0.511
11318TIP3    H233896   0.413   5.001   0.513
11319TIP3   OH233897   2.393   6.191   4.108
11319TIP3    H133898   2.394   6.108   4.060
11319TIP3    H233899   2.321   6.182   4.171
11320TIP3   OH233900   6.654   4.350   5.177
11320TIP3    H133901   6.699   4.288   5.235
11320TIP3    H233902   6.591   4.394   5.233
11321TIP3   OH233903   1.201   5.158   5.845
11321TIP3    H133904   1.270   5.104   5.806
11321TIP3    H233905   1.152   5.192   5.771
11322TIP3   OH233906   0.700   5.705   4.707
11322TIP3    H133907   0.657   5.642   4.765
11322TIP3    H233908   0.789   5.714   4.743
11323TIP3   OH233909   5.476   5.983   0.068
11323TIP3    H133910   5.567   6.009   0.052
11323TIP3    H233911   5.468   5.897   0.026
11324TIP3   OH233912   2.702   4.780   0.990
11324TIP3    H133913   2.701   4.787   0.894
11324TIP3    H233914   2.791   4.750   1.011
11325TIP3   OH233915   0.823   6.079   0.806
11325TIP3    H133916   0.731   6.097   0.788
11325TIP3    H233917   0.865   6.079   0.719
11326TIP3   OH233918   5.845   2.401   5.240
11326TIP3    H133919   5.923   2.365   5.280
11326TIP3    H233920   5.877   2.456   5.168
11327TIP3   OH233921   3.016   0.797   6.443
11327TIP3    H133922   3.015   0.885   6.406
11327TIP3    H233923   3.050   0.741   6.372
11328TIP3   OH233924   0.363   0.405   6.155
11328TIP3    H133925   0.336   0.496   6.144
11328TIP3    H233926   0.297   0.367   6.213
11329TIP3   OH233927   6.887   6.160   0.715
11329TIP3    H133928   6.836   6.228   0.668
11329TIP3    H233929   6.934   6.114   0.646
11330TIP3   OH233930   1.995   2.747   1.708
11330TIP3    H133931   2.005   2.677   1.643
11330TIP3    H233932   2.016   2.706   1.792
11331TIP3   OH233933   7.771   6.934   5.342
11331TIP3    H133934   7.782   6.861   5.402
11331TIP3    H233935   7.775   7.012   5.398
11332TIP3   OH233936   4.241   0.048   0.445
11332TIP3    H133937   4.200  -0.024   0.397
11332TIP3    H233938   4.198   0.048   0.530
11333TIP3   OH233939   5.030   1.798   0.635
11333TIP3    H133940   5.025   1.705   0.656
11333TIP3    H233941   5.009   1.803   0.542
11334TIP3   OH233942   3.993   5.900   1.034
11334TIP3    H133943   3.936   5.967   0.997
11334TIP3    H233944   3.988   5.913   1.129
11335TIP3   OH233945   7.013   3.047   3.126
11335TIP3    H133946   7.065   2.981   3.080
11335TIP3    H233947   6.923   3.032   3.095
11336TIP3   OH233948   8.129   7.925   1.166
11336TIP3    H133949   8.140   7.833   1.141
11336TIP3    H233950   8.063   7.959   1.106
11337TIP3   OH233951   6.953   2.589   3.974
11337TIP3    H133952   6.948   2.510   3.921
11337TIP3    H233953   6.942   2.558   4.064
11338TIP3   OH233954   7.310   4.876   0.351
11338TIP3    H133955   7.258   4.938   0.402
11338TIP3    H233956   7.366   4.833   0.416
11339TIP3   OH233957   5.074   3.503   6.182
11339TIP3    H133958   5.088   3.594   6.156
11339TIP3    H233959   5.161   3.472   6.206
11340TIP3   OH233960   2.664   7.368   4.453
11340TIP3    H133961   2.651   7.459   4.427
11340TIP3    H233962   2.756   7.362   4.477
11341TIP3   OH233963   5.765   2.420   6.605
11341TIP3    H133964   5.850   2.452   6.636
11341TIP3    H233965   5.704   2.492   6.624
11342TIP3   OH233966   7.511   7.305   1.971
11342TIP3    H133967   7.498   7.345   1.885
11342TIP3    H233968   7.423   7.284   2.002
11343TIP3   OH233969   7.620   5.911   4.238
11343TIP3    H133970   7.696   5.886   4.290
11343TIP3    H233971   7.545   5.887   4.292
11344TIP3   OH233972   7.751   5.635   5.760
11344TIP3    H133973   7.786   5.553   5.795
11344TIP3    H233974   7.662   5.614   5.734
11345TIP3   OH233975   5.127   6.043   1.334
11345TIP3    H133976   5.206   6.065   1.284
11345TIP3    H233977   5.087   6.128   1.353
11346TIP3   OH233978   6.268   5.058   6.631
11346TIP3    H133979   6.221   4.988   6.677
11346TIP3    H233980   6.229   5.139   6.664
11347TIP3   OH233981   0.690   1.482   1.681
11347TIP3    H133982   0.676   1.510   1.771
11347TIP3    H233983   0.744   1.551   1.643
11348TIP3   OH233984   4.782   0.328   6.280
11348TIP3    H133985   4.854   0.377   6.240
11348TIP3    H233986   4.709   0.338   6.218
11349TIP3   OH233987   7.839   6.462   1.922
11349TIP3    H133988   7.925   6.420   1.923
11349TIP3    H233989   7.848   6.533   1.858
11350TIP3   OH233990   5.554   4.155   1.433
11350TIP3    H133991   5.643   4.162   1.399
11350TIP3    H233992   5.501   4.210   1.376
11351TIP3   OH233993   4.459   4.062   2.257
11351TIP3    H133994   4.531   4.007   2.227
11351TIP3    H233995   4.381   4.020   2.220
11352TIP3   OH233996   8.221   1.438   0.830
11352TIP3    H133997   8.223   1.493   0.751
11352TIP3    H233998   8.306   1.451   0.871
11353TIP3   OH233999   1.614   2.979   1.310
11353TIP3    H134000   1.677   2.930   1.256
11353TIP3    H234001   1.590   2.919   1.380
11354TIP3   OH234002   3.980   4.903   6.259
11354TIP3    H134003   4.049   4.848   6.224
11354TIP3    H234004   3.899   4.867   6.222
11355TIP3   OH234005   2.686   1.420   3.840
11355TIP3    H134006   2.590   1.422   3.848
11355TIP3    H234007   2.711   1.512   3.831
11356TIP3   OH234008   6.535   5.547   4.115
11356TIP3    H134009   6.533   5.611   4.186
11356TIP3    H234010   6.466   5.575   4.055
11357TIP3   OH234011   7.472   4.529   4.870
11357TIP3    H134012   7.514   4.450   4.834
11357TIP3    H234013   7.441   4.576   4.793
11358TIP3   OH234014   6.892   6.917   1.164
11358TIP3    H134015   6.941   6.948   1.240
11358TIP3    H234016   6.869   6.996   1.116
11359TIP3   OH234017   5.685   5.838   5.274
11359TIP3    H134018   5.591   5.821   5.280
11359TIP3    H234019   5.695   5.889   5.193
11360TIP3   OH234020   0.079   2.849   4.457
11360TIP3    H134021   0.059   2.902   4.534
11360TIP3    H234022   0.097   2.912   4.387
11361TIP3   OH234023   5.587   4.343   0.619
11361TIP3    H134024   5.520   4.274   0.618
11361TIP3    H234025   5.539   4.424   0.634
11362TIP3   OH234026   0.829   0.059   6.658
11362TIP3    H134027   0.890   0.038   6.587
11362TIP3    H234028   0.804   0.150   6.642
11363TIP3   OH234029   0.600   6.138   1.462
11363TIP3    H134030   0.606   6.063   1.403
11363TIP3    H234031   0.682   6.134   1.513
11364TIP3   OH234032   6.045   0.766   5.828
11364TIP3    H134033   6.038   0.801   5.739
11364TIP3    H234034   6.135   0.735   5.835
11365TIP3   OH234035   5.865   6.592   6.804
11365TIP3    H134036   5.891   6.575   6.714
11365TIP3    H234037   5.925   6.661   6.834
11366TIP3   OH234038   1.606   5.768   2.175
11366TIP3    H134039   1.521   5.727   2.159
11366TIP3    H234040   1.606   5.789   2.268
11367TIP3   OH234041   3.656   5.837   2.494
11367TIP3    H134042   3.647   5.743   2.504
11367TIP3    H234043   3.750   5.854   2.505
11368TIP3   OH234044   0.023   0.974   3.041
11368TIP3    H134045  -0.045   0.908   3.056
11368TIP3    H234046   0.061   0.989   3.127
11369TIP3   OH234047   7.751   3.227   3.263
11369TIP3    H134048   7.669   3.211   3.217
11369TIP3    H234049   7.726   3.225   3.356
11370TIP3   OH234050   6.611   1.813   5.184
11370TIP3    H134051   6.582   1.746   5.121
11370TIP3    H234052   6.655   1.879   5.131
11371TIP3   OH234053   2.744   6.815   1.888
11371TIP3    H134054   2.744   6.829   1.793
11371TIP3    H234055   2.652   6.804   1.911
11372TIP3   OH234056   4.161   0.639   6.407
11372TIP3    H134057   4.202   0.576   6.466
11372TIP3    H234058   4.197   0.724   6.434
11373TIP3   OH234059   5.373   0.045   6.553
11373TIP3    H134060   5.295  -0.009   6.567
11373TIP3    H234061   5.340   0.134   6.548
11374TIP3   OH234062   6.359   7.138   3.887
11374TIP3    H134063   6.400   7.081   3.822
11374TIP3    H234064   6.344   7.082   3.963
11375TIP3   OH234065   2.331   4.236   3.020
11375TIP3    H134066   2.384   4.166   3.060
11375TIP3    H234067   2.250   4.236   3.070
11376TIP3   OH234068   2.443   4.167   4.787
11376TIP3    H134069   2.476   4.108   4.855
11376TIP3    H234070   2.506   4.159   4.715
11377TIP3   OH234071   0.844   1.517   5.936
11377TIP3    H134072   0.778   1.467   5.888
11377TIP3    H234073   0.868   1.461   6.010
11378TIP3   OH234074   3.197   5.776   3.189
11378TIP3    H134075   3.132   5.723   3.144
11378TIP3    H234076   3.176   5.866   3.166
11379TIP3   OH234077   0.908   6.975   1.479
11379TIP3    H134078   0.896   7.035   1.405
11379TIP3    H234079   0.828   6.983   1.530
11380TIP3   OH234080   2.148   2.202   5.799
11380TIP3    H134081   2.149   2.169   5.709
11380TIP3    H234082   2.199   2.138   5.849
11381TIP3   OH234083   3.106   2.106   3.818
11381TIP3    H134084   3.053   2.146   3.887
11381TIP3    H234085   3.172   2.056   3.865
11382TIP3   OH234086   7.760   7.375   1.660
11382TIP3    H134087   7.713   7.309   1.609
11382TIP3    H234088   7.723   7.459   1.630
11383TIP3   OH234089   7.131   1.793   3.540
11383TIP3    H134090   7.209   1.837   3.507
11383TIP3    H234091   7.096   1.746   3.465
11384TIP3   OH234092   1.837   4.984   3.712
11384TIP3    H134093   1.803   5.005   3.798
11384TIP3    H234094   1.922   4.943   3.729
11385TIP3   OH234095   3.958   4.361   3.670
11385TIP3    H134096   3.953   4.442   3.619
11385TIP3    H234097   4.043   4.364   3.713
11386TIP3   OH234098   1.561   1.278   2.994
11386TIP3    H134099   1.556   1.299   2.901
11386TIP3    H234100   1.496   1.334   3.036
11387TIP3   OH234101   0.450   5.612   1.182
11387TIP3    H134102   0.445   5.624   1.088
11387TIP3    H234103   0.446   5.518   1.195
11388TIP3   OH234104   8.141   4.338   3.599
11388TIP3    H134105   8.122   4.374   3.685
11388TIP3    H234106   8.056   4.314   3.563
11389TIP3   OH234107   1.134   7.690   6.394
11389TIP3    H134108   1.203   7.709   6.458
11389TIP3    H234109   1.167   7.727   6.312
11390TIP3   OH234110   3.457   1.505   3.849
11390TIP3    H134111   3.529   1.563   3.873
11390TIP3    H234112   3.498   1.418   3.843
11391TIP3   OH234113   0.229   5.791   4.539
11391TIP3    H134114   0.237   5.697   4.524
11391TIP3    H234115   0.214   5.828   4.452
11392TIP3   OH234116   7.565   4.152   2.726
11392TIP3    H134117   7.519   4.169   2.644
11392TIP3    H234118   7.584   4.239   2.761
11393TIP3   OH234119   0.646   1.749   4.513
11393TIP3    H134120   0.682   1.811   4.576
11393TIP3    H234121   0.686   1.773   4.430
11394TIP3   OH234122   6.025   7.387   3.730
11394TIP3    H134123   5.976   7.313   3.764
11394TIP3    H234124   6.007   7.458   3.791
11395TIP3   OH234125   1.488   7.777   1.194
11395TIP3    H134126   1.539   7.858   1.189
11395TIP3    H234127   1.429   7.782   1.118
11396TIP3   OH234128   8.325   0.703   1.636
11396TIP3    H134129   8.408   0.748   1.649
11396TIP3    H234130   8.278   0.715   1.718
11397TIP3   OH234131   4.792   7.664   2.842
11397TIP3    H134132   4.847   7.620   2.778
11397TIP3    H234133   4.832   7.751   2.852
11398TIP3   OH234134   7.921   6.138   1.897
11398TIP3    H134135   7.993   6.193   1.864
11398TIP3    H234136   7.843   6.173   1.855
11399TIP3   OH234137   3.456   3.249   5.083
11399TIP3    H134138   3.446   3.178   5.146
11399TIP3    H234139   3.403   3.320   5.118
11400TIP3   OH234140   1.622   2.202   3.318
11400TIP3    H134141   1.681   2.162   3.381
11400TIP3    H234142   1.665   2.285   3.294
11401TIP3   OH234143   6.142   7.872   3.579
11401TIP3    H134144   6.185   7.805   3.632
11401TIP3    H234145   6.054   7.838   3.563
11402TIP3   OH234146   1.618   7.615   1.924
11402TIP3    H134147   1.631   7.586   1.833
11402TIP3    H234148   1.705   7.639   1.954
11403TIP3   OH234149   1.432   6.761   6.703
11403TIP3    H134150   1.401   6.769   6.613
11403TIP3    H234151   1.355   6.781   6.757
11404TIP3   OH234152   1.786   7.692   2.649
11404TIP3    H134153   1.753   7.747   2.720
11404TIP3    H234154   1.709   7.678   2.593
11405TIP3   OH234155   0.583   6.556   0.352
11405TIP3    H134156   0.676   6.574   0.360
11405TIP3    H234157   0.544   6.598   0.429
11406TIP3   OH234158   5.289   6.992   2.131
11406TIP3    H134159   5.369   6.962   2.087
11406TIP3    H234160   5.299   6.965   2.222
11407TIP3   OH234161   4.540   2.026   6.700
11407TIP3    H134162   4.472   1.959   6.690
11407TIP3    H234163   4.571   2.014   6.790
11408TIP3   OH234164   5.428   5.854   4.782
11408TIP3    H134165   5.477   5.827   4.704
11408TIP3    H234166   5.367   5.920   4.750
11409TIP3   OH234167   5.584   4.988   4.148
11409TIP3    H134168   5.534   5.006   4.068
11409TIP3    H234169   5.544   4.909   4.184
11410TIP3   OH234170   3.223   4.479   4.278
11410TIP3    H134171   3.135   4.443   4.274
11410TIP3    H234172   3.265   4.446   4.198
11411TIP3   OH234173   7.663   6.848   6.758
11411TIP3    H134174   7.707   6.852   6.674
11411TIP3    H234175   7.575   6.815   6.739
11412TIP3   OH234176   8.222   2.906   5.906
11412TIP3    H134177   8.142   2.957   5.915
11412TIP3    H234178   8.290   2.959   5.948
11413TIP3   OH234179   2.428   4.073   5.673
11413TIP3    H134180   2.345   4.042   5.636
11413TIP3    H234181   2.451   4.007   5.738
11414TIP3   OH234182   5.660   5.651   0.520
11414TIP3    H134183   5.739   5.699   0.543
11414TIP3    H234184   5.622   5.625   0.605
11415TIP3   OH234185   2.976   5.639   5.703
11415TIP3    H134186   2.915   5.709   5.680
11415TIP3    H234187   2.947   5.610   5.790
11416TIP3   OH234188   0.513   7.596   1.398
11416TIP3    H134189   0.565   7.653   1.455
11416TIP3    H234190   0.478   7.529   1.457
11417TIP3   OH234191   3.839   5.169   6.094
11417TIP3    H134192   3.908   5.116   6.133
11417TIP3    H234193   3.826   5.241   6.156
11418TIP3   OH234194   7.380   2.728   2.868
11418TIP3    H134195   7.430   2.648   2.852
11418TIP3    H234196   7.296   2.698   2.903
11419TIP3   OH234197   4.401   2.792   2.111
11419TIP3    H134198   4.375   2.709   2.152
11419TIP3    H234199   4.489   2.808   2.143
11420TIP3   OH234200   6.743   7.247   6.461
11420TIP3    H134201   6.781   7.160   6.451
11420TIP3    H234202   6.752   7.267   6.554
11421TIP3   OH234203   6.761   6.031   6.624
11421TIP3    H134204   6.821   5.958   6.635
11421TIP3    H234205   6.702   6.026   6.699
11422TIP3   OH234206   1.293   6.476   6.609
11422TIP3    H134207   1.263   6.564   6.584
11422TIP3    H234208   1.333   6.489   6.695
11423TIP3   OH234209   7.771   2.131   5.589
11423TIP3    H134210   7.828   2.083   5.529
11423TIP3    H234211   7.697   2.073   5.604
11424TIP3   OH234212   1.023   5.374   0.836
11424TIP3    H134213   0.980   5.451   0.800
11424TIP3    H234214   1.020   5.310   0.764
11425TIP3   OH234215   2.093   7.056   3.951
11425TIP3    H134216   2.103   6.964   3.977
11425TIP3    H234217   2.183   7.085   3.934
11426TIP3   OH234218   6.560   1.435   3.288
11426TIP3    H134219   6.501   1.359   3.293
11426TIP3    H234220   6.632   1.413   3.347
11427TIP3   OH234221   0.685   6.965   1.962
11427TIP3    H134222   0.596   6.984   1.929
11427TIP3    H234223   0.689   6.869   1.964
11428TIP3   OH234224   1.381   6.203   2.669
11428TIP3    H134225   1.380   6.109   2.652
11428TIP3    H234226   1.294   6.221   2.707
11429TIP3   OH234227   1.714   2.894   1.064
11429TIP3    H134228   1.774   2.826   1.096
11429TIP3    H234229   1.691   2.866   0.975
11430TIP3   OH234230   7.046   4.047   2.264
11430TIP3    H134231   7.114   4.114   2.260
11430TIP3    H234232   6.964   4.096   2.270
11431TIP3   OH234233   8.407   3.155   6.296
11431TIP3    H134234   8.392   3.185   6.386
11431TIP3    H234235   8.320   3.129   6.265
11432TIP3   OH234236   5.535   5.711   1.719
11432TIP3    H134237   5.631   5.703   1.714
11432TIP3    H234238   5.511   5.755   1.637
11433TIP3   OH234239   4.798   1.665   5.294
11433TIP3    H134240   4.767   1.679   5.205
11433TIP3    H234241   4.773   1.574   5.314
11434TIP3   OH234242   5.490   3.228   5.935
11434TIP3    H134243   5.425   3.271   5.880
11434TIP3    H234244   5.487   3.136   5.908
11435TIP3   OH234245   0.692   5.699   1.246
11435TIP3    H134246   0.597   5.688   1.240
11435TIP3    H234247   0.716   5.653   1.327
11436TIP3   OH234248   7.576   7.339   2.338
11436TIP3    H134249   7.559   7.249   2.364
11436TIP3    H234250   7.607   7.332   2.248
11437TIP3   OH234251   6.831   4.396   4.946
11437TIP3    H134252   6.881   4.476   4.961
11437TIP3    H234253   6.782   4.382   5.027
11438TIP3   OH234254   4.167   6.979   1.935
11438TIP3    H134255   4.243   6.974   1.993
11438TIP3    H234256   4.182   6.910   1.870
11439TIP3   OH234257   1.249   5.197   2.893
11439TIP3    H134258   1.326   5.237   2.851
11439TIP3    H234259   1.241   5.112   2.850
11440TIP3   OH234260   7.199   4.755   3.196
11440TIP3    H134261   7.109   4.725   3.190
11440TIP3    H234262   7.206   4.794   3.283
11441TIP3   OH234263   2.406   2.303   4.698
11441TIP3    H134264   2.404   2.302   4.602
11441TIP3    H234265   2.482   2.249   4.721
11442TIP3   OH234266   3.526   2.802   0.388
11442TIP3    H134267   3.463   2.730   0.395
11442TIP3    H234268   3.611   2.759   0.381
11443TIP3   OH234269   5.247   2.660   1.702
11443TIP3    H134270   5.179   2.593   1.705
11443TIP3    H234271   5.202   2.741   1.726
11444TIP3   OH234272   4.694   3.919   5.763
11444TIP3    H134273   4.675   3.910   5.670
11444TIP3    H234274   4.760   3.852   5.781
11445TIP3   OH234275   0.678   0.120   5.487
11445TIP3    H134276   0.624   0.134   5.409
11445TIP3    H234277   0.658   0.030   5.513
11446TIP3   OH234278   1.954   4.936   0.558
11446TIP3    H134279   1.984   5.027   0.546
11446TIP3    H234280   2.015   4.884   0.505
11447TIP3   OH234281   4.723   0.467   6.530
11447TIP3    H134282   4.747   0.440   6.441
11447TIP3    H234283   4.656   0.403   6.557
11448TIP3   OH234284   1.210   3.133   4.676
11448TIP3    H134285   1.179   3.046   4.653
11448TIP3    H234286   1.244   3.170   4.595
11449TIP3   OH234287   1.088   0.498   5.070
11449TIP3    H134288   1.117   0.585   5.097
11449TIP3    H234289   1.097   0.444   5.148
11450TIP3   OH234290   5.864   1.115   1.281
11450TIP3    H134291   5.851   1.025   1.250
11450TIP3    H234292   5.948   1.141   1.244
11451TIP3   OH234293   7.729   1.752   1.021
11451TIP3    H134294   7.639   1.784   1.029
11451TIP3    H234295   7.742   1.697   1.099
11452TIP3   OH234296   8.054   7.013   0.931
11452TIP3    H134297   8.020   6.993   0.844
11452TIP3    H234298   8.148   6.997   0.924
11453TIP3   OH234299   6.622   5.814   5.119
11453TIP3    H134300   6.706   5.821   5.073
11453TIP3    H234301   6.624   5.884   5.184
11454TIP3   OH234302   3.437   5.807   6.774
11454TIP3    H134303   3.371   5.820   6.706
11454TIP3    H234304   3.520   5.833   6.733
11455TIP3   OH234305   3.471   0.720   1.238
11455TIP3    H134306   3.428   0.744   1.320
11455TIP3    H234307   3.561   0.752   1.247
11456TIP3   OH234308   6.054   2.153   4.507
11456TIP3    H134309   6.101   2.228   4.468
11456TIP3    H234310   5.962   2.174   4.495
11457TIP3   OH234311   5.344   0.940   2.765
11457TIP3    H134312   5.325   0.990   2.686
11457TIP3    H234313   5.439   0.947   2.776
11458TIP3   OH234314   0.372   3.193   4.406
11458TIP3    H134315   0.452   3.146   4.383
11458TIP3    H234316   0.371   3.194   4.502
11459TIP3   OH234317   0.900   2.204   6.277
11459TIP3    H134318   0.852   2.122   6.287
11459TIP3    H234319   0.916   2.211   6.183
11460TIP3   OH234320   0.106   1.518   3.730
11460TIP3    H134321   0.159   1.441   3.750
11460TIP3    H234322   0.151   1.559   3.656
11461TIP3   OH234323   4.145   1.454   4.595
11461TIP3    H134324   4.190   1.372   4.619
11461TIP3    H234325   4.216   1.517   4.581
11462TIP3   OH234326   6.502   0.195   6.288
11462TIP3    H134327   6.448   0.174   6.211
11462TIP3    H234328   6.513   0.112   6.333
11463TIP3   OH234329   1.502   3.637   0.983
11463TIP3    H134330   1.418   3.644   1.028
11463TIP3    H234331   1.565   3.621   1.053
11464TIP3   OH234332   1.577   4.278   4.821
11464TIP3    H134333   1.662   4.237   4.837
11464TIP3    H234334   1.532   4.273   4.905
11465TIP3   OH234335   5.365   3.666   3.960
11465TIP3    H134336   5.335   3.756   3.975
11465TIP3    H234337   5.303   3.630   3.897
11466TIP3   OH234338   3.741   7.748   1.039
11466TIP3    H134339   3.817   7.782   1.084
11466TIP3    H234340   3.773   7.669   0.994
11467TIP3   OH234341   3.139   0.163   1.479
11467TIP3    H134342   3.110   0.195   1.564
11467TIP3    H234343   3.067   0.183   1.420
11468TIP3   OH234344   6.804   1.601   0.623
11468TIP3    H134345   6.794   1.506   0.612
11468TIP3    H234346   6.716   1.632   0.644
11469TIP3   OH234347   1.754   2.773   2.410
11469TIP3    H134348   1.714   2.792   2.495
11469TIP3    H234349   1.684   2.731   2.360
11470TIP3   OH234350   1.710   6.094   6.187
11470TIP3    H134351   1.683   6.162   6.125
11470TIP3    H234352   1.629   6.068   6.231
11471TIP3   OH234353   3.126   6.131   5.558
11471TIP3    H134354   3.051   6.080   5.528
11471TIP3    H234355   3.124   6.123   5.654
11472TIP3   OH234356   2.385   3.590   1.833
11472TIP3    H134357   2.426   3.669   1.869
11472TIP3    H234358   2.433   3.518   1.873
11473TIP3   OH234359   5.777   0.430   4.188
11473TIP3    H134360   5.776   0.385   4.104
11473TIP3    H234361   5.858   0.481   4.187
11474TIP3   OH234362   0.678   5.428   6.050
11474TIP3    H134363   0.622   5.505   6.060
11474TIP3    H234364   0.756   5.448   6.101
11475TIP3   OH234365   2.503   3.157   6.291
11475TIP3    H134366   2.595   3.143   6.317
11475TIP3    H234367   2.495   3.113   6.207
11476TIP3   OH234368   2.659   6.025   5.433
11476TIP3    H134369   2.747   6.048   5.462
11476TIP3    H234370   2.661   5.930   5.422
11477TIP3   OH234371   6.078   4.370   2.272
11477TIP3    H134372   6.062   4.444   2.213
11477TIP3    H234373   6.160   4.393   2.317
11478TIP3   OH234374   8.076   3.283   1.421
11478TIP3    H134375   8.146   3.320   1.475
11478TIP3    H234376   8.088   3.324   1.335
11479TIP3   OH234377   0.576   1.018   0.882
11479TIP3    H134378   0.664   1.032   0.847
11479TIP3    H234379   0.521   1.011   0.804
11480TIP3   OH234380   2.213   3.418   3.864
11480TIP3    H134381   2.152   3.378   3.802
11480TIP3    H234382   2.265   3.345   3.897
11481TIP3   OH234383   5.484   2.413   3.709
11481TIP3    H134384   5.482   2.476   3.637
11481TIP3    H234385   5.430   2.452   3.777
11482TIP3   OH234386   1.401   6.722   1.173
11482TIP3    H134387   1.437   6.704   1.086
11482TIP3    H234388   1.443   6.658   1.230
11483TIP3   OH234389   4.935   2.554   4.506
11483TIP3    H134390   4.892   2.502   4.438
11483TIP3    H234391   4.961   2.635   4.462
11484TIP3   OH234392   1.519   7.274   0.649
11484TIP3    H134393   1.591   7.230   0.603
11484TIP3    H234394   1.494   7.211   0.717
11485TIP3   OH234395   7.022   1.264   3.455
11485TIP3    H134396   7.031   1.331   3.522
11485TIP3    H234397   7.112   1.236   3.438
11486TIP3   OH234398   1.456   7.285   1.067
11486TIP3    H134399   1.489   7.346   1.000
11486TIP3    H234400   1.508   7.205   1.054
11487TIP3   OH234401   2.513   2.296   0.511
11487TIP3    H134402   2.567   2.370   0.486
11487TIP3    H234403   2.458   2.329   0.582
11488TIP3   OH234404   4.170   0.872   6.707
11488TIP3    H134405   4.111   0.879   6.782
11488TIP3    H234406   4.173   0.960   6.670
11489TIP3   OH234407   2.795   7.319   5.580
11489TIP3    H134408   2.765   7.309   5.490
11489TIP3    H234409   2.784   7.412   5.600
11490TIP3   OH234410   5.565   5.749   3.785
11490TIP3    H134411   5.600   5.700   3.711
11490TIP3    H234412   5.594   5.700   3.862
11491TIP3   OH234413   5.718   5.306   5.735
11491TIP3    H134414   5.795   5.320   5.790
11491TIP3    H234415   5.749   5.321   5.646
11492TIP3   OH234416   0.059   2.122   4.183
11492TIP3    H134417   0.014   2.074   4.252
11492TIP3    H234418   0.023   2.211   4.188
11493TIP3   OH234419   7.878   4.999   6.346
11493TIP3    H134420   7.822   4.927   6.373
11493TIP3    H234421   7.966   4.962   6.344
11494TIP3   OH234422   3.370   1.919   4.986
11494TIP3    H134423   3.395   2.012   4.987
11494TIP3    H234424   3.395   1.887   5.072
11495TIP3   OH234425   7.001   4.397   1.970
11495TIP3    H134426   6.934   4.403   2.039
11495TIP3    H234427   6.962   4.442   1.895
11496TIP3   OH234428   4.337   0.196   4.792
11496TIP3    H134429   4.344   0.104   4.817
11496TIP3    H234430   4.367   0.244   4.869
11497TIP3   OH234431   3.726   3.454   1.649
11497TIP3    H134432   3.730   3.549   1.645
11497TIP3    H234433   3.815   3.425   1.628
11498TIP3   OH234434  -0.003   2.628   1.042
11498TIP3    H134435   0.076   2.578   1.062
11498TIP3    H234436  -0.050   2.634   1.125
11499TIP3   OH234437   7.673   7.659   0.556
11499TIP3    H134438   7.667   7.743   0.510
11499TIP3    H234439   7.755   7.621   0.527
11500TIP3   OH234440   8.385   2.877   5.189
11500TIP3    H134441   8.424   2.805   5.238
11500TIP3    H234442   8.318   2.913   5.247
11501TIP3   OH234443   3.700   5.500   4.201
11501TIP3    H134444   3.787   5.538   4.189
11501TIP3    H234445   3.681   5.511   4.294
11502TIP3   OH234446   1.060   4.103   5.472
11502TIP3    H134447   1.121   4.048   5.522
11502TIP3    H234448   1.105   4.120   5.390
11503TIP3   OH234449   1.616   4.630   4.959
11503TIP3    H134450   1.582   4.599   4.874
11503TIP3    H234451   1.543   4.619   5.019
11504TIP3   OH234452   1.966   0.140   3.347
11504TIP3    H134453   1.992   0.053   3.377
11504TIP3    H234454   2.027   0.160   3.275
11505TIP3   OH234455   4.293   5.169   2.251
11505TIP3    H134456   4.293   5.178   2.156
11505TIP3    H234457   4.384   5.183   2.277
11506TIP3   OH234458   6.460   3.587   5.853
11506TIP3    H134459   6.450   3.495   5.829
11506TIP3    H234460   6.433   3.635   5.775
11507TIP3   OH234461   4.943   1.031   1.858
11507TIP3    H134462   4.929   1.046   1.764
11507TIP3    H234463   4.995   0.951   1.862
11508TIP3   OH234464   1.461   3.929   1.174
11508TIP3    H134465   1.456   3.863   1.105
11508TIP3    H234466   1.408   4.002   1.142
11509TIP3   OH234467   3.104   0.279   5.858
11509TIP3    H134468   3.081   0.298   5.949
11509TIP3    H234469   3.200   0.275   5.858
11510TIP3   OH234470   2.969   3.826   5.376
11510TIP3    H134471   3.061   3.801   5.383
11510TIP3    H234472   2.941   3.791   5.292
11511TIP3   OH234473   1.865   1.928   3.170
11511TIP3    H134474   1.947   1.912   3.124
11511TIP3    H234475   1.797   1.913   3.104
11512TIP3   OH234476   5.737   7.686   3.321
11512TIP3    H134477   5.645   7.700   3.302
11512TIP3    H234478   5.781   7.763   3.284
11513TIP3   OH234479   0.112   1.524   0.221
11513TIP3    H134480   0.163   1.599   0.190
11513TIP3    H234481   0.145   1.506   0.308
11514TIP3   OH234482   3.774   5.726   2.124
11514TIP3    H134483   3.768   5.820   2.137
11514TIP3    H234484   3.697   5.691   2.169
11515TIP3   OH234485   7.723   3.672   4.185
11515TIP3    H134486   7.723   3.766   4.203
11515TIP3    H234487   7.787   3.662   4.114
11516TIP3   OH234488   4.878   0.886   2.949
11516TIP3    H134489   4.970   0.870   2.930
11516TIP3    H234490   4.869   0.981   2.942
11517TIP3   OH234491   2.498   7.487   6.307
11517TIP3    H134492   2.503   7.583   6.304
11517TIP3    H234493   2.579   7.458   6.266
11518TIP3   OH234494   5.853   3.441   6.247
11518TIP3    H134495   5.879   3.416   6.158
11518TIP3    H234496   5.782   3.381   6.269
11519TIP3   OH234497   4.339   6.496   2.873
11519TIP3    H134498   4.428   6.529   2.884
11519TIP3    H234499   4.323   6.501   2.779
11520TIP3   OH234500   7.552   4.649   4.118
11520TIP3    H134501   7.592   4.719   4.170
11520TIP3    H234502   7.622   4.619   4.060
11521TIP3   OH234503   3.405   7.190   1.400
11521TIP3    H134504   3.328   7.243   1.420
11521TIP3    H234505   3.403   7.181   1.304
11522TIP3   OH234506   6.999   1.853   1.447
11522TIP3    H134507   6.961   1.931   1.405
11522TIP3    H234508   7.054   1.813   1.380
11523TIP3   OH234509   4.134   0.598   1.331
11523TIP3    H134510   4.109   0.554   1.249
11523TIP3    H234511   4.225   0.571   1.345
11524TIP3   OH234512   5.468   5.330   4.051
11524TIP3    H134513   5.501   5.346   4.140
11524TIP3    H234514   5.375   5.355   4.055
11525TIP3   OH234515   7.118   3.356   4.243
11525TIP3    H134516   7.202   3.311   4.253
11525TIP3    H234517   7.141   3.441   4.204
11526TIP3   OH234518   5.251   5.062   4.154
11526TIP3    H134519   5.291   4.985   4.196
11526TIP3    H234520   5.220   5.115   4.227
11527TIP3   OH234521   6.483   7.149   4.336
11527TIP3    H134522   6.524   7.091   4.402
11527TIP3    H234523   6.538   7.227   4.336
11528TIP3   OH234524   1.588   0.011   0.505
11528TIP3    H134525   1.552  -0.074   0.533
11528TIP3    H234526   1.511   0.066   0.492
11529TIP3   OH234527   1.913   5.994   5.252
11529TIP3    H134528   1.903   5.919   5.192
11529TIP3    H234529   1.923   6.069   5.194
11530TIP3   OH234530   5.497   0.412   1.959
11530TIP3    H134531   5.545   0.329   1.960
11530TIP3    H234532   5.405   0.386   1.950
11531TIP3   OH234533   5.073   3.153   2.102
11531TIP3    H134534   5.150   3.207   2.089
11531TIP3    H234535   5.035   3.143   2.014
11532TIP3   OH234536   1.241   6.409   6.190
11532TIP3    H134537   1.257   6.351   6.116
11532TIP3    H234538   1.264   6.358   6.267
11533TIP3   OH234539   2.994   1.633   1.315
11533TIP3    H134540   2.926   1.604   1.375
11533TIP3    H234541   2.979   1.727   1.305
11534TIP3   OH234542   4.504   6.973   5.518
11534TIP3    H134543   4.457   6.896   5.548
11534TIP3    H234544   4.573   6.986   5.583
11535TIP3   OH234545   5.470   1.204   2.275
11535TIP3    H134546   5.515   1.287   2.257
11535TIP3    H234547   5.539   1.146   2.306
11536TIP3   OH234548   8.194   5.956   5.756
11536TIP3    H134549   8.134   5.993   5.692
11536TIP3    H234550   8.280   5.958   5.714
11537TIP3   OH234551   3.401   4.226   0.119
11537TIP3    H134552   3.487   4.224   0.078
11537TIP3    H234553   3.347   4.168   0.066
11538TIP3   OH234554   0.126   5.327   5.216
11538TIP3    H134555   0.207   5.321   5.165
11538TIP3    H234556   0.139   5.266   5.288
11539TIP3   OH234557   3.486   4.010   2.562
11539TIP3    H134558   3.535   4.090   2.540
11539TIP3    H234559   3.552   3.941   2.558
11540TIP3   OH234560   4.475   1.243   0.071
11540TIP3    H134561   4.417   1.258   0.145
11540TIP3    H234562   4.417   1.217   0.000
11541TIP3   OH234563   6.248   3.619   2.562
11541TIP3    H134564   6.330   3.589   2.523
11541TIP3    H234565   6.272   3.641   2.652
11542TIP3   OH234566   7.411   0.392   5.309
11542TIP3    H134567   7.367   0.368   5.227
11542TIP3    H234568   7.390   0.321   5.370
11543TIP3   OH234569   8.039   0.550   3.555
11543TIP3    H134570   8.093   0.628   3.561
11543TIP3    H234571   7.976   0.559   3.626
11544TIP3   OH234572   6.808   3.698   2.313
11544TIP3    H134573   6.888   3.747   2.298
11544TIP3    H234574   6.754   3.756   2.367
11545TIP3   OH234575   6.869   2.086   0.236
11545TIP3    H134576   6.849   2.110   0.327
11545TIP3    H234577   6.930   2.012   0.243
11546TIP3   OH234578   1.819   6.116   2.868
11546TIP3    H134579   1.814   6.198   2.917
11546TIP3    H234580   1.762   6.130   2.793
11547TIP3   OH234581   2.000   3.373   2.178
11547TIP3    H134582   2.058   3.332   2.243
11547TIP3    H234583   2.037   3.348   2.094
11548TIP3   OH234584   1.892   7.381   0.037
11548TIP3    H134585   1.919   7.396  -0.054
11548TIP3    H234586   1.797   7.383   0.034
11549TIP3   OH234587   5.321   5.978   3.755
11549TIP3    H134588   5.408   5.994   3.719
11549TIP3    H234589   5.326   5.891   3.794
11550TIP3   OH234590   4.617   1.874   0.732
11550TIP3    H134591   4.605   1.845   0.823
11550TIP3    H234592   4.532   1.860   0.691
11551TIP3   OH234593   5.884   5.318   6.073
11551TIP3    H134594   5.948   5.388   6.087
11551TIP3    H234595   5.913   5.275   5.993
11552TIP3   OH234596   5.825   5.247   4.952
11552TIP3    H134597   5.846   5.327   4.903
11552TIP3    H234598   5.754   5.206   4.903
11553TIP3   OH234599   2.835   2.968   6.160
11553TIP3    H134600   2.881   2.897   6.203
11553TIP3    H234601   2.756   2.928   6.125
11554TIP3   OH234602   1.380   4.461   5.579
11554TIP3    H134603   1.433   4.509   5.516
11554TIP3    H234604   1.324   4.528   5.619
11555TIP3   OH234605   1.713   1.854   6.819
11555TIP3    H134606   1.656   1.779   6.837
11555TIP3    H234607   1.657   1.917   6.773
11556TIP3   OH234608   4.990   6.693   4.094
11556TIP3    H134609   4.954   6.728   4.013
11556TIP3    H234610   5.008   6.601   4.076
11557TIP3   OH234611   1.056   7.038  -0.002
11557TIP3    H134612   1.101   6.959  -0.034
11557TIP3    H234613   1.124   7.087   0.044
11558TIP3   OH234614   4.521   4.730   6.176
11558TIP3    H134615   4.564   4.698   6.097
11558TIP3    H234616   4.470   4.655   6.207
11559TIP3   OH234617   1.481   6.966   3.757
11559TIP3    H134618   1.535   6.889   3.736
11559TIP3    H234619   1.515   6.997   3.841
11560TIP3   OH234620   3.503   2.939   6.824
11560TIP3    H134621   3.421   2.900   6.792
11560TIP3    H234622   3.480   3.030   6.844
11561TIP3   OH234623   6.937   0.411   2.752
11561TIP3    H134624   6.930   0.467   2.675
11561TIP3    H234625   6.865   0.439   2.808
11562TIP3   OH234626   7.434   1.714   6.353
11562TIP3    H134627   7.375   1.646   6.321
11562TIP3    H234628   7.384   1.796   6.344
11563TIP3   OH234629   4.001   0.688   6.192
11563TIP3    H134630   4.025   0.598   6.169
11563TIP3    H234631   4.038   0.701   6.279
11564TIP3   OH234632   0.270   7.096   3.617
11564TIP3    H134633   0.269   7.181   3.661
11564TIP3    H234634   0.196   7.099   3.557
11565TIP3   OH234635   0.701   2.017   4.088
11565TIP3    H134636   0.633   1.954   4.115
11565TIP3    H234637   0.727   1.989   4.001
11566TIP3   OH234638   5.227   6.082   1.728
11566TIP3    H134639   5.278   6.135   1.666
11566TIP3    H234640   5.262   6.107   1.814
11567TIP3   OH234641   4.047   3.026   1.926
11567TIP3    H134642   3.988   3.062   1.860
11567TIP3    H234643   3.991   2.970   1.981
11568TIP3   OH234644   2.938   5.594   6.327
11568TIP3    H134645   2.854   5.579   6.283
11568TIP3    H234646   2.919   5.664   6.390
11569TIP3   OH234647   5.823   2.417   4.894
11569TIP3    H134648   5.737   2.392   4.859
11569TIP3    H234649   5.883   2.351   4.860
11570TIP3   OH234650   3.550   0.809   3.090
11570TIP3    H134651   3.639   0.803   3.057
11570TIP3    H234652   3.534   0.903   3.099
11571TIP3   OH234653   2.946   1.766   3.099
11571TIP3    H134654   3.018   1.802   3.047
11571TIP3    H234655   2.929   1.680   3.061
11572TIP3   OH234656   7.006   3.093   4.582
11572TIP3    H134657   6.924   3.048   4.561
11572TIP3    H234658   7.010   3.092   4.678
11573TIP3   OH234659   0.718   1.072   6.455
11573TIP3    H134660   0.764   1.141   6.503
11573TIP3    H234661   0.644   1.117   6.414
11574TIP3   OH234662   1.458   2.608   0.582
11574TIP3    H134663   1.423   2.558   0.509
11574TIP3    H234664   1.415   2.694   0.575
11575TIP3   OH234665   1.964   7.825   1.137
11575TIP3    H134666   1.969   7.920   1.126
11575TIP3    H234667   1.964   7.812   1.232
11576TIP3   OH234668   1.383   4.199   0.865
11576TIP3    H134669   1.429   4.273   0.905
11576TIP3    H234670   1.418   4.194   0.777
11577TIP3   OH234671   6.551   3.617   4.467
11577TIP3    H134672   6.504   3.598   4.386
11577TIP3    H234673   6.604   3.539   4.483
11578TIP3   OH234674   0.167   2.668   4.245
11578TIP3    H134675   0.118   2.724   4.184
11578TIP3    H234676   0.141   2.699   4.332
11579TIP3   OH234677   1.691   7.484   3.217
11579TIP3    H134678   1.646   7.409   3.179
11579TIP3    H234679   1.626   7.554   3.216
11580TIP3   OH234680   6.215   4.815   0.702
11580TIP3    H134681   6.243   4.901   0.669
11580TIP3    H234682   6.158   4.781   0.633
11581TIP3   OH234683   3.339   7.556   4.732
11581TIP3    H134684   3.351   7.631   4.673
11581TIP3    H234685   3.249   7.565   4.764
11582TIP3   OH234686   7.943   5.710   2.047
11582TIP3    H134687   7.995   5.762   1.986
11582TIP3    H234688   7.948   5.758   2.130
11583TIP3   OH234689   2.737   6.077   0.941
11583TIP3    H134690   2.718   6.003   0.999
11583TIP3    H234691   2.824   6.108   0.969
11584TIP3   OH234692   1.701   5.783   1.659
11584TIP3    H134693   1.615   5.746   1.640
11584TIP3    H234694   1.737   5.726   1.728
11585TIP3   OH234695   1.061   1.078   5.126
11585TIP3    H134696   1.100   1.027   5.055
11585TIP3    H234697   1.063   1.168   5.095
11586TIP3   OH234698   1.062   4.060   2.665
11586TIP3    H134699   1.155   4.062   2.689
11586TIP3    H234700   1.059   4.103   2.580
11587TIP3   OH234701   1.447   5.326   2.695
11587TIP3    H134702   1.399   5.409   2.691
11587TIP3    H234703   1.532   5.346   2.655
11588TIP3   OH234704   2.384   7.090   5.953
11588TIP3    H134705   2.418   7.099   6.043
11588TIP3    H234706   2.315   7.024   5.961
11589TIP3   OH234707   3.281   3.821   6.746
11589TIP3    H134708   3.262   3.913   6.727
11589TIP3    H234709   3.377   3.815   6.744
11590TIP3   OH234710   2.624   3.790   5.249
11590TIP3    H134711   2.688   3.849   5.210
11590TIP3    H234712   2.584   3.841   5.319
11591TIP3   OH234713   0.356   5.930   3.134
11591TIP3    H134714   0.386   5.839   3.140
11591TIP3    H234715   0.275   5.932   3.184
11592TIP3   OH234716   2.027   2.106   4.819
11592TIP3    H134717   2.098   2.071   4.873
11592TIP3    H234718   2.072   2.139   4.741
11593TIP3   OH234719   2.042   3.342   3.643
11593TIP3    H134720   2.059   3.383   3.559
11593TIP3    H234721   2.004   3.257   3.622
11594TIP3   OH234722   3.616   5.569   1.929
11594TIP3    H134723   3.678   5.638   1.953
11594TIP3    H234724   3.579   5.599   1.846
11595TIP3   OH234725   8.267   3.192   3.520
11595TIP3    H134726   8.183   3.153   3.498
11595TIP3    H234727   8.325   3.166   3.449
11596TIP3   OH234728   0.970   0.722   0.369
11596TIP3    H134729   1.019   0.739   0.450
11596TIP3    H234730   1.008   0.782   0.305
11597TIP3   OH234731   6.730   0.946   5.732
11597TIP3    H134732   6.654   0.997   5.705
11597TIP3    H234733   6.705   0.855   5.716
11598TIP3   OH234734   7.199   5.265   5.655
11598TIP3    H134735   7.294   5.274   5.668
11598TIP3    H234736   7.169   5.353   5.634
11599TIP3   OH234737   3.225   1.415   0.307
11599TIP3    H134738   3.223   1.409   0.403
11599TIP3    H234739   3.182   1.498   0.287
11600TIP3   OH234740   5.079   5.882   0.574
11600TIP3    H134741   5.069   5.976   0.558
11600TIP3    H234742   5.172   5.865   0.562
11601TIP3   OH234743   7.821   2.720   2.095
11601TIP3    H134744   7.898   2.774   2.084
11601TIP3    H234745   7.756   2.758   2.036
11602TIP3   OH234746   6.208   3.395   4.441
11602TIP3    H134747   6.115   3.412   4.423
11602TIP3    H234748   6.230   3.454   4.514
11603TIP3   OH234749   1.090   4.017   3.783
11603TIP3    H134750   1.079   3.924   3.801
11603TIP3    H234751   1.014   4.058   3.825
11604TIP3   OH234752   0.684   7.668   5.427
11604TIP3    H134753   0.610   7.609   5.441
11604TIP3    H234754   0.648   7.739   5.373
11605TIP3   OH234755   0.987   5.929   4.421
11605TIP3    H134756   1.019   5.840   4.433
11605TIP3    H234757   0.906   5.933   4.471
11606TIP3   OH234758   1.009   3.354   0.424
11606TIP3    H134759   0.928   3.334   0.471
11606TIP3    H234760   1.073   3.292   0.460
11607TIP3   OH234761   5.192   3.659   2.044
11607TIP3    H134762   5.283   3.633   2.055
11607TIP3    H234763   5.183   3.677   1.950
11608TIP3   OH234764   4.323   2.593   5.923
11608TIP3    H134765   4.405   2.631   5.954
11608TIP3    H234766   4.302   2.525   5.988
11609TIP3   OH234767   5.510   4.341   3.903
11609TIP3    H134768   5.600   4.357   3.875
11609TIP3    H234769   5.473   4.428   3.914
11610TIP3   OH234770   0.885   4.660   0.990
11610TIP3    H134771   0.864   4.679   1.082
11610TIP3    H234772   0.947   4.587   0.995
11611TIP3   OH234773   7.398   5.091   5.905
11611TIP3    H134774   7.475   5.033   5.904
11611TIP3    H234775   7.333   5.044   5.956
11612TIP3   OH234776   5.144   4.175   2.213
11612TIP3    H134777   5.137   4.271   2.209
11612TIP3    H234778   5.238   4.158   2.212
11613TIP3   OH234779   6.089   2.637   2.788
11613TIP3    H134780   6.070   2.667   2.877
11613TIP3    H234781   6.109   2.544   2.797
11614TIP3   OH234782   5.754   0.028   5.313
11614TIP3    H134783   5.751   0.091   5.385
11614TIP3    H234784   5.790   0.077   5.240
11615TIP3   OH234785   0.694   6.118   4.834
11615TIP3    H134786   0.652   6.045   4.879
11615TIP3    H234787   0.719   6.178   4.904
11616TIP3   OH234788   5.150   1.376   5.788
11616TIP3    H134789   5.189   1.322   5.857
11616TIP3    H234790   5.073   1.415   5.829
11617TIP3   OH234791   8.101   7.670   5.474
11617TIP3    H134792   8.138   7.655   5.387
11617TIP3    H234793   8.126   7.592   5.524
11618TIP3   OH234794   3.157   2.013   0.751
11618TIP3    H134795   3.116   1.949   0.809
11618TIP3    H234796   3.141   2.098   0.792
11619TIP3   OH234797   3.346   3.747   4.390
11619TIP3    H134798   3.337   3.763   4.296
11619TIP3    H234799   3.405   3.817   4.420
11620TIP3   OH234800   0.776   7.294   2.411
11620TIP3    H134801   0.833   7.296   2.335
11620TIP3    H234802   0.688   7.281   2.375
11621TIP3   OH234803   7.693   5.362   4.420
11621TIP3    H134804   7.685   5.421   4.496
11621TIP3    H234805   7.753   5.293   4.449
11622TIP3   OH234806   8.290   1.478   0.506
11622TIP3    H134807   8.329   1.563   0.483
11622TIP3    H234808   8.216   1.470   0.446
11623TIP3   OH234809   3.436   6.957   5.097
11623TIP3    H134810   3.477   7.035   5.136
11623TIP3    H234811   3.458   6.886   5.157
11624TIP3   OH234812   2.752   0.021   4.099
11624TIP3    H134813   2.681   0.083   4.112
11624TIP3    H234814   2.762  -0.022   4.184
11625TIP3   OH234815   1.597   1.897   0.191
11625TIP3    H134816   1.599   1.810   0.231
11625TIP3    H234817   1.601   1.880   0.097
11626TIP3   OH234818   1.999   6.982   2.891
11626TIP3    H134819   1.984   6.985   2.796
11626TIP3    H234820   1.980   7.071   2.920
11627TIP3   OH234821   0.452   5.158   0.009
11627TIP3    H134822   0.406   5.122   0.084
11627TIP3    H234823   0.545   5.140   0.027
11628TIP3   OH234824   8.186   0.390   3.330
11628TIP3    H134825   8.194   0.304   3.371
11628TIP3    H234826   8.159   0.448   3.402
11629TIP3   OH234827   3.734   3.593   4.785
11629TIP3    H134828   3.824   3.623   4.772
11629TIP3    H234829   3.743   3.509   4.830
11630TIP3   OH234830   5.763   0.785   3.383
11630TIP3    H134831   5.751   0.832   3.465
11630TIP3    H234832   5.692   0.816   3.327
11631TIP3   OH234833   6.914   2.196   0.486
11631TIP3    H134834   6.930   2.280   0.531
11631TIP3    H234835   7.001   2.157   0.477
11632TIP3   OH234836   4.732   3.130   3.274
11632TIP3    H134837   4.760   3.152   3.363
11632TIP3    H234838   4.771   3.044   3.258
11633TIP3   OH234839   2.613   2.020   0.624
11633TIP3    H134840   2.522   2.042   0.601
11633TIP3    H234841   2.638   1.953   0.560
11634TIP3   OH234842   4.613   2.979   4.760
11634TIP3    H134843   4.600   3.071   4.736
11634TIP3    H234844   4.526   2.941   4.755
11635TIP3   OH234845   1.265   5.423   4.621
11635TIP3    H134846   1.307   5.394   4.701
11635TIP3    H234847   1.296   5.513   4.609
11636TIP3   OH234848   7.906   5.980   0.727
11636TIP3    H134849   7.983   5.997   0.781
11636TIP3    H234850   7.847   5.932   0.785
11637TIP3   OH234851   1.610   4.574   6.454
11637TIP3    H134852   1.704   4.564   6.467
11637TIP3    H234853   1.601   4.653   6.401
11638TIP3   OH234854   5.328   2.307   2.969
11638TIP3    H134855   5.360   2.248   3.037
11638TIP3    H234856   5.320   2.252   2.891
11639TIP3   OH234857   3.084   1.882   1.595
11639TIP3    H134858   3.123   1.881   1.683
11639TIP3    H234859   2.990   1.885   1.611
11640TIP3   OH234860   2.939   5.711   5.282
11640TIP3    H134861   2.982   5.642   5.333
11640TIP3    H234862   2.874   5.665   5.229
11641TIP3   OH234863   8.403   7.069   5.350
11641TIP3    H134864   8.362   7.094   5.267
11641TIP3    H234865   8.336   7.021   5.397
11642TIP3   OH234866   4.389   2.475   3.873
11642TIP3    H134867   4.477   2.512   3.867
11642TIP3    H234868   4.400   2.383   3.849
11643TIP3   OH234869   5.043   6.997   0.642
11643TIP3    H134870   5.124   7.020   0.597
11643TIP3    H234871   4.984   6.969   0.571
11644TIP3   OH234872   6.626   3.753   4.155
11644TIP3    H134873   6.537   3.735   4.125
11644TIP3    H234874   6.646   3.839   4.118
11645TIP3   OH234875   5.333   5.427   2.854
11645TIP3    H134876   5.388   5.497   2.820
11645TIP3    H234877   5.322   5.449   2.947
11646TIP3   OH234878   2.897   5.902   3.997
11646TIP3    H134879   2.881   5.830   4.059
11646TIP3    H234880   2.918   5.977   4.053
11647TIP3   OH234881   0.461   6.417   3.207
11647TIP3    H134882   0.379   6.421   3.157
11647TIP3    H234883   0.493   6.507   3.208
11648TIP3   OH234884   3.064   2.929   0.642
11648TIP3    H134885   2.979   2.966   0.668
11648TIP3    H234886   3.064   2.841   0.680
11649TIP3   OH234887   4.969   5.236   3.001
11649TIP3    H134888   4.964   5.220   2.907
11649TIP3    H234889   4.952   5.330   3.011
11650TIP3   OH234890   6.861   0.809   2.415
11650TIP3    H134891   6.904   0.807   2.329
11650TIP3    H234892   6.913   0.872   2.466
11651TIP3   OH234893   7.046   3.130   6.482
11651TIP3    H134894   7.061   3.035   6.490
11651TIP3    H234895   6.954   3.141   6.504
11652TIP3   OH234896   2.337   2.426   0.733
11652TIP3    H134897   2.380   2.491   0.678
11652TIP3    H234898   2.244   2.448   0.728
11653TIP3   OH234899   6.078   6.605   2.931
11653TIP3    H134900   6.154   6.619   2.987
11653TIP3    H234901   6.109   6.549   2.860
11654TIP3   OH234902   2.150   5.945   3.411
11654TIP3    H134903   2.059   5.973   3.426
11654TIP3    H234904   2.196   5.968   3.491
11655TIP3   OH234905   6.525   5.622   1.107
11655TIP3    H134906   6.610   5.628   1.151
11655TIP3    H234907   6.462   5.612   1.178
11656TIP3   OH234908   0.941   1.405   3.312
11656TIP3    H134909   0.992   1.324   3.313
11656TIP3    H234910   1.004   1.473   3.333
11657TIP3   OH234911   5.719   1.651   0.191
11657TIP3    H134912   5.674   1.674   0.110
11657TIP3    H234913   5.664   1.688   0.260
11658TIP3   OH234914   0.695   4.989   0.608
11658TIP3    H134915   0.696   4.950   0.696
11658TIP3    H234916   0.775   4.957   0.566
11659TIP3   OH234917   3.699   5.338   4.670
11659TIP3    H134918   3.758   5.288   4.727
11659TIP3    H234919   3.682   5.279   4.596
11660TIP3   OH234920   4.683   3.203   4.359
11660TIP3    H134921   4.659   3.292   4.383
11660TIP3    H234922   4.695   3.206   4.264
11661TIP3   OH234923   7.728   5.791   0.363
11661TIP3    H134924   7.738   5.702   0.395
11661TIP3    H234925   7.735   5.784   0.268
11662TIP3   OH234926   8.268   2.456   1.451
11662TIP3    H134927   8.247   2.482   1.361
11662TIP3    H234928   8.320   2.528   1.486
11663TIP3   OH234929   3.986   5.082   5.161
11663TIP3    H134930   4.010   5.088   5.253
11663TIP3    H234931   4.063   5.045   5.118
11664TIP3   OH234932   3.845   2.040   2.495
11664TIP3    H134933   3.764   2.049   2.445
11664TIP3    H234934   3.860   2.127   2.533
11665TIP3   OH234935   2.741   0.028   1.752
11665TIP3    H134936   2.724   0.119   1.776
11665TIP3    H234937   2.729  -0.021   1.833
11666TIP3   OH234938   6.000   3.988   6.698
11666TIP3    H134939   6.023   4.031   6.616
11666TIP3    H234940   6.065   3.917   6.706
11667TIP3   OH234941   1.709   1.485   1.514
11667TIP3    H134942   1.733   1.573   1.542
11667TIP3    H234943   1.637   1.498   1.453
11668TIP3   OH234944   5.198   1.888   5.797
11668TIP3    H134945   5.190   1.800   5.759
11668TIP3    H234946   5.133   1.940   5.749
11669TIP3   OH234947   5.578   2.052   4.462
11669TIP3    H134948   5.602   2.101   4.383
11669TIP3    H234949   5.553   2.120   4.525
11670TIP3   OH234950   0.073   5.321   1.314
11670TIP3    H134951   0.027   5.249   1.270
11670TIP3    H234952   0.093   5.383   1.244
11671TIP3   OH234953   5.306   4.266   0.956
11671TIP3    H134954   5.286   4.227   0.871
11671TIP3    H234955   5.235   4.330   0.970
11672TIP3   OH234956   0.382   6.315   1.380
11672TIP3    H134957   0.451   6.257   1.411
11672TIP3    H234958   0.389   6.392   1.436
11673TIP3   OH234959   6.304   4.770   6.516
11673TIP3    H134960   6.390   4.764   6.475
11673TIP3    H234961   6.258   4.836   6.466
11674TIP3   OH234962   7.231   4.035   1.270
11674TIP3    H134963   7.323   4.059   1.286
11674TIP3    H234964   7.192   4.029   1.357
11675TIP3   OH234965   4.380   5.368   1.501
11675TIP3    H134966   4.341   5.455   1.512
11675TIP3    H234967   4.379   5.353   1.406
11676TIP3   OH234968   7.671   6.874   1.567
11676TIP3    H134969   7.721   6.872   1.649
11676TIP3    H234970   7.583   6.902   1.593
11677TIP3   OH234971   2.230   4.989   6.237
11677TIP3    H134972   2.257   4.901   6.212
11677TIP3    H234973   2.290   5.013   6.307
11678TIP3   OH234974   0.471   1.400   5.443
11678TIP3    H134975   0.480   1.342   5.519
11678TIP3    H234976   0.490   1.344   5.368
11679TIP3   OH234977   0.280   4.891   5.152
11679TIP3    H134978   0.288   4.855   5.240
11679TIP3    H234979   0.222   4.830   5.106
11680TIP3   OH234980   6.129   7.321   3.487
11680TIP3    H134981   6.119   7.226   3.487
11680TIP3    H234982   6.082   7.350   3.566
11681TIP3   OH234983   0.067   0.454   2.607
11681TIP3    H134984   0.093   0.543   2.628
11681TIP3    H234985   0.149   0.408   2.592
11682TIP3   OH234986   3.073   1.080   2.405
11682TIP3    H134987   3.019   1.141   2.455
11682TIP3    H234988   3.013   1.011   2.378
11683TIP3   OH234989   0.405   1.331   2.427
11683TIP3    H134990   0.377   1.349   2.517
11683TIP3    H234991   0.497   1.307   2.434
11684TIP3   OH234992   6.932   1.106   5.632
11684TIP3    H134993   6.914   1.199   5.645
11684TIP3    H234994   6.855   1.062   5.667
11685TIP3   OH234995   7.266   6.675   1.198
11685TIP3    H134996   7.176   6.682   1.165
11685TIP3    H234997   7.306   6.759   1.177
11686TIP3   OH234998   5.936   1.066   0.716
11686TIP3    H134999   6.016   1.079   0.766
11686TIP3    H235000   5.913   1.153   0.682
11687TIP3   OH235001   6.537   2.490   2.525
11687TIP3    H135002   6.534   2.580   2.557
11687TIP3    H235003   6.621   2.484   2.479
11688TIP3   OH235004   6.124   2.163   3.459
11688TIP3    H135005   6.133   2.113   3.540
11688TIP3    H235006   6.039   2.138   3.424
11689TIP3   OH235007   7.302   3.724   1.484
11689TIP3    H135008   7.347   3.658   1.537
11689TIP3    H235009   7.370   3.788   1.462
11690TIP3   OH235010   6.433   7.776   4.913
11690TIP3    H135011   6.463   7.755   5.001
11690TIP3    H235012   6.498   7.838   4.879
11691TIP3   OH235013   2.119   2.323   2.096
11691TIP3    H135014   2.192   2.315   2.158
11691TIP3    H235015   2.161   2.346   2.013
11692TIP3   OH235016   6.755   7.639   4.604
11692TIP3    H135017   6.843   7.675   4.612
11692TIP3    H235018   6.757   7.560   4.659
11693TIP3   OH235019   7.014   3.806   6.776
11693TIP3    H135020   7.063   3.853   6.708
11693TIP3    H235021   6.993   3.722   6.735
11694TIP3   OH235022   1.832   3.513   1.816
11694TIP3    H135023   1.836   3.556   1.902
11694TIP3    H235024   1.890   3.438   1.824
11695TIP3   OH235025   7.102   6.530   3.516
11695TIP3    H135026   7.157   6.459   3.482
11695TIP3    H235027   7.155   6.609   3.506
11696TIP3   OH235028   3.605   0.892   1.835
11696TIP3    H135029   3.674   0.958   1.829
11696TIP3    H235030   3.533   0.929   1.784
11697TIP3   OH235031   3.665   0.117   3.041
11697TIP3    H135032   3.598   0.111   2.973
11697TIP3    H235033   3.622   0.085   3.120
11698TIP3   OH235034   7.479   3.844   3.637
11698TIP3    H135035   7.456   3.907   3.569
11698TIP3    H235036   7.415   3.774   3.628
11699TIP3   OH235037   3.354   6.936   4.646
11699TIP3    H135038   3.384   6.909   4.560
11699TIP3    H235039   3.282   6.997   4.629
11700TIP3   OH235040   2.417   3.700   6.370
11700TIP3    H135041   2.492   3.752   6.399
11700TIP3    H235042   2.442   3.609   6.389
11701TIP3   OH235043   8.088   7.877   2.866
11701TIP3    H135044   8.040   7.802   2.830
11701TIP3    H235045   8.082   7.866   2.961
11702TIP3   OH235046   2.704   5.208   2.014
11702TIP3    H135047   2.669   5.238   1.930
11702TIP3    H235048   2.627   5.186   2.066
11703TIP3   OH235049   7.478   6.538   5.985
11703TIP3    H135050   7.398   6.520   6.035
11703TIP3    H235051   7.542   6.475   6.019
11704TIP3   OH235052   0.816   4.384   0.210
11704TIP3    H135053   0.864   4.350   0.285
11704TIP3    H235054   0.852   4.336   0.135
11705TIP3   OH235055   5.380   2.017   0.400
11705TIP3    H135056   5.406   2.046   0.487
11705TIP3    H235057   5.440   1.946   0.379
11706TIP3   OH235058   1.327   7.956   0.694
11706TIP3    H135059   1.388   7.913   0.754
11706TIP3    H235060   1.265   7.887   0.669
11707TIP3   OH235061   7.734   7.774   6.821
11707TIP3    H135062   7.753   7.846   6.761
11707TIP3    H235063   7.758   7.807   6.907
11708TIP3   OH235064   3.998   5.926   5.528
11708TIP3    H135065   4.042   5.935   5.613
11708TIP3    H235066   4.068   5.932   5.464
11709TIP3   OH235067   3.166   3.943   5.607
11709TIP3    H135068   3.163   3.966   5.700
11709TIP3    H235069   3.081   3.902   5.590
11710TIP3   OH235070   3.615   2.649   6.385
11710TIP3    H135071   3.551   2.579   6.370
11710TIP3    H235072   3.693   2.603   6.414
11711TIP3   OH235073   0.227   2.870   6.257
11711TIP3    H135074   0.146   2.823   6.236
11711TIP3    H235075   0.261   2.898   6.171
11712TIP3   OH235076   6.699   7.662   6.483
11712TIP3    H135077   6.728   7.733   6.539
11712TIP3    H235078   6.766   7.595   6.492
11713TIP3   OH235079   1.872   2.775   5.927
11713TIP3    H135080   1.888   2.867   5.907
11713TIP3    H235081   1.776   2.769   5.935
11714TIP3   OH235082   6.299   0.053   0.382
11714TIP3    H135083   6.224   0.113   0.380
11714TIP3    H235084   6.292   0.009   0.467
11715TIP3   OH235085   2.025   5.487   5.628
11715TIP3    H135086   2.028   5.572   5.585
11715TIP3    H235087   2.113   5.451   5.618
11716TIP3   OH235088   0.585   1.610   1.406
11716TIP3    H135089   0.668   1.597   1.454
11716TIP3    H235090   0.555   1.522   1.387
11717TIP3   OH235091   1.529   3.720   4.201
11717TIP3    H135092   1.525   3.651   4.135
11717TIP3    H235093   1.468   3.787   4.170
11718TIP3   OH235094   5.936   3.640   6.542
11718TIP3    H135095   5.968   3.566   6.490
11718TIP3    H235096   5.854   3.609   6.580
11719TIP3   OH235097   5.083   1.690   1.478
11719TIP3    H135098   5.044   1.607   1.505
11719TIP3    H235099   5.159   1.664   1.426
11720TIP3   OH235100   1.637   4.292   4.258
11720TIP3    H135101   1.591   4.339   4.328
11720TIP3    H235102   1.615   4.340   4.178
11721TIP3   OH235103   0.262   2.925   4.805
11721TIP3    H135104   0.323   2.973   4.860
11721TIP3    H235105   0.282   2.833   4.823
11722TIP3   OH235106   5.250   3.116  -0.018
11722TIP3    H135107   5.298   3.034  -0.025
11722TIP3    H235108   5.222   3.120   0.073
11723TIP3   OH235109   0.312   1.185   0.319
11723TIP3    H135110   0.225   1.209   0.349
11723TIP3    H235111   0.297   1.122   0.249
11724TIP3   OH235112   4.236   2.529   4.160
11724TIP3    H135113   4.317   2.580   4.168
11724TIP3    H235114   4.237   2.496   4.070
11725TIP3   OH235115   4.408   7.752   5.259
11725TIP3    H135116   4.437   7.730   5.170
11725TIP3    H235117   4.422   7.846   5.266
11726TIP3   OH235118   6.714   1.169   6.283
11726TIP3    H135119   6.638   1.114   6.305
11726TIP3    H235120   6.698   1.251   6.328
11727TIP3   OH235121   1.924   7.620   5.650
11727TIP3    H135122   1.861   7.653   5.587
11727TIP3    H235123   2.000   7.594   5.597
11728TIP3   OH235124   4.463   5.138   5.641
11728TIP3    H135125   4.383   5.188   5.658
11728TIP3    H235126   4.500   5.123   5.729
11729TIP3   OH235127   6.193   3.138   2.472
11729TIP3    H135128   6.232   3.062   2.516
11729TIP3    H235129   6.181   3.110   2.381
11730TIP3   OH235130   7.162   4.782   1.060
11730TIP3    H135131   7.212   4.803   1.139
11730TIP3    H235132   7.083   4.835   1.068
11731TIP3   OH235133   7.015   5.742   2.295
11731TIP3    H135134   7.067   5.809   2.339
11731TIP3    H235135   7.032   5.756   2.202
11732TIP3   OH235136   1.993   4.491   3.046
11732TIP3    H135137   1.902   4.490   3.015
11732TIP3    H235138   2.029   4.572   3.010
11733TIP3   OH235139   6.906   7.032   0.682
11733TIP3    H135140   6.863   7.004   0.763
11733TIP3    H235141   6.835   7.041   0.619
11734TIP3   OH235142   5.389   4.038   5.725
11734TIP3    H135143   5.425   4.126   5.736
11734TIP3    H235144   5.422   4.009   5.640
11735TIP3   OH235145   3.662   6.415   0.165
11735TIP3    H135146   3.643   6.385   0.076
11735TIP3    H235147   3.663   6.511   0.158
11736TIP3   OH235148   6.751   7.051   5.520
11736TIP3    H135149   6.668   7.097   5.504
11736TIP3    H235150   6.770   7.068   5.612
11737TIP3   OH235151   6.280   7.832   2.009
11737TIP3    H135152   6.375   7.828   2.006
11737TIP3    H235153   6.259   7.878   2.090
11738TIP3   OH235154   2.885   3.192   4.018
11738TIP3    H135155   2.959   3.174   3.961
11738TIP3    H235156   2.900   3.138   4.095
11739TIP3   OH235157   4.121   4.031   6.153
11739TIP3    H135158   4.183   4.091   6.193
11739TIP3    H235159   4.036   4.057   6.187
11740TIP3   OH235160   4.444   6.983   6.579
11740TIP3    H135161   4.478   6.895   6.563
11740TIP3    H235162   4.512   7.027   6.630
11741TIP3   OH235163   5.529   6.189   1.674
11741TIP3    H135164   5.556   6.217   1.587
11741TIP3    H235165   5.492   6.268   1.714
11742TIP3   OH235166   6.264   1.959   3.347
11742TIP3    H135167   6.196   1.903   3.384
11742TIP3    H235168   6.233   2.049   3.363
11743TIP3   OH235169   1.514   7.092   0.858
11743TIP3    H135170   1.606   7.067   0.868
11743TIP3    H235171   1.470   7.053   0.933
11744TIP3   OH235172   1.568   7.143   5.501
11744TIP3    H135173   1.627   7.126   5.427
11744TIP3    H235174   1.484   7.107   5.474
11745TIP3   OH235175   6.920   2.598   2.848
11745TIP3    H135176   6.852   2.539   2.817
11745TIP3    H235177   6.989   2.540   2.881
11746TIP3   OH235178   3.163   6.588   3.535
11746TIP3    H135179   3.076   6.596   3.496
11746TIP3    H235180   3.145   6.575   3.629
11747TIP3   OH235181   4.678   2.094   1.462
11747TIP3    H135182   4.595   2.141   1.460
11747TIP3    H235183   4.697   2.075   1.370
11748TIP3   OH235184   4.414   7.774   6.816
11748TIP3    H135185   4.453   7.801   6.899
11748TIP3    H235186   4.397   7.680   6.827
11749TIP3   OH235187   2.589   6.521   2.686
11749TIP3    H135188   2.572   6.432   2.714
11749TIP3    H235189   2.680   6.521   2.658
11750TIP3   OH235190   6.150   6.166   2.386
11750TIP3    H135191   6.185   6.077   2.393
11750TIP3    H235192   6.174   6.194   2.297
11751TIP3   OH235193   7.328   4.583   1.696
11751TIP3    H135194   7.254   4.547   1.648
11751TIP3    H235195   7.334   4.674   1.667
11752TIP3   OH235196   0.498   6.959   6.358
11752TIP3    H135197   0.512   7.029   6.295
11752TIP3    H235198   0.447   7.000   6.428
11753TIP3   OH235199   3.259   7.044   6.737
11753TIP3    H135200   3.173   7.002   6.737
11753TIP3    H235201   3.297   7.020   6.822
11754TIP3   OH235202   5.884   6.104   2.509
11754TIP3    H135203   5.908   6.036   2.572
11754TIP3    H235204   5.964   6.122   2.460
11755TIP3   OH235205   0.505   1.588   6.226
11755TIP3    H135206   0.417   1.607   6.193
11755TIP3    H235207   0.525   1.500   6.193
11756TIP3   OH235208   1.996   4.160   2.526
11756TIP3    H135209   1.926   4.177   2.589
11756TIP3    H235210   2.037   4.079   2.556
11757TIP3   OH235211   0.158   4.993   1.967
11757TIP3    H135212   0.102   4.941   1.909
11757TIP3    H235213   0.117   4.983   2.054
11758TIP3   OH235214   7.271   2.347   5.563
11758TIP3    H135215   7.184   2.343   5.602
11758TIP3    H235216   7.281   2.437   5.532
11759TIP3   OH235217   6.805   5.770   2.519
11759TIP3    H135218   6.826   5.858   2.488
11759TIP3    H235219   6.755   5.731   2.447
11760TIP3   OH235220   4.640   0.160   4.026
11760TIP3    H135221   4.619   0.068   4.041
11760TIP3    H235222   4.735   0.161   4.013
11761TIP3   OH235223   6.714   6.799   2.449
11761TIP3    H135224   6.673   6.754   2.376
11761TIP3    H235225   6.652   6.789   2.522
11762TIP3   OH235226   2.559   4.020   4.238
11762TIP3    H135227   2.506   4.098   4.254
11762TIP3    H235228   2.504   3.966   4.182
11763TIP3   OH235229   0.504   4.350   0.525
11763TIP3    H135230   0.532   4.261   0.544
11763TIP3    H235231   0.585   4.397   0.504
11764TIP3   OH235232   3.773   7.005   4.873
11764TIP3    H135233   3.697   6.971   4.825
11764TIP3    H235234   3.761   7.100   4.872
11765TIP3   OH235235   8.324   6.237   0.342
11765TIP3    H135236   8.292   6.221   0.431
11765TIP3    H235237   8.251   6.280   0.298
11766TIP3   OH235238   1.675   2.837   0.797
11766TIP3    H135239   1.653   2.852   0.705
11766TIP3    H235240   1.645   2.748   0.815
11767TIP3   OH235241   5.275   6.591   5.553
11767TIP3    H135242   5.249   6.672   5.596
11767TIP3    H235243   5.236   6.596   5.465
11768TIP3   OH235244   6.860   3.017   4.952
11768TIP3    H135245   6.909   3.097   4.931
11768TIP3    H235246   6.927   2.955   4.981
11769TIP3   OH235247   0.170   5.792   5.918
11769TIP3    H135248   0.190   5.736   5.842
11769TIP3    H235249   0.249   5.846   5.929
11770TIP3   OH235250   6.986   5.395   1.890
11770TIP3    H135251   7.074   5.362   1.875
11770TIP3    H235252   6.961   5.358   1.975
11771TIP3   OH235253   1.466   4.401   1.188
11771TIP3    H135254   1.480   4.357   1.271
11771TIP3    H235255   1.373   4.390   1.169
11772TIP3   OH235256   4.709   0.661   2.201
11772TIP3    H135257   4.691   0.646   2.294
11772TIP3    H235258   4.623   0.650   2.159
11773TIP3   OH235259   5.041   0.436   1.298
11773TIP3    H135260   5.069   0.514   1.251
11773TIP3    H235261   5.107   0.424   1.366
11774TIP3   OH235262   2.716   3.444   5.312
11774TIP3    H135263   2.627   3.465   5.342
11774TIP3    H235264   2.772   3.462   5.388
11775TIP3   OH235265   6.344   2.344   3.720
11775TIP3    H135266   6.302   2.384   3.796
11775TIP3    H235267   6.288   2.367   3.646
11776TIP3   OH235268   5.510   0.859   1.975
11776TIP3    H135269   5.442   0.900   2.027
11776TIP3    H235270   5.463   0.802   1.914
11777TIP3   OH235271   4.789   0.247   2.431
11777TIP3    H135272   4.797   0.342   2.434
11777TIP3    H235273   4.867   0.214   2.475
11778TIP3   OH235274   0.140   3.446   3.760
11778TIP3    H135275   0.085   3.440   3.837
11778TIP3    H235276   0.085   3.489   3.694
11779TIP3   OH235277   4.109   0.533   5.217
11779TIP3    H135278   4.136   0.482   5.294
11779TIP3    H235279   4.014   0.541   5.225
11780TIP3   OH235280   0.619   7.052   3.376
11780TIP3    H135281   0.576   7.005   3.447
11780TIP3    H235282   0.556   7.049   3.303
11781TIP3   OH235283   0.014   2.209   5.332
11781TIP3    H135284   0.089   2.156   5.361
11781TIP3    H235285   0.022   2.209   5.236
11782TIP3   OH235286   6.833   4.144   0.626
11782TIP3    H135287   6.834   4.239   0.627
11782TIP3    H235288   6.890   4.118   0.698
11783TIP3   OH235289   4.704   3.656   3.093
11783TIP3    H135290   4.750   3.650   3.177
11783TIP3    H235291   4.737   3.582   3.042
11784TIP3   OH235292   2.639   0.937   1.841
11784TIP3    H135293   2.708   0.883   1.803
11784TIP3    H235294   2.576   0.950   1.770
11785TIP3   OH235295   6.752   2.285   3.793
11785TIP3    H135296   6.701   2.304   3.871
11785TIP3    H235297   6.696   2.226   3.741
11786TIP3   OH235298   1.832   5.821   6.869
11786TIP3    H135299   1.832   5.786   6.780
11786TIP3    H235300   1.789   5.906   6.861
11787TIP3   OH235301   0.442   5.237   6.741
11787TIP3    H135302   0.403   5.303   6.798
11787TIP3    H235303   0.442   5.277   6.654
11788TIP3   OH235304   3.715   6.205   4.697
11788TIP3    H135305   3.802   6.165   4.692
11788TIP3    H235306   3.672   6.159   4.769
11789TIP3   OH235307   1.501   2.149   5.660
11789TIP3    H135308   1.494   2.057   5.684
11789TIP3    H235309   1.484   2.197   5.741
11790TIP3   OH235310   8.366   6.262   6.218
11790TIP3    H135311   8.441   6.222   6.175
11790TIP3    H235312   8.321   6.190   6.262
11791TIP3   OH235313   3.631   3.533   6.553
11791TIP3    H135314   3.560   3.543   6.617
11791TIP3    H235315   3.643   3.439   6.545
11792TIP3   OH235316   1.839   5.719   5.164
11792TIP3    H135317   1.781   5.732   5.238
11792TIP3    H235318   1.891   5.641   5.186
11793TIP3   OH235319   7.465   6.366   3.529
11793TIP3    H135320   7.532   6.299   3.518
11793TIP3    H235321   7.514   6.447   3.547
11794TIP3   OH235322   5.872   3.870   3.361
11794TIP3    H135323   5.868   3.781   3.397
11794TIP3    H235324   5.780   3.895   3.349
11795TIP3   OH235325   3.853   1.599   5.427
11795TIP3    H135326   3.933   1.579   5.476
11795TIP3    H235327   3.870   1.566   5.339
11796TIP3   OH235328   5.170   4.768   6.475
11796TIP3    H135329   5.224   4.801   6.547
11796TIP3    H235330   5.100   4.833   6.466
11797TIP3   OH235331   4.324   1.086   2.155
11797TIP3    H135332   4.268   1.143   2.208
11797TIP3    H235333   4.345   1.137   2.078
11798TIP3   OH235334   0.877   0.200   2.225
11798TIP3    H135335   0.916   0.124   2.269
11798TIP3    H235336   0.783   0.182   2.227
11799TIP3   OH235337   1.581   2.646   3.732
11799TIP3    H135338   1.586   2.593   3.653
11799TIP3    H235339   1.533   2.725   3.705
11800TIP3   OH235340   7.995   6.328   3.629
11800TIP3    H135341   7.937   6.384   3.578
11800TIP3    H235342   8.066   6.307   3.568
11801TIP3   OH235343   6.912   5.046   5.953
11801TIP3    H135344   6.941   4.983   6.019
11801TIP3    H235345   6.830   5.081   5.987
11802TIP3   OH235346   2.692   4.749   5.289
11802TIP3    H135347   2.680   4.744   5.194
11802TIP3    H235348   2.648   4.670   5.322
11803TIP3   OH235349   7.408   0.678   3.855
11803TIP3    H135350   7.475   0.744   3.873
11803TIP3    H235351   7.368   0.660   3.940
11804TIP3   OH235352   7.908   1.522   3.169
11804TIP3    H135353   7.813   1.535   3.163
11804TIP3    H235354   7.946   1.590   3.114
11805TIP3   OH235355   4.994   3.383   4.512
11805TIP3    H135356   4.967   3.418   4.427
11805TIP3    H235357   5.047   3.452   4.551
11806TIP3   OH235358   3.142   2.349   2.958
11806TIP3    H135359   3.111   2.408   3.027
11806TIP3    H235360   3.080   2.277   2.958
11807TIP3   OH235361   3.878   7.565   0.567
11807TIP3    H135362   3.970   7.541   0.571
11807TIP3    H235363   3.832   7.484   0.543
11808TIP3   OH235364   5.831   0.672   2.426
11808TIP3    H135365   5.824   0.745   2.486
11808TIP3    H235366   5.922   0.642   2.434
11809TIP3   OH235367   3.880   7.139   3.241
11809TIP3    H135368   3.797   7.160   3.199
11809TIP3    H235369   3.856   7.078   3.312
11810TIP3   OH235370   6.167   5.564   1.714
11810TIP3    H135371   6.102   5.558   1.644
11810TIP3    H235372   6.126   5.619   1.780
11811TIP3   OH235373   3.835   4.797   2.319
11811TIP3    H135374   3.837   4.889   2.343
11811TIP3    H235375   3.917   4.761   2.354
11812TIP3   OH235376   2.224   3.513   6.691
11812TIP3    H135377   2.220   3.553   6.777
11812TIP3    H235378   2.202   3.421   6.706
11813TIP3   OH235379   4.372   4.363   6.583
11813TIP3    H135380   4.294   4.335   6.536
11813TIP3    H235381   4.340   4.391   6.669
11814TIP3   OH235382   7.057   7.269   4.015
11814TIP3    H135383   7.049   7.288   3.922
11814TIP3    H235384   7.028   7.350   4.059
11815TIP3   OH235385   1.774   5.123   5.305
11815TIP3    H135386   1.709   5.072   5.353
11815TIP3    H235387   1.768   5.090   5.215
11816TIP3   OH235388   7.782   3.372   3.533
11816TIP3    H135389   7.849   3.392   3.599
11816TIP3    H235390   7.815   3.410   3.452
11817TIP3   OH235391   8.348   1.890   0.142
11817TIP3    H135392   8.266   1.933   0.118
11817TIP3    H235393   8.410   1.917   0.074
11818TIP3   OH235394   3.719   5.990   3.670
11818TIP3    H135395   3.721   5.992   3.766
11818TIP3    H235396   3.633   6.026   3.648
11819TIP3   OH235397   3.488   6.057   1.262
11819TIP3    H135398   3.560   6.024   1.209
11819TIP3    H235399   3.528   6.082   1.345
11820TIP3   OH235400   3.471   0.619   5.456
11820TIP3    H135401   3.381   0.595   5.475
11820TIP3    H235402   3.523   0.547   5.491
11821TIP3   OH235403   6.613   5.176   2.123
11821TIP3    H135404   6.660   5.093   2.115
11821TIP3    H235405   6.525   5.151   2.151
11822TIP3   OH235406   2.004   4.108   1.827
11822TIP3    H135407   1.994   4.191   1.874
11822TIP3    H235408   1.957   4.121   1.745
11823TIP3   OH235409   6.715   4.559   6.513
11823TIP3    H135410   6.801   4.601   6.508
11823TIP3    H235411   6.730   4.469   6.485
11824TIP3   OH235412   1.496   2.050   4.799
11824TIP3    H135413   1.591   2.067   4.797
11824TIP3    H235414   1.456   2.135   4.783
11825TIP3   OH235415   2.404   7.890   4.619
11825TIP3    H135416   2.331   7.876   4.679
11825TIP3    H235417   2.475   7.836   4.655
11826TIP3   OH235418   3.206   1.924   4.547
11826TIP3    H135419   3.135   1.982   4.521
11826TIP3    H235420   3.189   1.907   4.640
11827TIP3   OH235421   2.623   6.207   1.196
11827TIP3    H135422   2.639   6.158   1.115
11827TIP3    H235423   2.641   6.298   1.173
11828TIP3   OH235424   3.171   5.827   3.735
11828TIP3    H135425   3.087   5.792   3.763
11828TIP3    H235426   3.149   5.894   3.669
11829TIP3   OH235427   5.338   6.654   2.175
11829TIP3    H135428   5.390   6.609   2.241
11829TIP3    H235429   5.384   6.639   2.092
11830TIP3   OH235430   8.181   0.181   3.512
11830TIP3    H135431   8.098   0.228   3.524
11830TIP3    H235432   8.160   0.090   3.533
11831TIP3   OH235433   3.239   2.856   6.747
11831TIP3    H135434   3.212   2.923   6.684
11831TIP3    H235435   3.160   2.837   6.797
11832TIP3   OH235436   2.620   2.192   6.472
11832TIP3    H135437   2.566   2.265   6.503
11832TIP3    H235438   2.661   2.225   6.392
11833TIP3   OH235439   2.082   6.468   6.260
11833TIP3    H135440   2.079   6.397   6.324
11833TIP3    H235441   2.026   6.537   6.297
11834TIP3   OH235442   0.043   2.402   4.869
11834TIP3    H135443   0.094   2.343   4.814
11834TIP3    H235444   0.039   2.484   4.819
11835TIP3   OH235445   1.356   6.456   1.808
11835TIP3    H135446   1.308   6.375   1.790
11835TIP3    H235447   1.303   6.525   1.768
11836TIP3   OH235448   4.203   2.583   5.120
11836TIP3    H135449   4.160   2.664   5.094
11836TIP3    H235450   4.232   2.598   5.210
11837TIP3   OH235451   5.878   5.147   2.864
11837TIP3    H135452   5.885   5.242   2.864
11837TIP3    H235453   5.947   5.118   2.803
11838TIP3   OH235454   4.935   1.525   0.194
11838TIP3    H135455   4.846   1.558   0.182
11838TIP3    H235456   4.923   1.441   0.237
11839TIP3   OH235457   2.212   5.829   3.814
11839TIP3    H135458   2.197   5.781   3.732
11839TIP3    H235459   2.188   5.768   3.883
11840TIP3   OH235460   1.177   1.940   1.041
11840TIP3    H135461   1.114   1.962   0.972
11840TIP3    H235462   1.254   1.992   1.021
11841TIP3   OH235463   2.924   4.535   2.043
11841TIP3    H135464   2.952   4.475   2.112
11841TIP3    H235465   2.974   4.615   2.059
11842TIP3   OH235466   4.683   2.550   0.741
11842TIP3    H135467   4.760   2.600   0.765
11842TIP3    H235468   4.609   2.605   0.769
11843TIP3   OH235469   7.037   2.319   1.656
11843TIP3    H135470   7.132   2.332   1.652
11843TIP3    H235471   7.022   2.280   1.741
11844TIP3   OH235472   2.523   5.211   6.246
11844TIP3    H135473   2.551   5.284   6.301
11844TIP3    H235474   2.579   5.217   6.168
11845TIP3   OH235475   8.206   0.789   3.882
11845TIP3    H135476   8.219   0.736   3.803
11845TIP3    H235477   8.290   0.833   3.895
11846TIP3   OH235478   0.931   1.699   1.748
11846TIP3    H135479   0.957   1.610   1.771
11846TIP3    H235480   1.002   1.754   1.779
11847TIP3   OH235481   4.336   1.202   6.032
11847TIP3    H135482   4.325   1.284   5.984
11847TIP3    H235483   4.279   1.140   5.986
11848TIP3   OH235484   8.067   0.158   0.419
11848TIP3    H135485   8.110   0.234   0.459
11848TIP3    H235486   8.139   0.105   0.385
11849TIP3   OH235487   3.791   5.490   2.288
11849TIP3    H135488   3.737   5.493   2.367
11849TIP3    H235489   3.835   5.405   2.292
11850TIP3   OH235490   3.322   2.566   4.680
11850TIP3    H135491   3.349   2.573   4.588
11850TIP3    H235492   3.259   2.494   4.681
11851TIP3   OH235493   6.465   7.361   1.967
11851TIP3    H135494   6.470   7.301   2.042
11851TIP3    H235495   6.414   7.434   1.999
11852TIP3   OH235496   3.593   6.742   5.216
11852TIP3    H135497   3.667   6.706   5.167
11852TIP3    H235498   3.610   6.716   5.307
11853TIP3   OH235499   0.716   2.675   3.736
11853TIP3    H135500   0.773   2.600   3.752
11853TIP3    H235501   0.701   2.712   3.823
11854TIP3   OH235502   1.446   3.642   1.280
11854TIP3    H135503   1.366   3.661   1.230
11854TIP3    H235504   1.414   3.619   1.368
11855TIP3   OH235505   7.063   5.102   6.707
11855TIP3    H135506   6.995   5.122   6.643
11855TIP3    H235507   7.018   5.056   6.778
11856TIP3   OH235508   8.086   7.679   0.416
11856TIP3    H135509   8.072   7.654   0.507
11856TIP3    H235510   8.179   7.698   0.409
11857TIP3   OH235511   7.782   5.802   0.860
11857TIP3    H135512   7.718   5.836   0.923
11857TIP3    H235513   7.734   5.734   0.812
11858TIP3   OH235514   6.478   0.186   0.979
11858TIP3    H135515   6.548   0.178   0.915
11858TIP3    H235516   6.516   0.155   1.061
11859TIP3   OH235517   7.975   1.020   5.644
11859TIP3    H135518   8.033   1.090   5.672
11859TIP3    H235519   7.920   1.002   5.720
11860TIP3   OH235520   2.444   2.645   2.550
11860TIP3    H135521   2.438   2.629   2.644
11860TIP3    H235522   2.488   2.568   2.515
11861TIP3   OH235523   0.347   6.042   4.893
11861TIP3    H135524   0.299   5.966   4.859
11861TIP3    H235525   0.433   6.008   4.915
11862TIP3   OH235526   3.479   0.426   2.950
11862TIP3    H135527   3.552   0.458   2.897
11862TIP3    H235528   3.492   0.332   2.955
11863TIP3   OH235529   7.371   3.984   2.100
11863TIP3    H135530   7.366   4.074   2.132
11863TIP3    H235531   7.339   3.931   2.172
11864TIP3   OH235532   2.615   2.999   4.840
11864TIP3    H135533   2.565   2.999   4.759
11864TIP3    H235534   2.566   2.943   4.899
11865TIP3   OH235535   6.491   0.940   6.852
11865TIP3    H135536   6.547   0.899   6.787
11865TIP3    H235537   6.518   0.901   6.935
11866TIP3   OH235538   7.508   3.210   4.458
11866TIP3    H135539   7.532   3.164   4.539
11866TIP3    H235540   7.416   3.189   4.445
11867TIP3   OH235541   4.833   3.098   0.219
11867TIP3    H135542   4.880   3.181   0.230
11867TIP3    H235543   4.783   3.088   0.299
11868TIP3   OH235544   4.078   1.429   1.161
11868TIP3    H135545   4.094   1.486   1.086
11868TIP3    H235546   4.000   1.379   1.136
11869TIP3   OH235547   4.335   2.964   4.948
11869TIP3    H135548   4.360   2.960   4.856
11869TIP3    H235549   4.389   2.898   4.991
11870TIP3   OH235550   5.121   0.777   4.845
11870TIP3    H135551   5.119   0.753   4.937
11870TIP3    H235552   5.058   0.719   4.803
11871TIP3   OH235553   0.491   2.161   1.997
11871TIP3    H135554   0.417   2.191   2.049
11871TIP3    H235555   0.451   2.119   1.920
11872TIP3   OH235556   1.576   3.352   5.641
11872TIP3    H135557   1.539   3.324   5.557
11872TIP3    H235558   1.519   3.312   5.706
11873TIP3   OH235559   1.014   2.979   3.902
11873TIP3    H135560   1.088   3.029   3.866
11873TIP3    H235561   0.945   2.987   3.836
11874TIP3   OH235562   1.264   3.434   6.751
11874TIP3    H135563   1.305   3.369   6.807
11874TIP3    H235564   1.171   3.411   6.751
11875TIP3   OH235565   4.948   1.758   3.053
11875TIP3    H135566   4.871   1.731   3.002
11875TIP3    H235567   5.001   1.807   2.990
11876TIP3   OH235568   6.185   2.080   5.749
11876TIP3    H135569   6.219   2.159   5.708
11876TIP3    H235570   6.143   2.031   5.678
11877TIP3   OH235571   8.288   6.649   2.926
11877TIP3    H135572   8.326   6.704   2.857
11877TIP3    H235573   8.352   6.651   2.997
11878TIP3   OH235574   0.040   6.757   1.195
11878TIP3    H135575  -0.034   6.773   1.254
11878TIP3    H235576   0.105   6.713   1.250
11879TIP3   OH235577   3.909   7.716   5.872
11879TIP3    H135578   4.000   7.710   5.841
11879TIP3    H235579   3.903   7.650   5.942
11880TIP3   OH235580   4.469   4.670   0.397
11880TIP3    H135581   4.418   4.614   0.456
11880TIP3    H235582   4.532   4.611   0.356
11881TIP3   OH235583   3.421   0.517   3.196
11881TIP3    H135584   3.434   0.465   3.117
11881TIP3    H235585   3.347   0.476   3.241
11882TIP3   OH235586   7.997   3.094   4.498
11882TIP3    H135587   7.930   3.144   4.451
11882TIP3    H235588   8.074   3.150   4.497
11883TIP3   OH235589   3.838   1.666   2.082
11883TIP3    H135590   3.833   1.570   2.088
11883TIP3    H235591   3.814   1.697   2.170
11884TIP3   OH235592   1.470   6.287   4.347
11884TIP3    H135593   1.492   6.256   4.259
11884TIP3    H235594   1.541   6.255   4.402
11885TIP3   OH235595   3.588   2.396   6.220
11885TIP3    H135596   3.640   2.401   6.139
11885TIP3    H235597   3.498   2.381   6.190
11886TIP3   OH235598   2.127   4.600   1.216
11886TIP3    H135599   2.079   4.552   1.148
11886TIP3    H235600   2.188   4.535   1.252
11887TIP3   OH235601   4.390   1.462   5.028
11887TIP3    H135602   4.398   1.445   5.122
11887TIP3    H235603   4.435   1.388   4.986
11888TIP3   OH235604   2.764   1.263   3.247
11888TIP3    H135605   2.804   1.230   3.166
11888TIP3    H235606   2.683   1.213   3.255
11889TIP3   OH235607   4.537   1.064   2.852
11889TIP3    H135608   4.475   1.006   2.896
11889TIP3    H235609   4.582   1.008   2.788
11890TIP3   OH235610   7.245   1.165   5.454
11890TIP3    H135611   7.211   1.102   5.518
11890TIP3    H235612   7.312   1.116   5.406
11891TIP3   OH235613   5.516   0.520   4.318
11891TIP3    H135614   5.594   0.473   4.289
11891TIP3    H235615   5.500   0.488   4.406
11892TIP3   OH235616   0.725   4.540   1.985
11892TIP3    H135617   0.658   4.608   1.981
11892TIP3    H235618   0.808   4.588   1.986
11893TIP3   OH235619   0.614   5.147   2.212
11893TIP3    H135620   0.687   5.085   2.204
11893TIP3    H235621   0.556   5.125   2.139
11894TIP3   OH235622   1.786   5.899   3.683
11894TIP3    H135623   1.863   5.937   3.725
11894TIP3    H235624   1.732   5.974   3.659
11895TIP3   OH235625   7.514   0.188   0.329
11895TIP3    H135626   7.558   0.248   0.269
11895TIP3    H235627   7.534   0.223   0.417
11896TIP3   OH235628   6.918   3.297   3.011
11896TIP3    H135629   6.824   3.298   3.031
11896TIP3    H235630   6.958   3.252   3.085
11897TIP3   OH235631   4.378   7.136   3.769
11897TIP3    H135632   4.416   7.169   3.687
11897TIP3    H235633   4.454   7.115   3.823
11898TIP3   OH235634   3.244   1.928   5.682
11898TIP3    H135635   3.199   1.872   5.746
11898TIP3    H235636   3.274   1.868   5.614
11899TIP3   OH235637   2.992   6.505   0.713
11899TIP3    H135638   2.997   6.410   0.724
11899TIP3    H235639   3.057   6.540   0.774
11900TIP3   OH235640   4.223   3.419   2.051
11900TIP3    H135641   4.254   3.448   2.137
11900TIP3    H235642   4.264   3.334   2.038
11901TIP3   OH235643   1.516   6.030   4.699
11901TIP3    H135644   1.462   6.069   4.767
11901TIP3    H235645   1.502   6.087   4.622
11902TIP3   OH235646   4.172   6.561   1.978
11902TIP3    H135647   4.230   6.610   2.036
11902TIP3    H235648   4.205   6.472   1.981
11903TIP3   OH235649   1.146   2.165   6.468
11903TIP3    H135650   1.209   2.094   6.453
11903TIP3    H235651   1.100   2.175   6.385
11904TIP3   OH235652   5.634   4.540   4.784
11904TIP3    H135653   5.576   4.494   4.722
11904TIP3    H235654   5.715   4.490   4.781
11905TIP3   OH235655   4.848   1.061   0.657
11905TIP3    H135656   4.931   1.103   0.680
11905TIP3    H235657   4.835   0.996   0.726
11906TIP3   OH235658   3.237   2.327   4.611
11906TIP3    H135659   3.146   2.306   4.588
11906TIP3    H235660   3.290   2.272   4.554
11907TIP3   OH235661   3.369   6.024   1.607
11907TIP3    H135662   3.327   5.976   1.535
11907TIP3    H235663   3.460   5.997   1.603
11908TIP3   OH235664   7.410   1.623   0.991
11908TIP3    H135665   7.368   1.596   0.909
11908TIP3    H235666   7.404   1.719   0.990
11909TIP3   OH235667   6.399   6.145   4.923
11909TIP3    H135668   6.325   6.088   4.902
11909TIP3    H235669   6.471   6.085   4.940
11910TIP3   OH235670   4.273   6.806   4.043
11910TIP3    H135671   4.262   6.712   4.033
11910TIP3    H235672   4.183   6.840   4.046
11911TIP3   OH235673   0.041   1.451   3.404
11911TIP3    H135674  -0.035   1.395   3.420
11911TIP3    H235675   0.114   1.391   3.395
11912TIP3   OH235676   4.545   7.093   3.469
11912TIP3    H135677   4.572   7.156   3.403
11912TIP3    H235678   4.467   7.051   3.431
11913TIP3   OH235679   8.022   0.568   5.221
11913TIP3    H135680   8.057   0.642   5.271
11913TIP3    H235681   7.941   0.601   5.183
11914TIP3   OH235682   1.262   5.471   2.384
11914TIP3    H135683   1.246   5.453   2.477
11914TIP3    H235684   1.174   5.481   2.347
11915TIP3   OH235685   4.681   1.865   1.234
11915TIP3    H135686   4.775   1.852   1.221
11915TIP3    H235687   4.652   1.789   1.284
11916TIP3   OH235688   3.549   2.148   5.161
11916TIP3    H135689   3.588   2.139   5.074
11916TIP3    H235690   3.546   2.059   5.196
11917TIP3   OH235691   5.042   7.007   0.187
11917TIP3    H135692   5.095   7.049   0.120
11917TIP3    H235693   5.006   6.929   0.144
11918TIP3   OH235694   7.121   0.518   6.786
11918TIP3    H135695   7.139   0.515   6.880
11918TIP3    H235696   7.027   0.534   6.780
11919TIP3   OH235697   8.135   0.742   2.538
11919TIP3    H135698   8.201   0.756   2.470
11919TIP3    H235699   8.066   0.692   2.495
11920TIP3   OH235700   5.549   0.774   0.449
11920TIP3    H135701   5.501   0.797   0.529
11920TIP3    H235702   5.638   0.807   0.464
11921TIP3   OH235703   7.738   7.096   5.572
11921TIP3    H135704   7.658   7.131   5.610
11921TIP3    H235705   7.737   7.003   5.595
11922TIP3   OH235706   6.010   4.497   5.574
11922TIP3    H135707   6.023   4.543   5.657
11922TIP3    H235708   5.929   4.447   5.587
11923TIP3   OH235709   8.081   0.883   2.762
11923TIP3    H135710   8.091   0.826   2.685
11923TIP3    H235711   8.123   0.965   2.736
11924TIP3   OH235712   7.391   1.822   3.776
11924TIP3    H135713   7.298   1.804   3.788
11924TIP3    H235714   7.436   1.757   3.830
11925TIP3   OH235715   4.864   6.987   6.319
11925TIP3    H135716   4.825   6.913   6.272
11925TIP3    H235717   4.848   6.968   6.411
11926TIP3   OH235718   2.340   5.074   4.913
11926TIP3    H135719   2.422   5.072   4.962
11926TIP3    H235720   2.317   4.982   4.900
11927TIP3   OH235721   8.181   3.873   1.456
11927TIP3    H135722   8.125   3.854   1.531
11927TIP3    H235723   8.144   3.953   1.418
11928TIP3   OH235724   7.837   4.558   5.370
11928TIP3    H135725   7.859   4.607   5.448
11928TIP3    H235726   7.777   4.490   5.400
11929TIP3   OH235727   6.672   7.389   0.410
11929TIP3    H135728   6.583   7.373   0.441
11929TIP3    H235729   6.670   7.365   0.318
11930TIP3   OH235730   3.272   6.764   6.277
11930TIP3    H135731   3.248   6.852   6.309
11930TIP3    H235732   3.308   6.779   6.190
11931TIP3   OH235733   2.955   4.548   0.614
11931TIP3    H135734   2.978   4.620   0.672
11931TIP3    H235735   2.860   4.542   0.620
11932TIP3   OH235736   8.392   5.877   3.590
11932TIP3    H135737   8.316   5.855   3.644
11932TIP3    H235738   8.428   5.956   3.630
11933TIP3   OH235739   1.528   0.820   5.277
11933TIP3    H135740   1.517   0.753   5.210
11933TIP3    H235741   1.460   0.885   5.258
11934TIP3   OH235742   5.274   1.937   3.200
11934TIP3    H135743   5.281   1.878   3.275
11934TIP3    H235744   5.209   1.895   3.143
11935TIP3   OH235745   0.092   6.912   6.590
11935TIP3    H135746   0.001   6.942   6.590
11935TIP3    H235747   0.085   6.816   6.591
11936TIP3   OH235748   7.922   4.963   4.589
11936TIP3    H135749   7.951   4.873   4.575
11936TIP3    H235750   7.963   4.989   4.672
11937TIP3   OH235751   2.886   7.763   4.288
11937TIP3    H135752   2.886   7.821   4.211
11937TIP3    H235753   2.827   7.692   4.264
11938TIP3   OH235754   5.191   2.134   2.753
11938TIP3    H135755   5.201   2.204   2.688
11938TIP3    H235756   5.096   2.124   2.762
11939TIP3   OH235757   0.085   5.768   5.175
11939TIP3    H135758  -0.007   5.760   5.150
11939TIP3    H235759   0.095   5.709   5.249
11940TIP3   OH235760   5.602   3.260   1.980
11940TIP3    H135761   5.532   3.255   2.045
11940TIP3    H235762   5.673   3.308   2.024
11941TIP3   OH235763   5.645   4.076   0.247
11941TIP3    H135764   5.664   4.169   0.260
11941TIP3    H235765   5.732   4.035   0.243
11942TIP3   OH235766   5.490   5.916   2.526
11942TIP3    H135767   5.535   5.925   2.610
11942TIP3    H235768   5.410   5.968   2.536
11943TIP3   OH235769   6.697   3.269   4.552
11943TIP3    H135770   6.638   3.215   4.605
11943TIP3    H235771   6.745   3.321   4.616
11944TIP3   OH235772   1.482   2.170   1.094
11944TIP3    H135773   1.540   2.097   1.115
11944TIP3    H235774   1.451   2.151   1.005
11945TIP3   OH235775   2.023   0.879   0.493
11945TIP3    H135776   2.105   0.909   0.533
11945TIP3    H235777   2.050   0.813   0.429
11946TIP3   OH235778   3.016   5.946   5.144
11946TIP3    H135779   3.053   5.859   5.125
11946TIP3    H235780   3.007   5.947   5.239
11947TIP3   OH235781   3.947   5.323   4.807
11947TIP3    H135782   3.906   5.331   4.893
11947TIP3    H235783   4.027   5.375   4.813
11948TIP3   OH235784   3.753   7.748   3.148
11948TIP3    H135785   3.675   7.694   3.153
11948TIP3    H235786   3.823   7.688   3.121
11949TIP3   OH235787   0.880   5.798   0.906
11949TIP3    H135788   0.814   5.827   0.844
11949TIP3    H235789   0.848   5.826   0.991
11950TIP3   OH235790   0.393   2.892   0.261
11950TIP3    H135791   0.404   2.845   0.179
11950TIP3    H235792   0.482   2.917   0.286
11951TIP3   OH235793   0.761   4.678   6.418
11951TIP3    H135794   0.688   4.705   6.362
11951TIP3    H235795   0.762   4.583   6.412
11952TIP3   OH235796   6.579   5.607   5.787
11952TIP3    H135797   6.566   5.645   5.700
11952TIP3    H235798   6.603   5.681   5.842
11953TIP3   OH235799   8.246   5.677   5.075
11953TIP3    H135800   8.257   5.725   4.992
11953TIP3    H235801   8.169   5.716   5.115
11954TIP3   OH235802   8.268   2.968   4.897
11954TIP3    H135803   8.201   3.025   4.935
11954TIP3    H235804   8.323   2.943   4.971
11955TIP3   OH235805   7.949   0.066   5.556
11955TIP3    H135806   7.983   0.106   5.636
11955TIP3    H235807   7.908  -0.015   5.585
11956TIP3   OH235808   6.564   4.046   3.048
11956TIP3    H135809   6.618   4.078   3.121
11956TIP3    H235810   6.572   3.951   3.052
11957TIP3   OH235811   7.987   1.239   2.631
11957TIP3    H135812   7.905   1.193   2.645
11957TIP3    H235813   8.034   1.232   2.714
11958TIP3   OH235814   5.031   2.328   4.157
11958TIP3    H135815   4.983   2.307   4.237
11958TIP3    H235816   5.121   2.340   4.185
11959TIP3   OH235817   2.445   7.391   4.281
11959TIP3    H135818   2.472   7.363   4.193
11959TIP3    H235819   2.510   7.350   4.339
11960TIP3   OH235820   6.000   3.773   4.748
11960TIP3    H135821   5.969   3.817   4.669
11960TIP3    H235822   5.969   3.828   4.820
11961TIP3   OH235823   0.520   1.342   6.786
11961TIP3    H135824   0.500   1.382   6.702
11961TIP3    H235825   0.505   1.248   6.773
11962TIP3   OH235826   3.115   1.076   1.283
11962TIP3    H135827   3.076   1.159   1.256
11962TIP3    H235828   3.209   1.088   1.271
11963TIP3   OH235829   6.826   0.437   4.748
11963TIP3    H135830   6.733   0.419   4.766
11963TIP3    H235831   6.837   0.413   4.655
11964TIP3   OH235832   0.725   1.829   3.071
11964TIP3    H135833   0.805   1.824   3.123
11964TIP3    H235834   0.717   1.742   3.031
11965TIP3   OH235835   8.080   5.660   4.601
11965TIP3    H135836   8.104   5.576   4.641
11965TIP3    H235837   8.080   5.643   4.507
11966TIP3   OH235838   0.327   4.397   1.976
11966TIP3    H135839   0.292   4.468   2.030
11966TIP3    H235840   0.379   4.345   2.037
11967TIP3   OH235841   1.421   5.362   1.400
11967TIP3    H135842   1.459   5.286   1.445
11967TIP3    H235843   1.371   5.324   1.328
11968TIP3   OH235844   6.270   4.496   6.350
11968TIP3    H135845   6.302   4.577   6.389
11968TIP3    H235846   6.342   4.434   6.361
11969TIP3   OH235847   6.929   4.705   3.250
11969TIP3    H135848   6.856   4.763   3.231
11969TIP3    H235849   6.954   4.726   3.340
11970TIP3   OH235850   0.198   6.321   3.109
11970TIP3    H135851   0.230   6.298   3.196
11970TIP3    H235852   0.106   6.345   3.122
11971TIP3   OH235853   6.232   5.630   3.579
11971TIP3    H135854   6.233   5.536   3.558
11971TIP3    H235855   6.162   5.639   3.644
11972TIP3   OH235856   4.968   7.554   0.580
11972TIP3    H135857   5.004   7.481   0.630
11972TIP3    H235858   5.044   7.601   0.547
11973TIP3   OH235859   4.199   0.081   6.435
11973TIP3    H135860   4.244   0.162   6.412
11973TIP3    H235861   4.270   0.017   6.447
11974TIP3   OH235862   2.605   2.414   6.279
11974TIP3    H135863   2.534   2.410   6.214
11974TIP3    H235864   2.579   2.484   6.339
11975TIP3   OH235865   7.197   6.309   2.831
11975TIP3    H135866   7.191   6.403   2.849
11975TIP3    H235867   7.270   6.278   2.885
11976TIP3   OH235868   6.885   2.410   5.797
11976TIP3    H135869   6.969   2.388   5.836
11976TIP3    H235870   6.823   2.351   5.840
11977TIP3   OH235871   4.041   2.791   5.285
11977TIP3    H135872   4.056   2.828   5.198
11977TIP3    H235873   4.058   2.863   5.346
11978TIP3   OH235874   3.389   4.707   3.433
11978TIP3    H135875   3.339   4.769   3.486
11978TIP3    H235876   3.325   4.642   3.404
11979TIP3   OH235877   5.682   5.910   4.091
11979TIP3    H135878   5.701   5.962   4.013
11979TIP3    H235879   5.593   5.935   4.116
11980TIP3   OH235880   3.796   6.271   5.230
11980TIP3    H135881   3.874   6.261   5.286
11980TIP3    H235882   3.728   6.302   5.290
11981TIP3   OH235883   3.907   6.889   2.257
11981TIP3    H135884   3.997   6.865   2.277
11981TIP3    H235885   3.886   6.842   2.176
11982TIP3   OH235886   2.013   3.090   2.326
11982TIP3    H135887   2.058   3.101   2.242
11982TIP3    H235888   1.921   3.077   2.303
11983TIP3   OH235889   7.489   5.274   1.961
11983TIP3    H135890   7.458   5.220   1.888
11983TIP3    H235891   7.409   5.310   1.999
11984TIP3   OH235892   3.732   3.710   3.559
11984TIP3    H135893   3.802   3.759   3.604
11984TIP3    H235894   3.717   3.634   3.614
11985TIP3   OH235895   2.592   0.286   1.747
11985TIP3    H135896   2.553   0.367   1.781
11985TIP3    H235897   2.656   0.316   1.682
11986TIP3   OH235898   1.103   6.848   6.214
11986TIP3    H135899   1.181   6.794   6.203
11986TIP3    H235900   1.134   6.929   6.254
11987TIP3   OH235901   5.807   6.445   5.848
11987TIP3    H135902   5.746   6.378   5.817
11987TIP3    H235903   5.787   6.522   5.795
11988TIP3   OH235904   7.703   2.984   5.765
11988TIP3    H135905   7.780   3.028   5.802
11988TIP3    H235906   7.629   3.017   5.816
11989TIP3   OH235907   7.551   5.562   0.153
11989TIP3    H135908   7.465   5.583   0.190
11989TIP3    H235909   7.566   5.629   0.087
11990TIP3   OH235910   8.055   6.049   6.637
11990TIP3    H135911   8.096   6.065   6.552
11990TIP3    H235912   8.028   5.958   6.633
11991TIP3   OH235913   3.596   3.684   1.488
11991TIP3    H135914   3.594   3.713   1.396
11991TIP3    H235915   3.546   3.603   1.489
11992TIP3   OH235916   2.709   4.371   2.410
11992TIP3    H135917   2.693   4.303   2.345
11992TIP3    H235918   2.649   4.443   2.386
11993TIP3   OH235919   6.509   4.267   1.494
11993TIP3    H135920   6.480   4.252   1.584
11993TIP3    H235921   6.548   4.184   1.467
11994TIP3   OH235922   7.012   5.629   3.827
11994TIP3    H135923   7.072   5.663   3.761
11994TIP3    H235924   6.928   5.672   3.807
11995TIP3   OH235925   7.265   0.691   1.858
11995TIP3    H135926   7.315   0.610   1.842
11995TIP3    H235927   7.183   0.662   1.897
11996TIP3   OH235928   7.932   3.165   0.543
11996TIP3    H135929   7.853   3.214   0.521
11996TIP3    H235930   7.960   3.201   0.627
11997TIP3   OH235931   6.105   1.123   5.136
11997TIP3    H135932   6.113   1.062   5.210
11997TIP3    H235933   6.109   1.210   5.177
11998TIP3   OH235934   5.569   0.296   5.987
11998TIP3    H135935   5.638   0.296   5.921
11998TIP3    H235936   5.615   0.296   6.071
11999TIP3   OH235937   5.473   6.890   4.130
11999TIP3    H135938   5.452   6.802   4.098
11999TIP3    H235939   5.507   6.936   4.053
12000TIP3   OH235940   4.641   1.477   3.089
12000TIP3    H135941   4.736   1.466   3.087
12000TIP3    H235942   4.624   1.516   3.175
12001TIP3   OH235943   4.922   2.097   2.786
12001TIP3    H135944   4.839   2.057   2.812
12001TIP3    H235945   4.897   2.172   2.732
12002TIP3   OH235946   4.518   5.537   6.108
12002TIP3    H135947   4.499   5.577   6.193
12002TIP3    H235948   4.614   5.541   6.102
12003TIP3   OH235949   7.754   6.742   2.500
12003TIP3    H135950   7.718   6.720   2.414
12003TIP3    H235951   7.741   6.663   2.552
12004TIP3   OH235952   4.135   0.213   1.260
12004TIP3    H135953   4.105   0.291   1.211
12004TIP3    H235954   4.218   0.190   1.220
12005TIP3   OH235955   1.034   5.655   4.546
12005TIP3    H135956   0.959   5.604   4.514
12005TIP3    H235957   1.026   5.653   4.641
12006TIP3   OH235958   3.104   5.300   6.124
12006TIP3    H135959   3.154   5.345   6.056
12006TIP3    H235960   3.107   5.208   6.099
12007TIP3   OH235961   0.431   4.721   4.911
12007TIP3    H135962   0.467   4.719   4.999
12007TIP3    H235963   0.339   4.741   4.922
12008TIP3   OH235964   6.892   0.642   5.973
12008TIP3    H135965   6.870   0.644   6.066
12008TIP3    H235966   6.829   0.581   5.934
12009TIP3   OH235967   0.124   5.260   1.855
12009TIP3    H135968   0.137   5.172   1.890
12009TIP3    H235969   0.156   5.318   1.924
12010TIP3   OH235970   2.314   2.308   3.243
12010TIP3    H135971   2.348   2.250   3.311
12010TIP3    H235972   2.219   2.302   3.250
12011TIP3   OH235973   6.030   3.116   6.304
12011TIP3    H135974   6.066   3.064   6.377
12011TIP3    H235975   6.077   3.085   6.227
12012TIP3   OH235976   5.341   3.889   3.287
12012TIP3    H135977   5.313   3.969   3.330
12012TIP3    H235978   5.304   3.895   3.199
12013TIP3   OH235979   0.483   3.901   5.200
12013TIP3    H135980   0.462   3.892   5.293
12013TIP3    H235981   0.515   3.991   5.191
12014TIP3   OH235982   2.164   5.482   1.155
12014TIP3    H135983   2.183   5.547   1.222
12014TIP3    H235984   2.245   5.477   1.104
12015TIP3   OH235985   5.208   5.828   2.420
12015TIP3    H135986   5.137   5.852   2.360
12015TIP3    H235987   5.288   5.843   2.370
12016TIP3   OH235988   4.873   1.573   3.543
12016TIP3    H135989   4.906   1.499   3.492
12016TIP3    H235990   4.853   1.641   3.479
12017TIP3   OH235991   5.371   1.205   0.609
12017TIP3    H135992   5.446   1.146   0.597
12017TIP3    H235993   5.410   1.288   0.635
12018TIP3   OH235994   4.230   1.282   1.701
12018TIP3    H135995   4.268   1.358   1.658
12018TIP3    H235996   4.183   1.236   1.632
12019TIP3   OH235997   6.268   2.432   2.480
12019TIP3    H135998   6.361   2.437   2.502
12019TIP3    H235999   6.266   2.398   2.391
12020TIP3   OH236000   4.668   1.358   5.264
12020TIP3    H136001   4.576   1.333   5.258
12020TIP3    H236002   4.689   1.352   5.358
12021TIP3   OH236003   2.914   2.528   2.699
12021TIP3    H136004   2.828   2.532   2.658
12021TIP3    H236005   2.952   2.615   2.685
12022TIP3   OH236006   2.830   7.601   0.069
12022TIP3    H136007   2.751   7.590   0.122
12022TIP3    H236008   2.823   7.690   0.035
12023TIP3   OH236009   8.219   2.245   3.556
12023TIP3    H136010   8.159   2.177   3.526
12023TIP3    H236011   8.295   2.237   3.498
12024TIP3   OH236012   1.782   3.019   6.534
12024TIP3    H136013   1.868   3.036   6.496
12024TIP3    H236014   1.771   2.924   6.526
12025TIP3   OH236015   1.146   3.690   1.591
12025TIP3    H136016   1.152   3.596   1.602
12025TIP3    H236017   1.236   3.720   1.582
12026TIP3   OH236018   1.581   5.068   3.344
12026TIP3    H136019   1.668   5.091   3.377
12026TIP3    H236020   1.594   4.983   3.301
12027TIP3   OH236021   2.176   4.272   0.925
12027TIP3    H136022   2.106   4.294   0.865
12027TIP3    H236023   2.152   4.315   1.007
12028TIP3   OH236024   5.651   2.485   1.258
12028TIP3    H136025   5.722   2.506   1.319
12028TIP3    H236026   5.648   2.560   1.198
12029TIP3   OH236027   4.257   4.829   0.356
12029TIP3    H136028   4.251   4.752   0.300
12029TIP3    H236029   4.351   4.844   0.366
12030TIP3   OH236030   6.359   6.117   1.366
12030TIP3    H136031   6.398   6.176   1.301
12030TIP3    H236032   6.402   6.141   1.448
12031TIP3   OH236033   7.114   6.339   6.731
12031TIP3    H136034   7.023   6.339   6.758
12031TIP3    H236035   7.137   6.247   6.722
12032TIP3   OH236036   7.025   5.132   0.048
12032TIP3    H136037   6.960   5.200   0.063
12032TIP3    H236038   6.974   5.051   0.044
12033TIP3   OH236039   4.014   4.203   3.082
12033TIP3    H136040   4.025   4.155   3.164
12033TIP3    H236041   4.088   4.175   3.028
12034TIP3   OH236042   0.855   0.833   3.265
12034TIP3    H136043   0.804   0.853   3.343
12034TIP3    H236044   0.865   0.738   3.266
12035TIP3   OH236045   4.524   7.025   2.339
12035TIP3    H136046   4.609   6.997   2.306
12035TIP3    H236047   4.495   6.953   2.395
12036TIP3   OH236048   3.045   1.895   4.231
12036TIP3    H136049   2.957   1.912   4.197
12036TIP3    H236050   3.059   1.963   4.298
12037TIP3   OH236051   3.750   1.733   4.200
12037TIP3    H136052   3.722   1.785   4.275
12037TIP3    H236053   3.841   1.713   4.217
12038TIP3   OH236054   7.851   4.765   0.610
12038TIP3    H136055   7.829   4.679   0.576
12038TIP3    H236056   7.940   4.782   0.578
12039TIP3   OH236057   5.095   5.875   1.914
12039TIP3    H136058   5.188   5.855   1.922
12039TIP3    H236059   5.090   5.933   1.838
12040TIP3   OH236060   6.548   2.740   1.069
12040TIP3    H136061   6.581   2.669   1.014
12040TIP3    H236062   6.461   2.712   1.095
12041TIP3   OH236063   7.289   5.146   0.077
12041TIP3    H136064   7.315   5.083   0.143
12041TIP3    H236065   7.194   5.148   0.082
12042TIP3   OH236066   7.631   1.144   6.547
12042TIP3    H136067   7.550   1.123   6.501
12042TIP3    H236068   7.668   1.059   6.571
12043TIP3   OH236069   7.419   0.486   0.530
12043TIP3    H136070   7.440   0.410   0.476
12043TIP3    H236071   7.339   0.462   0.576
12044TIP3   OH236072   1.573   6.619   1.526
12044TIP3    H136073   1.502   6.555   1.531
12044TIP3    H236074   1.530   6.703   1.540
12045TIP3   OH236075   5.196   6.881   4.570
12045TIP3    H136076   5.264   6.946   4.586
12045TIP3    H236077   5.127   6.928   4.523
12046TIP3   OH236078   7.034   3.248   1.802
12046TIP3    H136079   6.992   3.294   1.874
12046TIP3    H236080   7.120   3.222   1.836
12047TIP3   OH236081   1.904   0.156   1.053
12047TIP3    H136082   1.921   0.143   0.959
12047TIP3    H236083   1.831   0.218   1.055
12048TIP3   OH236084   4.855   0.730   6.214
12048TIP3    H136085   4.778   0.689   6.254
12048TIP3    H236086   4.917   0.658   6.203
12049TIP3   OH236087   0.159   0.751   2.016
12049TIP3    H136088   0.111   0.799   1.949
12049TIP3    H236089   0.171   0.663   1.978
12050TIP3   OH236090   4.629   0.914   3.595
12050TIP3    H136091   4.662   1.000   3.620
12050TIP3    H236092   4.698   0.877   3.540
12051TIP3   OH236093   3.549   1.298   5.360
12051TIP3    H136094   3.489   1.259   5.296
12051TIP3    H236095   3.531   1.392   5.355
12052TIP3   OH236096   7.521   3.097   1.550
12052TIP3    H136097   7.563   3.013   1.530
12052TIP3    H236098   7.544   3.153   1.476
12053TIP3   OH236099   1.702   0.363   4.535
12053TIP3    H136100   1.683   0.277   4.497
12053TIP3    H236101   1.685   0.425   4.464
12054TIP3   OH236102   3.737   5.173   3.134
12054TIP3    H136103   3.770   5.262   3.144
12054TIP3    H236104   3.654   5.172   3.183
12055TIP3   OH236105   7.304   6.939   0.871
12055TIP3    H136106   7.252   7.019   0.871
12055TIP3    H236107   7.385   6.962   0.917
12056TIP3   OH236108   6.623   5.526   5.227
12056TIP3    H136109   6.671   5.469   5.166
12056TIP3    H236110   6.600   5.603   5.175
12057TIP3   OH236111   4.197   7.722   6.433
12057TIP3    H136112   4.238   7.638   6.455
12057TIP3    H236113   4.159   7.708   6.346
12058TIP3   OH236114   6.933   3.861   4.900
12058TIP3    H136115   6.941   3.946   4.857
12058TIP3    H236116   6.842   3.835   4.884
12059TIP3   OH236117   0.641   6.055   6.675
12059TIP3    H136118   0.699   6.009   6.735
12059TIP3    H236119   0.601   6.124   6.727
12060TIP3   OH236120   3.565   3.690   6.226
12060TIP3    H136121   3.625   3.677   6.299
12060TIP3    H236122   3.594   3.626   6.160
12061TIP3   OH236123   7.724   1.843   0.621
12061TIP3    H136124   7.676   1.926   0.624
12061TIP3    H236125   7.723   1.817   0.529
12062TIP3   OH236126   2.071   4.700   2.202
12062TIP3    H136127   2.051   4.715   2.295
12062TIP3    H236128   2.051   4.608   2.188
12063TIP3   OH236129   6.906   0.322   5.674
12063TIP3    H136130   6.888   0.229   5.663
12063TIP3    H236131   6.866   0.345   5.758
12064TIP3   OH236132   6.444   2.283   4.512
12064TIP3    H136133   6.360   2.299   4.470
12064TIP3    H236134   6.435   2.197   4.553
12065TIP3   OH236135   8.206   0.901   2.146
12065TIP3    H136136   8.140   0.968   2.165
12065TIP3    H236137   8.155   0.821   2.132
12066TIP3   OH236138   3.003   7.730   2.137
12066TIP3    H136139   3.037   7.763   2.054
12066TIP3    H236140   3.048   7.782   2.203
12067TIP3   OH236141   1.174   3.982   1.631
12067TIP3    H136142   1.242   3.983   1.564
12067TIP3    H236143   1.133   3.896   1.622
12068TIP3   OH236144   2.507   7.922   0.033
12068TIP3    H136145   2.543   7.839   0.065
12068TIP3    H236146   2.451   7.898  -0.040
12069TIP3   OH236147   6.932   7.867   4.072
12069TIP3    H136148   6.988   7.839   3.999
12069TIP3    H236149   6.888   7.787   4.100
12070TIP3   OH236150   3.081   2.232   1.411
12070TIP3    H136151   3.165   2.198   1.440
12070TIP3    H236152   3.042   2.270   1.490
12071TIP3   OH236153   3.317   1.000   0.760
12071TIP3    H136154   3.288   0.918   0.720
12071TIP3    H236155   3.241   1.029   0.811
12072TIP3   OH236156   6.241   2.191   1.059
12072TIP3    H136157   6.164   2.208   1.114
12072TIP3    H236158   6.206   2.141   0.985
12073TIP3   OH236159   4.762   1.460   4.826
12073TIP3    H136160   4.691   1.402   4.851
12073TIP3    H236161   4.728   1.511   4.754
12074TIP3   OH236162   8.105   4.468   2.286
12074TIP3    H136163   8.052   4.516   2.223
12074TIP3    H236164   8.054   4.389   2.305
12075TIP3   OH236165   2.936   6.089   4.224
12075TIP3    H136166   2.842   6.073   4.218
12075TIP3    H236167   2.948   6.141   4.303
12076TIP3   OH236168   1.702   6.567   6.245
12076TIP3    H136169   1.641   6.503   6.281
12076TIP3    H236170   1.649   6.646   6.232
12077TIP3   OH236171   7.923   0.697   3.223
12077TIP3    H136172   7.883   0.768   3.172
12077TIP3    H236173   7.957   0.741   3.301
12078TIP3   OH236174   1.011   5.908   1.419
12078TIP3    H136175   1.022   5.985   1.476
12078TIP3    H236176   1.045   5.936   1.334
12079TIP3   OH236177   3.433   7.561   0.203
12079TIP3    H136178   3.438   7.493   0.136
12079TIP3    H236179   3.525   7.584   0.221
12080TIP3   OH236180   2.248   2.618   3.667
12080TIP3    H136181   2.259   2.654   3.579
12080TIP3    H236182   2.237   2.694   3.723
12081TIP3   OH236183   6.663   0.892   2.821
12081TIP3    H136184   6.741   0.890   2.875
12081TIP3    H236185   6.600   0.945   2.870
12082TIP3   OH236186   7.283   2.301   0.827
12082TIP3    H136187   7.354   2.272   0.771
12082TIP3    H236188   7.303   2.392   0.847
12083TIP3   OH236189   1.160   0.660   3.377
12083TIP3    H136190   1.172   0.699   3.291
12083TIP3    H236191   1.199   0.722   3.438
12084TIP3   OH236192   6.947   6.583   3.235
12084TIP3    H136193   7.001   6.575   3.313
12084TIP3    H236194   6.954   6.497   3.192
12085TIP3   OH236195   0.551   2.624   1.635
12085TIP3    H136196   0.582   2.564   1.703
12085TIP3    H236197   0.511   2.696   1.684
12086TIP3   OH236198   4.541   0.198   6.803
12086TIP3    H136199   4.534   0.196   6.708
12086TIP3    H236200   4.450   0.204   6.833
12087TIP3   OH236201   5.722   2.353   0.691
12087TIP3    H136202   5.751   2.439   0.659
12087TIP3    H236203   5.628   2.351   0.674
12088TIP3   OH236204   1.133   1.003   5.792
12088TIP3    H136205   1.224   0.986   5.768
12088TIP3    H236206   1.092   0.917   5.794
12089TIP3   OH236207   2.600   5.547   5.455
12089TIP3    H136208   2.600   5.605   5.379
12089TIP3    H236209   2.542   5.590   5.518
12090TIP3   OH236210   7.566   5.598   0.994
12090TIP3    H136211   7.647   5.548   0.985
12090TIP3    H236212   7.518   5.552   1.063
12091TIP3   OH236213   4.021   0.420   3.202
12091TIP3    H136214   3.964   0.415   3.279
12091TIP3    H236215   4.031   0.514   3.187
12092TIP3   OH236216   6.537   4.905   5.513
12092TIP3    H136217   6.560   4.953   5.592
12092TIP3    H236218   6.620   4.895   5.465
12093TIP3   OH236219   1.888   5.246   3.668
12093TIP3    H136220   1.930   5.250   3.754
12093TIP3    H236221   1.847   5.160   3.666
12094TIP3   OH236222   7.443   2.675   5.509
12094TIP3    H136223   7.487   2.593   5.532
12094TIP3    H236224   7.351   2.651   5.502
12095TIP3   OH236225   3.139   2.887   3.291
12095TIP3    H136226   3.215   2.841   3.326
12095TIP3    H236227   3.151   2.978   3.320
12096TIP3   OH236228   5.094   6.685   3.795
12096TIP3    H136229   5.063   6.689   3.705
12096TIP3    H236230   5.111   6.592   3.810
12097TIP3   OH236231   5.348   6.155   1.239
12097TIP3    H136232   5.409   6.154   1.166
12097TIP3    H236233   5.342   6.247   1.264
12098TIP3   OH236234   6.560   0.567   0.497
12098TIP3    H136235   6.563   0.599   0.407
12098TIP3    H236236   6.511   0.484   0.491
12099TIP3   OH236237   6.281   1.414   0.849
12099TIP3    H136238   6.225   1.404   0.926
12099TIP3    H236239   6.219   1.426   0.777
12100TIP3   OH236240   8.022   5.602   6.545
12100TIP3    H136241   8.100   5.564   6.584
12100TIP3    H236242   7.975   5.641   6.619
12101TIP3   OH236243   1.713   3.628   4.713
12101TIP3    H136244   1.753   3.573   4.780
12101TIP3    H236245   1.666   3.567   4.656
12102TIP3   OH236246   3.252   3.082   5.422
12102TIP3    H136247   3.277   3.023   5.492
12102TIP3    H236248   3.332   3.131   5.403
12103TIP3   OH236249   1.020   7.340   5.710
12103TIP3    H136250   1.005   7.408   5.775
12103TIP3    H236251   1.082   7.379   5.648
12104TIP3   OH236252   6.089   2.088   6.025
12104TIP3    H136253   6.101   2.106   5.931
12104TIP3    H236254   6.108   2.171   6.068
12105TIP3   OH236255   1.191   2.773   5.868
12105TIP3    H136256   1.252   2.769   5.941
12105TIP3    H236257   1.185   2.867   5.847
12106TIP3   OH236258   3.810   3.102   4.852
12106TIP3    H136259   3.786   3.015   4.885
12106TIP3    H236260   3.746   3.161   4.892
12107TIP3   OH236261   5.667   4.154   4.861
12107TIP3    H136262   5.705   4.217   4.922
12107TIP3    H236263   5.703   4.070   4.888
12108TIP3   OH236264   0.544   5.164   4.324
12108TIP3    H136265   0.635   5.165   4.292
12108TIP3    H236266   0.542   5.091   4.387
12109TIP3   OH236267   6.951   3.554   2.821
12109TIP3    H136268   6.961   3.648   2.810
12109TIP3    H236269   7.041   3.521   2.828
12110TIP3   OH236270   3.657   5.999   5.126
12110TIP3    H136271   3.734   6.008   5.183
12110TIP3    H236272   3.670   5.915   5.082
12111TIP3   OH236273   3.369   5.351   5.929
12111TIP3    H136274   3.401   5.428   5.976
12111TIP3    H236275   3.420   5.278   5.966
12112TIP3   OH236276   3.690   3.305   0.543
12112TIP3    H136277   3.601   3.279   0.520
12112TIP3    H236278   3.706   3.265   0.628
12113TIP3   OH236279   4.538   1.522   4.652
12113TIP3    H136280   4.546   1.554   4.562
12113TIP3    H236281   4.541   1.427   4.644
12114TIP3   OH236282   7.375   2.757   2.147
12114TIP3    H136283   7.297   2.808   2.168
12114TIP3    H236284   7.427   2.815   2.091
12115TIP3   OH236285   0.780   4.857   0.837
12115TIP3    H136286   0.702   4.869   0.891
12115TIP3    H236287   0.825   4.782   0.876
12116TIP3   OH236288   2.228   5.340   5.084
12116TIP3    H136289   2.230   5.341   5.180
12116TIP3    H236290   2.232   5.247   5.061
12117TIP3   OH236291   7.968   4.358   4.472
12117TIP3    H136292   8.022   4.345   4.395
12117TIP3    H236293   7.995   4.289   4.533
12118TIP3   OH236294   3.643   6.307   3.359
12118TIP3    H136295   3.726   6.261   3.359
12118TIP3    H236296   3.620   6.316   3.267
12119TIP3   OH236297   7.638   0.278   0.553
12119TIP3    H136298   7.656   0.365   0.589
12119TIP3    H236299   7.714   0.226   0.577
12120TIP3   OH236300   0.727   3.467   6.796
12120TIP3    H136301   0.725   3.562   6.805
12120TIP3    H236302   0.673   3.448   6.719
12121TIP3   OH236303   6.220   5.670   5.180
12121TIP3    H136304   6.173   5.753   5.193
12121TIP3    H236305   6.173   5.607   5.234
12122TIP3   OH236306   8.341   0.737   1.109
12122TIP3    H136307   8.344   0.768   1.200
12122TIP3    H236308   8.334   0.642   1.116
12123TIP3   OH236309   8.166   4.700   0.784
12123TIP3    H136310   8.154   4.605   0.787
12123TIP3    H236311   8.261   4.712   0.787
12124TIP3   OH236312   1.169   0.837   4.231
12124TIP3    H136313   1.235   0.810   4.295
12124TIP3    H236314   1.086   0.811   4.270
12125TIP3   OH236315   1.147   4.970   2.377
12125TIP3    H136316   1.172   4.954   2.469
12125TIP3    H236317   1.230   4.963   2.329
12126TIP3   OH236318   1.370   4.646   2.786
12126TIP3    H136319   1.334   4.627   2.700
12126TIP3    H236320   1.464   4.653   2.772
12127TIP3   OH236321   4.486   6.511   4.829
12127TIP3    H136322   4.418   6.554   4.777
12127TIP3    H236323   4.568   6.551   4.799
12128TIP3   OH236324   8.011   4.787   5.873
12128TIP3    H136325   8.034   4.854   5.809
12128TIP3    H236326   8.003   4.706   5.822
12129TIP3   OH236327   0.475   0.997   2.074
12129TIP3    H136328   0.559   0.959   2.047
12129TIP3    H236329   0.489   1.020   2.166
12130TIP3   OH236330   0.571   1.709   6.656
12130TIP3    H136331   0.506   1.642   6.637
12130TIP3    H236332   0.615   1.678   6.735
12131TIP3   OH236333   7.676   0.834   5.294
12131TIP3    H136334   7.673   0.764   5.360
12131TIP3    H236335   7.652   0.790   5.212
12132TIP3   OH236336   2.712   3.956   2.708
12132TIP3    H136337   2.764   3.887   2.749
12132TIP3    H236338   2.622   3.925   2.713
12133TIP3   OH236339   3.861   2.629   5.428
12133TIP3    H136340   3.939   2.661   5.383
12133TIP3    H236341   3.791   2.636   5.363
12134TIP3   OH236342   0.186   2.015   5.458
12134TIP3    H136343   0.253   2.046   5.518
12134TIP3    H236344   0.145   1.942   5.504
12135TIP3   OH236345   5.930   1.475   2.833
12135TIP3    H136346   6.013   1.437   2.804
12135TIP3    H236347   5.946   1.569   2.834
12136TIP3   OH236348   8.010   0.828   4.624
12136TIP3    H136349   7.929   0.880   4.632
12136TIP3    H236350   7.998   0.778   4.543
12137TIP3   OH236351   1.207   6.663   1.709
12137TIP3    H136352   1.165   6.650   1.794
12137TIP3    H236353   1.141   6.709   1.657
12138TIP3   OH236354   7.403   5.817   3.318
12138TIP3    H136355   7.498   5.813   3.332
12138TIP3    H236356   7.394   5.827   3.223
12139TIP3   OH236357   3.672   6.897   1.962
12139TIP3    H136358   3.670   6.988   1.991
12139TIP3    H236359   3.697   6.848   2.040
12140TIP3   OH236360   3.477   7.051   6.560
12140TIP3    H136361   3.518   6.969   6.534
12140TIP3    H236362   3.435   7.031   6.644
12141TIP3   OH236363   6.948   6.142   1.188
12141TIP3    H136364   6.921   6.132   1.097
12141TIP3    H236365   6.934   6.056   1.228
12142TIP3   OH236366   2.198   5.108   5.438
12142TIP3    H136367   2.247   5.127   5.358
12142TIP3    H236368   2.122   5.168   5.434
12143TIP3   OH236369   8.354   6.300   4.680
12143TIP3    H136370   8.407   6.380   4.677
12143TIP3    H236371   8.410   6.233   4.640
12144TIP3   OH236372   3.909   0.973   1.591
12144TIP3    H136373   3.999   1.004   1.584
12144TIP3    H236374   3.912   0.882   1.561
12145TIP3   OH236375   5.495   2.286   1.124
12145TIP3    H136376   5.578   2.264   1.081
12145TIP3    H236377   5.519   2.354   1.187
12146TIP3   OH236378   0.119   6.920   4.443
12146TIP3    H136379   0.127   6.867   4.522
12146TIP3    H236380   0.157   7.004   4.466
12147TIP3   OH236381   4.178   4.610   3.381
12147TIP3    H136382   4.188   4.653   3.466
12147TIP3    H236383   4.245   4.650   3.326
12148TIP3   OH236384   6.013   6.364   2.541
12148TIP3    H136385   6.017   6.344   2.448
12148TIP3    H236386   5.978   6.284   2.581
12149TIP3   OH236387   5.407   3.606   3.312
12149TIP3    H136388   5.341   3.674   3.303
12149TIP3    H236389   5.445   3.620   3.398
12150TIP3   OH236390   7.346   1.202   6.855
12150TIP3    H136391   7.355   1.115   6.816
12150TIP3    H236392   7.432   1.243   6.842
12151TIP3   OH236393   5.324   6.460   0.421
12151TIP3    H136394   5.300   6.416   0.340
12151TIP3    H236395   5.265   6.535   0.425
12152TIP3   OH236396   6.401   1.279   0.335
12152TIP3    H136397   6.483   1.244   0.300
12152TIP3    H236398   6.412   1.276   0.430
12153TIP3   OH236399   5.584   1.666   2.129
12153TIP3    H136400   5.650   1.670   2.198
12153TIP3    H236401   5.506   1.706   2.168
12154TIP3   OH236402   0.073   7.357   1.684
12154TIP3    H136403   0.091   7.338   1.777
12154TIP3    H236404   0.062   7.452   1.681
12155TIP3   OH236405   6.397   6.249   4.384
12155TIP3    H136406   6.344   6.224   4.460
12155TIP3    H236407   6.487   6.253   4.417
12156TIP3   OH236408   7.124   0.509   4.930
12156TIP3    H136409   7.195   0.504   4.865
12156TIP3    H236410   7.111   0.602   4.943
12157TIP3   OH236411   0.762   0.429   5.269
12157TIP3    H136412   0.700   0.467   5.332
12157TIP3    H236413   0.830   0.390   5.324
12158TIP3   OH236414   1.123   3.450   3.814
12158TIP3    H136415   1.062   3.432   3.885
12158TIP3    H236416   1.078   3.419   3.735
12159TIP3   OH236417   6.366   0.817   6.526
12159TIP3    H136418   6.395   0.904   6.497
12159TIP3    H236419   6.301   0.790   6.461
12160TIP3   OH236420   3.817   6.069   3.402
12160TIP3    H136421   3.898   6.048   3.354
12160TIP3    H236422   3.843   6.069   3.494
12161TIP3   OH236423   0.095   2.385   6.232
12161TIP3    H136424   0.049   2.394   6.148
12161TIP3    H236425   0.047   2.443   6.291
12162TIP3   OH236426   8.431   2.203   4.457
12162TIP3    H136427   8.407   2.186   4.548
12162TIP3    H236428   8.349   2.195   4.408
12163TIP3   OH236429   1.933   7.844   3.139
12163TIP3    H136430   1.919   7.772   3.078
12163TIP3    H236431   1.850   7.852   3.187
12164TIP3   OH236432   5.676   0.232   6.246
12164TIP3    H136433   5.736   0.282   6.303
12164TIP3    H236434   5.589   0.257   6.276
12165TIP3   OH236435   2.725   3.812   1.155
12165TIP3    H136436   2.820   3.821   1.163
12165TIP3    H236437   2.709   3.804   1.061
12166TIP3   OH236438   2.704   5.569   1.593
12166TIP3    H136439   2.799   5.564   1.591
12166TIP3    H236440   2.676   5.488   1.636
12167TIP3   OH236441   0.814   2.706   1.541
12167TIP3    H136442   0.803   2.795   1.506
12167TIP3    H236443   0.725   2.676   1.559
12168TIP3   OH236444   0.458   2.110   3.669
12168TIP3    H136445   0.536   2.091   3.617
12168TIP3    H236446   0.461   2.205   3.683
12169TIP3   OH236447   8.302   0.206   5.873
12169TIP3    H136448   8.309   0.116   5.841
12169TIP3    H236449   8.309   0.198   5.968
12170TIP3   OH236450   3.413   0.099   3.797
12170TIP3    H136451   3.501   0.066   3.815
12170TIP3    H236452   3.380   0.128   3.882
12171TIP3   OH236453   6.626   2.925   0.110
12171TIP3    H136454   6.588   2.994   0.056
12171TIP3    H236455   6.552   2.870   0.135
12172TIP3   OH236456   2.602   3.242   6.670
12172TIP3    H136457   2.649   3.235   6.587
12172TIP3    H236458   2.633   3.324   6.709
12173TIP3   OH236459   1.157   0.736   5.326
12173TIP3    H136460   1.237   0.728   5.377
12173TIP3    H236461   1.188   0.753   5.236
12174TIP3   OH236462   5.708   3.516   2.173
12174TIP3    H136463   5.708   3.524   2.268
12174TIP3    H236464   5.779   3.573   2.144
12175TIP3   OH236465   4.866   1.364   2.340
12175TIP3    H136466   4.885   1.285   2.289
12175TIP3    H236467   4.771   1.371   2.339
12176TIP3   OH236468   2.905   5.659   3.787
12176TIP3    H136469   2.834   5.723   3.782
12176TIP3    H236470   2.907   5.618   3.700
12177TIP3   OH236471   4.930   3.731   1.210
12177TIP3    H136472   4.909   3.696   1.124
12177TIP3    H236473   4.957   3.654   1.261
12178TIP3   OH236474   5.613   3.292   2.413
12178TIP3    H136475   5.630   3.379   2.448
12178TIP3    H236476   5.696   3.265   2.373
12179TIP3   OH236477   2.977   2.164   2.224
12179TIP3    H136478   3.008   2.078   2.252
12179TIP3    H236479   3.055   2.206   2.186
12180TIP3   OH236480   2.344   7.080   2.061
12180TIP3    H136481   2.422   7.092   2.114
12180TIP3    H236482   2.290   7.157   2.080
12181TIP3   OH236483   0.305   6.463   5.324
12181TIP3    H136484   0.340   6.427   5.243
12181TIP3    H236485   0.214   6.485   5.303
12182TIP3   OH236486   2.472   6.637   0.377
12182TIP3    H136487   2.428   6.718   0.354
12182TIP3    H236488   2.410   6.567   0.354
12183TIP3   OH236489   2.986   1.221   3.581
12183TIP3    H136490   2.892   1.234   3.593
12183TIP3    H236491   2.996   1.126   3.571
12184TIP3   OH236492   5.383   4.481   3.153
12184TIP3    H136493   5.297   4.478   3.112
12184TIP3    H236494   5.436   4.535   3.094
12185TIP3   OH236495   5.018   0.190   6.026
12185TIP3    H136496   4.923   0.180   6.019
12185TIP3    H236497   5.029   0.268   6.079
12186TIP3   OH236498   7.334   0.288   3.020
12186TIP3    H136499   7.424   0.276   2.992
12186TIP3    H236500   7.304   0.366   2.973
12187TIP3   OH236501   7.158   6.810   2.231
12187TIP3    H136502   7.103   6.802   2.308
12187TIP3    H236503   7.099   6.797   2.157
12188TIP3   OH236504   2.133   0.341   2.687
12188TIP3    H136505   2.063   0.383   2.637
12188TIP3    H236506   2.133   0.388   2.771
12189TIP3   OH236507   3.592   2.742   5.542
12189TIP3    H136508   3.518   2.696   5.583
12189TIP3    H236509   3.644   2.774   5.615
12190TIP3   OH236510   6.798   7.183   3.169
12190TIP3    H136511   6.737   7.254   3.186
12190TIP3    H236512   6.883   7.225   3.160
12191TIP3   OH236513   3.860   1.561   1.526
12191TIP3    H136514   3.844   1.602   1.440
12191TIP3    H236515   3.848   1.632   1.589
12192TIP3   OH236516   3.311   4.362   6.069
12192TIP3    H136517   3.256   4.381   5.994
12192TIP3    H236518   3.295   4.269   6.088
12193TIP3   OH236519   6.815   4.343   5.597
12193TIP3    H136520   6.806   4.291   5.517
12193TIP3    H236521   6.853   4.426   5.568
12194TIP3   OH236522   4.808   6.000   2.941
12194TIP3    H136523   4.777   6.047   2.863
12194TIP3    H236524   4.901   5.984   2.924
12195TIP3   OH236525   4.276   1.497   3.824
12195TIP3    H136526   4.229   1.562   3.875
12195TIP3    H236527   4.254   1.413   3.864
12196TIP3   OH236528   2.109   3.105   6.592
12196TIP3    H136529   2.163   3.171   6.549
12196TIP3    H236530   2.157   3.023   6.580
12197TIP3   OH236531   5.153   4.959   5.536
12197TIP3    H136532   5.231   4.993   5.492
12197TIP3    H236533   5.154   5.001   5.622
12198TIP3   OH236534   2.584   5.276   4.308
12198TIP3    H136535   2.633   5.195   4.322
12198TIP3    H236536   2.492   5.251   4.318
12199TIP3   OH236537   0.700   6.623   4.290
12199TIP3    H136538   0.724   6.583   4.373
12199TIP3    H236539   0.619   6.580   4.264
12200TIP3   OH236540   7.991   3.280   4.885
12200TIP3    H136541   7.966   3.369   4.908
12200TIP3    H236542   7.957   3.267   4.796
12201TIP3   OH236543   7.193   6.907   4.994
12201TIP3    H136544   7.163   6.830   5.043
12201TIP3    H236545   7.214   6.971   5.062
12202TIP3   OH236546   4.574   5.683   4.606
12202TIP3    H136547   4.598   5.611   4.664
12202TIP3    H236548   4.532   5.747   4.663
12203TIP3   OH236549   0.807   4.984   5.597
12203TIP3    H136550   0.749   5.059   5.607
12203TIP3    H236551   0.843   4.994   5.509
12204TIP3   OH236552   3.991   5.076   2.998
12204TIP3    H136553   3.954   4.990   2.978
12204TIP3    H236554   3.915   5.130   3.018
12205TIP3   OH236555   4.389   3.804   4.141
12205TIP3    H136556   4.318   3.781   4.200
12205TIP3    H236557   4.351   3.867   4.079
12206TIP3   OH236558   3.679   5.237   4.417
12206TIP3    H136559   3.748   5.261   4.355
12206TIP3    H236560   3.627   5.171   4.371
12207TIP3   OH236561   6.538   0.508   5.050
12207TIP3    H136562   6.515   0.436   5.108
12207TIP3    H236563   6.472   0.575   5.067
12208TIP3   OH236564   6.962   5.367   3.279
12208TIP3    H136565   6.952   5.276   3.308
12208TIP3    H236566   7.035   5.401   3.331
12209TIP3   OH236567   4.130   3.998   4.535
12209TIP3    H136568   4.089   3.919   4.500
12209TIP3    H236569   4.224   3.983   4.524
12210TIP3   OH236570   4.246   3.667   2.970
12210TIP3    H136571   4.181   3.736   2.984
12210TIP3    H236572   4.265   3.670   2.877
12211TIP3   OH236573   2.807   1.823   1.654
12211TIP3    H136574   2.720   1.825   1.614
12211TIP3    H236575   2.847   1.743   1.621
12212TIP3   OH236576   2.711   1.674   1.132
12212TIP3    H136577   2.698   1.764   1.162
12212TIP3    H236578   2.766   1.634   1.199
12213TIP3   OH236579   0.416   6.813   5.732
12213TIP3    H136580   0.345   6.846   5.676
12213TIP3    H236581   0.445   6.733   5.687
12214TIP3   OH236582   0.735   6.679   0.696
12214TIP3    H136583   0.731   6.748   0.762
12214TIP3    H236584   0.783   6.608   0.739
12215TIP3   OH236585   2.590   3.701   5.614
12215TIP3    H136586   2.502   3.704   5.576
12215TIP3    H236587   2.625   3.789   5.600
12216TIP3   OH236588   7.031   7.445   1.776
12216TIP3    H136589   7.050   7.377   1.841
12216TIP3    H236590   6.970   7.403   1.715
12217TIP3   OH236591   2.963   3.265   6.574
12217TIP3    H136592   2.954   3.270   6.670
12217TIP3    H236593   3.005   3.347   6.550
12218TIP3   OH236594   1.901   4.540   6.484
12218TIP3    H136595   1.897   4.451   6.518
12218TIP3    H236596   1.982   4.544   6.434
12219TIP3   OH236597   6.912   6.614   5.226
12219TIP3    H136598   6.975   6.641   5.159
12219TIP3    H236599   6.879   6.697   5.261
12220TIP3   OH236600   8.204   5.174   4.145
12220TIP3    H136601   8.165   5.241   4.089
12220TIP3    H236602   8.182   5.091   4.104
12221TIP3   OH236603   2.381   0.491   3.599
12221TIP3    H136604   2.430   0.478   3.518
12221TIP3    H236605   2.291   0.504   3.571
12222TIP3   OH236606   2.168   4.284   2.230
12222TIP3    H136607   2.223   4.274   2.152
12222TIP3    H236608   2.122   4.200   2.238
12223TIP3   OH236609   1.379   3.139   2.260
12223TIP3    H136610   1.326   3.061   2.275
12223TIP3    H236611   1.468   3.106   2.246
12224TIP3   OH236612   6.997   6.024   1.945
12224TIP3    H136613   6.942   5.946   1.943
12224TIP3    H236614   7.069   6.001   2.002
12225TIP3   OH236615   2.476   3.361   4.150
12225TIP3    H136616   2.436   3.295   4.207
12225TIP3    H236617   2.454   3.445   4.191
12226TIP3   OH236618   2.522   0.041   2.102
12226TIP3    H136619   2.538   0.127   2.140
12226TIP3    H236620   2.487  -0.011   2.175
12227TIP3   OH236621   6.169   3.919   0.882
12227TIP3    H136622   6.138   3.984   0.819
12227TIP3    H236623   6.136   3.836   0.849
12228TIP3   OH236624   5.978   5.402   5.589
12228TIP3    H136625   5.917   5.357   5.531
12228TIP3    H236626   6.064   5.366   5.565
12229TIP3   OH236627   0.454   2.388   3.644
12229TIP3    H136628   0.539   2.387   3.688
12229TIP3    H236629   0.413   2.469   3.674
12230TIP3   OH236630   0.996   2.019   0.648
12230TIP3    H136631   1.016   2.113   0.641
12230TIP3    H236632   1.068   1.976   0.602
12231TIP3   OH236633   1.176   1.290   3.219
12231TIP3    H136634   1.245   1.292   3.286
12231TIP3    H236635   1.177   1.200   3.186
12232TIP3   OH236636   7.067   4.767   1.789
12232TIP3    H136637   7.107   4.701   1.732
12232TIP3    H236638   6.995   4.722   1.833
12233TIP3   OH236639   6.655   3.250   3.598
12233TIP3    H136640   6.586   3.185   3.586
12233TIP3    H236641   6.617   3.315   3.658
12234TIP3   OH236642   3.996   7.152   2.989
12234TIP3    H136643   4.083   7.166   3.025
12234TIP3    H236644   3.945   7.116   3.061
12235TIP3   OH236645   5.796   6.257   5.217
12235TIP3    H136646   5.890   6.259   5.232
12235TIP3    H236647   5.777   6.337   5.169
12236TIP3   OH236648   0.645   0.842   3.448
12236TIP3    H136649   0.661   0.929   3.484
12236TIP3    H236650   0.584   0.856   3.376
12237TIP3   OH236651   5.994   0.400   5.544
12237TIP3    H136652   6.067   0.359   5.590
12237TIP3    H236653   6.031   0.426   5.459
12238TIP3   OH236654   7.847   1.211   6.049
12238TIP3    H136655   7.790   1.234   6.123
12238TIP3    H236656   7.931   1.252   6.070
12239TIP3   OH236657   6.199   1.409   2.775
12239TIP3    H136658   6.184   1.489   2.725
12239TIP3    H236659   6.226   1.345   2.709
12240TIP3   OH236660   2.910   2.736   6.562
12240TIP3    H136661   2.990   2.752   6.512
12240TIP3    H236662   2.935   2.668   6.625
12241TIP3   OH236663   2.696   5.838   2.330
12241TIP3    H136664   2.779   5.861   2.287
12241TIP3    H236665   2.685   5.745   2.312
12242TIP3   OH236666   1.256   2.729   0.924
12242TIP3    H136667   1.326   2.702   0.983
12242TIP3    H236668   1.252   2.824   0.933
12243TIP3   OH236669   3.758   2.855   4.950
12243TIP3    H136670   3.805   2.824   5.027
12243TIP3    H236671   3.735   2.775   4.902
12244TIP3   OH236672   4.660   7.514   1.083
12244TIP3    H136673   4.613   7.478   1.158
12244TIP3    H236674   4.753   7.503   1.106
12245TIP3   OH236675   0.095   2.116   6.462
12245TIP3    H136676   0.135   2.187   6.513
12245TIP3    H236677   0.166   2.082   6.407
12246TIP3   OH236678   4.181   6.533   3.750
12246TIP3    H136679   4.222   6.560   3.668
12246TIP3    H236680   4.193   6.438   3.752
12247TIP3   OH236681   3.056   2.707   4.240
12247TIP3    H136682   3.055   2.627   4.293
12247TIP3    H236683   3.122   2.690   4.173
12248TIP3   OH236684   2.739   1.129   2.253
12248TIP3    H136685   2.665   1.189   2.258
12248TIP3    H236686   2.724   1.066   2.323
12249TIP3   OH236687   4.826   0.776   2.489
12249TIP3    H136688   4.819   0.806   2.398
12249TIP3    H236689   4.884   0.839   2.530
12250TIP3   OH236690   4.223   3.636   3.893
12250TIP3    H136691   4.216   3.721   3.938
12250TIP3    H236692   4.260   3.658   3.808
12251TIP3   OH236693   3.508   1.973   5.497
12251TIP3    H136694   3.496   2.068   5.496
12251TIP3    H236695   3.600   1.960   5.521
12252TIP3   OH236696   2.180   6.050   0.097
12252TIP3    H136697   2.192   6.020   0.008
12252TIP3    H236698   2.140   5.976   0.143
12253TIP3   OH236699   2.079   4.806   1.778
12253TIP3    H136700   2.086   4.856   1.696
12253TIP3    H236701   1.999   4.840   1.820
12254TIP3   OH236702   5.850   7.792   4.318
12254TIP3    H136703   5.775   7.747   4.357
12254TIP3    H236704   5.857   7.874   4.367
12255TIP3   OH236705   5.955   7.777   0.155
12255TIP3    H136706   5.868   7.818   0.150
12255TIP3    H236707   5.990   7.786   0.066
12256TIP3   OH236708   4.738   0.283   2.779
12256TIP3    H136709   4.805   0.262   2.714
12256TIP3    H236710   4.730   0.205   2.833
12257TIP3   OH236711   6.714   2.296   4.065
12257TIP3    H136712   6.729   2.277   4.157
12257TIP3    H236713   6.752   2.221   4.019
12258TIP3   OH236714   5.685   5.308   4.681
12258TIP3    H136715   5.631   5.371   4.634
12258TIP3    H236716   5.626   5.266   4.743
12259TIP3   OH236717   5.207   2.331   1.512
12259TIP3    H136718   5.251   2.366   1.434
12259TIP3    H236719   5.188   2.240   1.491
12260TIP3   OH236720   5.058   0.176   2.914
12260TIP3    H136721   4.981   0.119   2.916
12260TIP3    H236722   5.022   0.264   2.923
12261TIP3   OH236723   3.933   5.708   2.921
12261TIP3    H136724   4.026   5.686   2.916
12261TIP3    H236725   3.920   5.736   3.012
12262TIP3   OH236726   7.004   4.449   0.390
12262TIP3    H136727   6.985   4.457   0.484
12262TIP3    H236728   7.086   4.497   0.379
12263TIP3   OH236729   5.919   4.949   1.948
12263TIP3    H136730   5.830   4.930   1.976
12263TIP3    H236731   5.966   4.972   2.028
12264TIP3   OH236732   2.296   1.069   5.010
12264TIP3    H136733   2.233   1.082   5.081
12264TIP3    H236734   2.357   1.004   5.044
12265TIP3   OH236735   3.517   6.350   2.812
12265TIP3    H136736   3.600   6.372   2.854
12265TIP3    H236737   3.459   6.424   2.834
12266TIP3   OH236738   2.920   7.227   0.572
12266TIP3    H136739   2.890   7.136   0.575
12266TIP3    H236740   2.946   7.246   0.662
12267TIP3   OH236741   5.541   5.929   5.827
12267TIP3    H136742   5.612   5.974   5.874
12267TIP3    H236743   5.478   5.908   5.896
12268TIP3   OH236744   3.300   1.690   0.716
12268TIP3    H136745   3.267   1.699   0.627
12268TIP3    H236746   3.222   1.687   0.771
12269TIP3   OH236747   6.048   6.335   5.359
12269TIP3    H136748   6.022   6.427   5.368
12269TIP3    H236749   6.099   6.332   5.278
12270TIP3   OH236750   6.360   5.710   1.949
12270TIP3    H136751   6.321   5.769   2.014
12270TIP3    H236752   6.320   5.625   1.966
12271TIP3   OH236753   4.246   6.571   6.670
12271TIP3    H136754   4.175   6.520   6.709
12271TIP3    H236755   4.326   6.525   6.697
12272TIP3   OH236756   5.376   1.523   3.364
12272TIP3    H136757   5.365   1.526   3.269
12272TIP3    H236758   5.378   1.615   3.391
12273TIP3   OH236759   7.081   4.278   1.099
12273TIP3    H136760   7.026   4.224   1.156
12273TIP3    H236761   7.155   4.304   1.155
12274TIP3   OH236762   4.947   6.223   5.075
12274TIP3    H136763   4.959   6.308   5.032
12274TIP3    H236764   4.911   6.167   5.006
12275TIP3   OH236765   2.397   0.867   0.065
12275TIP3    H136766   2.491   0.884   0.060
12275TIP3    H236767   2.391   0.773   0.084
12276TIP3   OH236768   2.729   4.456   1.251
12276TIP3    H136769   2.701   4.453   1.159
12276TIP3    H236770   2.806   4.513   1.250
12277TIP3   OH236771   3.986   6.362   4.421
12277TIP3    H136772   3.899   6.322   4.425
12277TIP3    H236773   4.007   6.381   4.513
12278TIP3   OH236774   5.527   7.304   3.945
12278TIP3    H136775   5.521   7.347   3.860
12278TIP3    H236776   5.468   7.228   3.937
12279TIP3   OH236777   2.418   4.595   4.379
12279TIP3    H136778   2.466   4.678   4.373
12279TIP3    H236779   2.328   4.621   4.397
12280TIP3   OH236780   5.981   6.269   3.540
12280TIP3    H136781   5.942   6.308   3.462
12280TIP3    H236782   6.070   6.247   3.514
12281TIP3   OH236783   7.115   0.009   4.410
12281TIP3    H136784   7.034  -0.004   4.360
12281TIP3    H236785   7.181   0.029   4.344
12282TIP3   OH236786   6.733   3.261   4.264
12282TIP3    H136787   6.726   3.241   4.358
12282TIP3    H236788   6.756   3.353   4.261
12283TIP3   OH236789   2.574   5.041   0.185
12283TIP3    H136790   2.519   4.968   0.156
12283TIP3    H236791   2.527   5.119   0.156
12284TIP3   OH236792   0.044   5.041   2.898
12284TIP3    H136793  -0.006   5.043   2.816
12284TIP3    H236794  -0.008   5.094   2.959
12285TIP3   OH236795   4.762   5.687   5.089
12285TIP3    H136796   4.768   5.608   5.143
12285TIP3    H236797   4.840   5.684   5.033
12286TIP3   OH236798   8.224   1.955   1.852
12286TIP3    H136799   8.182   2.039   1.869
12286TIP3    H236800   8.249   1.959   1.760
12287TIP3   OH236801   5.141   6.329   0.984
12287TIP3    H136802   5.090   6.410   0.986
12287TIP3    H236803   5.088   6.269   0.931
12288TIP3   OH236804   3.467   1.022   4.880
12288TIP3    H136805   3.469   1.105   4.928
12288TIP3    H236806   3.384   1.025   4.832
12289TIP3   OH236807   3.526   4.561   4.563
12289TIP3    H136808   3.478   4.482   4.588
12289TIP3    H236809   3.599   4.529   4.509
12290TIP3   OH236810   2.225   5.596   2.585
12290TIP3    H136811   2.281   5.603   2.663
12290TIP3    H236812   2.196   5.686   2.568
12291TIP3   OH236813   7.417   6.244   4.310
12291TIP3    H136814   7.370   6.253   4.227
12291TIP3    H236815   7.349   6.235   4.376
12292TIP3   OH236816   0.489   6.710   6.250
12292TIP3    H136817   0.487   6.754   6.336
12292TIP3    H236818   0.509   6.780   6.188
12293TIP3   OH236819   3.252   4.112   3.536
12293TIP3    H136820   3.171   4.068   3.560
12293TIP3    H236821   3.267   4.174   3.607
12294TIP3   OH236822   7.708   2.432   0.678
12294TIP3    H136823   7.752   2.516   0.668
12294TIP3    H236824   7.779   2.369   0.690
12295TIP3   OH236825   1.533   4.480   4.093
12295TIP3    H136826   1.569   4.567   4.111
12295TIP3    H236827   1.439   4.489   4.110
12296TIP3   OH236828   5.892   1.610   3.993
12296TIP3    H136829   5.846   1.589   4.074
12296TIP3    H236830   5.949   1.683   4.016
12297TIP3   OH236831   4.788   5.907   3.906
12297TIP3    H136832   4.852   5.972   3.877
12297TIP3    H236833   4.734   5.953   3.971
12298TIP3   OH236834   3.655   0.566   0.810
12298TIP3    H136835   3.573   0.518   0.802
12298TIP3    H236836   3.677   0.561   0.903
12299TIP3   OH236837   4.362   5.502   5.174
12299TIP3    H136838   4.388   5.538   5.258
12299TIP3    H236839   4.269   5.484   5.183
12300TIP3   OH236840   2.506   0.106   6.438
12300TIP3    H136841   2.556   0.187   6.441
12300TIP3    H236842   2.571   0.037   6.450
12301TIP3   OH236843   8.191   5.603   0.219
12301TIP3    H136844   8.258   5.579   0.154
12301TIP3    H236845   8.110   5.566   0.183
12302TIP3   OH236846   0.966   2.912   5.524
12302TIP3    H136847   1.017   2.838   5.556
12302TIP3    H236848   0.875   2.890   5.547
12303TIP3   OH236849   0.115   1.917   4.009
12303TIP3    H136850   0.175   1.856   4.051
12303TIP3    H236851   0.098   1.984   4.075
12304TIP3   OH236852   7.211   6.992   5.476
12304TIP3    H136853   7.192   7.016   5.567
12304TIP3    H236854   7.292   6.941   5.481
12305TIP3   OH236855   7.846   5.238   4.698
12305TIP3    H136856   7.792   5.178   4.751
12305TIP3    H236857   7.916   5.183   4.664
12306TIP3   OH236858   1.344   1.143   5.539
12306TIP3    H136859   1.429   1.150   5.582
12306TIP3    H236860   1.283   1.184   5.601
12307TIP3   OH236861   7.829   6.198   3.930
12307TIP3    H136862   7.758   6.155   3.977
12307TIP3    H236863   7.799   6.287   3.915
12308TIP3   OH236864   7.403   6.321   0.814
12308TIP3    H136865   7.424   6.411   0.791
12308TIP3    H236866   7.367   6.326   0.902
12309TIP3   OH236867   2.060   4.358   5.438
12309TIP3    H136868   1.990   4.415   5.404
12309TIP3    H236869   2.023   4.321   5.518
12310TIP3   OH236870   4.269   2.056   2.679
12310TIP3    H136871   4.211   1.983   2.657
12310TIP3    H236872   4.357   2.021   2.668
12311TIP3   OH236873   0.897   0.220   0.373
12311TIP3    H136874   0.931   0.305   0.346
12311TIP3    H236875   0.916   0.215   0.467
12312TIP3   OH236876   5.206   0.226   0.448
12312TIP3    H136877   5.193   0.205   0.356
12312TIP3    H236878   5.198   0.143   0.494
12313TIP3   OH236879   7.501   5.162   5.452
12313TIP3    H136880   7.556   5.132   5.380
12313TIP3    H236881   7.416   5.120   5.435
12314TIP3   OH236882   8.111   1.591   1.487
12314TIP3    H136883   8.087   1.617   1.576
12314TIP3    H236884   8.039   1.624   1.433
12315TIP3   OH236885   6.049   1.793   4.109
12315TIP3    H136886   6.062   1.848   4.032
12315TIP3    H236887   6.065   1.850   4.183
12316TIP3   OH236888   1.237   6.182   5.540
12316TIP3    H136889   1.326   6.147   5.539
12316TIP3    H236890   1.190   6.125   5.601
12317TIP3   OH236891   0.730   5.742   6.442
12317TIP3    H136892   0.821   5.722   6.464
12317TIP3    H236893   0.683   5.659   6.453
12318TIP3   OH236894   5.803   3.057   0.346
12318TIP3    H136895   5.746   3.003   0.291
12318TIP3    H236896   5.811   3.139   0.297
12319TIP3   OH236897   0.015   6.805   2.712
12319TIP3    H136898   0.015   6.897   2.736
12319TIP3    H236899   0.054   6.803   2.624
12320TIP3   OH236900   6.227   0.868   2.976
12320TIP3    H136901   6.170   0.793   2.994
12320TIP3    H236902   6.256   0.897   3.062
12321TIP3   OH236903   0.719   4.834   3.798
12321TIP3    H136904   0.645   4.782   3.768
12321TIP3    H236905   0.759   4.868   3.717
12322TIP3   OH236906   4.341   3.844   6.541
12322TIP3    H136907   4.381   3.765   6.579
12322TIP3    H236908   4.258   3.814   6.505
12323TIP3   OH236909   3.578   5.455   0.414
12323TIP3    H136910   3.651   5.443   0.352
12323TIP3    H236911   3.532   5.371   0.413
12324TIP3   OH236912   0.377   0.366   0.995
12324TIP3    H136913   0.415   0.450   1.020
12324TIP3    H236914   0.283   0.377   1.008
12325TIP3   OH236915   4.991   6.938   5.283
12325TIP3    H136916   5.077   6.942   5.325
12325TIP3    H236917   4.995   7.004   5.214
12326TIP3   OH236918   3.033   6.571   1.727
12326TIP3    H136919   3.086   6.491   1.730
12326TIP3    H236920   2.945   6.542   1.751
12327TIP3   OH236921   1.648   2.277   2.299
12327TIP3    H136922   1.720   2.340   2.298
12327TIP3    H236923   1.576   2.323   2.255
12328TIP3   OH236924   4.379   3.354   5.597
12328TIP3    H136925   4.459   3.306   5.575
12328TIP3    H236926   4.407   3.445   5.608
12329TIP3   OH236927   1.290   2.518   2.553
12329TIP3    H136928   1.260   2.441   2.601
12329TIP3    H236929   1.319   2.579   2.621
12330TIP3   OH236930   7.511   7.034   5.713
12330TIP3    H136931   7.503   6.944   5.682
12330TIP3    H236932   7.477   7.031   5.803
12331TIP3   OH236933   6.715   1.696   4.203
12331TIP3    H136934   6.781   1.627   4.208
12331TIP3    H236935   6.742   1.751   4.130
12332TIP3   OH236936   3.934   0.559   2.787
12332TIP3    H136937   3.977   0.474   2.785
12332TIP3    H236938   3.960   0.597   2.871
12333TIP3   OH236939   0.193   4.705   1.723
12333TIP3    H136940   0.138   4.656   1.662
12333TIP3    H236941   0.141   4.783   1.744
12334TIP3   OH236942   2.970   1.602   1.681
12334TIP3    H136943   2.935   1.583   1.768
12334TIP3    H236944   2.899   1.581   1.621
12335TIP3   OH236945   0.259   6.998   4.205
12335TIP3    H136946   0.179   7.040   4.237
12335TIP3    H236947   0.286   6.941   4.277
12336TIP3   OH236948   0.067   5.453   3.073
12336TIP3    H136949  -0.028   5.447   3.080
12336TIP3    H236950   0.086   5.444   2.980
12337TIP3   OH236951   6.763   1.068   5.158
12337TIP3    H136952   6.735   1.065   5.067
12337TIP3    H236953   6.689   1.105   5.206
12338TIP3   OH236954   5.906   4.154   4.357
12338TIP3    H136955   5.835   4.206   4.319
12338TIP3    H236956   5.954   4.216   4.412
12339TIP3   OH236957   1.112   2.199   2.583
12339TIP3    H136958   1.037   2.230   2.633
12339TIP3    H236959   1.187   2.211   2.643
12340TIP3   OH236960   6.458   7.095   0.928
12340TIP3    H136961   6.384   7.148   0.958
12340TIP3    H236962   6.420   7.034   0.864
12341TIP3   OH236963   5.281   0.487   3.226
12341TIP3    H136964   5.247   0.547   3.160
12341TIP3    H236965   5.212   0.481   3.292
12342TIP3   OH236966   0.598   7.492   1.143
12342TIP3    H136967   0.590   7.529   1.231
12342TIP3    H236968   0.621   7.567   1.087
12343TIP3   OH236969   3.240   4.053   6.635
12343TIP3    H136970   3.146   4.063   6.626
12343TIP3    H236971   3.272   4.140   6.658
12344TIP3   OH236972   0.179   0.472   0.757
12344TIP3    H136973   0.272   0.457   0.740
12344TIP3    H236974   0.175   0.558   0.799
12345TIP3   OH236975   5.530   5.676   5.696
12345TIP3    H136976   5.521   5.771   5.698
12345TIP3    H236977   5.594   5.657   5.765
12346TIP3   OH236978   0.568   2.509   0.809
12346TIP3    H136979   0.582   2.466   0.894
12346TIP3    H236980   0.621   2.458   0.748
12347TIP3   OH236981   6.905   1.688   5.219
12347TIP3    H136982   6.853   1.646   5.287
12347TIP3    H236983   6.986   1.714   5.263
12348TIP3   OH236984   6.191   4.224   1.995
12348TIP3    H136985   6.179   4.189   1.907
12348TIP3    H236986   6.103   4.239   2.028
12349TIP3   OH236987   4.482   4.873   6.720
12349TIP3    H136988   4.549   4.813   6.754
12349TIP3    H236989   4.524   4.915   6.645
12350TIP3   OH236990   6.350   2.573   1.183
12350TIP3    H136991   6.361   2.525   1.101
12350TIP3    H236992   6.295   2.516   1.237
12351TIP3   OH236993   3.361   2.804   5.329
12351TIP3    H136994   3.394   2.827   5.243
12351TIP3    H236995   3.437   2.770   5.377
12352TIP3   OH236996   2.787   7.542   3.241
12352TIP3    H136997   2.699   7.578   3.227
12352TIP3    H236998   2.819   7.587   3.319
12353TIP3   OH236999   3.926   7.031   3.648
12353TIP3    H137000   3.891   7.027   3.559
12353TIP3    H237001   3.860   6.987   3.701
12354TIP3   OH237002   0.232   2.765   1.839
12354TIP3    H137003   0.325   2.786   1.845
12354TIP3    H237004   0.202   2.764   1.930
12355TIP3   OH237005   2.227   1.271   0.865
12355TIP3    H137006   2.214   1.361   0.897
12355TIP3    H237007   2.212   1.277   0.771
12356TIP3   OH237008   2.405   4.217   6.735
12356TIP3    H137009   2.450   4.299   6.716
12356TIP3    H237010   2.475   4.153   6.749
12357TIP3   OH237011   2.991   4.668   6.534
12357TIP3    H137012   2.964   4.634   6.620
12357TIP3    H237013   2.933   4.743   6.519
12358TIP3   OH237014   0.376   4.615   1.389
12358TIP3    H137015   0.338   4.539   1.433
12358TIP3    H237016   0.458   4.583   1.351
12359TIP3   OH237017   3.283   4.178   5.590
12359TIP3    H137018   3.239   4.103   5.549
12359TIP3    H237019   3.318   4.228   5.516
12360TIP3   OH237020   0.738   5.839   5.293
12360TIP3    H137021   0.745   5.922   5.246
12360TIP3    H237022   0.654   5.844   5.338
12361TIP3   OH237023   8.421   3.434   1.833
12361TIP3    H137024   8.338   3.398   1.804
12361TIP3    H237025   8.409   3.453   1.926
12362TIP3   OH237026   8.134   3.493   2.518
12362TIP3    H137027   8.146   3.423   2.454
12362TIP3    H237028   8.122   3.448   2.601
12363TIP3   OH237029   5.400   0.579   3.862
12363TIP3    H137030   5.401   0.672   3.838
12363TIP3    H237031   5.378   0.579   3.956
12364TIP3   OH237032   0.200   0.143   5.118
12364TIP3    H137033   0.273   0.122   5.060
12364TIP3    H237034   0.159   0.219   5.078
12365TIP3   OH237035   0.677   2.630   1.224
12365TIP3    H137036   0.772   2.626   1.224
12365TIP3    H237037   0.651   2.591   1.140
12366TIP3   OH237038   3.035   4.932   3.338
12366TIP3    H137039   3.072   4.902   3.421
12366TIP3    H237040   3.054   4.861   3.276
12367TIP3   OH237041   7.482   2.456   3.152
12367TIP3    H137042   7.557   2.440   3.209
12367TIP3    H237043   7.429   2.376   3.159
12368TIP3   OH237044   2.299   6.487   2.142
12368TIP3    H137045   2.364   6.483   2.213
12368TIP3    H237046   2.348   6.467   2.063
12369TIP3   OH237047   5.823   5.752   1.634
12369TIP3    H137048   5.897   5.726   1.689
12369TIP3    H237049   5.802   5.841   1.662
12370TIP3   OH237050   1.058   3.040   6.524
12370TIP3    H137051   0.996   2.994   6.468
12370TIP3    H237052   1.132   2.980   6.533
12371TIP3   OH237053   0.674   5.217   2.489
12371TIP3    H137054   0.668   5.213   2.394
12371TIP3    H237055   0.611   5.152   2.520
12372TIP3   OH237056   8.170   7.247   6.637
12372TIP3    H137057   8.139   7.169   6.683
12372TIP3    H237058   8.204   7.304   6.707
12373TIP3   OH237059   5.637   6.298   1.440
12373TIP3    H137060   5.733   6.298   1.446
12373TIP3    H237061   5.614   6.387   1.414
12374TIP3   OH237062   2.985   0.018   5.820
12374TIP3    H137063   2.915   0.042   5.759
12374TIP3    H237064   3.061   0.068   5.789
12375TIP3   OH237065   1.581   1.630   0.301
12375TIP3    H137066   1.593   1.590   0.214
12375TIP3    H237067   1.653   1.595   0.353
12376TIP3   OH237068   4.353   4.785   5.220
12376TIP3    H137069   4.394   4.839   5.287
12376TIP3    H237070   4.339   4.700   5.263
12377TIP3   OH237071   6.905   2.729   3.626
12377TIP3    H137072   6.961   2.805   3.613
12377TIP3    H237073   6.818   2.758   3.598
12378TIP3   OH237074   7.940   5.165   0.486
12378TIP3    H137075   7.889   5.207   0.554
12378TIP3    H237076   7.985   5.093   0.530
12379TIP3   OH237077   3.896   6.240   1.697
12379TIP3    H137078   3.902   6.297   1.620
12379TIP3    H237079   3.971   6.265   1.751
12380TIP3   OH237080   2.601   1.966   6.606
12380TIP3    H137081   2.608   2.039   6.544
12380TIP3    H237082   2.646   1.894   6.563
12381TIP3   OH237083   6.608   0.304   5.405
12381TIP3    H137084   6.523   0.274   5.372
12381TIP3    H237085   6.669   0.285   5.335
12382TIP3   OH237086   3.026   0.531   4.201
12382TIP3    H137087   2.958   0.592   4.227
12382TIP3    H237088   2.978   0.456   4.165
12383TIP3   OH237089   3.376   7.608   1.581
12383TIP3    H137090   3.402   7.664   1.507
12383TIP3    H237091   3.430   7.530   1.572
12384TIP3   OH237092   7.392   7.417   0.510
12384TIP3    H137093   7.433   7.392   0.428
12384TIP3    H237094   7.457   7.472   0.554
12385TIP3   OH237095   8.235   7.210   1.809
12385TIP3    H137096   8.328   7.231   1.810
12385TIP3    H237097   8.218   7.171   1.894
12386TIP3   OH237098   0.329   4.981   6.744
12386TIP3    H137099   0.370   5.067   6.752
12386TIP3    H237100   0.402   4.919   6.743
12387TIP3   OH237101   6.595   7.894   3.987
12387TIP3    H137102   6.615   7.827   4.053
12387TIP3    H237103   6.501   7.886   3.973
12388TIP3   OH237104   7.418   2.605   3.956
12388TIP3    H137105   7.439   2.577   4.045
12388TIP3    H237106   7.476   2.679   3.939
12389TIP3   OH237107   6.539   7.239   4.870
12389TIP3    H137108   6.483   7.189   4.811
12389TIP3    H237109   6.491   7.321   4.886
12390TIP3   OH237110   3.502   5.823   5.424
12390TIP3    H137111   3.469   5.895   5.478
12390TIP3    H237112   3.594   5.843   5.411
12391TIP3   OH237113   3.285   0.331   2.324
12391TIP3    H137114   3.296   0.261   2.388
12391TIP3    H237115   3.266   0.409   2.377
12392TIP3   OH237116   7.779   7.276   4.616
12392TIP3    H137117   7.741   7.322   4.541
12392TIP3    H237118   7.792   7.186   4.584
12393TIP3   OH237119   1.386   4.761   6.138
12393TIP3    H137120   1.445   4.690   6.163
12393TIP3    H237121   1.397   4.769   6.043
12394TIP3   OH237122   0.849   3.847   1.799
12394TIP3    H137123   0.926   3.889   1.762
12394TIP3    H237124   0.815   3.910   1.862
12395TIP3   OH237125   2.971   0.303   6.788
12395TIP3    H137126   3.039   0.370   6.775
12395TIP3    H237127   2.999   0.230   6.732
12396TIP3   OH237128   7.256   0.293   6.031
12396TIP3    H137129   7.236   0.387   6.038
12396TIP3    H237130   7.295   0.284   5.945
12397TIP3   OH237131   8.237   0.936   0.417
12397TIP3    H137132   8.331   0.952   0.420
12397TIP3    H237133   8.220   0.873   0.487
12398TIP3   OH237134   5.772   6.609   1.674
12398TIP3    H137135   5.835   6.639   1.608
12398TIP3    H237136   5.751   6.519   1.648
12399TIP3   OH237137   7.640   4.278   4.113
12399TIP3    H137138   7.550   4.300   4.136
12399TIP3    H237139   7.680   4.362   4.091
12400TIP3   OH237140   4.003   7.125   2.451
12400TIP3    H137141   4.043   7.057   2.395
12400TIP3    H237142   3.997   7.084   2.537
12401TIP3   OH237143   8.346   4.811   5.803
12401TIP3    H137144   8.398   4.750   5.750
12401TIP3    H237145   8.377   4.798   5.893
12402TIP3   OH237146   1.729   2.789   1.654
12402TIP3    H137147   1.689   2.875   1.639
12402TIP3    H237148   1.809   2.808   1.702
12403TIP3   OH237149   2.110   1.119   4.806
12403TIP3    H137150   2.199   1.117   4.842
12403TIP3    H237151   2.112   1.192   4.744
12404TIP3   OH237152   2.297   3.186   5.544
12404TIP3    H137153   2.354   3.112   5.524
12404TIP3    H237154   2.294   3.189   5.640
12405TIP3   OH237155   8.370   5.682   6.145
12405TIP3    H137156   8.275   5.676   6.132
12405TIP3    H237157   8.391   5.772   6.122
12406TIP3   OH237158   6.286   6.775   6.649
12406TIP3    H137159   6.274   6.710   6.580
12406TIP3    H237160   6.247   6.855   6.614
12407TIP3   OH237161   6.098   4.669   4.656
12407TIP3    H137162   6.003   4.660   4.666
12407TIP3    H237163   6.135   4.616   4.727
12408TIP3   OH237164   0.274   4.508   0.279
12408TIP3    H137165   0.353   4.457   0.260
12408TIP3    H237166   0.226   4.455   0.343
12409TIP3   OH237167   4.328   2.768   2.827
12409TIP3    H137168   4.357   2.854   2.857
12409TIP3    H237169   4.259   2.786   2.763
12410TIP3   OH237170   2.249   2.074   3.589
12410TIP3    H137171   2.178   2.050   3.529
12410TIP3    H237172   2.206   2.123   3.659
12411TIP3   OH237173   0.825   7.442   4.557
12411TIP3    H137174   0.889   7.438   4.486
12411TIP3    H237175   0.747   7.402   4.521
12412TIP3   OH237176   0.063   1.894   2.624
12412TIP3    H137177   0.096   1.864   2.709
12412TIP3    H237178   0.095   1.984   2.616
12413TIP3   OH237179   5.094   0.961   3.996
12413TIP3    H137180   5.110   1.002   3.911
12413TIP3    H237181   5.178   0.966   4.041
12414TIP3   OH237182   2.038   1.634   4.371
12414TIP3    H137183   1.990   1.704   4.414
12414TIP3    H237184   2.128   1.667   4.364
12415TIP3   OH237185   5.668   2.256   6.364
12415TIP3    H137186   5.627   2.334   6.402
12415TIP3    H237187   5.619   2.240   6.283
12416TIP3   OH237188   0.975   6.253   5.497
12416TIP3    H137189   1.070   6.248   5.483
12416TIP3    H237190   0.948   6.331   5.449
12417TIP3   OH237191   4.313   2.789   1.830
12417TIP3    H137192   4.399   2.804   1.792
12417TIP3    H237193   4.328   2.789   1.924
12418TIP3   OH237194   3.730   6.959   2.445
12418TIP3    H137195   3.664   7.001   2.389
12418TIP3    H237196   3.806   6.947   2.387
12419TIP3   OH237197   0.948   4.622   0.045
12419TIP3    H137198   0.916   4.598  -0.042
12419TIP3    H237199   0.893   4.572   0.105
12420TIP3   OH237200   3.581   3.244   1.414
12420TIP3    H137201   3.589   3.304   1.489
12420TIP3    H237202   3.526   3.173   1.446
12421TIP3   OH237203   0.036   4.651   6.285
12421TIP3    H137204   0.050   4.564   6.323
12421TIP3    H237205  -0.059   4.661   6.281
12422TIP3   OH237206   3.726   2.016   1.302
12422TIP3    H137207   3.702   1.951   1.368
12422TIP3    H237208   3.779   2.080   1.349
12423TIP3   OH237209   4.167   3.668   1.588
12423TIP3    H137210   4.075   3.675   1.611
12423TIP3    H237211   4.201   3.600   1.646
12424TIP3   OH237212   6.021   7.643   4.538
12424TIP3    H137213   5.947   7.664   4.595
12424TIP3    H237214   6.004   7.691   4.458
12425TIP3   OH237215   8.303   6.001   1.725
12425TIP3    H137216   8.289   5.930   1.662
12425TIP3    H237217   8.306   6.080   1.671
12426TIP3   OH237218   7.088   0.811   3.168
12426TIP3    H137219   7.115   0.828   3.077
12426TIP3    H237220   7.047   0.893   3.195
12427TIP3   OH237221   5.046   4.459   2.473
12427TIP3    H137222   5.060   4.384   2.416
12427TIP3    H237223   4.985   4.515   2.423
12428TIP3   OH237224   2.935   5.018   3.635
12428TIP3    H137225   2.965   5.103   3.604
12428TIP3    H237226   2.880   5.037   3.711
12429TIP3   OH237227   6.669   3.456   0.359
12429TIP3    H137228   6.618   3.482   0.435
12429TIP3    H237229   6.700   3.539   0.321
12430TIP3   OH237230   0.173   7.357   1.954
12430TIP3    H137231   0.190   7.451   1.961
12430TIP3    H237232   0.221   7.318   2.027
12431TIP3   OH237233   3.677   1.638   3.049
12431TIP3    H137234   3.724   1.691   3.113
12431TIP3    H237235   3.642   1.565   3.100
12432TIP3   OH237236   1.590   6.284   3.185
12432TIP3    H137237   1.498   6.305   3.173
12432TIP3    H237238   1.597   6.191   3.163
12433TIP3   OH237239   4.765   2.698   5.246
12433TIP3    H137240   4.698   2.631   5.256
12433TIP3    H237241   4.766   2.719   5.153
12434TIP3   OH237242   4.899   3.314   6.258
12434TIP3    H137243   4.972   3.326   6.197
12434TIP3    H237244   4.915   3.379   6.327
12435TIP3   OH237245   2.176   6.783   4.463
12435TIP3    H137246   2.234   6.856   4.439
12435TIP3    H237247   2.103   6.825   4.509
12436TIP3   OH237248   1.090   1.189   6.295
12436TIP3    H137249   1.140   1.171   6.215
12436TIP3    H237250   1.008   1.141   6.283
12437TIP3   OH237251   1.229   7.077   6.325
12437TIP3    H137252   1.296   7.087   6.257
12437TIP3    H237253   1.184   7.162   6.326
12438TIP3   OH237254   7.842   2.534   1.864
12438TIP3    H137255   7.791   2.484   1.928
12438TIP3    H237256   7.900   2.588   1.917
12439TIP3   OH237257   2.777   2.633   5.325
12439TIP3    H137258   2.728   2.706   5.362
12439TIP3    H237259   2.830   2.600   5.397
12440TIP3   OH237260   3.270   0.390   0.631
12440TIP3    H137261   3.176   0.385   0.647
12440TIP3    H237262   3.279   0.374   0.536
12441TIP3   OH237263   4.679   2.625   4.313
12441TIP3    H137264   4.707   2.691   4.376
12441TIP3    H237265   4.698   2.664   4.227
12442TIP3   OH237266   8.192   5.141   4.647
12442TIP3    H137267   8.270   5.150   4.702
12442TIP3    H237268   8.224   5.103   4.566
12443TIP3   OH237269   6.949   6.443   0.226
12443TIP3    H137270   7.006   6.374   0.192
12443TIP3    H237271   6.879   6.451   0.162
12444TIP3   OH237272   6.295   6.780   5.919
12444TIP3    H137273   6.317   6.708   5.978
12444TIP3    H237274   6.234   6.741   5.856
12445TIP3   OH237275   7.200   1.169   2.119
12445TIP3    H137276   7.240   1.088   2.087
12445TIP3    H237277   7.139   1.195   2.050
12446TIP3   OH237278   2.426   4.660   2.524
12446TIP3    H137279   2.442   4.612   2.443
12446TIP3    H237280   2.346   4.620   2.559
12447TIP3   OH237281   6.410   7.471   5.706
12447TIP3    H137282   6.335   7.449   5.761
12447TIP3    H237283   6.447   7.386   5.681
12448TIP3   OH237284   5.670   4.656   5.451
12448TIP3    H137285   5.708   4.569   5.469
12448TIP3    H237286   5.734   4.698   5.394
12449TIP3   OH237287   2.173   2.844   4.508
12449TIP3    H137288   2.247   2.891   4.469
12449TIP3    H237289   2.126   2.910   4.558
12450TIP3   OH237290   6.833   0.221   5.205
12450TIP3    H137291   6.856   0.135   5.170
12450TIP3    H237292   6.849   0.281   5.133
12451TIP3   OH237293   2.243   3.763   5.850
12451TIP3    H137294   2.330   3.756   5.888
12451TIP3    H237295   2.184   3.772   5.925
12452TIP3   OH237296   6.692   6.365   5.914
12452TIP3    H137297   6.674   6.371   6.008
12452TIP3    H237298   6.652   6.443   5.877
12453TIP3   OH237299   7.041   1.492   2.762
12453TIP3    H137300   7.129   1.520   2.786
12453TIP3    H237301   6.983   1.542   2.819
12454TIP3   OH237302   0.596   5.750   0.753
12454TIP3    H137303   0.532   5.692   0.794
12454TIP3    H237304   0.642   5.693   0.690
12455TIP3   OH237305   6.186   6.053   2.726
12455TIP3    H137306   6.276   6.055   2.759
12455TIP3    H237307   6.183   5.975   2.670
12456TIP3   OH237308   6.129   0.836   4.776
12456TIP3    H137309   6.172   0.904   4.724
12456TIP3    H237310   6.063   0.884   4.827
12457TIP3   OH237311   5.775   3.863   1.579
12457TIP3    H137312   5.755   3.932   1.642
12457TIP3    H237313   5.829   3.905   1.512
12458TIP3   OH237314   0.414   6.624   5.503
12458TIP3    H137315   0.389   6.547   5.452
12458TIP3    H237316   0.383   6.698   5.451
12459TIP3   OH237317   2.408   4.404   0.211
12459TIP3    H137318   2.470   4.339   0.244
12459TIP3    H237319   2.395   4.465   0.284
12460TIP3   OH237320   7.479   6.942   5.136
12460TIP3    H137321   7.463   6.847   5.142
12460TIP3    H237322   7.560   6.949   5.087
12461TIP3   OH237323   8.388   3.282   5.238
12461TIP3    H137324   8.308   3.252   5.280
12461TIP3    H237325   8.382   3.248   5.148
12462TIP3   OH237326   8.207   1.196   5.775
12462TIP3    H137327   8.264   1.202   5.698
12462TIP3    H237328   8.180   1.286   5.792
12463TIP3   OH237329   7.717   4.879   5.944
12463TIP3    H137330   7.810   4.856   5.945
12463TIP3    H237331   7.704   4.934   6.021
12464TIP3   OH237332   6.793   6.068   6.141
12464TIP3    H137333   6.796   6.095   6.233
12464TIP3    H237334   6.706   6.029   6.131
12465TIP3   OH237335   0.921   1.116   4.844
12465TIP3    H137336   0.957   1.166   4.770
12465TIP3    H237337   0.992   1.112   4.907
12466TIP3   OH237338   3.266   4.361   1.933
12466TIP3    H137339   3.231   4.277   1.902
12466TIP3    H237340   3.221   4.426   1.879
12467TIP3   OH237341   3.914   4.730   0.572
12467TIP3    H137342   3.917   4.635   0.580
12467TIP3    H237343   3.898   4.761   0.661
12468TIP3   OH237344   1.454   0.376   4.999
12468TIP3    H137345   1.377   0.347   4.952
12468TIP3    H237346   1.461   0.317   5.074
12469TIP3   OH237347   1.582   4.615   2.455
12469TIP3    H137348   1.567   4.708   2.439
12469TIP3    H237349   1.501   4.584   2.496
12470TIP3   OH237350   0.092   0.950   0.505
12470TIP3    H137351   0.164   0.929   0.446
12470TIP3    H237352   0.121   1.029   0.551
12471TIP3   OH237353   4.677   6.215   2.769
12471TIP3    H137354   4.585   6.189   2.778
12471TIP3    H237355   4.677   6.309   2.786
12472TIP3   OH237356   6.844   4.590   1.356
12472TIP3    H137357   6.755   4.573   1.386
12472TIP3    H237358   6.846   4.554   1.267
12473TIP3   OH237359   2.160   2.631   4.298
12473TIP3    H137360   2.185   2.654   4.388
12473TIP3    H237361   2.239   2.650   4.246
12474TIP3   OH237362   2.907   7.314   4.531
12474TIP3    H137363   3.000   7.326   4.547
12474TIP3    H237364   2.883   7.239   4.585
12475TIP3   OH237365   1.192   3.312   4.064
12475TIP3    H137366   1.188   3.261   3.983
12475TIP3    H237367   1.246   3.259   4.123
12476TIP3   OH237368   5.400   4.030   5.420
12476TIP3    H137369   5.435   4.031   5.331
12476TIP3    H237370   5.351   4.112   5.428
12477TIP3   OH237371   2.733   2.014   4.962
12477TIP3    H137372   2.813   2.063   4.942
12477TIP3    H237373   2.761   1.923   4.965
12478TIP3   OH237374   3.201   1.702   5.528
12478TIP3    H137375   3.252   1.635   5.574
12478TIP3    H237376   3.115   1.700   5.572
12479TIP3   OH237377   4.121   0.292   0.804
12479TIP3    H137378   4.030   0.306   0.830
12479TIP3    H237379   4.121   0.203   0.769
12480TIP3   OH237380   4.592   4.550   5.481
12480TIP3    H137381   4.565   4.520   5.395
12480TIP3    H237382   4.511   4.582   5.522
12481TIP3   OH237383   4.316   1.293   4.257
12481TIP3    H137384   4.311   1.385   4.231
12481TIP3    H237385   4.226   1.269   4.278
12482TIP3   OH237386   4.206   0.426   3.965
12482TIP3    H137387   4.196   0.494   3.899
12482TIP3    H237388   4.292   0.389   3.949
12483TIP3   OH237389   1.632   1.921   1.147
12483TIP3    H137390   1.623   1.890   1.057
12483TIP3    H237391   1.623   1.842   1.200
12484TIP3   OH237392   2.888   6.256   5.960
12484TIP3    H137393   2.883   6.174   6.010
12484TIP3    H237394   2.982   6.275   5.954
12485TIP3   OH237395   1.627   2.007   2.337
12485TIP3    H137396   1.675   2.013   2.419
12485TIP3    H237397   1.619   2.098   2.307
12486TIP3   OH237398   0.932   2.297   0.294
12486TIP3    H137399   0.939   2.202   0.288
12486TIP3    H237400   0.973   2.329   0.214
12487TIP3   OH237401   3.656   3.432   5.360
12487TIP3    H137402   3.716   3.374   5.407
12487TIP3    H237403   3.699   3.449   5.277
12488TIP3   OH237404   2.703   0.218   6.693
12488TIP3    H137405   2.680   0.169   6.772
12488TIP3    H237406   2.775   0.276   6.721
12489TIP3   OH237407   1.132   1.679   0.656
12489TIP3    H137408   1.216   1.724   0.663
12489TIP3    H237409   1.111   1.681   0.563
12490TIP3   OH237410   0.061   5.517   6.343
12490TIP3    H137411   0.008   5.581   6.294
12490TIP3    H237412   0.134   5.568   6.378
12491TIP3   OH237413   5.385   7.131   3.450
12491TIP3    H137414   5.334   7.070   3.397
12491TIP3    H237415   5.345   7.216   3.434
12492TIP3   OH237416   1.916   2.008   3.697
12492TIP3    H137417   1.850   1.985   3.763
12492TIP3    H237418   1.960   1.925   3.677
12493TIP3   OH237419   8.343   5.344   6.566
12493TIP3    H137420   8.396   5.278   6.610
12493TIP3    H237421   8.404   5.387   6.505
12494TIP3   OH237422   4.440   4.870   2.091
12494TIP3    H137423   4.449   4.917   2.009
12494TIP3    H237424   4.374   4.803   2.073
12495TIP3   OH237425   5.951   3.001   1.432
12495TIP3    H137426   5.862   2.982   1.462
12495TIP3    H237427   5.962   3.095   1.450
12496TIP3   OH237428   6.247   5.363   3.135
12496TIP3    H137429   6.313   5.345   3.068
12496TIP3    H237430   6.164   5.348   3.090
12497TIP3   OH237431   7.184   6.643   5.087
12497TIP3    H137432   7.256   6.635   5.150
12497TIP3    H237433   7.215   6.596   5.010
12498TIP3   OH237434   4.723   4.711   3.174
12498TIP3    H137435   4.812   4.745   3.184
12498TIP3    H237436   4.722   4.673   3.086
12499TIP3   OH237437   7.546   6.551   4.549
12499TIP3    H137438   7.490   6.616   4.507
12499TIP3    H237439   7.491   6.515   4.620
12500TIP3   OH237440   4.440   4.180   2.976
12500TIP3    H137441   4.522   4.163   2.931
12500TIP3    H237442   4.386   4.227   2.911
12501TIP3   OH237443   4.323   0.842  -0.036
12501TIP3    H137444   4.408   0.807  -0.009
12501TIP3    H237445   4.277   0.858   0.046
12502TIP3   OH237446   6.481   4.919   2.962
12502TIP3    H137447   6.421   4.948   2.893
12502TIP3    H237448   6.423   4.893   3.034
12503TIP3   OH237449   5.250   7.445   5.583
12503TIP3    H137450   5.168   7.404   5.610
12503TIP3    H237451   5.250   7.437   5.488
12504TIP3   OH237452   2.713   0.312   6.422
12504TIP3    H137453   2.687   0.272   6.505
12504TIP3    H237454   2.768   0.386   6.447
12505TIP3   OH237455   1.911   1.075   2.604
12505TIP3    H137456   1.831   1.124   2.624
12505TIP3    H237457   1.880   0.990   2.575
12506TIP3   OH237458   2.312   3.366   6.036
12506TIP3    H137459   2.399   3.402   6.049
12506TIP3    H237460   2.263   3.392   6.114
12507TIP3   OH237461   3.587   3.446   3.150
12507TIP3    H137462   3.543   3.367   3.118
12507TIP3    H237463   3.583   3.508   3.078
12508TIP3   OH237464   3.888   1.659   3.410
12508TIP3    H137465   3.955   1.689   3.471
12508TIP3    H237466   3.859   1.575   3.446
12509TIP3   OH237467   1.321   4.874   0.891
12509TIP3    H137468   1.301   4.845   0.803
12509TIP3    H237469   1.303   4.799   0.947
12510TIP3   OH237470   2.869   2.071   4.687
12510TIP3    H137471   2.956   2.107   4.677
12510TIP3    H237472   2.869   1.992   4.632
12511TIP3   OH237473   6.737   1.257   5.986
12511TIP3    H137474   6.738   1.268   6.081
12511TIP3    H237475   6.772   1.340   5.952
12512TIP3   OH237476   5.236   3.020   1.470
12512TIP3    H137477   5.258   2.982   1.384
12512TIP3    H237478   5.320   3.048   1.505
12513TIP3   OH237479   0.309   4.750   6.256
12513TIP3    H137480   0.292   4.797   6.174
12513TIP3    H237481   0.222   4.722   6.285
12514TIP3   OH237482   2.633   5.664   0.526
12514TIP3    H137483   2.584   5.697   0.451
12514TIP3    H237484   2.686   5.593   0.490
12515TIP3   OH237485   7.235   2.850   0.045
12515TIP3    H137486   7.184   2.826  -0.032
12515TIP3    H237487   7.191   2.805   0.118
12516TIP3   OH237488   7.589   5.250   0.371
12516TIP3    H137489   7.608   5.169   0.417
12516TIP3    H237490   7.500   5.272   0.396
12517TIP3   OH237491   4.284   7.517   0.040
12517TIP3    H137492   4.343   7.459  -0.008
12517TIP3    H237493   4.197   7.497   0.006
12518TIP3   OH237494   0.810   5.435   0.252
12518TIP3    H137495   0.849   5.442   0.340
12518TIP3    H237496   0.737   5.375   0.263
12519TIP3   OH237497   1.524   3.718   6.102
12519TIP3    H137498   1.514   3.662   6.179
12519TIP3    H237499   1.436   3.724   6.065
12520TIP3   OH237500   0.474   0.646   4.257
12520TIP3    H137501   0.504   0.690   4.336
12520TIP3    H237502   0.458   0.717   4.194
12521TIP3   OH237503   8.002   6.780   4.884
12521TIP3    H137504   7.924   6.725   4.879
12521TIP3    H237505   8.038   6.765   4.971
12522TIP3   OH237506   6.010   2.833   3.567
12522TIP3    H137507   6.083   2.805   3.512
12522TIP3    H237508   6.041   2.822   3.656
12523TIP3   OH237509   3.383   2.560   1.704
12523TIP3    H137510   3.331   2.578   1.626
12523TIP3    H237511   3.350   2.621   1.770
12524TIP3   OH237512   3.794   1.253   5.534
12524TIP3    H137513   3.828   1.321   5.476
12524TIP3    H237514   3.704   1.238   5.504
12525TIP3   OH237515   5.198   2.688   3.996
12525TIP3    H137516   5.281   2.718   3.958
12525TIP3    H237517   5.195   2.727   4.083
12526TIP3   OH237518   1.952   5.140   4.895
12526TIP3    H137519   1.988   5.130   4.983
12526TIP3    H237520   1.931   5.233   4.888
12527TIP3   OH237521   2.211   4.963   2.342
12527TIP3    H137522   2.176   4.957   2.254
12527TIP3    H237523   2.166   5.037   2.382
12528TIP3   OH237524   3.178   4.522   3.702
12528TIP3    H137525   3.158   4.455   3.636
12528TIP3    H237526   3.170   4.605   3.655
12529TIP3   OH237527   4.349   1.381   1.209
12529TIP3    H137528   4.271   1.437   1.210
12529TIP3    H237529   4.414   1.432   1.161
12530TIP3   OH237530   5.017   6.317   1.383
12530TIP3    H137531   5.059   6.379   1.324
12530TIP3    H237532   4.923   6.326   1.365
12531TIP3   OH237533   2.000   1.220   5.926
12531TIP3    H137534   2.053   1.276   5.982
12531TIP3    H237535   2.059   1.194   5.855
12532TIP3   OH237536   7.724   7.842   4.018
12532TIP3    H137537   7.710   7.820   4.111
12532TIP3    H237538   7.807   7.799   3.997
12533TIP3   OH237539   4.297   5.524   4.282
12533TIP3    H137540   4.306   5.481   4.198
12533TIP3    H237541   4.212   5.495   4.315
12534TIP3   OH237542   4.675   3.027   2.582
12534TIP3    H137543   4.648   2.946   2.539
12534TIP3    H237544   4.731   3.071   2.518
12535TIP3   OH237545   0.935   1.098   3.271
12535TIP3    H137546   1.030   1.102   3.260
12535TIP3    H237547   0.914   1.005   3.272
12536TIP3   OH237548   3.252   7.376   5.222
12536TIP3    H137549   3.171   7.354   5.177
12536TIP3    H237550   3.224   7.398   5.311
12537TIP3   OH237551   6.661   2.979   1.086
12537TIP3    H137552   6.670   3.000   1.178
12537TIP3    H237553   6.607   2.899   1.085
12538TIP3   OH237554   7.641   0.815   4.769
12538TIP3    H137555   7.672   0.725   4.760
12538TIP3    H237556   7.706   0.867   4.721
12539TIP3   OH237557   6.638   1.555   1.301
12539TIP3    H137558   6.551   1.522   1.279
12539TIP3    H237559   6.667   1.599   1.221
12540TIP3   OH237560   3.448   2.448   5.129
12540TIP3    H137561   3.436   2.354   5.143
12540TIP3    H237562   3.389   2.470   5.057
12541TIP3   OH237563   1.430   3.447   3.785
12541TIP3    H137564   1.425   3.471   3.693
12541TIP3    H237565   1.344   3.470   3.821
12542TIP3   OH237566   8.032   6.430   1.428
12542TIP3    H137567   8.125   6.409   1.425
12542TIP3    H237568   8.028   6.525   1.434
12543TIP3   OH237569   5.686   5.804   6.698
12543TIP3    H137570   5.778   5.792   6.672
12543TIP3    H237571   5.682   5.773   6.788
12544TIP3   OH237572   0.115   0.893   1.648
12544TIP3    H137573   0.055   0.952   1.603
12544TIP3    H237574   0.200   0.938   1.644
12545TIP3   OH237575   5.473   6.087   1.932
12545TIP3    H137576   5.496   6.167   1.980
12545TIP3    H237577   5.486   6.109   1.840
12546TIP3   OH237578   2.383   3.522   4.649
12546TIP3    H137579   2.465   3.477   4.667
12546TIP3    H237580   2.349   3.546   4.735
12547TIP3   OH237581   0.739   6.467   2.866
12547TIP3    H137582   0.834   6.478   2.866
12547TIP3    H237583   0.708   6.536   2.807
12548TIP3   OH237584   2.441   4.434   2.355
12548TIP3    H137585   2.437   4.377   2.278
12548TIP3    H237586   2.395   4.385   2.423
12549TIP3   OH237587   1.896   6.342   2.328
12549TIP3    H137588   1.960   6.359   2.259
12549TIP3    H237589   1.822   6.302   2.283
12550TIP3   OH237590   8.352   1.547   1.364
12550TIP3    H137591   8.304   1.596   1.298
12550TIP3    H237592   8.305   1.566   1.446
12551TIP3   OH237593   5.554   1.720   4.205
12551TIP3    H137594   5.517   1.690   4.122
12551TIP3    H237595   5.598   1.802   4.184
12552TIP3   OH237596   3.484   5.904   4.367
12552TIP3    H137597   3.398   5.934   4.336
12552TIP3    H237598   3.488   5.933   4.458
12553TIP3   OH237599   4.137   0.234   5.645
12553TIP3    H137600   4.232   0.246   5.656
12553TIP3    H237601   4.119   0.266   5.556
12554TIP3   OH237602   1.279   3.565   6.502
12554TIP3    H137603   1.267   3.658   6.522
12554TIP3    H237604   1.266   3.521   6.586
12555TIP3   OH237605   8.272   4.422   0.693
12555TIP3    H137606   8.287   4.335   0.658
12555TIP3    H237607   8.213   4.408   0.768
12556TIP3   OH237608   7.578   7.205   3.460
12556TIP3    H137609   7.631   7.284   3.451
12556TIP3    H237610   7.579   7.187   3.554
12557TIP3   OH237611   7.603   6.183   5.584
12557TIP3    H137612   7.669   6.117   5.563
12557TIP3    H237613   7.654   6.264   5.595
12558TIP3   OH237614   0.525   7.229   1.849
12558TIP3    H137615   0.584   7.228   1.774
12558TIP3    H237616   0.437   7.236   1.811
12559TIP3   OH237617   6.642   0.267   5.680
12559TIP3    H137618   6.630   0.310   5.595
12559TIP3    H237619   6.680   0.182   5.658
12560TIP3   OH237620   0.584   1.071   0.299
12560TIP3    H137621   0.672   1.050   0.268
12560TIP3    H237622   0.535   1.088   0.219
12561TIP3   OH237623   0.805   5.854   6.846
12561TIP3    H137624   0.851   5.836   6.764
12561TIP3    H237625   0.869   5.899   6.900
12562TIP3   OH237626   6.232   0.408   5.983
12562TIP3    H137627   6.295   0.340   6.006
12562TIP3    H237628   6.162   0.362   5.937
12563TIP3   OH237629   2.305   4.914   5.976
12563TIP3    H137630   2.327   4.870   5.893
12563TIP3    H237631   2.295   5.006   5.952
12564TIP3   OH237632   1.402   1.143   0.814
12564TIP3    H137633   1.478   1.094   0.847
12564TIP3    H237634   1.421   1.234   0.836
12565TIP3   OH237635   2.357   5.339   0.552
12565TIP3    H137636   2.311   5.415   0.589
12565TIP3    H237637   2.396   5.296   0.628
12566TIP3   OH237638   3.205   3.950   1.520
12566TIP3    H137639   3.266   3.926   1.589
12566TIP3    H237640   3.119   3.944   1.561
12567TIP3   OH237641   7.254   0.273   0.345
12567TIP3    H137642   7.339   0.239   0.317
12567TIP3    H237643   7.207   0.196   0.377
12568TIP3   OH237644   0.529   1.808   6.415
12568TIP3    H137645   0.538   1.765   6.500
12568TIP3    H237646   0.486   1.744   6.360
12569TIP3   OH237647   4.723   3.364   6.635
12569TIP3    H137648   4.811   3.371   6.672
12569TIP3    H237649   4.680   3.297   6.687
12570TIP3   OH237650   0.253   1.531   4.293
12570TIP3    H137651   0.181   1.569   4.343
12570TIP3    H237652   0.328   1.531   4.353
12571TIP3   OH237653   1.896   0.775   3.401
12571TIP3    H137654   1.923   0.702   3.345
12571TIP3    H237655   1.942   0.851   3.365
12572TIP3   OH237656   0.680   1.111   3.521
12572TIP3    H137657   0.768   1.141   3.544
12572TIP3    H237658   0.633   1.191   3.497
12573TIP3   OH237659   1.499   4.828   1.483
12573TIP3    H137660   1.525   4.896   1.545
12573TIP3    H237661   1.476   4.753   1.538
12574TIP3   OH237662   2.145   6.267   1.453
12574TIP3    H137663   2.173   6.184   1.415
12574TIP3    H237664   2.058   6.282   1.416
12575TIP3   OH237665   4.815   2.062   4.595
12575TIP3    H137666   4.893   2.091   4.642
12575TIP3    H237667   4.845   1.992   4.538
12576TIP3   OH237668   7.142   7.147   5.985
12576TIP3    H137669   7.213   7.172   6.044
12576TIP3    H237670   7.064   7.186   6.024
12577TIP3   OH237671   1.878   3.474   3.824
12577TIP3    H137672   1.864   3.414   3.898
12577TIP3    H237673   1.940   3.428   3.767
12578TIP3   OH237674   1.237   4.858   4.129
12578TIP3    H137675   1.148   4.840   4.159
12578TIP3    H237676   1.226   4.900   4.044
12579TIP3   OH237677   0.293   1.122   6.677
12579TIP3    H137678   0.217   1.068   6.700
12579TIP3    H237679   0.273   1.157   6.591
12580TIP3   OH237680   7.910   0.404   6.586
12580TIP3    H137681   7.899   0.391   6.680
12580TIP3    H237682   7.857   0.335   6.546
12581TIP3   OH237683   5.454   7.371   5.743
12581TIP3    H137684   5.451   7.278   5.767
12581TIP3    H237685   5.385   7.381   5.677
12582TIP3   OH237686   6.604   6.005   6.849
12582TIP3    H137687   6.530   6.017   6.908
12582TIP3    H237688   6.582   5.926   6.799
12583TIP3   OH237689   0.835   1.038   0.461
12583TIP3    H137690   0.884   0.991   0.528
12583TIP3    H237691   0.743   1.014   0.478
12584TIP3   OH237692   3.961   6.746   1.050
12584TIP3    H137693   3.967   6.772   1.142
12584TIP3    H237694   4.008   6.815   1.002
12585TIP3   OH237695   2.962   6.166   4.703
12585TIP3    H137696   2.996   6.124   4.782
12585TIP3    H237697   2.886   6.215   4.732
12586TIP3   OH237698   3.176   4.842   4.628
12586TIP3    H137699   3.256   4.843   4.576
12586TIP3    H237700   3.135   4.758   4.608
12587TIP3   OH237701   6.513   6.407   2.618
12587TIP3    H137702   6.530   6.314   2.632
12587TIP3    H237703   6.467   6.411   2.534
12588TIP3   OH237704   1.744   4.545   5.746
12588TIP3    H137705   1.813   4.579   5.802
12588TIP3    H237706   1.778   4.461   5.715
12589TIP3   OH237707   5.641   2.278   1.576
12589TIP3    H137708   5.585   2.356   1.577
12589TIP3    H237709   5.583   2.206   1.597
12590TIP3   OH237710   4.843   2.602   5.958
12590TIP3    H137711   4.937   2.590   5.971
12590TIP3    H237712   4.825   2.690   5.992
12591TIP3   OH237713   3.902   1.259   3.850
12591TIP3    H137714   3.978   1.223   3.805
12591TIP3    H237715   3.921   1.353   3.857
12592TIP3   OH237716   5.374   6.767   5.848
12592TIP3    H137717   5.295   6.775   5.901
12592TIP3    H237718   5.427   6.700   5.892
12593TIP3   OH237719   5.322   4.915   0.129
12593TIP3    H137720   5.384   4.959   0.187
12593TIP3    H237721   5.356   4.826   0.119
12594TIP3   OH237722   7.144   4.043   6.263
12594TIP3    H137723   7.136   4.108   6.194
12594TIP3    H237724   7.058   4.041   6.305
12595TIP3   OH237725   6.032   5.923   3.313
12595TIP3    H137726   6.040   5.844   3.366
12595TIP3    H237727   6.108   5.977   3.339
12596TIP3   OH237728   7.144   5.521   4.068
12596TIP3    H137729   7.219   5.562   4.025
12596TIP3    H237730   7.184   5.461   4.132
12597TIP3   OH237731   1.563   3.175   6.564
12597TIP3    H137732   1.637   3.121   6.537
12597TIP3    H237733   1.594   3.224   6.641
12598TIP3   OH237734   3.842   3.744   3.289
12598TIP3    H137735   3.888   3.661   3.276
12598TIP3    H237736   3.815   3.742   3.381
12599TIP3   OH237737   6.904   2.578   4.270
12599TIP3    H137738   6.865   2.538   4.347
12599TIP3    H237739   6.868   2.667   4.268
12600TIP3   OH237740   7.582   7.241   6.595
12600TIP3    H137741   7.538   7.168   6.639
12600TIP3    H237742   7.650   7.268   6.656
12601TIP3   OH237743   0.211   6.081   5.750
12601TIP3    H137744   0.260   6.133   5.687
12601TIP3    H237745   0.166   6.014   5.698
12602TIP3   OH237746   1.007   3.593   4.498
12602TIP3    H137747   1.033   3.681   4.524
12602TIP3    H237748   1.089   3.543   4.494
12603TIP3   OH237749   4.100   2.932   4.194
12603TIP3    H137750   4.089   2.898   4.105
12603TIP3    H237751   4.055   3.017   4.192
12604TIP3   OH237752   3.265   5.675   2.879
12604TIP3    H137753   3.213   5.603   2.844
12604TIP3    H237754   3.315   5.635   2.951
12605TIP3   OH237755   4.200   1.269   0.557
12605TIP3    H137756   4.152   1.245   0.636
12605TIP3    H237757   4.149   1.230   0.486
12606TIP3   OH237758   0.419   4.150   5.628
12606TIP3    H137759   0.470   4.223   5.661
12606TIP3    H237760   0.344   4.191   5.583
12607TIP3   OH237761   2.645   1.130   5.421
12607TIP3    H137762   2.566   1.183   5.433
12607TIP3    H237763   2.617   1.040   5.437
12608TIP3   OH237764   6.539   4.091   6.301
12608TIP3    H137765   6.559   3.998   6.313
12608TIP3    H237766   6.445   4.094   6.287
12609TIP3   OH237767   7.032   4.684   0.711
12609TIP3    H137768   7.072   4.770   0.701
12609TIP3    H237769   7.063   4.634   0.636
12610TIP3   OH237770   2.163   4.301   6.111
12610TIP3    H137771   2.226   4.295   6.039
12610TIP3    H237772   2.089   4.349   6.074
12611TIP3   OH237773   2.878   6.904   5.791
12611TIP3    H137774   2.797   6.934   5.833
12611TIP3    H237775   2.878   6.947   5.705
12612TIP3   OH237776   6.854   5.104   3.400
12612TIP3    H137777   6.924   5.042   3.384
12612TIP3    H237778   6.791   5.088   3.331
12613TIP3   OH237779   8.403   4.673   4.657
12613TIP3    H137780   8.308   4.658   4.663
12613TIP3    H237781   8.420   4.675   4.563
12614TIP3   OH237782   6.513   7.481   4.199
12614TIP3    H137783   6.546   7.498   4.111
12614TIP3    H237784   6.432   7.532   4.205
12615TIP3   OH237785   4.528   7.843   5.030
12615TIP3    H137786   4.501   7.927   4.991
12615TIP3    H237787   4.543   7.786   4.954
12616TIP3   OH237788   0.615   6.501   5.298
12616TIP3    H137789   0.542   6.483   5.238
12616TIP3    H237790   0.611   6.595   5.313
12617TIP3   OH237791   0.141   2.801   5.809
12617TIP3    H137792   0.051   2.819   5.780
12617TIP3    H237793   0.133   2.725   5.866
12618TIP3   OH237794   0.075   4.810   4.350
12618TIP3    H137795   0.074   4.856   4.266
12618TIP3    H237796   0.017   4.735   4.337
12619TIP3   OH237797   3.759   3.423   0.009
12619TIP3    H137798   3.695   3.494   0.006
12619TIP3    H237799   3.826   3.455   0.070
12620TIP3   OH237800   7.624   2.780   6.822
12620TIP3    H137801   7.593   2.707   6.875
12620TIP3    H237802   7.644   2.740   6.737
12621TIP3   OH237803   6.884   1.604   3.478
12621TIP3    H137804   6.850   1.515   3.487
12621TIP3    H237805   6.833   1.656   3.540
12622TIP3   OH237806   5.653   6.764   0.408
12622TIP3    H137807   5.734   6.806   0.381
12622TIP3    H237808   5.590   6.787   0.340
12623TIP3   OH237809   1.126   6.980   6.574
12623TIP3    H137810   1.039   7.021   6.564
12623TIP3    H237811   1.175   7.009   6.497
12624TIP3   OH237812   7.019   5.129   5.496
12624TIP3    H137813   6.947   5.110   5.555
12624TIP3    H237814   7.084   5.173   5.551
12625TIP3   OH237815   4.075   1.073   1.860
12625TIP3    H137816   3.987   1.092   1.828
12625TIP3    H237817   4.100   1.151   1.909
12626TIP3   OH237818   7.095   0.155   1.001
12626TIP3    H137819   7.119   0.070   1.039
12626TIP3    H237820   7.178   0.201   0.992
12627TIP3   OH237821   6.092   4.476   1.296
12627TIP3    H137822   6.095   4.381   1.285
12627TIP3    H237823   6.111   4.510   1.208
12628TIP3   OH237824   0.749   5.159   5.349
12628TIP3    H137825   0.704   5.215   5.286
12628TIP3    H237826   0.722   5.192   5.435
12629TIP3   OH237827   3.417   4.372   1.409
12629TIP3    H137828   3.491   4.342   1.356
12629TIP3    H237829   3.443   4.352   1.499
12630TIP3   OH237830   1.571   1.349   5.006
12630TIP3    H137831   1.549   1.261   4.975
12630TIP3    H237832   1.535   1.408   4.939
12631TIP3   OH237833   0.887   4.300   0.751
12631TIP3    H137834   0.939   4.337   0.680
12631TIP3    H237835   0.946   4.239   0.795
12632TIP3   OH237836   1.378   2.410   2.300
12632TIP3    H137837   1.294   2.394   2.256
12632TIP3    H237838   1.355   2.424   2.392
12633TIP3   OH237839   3.051   4.188   6.197
12633TIP3    H137840   3.119   4.239   6.241
12633TIP3    H237841   2.969   4.219   6.235
12634TIP3   OH237842   3.222   2.024   6.058
12634TIP3    H137843   3.192   1.995   6.145
12634TIP3    H237844   3.259   1.945   6.019
12635TIP3   OH237845   3.277   3.653   5.822
12635TIP3    H137846   3.310   3.733   5.863
12635TIP3    H237847   3.282   3.587   5.891
12636TIP3   OH237848   8.349   5.767   0.884
12636TIP3    H137849   8.403   5.804   0.954
12636TIP3    H237850   8.263   5.754   0.925
12637TIP3   OH237851   3.634   4.723   0.549
12637TIP3    H137852   3.604   4.671   0.474
12637TIP3    H237853   3.729   4.711   0.550
12638TIP3   OH237854   6.114   4.978   3.401
12638TIP3    H137855   6.100   5.072   3.395
12638TIP3    H237856   6.077   4.954   3.486
12639TIP3   OH237857   5.778   2.688   2.751
12639TIP3    H137858   5.738   2.615   2.703
12639TIP3    H237859   5.872   2.675   2.740
12640TIP3   OH237860   2.942   4.746   5.391
12640TIP3    H137861   2.986   4.661   5.381
12640TIP3    H237862   2.859   4.736   5.346
12641TIP3   OH237863   3.431   6.605   5.979
12641TIP3    H137864   3.414   6.692   6.014
12641TIP3    H237865   3.464   6.621   5.891
12642TIP3   OH237866   7.265   7.156   4.116
12642TIP3    H137867   7.232   7.128   4.201
12642TIP3    H237868   7.194   7.209   4.079
12643TIP3   OH237869   5.276   0.911   0.919
12643TIP3    H137870   5.230   0.988   0.885
12643TIP3    H237871   5.208   0.846   0.931
12644TIP3   OH237872   3.671   0.122   2.111
12644TIP3    H137873   3.589   0.166   2.131
12644TIP3    H237874   3.645   0.036   2.079
12645TIP3   OH237875   1.269   4.826   6.602
12645TIP3    H137876   1.319   4.751   6.569
12645TIP3    H237877   1.234   4.867   6.523
12646TIP3   OH237878   4.205   4.708   3.904
12646TIP3    H137879   4.116   4.742   3.914
12646TIP3    H237880   4.252   4.742   3.980
12647TIP3   OH237881   3.806   2.825   6.707
12647TIP3    H137882   3.870   2.798   6.641
12647TIP3    H237883   3.728   2.850   6.656
12648TIP3   OH237884   5.804   4.807   2.789
12648TIP3    H137885   5.857   4.828   2.712
12648TIP3    H237886   5.803   4.711   2.791
12649TIP3   OH237887   8.178   2.629   3.122
12649TIP3    H137888   8.088   2.623   3.155
12649TIP3    H237889   8.177   2.578   3.041
12650TIP3   OH237890   7.755   6.113   2.181
12650TIP3    H137891   7.826   6.102   2.118
12650TIP3    H237892   7.755   6.031   2.231
12651TIP3   OH237893   5.605   7.116   1.255
12651TIP3    H137894   5.523   7.089   1.214
12651TIP3    H237895   5.635   7.189   1.202
12652TIP3   OH237896   2.020   6.008   1.262
12652TIP3    H137897   1.950   5.972   1.317
12652TIP3    H237898   1.980   6.080   1.215
12653TIP3   OH237899   0.776   6.640   5.055
12653TIP3    H137900   0.768   6.699   5.130
12653TIP3    H237901   0.702   6.580   5.064
12654TIP3   OH237902   6.955   7.739   2.255
12654TIP3    H137903   7.045   7.717   2.232
12654TIP3    H237904   6.903   7.707   2.181
12655TIP3   OH237905   6.948   0.517   1.448
12655TIP3    H137906   6.908   0.431   1.460
12655TIP3    H237907   7.022   0.502   1.390
12656TIP3   OH237908   5.206   4.977   3.689
12656TIP3    H137909   5.194   5.019   3.774
12656TIP3    H237910   5.183   5.044   3.625
12657TIP3   OH237911   0.021   5.323   6.134
12657TIP3    H137912  -0.043   5.340   6.204
12657TIP3    H237913   0.091   5.273   6.177
12658TIP3   OH237914   2.327   0.950   2.227
12658TIP3    H137915   2.393   0.898   2.272
12658TIP3    H237916   2.374   0.990   2.153
12659TIP3   OH237917   6.360   5.991   5.460
12659TIP3    H137918   6.329   5.908   5.495
12659TIP3    H237919   6.341   5.986   5.366
12660TIP3   OH237920   1.387   7.281   4.749
12660TIP3    H137921   1.478   7.252   4.743
12660TIP3    H237922   1.347   7.223   4.814
12661TIP3   OH237923   4.741   5.384   0.721
12661TIP3    H137924   4.685   5.311   0.694
12661TIP3    H237925   4.679   5.452   0.750
12662TIP3   OH237926   3.965   2.161   3.444
12662TIP3    H137927   4.002   2.122   3.365
12662TIP3    H237928   3.947   2.252   3.421
12663TIP3   OH237929   1.537   5.526   2.415
12663TIP3    H137930   1.446   5.500   2.399
12663TIP3    H237931   1.533   5.621   2.425
12664TIP3   OH237932   6.238   5.384   2.262
12664TIP3    H137933   6.161   5.330   2.281
12664TIP3    H237934   6.298   5.368   2.334
12665TIP3   OH237935   4.314   4.607   0.792
12665TIP3    H137936   4.282   4.696   0.777
12665TIP3    H237937   4.383   4.617   0.858
12666TIP3   OH237938   3.911   5.113   3.359
12666TIP3    H137939   3.967   5.052   3.311
12666TIP3    H237940   3.849   5.145   3.293
12667TIP3   OH237941   1.854   6.376   3.035
12667TIP3    H137942   1.799   6.351   3.110
12667TIP3    H237943   1.837   6.470   3.023
12668TIP3   OH237944   7.286   2.244   6.811
12668TIP3    H137945   7.366   2.208   6.849
12668TIP3    H237946   7.298   2.339   6.813
12669TIP3   OH237947   7.915   5.304   3.252
12669TIP3    H137948   7.884   5.254   3.177
12669TIP3    H237949   7.931   5.392   3.217
12670TIP3   OH237950   2.096   5.209   2.435
12670TIP3    H137951   2.006   5.239   2.449
12670TIP3    H237952   2.150   5.266   2.490
12671TIP3   OH237953   0.675   1.440   3.818
12671TIP3    H137954   0.747   1.497   3.788
12671TIP3    H237955   0.596   1.491   3.801
12672TIP3   OH237956   7.533   4.018   5.544
12672TIP3    H137957   7.476   4.075   5.596
12672TIP3    H237958   7.620   4.031   5.580
12673TIP3   OH237959   3.050   0.253   3.473
12673TIP3    H137960   2.980   0.236   3.535
12673TIP3    H237961   3.034   0.193   3.400
12674TIP3   OH237962   1.847   3.578   2.073
12674TIP3    H137963   1.932   3.622   2.071
12674TIP3    H237964   1.867   3.489   2.103
12675TIP3   OH237965   3.847   0.810   6.446
12675TIP3    H137966   3.777   0.786   6.386
12675TIP3    H237967   3.896   0.879   6.399
12676TIP3   OH237968   0.468   5.690   5.788
12676TIP3    H137969   0.505   5.773   5.758
12676TIP3    H237970   0.488   5.629   5.717
12677TIP3   OH237971   3.343   5.116   4.557
12677TIP3    H137972   3.385   5.045   4.605
12677TIP3    H237973   3.374   5.195   4.600
12678TIP3   OH237974   5.438   4.174   5.008
12678TIP3    H137975   5.513   4.151   4.953
12678TIP3    H237976   5.450   4.122   5.088
12679TIP3   OH237977   4.592   1.499   6.012
12679TIP3    H137978   4.564   1.411   6.034
12679TIP3    H237979   4.550   1.516   5.927
12680TIP3   OH237980   0.709   4.445   3.566
12680TIP3    H137981   0.686   4.432   3.658
12680TIP3    H237982   0.631   4.420   3.517
12681TIP3   OH237983   0.545   1.254   1.675
12681TIP3    H137984   0.616   1.212   1.627
12681TIP3    H237985   0.567   1.347   1.673
12682TIP3   OH237986   2.595   0.446   2.674
12682TIP3    H137987   2.546   0.377   2.630
12682TIP3    H237988   2.636   0.402   2.749
12683TIP3   OH237989   3.654   3.656   2.977
12683TIP3    H137990   3.621   3.739   2.943
12683TIP3    H237991   3.616   3.590   2.918
12684TIP3   OH237992   4.911   5.507   4.899
12684TIP3    H137993   4.915   5.491   4.993
12684TIP3    H237994   4.840   5.451   4.867
12685TIP3   OH237995   2.212   0.706   6.430
12685TIP3    H137996   2.259   0.735   6.508
12685TIP3    H237997   2.147   0.774   6.414
12686TIP3   OH237998   5.540   6.804   3.801
12686TIP3    H137999   5.537   6.896   3.776
12686TIP3    H238000   5.628   6.775   3.778
12687TIP3   OH238001   6.205   1.667   5.252
12687TIP3    H138002   6.153   1.747   5.260
12687TIP3    H238003   6.276   1.678   5.315
12688TIP3   OH238004   3.660   5.241   3.588
12688TIP3    H138005   3.739   5.294   3.578
12688TIP3    H238006   3.693   5.152   3.600
12689TIP3   OH238007   5.948   6.056   3.714
12689TIP3    H138008   6.004   6.081   3.788
12689TIP3    H238009   5.950   6.133   3.657
12690TIP3   OH238010   0.282   2.127   2.833
12690TIP3    H138011   0.374   2.151   2.840
12690TIP3    H238012   0.282   2.032   2.822
12691TIP3   OH238013   0.731   2.291   1.638
12691TIP3    H138014   0.710   2.197   1.638
12691TIP3    H238015   0.647   2.334   1.657
12692TIP3   OH238016   5.537   6.407   3.966
12692TIP3    H138017   5.483   6.331   3.947
12692TIP3    H238018   5.575   6.432   3.882
12693TIP3   OH238019   2.759   1.204   4.421
12693TIP3    H138020   2.750   1.183   4.328
12693TIP3    H238021   2.752   1.300   4.425
12694TIP3   OH238022   0.062   3.512   4.039
12694TIP3    H138023   0.059   3.504   4.134
12694TIP3    H238024   0.123   3.444   4.011
12695TIP3   OH238025   7.635   5.167   6.155
12695TIP3    H138026   7.726   5.180   6.127
12695TIP3    H238027   7.638   5.173   6.250
12696TIP3   OH238028   4.335   3.932   5.605
12696TIP3    H138029   4.298   3.844   5.615
12696TIP3    H238030   4.281   3.974   5.539
12697TIP3   OH238031   1.808   0.892   4.452
12697TIP3    H138032   1.799   0.967   4.511
12697TIP3    H238033   1.900   0.893   4.426
12698TIP3   OH238034   1.918   0.516   6.786
12698TIP3    H138035   1.972   0.586   6.749
12698TIP3    H238036   1.878   0.473   6.711
12699TIP3   OH238037   4.379   5.358   5.939
12699TIP3    H138038   4.351   5.313   6.019
12699TIP3    H238039   4.415   5.441   5.970
12700TIP3   OH238040   3.378   5.079   1.273
12700TIP3    H138041   3.309   5.048   1.214
12700TIP3    H238042   3.445   5.116   1.215
12701TIP3   OH238043   0.655   7.170   0.144
12701TIP3    H138044   0.722   7.205   0.085
12701TIP3    H238045   0.686   7.196   0.231
12702TIP3   OH238046   2.476   4.742   3.630
12702TIP3    H138047   2.565   4.709   3.635
12702TIP3    H238048   2.452   4.733   3.538
12703TIP3   OH238049   1.193   3.719   1.169
12703TIP3    H138050   1.122   3.734   1.231
12703TIP3    H238051   1.164   3.762   1.088
12704TIP3   OH238052   6.941   7.491   4.107
12704TIP3    H138053   6.935   7.494   4.202
12704TIP3    H238054   6.850   7.477   4.078
12705TIP3   OH238055   3.905   1.857   0.179
12705TIP3    H138056   3.871   1.931   0.128
12705TIP3    H238057   3.860   1.780   0.142
12706TIP3   OH238058   4.195   1.746   3.104
12706TIP3    H138059   4.252   1.816   3.071
12706TIP3    H238060   4.198   1.755   3.199
12707TIP3   OH238061   6.904   1.011   2.982
12707TIP3    H138062   6.867   1.009   3.070
12707TIP3    H238063   6.863   1.087   2.940
12708TIP3   OH238064   5.888   7.437   5.345
12708TIP3    H138065   5.828   7.375   5.386
12708TIP3    H238066   5.833   7.488   5.285
12709TIP3   OH238067   4.171   1.041   1.565
12709TIP3    H138068   4.212   1.032   1.651
12709TIP3    H238069   4.226   1.104   1.518
12710TIP3   OH238070   0.677   2.424   0.295
12710TIP3    H138071   0.759   2.457   0.257
12710TIP3    H238072   0.646   2.496   0.351
12711TIP3   OH238073   2.997   5.190   1.705
12711TIP3    H138074   2.943   5.269   1.715
12711TIP3    H238075   2.952   5.123   1.756
12712TIP3   OH238076   1.472   6.958   4.891
12712TIP3    H138077   1.513   6.958   4.978
12712TIP3    H238078   1.382   6.987   4.907
12713TIP3   OH238079   7.002   1.898   2.939
12713TIP3    H138080   6.960   1.814   2.917
12713TIP3    H238081   6.929   1.956   2.960
12714TIP3   OH238082   7.024   2.929   3.376
12714TIP3    H138083   6.986   2.965   3.456
12714TIP3    H238084   7.037   3.005   3.319
12715TIP3   OH238085   5.007   6.233   6.142
12715TIP3    H138086   5.022   6.326   6.129
12715TIP3    H238087   5.089   6.191   6.115
12716TIP3   OH238088   5.805   6.189   6.402
12716TIP3    H138089   5.896   6.162   6.410
12716TIP3    H238090   5.777   6.204   6.492
12717TIP3   OH238091   4.876   5.298   2.293
12717TIP3    H138092   4.902   5.389   2.280
12717TIP3    H238093   4.797   5.303   2.347
12718TIP3   OH238094   6.061   7.220   1.450
12718TIP3    H138095   6.021   7.166   1.382
12718TIP3    H238096   6.154   7.224   1.427
12719TIP3   OH238097   8.050   1.803   6.804
12719TIP3    H138098   8.103   1.732   6.842
12719TIP3    H238099   8.088   1.883   6.840
12720TIP3   OH238100   1.517   0.266   6.473
12720TIP3    H138101   1.549   0.226   6.553
12720TIP3    H238102   1.470   0.196   6.428
12721TIP3   OH238103   8.065   6.998   3.808
12721TIP3    H138104   8.105   7.037   3.885
12721TIP3    H238105   7.978   6.970   3.838
12722TIP3   OH238106   1.962   4.131   6.423
12722TIP3    H138107   1.986   4.202   6.482
12722TIP3    H238108   2.039   4.075   6.419
12723TIP3   OH238109   6.461   7.209   0.638
12723TIP3    H138110   6.444   7.300   0.614
12723TIP3    H238111   6.453   7.207   0.733
12724TIP3   OH238112   1.451   6.890   3.368
12724TIP3    H138113   1.416   6.867   3.281
12724TIP3    H238114   1.536   6.846   3.371
12725TIP3   OH238115   5.871   7.865   3.855
12725TIP3    H138116   5.933   7.927   3.816
12725TIP3    H238117   5.856   7.899   3.943
12726TIP3   OH238118   1.113   1.364   6.558
12726TIP3    H138119   1.068   1.292   6.514
12726TIP3    H238120   1.163   1.407   6.488
12727TIP3   OH238121   4.107   1.584   5.014
12727TIP3    H138122   4.189   1.535   5.005
12727TIP3    H238123   4.107   1.643   4.938
12728TIP3   OH238124   4.779   3.355   0.817
12728TIP3    H138125   4.795   3.280   0.761
12728TIP3    H238126   4.691   3.340   0.853
12729TIP3   OH238127   8.386   0.982   5.757
12729TIP3    H138128   8.336   0.996   5.837
12729TIP3    H238129   8.321   0.976   5.688
12730TIP3   OH238130   1.529   5.413   6.452
12730TIP3    H138131   1.557   5.344   6.512
12730TIP3    H238132   1.482   5.475   6.508
12731TIP3   OH238133   0.020   0.658   4.743
12731TIP3    H138134   0.108   0.634   4.713
12731TIP3    H238135  -0.028   0.575   4.742
12732TIP3   OH238136   6.656   7.604   1.888
12732TIP3    H138137   6.624   7.686   1.925
12732TIP3    H238138   6.585   7.574   1.831
12733TIP3   OH238139   7.146   6.237   1.808
12733TIP3    H138140   7.098   6.315   1.782
12733TIP3    H238141   7.078   6.174   1.832
12734TIP3   OH238142   3.702   5.457   6.022
12734TIP3    H138143   3.626   5.400   6.032
12734TIP3    H238144   3.738   5.464   6.111
12735TIP3   OH238145   3.328   4.339   4.059
12735TIP3    H138146   3.345   4.247   4.079
12735TIP3    H238147   3.402   4.366   4.004
12736TIP3   OH238148   1.674   3.540   6.464
12736TIP3    H138149   1.725   3.477   6.413
12736TIP3    H238150   1.601   3.563   6.407
12737TIP3   OH238151   0.436   5.023   3.580
12737TIP3    H138152   0.447   5.013   3.674
12737TIP3    H238153   0.431   5.118   3.566
12738TIP3   OH238154   7.711   7.784   0.878
12738TIP3    H138155   7.769   7.708   0.869
12738TIP3    H238156   7.647   7.756   0.943
12739TIP3   OH238157   5.317   0.163   5.891
12739TIP3    H138158   5.249   0.096   5.903
12739TIP3    H238159   5.396   0.125   5.929
12740TIP3   OH238160   1.711   5.086   4.517
12740TIP3    H138161   1.694   5.177   4.543
12740TIP3    H238162   1.752   5.047   4.594
12741TIP3   OH238163   6.943   2.508   2.534
12741TIP3    H138164   7.021   2.453   2.527
12741TIP3    H238165   6.948   2.546   2.622
12742TIP3   OH238166   3.041   7.891  -0.001
12742TIP3    H138167   3.057   7.838   0.077
12742TIP3    H238168   2.946   7.887  -0.014
12743TIP3   OH238169   6.032   2.849   0.725
12743TIP3    H138170   5.993   2.936   0.737
12743TIP3    H238171   6.116   2.855   0.770
12744TIP3   OH238172   1.500   0.937   4.019
12744TIP3    H138173   1.444   1.000   4.064
12744TIP3    H238174   1.573   0.923   4.080
12745TIP3   OH238175   2.243   6.415   3.938
12745TIP3    H138176   2.265   6.507   3.921
12745TIP3    H238177   2.313   6.365   3.896
12746TIP3   OH238178   4.892   5.397   1.944
12746TIP3    H138179   4.812   5.443   1.920
12746TIP3    H238180   4.962   5.460   1.927
12747TIP3   OH238181   8.154   6.137   1.042
12747TIP3    H138182   8.097   6.205   1.007
12747TIP3    H238183   8.125   6.124   1.132
12748TIP3   OH238184   2.928   3.433   5.107
12748TIP3    H138185   2.975   3.350   5.094
12748TIP3    H238186   2.863   3.414   5.174
12749TIP3   OH238187   5.169   4.434   3.756
12749TIP3    H138188   5.104   4.412   3.690
12749TIP3    H238189   5.237   4.482   3.707
12750TIP3   OH238190   7.083   3.911   3.608
12750TIP3    H138191   7.035   3.877   3.684
12750TIP3    H238192   7.115   3.833   3.563
12751TIP3   OH238193   1.020   3.990   0.119
12751TIP3    H138194   1.015   3.931   0.043
12751TIP3    H238195   1.113   3.992   0.142
12752TIP3   OH238196   2.833   1.026   5.219
12752TIP3    H138197   2.788   1.105   5.247
12752TIP3    H238198   2.779   0.954   5.252
12753TIP3   OH238199   6.523   2.136   3.748
12753TIP3    H138200   6.497   2.087   3.826
12753TIP3    H238201   6.464   2.211   3.745
12754TIP3   OH238202   8.033   6.122   5.597
12754TIP3    H138203   7.989   6.204   5.575
12754TIP3    H238204   8.126   6.143   5.595
12755TIP3   OH238205   0.383   7.303   3.809
12755TIP3    H138206   0.352   7.376   3.863
12755TIP3    H238207   0.352   7.225   3.855
12756TIP3   OH238208   1.181   2.873   5.233
12756TIP3    H138209   1.178   2.778   5.244
12756TIP3    H238210   1.214   2.886   5.144
12757TIP3   OH238211   1.825   2.492   6.887
12757TIP3    H138212   1.802   2.535   6.805
12757TIP3    H238213   1.788   2.404   6.879
12758TIP3   OH238214   7.687   1.348   6.244
12758TIP3    H138215   7.707   1.363   6.336
12758TIP3    H238216   7.612   1.404   6.226
12759TIP3   OH238217   1.030   4.128   2.383
12759TIP3    H138218   0.952   4.104   2.333
12759TIP3    H238219   1.049   4.219   2.358
12760TIP3   OH238220   8.098   2.455   0.212
12760TIP3    H138221   8.136   2.541   0.232
12760TIP3    H238222   8.004   2.466   0.227
12761TIP3   OH238223   5.404   4.345   1.292
12761TIP3    H138224   5.359   4.291   1.227
12761TIP3    H238225   5.333   4.388   1.340
12762TIP3   OH238226   6.163   4.116   0.327
12762TIP3    H138227   6.209   4.036   0.302
12762TIP3    H238228   6.141   4.159   0.245
12763TIP3   OH238229   4.985   4.552   4.278
12763TIP3    H138230   4.988   4.529   4.186
12763TIP3    H238231   4.905   4.605   4.287
12764TIP3   OH238232   0.788   3.555   3.270
12764TIP3    H138233   0.867   3.598   3.237
12764TIP3    H238234   0.787   3.576   3.364
12765TIP3   OH238235   2.680   3.702   1.641
12765TIP3    H138236   2.587   3.678   1.644
12765TIP3    H238237   2.685   3.770   1.574
12766TIP3   OH238238   3.288   2.109   5.326
12766TIP3    H138239   3.210   2.088   5.276
12766TIP3    H238240   3.344   2.032   5.317
12767TIP3   OH238241   4.328   6.048   4.116
12767TIP3    H138242   4.260   6.097   4.069
12767TIP3    H238243   4.329   6.086   4.204
12768TIP3   OH238244   0.466   4.739   3.494
12768TIP3    H138245   0.521   4.703   3.563
12768TIP3    H238246   0.443   4.827   3.524
12769TIP3   OH238247   2.137   5.527   2.346
12769TIP3    H138248   2.176   5.535   2.433
12769TIP3    H238249   2.074   5.599   2.341
12770TIP3   OH238250   6.720   4.048   1.413
12770TIP3    H138251   6.668   4.039   1.334
12770TIP3    H238252   6.722   3.960   1.451
12771TIP3   OH238253   4.954   1.084   6.800
12771TIP3    H138254   4.982   1.173   6.821
12771TIP3    H238255   5.031   1.043   6.761
12772TIP3   OH238256   1.153   3.634   3.428
12772TIP3    H138257   1.105   3.671   3.502
12772TIP3    H238258   1.212   3.704   3.400
12773TIP3   OH238259   7.508   0.654   6.757
12773TIP3    H138260   7.578   0.616   6.810
12773TIP3    H238261   7.499   0.596   6.682
12774TIP3   OH238262   5.629   1.193   0.470
12774TIP3    H138263   5.669   1.108   0.486
12774TIP3    H238264   5.702   1.248   0.440
12775TIP3   OH238265   2.720   5.459   3.823
12775TIP3    H138266   2.809   5.492   3.813
12775TIP3    H238267   2.704   5.461   3.917
12776TIP3   OH238268   5.996   5.551   1.486
12776TIP3    H138269   5.904   5.538   1.510
12776TIP3    H238270   6.001   5.522   1.395
12777TIP3   OH238271   2.220   1.014   1.949
12777TIP3    H138272   2.233   0.923   1.975
12777TIP3    H238273   2.308   1.047   1.930
12778TIP3   OH238274   5.986   5.537   6.393
12778TIP3    H138275   6.028   5.459   6.429
12778TIP3    H238276   6.040   5.561   6.318
12779TIP3   OH238277   1.940   0.910   1.734
12779TIP3    H138278   1.993   0.976   1.779
12779TIP3    H238279   1.960   0.829   1.780
12780TIP3   OH238280   0.251   0.480   4.253
12780TIP3    H138281   0.235   0.482   4.347
12780TIP3    H238282   0.301   0.560   4.235
12781TIP3   OH238283   6.040   5.393   0.791
12781TIP3    H138284   6.066   5.313   0.746
12781TIP3    H238285   6.122   5.439   0.808
12782TIP3   OH238286   1.144   1.759   1.506
12782TIP3    H138287   1.118   1.673   1.472
12782TIP3    H238288   1.199   1.797   1.438
12783TIP3   OH238289   8.262   7.515   0.919
12783TIP3    H138290   8.217   7.460   0.855
12783TIP3    H238291   8.354   7.512   0.894
12784TIP3   OH238292   7.342   0.903   6.785
12784TIP3    H138293   7.251   0.873   6.786
12784TIP3    H238294   7.394   0.825   6.767
12785TIP3   OH238295   1.989   2.600   4.073
12785TIP3    H138296   1.899   2.631   4.085
12785TIP3    H238297   2.030   2.614   4.159
12786TIP3   OH238298   2.937   2.293   1.192
12786TIP3    H138299   3.000   2.287   1.120
12786TIP3    H238300   2.988   2.271   1.270
12787TIP3   OH238301   5.781   1.458   0.888
12787TIP3    H138302   5.839   1.412   0.827
12787TIP3    H238303   5.814   1.433   0.975
12788TIP3   OH238304   7.455   2.853   1.238
12788TIP3    H138305   7.430   2.945   1.229
12788TIP3    H238306   7.526   2.854   1.302
12789TIP3   OH238307   8.228   1.961   1.588
12789TIP3    H138308   8.138   1.979   1.561
12789TIP3    H238309   8.267   1.913   1.514
12790TIP3   OH238310   1.012   4.375   4.581
12790TIP3    H138311   1.061   4.453   4.557
12790TIP3    H238312   0.925   4.408   4.604
12791TIP3   OH238313   1.428   7.625   5.472
12791TIP3    H138314   1.506   7.594   5.520
12791TIP3    H238315   1.383   7.682   5.534
12792TIP3   OH238316   5.545   6.364   0.139
12792TIP3    H138317   5.568   6.348   0.048
12792TIP3    H238318   5.449   6.355   0.141
12793TIP3   OH238319   1.052   4.245   0.352
12793TIP3    H138320   1.079   4.166   0.400
12793TIP3    H238321   1.112   4.249   0.278
12794TIP3   OH238322   3.756   5.360   5.743
12794TIP3    H138323   3.729   5.353   5.835
12794TIP3    H238324   3.730   5.449   5.718
12795TIP3   OH238325   1.170   4.396   6.358
12795TIP3    H138326   1.121   4.479   6.359
12795TIP3    H238327   1.119   4.339   6.300
12796TIP3   OH238328   2.637   0.068   4.557
12796TIP3    H138329   2.590   0.149   4.576
12796TIP3    H238330   2.612   0.046   4.467
12797TIP3   OH238331   5.078   4.418   1.030
12797TIP3    H138332   5.022   4.464   0.968
12797TIP3    H238333   5.059   4.459   1.115
12798TIP3   OH238334   3.606   0.134   0.406
12798TIP3    H138335   3.655   0.098   0.333
12798TIP3    H238336   3.538   0.188   0.366
12799TIP3   OH238337   3.975   5.850   3.620
12799TIP3    H138338   4.030   5.919   3.658
12799TIP3    H238339   3.887   5.870   3.651
12800TIP3   OH238340   2.612   5.536   2.773
12800TIP3    H138341   2.674   5.608   2.765
12800TIP3    H238342   2.539   5.573   2.823
12801TIP3   OH238343   1.738   2.070   5.480
12801TIP3    H138344   1.726   2.047   5.388
12801TIP3    H238345   1.652   2.058   5.519
12802TIP3   OH238346   6.466   1.591   2.225
12802TIP3    H138347   6.540   1.578   2.285
12802TIP3    H238348   6.506   1.625   2.145
12803TIP3   OH238349   1.110   3.162   3.104
12803TIP3    H138350   1.053   3.093   3.140
12803TIP3    H238351   1.051   3.235   3.086
12804TIP3   OH238352   2.004   1.572   6.563
12804TIP3    H138353   1.999   1.619   6.646
12804TIP3    H238354   1.954   1.625   6.501
12805TIP3   OH238355   1.975   5.503   2.889
12805TIP3    H138356   2.049   5.450   2.918
12805TIP3    H238357   1.934   5.533   2.970
12806TIP3   OH238358   4.550   3.594   2.079
12806TIP3    H138359   4.626   3.641   2.112
12806TIP3    H238360   4.535   3.631   1.992
12807TIP3   OH238361   5.374   4.874   2.122
12807TIP3    H138362   5.454   4.922   2.099
12807TIP3    H238363   5.305   4.915   2.069
12808TIP3   OH238364   4.338   0.580   1.018
12808TIP3    H138365   4.396   0.554   0.947
12808TIP3    H238366   4.342   0.676   1.018
12809TIP3   OH238367   5.381   0.856   3.890
12809TIP3    H138368   5.372   0.945   3.855
12809TIP3    H238369   5.374   0.867   3.985
12810TIP3   OH238370   6.537   5.090   3.252
12810TIP3    H138371   6.520   5.069   3.344
12810TIP3    H238372   6.457   5.065   3.207
12811TIP3   OH238373   5.161   7.771   2.787
12811TIP3    H138374   5.198   7.703   2.843
12811TIP3    H238375   5.154   7.847   2.845
12812TIP3   OH238376   6.927   1.140   4.085
12812TIP3    H138377   6.908   1.049   4.108
12812TIP3    H238378   6.890   1.151   3.998
12813TIP3   OH238379   5.983   7.437   1.297
12813TIP3    H138380   6.027   7.378   1.359
12813TIP3    H238381   5.962   7.382   1.222
12814TIP3   OH238382   2.830   0.083   3.844
12814TIP3    H138383   2.790   0.001   3.814
12814TIP3    H238384   2.820   0.081   3.939
12815TIP3   OH238385   8.253   4.668   3.898
12815TIP3    H138386   8.194   4.733   3.859
12815TIP3    H238387   8.262   4.600   3.831
12816TIP3   OH238388   2.741   0.391   1.528
12816TIP3    H138389   2.826   0.416   1.492
12816TIP3    H238390   2.703   0.332   1.463
12817TIP3   OH238391   3.578   0.643   3.669
12817TIP3    H138392   3.584   0.562   3.721
12817TIP3    H238393   3.614   0.711   3.726
12818TIP3   OH238394   7.019   6.432   1.341
12818TIP3    H138395   7.084   6.374   1.381
12818TIP3    H238396   7.044   6.519   1.371
12819TIP3   OH238397   2.535   2.507   3.143
12819TIP3    H138398   2.586   2.494   3.062
12819TIP3    H238399   2.462   2.445   3.136
12820TIP3   OH238400   5.366   3.096   2.848
12820TIP3    H138401   5.458   3.100   2.875
12820TIP3    H238402   5.356   3.010   2.808
12821TIP3   OH238403   4.659   5.045   3.471
12821TIP3    H138404   4.583   5.104   3.463
12821TIP3    H238405   4.720   5.076   3.405
12822TIP3   OH238406   4.447   1.948   6.056
12822TIP3    H138407   4.502   1.996   6.118
12822TIP3    H238408   4.507   1.891   6.010
12823TIP3   OH238409   6.732   4.920   3.913
12823TIP3    H138410   6.697   4.963   3.991
12823TIP3    H238411   6.780   4.990   3.867
12824TIP3   OH238412   7.123   2.009   4.353
12824TIP3    H138413   7.118   2.003   4.258
12824TIP3    H238414   7.190   2.076   4.370
12825TIP3   OH238415   4.580   1.335   2.372
12825TIP3    H138416   4.496   1.379   2.359
12825TIP3    H238417   4.558   1.250   2.410
12826TIP3   OH238418   3.365   3.517   0.089
12826TIP3    H138419   3.321   3.432   0.091
12826TIP3    H238420   3.306   3.575   0.138
12827TIP3   OH238421   6.637   1.246   6.635
12827TIP3    H138422   6.687   1.325   6.613
12827TIP3    H238423   6.548   1.276   6.648
12828TIP3   OH238424   3.534   3.224   3.431
12828TIP3    H138425   3.460   3.192   3.482
12828TIP3    H238426   3.498   3.294   3.376
12829TIP3   OH238427   8.285   5.813   5.394
12829TIP3    H138428   8.303   5.830   5.302
12829TIP3    H238429   8.211   5.753   5.394
12830TIP3   OH238430   3.932   5.020   4.170
12830TIP3    H138431   4.012   5.063   4.140
12830TIP3    H238432   3.866   5.042   4.104
12831TIP3   OH238433   0.788   2.801   4.385
12831TIP3    H138434   0.825   2.808   4.474
12831TIP3    H238435   0.842   2.861   4.333
12832TIP3   OH238436   8.335   1.104   1.080
12832TIP3    H138437   8.408   1.154   1.116
12832TIP3    H238438   8.266   1.113   1.146
12833TIP3   OH238439   8.212   2.053   0.901
12833TIP3    H138440   8.219   2.100   0.984
12833TIP3    H238441   8.297   2.063   0.859
12834TIP3   OH238442   5.726   0.359   0.918
12834TIP3    H138443   5.685   0.427   0.971
12834TIP3    H238444   5.819   0.382   0.916
12835TIP3   OH238445   3.210   6.505   6.283
12835TIP3    H138446   3.250   6.588   6.308
12835TIP3    H238447   3.178   6.519   6.194
12836TIP3   OH238448   4.124  -0.013   6.162
12836TIP3    H138449   4.172   0.044   6.102
12836TIP3    H238450   4.156   0.011   6.249
12837TIP3   OH238451   5.274   2.968   1.192
12837TIP3    H138452   5.211   2.915   1.143
12837TIP3    H238453   5.327   3.010   1.125
12838TIP3   OH238454   7.758   1.124   2.611
12838TIP3    H138455   7.777   1.126   2.517
12838TIP3    H238456   7.682   1.182   2.622
12839TIP3   OH238457   6.117   7.919   4.608
12839TIP3    H138458   6.118   7.833   4.650
12839TIP3    H238459   6.202   7.926   4.565
12840TIP3   OH238460   4.270   2.713   6.422
12840TIP3    H138461   4.191   2.761   6.397
12840TIP3    H238462   4.238   2.635   6.467
12841TIP3   OH238463   1.900   1.082   6.293
12841TIP3    H138464   1.986   1.062   6.255
12841TIP3    H238465   1.879   1.005   6.346
12842TIP3   OH238466   4.116   6.883   4.589
12842TIP3    H138467   4.114   6.805   4.644
12842TIP3    H238468   4.126   6.849   4.500
12843TIP3   OH238469   1.340   4.682   3.199
12843TIP3    H138470   1.302   4.606   3.243
12843TIP3    H238471   1.288   4.756   3.229
12844TIP3   OH238472   7.702   7.162   1.484
12844TIP3    H138473   7.700   7.068   1.501
12844TIP3    H238474   7.719   7.169   1.390
12845TIP3   OH238475   7.397   3.910   5.933
12845TIP3    H138476   7.396   3.832   5.988
12845TIP3    H238477   7.487   3.917   5.902
12846TIP3   OH238478   1.713   0.333   0.948
12846TIP3    H138479   1.652   0.333   0.874
12846TIP3    H238480   1.662   0.365   1.022
12847TIP3   OH238481   1.784   2.995   4.476
12847TIP3    H138482   1.803   2.902   4.461
12847TIP3    H238483   1.688   2.999   4.477
12848TIP3   OH238484   2.682   6.294   5.071
12848TIP3    H138485   2.638   6.211   5.087
12848TIP3    H238486   2.707   6.290   4.979
12849TIP3   OH238487   3.642   6.133   1.494
12849TIP3    H138488   3.708   6.095   1.437
12849TIP3    H238489   3.661   6.097   1.581
12850TIP3   OH238490   6.269   6.368   4.882
12850TIP3    H138491   6.335   6.298   4.876
12850TIP3    H238492   6.318   6.444   4.911
12851TIP3   OH238493   3.099   6.689   6.823
12851TIP3    H138494   3.137   6.700   6.736
12851TIP3    H238495   3.005   6.689   6.809
12852TIP3   OH238496   0.766   6.237   4.160
12852TIP3    H138497   0.745   6.323   4.124
12852TIP3    H238498   0.720   6.235   4.244
12853TIP3   OH238499   2.617   5.455   6.694
12853TIP3    H138500   2.623   5.359   6.698
12853TIP3    H238501   2.660   5.484   6.775
12854TIP3   OH238502   5.080   5.731   5.076
12854TIP3    H138503   5.170   5.704   5.059
12854TIP3    H238504   5.066   5.713   5.169
12855TIP3   OH238505   6.808   2.494   3.233
12855TIP3    H138506   6.861   2.571   3.212
12855TIP3    H238507   6.718   2.521   3.214
12856TIP3   OH238508   4.169   1.173   6.247
12856TIP3    H138509   4.192   1.235   6.316
12856TIP3    H238510   4.236   1.186   6.180
12857TIP3   OH238511   5.526   6.277   6.038
12857TIP3    H138512   5.621   6.268   6.051
12857TIP3    H238513   5.488   6.244   6.119
12858TIP3   OH238514   1.421   5.388   4.826
12858TIP3    H138515   1.474   5.313   4.854
12858TIP3    H238516   1.477   5.464   4.845
12859TIP3   OH238517   6.972   7.639   1.352
12859TIP3    H138518   6.892   7.594   1.378
12859TIP3    H238519   7.029   7.633   1.429
12860TIP3   OH238520   1.070   0.023   2.795
12860TIP3    H138521   1.077   0.107   2.841
12860TIP3    H238522   1.004  -0.026   2.844
12861TIP3   OH238523   2.465   2.595   0.197
12861TIP3    H138524   2.531   2.541   0.154
12861TIP3    H238525   2.424   2.644   0.126
12862TIP3   OH238526   8.147   3.147   5.090
12862TIP3    H138527   8.102   3.201   5.025
12862TIP3    H238528   8.081   3.131   5.157
12863TIP3   OH238529   1.632   1.204   3.329
12863TIP3    H138530   1.657   1.275   3.269
12863TIP3    H238531   1.664   1.124   3.287
12864TIP3   OH238532   2.032   4.330   0.205
12864TIP3    H138533   2.093   4.271   0.249
12864TIP3    H238534   2.040   4.308   0.112
12865TIP3   OH238535   5.955   0.084   4.043
12865TIP3    H138536   5.900   0.021   3.996
12865TIP3    H238537   5.896   0.123   4.108
12866TIP3   OH238538   1.219   5.753   0.340
12866TIP3    H138539   1.218   5.728   0.433
12866TIP3    H238540   1.130   5.782   0.322
12867TIP3   OH238541   3.606   0.331   3.460
12867TIP3    H138542   3.514   0.357   3.462
12867TIP3    H238543   3.632   0.325   3.552
12868TIP3   OH238544   2.738   6.490   0.067
12868TIP3    H138545   2.658   6.514   0.019
12868TIP3    H238546   2.792   6.569   0.063
12869TIP3   OH238547   7.931   1.973   1.588
12869TIP3    H138548   7.941   1.942   1.678
12869TIP3    H238549   7.853   1.927   1.555
12870TIP3   OH238550   4.965   5.105   5.119
12870TIP3    H138551   5.025   5.140   5.185
12870TIP3    H238552   4.956   5.012   5.141
12871TIP3   OH238553   7.148   0.136   5.238
12871TIP3    H138554   7.197   0.200   5.187
12871TIP3    H238555   7.092   0.092   5.175
12872TIP3   OH238556   4.584   0.658   6.243
12872TIP3    H138557   4.551   0.691   6.327
12872TIP3    H238558   4.556   0.567   6.240
12873TIP3   OH238559   6.976   3.915   5.517
12873TIP3    H138560   6.942   3.836   5.475
12873TIP3    H238561   6.971   3.897   5.611
12874TIP3   OH238562   0.704   0.505   0.508
12874TIP3    H138563   0.798   0.514   0.525
12874TIP3    H238564   0.667   0.477   0.592
12875TIP3   OH238565   5.383   0.768   4.401
12875TIP3    H138566   5.437   0.847   4.405
12875TIP3    H238567   5.442   0.700   4.370
12876TIP3   OH238568   3.069   3.101   6.267
12876TIP3    H138569   3.057   3.195   6.253
12876TIP3    H238570   2.991   3.062   6.228
12877TIP3   OH238571   0.273   7.215   6.249
12877TIP3    H138572   0.179   7.220   6.235
12877TIP3    H238573   0.303   7.148   6.187
12878TIP3   OH238574   7.113   3.332   0.499
12878TIP3    H138575   7.086   3.378   0.578
12878TIP3    H238576   7.170   3.395   0.454
12879TIP3   OH238577   5.792   4.608   4.560
12879TIP3    H138578   5.699   4.626   4.572
12879TIP3    H238579   5.811   4.642   4.473
12880TIP3   OH238580   0.231   5.259   2.610
12880TIP3    H138581   0.274   5.255   2.525
12880TIP3    H238582   0.197   5.170   2.625
12881TIP3   OH238583   3.606   0.470   0.133
12881TIP3    H138584   3.630   0.448   0.042
12881TIP3    H238585   3.589   0.564   0.131
12882TIP3   OH238586   6.720   0.345   1.290
12882TIP3    H138587   6.665   0.273   1.259
12882TIP3    H238588   6.793   0.302   1.335
12883TIP3   OH238589   0.015   6.297   4.341
12883TIP3    H138590   0.002   6.223   4.281
12883TIP3    H238591   0.002   6.375   4.286
12884TIP3   OH238592   3.615   1.247   5.010
12884TIP3    H138593   3.688   1.197   4.972
12884TIP3    H238594   3.584   1.193   5.083
12885TIP3   OH238595   0.647   6.997   1.608
12885TIP3    H138596   0.553   6.979   1.612
12885TIP3    H238597   0.653   7.092   1.600
12886TIP3   OH238598   2.108   0.658   3.567
12886TIP3    H138599   2.116   0.685   3.475
12886TIP3    H238600   2.020   0.686   3.593
12887TIP3   OH238601   0.511   7.901   0.428
12887TIP3    H138602   0.553   7.842   0.365
12887TIP3    H238603   0.584   7.947   0.469
12888TIP3   OH238604   1.442   2.413   4.417
12888TIP3    H138605   1.398   2.428   4.333
12888TIP3    H238606   1.438   2.318   4.430
12889TIP3   OH238607   7.632   4.003   5.049
12889TIP3    H138608   7.716   3.965   5.024
12889TIP3    H238609   7.631   4.089   5.007
12890TIP3   OH238610   7.223   2.035   0.038
12890TIP3    H138611   7.191   2.010  -0.049
12890TIP3    H238612   7.152   2.011   0.098
12891TIP3   OH238613   4.749   0.364   4.514
12891TIP3    H138614   4.688   0.357   4.587
12891TIP3    H238615   4.696   0.395   4.440
12892TIP3   OH238616   8.191   2.422   5.640
12892TIP3    H138617   8.258   2.410   5.573
12892TIP3    H238618   8.171   2.515   5.639
12893TIP3   OH238619   5.313   0.552   4.119
12893TIP3    H138620   5.226   0.577   4.148
12893TIP3    H238621   5.360   0.529   4.200
12894TIP3   OH238622   6.769   7.879   6.644
12894TIP3    H138623   6.763   7.969   6.611
12894TIP3    H238624   6.850   7.878   6.695
12895TIP3   OH238625   7.867   6.815   3.521
12895TIP3    H138626   7.775   6.836   3.509
12895TIP3    H238627   7.880   6.733   3.474
12896TIP3   OH238628   7.437   3.110   4.139
12896TIP3    H138629   7.489   3.190   4.135
12896TIP3    H238630   7.401   3.101   4.050
12897TIP3   OH238631   3.761   4.281   5.895
12897TIP3    H138632   3.695   4.347   5.912
12897TIP3    H238633   3.743   4.250   5.806
12898TIP3   OH238634   3.561   3.928   3.525
12898TIP3    H138635   3.579   3.835   3.533
12898TIP3    H238636   3.490   3.944   3.588
12899TIP3   OH238637   0.638   0.842   0.554
12899TIP3    H138638   0.692   0.817   0.479
12899TIP3    H238639   0.609   0.759   0.592
12900TIP3   OH238640   6.190   3.049   6.752
12900TIP3    H138641   6.188   3.070   6.845
12900TIP3    H238642   6.264   2.988   6.743
12901TIP3   OH238643   0.647   6.286   4.395
12901TIP3    H138644   0.703   6.327   4.461
12901TIP3    H238645   0.558   6.307   4.422
12902TIP3   OH238646   2.676   5.699   5.028
12902TIP3    H138647   2.696   5.619   5.077
12902TIP3    H238648   2.595   5.678   4.982
12903TIP3   OH238649   0.346   0.317   3.524
12903TIP3    H138650   0.278   0.287   3.463
12903TIP3    H238651   0.428   0.284   3.486
12904TIP3   OH238652   3.632   6.298   1.849
12904TIP3    H138653   3.591   6.221   1.890
12904TIP3    H238654   3.709   6.262   1.803
12905TIP3   OH238655   6.711   3.389   1.527
12905TIP3    H138656   6.746   3.426   1.608
12905TIP3    H238657   6.652   3.319   1.556
12906TIP3   OH238658   6.599   7.708   4.380
12906TIP3    H138659   6.547   7.628   4.369
12906TIP3    H238660   6.658   7.689   4.453
12907TIP3   OH238661   1.865   1.834   4.460
12907TIP3    H138662   1.897   1.920   4.434
12907TIP3    H238663   1.871   1.835   4.556
12908TIP3   OH238664   7.443   3.998   5.255
12908TIP3    H138665   7.484   3.972   5.173
12908TIP3    H238666   7.517   4.017   5.313
12909TIP3   OH238667   4.791   5.179   3.245
12909TIP3    H138668   4.750   5.115   3.188
12909TIP3    H238669   4.727   5.250   3.252
12910TIP3   OH238670   1.822   7.126   5.337
12910TIP3    H138671   1.861   7.166   5.260
12910TIP3    H238672   1.876   7.049   5.354
12911TIP3   OH238673   4.691   5.823   0.237
12911TIP3    H138674   4.710   5.770   0.159
12911TIP3    H238675   4.770   5.816   0.290
12912TIP3   OH238676   7.767   1.609   4.956
12912TIP3    H138677   7.713   1.534   4.982
12912TIP3    H238678   7.714   1.686   4.980
12913TIP3   OH238679   1.171   5.678   6.082
12913TIP3    H138680   1.136   5.743   6.144
12913TIP3    H238681   1.148   5.713   5.996
12914TIP3   OH238682   3.407   3.054   0.342
12914TIP3    H138683   3.476   2.988   0.352
12914TIP3    H238684   3.326   3.007   0.359
12915TIP3   OH238685   0.057   4.347   5.667
12915TIP3    H138686   0.072   4.339   5.762
12915TIP3    H238687  -0.013   4.411   5.659
12916TIP3   OH238688   6.066   5.977   1.796
12916TIP3    H138689   6.147   5.927   1.784
12916TIP3    H238690   6.095   6.061   1.831
12917TIP3   OH238691   5.873   2.665   5.649
12917TIP3    H138692   5.956   2.628   5.678
12917TIP3    H238693   5.894   2.717   5.571
12918TIP3   OH238694   2.955   6.653   0.084
12918TIP3    H138695   3.031   6.597   0.100
12918TIP3    H238696   2.981   6.707   0.009
12919TIP3   OH238697   7.288   6.674   1.660
12919TIP3    H138698   7.351   6.649   1.727
12919TIP3    H238699   7.325   6.639   1.579
12920TIP3   OH238700   8.261   5.774   4.826
12920TIP3    H138701   8.215   5.858   4.828
12920TIP3    H238702   8.193   5.709   4.809
12921TIP3   OH238703   2.640   0.178   1.339
12921TIP3    H138704   2.611   0.122   1.267
12921TIP3    H238705   2.646   0.119   1.414
12922TIP3   OH238706   7.651   4.397   5.491
12922TIP3    H138707   7.680   4.364   5.576
12922TIP3    H238708   7.557   4.413   5.503
12923TIP3   OH238709   1.087   7.280   5.098
12923TIP3    H138710   1.135   7.218   5.153
12923TIP3    H238711   1.155   7.330   5.054
12924TIP3   OH238712   3.884   3.378   4.408
12924TIP3    H138713   3.833   3.458   4.423
12924TIP3    H238714   3.870   3.326   4.487
12925TIP3   OH238715   0.186   7.249   2.227
12925TIP3    H138716   0.139   7.208   2.299
12925TIP3    H238717   0.237   7.319   2.267
12926TIP3   OH238718   1.625   3.859   3.378
12926TIP3    H138719   1.655   3.771   3.352
12926TIP3    H238720   1.693   3.891   3.437
12927TIP3   OH238721   6.021   6.863   6.545
12927TIP3    H138722   5.975   6.885   6.626
12927TIP3    H238723   5.991   6.775   6.524
12928TIP3   OH238724   4.295   6.297   1.949
12928TIP3    H138725   4.335   6.214   1.924
12928TIP3    H238726   4.333   6.316   2.036
12929TIP3   OH238727   6.820   0.202   2.401
12929TIP3    H138728   6.740   0.159   2.432
12929TIP3    H238729   6.789   0.274   2.346
12930TIP3   OH238730   5.324   5.683   6.032
12930TIP3    H138731   5.238   5.723   6.046
12930TIP3    H238732   5.308   5.613   5.969
12931TIP3   OH238733   8.004   3.324   3.202
12931TIP3    H138734   7.963   3.355   3.121
12931TIP3    H238735   7.934   3.276   3.247
12932TIP3   OH238736   7.387   3.933   0.423
12932TIP3    H138737   7.331   4.010   0.428
12932TIP3    H238738   7.466   3.963   0.377
12933TIP3   OH238739   3.165   3.003   1.002
12933TIP3    H138740   3.069   3.004   0.994
12933TIP3    H238741   3.192   3.087   0.964
12934TIP3   OH238742   0.679   2.852   3.943
12934TIP3    H138743   0.723   2.918   3.889
12934TIP3    H238744   0.658   2.898   4.025
12935TIP3   OH238745   2.774   5.228   2.310
12935TIP3    H138746   2.703   5.252   2.250
12935TIP3    H238747   2.751   5.271   2.392
12936TIP3   OH238748   3.503   4.621   5.260
12936TIP3    H138749   3.442   4.645   5.329
12936TIP3    H238750   3.519   4.703   5.213
12937TIP3   OH238751   7.460   6.533   4.814
12937TIP3    H138752   7.416   6.458   4.854
12937TIP3    H238753   7.471   6.595   4.886
12938TIP3   OH238754   7.099   7.345   5.170
12938TIP3    H138755   7.142   7.413   5.221
12938TIP3    H238756   7.166   7.278   5.157
12939TIP3   OH238757   7.347   0.643   5.424
12939TIP3    H138758   7.419   0.678   5.476
12939TIP3    H238759   7.372   0.553   5.405
12940TIP3   OH238760   2.917   7.743   4.731
12940TIP3    H138761   2.975   7.685   4.682
12940TIP3    H238762   2.973   7.816   4.757
12941TIP3   OH238763   5.314   7.798   2.548
12941TIP3    H138764   5.244   7.770   2.608
12941TIP3    H238765   5.380   7.837   2.604
12942TIP3   OH238766   0.924   3.582   6.507
12942TIP3    H138767   0.877   3.616   6.430
12942TIP3    H238768   0.937   3.658   6.563
12943TIP3   OH238769   8.183   2.927   6.773
12943TIP3    H138770   8.212   2.941   6.683
12943TIP3    H238771   8.242   2.980   6.826
12944TIP3   OH238772   5.554   4.053   1.900
12944TIP3    H138773   5.550   3.959   1.917
12944TIP3    H238774   5.642   4.067   1.866
12945TIP3   OH238775   6.834   4.667   3.940
12945TIP3    H138776   6.780   4.745   3.945
12945TIP3    H238777   6.811   4.616   4.018
12946TIP3   OH238778   4.050   5.690   1.619
12946TIP3    H138779   4.077   5.756   1.556
12946TIP3    H238780   4.034   5.739   1.700
12947TIP3   OH238781   7.990   3.455   2.071
12947TIP3    H138782   8.006   3.512   1.996
12947TIP3    H238783   7.932   3.506   2.127
12948TIP3   OH238784   6.931   1.788   0.452
12948TIP3    H138785   6.893   1.859   0.504
12948TIP3    H238786   6.888   1.709   0.485
12949TIP3   OH238787   1.040   1.953   4.731
12949TIP3    H138788   1.110   1.912   4.781
12949TIP3    H238789   0.978   1.984   4.797
12950TIP3   OH238790   1.944   5.427   2.637
12950TIP3    H138791   1.953   5.505   2.582
12950TIP3    H238792   1.972   5.456   2.724
12951TIP3   OH238793   6.804   5.640   0.275
12951TIP3    H138794   6.735   5.588   0.315
12951TIP3    H238795   6.762   5.724   0.256
12952TIP3   OH238796   1.977   7.213   1.572
12952TIP3    H138797   1.983   7.249   1.661
12952TIP3    H238798   2.009   7.123   1.580
12953TIP3   OH238799   5.851   5.893   1.043
12953TIP3    H138800   5.870   5.809   1.083
12953TIP3    H238801   5.796   5.872   0.967
12954TIP3   OH238802   3.203   0.758   0.619
12954TIP3    H138803   3.247   0.692   0.565
12954TIP3    H238804   3.140   0.798   0.560
12955TIP3   OH238805   2.519   1.296   2.194
12955TIP3    H138806   2.483   1.338   2.116
12955TIP3    H238807   2.473   1.337   2.267
12956TIP3   OH238808   8.235   7.550   2.735
12956TIP3    H138809   8.153   7.501   2.733
12956TIP3    H238810   8.297   7.494   2.689
12957TIP3   OH238811   7.235   3.581   6.337
12957TIP3    H138812   7.266   3.609   6.423
12957TIP3    H238813   7.194   3.496   6.352
12958TIP3   OH238814   4.361   2.918   4.639
12958TIP3    H138815   4.401   2.976   4.574
12958TIP3    H238816   4.295   2.868   4.589
12959TIP3   OH238817   5.898   0.200   4.285
12959TIP3    H138818   5.853   0.284   4.275
12959TIP3    H238819   5.922   0.196   4.378
12960TIP3   OH238820   2.894   7.039   2.208
12960TIP3    H138821   2.973   7.026   2.156
12960TIP3    H238822   2.856   6.951   2.216
12961TIP3   OH238823   5.991   2.356   2.877
12961TIP3    H138824   5.943   2.439   2.873
12961TIP3    H238825   6.012   2.336   2.786
12962TIP3   OH238826   5.109   4.170   3.572
12962TIP3    H138827   5.118   4.087   3.618
12962TIP3    H238828   5.043   4.218   3.622
12963TIP3   OH238829   7.120   0.888   5.113
12963TIP3    H138830   7.062   0.883   5.037
12963TIP3    H238831   7.093   0.968   5.158
12964TIP3   OH238832   4.655   2.493   1.514
12964TIP3    H138833   4.586   2.444   1.471
12964TIP3    H238834   4.660   2.456   1.602
12965TIP3   OH238835   8.265   0.014   3.745
12965TIP3    H138836   8.320   0.082   3.783
12965TIP3    H238837   8.178   0.053   3.740
12966TIP3   OH238838   8.162   2.999   3.804
12966TIP3    H138839   8.143   2.907   3.821
12966TIP3    H238840   8.079   3.044   3.820
12967TIP3   OH238841   4.174   7.725   5.810
12967TIP3    H138842   4.257   7.727   5.763
12967TIP3    H238843   4.180   7.646   5.865
12968TIP3   OH238844   3.284   7.716   6.317
12968TIP3    H138845   3.226   7.773   6.267
12968TIP3    H238846   3.232   7.689   6.392
12969TIP3   OH238847   0.480   1.218   6.342
12969TIP3    H138848   0.385   1.207   6.346
12969TIP3    H238849   0.502   1.209   6.250
12970TIP3   OH238850   3.889   0.525   4.381
12970TIP3    H138851   3.837   0.597   4.417
12970TIP3    H238852   3.979   0.547   4.404
12971TIP3   OH238853   1.278   3.559   4.546
12971TIP3    H138854   1.314   3.518   4.467
12971TIP3    H238855   1.334   3.634   4.562
12972TIP3   OH238856   3.990   6.350   2.620
12972TIP3    H138857   3.950   6.327   2.536
12972TIP3    H238858   3.964   6.279   2.679
12973TIP3   OH238859   5.607   7.617   5.478
12973TIP3    H138860   5.681   7.679   5.482
12973TIP3    H238861   5.629   7.550   5.542
12974TIP3   OH238862   6.035   5.671   5.419
12974TIP3    H138863   6.035   5.585   5.460
12974TIP3    H238864   5.952   5.675   5.371
12975TIP3   OH238865   8.053   3.639   1.368
12975TIP3    H138866   8.125   3.701   1.355
12975TIP3    H238867   8.091   3.570   1.422
12976TIP3   OH238868   2.793   3.912   4.747
12976TIP3    H138869   2.738   3.838   4.772
12976TIP3    H238870   2.740   3.963   4.687
12977TIP3   OH238871   5.690   1.204   4.348
12977TIP3    H138872   5.651   1.218   4.434
12977TIP3    H238873   5.784   1.215   4.361
12978TIP3   OH238874   2.377   1.789   6.655
12978TIP3    H138875   2.460   1.820   6.693
12978TIP3    H238876   2.336   1.739   6.725
12979TIP3   OH238877   1.096   7.401   6.765
12979TIP3    H138878   1.142   7.317   6.765
12979TIP3    H238879   1.060   7.409   6.853
12980TIP3   OH238880   4.887   0.659   6.647
12980TIP3    H138881   4.835   0.708   6.710
12980TIP3    H238882   4.830   0.587   6.619
12981TIP3   OH238883   7.452   7.872   6.731
12981TIP3    H138884   7.494   7.924   6.799
12981TIP3    H238885   7.373   7.920   6.708
12982TIP3   OH238886   3.468   6.425   4.987
12982TIP3    H138887   3.378   6.395   4.982
12982TIP3    H238888   3.472   6.479   5.066
12983TIP3   OH238889   1.093   7.298   2.332
12983TIP3    H138890   1.094   7.343   2.417
12983TIP3    H238891   1.057   7.212   2.351
12984TIP3   OH238892   7.173   6.922   3.773
12984TIP3    H138893   7.093   6.872   3.761
12984TIP3    H238894   7.144   7.013   3.777
12985TIP3   OH238895   7.730   4.529   3.967
12985TIP3    H138896   7.775   4.600   3.922
12985TIP3    H238897   7.746   4.451   3.913
12986TIP3   OH238898   5.351   1.815   3.454
12986TIP3    H138899   5.413   1.877   3.491
12986TIP3    H238900   5.271   1.827   3.505
12987TIP3   OH238901   6.937   7.859   1.185
12987TIP3    H138902   6.858   7.893   1.227
12987TIP3    H238903   6.969   7.792   1.245
12988TIP3   OH238904   4.875   0.911   0.965
12988TIP3    H138905   4.873   0.985   1.025
12988TIP3    H238906   4.848   0.836   1.017
12989TIP3   OH238907   7.955   2.212   5.983
12989TIP3    H138908   7.965   2.220   5.889
12989TIP3    H238909   7.864   2.182   5.995
12990TIP3   OH238910   5.087   6.176   4.486
12990TIP3    H138911   5.123   6.195   4.400
12990TIP3    H238912   4.992   6.172   4.473
12991TIP3   OH238913   4.485   2.347   6.000
12991TIP3    H138914   4.471   2.264   5.956
12991TIP3    H238915   4.558   2.331   6.059
12992TIP3   OH238916   1.925   1.873   4.021
12992TIP3    H138917   1.854   1.916   3.973
12992TIP3    H238918   1.895   1.783   4.034
12993TIP3   OH238919   6.621   2.143   5.510
12993TIP3    H138920   6.565   2.219   5.528
12993TIP3    H238921   6.685   2.143   5.581
12994TIP3   OH238922   4.759   6.771   3.399
12994TIP3    H138923   4.849   6.761   3.430
12994TIP3    H238924   4.705   6.756   3.477
12995TIP3   OH238925   3.780   3.288   3.335
12995TIP3    H138926   3.694   3.262   3.368
12995TIP3    H238927   3.762   3.333   3.253
12996TIP3   OH238928   7.451   2.850   3.297
12996TIP3    H138929   7.505   2.846   3.376
12996TIP3    H238930   7.364   2.820   3.325
12997TIP3   OH238931   7.908   0.964   2.173
12997TIP3    H138932   7.913   0.985   2.080
12997TIP3    H238933   7.874   1.043   2.214
12998TIP3   OH238934   2.955   1.055   6.740
12998TIP3    H138935   3.038   1.095   6.716
12998TIP3    H238936   2.921   1.109   6.812
12999TIP3   OH238937   5.726   6.765   4.969
12999TIP3    H138938   5.778   6.807   4.900
12999TIP3    H238939   5.638   6.760   4.932
13000TIP3   OH238940   4.467   5.285   4.983
13000TIP3    H138941   4.412   5.340   5.039
13000TIP3    H238942   4.557   5.310   5.004
13001TIP3   OH238943   0.653   7.728   4.547
13001TIP3    H138944   0.732   7.700   4.593
13001TIP3    H238945   0.656   7.681   4.463
13002TIP3   OH238946   3.837   4.232   2.859
13002TIP3    H138947   3.822   4.143   2.827
13002TIP3    H238948   3.903   4.223   2.927
13003TIP3   OH238949   4.945   5.569   5.852
13003TIP3    H138950   5.003   5.493   5.851
13003TIP3    H238951   4.983   5.630   5.789
13004TIP3   OH238952   6.500   1.532   5.731
13004TIP3    H138953   6.496   1.443   5.768
13004TIP3    H238954   6.475   1.589   5.804
13005TIP3   OH238955   6.938   3.634   3.356
13005TIP3    H138956   6.869   3.571   3.335
13005TIP3    H238957   7.019   3.584   3.347
13006TIP3   OH238958   7.290   0.975   1.955
13006TIP3    H138959   7.266   0.886   1.929
13006TIP3    H238960   7.280   1.027   1.874
13007TIP3   OH238961   5.888   4.183   2.555
13007TIP3    H138962   5.929   4.100   2.531
13007TIP3    H238963   5.813   4.158   2.609
13008TIP3   OH238964   3.377   7.233   0.142
13008TIP3    H138965   3.430   7.271   0.072
13008TIP3    H238966   3.287   7.260   0.120
13009TIP3   OH238967   0.748   3.390   5.543
13009TIP3    H138968   0.820   3.332   5.570
13009TIP3    H238969   0.759   3.397   5.448
13010TIP3   OH238970   4.265   6.829   6.751
13010TIP3    H138971   4.283   6.881   6.673
13010TIP3    H238972   4.263   6.738   6.720
13011TIP3   OH238973   6.427   1.073   1.701
13011TIP3    H138974   6.352   1.080   1.642
13011TIP3    H238975   6.405   1.001   1.759
13012TIP3   OH238976   2.820   0.785   1.700
13012TIP3    H138977   2.860   0.852   1.645
13012TIP3    H238978   2.744   0.755   1.650
13013TIP3   OH238979   0.111   0.196   2.325
13013TIP3    H138980   0.109   0.154   2.411
13013TIP3    H238981   0.060   0.138   2.269
13014TIP3   OH238982   7.996   2.223   5.727
13014TIP3    H138983   7.913   2.207   5.682
13014TIP3    H238984   8.044   2.282   5.670
13015TIP3   OH238985   8.089   2.700   2.823
13015TIP3    H138986   8.085   2.610   2.855
13015TIP3    H238987   8.049   2.697   2.737
13016TIP3   OH238988   2.575   2.336   0.859
13016TIP3    H138989   2.493   2.371   0.826
13016TIP3    H238990   2.584   2.372   0.947
13017TIP3   OH238991   4.439   6.852   1.244
13017TIP3    H138992   4.498   6.907   1.295
13017TIP3    H238993   4.476   6.850   1.156
13018TIP3   OH238994   6.549   3.073   1.886
13018TIP3    H138995   6.505   3.006   1.834
13018TIP3    H238996   6.639   3.075   1.853
13019TIP3   OH238997   4.797   7.311   0.298
13019TIP3    H138998   4.755   7.394   0.274
13019TIP3    H238999   4.774   7.299   0.390
13020TIP3   OH239000   4.165   4.953   2.478
13020TIP3    H139001   4.089   5.012   2.473
13020TIP3    H239002   4.188   4.951   2.570
13021TIP3   OH239003   0.618   3.202   2.634
13021TIP3    H139004   0.552   3.134   2.646
13021TIP3    H239005   0.695   3.155   2.600
13022TIP3   OH239006   3.783   0.747   2.128
13022TIP3    H139007   3.865   0.796   2.122
13022TIP3    H239008   3.741   0.761   2.043
13023TIP3   OH239009   4.560   0.394   0.953
13023TIP3    H139010   4.513   0.332   0.898
13023TIP3    H239011   4.560   0.355   1.040
13024TIP3   OH239012   0.828   1.388   6.526
13024TIP3    H139013   0.878   1.436   6.592
13024TIP3    H239014   0.809   1.453   6.458
13025TIP3   OH239015   7.278   0.747   5.748
13025TIP3    H139016   7.355   0.743   5.803
13025TIP3    H239017   7.307   0.716   5.662
13026TIP3   OH239018   1.097   3.824   4.633
13026TIP3    H139019   1.117   3.875   4.555
13026TIP3    H239020   1.175   3.770   4.647
13027TIP3   OH239021   0.758   6.729   1.660
13027TIP3    H139022   0.756   6.824   1.653
13027TIP3    H239023   0.766   6.712   1.754
13028TIP3   OH239024   5.339   7.142   4.596
13028TIP3    H139025   5.394   7.071   4.562
13028TIP3    H239026   5.314   7.193   4.518
13029TIP3   OH239027   7.420   7.015   0.463
13029TIP3    H139028   7.458   6.937   0.505
13029TIP3    H239029   7.327   7.012   0.487
13030TIP3   OH239030   0.194   7.478   5.386
13030TIP3    H139031   0.280   7.501   5.352
13030TIP3    H239032   0.154   7.425   5.317
13031TIP3   OH239033   4.801   2.844   6.086
13031TIP3    H139034   4.784   2.913   6.023
13031TIP3    H239035   4.816   2.890   6.169
13032TIP3   OH239036   7.566   2.263   3.465
13032TIP3    H139037   7.472   2.246   3.463
13032TIP3    H239038   7.601   2.195   3.523
13033TIP3   OH239039   3.814   0.442   1.243
13033TIP3    H139040   3.764   0.504   1.190
13033TIP3    H239041   3.904   0.450   1.211
13034TIP3   OH239042   5.845   7.574   0.961
13034TIP3    H139043   5.763   7.538   0.996
13034TIP3    H239044   5.820   7.659   0.925
13035TIP3   OH239045   3.480   5.485   2.839
13035TIP3    H139046   3.455   5.560   2.786
13035TIP3    H239047   3.497   5.415   2.776
13036TIP3   OH239048   4.362   5.895   0.186
13036TIP3    H139049   4.384   5.902   0.279
13036TIP3    H239050   4.441   5.921   0.140
13037TIP3   OH239051   6.375   0.161   1.596
13037TIP3    H139052   6.286   0.191   1.616
13037TIP3    H239053   6.365   0.104   1.519
13038TIP3   OH239054   8.358   1.279   5.559
13038TIP3    H139055   8.380   1.208   5.498
13038TIP3    H239056   8.294   1.332   5.512
13039TIP3   OH239057   7.066   1.508   2.335
13039TIP3    H139058   7.132   1.575   2.319
13039TIP3    H239059   6.994   1.530   2.275
13040TIP3   OH239060   0.966   0.612   3.026
13040TIP3    H139061   0.928   0.550   3.088
13040TIP3    H239062   0.965   0.566   2.942
13041TIP3   OH239063   6.298   3.226   4.864
13041TIP3    H139064   6.292   3.184   4.949
13041TIP3    H239065   6.211   3.216   4.825
13042TIP3   OH239066   7.252   4.942   5.079
13042TIP3    H139067   7.197   5.020   5.076
13042TIP3    H239068   7.336   4.973   5.112
13043TIP3   OH239069   0.102   5.530   5.955
13043TIP3    H139070   0.060   5.468   6.015
13043TIP3    H239071   0.087   5.615   5.995
13044TIP3   OH239072   1.397   2.447   4.122
13044TIP3    H139073   1.411   2.526   4.070
13044TIP3    H239074   1.306   2.452   4.149
13045TIP3   OH239075   4.425   3.119   3.142
13045TIP3    H139076   4.489   3.149   3.207
13045TIP3    H239077   4.345   3.167   3.164
13046TIP3   OH239078   3.879   6.636   5.772
13046TIP3    H139079   3.843   6.617   5.859
13046TIP3    H239080   3.920   6.722   5.782
13047TIP3   OH239081   0.823   7.386   3.834
13047TIP3    H139082   0.860   7.303   3.805
13047TIP3    H239083   0.761   7.410   3.766
13048TIP3   OH239084   4.402   1.388   5.642
13048TIP3    H139085   4.349   1.461   5.608
13048TIP3    H239086   4.389   1.392   5.737
13049TIP3   OH239087   5.515   3.000   5.782
13049TIP3    H139088   5.555   2.914   5.794
13049TIP3    H239089   5.483   2.999   5.691
13050TIP3   OH239090   7.253   2.912   4.201
13050TIP3    H139091   7.304   2.980   4.157
13050TIP3    H239092   7.258   2.935   4.294
13051TIP3   OH239093   1.220   7.449   2.117
13051TIP3    H139094   1.288   7.512   2.140
13051TIP3    H239095   1.233   7.377   2.178
13052TIP3   OH239096   7.187   4.286   6.116
13052TIP3    H139097   7.179   4.374   6.153
13052TIP3    H239098   7.179   4.298   6.021
13053TIP3   OH239099   2.240   1.982   4.934
13053TIP3    H139100   2.186   1.918   4.982
13053TIP3    H239101   2.314   1.931   4.903
13054TIP3   OH239102   3.173   5.141   0.211
13054TIP3    H139103   3.154   5.052   0.182
13054TIP3    H239104   3.149   5.196   0.136
13055TIP3   OH239105   5.751   5.900   5.514
13055TIP3    H139106   5.815   5.950   5.463
13055TIP3    H239107   5.712   5.839   5.452
13056TIP3   OH239108   5.288   5.368   2.592
13056TIP3    H139109   5.329   5.450   2.566
13056TIP3    H239110   5.288   5.371   2.688
13057TIP3   OH239111   2.358   0.640   2.213
13057TIP3    H139112   2.450   0.664   2.206
13057TIP3    H239113   2.346   0.619   2.306
13058TIP3   OH239114   2.712   1.799   5.183
13058TIP3    H139115   2.794   1.776   5.139
13058TIP3    H239116   2.739   1.853   5.257
13059TIP3   OH239117   1.619   5.818   2.442
13059TIP3    H139118   1.610   5.910   2.415
13059TIP3    H239119   1.572   5.813   2.525
13060TIP3   OH239120   5.085   7.934   5.277
13060TIP3    H139121   5.105   7.911   5.368
13060TIP3    H239122   4.993   7.913   5.266
13061TIP3   OH239123   1.801   6.357   5.495
13061TIP3    H139124   1.888   6.373   5.458
13061TIP3    H239125   1.816   6.353   5.589
13062TIP3   OH239126   0.398   3.511   3.800
13062TIP3    H139127   0.405   3.497   3.894
13062TIP3    H239128   0.315   3.471   3.775
13063TIP3   OH239129   3.440   4.354   2.383
13063TIP3    H139130   3.352   4.388   2.398
13063TIP3    H239131   3.442   4.335   2.289
13064TIP3   OH239132   6.740   2.402   4.868
13064TIP3    H139133   6.714   2.314   4.843
13064TIP3    H239134   6.833   2.407   4.843
13065TIP3   OH239135   4.069   7.290   3.319
13065TIP3    H139136   4.051   7.276   3.412
13065TIP3    H239137   4.006   7.235   3.274
13066TIP3   OH239138   1.602   7.045   5.745
13066TIP3    H139139   1.619   7.125   5.796
13066TIP3    H239140   1.590   7.077   5.656
13067TIP3   OH239141   5.696   4.365   0.183
13067TIP3    H139142   5.721   4.321   0.102
13067TIP3    H239143   5.692   4.458   0.160
13068TIP3   OH239144   7.019   6.934   3.439
13068TIP3    H139145   6.987   6.888   3.517
13068TIP3    H239146   7.008   7.027   3.460
13069TIP3   OH239147   4.854   5.433   5.209
13069TIP3    H139148   4.777   5.376   5.203
13069TIP3    H239149   4.905   5.397   5.282
13070TIP3   OH239150   7.275   7.224   0.311
13070TIP3    H139151   7.349   7.189   0.361
13070TIP3    H239152   7.226   7.147   0.283
13071TIP3   OH239153   7.130   3.268   1.373
13071TIP3    H139154   7.069   3.205   1.410
13071TIP3    H239155   7.098   3.353   1.402
13072TIP3   OH239156   0.316   3.900   4.723
13072TIP3    H139157   0.346   3.984   4.686
13072TIP3    H239158   0.337   3.836   4.655
13073TIP3   OH239159   1.629   4.387   3.343
13073TIP3    H139160   1.655   4.479   3.346
13073TIP3    H239161   1.565   4.378   3.413
13074TIP3   OH239162   4.150   3.063   3.630
13074TIP3    H139163   4.117   3.032   3.714
13074TIP3    H239164   4.119   2.999   3.566
13075TIP3   OH239165   6.424   0.418   6.425
13075TIP3    H139166   6.436   0.330   6.389
13075TIP3    H239167   6.438   0.477   6.351
13076TIP3   OH239168   0.440   4.660   4.321
13076TIP3    H139169   0.482   4.728   4.374
13076TIP3    H239170   0.382   4.614   4.382
13077TIP3   OH239171   1.553   4.902   5.877
13077TIP3    H139172   1.531   4.995   5.874
13077TIP3    H239173   1.512   4.865   5.799
13078TIP3   OH239174   3.636   6.269   6.333
13078TIP3    H139175   3.595   6.290   6.417
13078TIP3    H239176   3.674   6.351   6.303
13079TIP3   OH239177   4.521   3.712   0.649
13079TIP3    H139178   4.497   3.793   0.692
13079TIP3    H239179   4.518   3.732   0.555
13080TIP3   OH239180   8.160   1.284   1.314
13080TIP3    H139181   8.202   1.280   1.400
13080TIP3    H239182   8.211   1.350   1.266
13081TIP3   OH239183   6.036   0.886   6.093
13081TIP3    H139184   5.953   0.850   6.124
13081TIP3    H239185   6.048   0.847   6.006
13082TIP3   OH239186   3.388   2.139   5.800
13082TIP3    H139187   3.341   2.173   5.876
13082TIP3    H239188   3.338   2.061   5.775
13083TIP3   OH239189   0.128   5.224   5.719
13083TIP3    H139190   0.074   5.169   5.775
13083TIP3    H239191   0.218   5.207   5.748
13084TIP3   OH239192   5.329   0.969   4.943
13084TIP3    H139193   5.242   0.975   4.903
13084TIP3    H239194   5.378   0.909   4.887
13085TIP3   OH239195   0.922   0.336   1.977
13085TIP3    H139196   0.911   0.286   2.058
13085TIP3    H239197   0.837   0.331   1.934
13086TIP3   OH239198   6.200   5.945   4.848
13086TIP3    H139199   6.126   5.886   4.829
13086TIP3    H239200   6.265   5.888   4.890
13087TIP3   OH239201   2.117   5.045   2.707
13087TIP3    H139202   2.199   5.061   2.754
13087TIP3    H239203   2.133   4.963   2.660
13088TIP3   OH239204   0.606   7.503   5.092
13088TIP3    H139205   0.659   7.572   5.051
13088TIP3    H239206   0.595   7.437   5.022
13089TIP3   OH239207   8.108   0.640   2.158
13089TIP3    H139208   8.145   0.561   2.196
13089TIP3    H239209   8.014   0.623   2.152
13090TIP3   OH239210   2.996   0.841   0.409
13090TIP3    H139211   2.905   0.862   0.391
13090TIP3    H239212   3.043   0.924   0.396
13091TIP3   OH239213   8.302   5.687   3.397
13091TIP3    H139214   8.280   5.709   3.487
13091TIP3    H239215   8.361   5.758   3.369
13092TIP3   OH239216   7.894   3.029   4.775
13092TIP3    H139217   7.909   3.005   4.866
13092TIP3    H239218   7.829   3.099   4.779
13093TIP3   OH239219   5.106   5.450   6.266
13093TIP3    H139220   5.164   5.520   6.297
13093TIP3    H239221   5.031   5.497   6.228
13094TIP3   OH239222   1.798   1.511   1.804
13094TIP3    H139223   1.749   1.566   1.743
13094TIP3    H239224   1.879   1.489   1.757
13095TIP3   OH239225   7.658   0.545   5.281
13095TIP3    H139226   7.649   0.542   5.186
13095TIP3    H239227   7.580   0.500   5.314
13096TIP3   OH239228   0.862   4.760   6.128
13096TIP3    H139229   0.861   4.823   6.200
13096TIP3    H239230   0.798   4.795   6.066
13097TIP3   OH239231   4.478   7.635   4.847
13097TIP3    H139232   4.449   7.625   4.756
13097TIP3    H239233   4.571   7.612   4.845
13098TIP3   OH239234   0.309   5.035   5.505
13098TIP3    H139235   0.358   5.021   5.586
13098TIP3    H239236   0.368   5.002   5.436
13099TIP3   OH239237   6.436   5.302   2.484
13099TIP3    H139238   6.450   5.212   2.513
13099TIP3    H239239   6.522   5.329   2.450
13100TIP3   OH239240   7.482   7.550   0.934
13100TIP3    H139241   7.449   7.619   0.991
13100TIP3    H239242   7.524   7.488   0.993
13101TIP3   OH239243   3.374   5.187   6.588
13101TIP3    H139244   3.443   5.139   6.542
13101TIP3    H239245   3.398   5.179   6.681
13102TIP3   OH239246   3.790   4.784   6.119
13102TIP3    H139247   3.707   4.744   6.146
13102TIP3    H239248   3.771   4.823   6.034
13103TIP3   OH239249   7.012   0.551   1.910
13103TIP3    H139250   6.987   0.519   1.997
13103TIP3    H239251   6.986   0.481   1.851
13104TIP3   OH239252   1.674   7.835   4.867
13104TIP3    H139253   1.746   7.894   4.890
13104TIP3    H239254   1.669   7.775   4.942
13105TIP3   OH239255   1.296   4.623   3.917
13105TIP3    H139256   1.214   4.603   3.872
13105TIP3    H239257   1.277   4.607   4.009
13106TIP3   OH239258   6.779   4.608   3.525
13106TIP3    H139259   6.718   4.660   3.578
13106TIP3    H239260   6.726   4.580   3.450
13107TIP3   OH239261   1.049   3.278   1.327
13107TIP3    H139262   1.063   3.195   1.283
13107TIP3    H239263   1.113   3.338   1.288
13108TIP3   OH239264   0.976   6.754   2.476
13108TIP3    H139265   1.005   6.664   2.486
13108TIP3    H239266   0.884   6.754   2.504
13109TIP3   OH239267   0.480   7.574   5.588
13109TIP3    H139268   0.509   7.576   5.680
13109TIP3    H239269   0.405   7.634   5.585
13110TIP3   OH239270   3.924   5.665   0.570
13110TIP3    H139271   3.943   5.713   0.489
13110TIP3    H239272   3.938   5.730   0.639
13111TIP3   OH239273   5.654   7.027   3.285
13111TIP3    H139274   5.682   7.117   3.305
13111TIP3    H239275   5.730   6.986   3.245
13112TIP3   OH239276   8.214   0.450   5.948
13112TIP3    H139277   8.233   0.365   5.908
13112TIP3    H239278   8.120   0.450   5.963
13113TIP3   OH239279   0.354   2.192   4.185
13113TIP3    H139280   0.260   2.211   4.177
13113TIP3    H239281   0.369   2.188   4.279
13114TIP3   OH239282   5.615   7.735   6.317
13114TIP3    H139283   5.674   7.714   6.244
13114TIP3    H239284   5.635   7.827   6.337
13115TIP3   OH239285   1.654   1.870   3.305
13115TIP3    H139286   1.684   1.862   3.396
13115TIP3    H239287   1.707   1.941   3.269
13116TIP3   OH239288   6.982   0.724   1.181
13116TIP3    H139289   7.063   0.683   1.150
13116TIP3    H239290   7.010   0.806   1.221
13117TIP3   OH239291   1.581   4.659   0.253
13117TIP3    H139292   1.507   4.712   0.224
13117TIP3    H239293   1.543   4.575   0.276
13118TIP3   OH239294   1.249   7.728   0.559
13118TIP3    H139295   1.292   7.668   0.498
13118TIP3    H239296   1.177   7.766   0.508
13119TIP3   OH239297   5.956   6.818   2.808
13119TIP3    H139298   6.033   6.762   2.818
13119TIP3    H239299   5.895   6.767   2.755
13120TIP3   OH239300   3.955   0.727   1.509
13120TIP3    H139301   4.031   0.726   1.568
13120TIP3    H239302   3.982   0.673   1.435
13121TIP3   OH239303   3.803   5.232   1.236
13121TIP3    H139304   3.874   5.296   1.234
13121TIP3    H239305   3.839   5.157   1.283
13122TIP3   OH239306   5.546   2.502   6.405
13122TIP3    H139307   5.578   2.552   6.330
13122TIP3    H239308   5.580   2.549   6.481
13123TIP3   OH239309   6.166   4.453   2.816
13123TIP3    H139310   6.126   4.421   2.736
13123TIP3    H239311   6.124   4.401   2.886
13124TIP3   OH239312   4.489   2.444   0.431
13124TIP3    H139313   4.432   2.519   0.451
13124TIP3    H239314   4.490   2.393   0.512
13125TIP3   OH239315   2.360   5.579   2.866
13125TIP3    H139316   2.334   5.668   2.892
13125TIP3    H239317   2.309   5.521   2.923
13126TIP3   OH239318   3.575   3.436   5.697
13126TIP3    H139319   3.605   3.525   5.714
13126TIP3    H239320   3.480   3.443   5.692
13127TIP3   OH239321   8.155   3.773   5.545
13127TIP3    H139322   8.218   3.703   5.531
13127TIP3    H239323   8.079   3.730   5.586
13128TIP3   OH239324   4.722   0.635   1.818
13128TIP3    H139325   4.750   0.631   1.726
13128TIP3    H239326   4.724   0.544   1.847
13129TIP3   OH239327   1.374   2.677   6.084
13129TIP3    H139328   1.399   2.619   6.156
13129TIP3    H239329   1.454   2.688   6.033
13130TIP3   OH239330   0.973   1.231   4.235
13130TIP3    H139331   0.895   1.259   4.187
13130TIP3    H239332   1.020   1.313   4.252
13131TIP3   OH239333   4.553   2.127   5.815
13131TIP3    H139334   4.622   2.065   5.836
13131TIP3    H239335   4.583   2.171   5.735
13132TIP3   OH239336   4.204   4.089   2.499
13132TIP3    H139337   4.293   4.124   2.493
13132TIP3    H239338   4.148   4.166   2.503
13133TIP3   OH239339   1.305   2.415   1.400
13133TIP3    H139340   1.387   2.405   1.448
13133TIP3    H239341   1.262   2.330   1.408
13134TIP3   OH239342   0.202   7.613   2.050
13134TIP3    H139343   0.275   7.659   2.009
13134TIP3    H239344   0.230   7.600   2.141
13135TIP3   OH239345   1.089   6.392   0.034
13135TIP3    H139346   1.129   6.368  -0.050
13135TIP3    H239347   1.134   6.340   0.099
13136TIP3   OH239348   5.101   7.625   3.533
13136TIP3    H139349   5.085   7.531   3.527
13136TIP3    H239350   5.022   7.665   3.498
13137TIP3   OH239351   2.239   0.958   0.705
13137TIP3    H139352   2.158   0.977   0.753
13137TIP3    H239353   2.256   1.036   0.653
13138TIP3   OH239354   0.885   4.905   2.319
13138TIP3    H139355   0.846   4.919   2.233
13138TIP3    H239356   0.978   4.928   2.308
13139TIP3   OH239357   7.707   1.116   3.205
13139TIP3    H139358   7.777   1.158   3.155
13139TIP3    H239359   7.725   1.023   3.198
13140TIP3   OH239360   5.493   0.923   1.526
13140TIP3    H139361   5.553   0.987   1.565
13140TIP3    H239362   5.406   0.956   1.547
13141TIP3   OH239363   5.809   7.683   4.692
13141TIP3    H139364   5.822   7.707   4.784
13141TIP3    H239365   5.771   7.595   4.695
13142TIP3   OH239366   3.637   2.593   5.269
13142TIP3    H139367   3.599   2.550   5.192
13142TIP3    H239368   3.588   2.557   5.343
13143TIP3   OH239369   2.103   0.086   6.065
13143TIP3    H139370   2.170   0.034   6.020
13143TIP3    H239371   2.108   0.172   6.024
13144TIP3   OH239372   3.240   5.716   5.012
13144TIP3    H139373   3.177   5.717   4.940
13144TIP3    H239374   3.289   5.635   5.000
13145TIP3   OH239375   1.162   0.016   1.868
13145TIP3    H139376   1.191  -0.023   1.786
13145TIP3    H239377   1.118   0.097   1.842
13146TIP3   OH239378   4.800   3.620   0.744
13146TIP3    H139379   4.791   3.527   0.764
13146TIP3    H239380   4.740   3.636   0.671
13147TIP3   OH239381   2.360   0.112   3.830
13147TIP3    H139382   2.368   0.024   3.866
13147TIP3    H239383   2.279   0.147   3.868
13148TIP3   OH239384   3.345   4.138   6.224
13148TIP3    H139385   3.423   4.104   6.180
13148TIP3    H239386   3.336   4.085   6.303
13149TIP3   OH239387   3.558   4.851   2.364
13149TIP3    H139388   3.511   4.785   2.414
13149TIP3    H239389   3.636   4.806   2.332
13150TIP3   OH239390   1.523   6.011   5.108
13150TIP3    H139391   1.450   6.066   5.137
13150TIP3    H239392   1.594   6.072   5.091
13151TIP3   OH239393   8.356   2.539   6.416
13151TIP3    H139394   8.301   2.489   6.477
13151TIP3    H239395   8.354   2.629   6.451
13152TIP3   OH239396   4.983   0.194   2.638
13152TIP3    H139397   5.063   0.245   2.651
13152TIP3    H239398   5.011   0.103   2.648
13153TIP3   OH239399   1.397   6.811   6.422
13153TIP3    H139400   1.385   6.755   6.345
13153TIP3    H239401   1.402   6.900   6.387
13154TIP3   OH239402   1.893   4.494   6.036
13154TIP3    H139403   1.865   4.414   6.079
13154TIP3    H239404   1.818   4.553   6.042
13155TIP3   OH239405   0.303   7.315   5.136
13155TIP3    H139406   0.209   7.305   5.152
13155TIP3    H239407   0.317   7.410   5.141
13156TIP3   OH239408   5.852   0.556   5.889
13156TIP3    H139409   5.927   0.615   5.886
13156TIP3    H239410   5.863   0.506   5.970
13157TIP3   OH239411   0.770   7.083   4.065
13157TIP3    H139412   0.861   7.052   4.063
13157TIP3    H239413   0.743   7.082   3.974
13158TIP3   OH239414   7.541   2.018   3.692
13158TIP3    H139415   7.482   1.946   3.717
13158TIP3    H239416   7.494   2.097   3.716
13159TIP3   OH239417   3.818   0.882   5.835
13159TIP3    H139418   3.885   0.839   5.888
13159TIP3    H239419   3.806   0.968   5.876
13160TIP3   OH239420   8.072   6.626   0.594
13160TIP3    H139421   8.069   6.615   0.499
13160TIP3    H239422   7.981   6.617   0.622
13161TIP3   OH239423   4.089   6.468   6.214
13161TIP3    H139424   4.116   6.524   6.287
13161TIP3    H239425   4.100   6.379   6.247
13162TIP3   OH239426   0.695   1.584   0.180
13162TIP3    H139427   0.780   1.551   0.210
13162TIP3    H239428   0.631   1.540   0.236
13163TIP3   OH239429   2.110   0.283   5.093
13163TIP3    H139430   2.093   0.226   5.167
13163TIP3    H239431   2.027   0.329   5.078
13164TIP3   OH239432   2.739   4.205   6.098
13164TIP3    H139433   2.657   4.185   6.055
13164TIP3    H239434   2.725   4.182   6.190
13165TIP3   OH239435   7.681   7.139   0.579
13165TIP3    H139436   7.638   7.057   0.558
13165TIP3    H239437   7.617   7.206   0.555
13166TIP3   OH239438   6.823   3.922   3.094
13166TIP3    H139439   6.855   3.936   3.183
13166TIP3    H239440   6.744   3.869   3.105
13167TIP3   OH239441   2.969   0.838   1.268
13167TIP3    H139442   2.989   0.931   1.263
13167TIP3    H239443   3.045   0.795   1.229
13168TIP3   OH239444   1.441   3.673   2.206
13168TIP3    H139445   1.526   3.714   2.192
13168TIP3    H239446   1.422   3.628   2.124
13169TIP3   OH239447   1.154   6.670   1.404
13169TIP3    H139448   1.147   6.640   1.314
13169TIP3    H239449   1.185   6.760   1.397
13170TIP3   OH239450   6.705   2.009   1.052
13170TIP3    H139451   6.618   2.042   1.072
13170TIP3    H239452   6.765   2.076   1.083
13171TIP3   OH239453   1.905   7.560   3.501
13171TIP3    H139454   1.885   7.509   3.422
13171TIP3    H239455   1.991   7.598   3.483
13172TIP3   OH239456   5.214   5.270   5.550
13172TIP3    H139457   5.224   5.216   5.472
13172TIP3    H239458   5.278   5.340   5.540
13173TIP3   OH239459   1.512   1.183   0.506
13173TIP3    H139460   1.524   1.256   0.445
13173TIP3    H239461   1.478   1.225   0.585
13174TIP3   OH239462   8.087   1.126   0.653
13174TIP3    H139463   8.175   1.153   0.681
13174TIP3    H239464   8.063   1.189   0.586
13175TIP3   OH239465   6.287   7.208   5.324
13175TIP3    H139466   6.268   7.242   5.236
13175TIP3    H239467   6.242   7.268   5.383
13176TIP3   OH239468   3.214   6.690   2.539
13176TIP3    H139469   3.298   6.733   2.523
13176TIP3    H239470   3.149   6.760   2.530
13177TIP3   OH239471   6.439   4.946   5.820
13177TIP3    H139472   6.358   4.967   5.866
13177TIP3    H239473   6.435   4.851   5.808
13178TIP3   OH239474   4.829  -0.026   5.211
13178TIP3    H139475   4.851   0.067   5.213
13178TIP3    H239476   4.749  -0.030   5.159
13179TIP3   OH239477   3.323   3.301   6.418
13179TIP3    H139478   3.288   3.390   6.414
13179TIP3    H239479   3.380   3.301   6.495
13180TIP3   OH239480   0.020   6.013   0.258
13180TIP3    H139481   0.115   6.026   0.257
13180TIP3    H239482  -0.016   6.098   0.283
13181TIP3   OH239483   6.127   0.185   5.796
13181TIP3    H139484   6.051   0.126   5.807
13181TIP3    H239485   6.188   0.135   5.742
13182TIP3   OH239486   2.496   3.898   5.875
13182TIP3    H139487   2.551   3.894   5.953
13182TIP3    H239488   2.513   3.815   5.830
13183TIP3   OH239489   2.750   1.233   1.842
13183TIP3    H139490   2.715   1.310   1.887
13183TIP3    H239491   2.781   1.176   1.912
13184TIP3   OH239492   5.629   5.897   3.005
13184TIP3    H139493   5.577   5.820   3.025
13184TIP3    H239494   5.710   5.862   2.968
13185TIP3   OH239495   1.339   2.942   6.768
13185TIP3    H139496   1.403   2.896   6.713
13185TIP3    H239497   1.302   2.874   6.824
13186TIP3   OH239498   4.901   7.668   5.099
13186TIP3    H139499   4.843   7.615   5.045
13186TIP3    H239500   4.841   7.719   5.154
13187TIP3   OH239501   1.887   6.110   0.118
13187TIP3    H139502   1.981   6.098   0.109
13187TIP3    H239503   1.874   6.132   0.211
13188TIP3   OH239504   1.642   7.848   2.808
13188TIP3    H139505   1.567   7.856   2.867
13188TIP3    H239506   1.618   7.899   2.731
13189TIP3   OH239507   4.857   6.520   2.705
13189TIP3    H139508   4.897   6.495   2.622
13189TIP3    H239509   4.895   6.606   2.724
13190TIP3   OH239510   0.704   0.329   3.888
13190TIP3    H139511   0.717   0.357   3.798
13190TIP3    H239512   0.655   0.401   3.928
13191TIP3   OH239513   7.781   1.029   4.972
13191TIP3    H139514   7.779   0.992   5.060
13191TIP3    H239515   7.842   0.974   4.924
13192TIP3   OH239516   7.958   6.764   5.586
13192TIP3    H139517   7.986   6.699   5.521
13192TIP3    H239518   8.014   6.839   5.570
13193TIP3   OH239519   2.607   3.511   1.024
13193TIP3    H139520   2.513   3.526   1.037
13193TIP3    H239521   2.639   3.592   0.986
13194TIP3   OH239522   4.344   1.973   5.741
13194TIP3    H139523   4.408   2.029   5.786
13194TIP3    H239524   4.356   1.992   5.648
13195TIP3   OH239525   6.110   6.686   5.191
13195TIP3    H139526   6.029   6.724   5.226
13195TIP3    H239527   6.084   6.648   5.107
13196TIP3   OH239528   8.308   0.733   1.902
13196TIP3    H139529   8.285   0.763   1.990
13196TIP3    H239530   8.247   0.661   1.885
13197TIP3   OH239531   0.716   0.156   2.997
13197TIP3    H139532   0.811   0.142   2.991
13197TIP3    H239533   0.683   0.082   3.048
13198TIP3   OH239534   5.917   1.570   5.328
13198TIP3    H139535   5.955   1.505   5.269
13198TIP3    H239536   5.867   1.628   5.271
13199TIP3   OH239537   4.921   5.731   3.547
13199TIP3    H139538   4.850   5.725   3.611
13199TIP3    H239539   4.933   5.642   3.516
13200TIP3   OH239540   3.593   6.037   6.486
13200TIP3    H139541   3.608   6.100   6.415
13200TIP3    H239542   3.665   6.052   6.547
13201TIP3   OH239543   7.910   1.604   6.440
13201TIP3    H139544   7.900   1.509   6.431
13201TIP3    H239545   7.863   1.625   6.521
13202TIP3   OH239546   5.430   0.845   3.557
13202TIP3    H139547   5.347   0.850   3.605
13202TIP3    H239548   5.495   0.883   3.617
13203TIP3   OH239549   1.500   1.630   4.026
13203TIP3    H139550   1.414   1.671   4.020
13203TIP3    H239551   1.540   1.668   4.104
13204TIP3   OH239552   8.107   0.732   0.016
13204TIP3    H139553   8.064   0.725  -0.069
13204TIP3    H239554   8.055   0.797   0.064
13205TIP3   OH239555   4.998   6.288   5.350
13205TIP3    H139556   4.976   6.257   5.262
13205TIP3    H239557   5.072   6.348   5.337
13206TIP3   OH239558   6.442   0.190   2.820
13206TIP3    H139559   6.413   0.154   2.737
13206TIP3    H239560   6.401   0.276   2.825
13207TIP3   OH239561   1.697   6.484   4.553
13207TIP3    H139562   1.758   6.498   4.480
13207TIP3    H239563   1.661   6.397   4.537
13208TIP3   OH239564   2.187   3.259   4.466
13208TIP3    H139565   2.112   3.206   4.439
13208TIP3    H239566   2.188   3.251   4.561
13209TIP3   OH239567   6.717   1.030   2.589
13209TIP3    H139568   6.670   0.992   2.663
13209TIP3    H239569   6.810   1.016   2.609
13210TIP3   OH239570   7.036   4.471   5.242
13210TIP3    H139571   7.027   4.379   5.264
13210TIP3    H239572   7.112   4.475   5.184
13211TIP3   OH239573   1.237   0.394   3.095
13211TIP3    H139574   1.293   0.470   3.111
13211TIP3    H239575   1.278   0.349   3.021
13212TIP3   OH239576   4.928   6.384   2.166
13212TIP3    H139577   4.999   6.403   2.104
13212TIP3    H239578   4.895   6.470   2.192
13213TIP3   OH239579   0.597   3.648   1.381
13213TIP3    H139580   0.654   3.637   1.305
13213TIP3    H239581   0.531   3.579   1.371
13214TIP3   OH239582   0.864   5.937   3.444
13214TIP3    H139583   0.779   5.974   3.421
13214TIP3    H239584   0.921   5.960   3.371
13215TIP3   OH239585   7.857   2.604   6.617
13215TIP3    H139586   7.930   2.565   6.664
13215TIP3    H239587   7.867   2.698   6.629
13216TIP3   OH239588   1.687   5.285   0.819
13216TIP3    H139589   1.668   5.347   0.748
13216TIP3    H239590   1.740   5.217   0.778
13217TIP3   OH239591   0.749   2.101   5.220
13217TIP3    H139592   0.763   2.033   5.153
13217TIP3    H239593   0.731   2.052   5.300
13218TIP3   OH239594   1.339   6.202   6.513
13218TIP3    H139595   1.276   6.142   6.555
13218TIP3    H239596   1.322   6.286   6.555
13219TIP3   OH239597   5.381   0.172   6.288
13219TIP3    H139598   5.397   0.189   6.381
13219TIP3    H239599   5.301   0.120   6.287
13220TIP3   OH239600   5.224   5.567   5.789
13220TIP3    H139601   5.190   5.656   5.773
13220TIP3    H239602   5.250   5.536   5.702
13221TIP3   OH239603   6.971   6.326   4.758
13221TIP3    H139604   6.896   6.298   4.811
13221TIP3    H239605   6.932   6.368   4.681
13222TIP3   OH239606   6.694   5.713   3.253
13222TIP3    H139607   6.734   5.683   3.335
13222TIP3    H239608   6.767   5.721   3.192
13223TIP3   OH239609   1.202   7.106   5.268
13223TIP3    H139610   1.146   7.093   5.345
13223TIP3    H239611   1.287   7.069   5.294
13224TIP3   OH239612   0.561   6.830   5.973
13224TIP3    H139613   0.559   6.859   5.882
13224TIP3    H239614   0.621   6.756   5.974
13225TIP3   OH239615   3.922   2.793   5.939
13225TIP3    H139616   3.894   2.737   6.011
13225TIP3    H239617   3.958   2.732   5.874
13226TIP3   OH239618   7.980   3.833   1.646
13226TIP3    H139619   7.924   3.911   1.640
13226TIP3    H239620   7.940   3.780   1.714
13227TIP3   OH239621   3.953   2.181   0.719
13227TIP3    H139622   3.894   2.108   0.702
13227TIP3    H239623   4.038   2.152   0.686
13228TIP3   OH239624   2.947   7.730   3.044
13228TIP3    H139625   2.888   7.749   2.971
13228TIP3    H239626   2.891   7.684   3.107
13229TIP3   OH239627   7.944   4.808   4.130
13229TIP3    H139628   7.916   4.809   4.038
13229TIP3    H239629   7.899   4.731   4.167
13230TIP3   OH239630   1.279   3.527   4.965
13230TIP3    H139631   1.328   3.528   5.047
13230TIP3    H239632   1.253   3.436   4.954
13231TIP3   OH239633   7.562   2.452   1.469
13231TIP3    H139634   7.552   2.363   1.436
13231TIP3    H239635   7.633   2.446   1.533
13232TIP3   OH239636   6.834   4.610   1.816
13232TIP3    H139637   6.772   4.677   1.786
13232TIP3    H239638   6.838   4.547   1.744
13233TIP3   OH239639   3.572   2.431   3.135
13233TIP3    H139640   3.595   2.368   3.203
13233TIP3    H239641   3.480   2.453   3.153
13234TIP3   OH239642   5.066   4.459   6.052
13234TIP3    H139643   4.995   4.517   6.079
13234TIP3    H239644   5.145   4.503   6.080
13235TIP3   OH239645   1.960   7.269   5.143
13235TIP3    H139646   1.997   7.348   5.182
13235TIP3    H239647   2.024   7.242   5.078
13236TIP3   OH239648   8.122   5.538   5.960
13236TIP3    H139649   8.039   5.586   5.959
13236TIP3    H239650   8.144   5.529   6.052
13237TIP3   OH239651   2.023   4.177   0.556
13237TIP3    H139652   1.950   4.168   0.617
13237TIP3    H239653   2.030   4.271   0.540
13238TIP3   OH239654   0.835   1.909   5.007
13238TIP3    H139655   0.833   1.988   4.953
13238TIP3    H239656   0.924   1.905   5.041
13239TIP3   OH239657   7.123   1.271   4.600
13239TIP3    H139658   7.182   1.196   4.614
13239TIP3    H239659   7.164   1.343   4.647
13240TIP3   OH239660   4.082   2.521   4.890
13240TIP3    H139661   4.148   2.557   4.831
13240TIP3    H239662   4.115   2.540   4.978
13241TIP3   OH239663   7.559   1.288   5.438
13241TIP3    H139664   7.570   1.194   5.454
13241TIP3    H239665   7.490   1.315   5.499
13242TIP3   OH239666   3.503   0.545   1.626
13242TIP3    H139667   3.533   0.509   1.542
13242TIP3    H239668   3.435   0.484   1.656
13243TIP3   OH239669   3.088   5.564   0.762
13243TIP3    H139670   3.139   5.636   0.723
13243TIP3    H239671   3.020   5.608   0.813
13244TIP3   OH239672   3.476   5.289   1.850
13244TIP3    H139673   3.424   5.260   1.925
13244TIP3    H239674   3.439   5.374   1.827
13245TIP3   OH239675   0.268   5.461   3.880
13245TIP3    H139676   0.272   5.551   3.914
13245TIP3    H239677   0.178   5.433   3.896
13246TIP3   OH239678   5.677   3.832   5.683
13246TIP3    H139679   5.684   3.742   5.714
13246TIP3    H239680   5.767   3.857   5.660
13247TIP3   OH239681   2.109   0.787   2.284
13247TIP3    H139682   2.037   0.778   2.221
13247TIP3    H239683   2.169   0.849   2.242
13248TIP3   OH239684   6.292   2.741   2.229
13248TIP3    H139685   6.358   2.672   2.234
13248TIP3    H239686   6.209   2.695   2.235
13249TIP3   OH239687   7.362   1.905   3.425
13249TIP3    H139688   7.453   1.888   3.449
13249TIP3    H239689   7.351   1.999   3.439
13250TIP3   OH239690   0.844   1.617   1.487
13250TIP3    H139691   0.842   1.713   1.489
13250TIP3    H239692   0.854   1.595   1.395
13251TIP3   OH239693   8.133   0.105   2.358
13251TIP3    H139694   8.187   0.068   2.288
13251TIP3    H239695   8.110   0.030   2.412
13252TIP3   OH239696   2.459   6.536   5.882
13252TIP3    H139697   2.550   6.506   5.879
13252TIP3    H239698   2.428   6.510   5.969
13253TIP3   OH239699   7.020   7.029   5.297
13253TIP3    H139700   7.074   7.049   5.222
13253TIP3    H239701   7.082   7.013   5.368
13254TIP3   OH239702   3.895   5.673   1.305
13254TIP3    H139703   3.878   5.636   1.219
13254TIP3    H239704   3.861   5.608   1.366
13255TIP3   OH239705   1.449   2.332   3.575
13255TIP3    H139706   1.387   2.362   3.642
13255TIP3    H239707   1.404   2.346   3.492
13256TIP3   OH239708   1.148   1.702   6.415
13256TIP3    H139709   1.073   1.680   6.470
13256TIP3    H239710   1.177   1.618   6.379
13257TIP3   OH239711   7.831   1.753   3.688
13257TIP3    H139712   7.853   1.771   3.780
13257TIP3    H239713   7.913   1.720   3.650
13258TIP3   OH239714   6.918   1.261   4.870
13258TIP3    H139715   6.994   1.270   4.927
13258TIP3    H239716   6.843   1.279   4.926
13259TIP3   OH239717   0.689   5.436   2.663
13259TIP3    H139718   0.613   5.493   2.655
13259TIP3    H239719   0.676   5.368   2.598
13260TIP3   OH239720   3.007   5.107   1.449
13260TIP3    H139721   2.998   5.128   1.542
13260TIP3    H239722   3.031   5.190   1.408
13261TIP3   OH239723   4.812   0.649   1.544
13261TIP3    H139724   4.794   0.630   1.452
13261TIP3    H239725   4.858   0.572   1.576
13262TIP3   OH239726   6.569   6.677   2.653
13262TIP3    H139727   6.647   6.690   2.707
13262TIP3    H239728   6.549   6.584   2.661
13263TIP3   OH239729   4.648   4.951   2.578
13263TIP3    H139730   4.573   4.938   2.520
13263TIP3    H239731   4.642   5.042   2.604
13264TIP3   OH239732   0.794   6.893   0.902
13264TIP3    H139733   0.786   6.837   0.979
13264TIP3    H239734   0.877   6.940   0.914
13265TIP3   OH239735   3.173   7.905   1.601
13265TIP3    H139736   3.226   7.856   1.665
13265TIP3    H239737   3.177   7.852   1.522
13266TIP3   OH239738   5.389   6.167   3.955
13266TIP3    H139739   5.357   6.101   3.892
13266TIP3    H239740   5.315   6.227   3.965
13267TIP3   OH239741   5.470   4.810   6.434
13267TIP3    H139742   5.461   4.865   6.356
13267TIP3    H239743   5.438   4.724   6.406
13268TIP3   OH239744   8.117   5.679   0.510
13268TIP3    H139745   8.056   5.753   0.515
13268TIP3    H239746   8.166   5.694   0.429
13269TIP3   OH239747   5.583   0.971   4.317
13269TIP3    H139748   5.601   1.065   4.316
13269TIP3    H239749   5.612   0.940   4.231
13270TIP3   OH239750   7.504   0.177   2.440
13270TIP3    H139751   7.423   0.168   2.389
13270TIP3    H239752   7.482   0.242   2.507
13271TIP3   OH239753   6.931   3.420   1.987
13271TIP3    H139754   6.973   3.477   2.051
13271TIP3    H239755   6.849   3.393   2.029
13272TIP3   OH239756   4.314   4.191   0.691
13272TIP3    H139757   4.301   4.253   0.619
13272TIP3    H239758   4.264   4.228   0.763
13273TIP3   OH239759   3.461   0.047   6.054
13273TIP3    H139760   3.388   0.040   6.115
13273TIP3    H239761   3.445   0.130   6.008
13274TIP3   OH239762   5.741   4.746   6.340
13274TIP3    H139763   5.746   4.821   6.280
13274TIP3    H239764   5.656   4.756   6.383
13275TIP3   OH239765   0.729   1.400   4.726
13275TIP3    H139766   0.670   1.325   4.722
13275TIP3    H239767   0.671   1.475   4.738
13276TIP3   OH239768   5.236   6.680   4.222
13276TIP3    H139769   5.184   6.759   4.209
13276TIP3    H239770   5.210   6.622   4.150
13277TIP3   OH239771   6.422   2.721   5.464
13277TIP3    H139772   6.390   2.765   5.385
13277TIP3    H239773   6.499   2.772   5.489
13278TIP3   OH239774   6.901   0.928   3.571
13278TIP3    H139775   6.969   0.974   3.622
13278TIP3    H239776   6.950   0.864   3.519
13279TIP3   OH239777   0.744   2.017   4.612
13279TIP3    H139778   0.738   2.112   4.605
13279TIP3    H239779   0.813   2.001   4.676
13280TIP3   OH239780   3.206   4.983   1.063
13280TIP3    H139781   3.282   4.930   1.042
13280TIP3    H239782   3.137   4.920   1.084
13281TIP3   OH239783   1.727   5.707   2.804
13281TIP3    H139784   1.791   5.667   2.746
13281TIP3    H239785   1.779   5.757   2.867
13282TIP3   OH239786   1.085   3.037   1.522
13282TIP3    H139787   1.136   3.091   1.461
13282TIP3    H239788   1.140   3.030   1.600
13283TIP3   OH239789   0.073   0.658   5.375
13283TIP3    H139790   0.113   0.630   5.292
13283TIP3    H239791  -0.011   0.696   5.349
13284TIP3   OH239792   6.266   7.229   5.779
13284TIP3    H139793   6.292   7.138   5.769
13284TIP3    H239794   6.190   7.226   5.837
13285TIP3   OH239795   3.833   3.989   3.539
13285TIP3    H139796   3.748   3.947   3.527
13285TIP3    H239797   3.813   4.073   3.579
13286TIP3   OH239798   7.044   7.571   0.125
13286TIP3    H139799   6.954   7.584   0.154
13286TIP3    H239800   7.037   7.516   0.047
13287TIP3   OH239801   0.895   2.269   3.500
13287TIP3    H139802   0.920   2.292   3.590
13287TIP3    H239803   0.854   2.183   3.508
13288TIP3   OH239804   8.226   1.849   4.566
13288TIP3    H139805   8.249   1.757   4.584
13288TIP3    H239806   8.290   1.877   4.500
13289TIP3   OH239807   2.406   3.522   2.423
13289TIP3    H139808   2.379   3.431   2.418
13289TIP3    H239809   2.502   3.519   2.420
13290TIP3   OH239810   8.357   0.824   2.353
13290TIP3    H139811   8.444   0.842   2.317
13290TIP3    H239812   8.297   0.856   2.286
13291TIP3   OH239813   1.121   0.986   2.742
13291TIP3    H139814   1.092   1.045   2.811
13291TIP3    H239815   1.044   0.975   2.687
13292TIP3   OH239816   5.545   4.800   3.822
13292TIP3    H139817   5.497   4.875   3.857
13292TIP3    H239818   5.587   4.833   3.742
13293TIP3   OH239819   5.204   4.032   6.061
13293TIP3    H139820   5.148   4.058   6.134
13293TIP3    H239821   5.163   4.071   5.984
13294TIP3   OH239822   6.166   3.717   5.682
13294TIP3    H139823   6.084   3.741   5.639
13294TIP3    H239824   6.206   3.653   5.622
13295TIP3   OH239825   1.660   0.129   5.886
13295TIP3    H139826   1.654   0.065   5.957
13295TIP3    H239827   1.675   0.213   5.929
13296TIP3   OH239828   2.496   4.262   4.378
13296TIP3    H139829   2.404   4.237   4.380
13296TIP3    H239830   2.495   4.357   4.368
13297TIP3   OH239831   8.307   1.795   6.171
13297TIP3    H139832   8.368   1.825   6.239
13297TIP3    H239833   8.238   1.749   6.219
13298TIP3   OH239834   5.601   3.669   3.756
13298TIP3    H139835   5.669   3.636   3.815
13298TIP3    H239836   5.520   3.665   3.807
13299TIP3   OH239837   4.956   3.815   6.611
13299TIP3    H139838   4.964   3.782   6.701
13299TIP3    H239839   4.916   3.901   6.620
13300TIP3   OH239840   1.688   5.877   0.915
13300TIP3    H139841   1.691   5.916   1.003
13300TIP3    H239842   1.626   5.806   0.922
13301TIP3   OH239843   0.179   2.961   2.189
13301TIP3    H139844   0.177   3.000   2.102
13301TIP3    H239845   0.123   3.018   2.242
13302TIP3   OH239846   7.818   2.217   3.170
13302TIP3    H139847   7.795   2.225   3.077
13302TIP3    H239848   7.761   2.147   3.202
13303TIP3   OH239849   3.324   6.645   2.150
13303TIP3    H139850   3.239   6.653   2.108
13303TIP3    H239851   3.375   6.589   2.092
13304TIP3   OH239852   1.809   0.901   5.446
13304TIP3    H139853   1.870   0.830   5.424
13304TIP3    H239854   1.731   0.856   5.478
13305TIP3   OH239855   3.280   2.838   4.423
13305TIP3    H139856   3.233   2.920   4.440
13305TIP3    H239857   3.362   2.847   4.472
13306TIP3   OH239858   4.049   0.268   4.548
13306TIP3    H139859   3.961   0.274   4.510
13306TIP3    H239860   4.089   0.353   4.529
13307TIP3   OH239861   1.461   5.016   6.284
13307TIP3    H139862   1.449   4.941   6.226
13307TIP3    H239863   1.487   5.088   6.226
13308TIP3   OH239864   4.642   7.812   6.301
13308TIP3    H139865   4.627   7.810   6.396
13308TIP3    H239866   4.633   7.904   6.277
13309TIP3   OH239867   6.055   3.556   2.361
13309TIP3    H139868   6.005   3.475   2.369
13309TIP3    H239869   6.106   3.561   2.442
13310TIP3   OH239870   0.677   3.573   3.795
13310TIP3    H139871   0.665   3.623   3.876
13310TIP3    H239872   0.589   3.546   3.770
13311TIP3   OH239873   3.426   5.342   0.991
13311TIP3    H139874   3.387   5.361   0.905
13311TIP3    H239875   3.354   5.354   1.053
13312TIP3   OH239876   1.273   4.516   4.184
13312TIP3    H139877   1.218   4.437   4.185
13312TIP3    H239878   1.267   4.551   4.272
13313TIP3   OH239879   3.401   7.480   1.087
13313TIP3    H139880   3.386   7.398   1.039
13313TIP3    H239881   3.362   7.464   1.173
13314TIP3   OH239882   4.007   6.847   4.336
13314TIP3    H139883   3.968   6.760   4.350
13314TIP3    H239884   3.949   6.890   4.273
13315TIP3   OH239885   4.130   4.914   5.617
13315TIP3    H139886   4.113   4.826   5.582
13315TIP3    H239887   4.221   4.911   5.645
13316TIP3   OH239888   7.772   7.684   6.433
13316TIP3    H139889   7.683   7.718   6.443
13316TIP3    H239890   7.823   7.759   6.401
13317TIP3   OH239891   7.274   1.516   4.664
13317TIP3    H139892   7.288   1.564   4.583
13317TIP3    H239893   7.326   1.563   4.729
13318TIP3   OH239894   1.926   6.679   5.490
13318TIP3    H139895   1.978   6.611   5.447
13318TIP3    H239896   1.975   6.698   5.570
13319TIP3   OH239897   5.263   1.405   5.126
13319TIP3    H139898   5.282   1.488   5.083
13319TIP3    H239899   5.280   1.339   5.059
13320TIP3   OH239900   4.830   5.016   6.080
13320TIP3    H139901   4.914   4.976   6.057
13320TIP3    H239902   4.840   5.107   6.055
13321TIP3   OH239903   1.644   6.820   4.184
13321TIP3    H139904   1.606   6.865   4.109
13321TIP3    H239905   1.738   6.836   4.177
13322TIP3   OH239906   2.217   3.132   0.356
13322TIP3    H139907   2.225   3.156   0.448
13322TIP3    H239908   2.264   3.201   0.309
13323TIP3   OH239909   5.218   7.527   1.283
13323TIP3    H139910   5.234   7.617   1.309
13323TIP3    H239911   5.289   7.477   1.324
13324TIP3   OH239912   4.741   0.295   2.149
13324TIP3    H139913   4.668   0.344   2.186
13324TIP3    H239914   4.773   0.241   2.221
13325TIP3   OH239915   2.084   7.335   1.211
13325TIP3    H139916   2.098   7.423   1.245
13325TIP3    H239917   1.995   7.337   1.176
13326TIP3   OH239918   3.435   5.993   2.503
13326TIP3    H139919   3.505   5.932   2.522
13326TIP3    H239920   3.479   6.077   2.490
13327TIP3   OH239921   4.029   7.936   6.177
13327TIP3    H139922   4.006   7.962   6.088
13327TIP3    H239923   4.083   7.857   6.166
13328TIP3   OH239924   5.177   3.628   1.417
13328TIP3    H139925   5.109   3.565   1.391
13328TIP3    H239926   5.238   3.629   1.343
13329TIP3   OH239927   1.882   7.316   6.134
13329TIP3    H139928   1.894   7.307   6.229
13329TIP3    H239929   1.969   7.301   6.097
13330TIP3   OH239930   3.978   3.518   5.387
13330TIP3    H139931   3.926   3.450   5.428
13330TIP3    H239932   4.067   3.481   5.383
13331TIP3   OH239933   6.216   3.514   2.132
13331TIP3    H139934   6.138   3.518   2.187
13331TIP3    H239935   6.184   3.483   2.047
13332TIP3   OH239936   5.557   4.604   0.431
13332TIP3    H139937   5.486   4.629   0.489
13332TIP3    H239938   5.519   4.539   0.372
13333TIP3   OH239939   4.231   0.954   2.986
13333TIP3    H139940   4.192   1.005   3.057
13333TIP3    H239941   4.194   0.991   2.906
13334TIP3   OH239942   5.369   6.379   1.849
13334TIP3    H139943   5.400   6.460   1.889
13334TIP3    H239944   5.289   6.358   1.897
13335TIP3   OH239945   0.616   7.038   0.752
13335TIP3    H139946   0.670   7.056   0.675
13335TIP3    H239947   0.670   6.980   0.806
13336TIP3   OH239948   5.246   6.095   6.047
13336TIP3    H139949   5.277   6.152   5.976
13336TIP3    H239950   5.318   6.035   6.064
13337TIP3   OH239951   6.450   1.961   1.339
13337TIP3    H139952   6.519   1.922   1.392
13337TIP3    H239953   6.448   2.053   1.366
13338TIP3   OH239954   4.787   0.861   6.843
13338TIP3    H139955   4.733   0.885   6.768
13338TIP3    H239956   4.843   0.938   6.858
13339TIP3   OH239957   4.863   4.163   4.854
13339TIP3    H139958   4.857   4.085   4.909
13339TIP3    H239959   4.949   4.157   4.813
13340TIP3   OH239960   5.463   2.978   6.707
13340TIP3    H139961   5.384   2.929   6.731
13340TIP3    H239962   5.536   2.923   6.737
13341TIP3   OH239963   5.288   1.844   2.644
13341TIP3    H139964   5.230   1.916   2.618
13341TIP3    H239965   5.362   1.849   2.584
13342TIP3   OH239966   5.997   3.113   4.537
13342TIP3    H139967   5.930   3.088   4.474
13342TIP3    H239968   6.053   3.175   4.490
13343TIP3   OH239969   4.535   5.564   0.808
13343TIP3    H139970   4.530   5.638   0.869
13343TIP3    H239971   4.492   5.492   0.853
13344TIP3   OH239972   4.092   2.855   5.026
13344TIP3    H139973   4.168   2.908   5.002
13344TIP3    H239974   4.061   2.820   4.943
13345TIP3   OH239975   1.095   4.673   6.316
13345TIP3    H139976   1.016   4.698   6.268
13345TIP3    H239977   1.154   4.747   6.305
13346TIP3   OH239978   7.280   4.572   4.180
13346TIP3    H139979   7.351   4.635   4.191
13346TIP3    H239980   7.203   4.625   4.159
13347TIP3   OH239981   2.928   6.789   2.669
13347TIP3    H139982   2.857   6.774   2.731
13347TIP3    H239983   2.898   6.746   2.589
13348TIP3   OH239984   1.187   6.818   3.795
13348TIP3    H139985   1.093   6.835   3.787
13348TIP3    H239986   1.219   6.817   3.705
13349TIP3   OH239987   0.270   7.856   1.653
13349TIP3    H139988   0.188   7.890   1.688
13349TIP3    H239989   0.335   7.876   1.720
13350TIP3   OH239990   0.311   3.938   3.992
13350TIP3    H139991   0.255   4.016   3.984
13350TIP3    H239992   0.335   3.935   4.084
13351TIP3   OH239993   0.393   0.737   1.843
13351TIP3    H139994   0.370   0.646   1.825
13351TIP3    H239995   0.310   0.784   1.839
13352TIP3   OH239996   5.886   7.790   5.728
13352TIP3    H139997   5.950   7.752   5.789
13352TIP3    H239998   5.805   7.795   5.778
13353TIP3   OH239999   0.228   5.826   6.782
13353TIP3    H140000   0.248   5.887   6.711
13353TIP3    H240001   0.313   5.810   6.824
13354TIP3   OH240002   2.752   4.189   2.865
13354TIP3    H140003   2.726   4.097   2.853
13354TIP3    H240004   2.716   4.234   2.789
13355TIP3   OH240005   1.882   5.702   0.546
13355TIP3    H140006   1.805   5.733   0.498
13355TIP3    H240007   1.897   5.769   0.613
13356TIP3   OH240008   4.977   3.939   0.192
13356TIP3    H140009   5.044   4.005   0.174
13356TIP3    H240010   4.995   3.911   0.282
13357TIP3   OH240011   4.516   7.564   6.234
13357TIP3    H140012   4.572   7.635   6.265
13357TIP3    H240013   4.471   7.600   6.158
13358TIP3   OH240014   3.825   6.741   5.052
13358TIP3    H140015   3.806   6.830   5.025
13358TIP3    H240016   3.828   6.691   4.970
13359TIP3   OH240017   2.480   3.986   2.155
13359TIP3    H140018   2.411   3.971   2.091
13359TIP3    H240019   2.518   3.900   2.171
13360TIP3   OH240020   0.565   5.729   2.938
13360TIP3    H140021   0.626   5.658   2.915
13360TIP3    H240022   0.558   5.724   3.034
13361TIP3   OH240023   4.399   4.194   4.049
13361TIP3    H140024   4.366   4.263   4.107
13361TIP3    H240025   4.396   4.233   3.962
13362TIP3   OH240026   6.842   3.294   5.985
13362TIP3    H140027   6.841   3.383   5.950
13362TIP3    H240028   6.881   3.241   5.915
13363TIP3   OH240029   0.905   0.851   5.200
13363TIP3    H140030   0.915   0.946   5.193
13363TIP3    H240031   0.971   0.825   5.264
13364TIP3   OH240032   6.530   0.232   2.424
13364TIP3    H140033   6.522   0.159   2.362
13364TIP3    H240034   6.459   0.218   2.487
13365TIP3   OH240035   7.292   4.876   2.511
13365TIP3    H140036   7.240   4.956   2.514
13365TIP3    H240037   7.364   4.896   2.452
13366TIP3   OH240038   6.886   4.847   0.337
13366TIP3    H140039   6.903   4.896   0.417
13366TIP3    H240040   6.807   4.797   0.356
13367TIP3   OH240041   1.644   3.143   3.220
13367TIP3    H140042   1.632   3.062   3.270
13367TIP3    H240043   1.583   3.205   3.260
13368TIP3   OH240044   0.994   3.762   5.658
13368TIP3    H140045   1.012   3.792   5.747
13368TIP3    H240046   1.061   3.805   5.604
13369TIP3   OH240047   6.719   3.823   1.850
13369TIP3    H140048   6.808   3.789   1.840
13369TIP3    H240049   6.688   3.783   1.932
13370TIP3   OH240050   6.166   1.616   2.588
13370TIP3    H140051   6.146   1.708   2.571
13370TIP3    H240052   6.173   1.577   2.501
13371TIP3   OH240053   7.899   2.513   5.886
13371TIP3    H140054   7.917   2.604   5.907
13371TIP3    H240055   7.964   2.463   5.937
13372TIP3   OH240056   1.114   4.199   0.885
13372TIP3    H140057   1.106   4.135   0.955
13372TIP3    H240058   1.207   4.219   0.881
13373TIP3   OH240059   7.499   5.633   4.200
13373TIP3    H140060   7.440   5.655   4.272
13373TIP3    H240061   7.575   5.689   4.213
13374TIP3   OH240062   7.956   6.383   0.453
13374TIP3    H140063   7.939   6.379   0.359
13374TIP3    H240064   8.046   6.353   0.462
13375TIP3   OH240065   7.505   1.262   2.689
13375TIP3    H140066   7.512   1.347   2.732
13375TIP3    H240067   7.451   1.209   2.748
13376TIP3   OH240068   4.485   4.212   1.361
13376TIP3    H140069   4.566   4.262   1.357
13376TIP3    H240070   4.420   4.274   1.395
13377TIP3   OH240071   2.410   1.458   3.859
13377TIP3    H140072   2.375   1.525   3.801
13377TIP3    H240073   2.367   1.474   3.944
13378TIP3   OH240074   2.886   1.091   2.029
13378TIP3    H140075   2.834   1.081   2.109
13378TIP3    H240076   2.903   1.002   2.001
13379TIP3   OH240077   0.453   0.741   2.318
13379TIP3    H140078   0.459   0.833   2.344
13379TIP3    H240079   0.361   0.726   2.300
13380TIP3   OH240080   0.900   0.881   5.701
13380TIP3    H140081   0.864   0.853   5.785
13380TIP3    H240082   0.940   0.802   5.665
13381TIP3   OH240083   2.215   3.266   1.198
13381TIP3    H140084   2.213   3.246   1.292
13381TIP3    H240085   2.162   3.346   1.190
13382TIP3   OH240086   6.969   2.892   4.160
13382TIP3    H140087   6.962   2.981   4.195
13382TIP3    H240088   7.060   2.867   4.176
13383TIP3   OH240089   7.433   6.266   0.100
13383TIP3    H140090   7.454   6.296   0.012
13383TIP3    H240091   7.426   6.347   0.152
13384TIP3   OH240092   1.396   7.119   6.107
13384TIP3    H140093   1.476   7.141   6.155
13384TIP3    H240094   1.357   7.203   6.085
13385TIP3   OH240095   8.092   1.501   1.055
13385TIP3    H140096   8.006   1.460   1.046
13385TIP3    H240097   8.133   1.491   0.969
13386TIP3   OH240098   5.912   2.815   0.338
13386TIP3    H140099   5.869   2.898   0.357
13386TIP3    H240100   5.854   2.749   0.376
13387TIP3   OH240101   3.155   6.826   5.754
13387TIP3    H140102   3.061   6.844   5.766
13387TIP3    H240103   3.199   6.904   5.789
13388TIP3   OH240104   7.327   4.649   2.673
13388TIP3    H140105   7.240   4.680   2.699
13388TIP3    H240106   7.360   4.717   2.613
13389TIP3   OH240107   5.677   0.454   0.210
13389TIP3    H140108   5.606   0.490   0.264
13389TIP3    H240109   5.757   0.486   0.252
13390TIP3   OH240110   4.208   7.238   1.153
13390TIP3    H140111   4.122   7.258   1.117
13390TIP3    H240112   4.190   7.198   1.238
13391TIP3   OH240113   2.582   2.704   5.099
13391TIP3    H140114   2.672   2.693   5.130
13391TIP3    H240115   2.542   2.618   5.112
13392TIP3   OH240116   3.418   2.662   5.776
13392TIP3    H140117   3.328   2.677   5.803
13392TIP3    H240118   3.454   2.603   5.842
13393TIP3   OH240119   0.448   6.763   5.013
13393TIP3    H140120   0.523   6.722   4.969
13393TIP3    H240121   0.373   6.709   4.988
13394TIP3   OH240122   6.931   3.029   1.944
13394TIP3    H140123   6.944   3.115   1.903
13394TIP3    H240124   6.894   2.975   1.874
13395TIP3   OH240125   2.487   4.953   5.449
13395TIP3    H140126   2.489   5.026   5.511
13395TIP3    H240127   2.553   4.891   5.483
13396TIP3   OH240128   7.038   5.746   2.002
13396TIP3    H140129   7.115   5.692   1.984
13396TIP3    H240130   6.975   5.720   1.935
13397TIP3   OH240131   8.388   4.471   2.264
13397TIP3    H140132   8.296   4.458   2.287
13397TIP3    H240133   8.386   4.492   2.170
13398TIP3   OH240134   0.917   5.363   0.485
13398TIP3    H140135   0.884   5.325   0.566
13398TIP3    H240136   1.001   5.319   0.470
13399TIP3   OH240137   4.820   4.230   0.751
13399TIP3    H140138   4.784   4.216   0.839
13399TIP3    H240139   4.835   4.142   0.718
13400TIP3   OH240140   1.855   0.754   2.175
13400TIP3    H140141   1.834   0.662   2.160
13400TIP3    H240142   1.792   0.782   2.241
13401TIP3   OH240143   4.014   7.893   4.344
13401TIP3    H140144   3.951   7.964   4.336
13401TIP3    H240145   4.047   7.880   4.255
13402TIP3   OH240146   3.673   4.367   0.029
13402TIP3    H140147   3.734   4.439   0.012
13402TIP3    H240148   3.729   4.291   0.045
13403TIP3   OH240149   4.601   5.315   5.265
13403TIP3    H140150   4.542   5.240   5.263
13403TIP3    H240151   4.628   5.322   5.357
13404TIP3   OH240152   5.388   2.699   2.603
13404TIP3    H140153   5.426   2.768   2.659
13404TIP3    H240154   5.297   2.725   2.592
13405TIP3   OH240155   4.527   1.853   2.680
13405TIP3    H140156   4.469   1.794   2.633
13405TIP3    H240157   4.523   1.823   2.771
13406TIP3   OH240158   5.733   5.223   1.220
13406TIP3    H140159   5.677   5.296   1.247
13406TIP3    H240160   5.727   5.160   1.291
13407TIP3   OH240161   4.387   4.452   0.575
13407TIP3    H140162   4.474   4.420   0.596
13407TIP3    H240163   4.357   4.496   0.655
13408TIP3   OH240164   4.026   0.085   5.293
13408TIP3    H140165   3.969   0.061   5.367
13408TIP3    H240166   4.074   0.005   5.273
13409TIP3   OH240167   1.583   6.259   1.264
13409TIP3    H140168   1.552   6.338   1.219
13409TIP3    H240169   1.519   6.245   1.334
13410TIP3   OH240170   0.591   6.256   5.395
13410TIP3    H140171   0.582   6.349   5.374
13410TIP3    H240172   0.524   6.213   5.342
13411TIP3   OH240173   3.240   0.511   6.794
13411TIP3    H140174   3.315   0.516   6.735
13411TIP3    H240175   3.232   0.599   6.831
13412TIP3   OH240176   8.037   0.706   1.407
13412TIP3    H140177   7.991   0.758   1.473
13412TIP3    H240178   7.975   0.699   1.334
13413TIP3   OH240179   3.508   4.964   6.432
13413TIP3    H140180   3.498   4.872   6.457
13413TIP3    H240181   3.440   4.980   6.368
13414TIP3   OH240182   1.723   6.527   4.269
13414TIP3    H140183   1.692   6.586   4.201
13414TIP3    H240184   1.780   6.465   4.223
13415TIP3   OH240185   7.578   0.346   3.440
13415TIP3    H140186   7.524   0.376   3.514
13415TIP3    H240187   7.630   0.423   3.417
13416TIP3   OH240188   2.986   5.775   1.669
13416TIP3    H140189   3.008   5.860   1.707
13416TIP3    H240190   2.929   5.796   1.595
13417TIP3   OH240191   4.477   2.883   1.047
13417TIP3    H140192   4.560   2.926   1.026
13417TIP3    H240193   4.418   2.910   0.976
13418TIP3   OH240194   4.366   7.378   4.062
13418TIP3    H140195   4.460   7.399   4.056
13418TIP3    H240196   4.322   7.454   4.024
13419TIP3   OH240197   4.559   5.902   1.735
13419TIP3    H140198   4.525   5.962   1.668
13419TIP3    H240199   4.645   5.875   1.702
13420TIP3   OH240200   1.824   2.257   1.710
13420TIP3    H140201   1.859   2.280   1.624
13420TIP3    H240202   1.901   2.249   1.766
13421TIP3   OH240203   5.035   2.264   2.163
13421TIP3    H140204   4.975   2.328   2.124
13421TIP3    H240205   5.019   2.183   2.114
13422TIP3   OH240206   3.055   0.058   6.648
13422TIP3    H140207   2.998  -0.008   6.686
13422TIP3    H240208   3.129   0.009   6.614
13423TIP3   OH240209   3.349   1.290   5.906
13423TIP3    H140210   3.417   1.322   5.847
13423TIP3    H240211   3.386   1.300   5.993
13424TIP3   OH240212   2.773   3.853   4.254
13424TIP3    H140213   2.697   3.912   4.249
13424TIP3    H240214   2.832   3.895   4.317
13425TIP3   OH240215   3.987   0.266   1.660
13425TIP3    H140216   4.028   0.294   1.742
13425TIP3    H240217   3.902   0.310   1.659
13426TIP3   OH240218   6.035   3.882   4.270
13426TIP3    H140219   5.957   3.931   4.244
13426TIP3    H240220   6.107   3.927   4.225
13427TIP3   OH240221   3.850   2.876   4.327
13427TIP3    H140222   3.945   2.886   4.321
13427TIP3    H240223   3.826   2.916   4.411
13428TIP3   OH240224   0.085   7.073   0.969
13428TIP3    H140225   0.042   7.141   1.020
13428TIP3    H240226   0.019   7.005   0.958
13429TIP3   OH240227   7.322   2.339   1.373
13429TIP3    H140228   7.258   2.294   1.317
13429TIP3    H240229   7.341   2.420   1.327
13430TIP3   OH240230   0.191   1.350   5.377
13430TIP3    H140231   0.160   1.264   5.406
13430TIP3    H240232   0.281   1.356   5.408
13431TIP3   OH240233   5.075   2.423   1.205
13431TIP3    H140234   4.984   2.442   1.183
13431TIP3    H240235   5.096   2.344   1.155
13432TIP3   OH240236   6.561   0.377   3.096
13432TIP3    H140237   6.570   0.301   3.038
13432TIP3    H240238   6.619   0.358   3.170
13433TIP3   OH240239   6.512   4.635   4.531
13433TIP3    H140240   6.572   4.610   4.602
13433TIP3    H240241   6.462   4.556   4.512
13434TIP3   OH240242   1.055   3.088   0.278
13434TIP3    H140243   0.997   3.058   0.348
13434TIP3    H240244   1.005   3.153   0.231
13435TIP3   OH240245   2.314   0.860   0.942
13435TIP3    H140246   2.396   0.904   0.963
13435TIP3    H240247   2.291   0.893   0.855
13436TIP3   OH240248   4.708   2.689   0.080
13436TIP3    H140249   4.662   2.772   0.093
13436TIP3    H240250   4.651   2.639   0.022
13437TIP3   OH240251   4.375   3.915   2.796
13437TIP3    H140252   4.447   3.969   2.764
13437TIP3    H240253   4.408   3.876   2.876
13438TIP3   OH240254   8.368   4.475   3.759
13438TIP3    H140255   8.436   4.529   3.718
13438TIP3    H240256   8.311   4.451   3.687
13439TIP3   OH240257   4.933   4.477   0.810
13439TIP3    H140258   4.853   4.530   0.812
13439TIP3    H240259   4.909   4.399   0.759
13440TIP3   OH240260   0.580   3.818   3.434
13440TIP3    H140261   0.608   3.884   3.497
13440TIP3    H240262   0.605   3.853   3.349
13441TIP3   OH240263   0.240   7.613   3.650
13441TIP3    H140264   0.160   7.564   3.633
13441TIP3    H240265   0.245   7.618   3.746
13442TIP3   OH240266   2.741   5.541   3.274
13442TIP3    H140267   2.704   5.456   3.297
13442TIP3    H240268   2.667   5.602   3.278
13443TIP3   OH240269   1.496   0.017   3.731
13443TIP3    H140270   1.416   0.043   3.685
13443TIP3    H240271   1.520   0.094   3.782
13444TIP3   OH240272   8.124   6.389   4.391
13444TIP3    H140273   8.080   6.369   4.473
13444TIP3    H240274   8.183   6.314   4.377
13445TIP3   OH240275   1.727   0.254   2.381
13445TIP3    H140276   1.753   0.183   2.323
13445TIP3    H240277   1.758   0.228   2.468
13446TIP3   OH240278   7.048   7.739   4.882
13446TIP3    H140279   7.138   7.768   4.891
13446TIP3    H240280   7.025   7.703   4.968
13447TIP3   OH240281   5.056   5.908   4.306
13447TIP3    H140282   5.108   5.967   4.251
13447TIP3    H240283   5.012   5.850   4.244
13448TIP3   OH240284   3.486   0.850   5.294
13448TIP3    H140285   3.502   0.763   5.331
13448TIP3    H240286   3.480   0.836   5.200
13449TIP3   OH240287   8.167   2.172   1.165
13449TIP3    H140288   8.142   2.107   1.231
13449TIP3    H240289   8.085   2.217   1.144
13450TIP3   OH240290   3.039   3.188   5.030
13450TIP3    H140291   3.124   3.153   5.003
13450TIP3    H240292   2.982   3.171   4.955
13451TIP3   OH240293   2.813   6.635   2.901
13451TIP3    H140294   2.799   6.541   2.905
13451TIP3    H240295   2.906   6.646   2.922
13452TIP3   OH240296   4.643   3.241   4.698
13452TIP3    H140297   4.628   3.334   4.711
13452TIP3    H240298   4.732   3.227   4.730
13453TIP3   OH240299   1.969   1.445   1.401
13453TIP3    H140300   2.048   1.393   1.386
13453TIP3    H240301   1.972   1.468   1.494
13454TIP3   OH240302   6.039   5.056   1.312
13454TIP3    H140303   6.050   5.061   1.217
13454TIP3    H240304   5.992   4.973   1.327
13455TIP3   OH240305   2.904   0.384   2.501
13455TIP3    H140306   2.883   0.351   2.588
13455TIP3    H240307   2.932   0.307   2.452
13456TIP3   OH240308   4.799   5.623   4.410
13456TIP3    H140309   4.871   5.632   4.473
13456TIP3    H240310   4.722   5.656   4.456
13457TIP3   OH240311   1.184   7.271   3.469
13457TIP3    H140312   1.257   7.238   3.521
13457TIP3    H240313   1.182   7.365   3.487
13458TIP3   OH240314   7.608   5.735   1.482
13458TIP3    H140315   7.609   5.808   1.543
13458TIP3    H240316   7.576   5.660   1.533
13459TIP3   OH240317   8.101   2.932   0.818
13459TIP3    H140318   8.107   2.957   0.726
13459TIP3    H240319   8.134   2.842   0.820
13460TIP3   OH240320   7.290   7.645   1.993
13460TIP3    H140321   7.220   7.599   2.038
13460TIP3    H240322   7.364   7.641   2.053
13461TIP3   OH240323   7.793   4.751   5.586
13461TIP3    H140324   7.740   4.756   5.506
13461TIP3    H240325   7.803   4.842   5.614
13462TIP3   OH240326   0.958   3.429   5.900
13462TIP3    H140327   1.011   3.469   5.968
13462TIP3    H240328   0.912   3.503   5.859
13463TIP3   OH240329   2.558   6.678   6.711
13463TIP3    H140330   2.487   6.676   6.775
13463TIP3    H240331   2.543   6.758   6.662
13464TIP3   OH240332   7.681   6.789   5.623
13464TIP3    H140333   7.773   6.775   5.643
13464TIP3    H240334   7.636   6.714   5.660
13465TIP3   OH240335   0.947   5.851   0.280
13465TIP3    H140336   0.852   5.844   0.271
13465TIP3    H240337   0.972   5.915   0.213
13466TIP3   OH240338   5.453   7.516   2.426
13466TIP3    H140339   5.532   7.466   2.409
13466TIP3    H240340   5.483   7.606   2.443
13467TIP3   OH240341   3.149   1.993   4.837
13467TIP3    H140342   3.228   1.970   4.885
13467TIP3    H240343   3.084   1.929   4.866
13468TIP3   OH240344   2.419   2.955   4.415
13468TIP3    H140345   2.465   3.001   4.485
13468TIP3    H240346   2.488   2.931   4.353
13469TIP3   OH240347   1.788   7.057   6.313
13469TIP3    H140348   1.846   7.069   6.389
13469TIP3    H240349   1.776   7.145   6.277
13470TIP3   OH240350   7.398   6.227   4.932
13470TIP3    H140351   7.411   6.196   5.022
13470TIP3    H240352   7.402   6.148   4.878
13471TIP3   OH240353   1.368   0.822   1.020
13471TIP3    H140354   1.393   0.794   1.108
13471TIP3    H240355   1.451   0.839   0.976
13472TIP3   OH240356   6.253   5.854   0.546
13472TIP3    H140357   6.249   5.945   0.576
13472TIP3    H240358   6.167   5.837   0.507
13473TIP3   OH240359   1.063   7.751   3.441
13473TIP3    H140360   0.980   7.798   3.437
13473TIP3    H240361   1.130   7.819   3.432
13474TIP3   OH240362   4.663   1.156   2.094
13474TIP3    H140363   4.591   1.127   2.039
13474TIP3    H240364   4.699   1.075   2.131
13475TIP3   OH240365   7.512   2.440   1.805
13475TIP3    H140366   7.544   2.521   1.768
13475TIP3    H240367   7.550   2.436   1.893
13476TIP3   OH240368   7.677   5.009   2.682
13476TIP3    H140369   7.657   4.975   2.595
13476TIP3    H240370   7.772   5.015   2.685
13477TIP3   OH240371   3.875   1.049   6.652
13477TIP3    H140372   3.947   1.043   6.590
13477TIP3    H240373   3.810   1.104   6.608
13478TIP3   OH240374   6.092   2.460   0.749
13478TIP3    H140375   6.060   2.392   0.807
13478TIP3    H240376   6.175   2.488   0.788
13479TIP3   OH240377   8.220   5.545   1.872
13479TIP3    H140378   8.225   5.589   1.957
13479TIP3    H240379   8.127   5.529   1.858
13480TIP3   OH240380   7.904   2.231   1.062
13480TIP3    H140381   7.863   2.156   1.018
13480TIP3    H240382   7.834   2.268   1.116
13481TIP3   OH240383   5.279   2.199   3.332
13481TIP3    H140384   5.284   2.117   3.283
13481TIP3    H240385   5.369   2.215   3.361
13482TIP3   OH240386   3.482   5.455   3.683
13482TIP3    H140387   3.536   5.392   3.636
13482TIP3    H240388   3.434   5.403   3.746
13483TIP3   OH240389   6.374   0.854   0.946
13483TIP3    H140390   6.334   0.889   0.867
13483TIP3    H240391   6.398   0.764   0.923
13484TIP3   OH240392   7.703   2.495   3.608
13484TIP3    H140393   7.791   2.513   3.575
13484TIP3    H240394   7.659   2.449   3.537
13485TIP3   OH240395   0.704   3.894   3.191
13485TIP3    H140396   0.683   3.906   3.098
13485TIP3    H240397   0.793   3.858   3.191
13486TIP3   OH240398   7.122   5.394   6.456
13486TIP3    H140399   7.096   5.308   6.422
13486TIP3    H240400   7.179   5.430   6.388
13487TIP3   OH240401   0.392   1.665   2.954
13487TIP3    H140402   0.391   1.666   2.858
13487TIP3    H240403   0.467   1.608   2.975
13488TIP3   OH240404   6.761   6.451   6.433
13488TIP3    H140405   6.763   6.547   6.426
13488TIP3    H240406   6.713   6.434   6.514
13489TIP3   OH240407   2.249   7.778   5.631
13489TIP3    H140408   2.230   7.790   5.724
13489TIP3    H240409   2.342   7.801   5.622
13490TIP3   OH240410   0.338   2.097   5.669
13490TIP3    H140411   0.316   2.160   5.738
13490TIP3    H240412   0.434   2.099   5.664
13491TIP3   OH240413   3.229   0.670   3.981
13491TIP3    H140414   3.202   0.648   4.070
13491TIP3    H240415   3.220   0.588   3.932
13492TIP3   OH240416   5.703   4.807   0.308
13492TIP3    H140417   5.652   4.734   0.344
13492TIP3    H240418   5.720   4.782   0.217
13493TIP3   OH240419   5.283   2.246   5.894
13493TIP3    H140420   5.295   2.208   5.807
13493TIP3    H240421   5.318   2.180   5.954
13494TIP3   OH240422   6.083   4.249   3.305
13494TIP3    H140423   6.125   4.172   3.344
13494TIP3    H240424   5.989   4.232   3.312
13495TIP3   OH240425   4.187   2.016   2.952
13495TIP3    H140426   4.159   1.966   2.876
13495TIP3    H240427   4.123   1.994   3.020
13496TIP3   OH240428   8.089   2.445   0.940
13496TIP3    H140429   8.128   2.492   0.867
13496TIP3    H240430   8.056   2.364   0.902
13497TIP3   OH240431   8.169   6.890   5.974
13497TIP3    H140432   8.123   6.949   5.915
13497TIP3    H240433   8.150   6.802   5.941
13498TIP3   OH240434   7.457   2.578   0.535
13498TIP3    H140435   7.443   2.665   0.499
13498TIP3    H240436   7.521   2.591   0.605
13499TIP3   OH240437   6.350   1.842   1.937
13499TIP3    H140438   6.365   1.855   2.031
13499TIP3    H240439   6.271   1.788   1.932
13500TIP3   OH240440   1.796   4.983   4.736
13500TIP3    H140441   1.871   5.036   4.764
13500TIP3    H240442   1.801   4.904   4.789
13501TIP3   OH240443   7.690   2.384   4.303
13501TIP3    H140444   7.774   2.430   4.311
13501TIP3    H240445   7.684   2.363   4.210
13502TIP3   OH240446   4.162   3.448   4.664
13502TIP3    H140447   4.094   3.389   4.695
13502TIP3    H240448   4.234   3.391   4.637
13503TIP3   OH240449   1.952   4.998   0.951
13503TIP3    H140450   1.903   5.027   0.874
13503TIP3    H240451   1.965   5.077   1.003
13504TIP3   OH240452   6.523   5.949   1.893
13504TIP3    H140453   6.578   5.914   1.823
13504TIP3    H240454   6.483   5.872   1.933
13505TIP3   OH240455   7.164   5.436   3.482
13505TIP3    H140456   7.239   5.491   3.458
13505TIP3    H240457   7.199   5.347   3.485
13506TIP3   OH240458   5.818   2.777   3.191
13506TIP3    H140459   5.733   2.798   3.152
13506TIP3    H240460   5.805   2.790   3.285
13507TIP3   OH240461   5.707   3.585   2.711
13507TIP3    H140462   5.677   3.628   2.792
13507TIP3    H240463   5.731   3.497   2.739
13508TIP3   OH240464   5.541   4.621   2.966
13508TIP3    H140465   5.507   4.586   2.884
13508TIP3    H240466   5.637   4.614   2.957
13509TIP3   OH240467   5.031   2.298   3.306
13509TIP3    H140468   5.018   2.274   3.214
13509TIP3    H240469   5.119   2.269   3.326
13510TIP3   OH240470   2.444   7.689   3.899
13510TIP3    H140471   2.388   7.611   3.903
13510TIP3    H240472   2.402   7.751   3.959
13511TIP3   OH240473   1.355   6.008   0.846
13511TIP3    H140474   1.397   6.008   0.760
13511TIP3    H240475   1.263   5.988   0.826
13512TIP3   OH240476   5.289   5.584   5.529
13512TIP3    H140477   5.346   5.659   5.545
13512TIP3    H240478   5.239   5.607   5.451
13513TIP3   OH240479   7.290   4.531   5.479
13513TIP3    H140480   7.340   4.579   5.545
13513TIP3    H240481   7.289   4.589   5.403
13514TIP3   OH240482   2.256   2.365   4.439
13514TIP3    H140483   2.238   2.401   4.352
13514TIP3    H240484   2.267   2.443   4.495
13515TIP3   OH240485   0.598   2.925   6.532
13515TIP3    H140486   0.529   2.971   6.484
13515TIP3    H240487   0.562   2.838   6.549
13516TIP3   OH240488   0.237   4.063   3.691
13516TIP3    H140489   0.284   3.981   3.708
13516TIP3    H240490   0.161   4.036   3.640
13517TIP3   OH240491   7.911   7.272   5.467
13517TIP3    H140492   7.906   7.363   5.496
13517TIP3    H240493   7.837   7.229   5.511
13518TIP3   OH240494   4.053   5.807   6.533
13518TIP3    H140495   3.989   5.875   6.514
13518TIP3    H240496   4.001   5.731   6.560
13519TIP3   OH240497   8.367   3.264   2.679
13519TIP3    H140498   8.301   3.309   2.731
13519TIP3    H240499   8.436   3.329   2.666
13520TIP3   OH240500   4.983   3.108   4.293
13520TIP3    H140501   4.974   3.191   4.339
13520TIP3    H240502   4.915   3.110   4.226
13521TIP3   OH240503   1.671   0.167   6.720
13521TIP3    H140504   1.619   0.247   6.729
13521TIP3    H240505   1.659   0.122   6.804
13522TIP3   OH240506   6.990   4.058   3.905
13522TIP3    H140507   6.978   3.964   3.894
13522TIP3    H240508   6.922   4.084   3.966
13523TIP3   OH240509   0.904   7.097   0.416
13523TIP3    H140510   0.931   7.111   0.507
13523TIP3    H240511   0.808   7.106   0.418
13524TIP3   OH240512   7.979   0.310   6.031
13524TIP3    H140513   7.965   0.242   6.097
13524TIP3    H240514   7.943   0.389   6.071
13525TIP3   OH240515   1.914   1.383   0.834
13525TIP3    H140516   1.954   1.298   0.815
13525TIP3    H240517   1.969   1.446   0.788
13526TIP3   OH240518   1.681   2.956   6.843
13526TIP3    H140519   1.633   2.936   6.762
13526TIP3    H240520   1.721   3.041   6.826
13527TIP3   OH240521   5.202   7.610   6.141
13527TIP3    H140522   5.229   7.525   6.106
13527TIP3    H240523   5.117   7.627   6.100
13528TIP3   OH240524   4.874   2.386   6.466
13528TIP3    H140525   4.911   2.321   6.406
13528TIP3    H240526   4.867   2.466   6.415
13529TIP3   OH240527   0.992   1.495   5.122
13529TIP3    H140528   1.026   1.408   5.141
13529TIP3    H240529   1.001   1.543   5.204
13530TIP3   OH240530   0.191   0.799   3.567
13530TIP3    H140531   0.139   0.871   3.603
13530TIP3    H240532   0.191   0.732   3.635
13531TIP3   OH240533   5.979   1.861   6.149
13531TIP3    H140534   6.014   1.916   6.078
13531TIP3    H240535   6.003   1.908   6.229
13532TIP3   OH240536   7.279   4.415   3.677
13532TIP3    H140537   7.299   4.404   3.770
13532TIP3    H240538   7.359   4.453   3.640
13533TIP3   OH240539   6.710   2.879   5.243
13533TIP3    H140540   6.791   2.930   5.243
13533TIP3    H240541   6.719   2.822   5.320
13534TIP3   OH240542   5.859   1.756   5.841
13534TIP3    H140543   5.955   1.758   5.840
13534TIP3    H240544   5.837   1.663   5.838
13535TIP3   OH240545   0.970   4.198   6.321
13535TIP3    H140546   1.052   4.155   6.345
13535TIP3    H240547   0.927   4.135   6.262
13536TIP3   OH240548   7.197   4.045   4.538
13536TIP3    H140549   7.156   4.118   4.584
13536TIP3    H240550   7.128   3.979   4.530
13537TIP3   OH240551   8.139   0.987   4.399
13537TIP3    H140552   8.158   0.989   4.493
13537TIP3    H240553   8.060   1.040   4.390
13538TIP3   OH240554   0.939   3.416   4.076
13538TIP3    H140555   0.982   3.332   4.091
13538TIP3    H240556   0.867   3.397   4.017
13539TIP3   OH240557   5.967   5.071   1.704
13539TIP3    H140558   5.985   5.164   1.717
13539TIP3    H240559   5.935   5.040   1.789
13540TIP3   OH240560   4.390   3.680   6.139
13540TIP3    H140561   4.318   3.656   6.081
13540TIP3    H240562   4.366   3.767   6.172
13541TIP3   OH240563   3.279   0.084   2.444
13541TIP3    H140564   3.324   0.045   2.368
13541TIP3    H240565   3.281   0.014   2.510
13542TIP3   OH240566   5.350   3.432   6.209
13542TIP3    H140567   5.385   3.392   6.288
13542TIP3    H240568   5.410   3.504   6.189
13543TIP3   OH240569   1.196   4.633   5.012
13543TIP3    H140570   1.211   4.574   4.939
13543TIP3    H240571   1.170   4.716   4.971
13544TIP3   OH240572   3.689   1.491   5.072
13544TIP3    H140573   3.680   1.402   5.039
13544TIP3    H240574   3.680   1.546   4.994
13545TIP3   OH240575   4.577   0.282   3.517
13545TIP3    H140576   4.553   0.241   3.434
13545TIP3    H240577   4.525   0.235   3.583
13546TIP3   OH240578   2.176   0.111   0.188
13546TIP3    H140579   2.106   0.047   0.177
13546TIP3    H240580   2.245   0.063   0.235
13547TIP3   OH240581   8.141   2.482   1.210
13547TIP3    H140582   8.055   2.441   1.221
13547TIP3    H240583   8.165   2.465   1.119
13548TIP3   OH240584   4.554   6.662   4.025
13548TIP3    H140585   4.618   6.650   3.955
13548TIP3    H240586   4.550   6.756   4.038
13549TIP3   OH240587   3.737   0.765   6.192
13549TIP3    H140588   3.734   0.835   6.127
13549TIP3    H240589   3.825   0.727   6.182
13550TIP3   OH240590   2.035   7.849   6.123
13550TIP3    H140591   1.980   7.772   6.110
13550TIP3    H240592   2.120   7.824   6.089
13551TIP3   OH240593   4.512   6.578   1.861
13551TIP3    H140594   4.558   6.541   1.936
13551TIP3    H240595   4.422   6.591   1.892
13552TIP3   OH240596   1.886   7.370   5.797
13552TIP3    H140597   1.862   7.452   5.754
13552TIP3    H240598   1.935   7.321   5.730
13553TIP3   OH240599   3.564   1.487   2.612
13553TIP3    H140600   3.486   1.435   2.596
13553TIP3    H240601   3.593   1.515   2.525
13554TIP3   OH240602   8.213   3.254   6.852
13554TIP3    H140603   8.226   3.348   6.837
13554TIP3    H240604   8.127   3.235   6.814
13555TIP3   OH240605   1.534   7.513   3.701
13555TIP3    H140606   1.507   7.597   3.738
13555TIP3    H240607   1.483   7.504   3.621
13556TIP3   OH240608   4.790   0.678   0.515
13556TIP3    H140609   4.844   0.676   0.436
13556TIP3    H240610   4.842   0.726   0.579
13557TIP3   OH240611   5.004   2.821   5.295
13557TIP3    H140612   5.038   2.766   5.365
13557TIP3    H240613   4.910   2.827   5.312
13558TIP3   OH240614   2.474   5.629   1.482
13558TIP3    H140615   2.552   5.609   1.533
13558TIP3    H240616   2.461   5.553   1.426
13559TIP3   OH240617   0.455   6.739   1.694
13559TIP3    H140618   0.422   6.808   1.752
13559TIP3    H240619   0.506   6.682   1.752
13560TIP3   OH240620   6.942   1.785   3.304
13560TIP3    H140621   6.895   1.863   3.334
13560TIP3    H240622   6.901   1.713   3.352
13561TIP3   OH240623   1.615   6.997   5.145
13561TIP3    H140624   1.695   6.967   5.188
13561TIP3    H240625   1.639   7.081   5.105
13562TIP3   OH240626   5.156   6.680   6.806
13562TIP3    H140627   5.142   6.761   6.855
13562TIP3    H240628   5.193   6.709   6.722
13563TIP3   OH240629   2.167   0.246   5.842
13563TIP3    H140630   2.125   0.332   5.834
13563TIP3    H240631   2.142   0.200   5.761
13564TIP3   OH240632   5.414   3.553   4.862
13564TIP3    H140633   5.405   3.573   4.955
13564TIP3    H240634   5.396   3.636   4.818
13565TIP3   OH240635   3.884   1.421   4.596
13565TIP3    H140636   3.861   1.510   4.621
13565TIP3    H240637   3.979   1.419   4.599
13566TIP3   OH240638   2.054   0.342   2.961
13566TIP3    H140639   2.093   0.302   3.039
13566TIP3    H240640   1.968   0.373   2.990
13567TIP3   OH240641   3.526   4.736   5.972
13567TIP3    H140642   3.466   4.721   6.046
13567TIP3    H240643   3.516   4.828   5.950
13568TIP3   OH240644   4.386   7.502   2.620
13568TIP3    H140645   4.458   7.441   2.625
13568TIP3    H240646   4.313   7.451   2.584
13569TIP3   OH240647   7.276   3.044   5.079
13569TIP3    H140648   7.329   2.975   5.118
13569TIP3    H240649   7.302   3.124   5.125
13570TIP3   OH240650   0.541   3.625   3.173
13570TIP3    H140651   0.631   3.607   3.199
13570TIP3    H240652   0.525   3.716   3.201
13571TIP3   OH240653   4.357   1.627   2.607
13571TIP3    H140654   4.307   1.598   2.683
13571TIP3    H240655   4.439   1.579   2.612
13572TIP3   OH240656   0.538   7.792   6.403
13572TIP3    H140657   0.479   7.752   6.467
13572TIP3    H240658   0.483   7.812   6.328
13573TIP3   OH240659   3.280   4.488   4.784
13573TIP3    H140660   3.327   4.487   4.867
13573TIP3    H240661   3.245   4.399   4.775
13574TIP3   OH240662   4.065   6.209   5.308
13574TIP3    H140663   4.079   6.199   5.402
13574TIP3    H240664   4.139   6.162   5.268
13575TIP3   OH240665   7.175   7.667   0.634
13575TIP3    H140666   7.270   7.677   0.647
13575TIP3    H240667   7.166   7.643   0.542
13576TIP3   OH240668   1.755   6.179   4.785
13576TIP3    H140669   1.706   6.150   4.861
13576TIP3    H240670   1.824   6.113   4.775
13577TIP3   OH240671   5.751   3.316   2.869
13577TIP3    H140672   5.788   3.266   2.797
13577TIP3    H240673   5.686   3.258   2.908
13578TIP3   OH240674   6.874   7.686   3.185
13578TIP3    H140675   6.852   7.665   3.094
13578TIP3    H240676   6.931   7.763   3.178
13579TIP3   OH240677   2.412   1.608   1.088
13579TIP3    H140678   2.467   1.680   1.057
13579TIP3    H240679   2.339   1.651   1.132
13580TIP3   OH240680   0.659   0.143   2.587
13580TIP3    H140681   0.629   0.193   2.512
13580TIP3    H240682   0.693   0.208   2.648
13581TIP3   OH240683   1.453   4.779   3.478
13581TIP3    H140684   1.479   4.866   3.449
13581TIP3    H240685   1.531   4.743   3.520
13582TIP3   OH240686   5.272   7.319   1.592
13582TIP3    H140687   5.243   7.408   1.612
13582TIP3    H240688   5.336   7.330   1.522
13583TIP3   OH240689   0.314   2.545   0.363
13583TIP3    H140690   0.320   2.494   0.444
13583TIP3    H240691   0.313   2.636   0.393
13584TIP3   OH240692   2.822   1.931   2.730
13584TIP3    H140693   2.770   1.967   2.802
13584TIP3    H240694   2.855   2.008   2.684
13585TIP3   OH240695   6.433   1.960   5.818
13585TIP3    H140696   6.349   1.998   5.792
13585TIP3    H240697   6.447   1.990   5.908
13586TIP3   OH240698   7.873   1.786   2.536
13586TIP3    H140699   7.957   1.741   2.547
13586TIP3    H240700   7.807   1.717   2.544
13587TIP3   OH240701   2.922   1.669   3.407
13587TIP3    H140702   2.939   1.575   3.402
13587TIP3    H240703   2.971   1.705   3.333
13588TIP3   OH240704   7.986   5.213   3.722
13588TIP3    H140705   8.006   5.184   3.633
13588TIP3    H240706   7.911   5.272   3.712
13589TIP3   OH240707   4.322   2.045   1.614
13589TIP3    H140708   4.387   1.983   1.650
13589TIP3    H240709   4.372   2.125   1.599
13590TIP3   OH240710   5.889   0.834   0.912
13590TIP3    H140711   5.813   0.793   0.871
13590TIP3    H240712   5.932   0.882   0.842
13591TIP3   OH240713   7.309   3.171   3.892
13591TIP3    H140714   7.272   3.258   3.876
13591TIP3    H240715   7.232   3.114   3.899
13592TIP3   OH240716   6.868   5.539   6.510
13592TIP3    H140717   6.960   5.562   6.502
13592TIP3    H240718   6.830   5.562   6.426
13593TIP3   OH240719   0.924   1.879   6.219
13593TIP3    H140720   1.015   1.896   6.193
13593TIP3    H240721   0.885   1.835   6.143
13594TIP3   OH240722   5.644   6.222   5.788
13594TIP3    H140723   5.604   6.193   5.706
13594TIP3    H240724   5.575   6.210   5.853
13595TIP3   OH240725   4.841   0.108   4.895
13595TIP3    H140726   4.858   0.108   4.989
13595TIP3    H240727   4.812   0.019   4.876
13596TIP3   OH240728   0.098   7.868   4.346
13596TIP3    H140729   0.188   7.839   4.333
13596TIP3    H240730   0.106   7.958   4.378
13597TIP3   OH240731   7.535   3.886   4.189
13597TIP3    H140732   7.518   3.929   4.105
13597TIP3    H240733   7.585   3.951   4.238
13598TIP3   OH240734   7.889   3.087   3.792
13598TIP3    H140735   7.863   3.047   3.709
13598TIP3    H240736   7.837   3.167   3.799
13599TIP3   OH240737   2.121   4.973   1.563
13599TIP3    H140738   2.184   4.932   1.504
13599TIP3    H240739   2.052   5.006   1.506
13600TIP3   OH240740   8.308   7.424   3.266
13600TIP3    H140741   8.292   7.336   3.302
13600TIP3    H240742   8.273   7.419   3.177
13601TIP3   OH240743   7.810   3.083   6.519
13601TIP3    H140744   7.717   3.107   6.520
13601TIP3    H240745   7.839   3.101   6.429
13602TIP3   OH240746   1.123   3.324   5.415
13602TIP3    H140747   1.168   3.242   5.434
13602TIP3    H240748   1.050   3.327   5.477
13603TIP3   OH240749   6.909   0.704   4.678
13603TIP3    H140750   6.912   0.699   4.583
13603TIP3    H240751   6.902   0.614   4.707
13604TIP3   OH240752   5.545   5.001   5.113
13604TIP3    H140753   5.615   5.009   5.178
13604TIP3    H240754   5.524   4.907   5.113
13605TIP3   OH240755   7.880   0.375   2.123
13605TIP3    H140756   7.830   0.451   2.151
13605TIP3    H240757   7.845   0.303   2.176
13606TIP3   OH240758   5.610   7.541   0.794
13606TIP3    H140759   5.585   7.455   0.761
13606TIP3    H240760   5.570   7.546   0.880
13607TIP3   OH240761   1.679   6.050   3.427
13607TIP3    H140762   1.598   6.053   3.478
13607TIP3    H240763   1.653   6.010   3.344
13608TIP3   OH240764   0.317   1.481   3.291
13608TIP3    H140765   0.245   1.543   3.280
13608TIP3    H240766   0.298   1.435   3.373
13609TIP3   OH240767   2.667   3.239   3.262
13609TIP3    H140768   2.743   3.260   3.317
13609TIP3    H240769   2.592   3.257   3.317
13610TIP3   OH240770   4.477   6.872   6.318
13610TIP3    H140771   4.455   6.936   6.385
13610TIP3    H240772   4.409   6.805   6.325
13611TIP3   OH240773   3.079   4.511   5.351
13611TIP3    H140774   2.991   4.475   5.360
13611TIP3    H240775   3.113   4.469   5.272
13612TIP3   OH240776   0.834   4.294   1.169
13612TIP3    H140777   0.794   4.220   1.124
13612TIP3    H240778   0.874   4.346   1.099
13613TIP3   OH240779   1.232   4.229   3.907
13613TIP3    H140780   1.215   4.145   3.865
13613TIP3    H240781   1.327   4.241   3.900
13614TIP3   OH240782   1.603   3.903   4.666
13614TIP3    H140783   1.673   3.840   4.651
13614TIP3    H240784   1.647   3.980   4.703
13615TIP3   OH240785   6.262   6.679   3.573
13615TIP3    H140786   6.168   6.676   3.557
13615TIP3    H240787   6.270   6.709   3.663
13616TIP3   OH240788   6.160   7.572   3.055
13616TIP3    H140789   6.224   7.521   3.105
13616TIP3    H240790   6.178   7.663   3.080
13617TIP3   OH240791   7.962   5.427   0.073
13617TIP3    H140792   7.884   5.378   0.099
13617TIP3    H240793   8.033   5.384   0.120
13618TIP3   OH240794   7.292   7.519   4.577
13618TIP3    H140795   7.357   7.559   4.520
13618TIP3    H240796   7.245   7.457   4.521
13619TIP3   OH240797   4.083   4.717   2.364
13619TIP3    H140798   4.134   4.697   2.443
13619TIP3    H240799   4.093   4.811   2.353
13620TIP3   OH240800   8.102   7.674   6.104
13620TIP3    H140801   8.045   7.752   6.107
13620TIP3    H240802   8.171   7.693   6.168
13621TIP3   OH240803   4.874   5.837   3.184
13621TIP3    H140804   4.968   5.843   3.200
13621TIP3    H240805   4.854   5.914   3.130
13622TIP3   OH240806   3.186   2.432   5.018
13622TIP3    H140807   3.162   2.490   4.946
13622TIP3    H240808   3.167   2.483   5.097
13623TIP3   OH240809   2.513   4.930   2.636
13623TIP3    H140810   2.502   4.836   2.624
13623TIP3    H240811   2.506   4.967   2.548
13624TIP3   OH240812   3.562   6.614   5.496
13624TIP3    H140813   3.470   6.637   5.507
13624TIP3    H240814   3.565   6.519   5.505
13625TIP3   OH240815   2.647   7.364   2.559
13625TIP3    H140816   2.720   7.390   2.502
13625TIP3    H240817   2.638   7.270   2.544
13626TIP3   OH240818   5.368   7.747   0.430
13626TIP3    H140819   5.320   7.774   0.351
13626TIP3    H240820   5.449   7.798   0.428
13627TIP3   OH240821   6.677   6.549   4.406
13627TIP3    H140822   6.728   6.484   4.455
13627TIP3    H240823   6.700   6.534   4.314
13628TIP3   OH240824   3.061   5.502   2.781
13628TIP3    H140825   3.117   5.437   2.739
13628TIP3    H240826   2.986   5.452   2.813
13629TIP3   OH240827   3.093   6.315   3.665
13629TIP3    H140828   3.182   6.295   3.693
13629TIP3    H240829   3.074   6.401   3.702
13630TIP3   OH240830   3.506   2.722   4.199
13630TIP3    H140831   3.570   2.669   4.247
13630TIP3    H240832   3.449   2.758   4.267
13631TIP3   OH240833   1.830   5.890   3.001
13631TIP3    H140834   1.841   5.956   2.932
13631TIP3    H240835   1.913   5.892   3.049
13632TIP3   OH240836   3.073   6.943   3.539
13632TIP3    H140837   3.101   6.907   3.455
13632TIP3    H240838   3.111   7.031   3.541
13633TIP3   OH240839   7.580   5.571   6.707
13633TIP3    H140840   7.544   5.493   6.664
13633TIP3    H240841   7.504   5.615   6.745
13634TIP3   OH240842   1.047   0.813   1.613
13634TIP3    H140843   1.082   0.828   1.701
13634TIP3    H240844   0.952   0.819   1.624
13635TIP3   OH240845   4.446   0.800   6.738
13635TIP3    H140846   4.356   0.830   6.746
13635TIP3    H240847   4.455   0.731   6.804
13636TIP3   OH240848   0.950   5.118   3.946
13636TIP3    H140849   1.010   5.121   3.871
13636TIP3    H240850   0.987   5.180   4.009
13637TIP3   OH240851   5.633   7.236   6.521
13637TIP3    H140852   5.618   7.154   6.474
13637TIP3    H240853   5.647   7.209   6.612
13638TIP3   OH240854   6.189   0.007   5.043
13638TIP3    H140855   6.148   0.023   5.128
13638TIP3    H240856   6.212   0.093   5.011
13639TIP3   OH240857   6.587   4.992   0.561
13639TIP3    H140858   6.620   4.915   0.515
13639TIP3    H240859   6.624   4.985   0.649
13640TIP3   OH240860   4.651   6.552   5.915
13640TIP3    H140861   4.731   6.506   5.892
13640TIP3    H240862   4.656   6.563   6.010
13641TIP3   OH240863   6.776   6.902   3.901
13641TIP3    H140864   6.845   6.938   3.957
13641TIP3    H240865   6.711   6.972   3.896
13642TIP3   OH240866   0.577   7.473   0.270
13642TIP3    H140867   0.531   7.460   0.353
13642TIP3    H240868   0.665   7.439   0.286
13643TIP3   OH240869   0.890   2.820   6.733
13643TIP3    H140870   0.880   2.817   6.637
13643TIP3    H240871   0.953   2.750   6.752
13644TIP3   OH240872   7.270   5.436   4.298
13644TIP3    H140873   7.240   5.348   4.320
13644TIP3    H240874   7.211   5.494   4.346
13645TIP3   OH240875   5.055   2.795   3.779
13645TIP3    H140876   5.124   2.759   3.836
13645TIP3    H240877   5.043   2.729   3.711
13646TIP3   OH240878   1.768   0.877   0.361
13646TIP3    H140879   1.818   0.863   0.442
13646TIP3    H240880   1.821   0.836   0.293
13647TIP3   OH240881   6.674   7.649   3.385
13647TIP3    H140882   6.704   7.676   3.298
13647TIP3    H240883   6.740   7.586   3.414
13648TIP3   OH240884   1.511   7.677   3.148
13648TIP3    H140885   1.476   7.747   3.094
13648TIP3    H240886   1.439   7.652   3.205
13649TIP3   OH240887   3.069   2.120   4.398
13649TIP3    H140888   3.135   2.163   4.344
13649TIP3    H240889   3.015   2.192   4.431
13650TIP3   OH240890   6.099   3.010   3.064
13650TIP3    H140891   6.164   2.945   3.037
13650TIP3    H240892   6.042   3.020   2.988
13651TIP3   OH240893   0.222   1.575   1.340
13651TIP3    H140894   0.254   1.539   1.423
13651TIP3    H240895   0.128   1.589   1.355
13652TIP3   OH240896   4.519   0.913   0.849
13652TIP3    H140897   4.596   0.873   0.889
13652TIP3    H240898   4.499   0.857   0.774
13653TIP3   OH240899   7.282   4.942   4.423
13653TIP3    H140900   7.357   4.884   4.423
13653TIP3    H240901   7.207   4.885   4.408
13654TIP3   OH240902   6.517   1.462   6.329
13654TIP3    H140903   6.579   1.467   6.402
13654TIP3    H240904   6.435   1.497   6.364
13655TIP3   OH240905   7.305   2.616   5.220
13655TIP3    H140906   7.273   2.608   5.310
13655TIP3    H240907   7.300   2.528   5.184
13656TIP3   OH240908   5.475   2.742   4.273
13656TIP3    H140909   5.402   2.680   4.272
13656TIP3    H240910   5.471   2.782   4.359
13657TIP3   OH240911   3.062   0.264   4.423
13657TIP3    H140912   3.021   0.303   4.500
13657TIP3    H240913   3.010   0.296   4.350
13658TIP3   OH240914   7.863   0.178   0.619
13658TIP3    H140915   7.923   0.178   0.545
13658TIP3    H240916   7.918   0.156   0.694
13659TIP3   OH240917   7.657   5.455   4.690
13659TIP3    H140918   7.699   5.371   4.671
13659TIP3    H240919   7.714   5.497   4.754
13660TIP3   OH240920   3.702   4.270   6.515
13660TIP3    H140921   3.739   4.183   6.503
13660TIP3    H240922   3.748   4.305   6.592
13661TIP3   OH240923   5.698   1.137   3.452
13661TIP3    H140924   5.603   1.141   3.445
13661TIP3    H240925   5.716   1.133   3.546
13662TIP3   OH240926   6.754   7.128   4.195
13662TIP3    H140927   6.670   7.127   4.150
13662TIP3    H240928   6.816   7.159   4.129
13663TIP3   OH240929   2.220   1.734   2.246
13663TIP3    H140930   2.164   1.773   2.313
13663TIP3    H240931   2.158   1.700   2.181
13664TIP3   OH240932   2.772   5.783   4.429
13664TIP3    H140933   2.717   5.768   4.505
13664TIP3    H240934   2.853   5.821   4.464
13665TIP3   OH240935   1.350   0.324   1.731
13665TIP3    H140936   1.408   0.266   1.682
13665TIP3    H240937   1.262   0.294   1.709
13666TIP3   OH240938   3.925   5.632   4.273
13666TIP3    H140939   3.937   5.724   4.294
13666TIP3    H240940   3.873   5.597   4.346
13667TIP3   OH240941   5.315   7.353   6.046
13667TIP3    H140942   5.334   7.289   5.977
13667TIP3    H240943   5.392   7.349   6.104
13668TIP3   OH240944   4.967   4.079   3.920
13668TIP3    H140945   5.035   4.145   3.931
13668TIP3    H240946   5.000   4.021   3.851
13669TIP3   OH240947   2.612   1.189   6.545
13669TIP3    H140948   2.636   1.194   6.638
13669TIP3    H240949   2.518   1.172   6.545
13670TIP3   OH240950   2.928   6.260   0.588
13670TIP3    H140951   2.940   6.181   0.641
13670TIP3    H240952   2.833   6.266   0.577
13671TIP3   OH240953   1.932   1.824   0.980
13671TIP3    H140954   1.921   1.826   1.075
13671TIP3    H240955   2.025   1.845   0.966
13672TIP3   OH240956   4.074   2.838   0.230
13672TIP3    H140957   4.089   2.745   0.210
13672TIP3    H240958   4.155   2.866   0.272
13673TIP3   OH240959   6.021   4.400   6.374
13673TIP3    H140960   5.989   4.467   6.435
13673TIP3    H240961   6.112   4.425   6.357
13674TIP3   OH240962   2.356   6.793   5.123
13674TIP3    H140963   2.404   6.780   5.042
13674TIP3    H240964   2.315   6.879   5.113
13675TIP3   OH240965   8.113   1.644   2.559
13675TIP3    H140966   8.165   1.680   2.631
13675TIP3    H240967   8.178   1.610   2.498
13676TIP3   OH240968   2.498   1.605   2.588
13676TIP3    H140969   2.507   1.538   2.656
13676TIP3    H240970   2.583   1.650   2.588
13677TIP3   OH240971   4.965   1.234   3.530
13677TIP3    H140972   4.995   1.205   3.444
13677TIP3    H240973   5.032   1.296   3.559
13678TIP3   OH240974   2.879   1.620   1.936
13678TIP3    H140975   2.834   1.565   2.000
13678TIP3    H240976   2.834   1.704   1.942
13679TIP3   OH240977   4.841   2.296   1.649
13679TIP3    H140978   4.762   2.267   1.694
13679TIP3    H240979   4.825   2.274   1.557
13680TIP3   OH240980   0.371   2.826   4.534
13680TIP3    H140981   0.401   2.913   4.509
13680TIP3    H240982   0.275   2.831   4.530
13681TIP3   OH240983   3.467   7.729   1.349
13681TIP3    H140984   3.476   7.824   1.336
13681TIP3    H240985   3.551   7.694   1.318
13682TIP3   OH240986   6.771   6.326   1.308
13682TIP3    H140987   6.812   6.258   1.254
13682TIP3    H240988   6.843   6.382   1.336
13683TIP3   OH240989   2.007   6.437   2.088
13683TIP3    H140990   2.099   6.459   2.101
13683TIP3    H240991   2.001   6.410   1.997
13684TIP3   OH240992   7.473   5.906   5.188
13684TIP3    H140993   7.500   5.872   5.274
13684TIP3    H240994   7.427   5.987   5.207
13685TIP3   OH240995   1.075   5.695   1.103
13685TIP3    H140996   1.025   5.706   1.023
13685TIP3    H240997   1.078   5.782   1.142
13686TIP3   OH240998   6.028   3.923   2.046
13686TIP3    H140999   6.101   3.950   1.990
13686TIP3    H241000   6.011   4.000   2.101
13687TIP3   OH241001   0.632   5.530   3.611
13687TIP3    H141002   0.627   5.507   3.704
13687TIP3    H241003   0.684   5.611   3.611
13688TIP3   OH241004   7.882   0.057   1.043
13688TIP3    H141005   7.977   0.058   1.052
13688TIP3    H241006   7.859   0.147   1.020
13689TIP3   OH241007   4.973   2.733   6.700
13689TIP3    H141008   4.958   2.640   6.680
13689TIP3    H241009   4.989   2.774   6.615
13690TIP3   OH241010   4.540   3.992   1.198
13690TIP3    H141011   4.498   4.059   1.252
13690TIP3    H241012   4.602   3.949   1.257
13691TIP3   OH241013   5.918   6.523   4.759
13691TIP3    H141014   5.866   6.462   4.706
13691TIP3    H241015   5.912   6.606   4.713
13692TIP3   OH241016   1.208   5.207   3.705
13692TIP3    H141017   1.249   5.291   3.686
13692TIP3    H241018   1.245   5.147   3.641
13693TIP3   OH241019   3.598   6.465   3.556
13693TIP3    H141020   3.604   6.391   3.496
13693TIP3    H241021   3.658   6.530   3.520
13694TIP3   OH241022   6.254   2.643   4.140
13694TIP3    H141023   6.348   2.630   4.153
13694TIP3    H241024   6.212   2.579   4.198
13695TIP3   OH241025   1.529   0.086   4.638
13695TIP3    H141026   1.558   0.108   4.550
13695TIP3    H241027   1.575   0.148   4.695
13696TIP3   OH241028   0.330   1.624   5.457
13696TIP3    H141029   0.280   1.614   5.375
13696TIP3    H241030   0.384   1.546   5.462
13697TIP3   OH241031   7.401   6.189   2.972
13697TIP3    H141032   7.421   6.122   2.907
13697TIP3    H241033   7.483   6.237   2.982
13698TIP3   OH241034   4.585   1.354   6.385
13698TIP3    H141035   4.612   1.310   6.304
13698TIP3    H241036   4.524   1.422   6.357
13699TIP3   OH241037   3.751   1.026   4.906
13699TIP3    H141038   3.662   1.008   4.877
13699TIP3    H241039   3.781   0.944   4.944
13700TIP3   OH241040   0.740   1.752   2.072
13700TIP3    H141041   0.835   1.743   2.059
13700TIP3    H241042   0.717   1.833   2.025
13701TIP3   OH241043   6.302   2.739   3.141
13701TIP3    H141044   6.214   2.736   3.104
13701TIP3    H241045   6.357   2.774   3.071
13702TIP3   OH241046   3.629   4.947   1.375
13702TIP3    H141047   3.552   4.974   1.324
13702TIP3    H241048   3.600   4.952   1.466
13703TIP3   OH241049   7.246   6.351   3.360
13703TIP3    H141050   7.214   6.265   3.331
13703TIP3    H241051   7.331   6.332   3.401
13704TIP3   OH241052   0.745   2.115   5.832
13704TIP3    H141053   0.687   2.078   5.898
13704TIP3    H241054   0.693   2.115   5.751
13705TIP3   OH241055   0.417   0.397   0.650
13705TIP3    H141056   0.489   0.395   0.713
13705TIP3    H241057   0.443   0.335   0.582
13706TIP3   OH241058   7.072   6.845   2.940
13706TIP3    H141059   7.106   6.934   2.929
13706TIP3    H241060   7.015   6.850   3.017
13707TIP3   OH241061   1.891   2.147   2.251
13707TIP3    H141062   1.898   2.187   2.164
13707TIP3    H241063   1.803   2.109   2.253
13708TIP3   OH241064   0.208   1.712   3.575
13708TIP3    H141065   0.237   1.795   3.612
13708TIP3    H241066   0.272   1.691   3.508
13709TIP3   OH241067   7.996   0.135   1.600
13709TIP3    H141068   8.083   0.095   1.603
13709TIP3    H241069   7.936   0.061   1.599
13710TIP3   OH241070   2.723   6.003   4.658
13710TIP3    H141071   2.797   6.062   4.646
13710TIP3    H241072   2.747   5.949   4.733
13711TIP3   OH241073   2.145   0.920   5.866
13711TIP3    H141074   2.116   0.830   5.850
13711TIP3    H241075   2.089   0.973   5.810
13712TIP3   OH241076   8.143   1.696   5.950
13712TIP3    H141077   8.122   1.777   5.902
13712TIP3    H241078   8.182   1.727   6.032
13713TIP3   OH241079   0.130   1.277   4.508
13713TIP3    H141080   0.150   1.209   4.572
13713TIP3    H241081   0.097   1.350   4.560
13714TIP3   OH241082   1.058   5.949   3.882
13714TIP3    H141083   1.034   5.978   3.970
13714TIP3    H241084   1.011   5.866   3.871
13715TIP3   OH241085   2.801   2.613   2.980
13715TIP3    H141086   2.726   2.669   3.000
13715TIP3    H241087   2.818   2.628   2.888
13716TIP3   OH241088   2.092   6.631   0.494
13716TIP3    H141089   2.118   6.702   0.553
13716TIP3    H241090   2.158   6.562   0.509
13717TIP3   OH241091   0.416   6.908   0.852
13717TIP3    H141092   0.498   6.954   0.836
13717TIP3    H241093   0.353   6.976   0.876
13718TIP3   OH241094   2.108   1.510   0.365
13718TIP3    H141095   2.095   1.597   0.327
13718TIP3    H241096   2.110   1.451   0.289
13719TIP3   OH241097   2.419   4.756   6.592
13719TIP3    H141098   2.344   4.814   6.582
13719TIP3    H241099   2.488   4.797   6.540
13720TIP3   OH241100   5.905   6.239   0.226
13720TIP3    H141101   5.846   6.187   0.171
13720TIP3    H241102   5.954   6.293   0.165
13721TIP3   OH241103   1.953   3.947   4.600
13721TIP3    H141104   1.935   3.858   4.629
13721TIP3    H241105   1.895   3.959   4.525
13722TIP3   OH241106   6.480   7.450   0.872
13722TIP3    H141107   6.487   7.508   0.948
13722TIP3    H241108   6.567   7.451   0.833
13723TIP3   OH241109   6.046   6.261   2.830
13723TIP3    H141110   6.110   6.323   2.796
13723TIP3    H241111   6.085   6.175   2.813
13724TIP3   OH241112   5.772   5.009   1.058
13724TIP3    H141113   5.794   5.042   0.971
13724TIP3    H241114   5.787   5.084   1.116
13725TIP3   OH241115   0.813   0.044   1.056
13725TIP3    H141116   0.753  -0.025   1.027
13725TIP3    H241117   0.900   0.004   1.049
13726TIP3   OH241118   0.484   7.200   2.652
13726TIP3    H141119   0.389   7.215   2.654
13726TIP3    H241120   0.504   7.187   2.560
13727TIP3   OH241121   5.102   2.159   0.057
13727TIP3    H141122   5.011   2.130   0.054
13727TIP3    H241123   5.100   2.247   0.018
13728TIP3   OH241124   6.708   5.305   2.862
13728TIP3    H141125   6.713   5.295   2.957
13728TIP3    H241126   6.723   5.399   2.847
13729TIP3   OH241127   0.304   1.393   2.721
13729TIP3    H141128   0.230   1.381   2.780
13729TIP3    H241129   0.381   1.376   2.774
13730TIP3   OH241130   0.949   1.215   0.296
13730TIP3    H141131   1.043   1.213   0.316
13730TIP3    H241132   0.911   1.147   0.351
13731TIP3   OH241133   5.814   1.655   6.274
13731TIP3    H141134   5.729   1.644   6.231
13731TIP3    H241135   5.865   1.709   6.214
13732TIP3   OH241136   3.465   1.349   0.474
13732TIP3    H141137   3.470   1.257   0.497
13732TIP3    H241138   3.451   1.350   0.379
13733TIP3   OH241139   0.487   3.200   2.059
13733TIP3    H141140   0.403   3.223   2.098
13733TIP3    H241141   0.541   3.278   2.070
13734TIP3   OH241142   6.700   0.359   6.593
13734TIP3    H141143   6.618   0.387   6.552
13734TIP3    H241144   6.732   0.288   6.537
13735TIP3   OH241145   0.158   3.421   2.886
13735TIP3    H141146   0.223   3.461   2.944
13735TIP3    H241147   0.108   3.363   2.943
13736TIP3   OH241148   8.216   5.044   4.369
13736TIP3    H141149   8.184   4.960   4.337
13736TIP3    H241150   8.203   5.104   4.295
13737TIP3   OH241151   7.094   5.813   3.607
13737TIP3    H141152   7.155   5.740   3.611
13737TIP3    H241153   7.123   5.865   3.532
13738TIP3   OH241154   3.191   1.994   1.918
13738TIP3    H141155   3.231   2.041   1.845
13738TIP3    H241156   3.147   2.063   1.969
13739TIP3   OH241157   0.349   0.234   0.062
13739TIP3    H141158   0.376   0.314   0.017
13739TIP3    H241159   0.346   0.258   0.154
13740TIP3   OH241160   0.775   2.897   3.020
13740TIP3    H141161   0.770   2.809   3.058
13740TIP3    H241162   0.740   2.886   2.932
13741TIP3   OH241163   1.037   4.441   2.270
13741TIP3    H141164   1.102   4.412   2.206
13741TIP3    H241165   1.054   4.534   2.281
13742TIP3   OH241166   7.183   4.781   4.877
13742TIP3    H141167   7.197   4.847   4.945
13742TIP3    H241168   7.258   4.791   4.818
13743TIP3   OH241169   2.355   6.782   1.019
13743TIP3    H141170   2.450   6.772   1.024
13743TIP3    H241171   2.325   6.707   0.969
13744TIP3   OH241172   1.447   5.711   0.858
13744TIP3    H141173   1.422   5.797   0.826
13744TIP3    H241174   1.392   5.698   0.936
13745TIP3   OH241175   3.396   6.323   3.746
13745TIP3    H141176   3.436   6.373   3.817
13745TIP3    H241177   3.456   6.334   3.673
13746TIP3   OH241178   1.887   3.844   1.461
13746TIP3    H141179   1.828   3.840   1.386
13746TIP3    H241180   1.974   3.828   1.424
13747TIP3   OH241181   7.652   4.031   3.285
13747TIP3    H141182   7.716   3.972   3.245
13747TIP3    H241183   7.690   4.052   3.371
13748TIP3   OH241184   8.369   3.303   6.541
13748TIP3    H141185   8.349   3.374   6.480
13748TIP3    H241186   8.422   3.344   6.609
13749TIP3   OH241187   6.675   3.935   0.388
13749TIP3    H141188   6.708   3.888   0.465
13749TIP3    H241189   6.624   3.869   0.340
13750TIP3   OH241190   2.352   2.327   2.246
13750TIP3    H141191   2.408   2.288   2.179
13750TIP3    H241192   2.366   2.274   2.324
13751TIP3   OH241193   6.317   3.978   0.120
13751TIP3    H141194   6.224   3.978   0.099
13751TIP3    H241195   6.357   4.033   0.052
13752TIP3   OH241196   2.317   1.870   1.531
13752TIP3    H141197   2.406   1.846   1.506
13752TIP3    H241198   2.265   1.792   1.511
13753TIP3   OH241199   2.070   6.726   5.758
13753TIP3    H141200   2.120   6.645   5.770
13753TIP3    H241201   2.108   6.767   5.681
13754TIP3   OH241202   4.305   1.831   2.421
13754TIP3    H141203   4.291   1.750   2.470
13754TIP3    H241204   4.216   1.865   2.406
13755TIP3   OH241205   6.201   5.024   5.953
13755TIP3    H141206   6.232   5.068   6.033
13755TIP3    H241207   6.118   4.984   5.979
13756TIP3   OH241208   7.054   3.803   4.111
13756TIP3    H141209   7.040   3.772   4.200
13756TIP3    H241210   7.050   3.898   4.117
13757TIP3   OH241211   6.878   7.414   3.614
13757TIP3    H141212   6.810   7.389   3.677
13757TIP3    H241213   6.867   7.508   3.603
13758TIP3   OH241214   7.723   7.240   5.263
13758TIP3    H141215   7.770   7.237   5.180
13758TIP3    H241216   7.788   7.269   5.327
13759TIP3   OH241217   1.947   2.214   3.152
13759TIP3    H141218   1.981   2.272   3.084
13759TIP3    H241219   1.972   2.126   3.125
13760TIP3   OH241220   3.377   4.921   3.660
13760TIP3    H141221   3.424   4.898   3.740
13760TIP3    H241222   3.416   5.004   3.632
13761TIP3   OH241223   5.740   2.812   3.482
13761TIP3    H141224   5.736   2.717   3.492
13761TIP3    H241225   5.833   2.833   3.492
13762TIP3   OH241226   5.163   0.331   4.941
13762TIP3    H141227   5.254   0.307   4.924
13762TIP3    H241228   5.115   0.300   4.865
13763TIP3   OH241229   6.209   5.191   5.566
13763TIP3    H141230   6.200   5.171   5.473
13763TIP3    H241231   6.158   5.123   5.610
13764TIP3   OH241232   1.772   3.534   4.964
13764TIP3    H141233   1.816   3.618   4.952
13764TIP3    H241234   1.709   3.550   5.035
13765TIP3   OH241235   7.033   1.038   2.307
13765TIP3    H141236   7.051   1.068   2.397
13765TIP3    H241237   7.094   1.088   2.253
13766TIP3   OH241238   2.233   6.090   4.837
13766TIP3    H141239   2.267   6.046   4.759
13766TIP3    H241240   2.309   6.137   4.872
13767TIP3   OH241241   4.422   6.089   3.693
13767TIP3    H141242   4.419   6.013   3.635
13767TIP3    H241243   4.510   6.124   3.682
13768TIP3   OH241244   5.530   0.109   0.346
13768TIP3    H141245   5.566   0.106   0.257
13768TIP3    H241246   5.505   0.019   0.365
13769TIP3   OH241247   4.619   4.578   4.428
13769TIP3    H141248   4.646   4.640   4.495
13769TIP3    H241249   4.670   4.499   4.447
13770TIP3   OH241250   2.439   3.405   5.350
13770TIP3    H141251   2.451   3.335   5.414
13770TIP3    H241252   2.359   3.450   5.378
13771TIP3   OH241253   0.983   4.375   5.462
13771TIP3    H141254   1.047   4.416   5.405
13771TIP3    H241255   0.997   4.281   5.452
13772TIP3   OH241256   3.581   3.418   2.604
13772TIP3    H141257   3.549   3.330   2.625
13772TIP3    H241258   3.568   3.467   2.685
13773TIP3   OH241259   1.062   5.022   1.478
13773TIP3    H141260   1.122   4.979   1.418
13773TIP3    H241261   1.096   5.001   1.565
13774TIP3   OH241262   5.265   0.176   2.176
13774TIP3    H141263   5.260   0.238   2.103
13774TIP3    H241264   5.230   0.224   2.251
13775TIP3   OH241265   7.959   3.814   2.066
13775TIP3    H141266   8.040   3.845   2.106
13775TIP3    H241267   7.988   3.764   1.990
13776TIP3   OH241268   6.215   2.326  -0.016
13776TIP3    H141269   6.213   2.321   0.080
13776TIP3    H241270   6.126   2.305  -0.043
13777TIP3   OH241271   1.288   2.665   2.798
13777TIP3    H141272   1.347   2.720   2.747
13777TIP3    H241273   1.319   2.673   2.888
13778TIP3   OH241274   4.485   4.928   5.416
13778TIP3    H141275   4.579   4.920   5.401
13778TIP3    H241276   4.477   4.994   5.485
13779TIP3   OH241277   0.941   7.419   2.940
13779TIP3    H141278   0.970   7.353   2.877
13779TIP3    H241279   0.847   7.403   2.948
13780TIP3   OH241280   8.286   2.975   1.044
13780TIP3    H141281   8.202   2.984   0.999
13780TIP3    H241282   8.343   2.932   0.980
13781TIP3   OH241283   7.430   5.022   0.565
13781TIP3    H141284   7.496   4.967   0.522
13781TIP3    H241285   7.380   4.961   0.620
13782TIP3   OH241286   2.309   2.629   1.642
13782TIP3    H141287   2.286   2.686   1.569
13782TIP3    H241288   2.341   2.689   1.710
13783TIP3   OH241289   3.669   4.212   0.397
13783TIP3    H141290   3.578   4.231   0.376
13783TIP3    H241291   3.711   4.298   0.400
13784TIP3   OH241292   5.248   3.773   0.942
13784TIP3    H141293   5.155   3.798   0.938
13784TIP3    H241294   5.295   3.857   0.946
13785TIP3   OH241295   4.186   5.494   2.622
13785TIP3    H141296   4.207   5.402   2.604
13785TIP3    H241297   4.265   5.528   2.665
13786TIP3   OH241298   3.727   7.377   3.998
13786TIP3    H141299   3.682   7.425   3.929
13786TIP3    H241300   3.784   7.316   3.952
13787TIP3   OH241301   5.885   5.137   3.882
13787TIP3    H141302   5.795   5.167   3.867
13787TIP3    H241303   5.888   5.118   3.976
13788TIP3   OH241304   2.343   5.663   4.405
13788TIP3    H141305   2.338   5.721   4.329
13788TIP3    H241306   2.310   5.579   4.373
13789TIP3   OH241307   1.870   1.467   3.559
13789TIP3    H141308   1.864   1.372   3.561
13789TIP3    H241309   1.798   1.497   3.615
13790TIP3   OH241310   3.020   0.792   5.405
13790TIP3    H141311   3.062   0.873   5.377
13790TIP3    H241312   2.929   0.801   5.377
13791TIP3   OH241313   3.679   5.972   1.102
13791TIP3    H141314   3.626   5.914   1.047
13791TIP3    H241315   3.731   6.023   1.040
13792TIP3   OH241316   7.193   7.878   5.645
13792TIP3    H141317   7.112   7.828   5.658
13792TIP3    H241318   7.178   7.960   5.691
13793TIP3   OH241319   0.500   7.290   2.357
13793TIP3    H141320   0.412   7.312   2.389
13793TIP3    H241321   0.498   7.313   2.264
13794TIP3   OH241322   6.039   7.245   4.023
13794TIP3    H141323   6.068   7.319   3.970
13794TIP3    H241324   6.083   7.256   4.107
13795TIP3   OH241325   5.981   0.376   3.217
13795TIP3    H141326   5.891   0.402   3.197
13795TIP3    H241327   5.973   0.312   3.288
13796TIP3   OH241328   0.886   4.165   3.858
13796TIP3    H141329   0.791   4.167   3.849
13796TIP3    H241330   0.906   4.236   3.920
13797TIP3   OH241331   2.976   2.089   5.901
13797TIP3    H141332   2.927   2.069   5.981
13797TIP3    H241333   3.067   2.090   5.928
13798TIP3   OH241334   5.186   3.231   2.688
13798TIP3    H141335   5.201   3.172   2.762
13798TIP3    H241336   5.266   3.225   2.636
13799TIP3   OH241337   0.684   3.936   2.060
13799TIP3    H141338   0.607   3.889   2.091
13799TIP3    H241339   0.738   3.947   2.138
13800TIP3   OH241340   0.091   5.004   4.121
13800TIP3    H141341   0.012   4.991   4.173
13800TIP3    H241342   0.063   4.994   4.030
13801TIP3   OH241343   0.969   3.454   1.014
13801TIP3    H141344   1.065   3.447   1.015
13801TIP3    H241345   0.939   3.364   1.026
13802TIP3   OH241346   6.125   0.642   3.653
13802TIP3    H141347   6.041   0.618   3.692
13802TIP3    H241348   6.187   0.581   3.693
13803TIP3   OH241349   1.363   0.829   0.118
13803TIP3    H141350   1.433   0.829   0.183
13803TIP3    H241351   1.399   0.878   0.044
13804TIP3   OH241352   3.358   4.063   1.988
13804TIP3    H141353   3.380   3.970   1.979
13804TIP3    H241354   3.277   4.073   1.938
13805TIP3   OH241355   1.210   2.129   1.598
13805TIP3    H141356   1.126   2.143   1.641
13805TIP3    H241357   1.257   2.069   1.655
13806TIP3   OH241358   5.418   3.682   5.102
13806TIP3    H141359   5.369   3.760   5.129
13806TIP3    H241360   5.409   3.622   5.176
13807TIP3   OH241361   2.589   2.873   4.219
13807TIP3    H141362   2.675   2.894   4.257
13807TIP3    H241363   2.589   2.918   4.134
13808TIP3   OH241364   1.123   5.601   1.835
13808TIP3    H141365   1.177   5.546   1.891
13808TIP3    H241366   1.184   5.643   1.775
13809TIP3   OH241367   4.446   4.386   3.830
13809TIP3    H141368   4.534   4.357   3.807
13809TIP3    H241369   4.438   4.473   3.791
13810TIP3   OH241370   5.971   4.599   3.088
13810TIP3    H141371   6.042   4.564   3.141
13810TIP3    H241372   5.994   4.691   3.074
13811TIP3   OH241373   7.773   0.289   2.743
13811TIP3    H141374   7.848   0.307   2.800
13811TIP3    H241375   7.789   0.341   2.664
13812TIP3   OH241376   0.631   0.701   3.746
13812TIP3    H141377   0.663   0.619   3.711
13812TIP3    H241378   0.634   0.762   3.672
13813TIP3   OH241379   8.310   5.789   6.505
13813TIP3    H141380   8.369   5.719   6.475
13813TIP3    H241381   8.330   5.799   6.598
13814TIP3   OH241382   4.868   6.364   3.752
13814TIP3    H141383   4.901   6.433   3.695
13814TIP3    H241384   4.926   6.365   3.828
13815TIP3   OH241385   5.468   5.224   4.450
13815TIP3    H141386   5.430   5.143   4.484
13815TIP3    H241387   5.532   5.196   4.386
13816TIP3   OH241388   4.758   6.726   5.380
13816TIP3    H141389   4.790   6.671   5.309
13816TIP3    H241390   4.759   6.815   5.344
13817TIP3   OH241391   2.496   1.247   1.674
13817TIP3    H141392   2.484   1.166   1.625
13817TIP3    H241393   2.585   1.242   1.708
13818TIP3   OH241394   0.111   5.068   0.010
13818TIP3    H141395   0.063   4.988   0.032
13818TIP3    H241396   0.182   5.073   0.074
13819TIP3   OH241397   1.090   2.785   1.444
13819TIP3    H141398   1.049   2.749   1.523
13819TIP3    H241399   1.084   2.880   1.455
13820TIP3   OH241400   4.637   7.512   6.728
13820TIP3    H141401   4.707   7.516   6.792
13820TIP3    H241402   4.557   7.506   6.779
13821TIP3   OH241403   5.380   5.960   5.076
13821TIP3    H141404   5.379   5.893   5.008
13821TIP3    H241405   5.441   5.927   5.142
13822TIP3   OH241406   8.175   4.177   2.652
13822TIP3    H141407   8.193   4.113   2.720
13822TIP3    H241408   8.229   4.150   2.578
13823TIP3   OH241409   6.582   5.579   6.444
13823TIP3    H141410   6.540   5.498   6.474
13823TIP3    H241411   6.616   5.557   6.357
13824TIP3   OH241412   7.082   0.854   0.166
13824TIP3    H141413   7.162   0.907   0.165
13824TIP3    H241414   7.112   0.764   0.178
13825TIP3   OH241415   6.281   0.559   4.460
13825TIP3    H141416   6.190   0.587   4.465
13825TIP3    H241417   6.329   0.635   4.427
13826TIP3   OH241418   7.538   5.499   5.287
13826TIP3    H141419   7.557   5.581   5.333
13826TIP3    H241420   7.451   5.473   5.317
13827TIP3   OH241421   0.240   5.361   5.483
13827TIP3    H141422   0.201   5.304   5.550
13827TIP3    H241423   0.307   5.308   5.442
13828TIP3   OH241424   0.167   2.698   2.111
13828TIP3    H141425   0.159   2.789   2.139
13828TIP3    H241426   0.082   2.659   2.131
13829TIP3   OH241427   8.187   3.291   4.571
13829TIP3    H141428   8.119   3.358   4.559
13829TIP3    H241429   8.203   3.291   4.666
13830TIP3   OH241430   8.168   0.995   3.496
13830TIP3    H141431   8.127   1.056   3.436
13830TIP3    H241432   8.211   1.050   3.562
13831TIP3   OH241433   3.049   4.576   4.947
13831TIP3    H141434   3.014   4.661   4.974
13831TIP3    H241435   3.131   4.596   4.902
13832TIP3   OH241436   7.266   2.850   5.886
13832TIP3    H141437   7.320   2.778   5.855
13832TIP3    H241438   7.190   2.850   5.827
13833TIP3   OH241439   2.984   3.533   4.431
13833TIP3    H141440   3.069   3.537   4.474
13833TIP3    H241441   2.921   3.552   4.500
13834TIP3   OH241442   2.507   0.691   3.729
13834TIP3    H141443   2.502   0.672   3.823
13834TIP3    H241444   2.456   0.621   3.689
13835TIP3   OH241445   5.364   7.274   0.910
13835TIP3    H141446   5.404   7.279   0.823
13835TIP3    H241447   5.439   7.275   0.970
13836TIP3   OH241448   2.585   3.451   6.321
13836TIP3    H141449   2.614   3.458   6.412
13836TIP3    H241450   2.581   3.356   6.305
13837TIP3   OH241451   6.227   6.654   0.630
13837TIP3    H141452   6.161   6.681   0.694
13837TIP3    H241453   6.233   6.728   0.570
13838TIP3   OH241454   5.062   7.325   5.227
13838TIP3    H141455   5.046   7.276   5.307
13838TIP3    H241456   5.045   7.263   5.156
13839TIP3   OH241457   1.663   2.424   4.667
13839TIP3    H141458   1.647   2.367   4.743
13839TIP3    H241459   1.684   2.364   4.596
13840TIP3   OH241460   7.190   3.907   5.183
13840TIP3    H141461   7.280   3.910   5.216
13840TIP3    H241462   7.193   3.959   5.103
13841TIP3   OH241463   7.953   3.096   0.991
13841TIP3    H141464   7.976   3.047   0.912
13841TIP3    H241465   7.877   3.049   1.027
13842TIP3   OH241466   0.775   6.726   0.156
13842TIP3    H141467   0.788   6.794   0.089
13842TIP3    H241468   0.680   6.721   0.166
13843TIP3   OH241469   0.297   6.829   3.662
13843TIP3    H141470   0.234   6.823   3.733
13843TIP3    H241471   0.297   6.922   3.637
13844TIP3   OH241472   6.551   1.958   3.566
13844TIP3    H141473   6.564   1.996   3.479
13844TIP3    H241474   6.563   2.032   3.626
13845TIP3   OH241475   0.242   5.331   0.858
13845TIP3    H141476   0.174   5.271   0.886
13845TIP3    H241477   0.284   5.287   0.784
13846TIP3   OH241478   0.692   5.440   2.024
13846TIP3    H141479   0.679   5.458   2.117
13846TIP3    H241480   0.608   5.460   1.984
13847TIP3   OH241481   6.747   6.362   0.056
13847TIP3    H141482   6.669   6.419   0.055
13847TIP3    H241483   6.773   6.356  -0.035
13848TIP3   OH241484   5.817   7.381   3.514
13848TIP3    H141485   5.863   7.464   3.526
13848TIP3    H241486   5.787   7.383   3.423
13849TIP3   OH241487   1.454   0.933   3.725
13849TIP3    H141488   1.480   0.953   3.815
13849TIP3    H241489   1.514   0.862   3.699
13850TIP3   OH241490   1.249   1.831   3.308
13850TIP3    H141491   1.334   1.789   3.302
13850TIP3    H241492   1.268   1.922   3.330
13851TIP3   OH241493   6.796   1.292   2.355
13851TIP3    H141494   6.726   1.268   2.416
13851TIP3    H241495   6.867   1.231   2.375
13852TIP3   OH241496   6.578   2.915   5.949
13852TIP3    H141497   6.573   2.974   6.024
13852TIP3    H241498   6.539   2.964   5.877
13853TIP3   OH241499   1.056   0.425   5.909
13853TIP3    H141500   0.973   0.379   5.925
13853TIP3    H241501   1.080   0.461   5.994
13854TIP3   OH241502   4.307   4.772   4.151
13854TIP3    H141503   4.355   4.692   4.173
13854TIP3    H241504   4.255   4.791   4.229
13855TIP3   OH241505   5.137   5.288   1.340
13855TIP3    H141506   5.199   5.299   1.412
13855TIP3    H241507   5.174   5.341   1.269
13856TIP3   OH241508   1.094   3.093   6.793
13856TIP3    H141509   1.169   3.035   6.777
13856TIP3    H241510   1.078   3.085   6.887
13857TIP3   OH241511   6.523   7.147   0.079
13857TIP3    H141512   6.604   7.161   0.030
13857TIP3    H241513   6.505   7.231   0.120
13858TIP3   OH241514   1.725   6.536   1.729
13858TIP3    H141515   1.758   6.622   1.754
13858TIP3    H241516   1.657   6.555   1.665
13859TIP3   OH241517   0.589   0.863   6.557
13859TIP3    H141518   0.626   0.943   6.519
13859TIP3    H241519   0.640   0.792   6.517
13860TIP3   OH241520   1.016   6.055   6.584
13860TIP3    H141521   1.003   6.070   6.490
13860TIP3    H241522   0.949   6.109   6.626
13861TIP3   OH241523   6.333   6.839   2.645
13861TIP3    H141524   6.367   6.891   2.718
13861TIP3    H241525   6.409   6.790   2.614
13862TIP3   OH241526   2.203   1.063   3.056
13862TIP3    H141527   2.226   0.972   3.038
13862TIP3    H241528   2.136   1.084   2.992
13863TIP3   OH241529   0.512   1.829   4.192
13863TIP3    H141530   0.426   1.821   4.152
13863TIP3    H241531   0.533   1.740   4.220
13864TIP3   OH241532   5.698   3.761   0.868
13864TIP3    H141533   5.628   3.824   0.851
13864TIP3    H241534   5.697   3.749   0.963
13865TIP3   OH241535   7.388   2.674   4.340
13865TIP3    H141536   7.326   2.643   4.274
13865TIP3    H241537   7.413   2.762   4.310
13866TIP3   OH241538   7.908   3.399   2.949
13866TIP3    H141539   7.836   3.457   2.924
13866TIP3    H241540   7.874   3.311   2.932
13867TIP3   OH241541   3.372   5.638   5.597
13867TIP3    H141542   3.390   5.708   5.533
13867TIP3    H241543   3.337   5.683   5.673
13868TIP3   OH241544   5.817   2.197   3.714
13868TIP3    H141545   5.867   2.126   3.755
13868TIP3    H241546   5.759   2.227   3.784
13869TIP3   OH241547   3.337   5.902   4.036
13869TIP3    H141548   3.330   5.978   4.093
13869TIP3    H241549   3.378   5.835   4.090
13870TIP3   OH241550   3.118   0.740   1.488
13870TIP3    H141551   3.214   0.735   1.484
13870TIP3    H241552   3.096   0.812   1.430
13871TIP3   OH241553   2.562   2.635   6.418
13871TIP3    H141554   2.610   2.704   6.464
13871TIP3    H241555   2.472   2.666   6.413
13872TIP3   OH241556   4.327   6.594   6.126
13872TIP3    H141557   4.348   6.585   6.219
13872TIP3    H241558   4.251   6.537   6.113
13873TIP3   OH241559   6.455   4.498   3.616
13873TIP3    H141560   6.407   4.576   3.644
13873TIP3    H241561   6.526   4.490   3.679
13874TIP3   OH241562   6.289   3.771   4.331
13874TIP3    H141563   6.196   3.774   4.350
13874TIP3    H241564   6.327   3.839   4.386
13875TIP3   OH241565   7.850   5.670   6.123
13875TIP3    H141566   7.848   5.618   6.204
13875TIP3    H241567   7.766   5.651   6.081
13876TIP3   OH241568   4.904   2.201   6.831
13876TIP3    H141569   4.911   2.292   6.801
13876TIP3    H241570   4.811   2.190   6.850
13877TIP3   OH241571   4.934   2.038   4.992
13877TIP3    H141572   4.982   2.050   4.910
13877TIP3    H241573   4.958   1.950   5.020
13878TIP3   OH241574   1.682   4.109   2.047
13878TIP3    H141575   1.719   4.179   2.102
13878TIP3    H241576   1.710   4.131   1.958
13879TIP3   OH241577   6.422   0.532   6.698
13879TIP3    H141578   6.444   0.450   6.742
13879TIP3    H241579   6.385   0.505   6.614
13880TIP3   OH241580   7.832   1.835   5.860
13880TIP3    H141581   7.912   1.845   5.809
13880TIP3    H241582   7.843   1.895   5.934
13881TIP3   OH241583   1.934   3.264   4.003
13881TIP3    H141584   2.024   3.236   3.986
13881TIP3    H241585   1.884   3.182   4.010
13882TIP3   OH241586   7.507   5.168   2.245
13882TIP3    H141587   7.466   5.168   2.331
13882TIP3    H241588   7.542   5.257   2.235
13883TIP3   OH241589   2.540   4.007   3.017
13883TIP3    H141590   2.508   3.919   3.038
13883TIP3    H241591   2.635   3.998   3.014
13884TIP3   OH241592   7.961   1.083   1.909
13884TIP3    H141593   7.989   1.042   1.827
13884TIP3    H241594   7.870   1.106   1.894
13885TIP3   OH241595   1.890   3.787   2.317
13885TIP3    H141596   1.970   3.742   2.342
13885TIP3    H241597   1.823   3.719   2.316
13886TIP3   OH241598   1.301   4.655   5.831
13886TIP3    H141599   1.364   4.583   5.828
13886TIP3    H241600   1.241   4.632   5.902
13887TIP3   OH241601   2.556   3.131   1.865
13887TIP3    H141602   2.513   3.059   1.820
13887TIP3    H241603   2.506   3.143   1.945
13888TIP3   OH241604   1.971   1.002   3.794
13888TIP3    H141605   2.010   1.027   3.710
13888TIP3    H241606   1.882   1.035   3.789
13889TIP3   OH241607   6.471   3.498   2.229
13889TIP3    H141608   6.477   3.477   2.322
13889TIP3    H241609   6.379   3.520   2.215
13890TIP3   OH241610   1.011   0.014   3.193
13890TIP3    H141611   1.005   0.092   3.139
13890TIP3    H241612   1.057   0.042   3.272
13891TIP3   OH241613   6.650   4.437   3.800
13891TIP3    H141614   6.616   4.394   3.878
13891TIP3    H241615   6.716   4.498   3.833
13892TIP3   OH241616   3.712   6.708   0.900
13892TIP3    H141617   3.735   6.650   0.827
13892TIP3    H241618   3.796   6.726   0.943
13893TIP3   OH241619   4.250   3.687   0.317
13893TIP3    H141620   4.198   3.766   0.306
13893TIP3    H241621   4.228   3.656   0.405
13894TIP3   OH241622   1.606   6.847   6.228
13894TIP3    H141623   1.564   6.838   6.143
13894TIP3    H241624   1.678   6.908   6.213
13895TIP3   OH241625   7.771   7.258   1.193
13895TIP3    H141626   7.833   7.328   1.215
13895TIP3    H241627   7.688   7.304   1.178
13896TIP3   OH241628   7.394   4.223   5.670
13896TIP3    H141629   7.322   4.260   5.619
13896TIP3    H241630   7.360   4.216   5.759
13897TIP3   OH241631   2.797   1.482   4.443
13897TIP3    H141632   2.809   1.526   4.527
13897TIP3    H241633   2.793   1.552   4.379
13898TIP3   OH241634   6.383   3.014   2.962
13898TIP3    H141635   6.472   2.986   2.983
13898TIP3    H241636   6.373   2.995   2.869
13899TIP3   OH241637   4.561   4.030   0.476
13899TIP3    H141638   4.561   4.059   0.567
13899TIP3    H241639   4.624   4.087   0.432
13900TIP3   OH241640   7.394   0.425   1.802
13900TIP3    H141641   7.343   0.347   1.822
13900TIP3    H241642   7.473   0.416   1.855
13901TIP3   OH241643   1.434   6.403   1.094
13901TIP3    H141644   1.439   6.316   1.054
13901TIP3    H241645   1.347   6.435   1.071
13902TIP3   OH241646   0.698   3.171   3.268
13902TIP3    H141647   0.653   3.212   3.195
13902TIP3    H241648   0.633   3.114   3.308
13903TIP3   OH241649   0.517   4.146   0.816
13903TIP3    H141650   0.467   4.223   0.841
13903TIP3    H241651   0.474   4.073   0.859
13904TIP3   OH241652   7.904   0.616   0.857
13904TIP3    H141653   7.833   0.660   0.809
13904TIP3    H241654   7.979   0.675   0.849
13905TIP3   OH241655   3.174   7.845   0.732
13905TIP3    H141656   3.113   7.917   0.718
13905TIP3    H241657   3.162   7.821   0.824
13906TIP3   OH241658   5.410   6.521   1.437
13906TIP3    H141659   5.480   6.573   1.398
13906TIP3    H241660   5.351   6.501   1.364
13907TIP3   OH241661   7.566   3.863   1.924
13907TIP3    H141662   7.493   3.922   1.942
13907TIP3    H241663   7.620   3.867   2.003
13908TIP3   OH241664   7.494   3.015   0.774
13908TIP3    H141665   7.437   2.991   0.701
13908TIP3    H241666   7.508   2.933   0.821
13909TIP3   OH241667   4.585   7.362   3.385
13909TIP3    H141668   4.501   7.403   3.365
13909TIP3    H241669   4.650   7.418   3.343
13910TIP3   OH241670   2.799   3.112   6.423
13910TIP3    H141671   2.868   3.162   6.467
13910TIP3    H241672   2.811   3.130   6.330
13911TIP3   OH241673   6.263   7.012   1.506
13911TIP3    H141674   6.351   6.975   1.508
13911TIP3    H241675   6.236   7.004   1.415
13912TIP3   OH241676   0.866   6.879   4.918
13912TIP3    H141677   0.815   6.960   4.909
13912TIP3    H241678   0.939   6.903   4.975
13913TIP3   OH241679   5.836   1.992   0.172
13913TIP3    H141680   5.825   1.897   0.176
13913TIP3    H241681   5.783   2.020   0.097
13914TIP3   OH241682   0.868   1.379   0.498
13914TIP3    H141683   0.902   1.336   0.420
13914TIP3    H241684   0.835   1.463   0.467
13915TIP3   OH241685   2.608   2.588   5.592
13915TIP3    H141686   2.561   2.640   5.527
13915TIP3    H241687   2.637   2.652   5.657
13916TIP3   OH241688   2.804   0.532   3.586
13916TIP3    H141689   2.813   0.626   3.569
13916TIP3    H241690   2.732   0.504   3.530
13917TIP3   OH241691   1.371   4.193   5.016
13917TIP3    H141692   1.331   4.260   4.959
13917TIP3    H241693   1.348   4.110   4.975
13918TIP3   OH241694   6.982   7.509   4.363
13918TIP3    H141695   7.036   7.435   4.391
13918TIP3    H241696   6.997   7.576   4.430
13919TIP3   OH241697   2.730   5.103   6.798
13919TIP3    H141698   2.788   5.134   6.869
13919TIP3    H241699   2.727   5.008   6.810
13920TIP3   OH241700   3.636   7.470   1.483
13920TIP3    H141701   3.643   7.375   1.491
13920TIP3    H241702   3.667   7.489   1.394
13921TIP3   OH241703   0.854   0.454   3.200
13921TIP3    H141704   0.872   0.462   3.294
13921TIP3    H241705   0.764   0.484   3.190
13922TIP3   OH241706   0.516   2.582   3.014
13922TIP3    H141707   0.587   2.522   2.991
13922TIP3    H241708   0.437   2.528   3.007
13923TIP3   OH241709   2.003   5.481   5.214
13923TIP3    H141710   2.039   5.445   5.295
13923TIP3    H241711   2.070   5.461   5.148
13924TIP3   OH241712   5.369   6.425   0.861
13924TIP3    H141713   5.295   6.402   0.918
13924TIP3    H241714   5.380   6.520   0.874
13925TIP3   OH241715   6.774   4.370   2.130
13925TIP3    H141716   6.720   4.302   2.089
13925TIP3    H241717   6.736   4.381   2.217
13926TIP3   OH241718   4.157   3.145   5.826
13926TIP3    H141719   4.139   3.224   5.775
13926TIP3    H241720   4.176   3.078   5.760
13927TIP3   OH241721   4.426   6.278   1.399
13927TIP3    H141722   4.425   6.182   1.399
13927TIP3    H241723   4.452   6.302   1.488
13928TIP3   OH241724   6.472   1.484   3.028
13928TIP3    H141725   6.378   1.466   3.027
13928TIP3    H241726   6.504   1.446   3.109
13929TIP3   OH241727   7.707   7.408   3.328
13929TIP3    H141728   7.788   7.423   3.278
13929TIP3    H241729   7.672   7.496   3.342
13930TIP3   OH241730   2.757   3.751   6.791
13930TIP3    H141731   2.696   3.684   6.760
13930TIP3    H241732   2.712   3.834   6.775
13931TIP3   OH241733   7.047   0.932   1.392
13931TIP3    H141734   7.016   1.010   1.440
13931TIP3    H241735   6.984   0.864   1.414
13932TIP3   OH241736   1.513   1.545   4.803
13932TIP3    H141737   1.537   1.625   4.850
13932TIP3    H241738   1.521   1.568   4.711
13933TIP3   OH241739   3.406   4.153   4.908
13933TIP3    H141740   3.335   4.181   4.850
13933TIP3    H241741   3.469   4.110   4.849
13934TIP3   OH241742   3.028   6.021   6.443
13934TIP3    H141743   3.104   6.018   6.386
13934TIP3    H241744   3.061   6.052   6.527
13935TIP3   OH241745   5.616   6.558   2.491
13935TIP3    H141746   5.619   6.561   2.396
13935TIP3    H241747   5.566   6.478   2.511
13936TIP3   OH241748   3.455   4.516   0.739
13936TIP3    H141749   3.524   4.574   0.705
13936TIP3    H241750   3.379   4.537   0.685
13937TIP3   OH241751   0.658   6.325   2.204
13937TIP3    H141752   0.690   6.262   2.269
13937TIP3    H241753   0.579   6.362   2.244
13938TIP3   OH241754   0.075   2.988   1.704
13938TIP3    H141755   0.113   2.904   1.729
13938TIP3    H241756   0.140   3.026   1.644
13939TIP3   OH241757   6.541   2.227   1.060
13939TIP3    H141758   6.447   2.220   1.044
13939TIP3    H241759   6.548   2.266   1.148
13940TIP3   OH241760   0.278   1.148   1.952
13940TIP3    H141761   0.190   1.114   1.968
13940TIP3    H241762   0.332   1.106   2.018
13941TIP3   OH241763   4.957   5.612   2.764
13941TIP3    H141764   4.936   5.580   2.852
13941TIP3    H241765   4.945   5.536   2.707
13942TIP3   OH241766   8.164   7.180   3.635
13942TIP3    H141767   8.136   7.126   3.708
13942TIP3    H241768   8.104   7.255   3.636
13943TIP3   OH241769   0.864   1.660   2.319
13943TIP3    H141770   0.935   1.659   2.384
13943TIP3    H241771   0.896   1.716   2.249
13944TIP3   OH241772   7.369   1.545   1.875
13944TIP3    H141773   7.431   1.475   1.893
13944TIP3    H241774   7.334   1.524   1.788
13945TIP3   OH241775   5.597   4.446   2.486
13945TIP3    H141776   5.589   4.352   2.471
13945TIP3    H241777   5.690   4.460   2.501
13946TIP3   OH241778   5.727   0.765   5.619
13946TIP3    H141779   5.819   0.790   5.625
13946TIP3    H241780   5.707   0.767   5.526
13947TIP3   OH241781   5.311   6.015   0.753
13947TIP3    H141782   5.279   6.067   0.827
13947TIP3    H241783   5.317   6.077   0.680
13948TIP3   OH241784   3.103   4.077   1.906
13948TIP3    H141785   3.038   4.121   1.851
13948TIP3    H241786   3.052   4.042   1.979
13949TIP3   OH241787   7.436   4.770   3.364
13949TIP3    H141788   7.385   4.751   3.442
13949TIP3    H241789   7.391   4.723   3.293
13950TIP3   OH241790   4.598   5.959   4.407
13950TIP3    H141791   4.580   5.869   4.380
13950TIP3    H241792   4.691   5.959   4.429
13951TIP3   OH241793   7.838   2.466   2.950
13951TIP3    H141794   7.848   2.492   2.858
13951TIP3    H241795   7.884   2.534   3.000
13952TIP3   OH241796   3.918   1.914   4.019
13952TIP3    H141797   3.850   1.981   4.015
13952TIP3    H241798   3.880   1.844   4.071
13953TIP3   OH241799   8.154   0.943   5.001
13953TIP3    H141800   8.179   1.028   5.036
13953TIP3    H241801   8.202   0.936   4.918
13954TIP3   OH241802   2.556   7.621   0.158
13954TIP3    H141803   2.461   7.617   0.153
13954TIP3    H241804   2.574   7.664   0.241
13955TIP3   OH241805   5.228   4.910   5.095
13955TIP3    H141806   5.271   4.909   5.010
13955TIP3    H241807   5.247   4.997   5.131
13956TIP3   OH241808   2.850   5.919   0.083
13956TIP3    H141809   2.806   5.992   0.126
13956TIP3    H241810   2.828   5.843   0.136
13957TIP3   OH241811   7.835   2.252   2.718
13957TIP3    H141812   7.883   2.170   2.733
13957TIP3    H241813   7.807   2.247   2.627
13958TIP3   OH241814   2.956   2.882   5.809
13958TIP3    H141815   2.968   2.844   5.721
13958TIP3    H241816   2.949   2.806   5.867
13959TIP3   OH241817   0.991   2.408   4.894
13959TIP3    H141818   1.052   2.472   4.931
13959TIP3    H241819   0.923   2.398   4.961
13960TIP3   OH241820   7.238   4.574   6.197
13960TIP3    H141821   7.237   4.574   6.101
13960TIP3    H241822   7.286   4.654   6.220
13961TIP3   OH241823   6.802   4.371   4.069
13961TIP3    H141824   6.771   4.281   4.060
13961TIP3    H241825   6.897   4.364   4.060
13962TIP3   OH241826   7.889   4.838   1.861
13962TIP3    H141827   7.832   4.832   1.785
13962TIP3    H241828   7.918   4.748   1.877
13963TIP3   OH241829   0.906   6.822   3.795
13963TIP3    H141830   0.907   6.768   3.874
13963TIP3    H241831   0.813   6.826   3.770
13964TIP3   OH241832   7.897   6.275   2.933
13964TIP3    H141833   7.936   6.362   2.923
13964TIP3    H241834   7.964   6.215   2.901
13965TIP3   OH241835   7.223   2.531   2.591
13965TIP3    H141836   7.192   2.445   2.563
13965TIP3    H241837   7.208   2.532   2.686
13966TIP3   OH241838   2.626   2.092   2.399
13966TIP3    H141839   2.580   2.161   2.448
13966TIP3    H241840   2.650   2.133   2.316
13967TIP3   OH241841   1.456   7.520   5.207
13967TIP3    H141842   1.451   7.550   5.298
13967TIP3    H241843   1.538   7.558   5.174
13968TIP3   OH241844   4.753   0.922   5.055
13968TIP3    H141845   4.748   0.942   5.149
13968TIP3    H241846   4.813   0.988   5.020
13969TIP3   OH241847   8.148   5.305   2.852
13969TIP3    H141848   8.070   5.332   2.804
13969TIP3    H241849   8.154   5.367   2.925
13970TIP3   OH241850   1.894   0.833   1.016
13970TIP3    H141851   1.970   0.857   1.068
13970TIP3    H241852   1.896   0.737   1.013
13971TIP3   OH241853   5.684   4.272   2.888
13971TIP3    H141854   5.743   4.343   2.863
13971TIP3    H241855   5.734   4.192   2.869
13972TIP3   OH241856   0.697   2.382   4.381
13972TIP3    H141857   0.721   2.362   4.472
13972TIP3    H241858   0.683   2.296   4.341
13973TIP3   OH241859   1.018   6.412   4.108
13973TIP3    H141860   1.111   6.411   4.085
13973TIP3    H241861   1.009   6.342   4.173
13974TIP3   OH241862   6.523   6.424   1.751
13974TIP3    H141863   6.483   6.501   1.709
13974TIP3    H241864   6.501   6.351   1.693
13975TIP3   OH241865   3.342   2.244   3.243
13975TIP3    H141866   3.369   2.214   3.157
13975TIP3    H241867   3.332   2.339   3.234
13976TIP3   OH241868   5.015   7.378   4.251
13976TIP3    H141869   5.030   7.370   4.345
13976TIP3    H241870   5.095   7.343   4.212
13977TIP3   OH241871   4.099   0.648   5.572
13977TIP3    H141872   4.176   0.625   5.520
13977TIP3    H241873   4.074   0.735   5.541
13978TIP3   OH241874   5.469   4.544   6.314
13978TIP3    H141875   5.470   4.543   6.410
13978TIP3    H241876   5.545   4.492   6.289
13979TIP3   OH241877   3.659   5.075   5.692
13979TIP3    H141878   3.587   5.051   5.635
13979TIP3    H241879   3.678   5.166   5.670
13980TIP3   OH241880   2.815   5.408   2.887
13980TIP3    H141881   2.730   5.446   2.865
13980TIP3    H241882   2.798   5.354   2.965
13981TIP3   OH241883   4.668   2.198   3.458
13981TIP3    H141884   4.693   2.234   3.544
13981TIP3    H241885   4.658   2.275   3.402
13982TIP3   OH241886   6.937   5.459   2.299
13982TIP3    H141887   6.988   5.437   2.378
13982TIP3    H241888   6.948   5.553   2.290
13983TIP3   OH241889   3.523   0.054   1.393
13983TIP3    H141890   3.454   0.058   1.326
13983TIP3    H241891   3.494   0.114   1.461
13984TIP3   OH241892   1.867   5.206   3.050
13984TIP3    H141893   1.772   5.212   3.060
13984TIP3    H241894   1.880   5.199   2.955
13985TIP3   OH241895   2.190   1.446   3.486
13985TIP3    H141896   2.253   1.496   3.435
13985TIP3    H241897   2.121   1.423   3.423
13986TIP3   OH241898   0.798   3.531   1.558
13986TIP3    H141899   0.739   3.604   1.541
13986TIP3    H241900   0.783   3.471   1.485
13987TIP3   OH241901   4.372   5.099   3.781
13987TIP3    H141902   4.393   5.186   3.816
13987TIP3    H241903   4.314   5.117   3.707
13988TIP3   OH241904   3.434   0.116   4.813
13988TIP3    H141905   3.484   0.197   4.823
13988TIP3    H241906   3.397   0.099   4.899
13989TIP3   OH241907   4.104   3.951   1.562
13989TIP3    H141908   4.134   3.877   1.508
13989TIP3    H241909   4.184   3.996   1.587
13990TIP3   OH241910   7.323   1.542   3.274
13990TIP3    H141911   7.323   1.570   3.366
13990TIP3    H241912   7.269   1.608   3.229
13991TIP3   OH241913   4.700   1.370   0.638
13991TIP3    H141914   4.654   1.325   0.709
13991TIP3    H241915   4.700   1.308   0.565
13992TIP3   OH241916   4.614   7.897   0.194
13992TIP3    H141917   4.685   7.848   0.152
13992TIP3    H241918   4.658   7.955   0.256
13993TIP3   OH241919   2.063   6.693   1.878
13993TIP3    H141920   2.072   6.600   1.855
13993TIP3    H241921   1.982   6.720   1.834
13994TIP3   OH241922   4.880   7.025   4.166
13994TIP3    H141923   4.914   7.031   4.076
13994TIP3    H241924   4.810   7.090   4.169
13995TIP3   OH241925   3.745   6.530   0.555
13995TIP3    H141926   3.788   6.463   0.501
13995TIP3    H241927   3.667   6.555   0.506
13996TIP3   OH241928   4.789   6.907   2.286
13996TIP3    H141929   4.822   6.819   2.306
13996TIP3    H241930   4.831   6.931   2.203
13997TIP3   OH241931   6.499   6.155   6.281
13997TIP3    H141932   6.561   6.218   6.246
13997TIP3    H241933   6.522   6.147   6.373
13998TIP3   OH241934   0.814   0.336   6.609
13998TIP3    H141935   0.781   0.356   6.697
13998TIP3    H241936   0.742   0.361   6.550
13999TIP3   OH241937   4.875   4.037   2.632
13999TIP3    H141938   4.915   3.986   2.562
13999TIP3    H241939   4.858   4.123   2.592
14000TIP3   OH241940   6.812   6.310   0.492
14000TIP3    H141941   6.745   6.363   0.536
14000TIP3    H241942   6.861   6.374   0.440
14001TIP3   OH241943   8.206   3.876   4.637
14001TIP3    H141944   8.149   3.806   4.670
14001TIP3    H241945   8.266   3.894   4.709
14002TIP3   OH241946   6.755   4.439   4.357
14002TIP3    H141947   6.712   4.359   4.389
14002TIP3    H241948   6.773   4.421   4.265
14003TIP3   OH241949   7.302   3.666   2.549
14003TIP3    H141950   7.397   3.658   2.558
14003TIP3    H241951   7.290   3.754   2.512
14004TIP3   OH241952   5.920   1.469   3.773
14004TIP3    H141953   5.936   1.531   3.845
14004TIP3    H241954   5.992   1.406   3.779
14005TIP3   OH241955   6.457   2.695   6.163
14005TIP3    H141956   6.487   2.785   6.178
14005TIP3    H241957   6.510   2.664   6.090
14006TIP3   OH241958   7.929   5.879   4.724
14006TIP3    H141959   7.926   5.883   4.820
14006TIP3    H241960   7.991   5.809   4.705
14007TIP3   OH241961   7.795   7.665   3.558
14007TIP3    H141962   7.794   7.728   3.485
14007TIP3    H241963   7.728   7.600   3.535
14008TIP3   OH241964   8.368   7.382   3.691
14008TIP3    H141965   8.328   7.298   3.670
14008TIP3    H241966   8.294   7.437   3.719
14009TIP3   OH241967   2.723   4.551   4.662
14009TIP3    H141968   2.771   4.516   4.587
14009TIP3    H241969   2.745   4.493   4.734
14010TIP3   OH241970   1.614   4.445   3.681
14010TIP3    H141971   1.637   4.497   3.758
14010TIP3    H241972   1.694   4.397   3.660
14011TIP3   OH241973   3.311   0.910   3.399
14011TIP3    H141974   3.217   0.928   3.388
14011TIP3    H241975   3.353   0.991   3.371
14012TIP3   OH241976   7.540   0.859   2.386
14012TIP3    H141977   7.471   0.792   2.389
14012TIP3    H241978   7.594   0.842   2.462
14013TIP3   OH241979   0.969   6.682   4.220
14013TIP3    H141980   0.882   6.644   4.232
14013TIP3    H241981   1.016   6.619   4.165
14014TIP3   OH241982   2.399   3.210   2.703
14014TIP3    H141983   2.428   3.296   2.733
14014TIP3    H241984   2.306   3.208   2.725
14015TIP3   OH241985   4.117   2.095   5.866
14015TIP3    H141986   4.180   2.040   5.820
14015TIP3    H241987   4.089   2.160   5.802
14016TIP3   OH241988   2.217   1.725   5.534
14016TIP3    H141989   2.268   1.698   5.458
14016TIP3    H241990   2.157   1.792   5.500
14017TIP3   OH241991   0.574   6.799   1.392
14017TIP3    H141992   0.520   6.733   1.436
14017TIP3    H241993   0.662   6.782   1.424
14018TIP3   OH241994   8.328   0.465   2.970
14018TIP3    H141995   8.324   0.548   2.923
14018TIP3    H241996   8.246   0.461   3.019
14019TIP3   OH241997   5.875   6.858   5.219
14019TIP3    H141998   5.799   6.886   5.169
14019TIP3    H241999   5.936   6.932   5.212
14020TIP3   OH242000   5.714   0.250   2.587
14020TIP3    H142001   5.790   0.197   2.563
14020TIP3    H242002   5.737   0.289   2.672
14021TIP3   OH242003   3.044   7.076   1.815
14021TIP3    H142004   3.002   7.037   1.891
14021TIP3    H242005   3.058   7.168   1.840
14022TIP3   OH242006   0.193   4.749   6.645
14022TIP3    H142007   0.278   4.705   6.650
14022TIP3    H242008   0.207   4.831   6.694
14023TIP3   OH242009   5.703   0.489   6.662
14023TIP3    H142010   5.764   0.558   6.636
14023TIP3    H242011   5.660   0.524   6.740
14024TIP3   OH242012   7.139   6.041   5.010
14024TIP3    H142013   7.121   6.074   5.098
14024TIP3    H242014   7.210   5.978   5.022
14025TIP3   OH242015   0.887   6.336   3.109
14025TIP3    H142016   0.876   6.296   3.023
14025TIP3    H242017   0.938   6.415   3.092
14026TIP3   OH242018   3.297   3.948   0.471
14026TIP3    H142019   3.323   4.016   0.533
14026TIP3    H242020   3.377   3.926   0.423
14027TIP3   OH242021   6.687   6.745   1.344
14027TIP3    H142022   6.618   6.774   1.284
14027TIP3    H242023   6.762   6.800   1.323
14028TIP3   OH242024   7.002   4.457   2.280
14028TIP3    H142025   6.936   4.390   2.298
14028TIP3    H242026   7.008   4.507   2.362
14029TIP3   OH242027   2.420   2.624   4.501
14029TIP3    H142028   2.491   2.657   4.557
14029TIP3    H242029   2.341   2.637   4.552
14030TIP3   OH242030   2.330   1.147   2.712
14030TIP3    H142031   2.425   1.146   2.701
14030TIP3    H242032   2.295   1.124   2.625
14031TIP3   OH242033   7.728   6.146   3.674
14031TIP3    H142034   7.769   6.060   3.661
14031TIP3    H242035   7.796   6.199   3.713
14032TIP3   OH242036   1.072   7.245   4.170
14032TIP3    H142037   1.160   7.223   4.201
14032TIP3    H242038   1.039   7.163   4.134
14033TIP3   OH242039   2.409   7.453   4.878
14033TIP3    H142040   2.457   7.531   4.904
14033TIP3    H242041   2.473   7.382   4.886
14034TIP3   OH242042   1.310   7.388   5.006
14034TIP3    H142043   1.370   7.447   5.051
14034TIP3    H242044   1.351   7.371   4.922
14035TIP3   OH242045   5.445   4.152   3.118
14035TIP3    H142046   5.490   4.234   3.141
14035TIP3    H242047   5.385   4.137   3.191
14036TIP3   OH242048   6.758   7.884   3.767
14036TIP3    H142049   6.795   7.799   3.791
14036TIP3    H242050   6.701   7.907   3.841
14037TIP3   OH242051   4.755   6.196   5.495
14037TIP3    H142052   4.833   6.238   5.460
14037TIP3    H242053   4.690   6.266   5.501
14038TIP3   OH242054   0.141   0.936   3.297
14038TIP3    H142055   0.220   0.991   3.301
14038TIP3    H242056   0.145   0.882   3.375
14039TIP3   OH242057   7.339   6.181   5.996
14039TIP3    H142058   7.346   6.111   5.931
14039TIP3    H242059   7.422   6.227   5.992
14040TIP3   OH242060   5.890   3.523   4.787
14040TIP3    H142061   5.815   3.540   4.844
14040TIP3    H242062   5.918   3.610   4.758
14041TIP3   OH242063   5.916   6.984   3.223
14041TIP3    H142064   5.998   6.935   3.227
14041TIP3    H242065   5.942   7.070   3.190
14042TIP3   OH242066   2.557   7.022   3.335
14042TIP3    H142067   2.636   6.971   3.319
14042TIP3    H242068   2.540   7.067   3.253
14043TIP3   OH242069   7.790   1.876   2.919
14043TIP3    H142070   7.817   1.789   2.888
14043TIP3    H242071   7.697   1.882   2.898
14044TIP3   OH242072   5.728   3.534   5.401
14044TIP3    H142073   5.816   3.558   5.371
14044TIP3    H242074   5.687   3.494   5.324
14045TIP3   OH242075   3.414   5.594   3.133
14045TIP3    H142076   3.359   5.665   3.167
14045TIP3    H242077   3.359   5.516   3.142
14046TIP3   OH242078   0.819   0.839   2.288
14046TIP3    H142079   0.810   0.780   2.363
14046TIP3    H242080   0.889   0.900   2.314
14047TIP3   OH242081   8.081   0.365   2.428
14047TIP3    H142082   8.071   0.275   2.396
14047TIP3    H242083   8.163   0.395   2.389
14048TIP3   OH242084   0.423   5.110   0.843
14048TIP3    H142085   0.475   5.087   0.920
14048TIP3    H242086   0.417   5.029   0.793
14049TIP3   OH242087   2.082   5.529   2.039
14049TIP3    H142088   2.144   5.549   2.109
14049TIP3    H242089   2.039   5.613   2.021
14050TIP3   OH242090   4.777   1.673   5.035
14050TIP3    H142091   4.798   1.598   4.979
14050TIP3    H242092   4.768   1.746   4.974
14051TIP3   OH242093   1.943   4.425   1.073
14051TIP3    H142094   1.858   4.469   1.066
14051TIP3    H242095   1.964   4.399   0.984
14052TIP3   OH242096   6.689   1.570   2.386
14052TIP3    H142097   6.663   1.614   2.467
14052TIP3    H242098   6.729   1.488   2.415
14053TIP3   OH242099   6.351   5.411   0.428
14053TIP3    H142100   6.337   5.349   0.356
14053TIP3    H242101   6.386   5.357   0.499
14054TIP3   OH242102   0.049   7.099   3.471
14054TIP3    H142103   0.089   7.128   3.389
14054TIP3    H242104  -0.039   7.070   3.446
14055TIP3   OH242105   7.832   3.974   0.597
14055TIP3    H142106   7.739   3.957   0.613
14055TIP3    H242107   7.867   3.889   0.571
14056TIP3   OH242108   5.368   6.887   5.612
14056TIP3    H142109   5.273   6.875   5.614
14056TIP3    H242110   5.400   6.830   5.682
14057TIP3   OH242111   3.938   2.016   4.404
14057TIP3    H142112   3.879   1.942   4.423
14057TIP3    H242113   3.979   1.993   4.321
14058TIP3   OH242114   5.498   6.129   2.950
14058TIP3    H142115   5.411   6.108   2.983
14058TIP3    H242116   5.545   6.046   2.952
14059TIP3   OH242117   7.392   7.918   2.831
14059TIP3    H142118   7.451   7.860   2.879
14059TIP3    H242119   7.314   7.865   2.815
14060TIP3   OH242120   7.658   7.431   2.994
14060TIP3    H142121   7.575   7.385   3.005
14060TIP3    H242122   7.661   7.494   3.067
14061TIP3   OH242123   4.880   5.064   5.538
14061TIP3    H142124   4.826   4.991   5.507
14061TIP3    H242125   4.968   5.026   5.547
14062TIP3   OH242126   6.238   7.389   1.776
14062TIP3    H142127   6.240   7.295   1.793
14062TIP3    H242128   6.146   7.413   1.785
14063TIP3   OH242129   6.941   0.155   2.692
14063TIP3    H142130   7.015   0.166   2.632
14063TIP3    H242131   6.925   0.242   2.728
14064TIP3   OH242132   6.355   6.971   4.102
14064TIP3    H142133   6.352   7.005   4.191
14064TIP3    H242134   6.301   6.892   4.105
14065TIP3   OH242135   3.140   3.264   4.321
14065TIP3    H142136   3.138   3.336   4.383
14065TIP3    H242137   3.219   3.214   4.343
14066TIP3   OH242138   1.076   2.468   2.707
14066TIP3    H142139   1.130   2.540   2.740
14066TIP3    H242140   1.025   2.507   2.636
14067TIP3   OH242141   6.754   1.341   3.450
14067TIP3    H142142   6.839   1.307   3.425
14067TIP3    H242143   6.714   1.271   3.502
14068TIP3   OH242144   6.098   4.402   0.347
14068TIP3    H142145   6.149   4.327   0.378
14068TIP3    H242146   6.017   4.398   0.398
14069TIP3   OH242147   2.933   6.700   2.040
14069TIP3    H142148   2.874   6.724   1.968
14069TIP3    H242149   2.889   6.625   2.082
14070TIP3   OH242150   8.415   4.383   6.395
14070TIP3    H142151   8.358   4.349   6.326
14070TIP3    H242152   8.364   4.372   6.475
14071TIP3   OH242153   2.441   4.521   0.850
14071TIP3    H142154   2.402   4.437   0.824
14071TIP3    H242155   2.370   4.567   0.896
14072TIP3   OH242156   4.881   1.516   1.525
14072TIP3    H142157   4.883   1.547   1.616
14072TIP3    H242158   4.832   1.582   1.478
14073TIP3   OH242159   5.916   0.045   2.561
14073TIP3    H142160   5.988   0.035   2.498
14073TIP3    H242161   5.847  -0.011   2.527
14074TIP3   OH242162   4.448   7.451   3.067
14074TIP3    H142163   4.478   7.479   2.981
14074TIP3    H242164   4.466   7.526   3.124
14075TIP3   OH242165   6.369   5.079   2.198
14075TIP3    H142166   6.422   5.070   2.277
14075TIP3    H242167   6.381   4.996   2.152
14076TIP3   OH242168   5.143   5.536   6.630
14076TIP3    H142169   5.195   5.456   6.631
14076TIP3    H242170   5.197   5.600   6.675
14077TIP3   OH242171   0.439   0.559   2.805
14077TIP3    H142172   0.405   0.642   2.840
14077TIP3    H242173   0.499   0.586   2.735
14078TIP3   OH242174   3.730   7.625   1.677
14078TIP3    H142175   3.691   7.561   1.616
14078TIP3    H242176   3.675   7.620   1.755
14079TIP3   OH242177   2.080   1.147   4.167
14079TIP3    H142178   2.049   1.231   4.202
14079TIP3    H242179   2.010   1.085   4.189
14080TIP3   OH242180   0.208   7.613   0.606
14080TIP3    H142181   0.261   7.692   0.620
14080TIP3    H242182   0.138   7.641   0.547
14081TIP3   OH242183   1.209   7.064   4.839
14081TIP3    H142184   1.157   7.119   4.780
14081TIP3    H242185   1.214   6.980   4.795
14082TIP3   OH242186   7.593   6.546   5.732
14082TIP3    H142187   7.555   6.543   5.820
14082TIP3    H242188   7.521   6.523   5.674
14083TIP3   OH242189   0.605   5.920   5.693
14083TIP3    H142190   0.562   5.993   5.736
14083TIP3    H242191   0.663   5.960   5.628
14084TIP3   OH242192   0.437   4.929   5.733
14084TIP3    H142193   0.394   4.875   5.799
14084TIP3    H242194   0.459   5.010   5.779
14085TIP3   OH242195   0.364   6.804   5.270
14085TIP3    H142196   0.379   6.798   5.176
14085TIP3    H242197   0.281   6.851   5.279
14086TIP3   OH242198   0.103   2.379   0.293
14086TIP3    H142199   0.156   2.454   0.319
14086TIP3    H242200   0.060   2.406   0.212
14087TIP3   OH242201   2.650   7.904   4.076
14087TIP3    H142202   2.557   7.890   4.055
14087TIP3    H242203   2.676   7.825   4.122
14088TIP3   OH242204   4.379   5.210   0.285
14088TIP3    H142205   4.438   5.281   0.309
14088TIP3    H242206   4.417   5.172   0.206
14089TIP3   OH242207   6.567   4.037   4.715
14089TIP3    H142208   6.561   4.058   4.621
14089TIP3    H242209   6.479   4.055   4.749
14090TIP3   OH242210   6.952   3.160   4.159
14090TIP3    H142211   6.865   3.180   4.194
14090TIP3    H242212   7.010   3.224   4.199
14091TIP3   OH242213   6.025   4.030   5.828
14091TIP3    H142214   5.989   3.964   5.886
14091TIP3    H242215   6.118   4.008   5.819
14092TIP3   OH242216   0.240   1.534   1.622
14092TIP3    H142217   0.157   1.578   1.635
14092TIP3    H242218   0.239   1.461   1.684
14093TIP3   OH242219   7.760   5.292   1.896
14093TIP3    H142220   7.669   5.279   1.921
14093TIP3    H242221   7.768   5.248   1.811
14094TIP3   OH242222   2.143   7.464   5.234
14094TIP3    H142223   2.209   7.400   5.261
14094TIP3    H242224   2.123   7.514   5.313
14095TIP3   OH242225   1.338   3.853   3.295
14095TIP3    H142226   1.410   3.807   3.339
14095TIP3    H242227   1.379   3.900   3.223
14096TIP3   OH242228   4.837   2.235   5.647
14096TIP3    H142229   4.751   2.227   5.605
14096TIP3    H242230   4.827   2.309   5.707
14097TIP3   OH242231   3.981   0.545   1.903
14097TIP3    H142232   4.022   0.631   1.901
14097TIP3    H242233   4.053   0.485   1.923
14098TIP3   OH242234   6.870   3.935   2.661
14098TIP3    H142235   6.810   3.941   2.587
14098TIP3    H242236   6.894   4.026   2.680
14099TIP3   OH242237   5.409   7.532   5.320
14099TIP3    H142238   5.425   7.438   5.318
14099TIP3    H242239   5.487   7.569   5.362
14100TIP3   OH242240  -0.005   5.239   3.324
14100TIP3    H142241   0.012   5.328   3.355
14100TIP3    H242242   0.047   5.183   3.382
14101TIP3   OH242243   7.497   0.650   2.984
14101TIP3    H142244   7.432   0.621   3.047
14101TIP3    H242245   7.449   0.704   2.922
14102TIP3   OH242246   0.489   3.429   2.580
14102TIP3    H142247   0.534   3.510   2.606
14102TIP3    H242248   0.547   3.359   2.608
14103TIP3   OH242249   0.403   7.900   3.630
14103TIP3    H142250   0.321   7.851   3.625
14103TIP3    H242251   0.396   7.952   3.710
14104TIP3   OH242252   0.118   0.755   2.621
14104TIP3    H142253   0.079   0.809   2.553
14104TIP3    H242254   0.204   0.795   2.637
14105TIP3   OH242255   2.923   0.670   2.468
14105TIP3    H142256   2.904   0.715   2.551
14105TIP3    H242257   2.907   0.578   2.486
14106TIP3   OH242258   3.962   6.082   4.695
14106TIP3    H142259   4.029   6.148   4.716
14106TIP3    H242260   4.007   5.998   4.702
14107TIP3   OH242261   8.285   7.417   5.375
14107TIP3    H142262   8.261   7.361   5.449
14107TIP3    H242263   8.201   7.440   5.334
14108TIP3   OH242264   1.677   5.392   1.508
14108TIP3    H142265   1.609   5.396   1.441
14108TIP3    H242266   1.746   5.450   1.476
14109TIP3   OH242267   7.460   4.609   0.117
14109TIP3    H142268   7.523   4.672   0.082
14109TIP3    H242269   7.377   4.656   0.117
14110TIP3   OH242270   0.134   1.395   1.842
14110TIP3    H142271   0.198   1.335   1.879
14110TIP3    H242272   0.049   1.357   1.863
14111TIP3   OH242273   5.429   2.684   5.648
14111TIP3    H142274   5.347   2.639   5.669
14111TIP3    H242275   5.402   2.770   5.617
14112TIP3   OH242276   6.931   5.280   3.624
14112TIP3    H142277   6.978   5.338   3.564
14112TIP3    H242278   6.880   5.223   3.567
14113TIP3   OH242279   4.939   2.254   4.404
14113TIP3    H142280   5.024   2.241   4.446
14113TIP3    H242281   4.875   2.245   4.475
14114TIP3   OH242282   3.622   5.138   2.412
14114TIP3    H142283   3.598   5.045   2.422
14114TIP3    H242284   3.716   5.140   2.430
14115TIP3   OH242285   1.815   7.578   6.454
14115TIP3    H142286   1.809   7.621   6.539
14115TIP3    H242287   1.893   7.616   6.414
14116TIP3   OH242288   5.821   1.973   4.684
14116TIP3    H142289   5.829   1.924   4.602
14116TIP3    H242290   5.782   2.057   4.657
14117TIP3   OH242291   4.137   4.399   5.987
14117TIP3    H142292   4.087   4.372   5.910
14117TIP3    H242293   4.159   4.490   5.971
14118TIP3   OH242294   6.455   1.470   5.207
14118TIP3    H142295   6.447   1.531   5.133
14118TIP3    H242296   6.453   1.526   5.285
14119TIP3   OH242297   3.609   7.077   3.788
14119TIP3    H142298   3.675   7.008   3.781
14119TIP3    H242299   3.546   7.056   3.719
14120TIP3   OH242300   2.188   7.700   1.977
14120TIP3    H142301   2.276   7.738   1.970
14120TIP3    H242302   2.190   7.624   1.918
14121TIP3   OH242303   2.184   6.771   2.953
14121TIP3    H142304   2.149   6.853   2.918
14121TIP3    H242305   2.106   6.717   2.968
14122TIP3   OH242306   6.424   6.416   3.015
14122TIP3    H142307   6.515   6.437   3.038
14122TIP3    H242308   6.376   6.498   3.028
14123TIP3   OH242309   4.137   3.667   0.084
14123TIP3    H142310   4.182   3.648   0.001
14123TIP3    H242311   4.206   3.660   0.150
14124TIP3   OH242312   4.501   6.697   3.283
14124TIP3    H142313   4.520   6.664   3.195
14124TIP3    H242314   4.585   6.698   3.327
14125TIP3   OH242315   0.550   4.992   1.388
14125TIP3    H142316   0.469   4.973   1.435
14125TIP3    H242317   0.614   4.931   1.425
14126TIP3   OH242318   0.362   4.723   0.474
14126TIP3    H142319   0.423   4.752   0.406
14126TIP3    H242320   0.275   4.742   0.437
14127TIP3   OH242321   4.977   2.423   0.451
14127TIP3    H142322   4.968   2.471   0.369
14127TIP3    H242323   4.971   2.331   0.425
14128TIP3   OH242324   5.406   6.657   3.966
14128TIP3    H142325   5.463   6.712   3.912
14128TIP3    H242326   5.453   6.574   3.973
14129TIP3   OH242327   6.124   2.662   6.415
14129TIP3    H142328   6.126   2.681   6.321
14129TIP3    H242329   6.034   2.683   6.441
14130TIP3   OH242330   1.807   3.380   6.256
14130TIP3    H142331   1.889   3.335   6.239
14130TIP3    H242332   1.739   3.316   6.234
14131TIP3   OH242333   2.421   7.373   0.168
14131TIP3    H142334   2.490   7.339   0.110
14131TIP3    H242335   2.453   7.356   0.256
14132TIP3   OH242336   2.643   1.804   3.450
14132TIP3    H142337   2.720   1.755   3.421
14132TIP3    H242338   2.624   1.770   3.537
14133TIP3   OH242339   3.733   7.139   6.341
14133TIP3    H142340   3.705   7.214   6.288
14133TIP3    H242341   3.703   7.160   6.429
14134TIP3   OH242342   1.368   2.803   2.575
14134TIP3    H142343   1.399   2.888   2.547
14134TIP3    H242344   1.354   2.754   2.494
14135TIP3   OH242345   1.128   6.396   5.680
14135TIP3    H142346   1.154   6.477   5.636
14135TIP3    H242347   1.182   6.328   5.640
14136TIP3   OH242348   0.194   1.793   2.079
14136TIP3    H142349   0.158   1.808   2.166
14136TIP3    H242350   0.287   1.814   2.088
14137TIP3   OH242351   3.788   4.247   5.631
14137TIP3    H142352   3.752   4.176   5.579
14137TIP3    H242353   3.762   4.327   5.585
14138TIP3   OH242354   1.339   3.079   3.503
14138TIP3    H142355   1.259   3.032   3.479
14138TIP3    H242356   1.324   3.168   3.471
14139TIP3   OH242357   6.386   4.226   0.495
14139TIP3    H142358   6.308   4.182   0.463
14139TIP3    H242359   6.436   4.158   0.539
14140TIP3   OH242360   2.579   4.109   1.738
14140TIP3    H142361   2.638   4.154   1.798
14140TIP3    H242362   2.568   4.169   1.665
14141TIP3   OH242363   1.796   0.799   6.063
14141TIP3    H142364   1.817   0.889   6.037
14141TIP3    H242365   1.834   0.789   6.150
14142TIP3   OH242366   5.513   0.836   6.316
14142TIP3    H142367   5.539   0.873   6.232
14142TIP3    H242368   5.498   0.743   6.298
14143TIP3   OH242369   3.027   3.550   3.891
14143TIP3    H142370   3.080   3.474   3.912
14143TIP3    H242371   3.002   3.587   3.976
14144TIP3   OH242372   6.236   6.951   6.411
14144TIP3    H142373   6.211   6.910   6.328
14144TIP3    H242374   6.164   6.932   6.470
14145TIP3   OH242375   4.143   3.572   0.556
14145TIP3    H142376   4.053   3.546   0.535
14145TIP3    H242377   4.134   3.653   0.605
14146TIP3   OH242378   2.801   0.440   1.136
14146TIP3    H142379   2.710   0.414   1.123
14146TIP3    H242380   2.842   0.427   1.051
14147TIP3   OH242381   6.161   4.839   1.030
14147TIP3    H142382   6.122   4.925   1.045
14147TIP3    H242383   6.199   4.846   0.942
14148TIP3   OH242384   7.325   5.673   3.665
14148TIP3    H142385   7.336   5.623   3.746
14148TIP3    H242386   7.395   5.641   3.607
14149TIP3   OH242387   6.597   0.844   3.849
14149TIP3    H142388   6.526   0.907   3.832
14149TIP3    H242389   6.612   0.850   3.943
14150TIP3   OH242390   5.223   2.359   0.680
14150TIP3    H142391   5.251   2.378   0.770
14150TIP3    H242392   5.156   2.291   0.689
14151TIP3   OH242393   0.162   0.193   3.379
14151TIP3    H142394   0.147   0.106   3.344
14151TIP3    H242395   0.112   0.251   3.322
14152TIP3   OH242396   6.794   6.116   2.997
14152TIP3    H142397   6.783   6.087   3.087
14152TIP3    H242398   6.705   6.134   2.966
14153TIP3   OH242399   1.314   6.700   2.653
14153TIP3    H142400   1.353   6.646   2.584
14153TIP3    H242401   1.267   6.769   2.606
14154TIP3   OH242402   6.401   0.113   4.203
14154TIP3    H142403   6.396   0.154   4.289
14154TIP3    H242404   6.396   0.019   4.221
14155TIP3   OH242405   3.869   3.088   5.700
14155TIP3    H142406   3.940   3.030   5.727
14155TIP3    H242407   3.792   3.031   5.697
14156TIP3   OH242408   5.137   6.970   4.183
14156TIP3    H142409   5.045   6.950   4.164
14156TIP3    H242410   5.184   6.940   4.106
14157TIP3   OH242411   2.769   4.736   3.631
14157TIP3    H142412   2.841   4.780   3.677
14157TIP3    H242413   2.810   4.705   3.550
14158TIP3   OH242414   6.562   7.931   6.393
14158TIP3    H142415   6.617   7.956   6.319
14158TIP3    H242416   6.535   7.841   6.373
14159TIP3   OH242417   3.646   2.802   1.509
14159TIP3    H142418   3.738   2.825   1.496
14159TIP3    H242419   3.619   2.762   1.426
14160TIP3   OH242420   3.434   1.434   1.735
14160TIP3    H142421   3.484   1.364   1.777
14160TIP3    H242422   3.344   1.403   1.736
14161TIP3   OH242423   6.934   5.782   3.141
14161TIP3    H142424   6.996   5.776   3.067
14161TIP3    H242425   6.987   5.817   3.213
14162TIP3   OH242426   1.524   4.645   1.718
14162TIP3    H142427   1.480   4.563   1.740
14162TIP3    H242428   1.473   4.713   1.763
14163TIP3   OH242429   8.031   1.108   1.143
14163TIP3    H142430   7.952   1.140   1.100
14163TIP3    H242431   8.059   1.180   1.200
14164TIP3   OH242432   5.674   6.980   6.040
14164TIP3    H142433   5.594   6.946   6.080
14164TIP3    H242434   5.712   7.036   6.107
14165TIP3   OH242435   1.544   5.592   4.930
14165TIP3    H142436   1.513   5.631   5.012
14165TIP3    H242437   1.616   5.648   4.903
14166TIP3   OH242438   7.180   1.009   5.669
14166TIP3    H142439   7.217   0.928   5.703
14166TIP3    H242440   7.086   0.996   5.671
14167TIP3   OH242441   2.478   0.316   3.369
14167TIP3    H142442   2.405   0.311   3.307
14167TIP3    H242443   2.452   0.258   3.440
14168TIP3   OH242444   3.446   4.655   2.519
14168TIP3    H142445   3.433   4.621   2.607
14168TIP3    H242446   3.438   4.578   2.462
14169TIP3   OH242447   6.869   1.498   5.937
14169TIP3    H142448   6.953   1.522   5.975
14169TIP3    H242449   6.804   1.536   5.997
14170TIP3   OH242450   1.294   2.440   3.794
14170TIP3    H142451   1.292   2.535   3.785
14170TIP3    H242452   1.344   2.425   3.874
14171TIP3   OH242453   5.539   2.400   4.876
14171TIP3    H142454   5.532   2.492   4.899
14171TIP3    H242455   5.460   2.360   4.913
14172TIP3   OH242456   6.019   0.480   6.404
14172TIP3    H142457   6.081   0.547   6.375
14172TIP3    H242458   6.069   0.425   6.464
14173TIP3   OH242459   4.241   7.196   0.885
14173TIP3    H142460   4.219   7.244   0.965
14173TIP3    H242461   4.291   7.258   0.833
14174TIP3   OH242462   4.345   6.441   5.712
14174TIP3    H142463   4.362   6.373   5.778
14174TIP3    H242464   4.266   6.485   5.744
14175TIP3   OH242465   3.243   7.150   0.485
14175TIP3    H142466   3.269   7.152   0.577
14175TIP3    H242467   3.167   7.092   0.484
14176TIP3   OH242468   7.160   2.758   3.856
14176TIP3    H142469   7.248   2.730   3.882
14176TIP3    H242470   7.101   2.698   3.902
14177TIP3   OH242471   2.294   2.002   1.250
14177TIP3    H142472   2.298   2.031   1.341
14177TIP3    H242473   2.250   2.073   1.204
14178TIP3   OH242474   4.419   3.026   2.882
14178TIP3    H142475   4.443   3.060   2.969
14178TIP3    H242476   4.476   3.073   2.822
14179TIP3   OH242477   4.051   4.656   5.581
14179TIP3    H142478   4.088   4.633   5.667
14179TIP3    H242479   3.959   4.677   5.599
14180TIP3   OH242480   3.930   4.578   4.265
14180TIP3    H142481   3.904   4.668   4.247
14180TIP3    H242482   4.007   4.585   4.321
14181TIP3   OH242483   4.961   4.935   6.433
14181TIP3    H142484   4.976   5.030   6.436
14181TIP3    H242485   4.899   4.923   6.362
14182TIP3   OH242486   7.241   5.493   5.385
14182TIP3    H142487   7.172   5.552   5.355
14182TIP3    H242488   7.258   5.521   5.475
14183TIP3   OH242489   0.598   6.635   3.104
14183TIP3    H142490   0.667   6.642   3.170
14183TIP3    H242491   0.636   6.585   3.033
14184TIP3   OH242492   7.839   2.250   2.213
14184TIP3    H142493   7.864   2.170   2.167
14184TIP3    H242494   7.921   2.299   2.221
14185TIP3   OH242495   3.697   1.683   1.003
14185TIP3    H142496   3.616   1.640   0.977
14185TIP3    H242497   3.696   1.766   0.955
14186TIP3   OH242498   1.006   1.221   6.818
14186TIP3    H142499   1.034   1.293   6.761
14186TIP3    H242500   1.064   1.228   6.894
14187TIP3   OH242501   5.865   6.499   2.056
14187TIP3    H142502   5.862   6.456   2.141
14187TIP3    H242503   5.861   6.427   1.992
14188TIP3   OH242504   2.977   7.667   5.418
14188TIP3    H142505   2.947   7.757   5.408
14188TIP3    H242506   2.944   7.621   5.341
14189TIP3   OH242507   4.414   5.683   0.580
14189TIP3    H142508   4.457   5.678   0.495
14189TIP3    H242509   4.474   5.636   0.639
14190TIP3   OH242510   1.591   4.765   4.133
14190TIP3    H142511   1.557   4.787   4.219
14190TIP3    H242512   1.563   4.837   4.076
14191TIP3   OH242513   7.223   0.697   4.492
14191TIP3    H142514   7.289   0.766   4.490
14191TIP3    H242515   7.173   0.714   4.571
14192TIP3   OH242516   7.465   6.970   3.432
14192TIP3    H142517   7.439   6.971   3.340
14192TIP3    H242518   7.499   7.058   3.448
14193TIP3   OH242519   6.170   2.879   4.575
14193TIP3    H142520   6.234   2.915   4.637
14193TIP3    H242521   6.101   2.945   4.571
14194TIP3   OH242522   2.555   5.430   6.400
14194TIP3    H142523   2.559   5.450   6.494
14194TIP3    H242524   2.605   5.501   6.359
14195TIP3   OH242525   3.434   1.154   3.167
14195TIP3    H142526   3.376   1.187   3.235
14195TIP3    H242527   3.378   1.098   3.113
14196TIP3   OH242528   7.109   7.477   2.116
14196TIP3    H142529   7.120   7.479   2.211
14196TIP3    H242530   7.015   7.485   2.103
14197TIP3   OH242531   6.998   0.429   3.185
14197TIP3    H142532   7.055   0.353   3.193
14197TIP3    H242533   7.047   0.489   3.129
14198TIP3   OH242534   7.501   1.265   3.322
14198TIP3    H142535   7.438   1.250   3.252
14198TIP3    H242536   7.573   1.204   3.303
14199TIP3   OH242537   7.610   3.075   1.861
14199TIP3    H142538   7.667   3.070   1.785
14199TIP3    H242539   7.640   3.153   1.908
14200TIP3   OH242540   2.557   4.579   6.156
14200TIP3    H142541   2.608   4.585   6.237
14200TIP3    H242542   2.613   4.617   6.089
14201TIP3   OH242543   7.927   6.489   2.365
14201TIP3    H142544   7.850   6.447   2.327
14201TIP3    H242545   7.948   6.560   2.304
14202TIP3   OH242546   4.406   7.391   6.027
14202TIP3    H142547   4.439   7.403   6.116
14202TIP3    H242548   4.398   7.296   6.018
14203TIP3   OH242549   7.096   4.369   4.057
14203TIP3    H142550   7.104   4.360   4.152
14203TIP3    H242551   7.156   4.304   4.022
14204TIP3   OH242552   2.402   4.137   0.902
14204TIP3    H142553   2.316   4.177   0.900
14204TIP3    H242554   2.430   4.146   0.994
14205TIP3   OH242555   1.938   3.065   3.357
14205TIP3    H142556   1.964   2.976   3.380
14205TIP3    H242557   1.987   3.085   3.277
14206TIP3   OH242558   1.386   0.526   1.908
14206TIP3    H142559   1.391   0.477   1.826
14206TIP3    H242560   1.292   0.526   1.930
14207TIP3   OH242561   0.528   5.946   6.466
14207TIP3    H142562   0.598   5.891   6.433
14207TIP3    H242563   0.558   5.974   6.553
14208TIP3   OH242564   2.440   2.645   0.610
14208TIP3    H142565   2.498   2.639   0.533
14208TIP3    H242566   2.364   2.695   0.579
14209TIP3   OH242567   3.207   4.479   2.453
14209TIP3    H142568   3.149   4.542   2.496
14209TIP3    H242569   3.229   4.416   2.522
14210TIP3   OH242570   4.641   3.179   2.806
14210TIP3    H142571   4.665   3.098   2.761
14210TIP3    H242572   4.723   3.214   2.838
14211TIP3   OH242573   6.504   5.365   1.920
14211TIP3    H142574   6.558   5.344   1.844
14211TIP3    H242575   6.549   5.325   1.994
14212TIP3   OH242576   6.775   6.959   2.946
14212TIP3    H142577   6.788   6.919   3.032
14212TIP3    H242578   6.802   7.050   2.958
14213TIP3   OH242579   3.734   7.354   5.207
14213TIP3    H142580   3.750   7.410   5.130
14213TIP3    H242581   3.811   7.367   5.262
14214TIP3   OH242582   7.824   7.770   1.947
14214TIP3    H142583   7.846   7.843   1.889
14214TIP3    H242584   7.894   7.707   1.935
14215TIP3   OH242585   0.178   4.667   2.978
14215TIP3    H142586   0.273   4.672   2.990
14215TIP3    H242587   0.147   4.615   3.052
14216TIP3   OH242588   6.877   7.830   1.637
14216TIP3    H142589   6.941   7.781   1.688
14216TIP3    H242590   6.930   7.891   1.585
14217TIP3   OH242591   7.755   0.527   3.040
14217TIP3    H142592   7.670   0.566   3.021
14217TIP3    H242593   7.793   0.583   3.107
14218TIP3   OH242594   3.841   1.736   6.827
14218TIP3    H142595   3.850   1.705   6.737
14218TIP3    H242596   3.827   1.657   6.879
14219TIP3   OH242597   6.363   7.645   1.747
14219TIP3    H142598   6.308   7.699   1.804
14219TIP3    H242599   6.320   7.559   1.747
14220TIP3   OH242600   8.336   7.679   2.942
14220TIP3    H142601   8.305   7.635   2.863
14220TIP3    H242602   8.296   7.766   2.939
14221TIP3   OH242603   0.108   4.468   0.824
14221TIP3    H142604   0.036   4.454   0.762
14221TIP3    H242605   0.180   4.415   0.790
14222TIP3   OH242606   0.694   4.049   5.829
14222TIP3    H142607   0.766   4.113   5.830
14222TIP3    H242608   0.716   3.989   5.759
14223TIP3   OH242609   0.321   7.786   4.070
14223TIP3    H142610   0.356   7.854   4.013
14223TIP3    H242611   0.338   7.818   4.159
14224TIP3   OH242612   5.173   6.085   3.551
14224TIP3    H142613   5.224   6.128   3.482
14224TIP3    H242614   5.235   6.076   3.624
14225TIP3   OH242615   1.227   4.405   4.850
14225TIP3    H142616   1.230   4.401   4.755
14225TIP3    H242617   1.148   4.357   4.874
14226TIP3   OH242618   1.076   5.325   1.709
14226TIP3    H142619   1.064   5.295   1.619
14226TIP3    H242620   1.097   5.418   1.701
14227TIP3   OH242621   0.415   4.532   1.760
14227TIP3    H142622   0.339   4.587   1.741
14227TIP3    H242623   0.404   4.508   1.852
14228TIP3   OH242624   7.193   4.060   5.847
14228TIP3    H142625   7.257   4.010   5.898
14228TIP3    H242626   7.152   3.995   5.790
14229TIP3   OH242627   4.000   7.037   2.712
14229TIP3    H142628   3.906   7.027   2.723
14229TIP3    H242629   4.030   7.077   2.794
14230TIP3   OH242630   6.328   5.563   2.601
14230TIP3    H142631   6.389   5.573   2.674
14230TIP3    H242632   6.340   5.472   2.573
14231TIP3   OH242633   1.244   0.746   1.456
14231TIP3    H142634   1.169   0.776   1.508
14231TIP3    H242635   1.288   0.827   1.430
14232TIP3   OH242636   5.626   5.755   0.242
14232TIP3    H142637   5.623   5.705   0.324
14232TIP3    H242638   5.668   5.838   0.267
14233TIP3   OH242639   3.805   2.281   4.424
14233TIP3    H142640   3.763   2.256   4.342
14233TIP3    H242641   3.867   2.210   4.443
14234TIP3   OH242642   3.296   2.513   4.114
14234TIP3    H142643   3.316   2.598   4.076
14234TIP3    H242644   3.373   2.459   4.095
14235TIP3   OH242645   2.943   4.066   1.339
14235TIP3    H142646   2.892   4.041   1.416
14235TIP3    H242647   3.001   4.136   1.371
14236TIP3   OH242648   5.251   0.923   2.054
14236TIP3    H142649   5.256   0.892   2.144
14236TIP3    H242650   5.252   1.018   2.061
14237TIP3   OH242651   4.990   5.675   1.677
14237TIP3    H142652   5.034   5.754   1.646
14237TIP3    H242653   5.017   5.667   1.769
14238TIP3   OH242654   7.104   0.536   4.196
14238TIP3    H142655   7.132   0.470   4.132
14238TIP3    H242656   7.013   0.514   4.214
14239TIP3   OH242657   1.836   7.412   5.441
14239TIP3    H142658   1.845   7.318   5.430
14239TIP3    H242659   1.788   7.422   5.523
14240TIP3   OH242660   8.087   0.501   3.099
14240TIP3    H142661   8.011   0.547   3.133
14240TIP3    H242662   8.105   0.433   3.164
14241TIP3   OH242663   3.430   4.993   5.877
14241TIP3    H142664   3.465   5.068   5.830
14241TIP3    H242665   3.350   4.970   5.829
14242TIP3   OH242666   0.805   0.303   5.964
14242TIP3    H142667   0.745   0.364   6.007
14242TIP3    H242668   0.761   0.281   5.882
14243TIP3   OH242669   2.037   1.153   3.387
14243TIP3    H142670   1.968   1.109   3.338
14243TIP3    H242671   2.059   1.231   3.335
14244TIP3   OH242672   5.736   0.868   3.677
14244TIP3    H142673   5.736   0.959   3.705
14244TIP3    H242674   5.750   0.817   3.757
14245TIP3   OH242675   0.521   2.704   2.580
14245TIP3    H142676   0.441   2.653   2.596
14245TIP3    H242677   0.557   2.667   2.499
14246TIP3   OH242678   0.973   5.036   0.871
14246TIP3    H142679   0.916   4.959   0.869
14246TIP3    H242680   0.996   5.051   0.779
14247TIP3   OH242681   7.423   0.154   3.288
14247TIP3    H142682   7.494   0.096   3.260
14247TIP3    H242683   7.466   0.223   3.338
14248TIP3   OH242684   8.406   7.310   6.230
14248TIP3    H142685   8.388   7.220   6.260
14248TIP3    H242686   8.328   7.335   6.181
14249TIP3   OH242687   1.970   3.444   5.297
14249TIP3    H142688   1.888   3.420   5.253
14249TIP3    H242689   1.965   3.400   5.382
14250TIP3   OH242690   0.402   5.623   3.458
14250TIP3    H142691   0.487   5.605   3.497
14250TIP3    H242692   0.339   5.604   3.527
14251TIP3   OH242693   6.217   1.169   0.082
14251TIP3    H142694   6.303   1.188   0.044
14251TIP3    H242695   6.190   1.086   0.041
14252TIP3   OH242696   0.067   1.521   6.767
14252TIP3    H142697   0.137   1.547   6.827
14252TIP3    H242698   0.109   1.518   6.681
14253TIP3   OH242699   2.258   7.219   4.999
14253TIP3    H142700   2.305   7.157   4.943
14253TIP3    H242701   2.283   7.305   4.965
14254TIP3   OH242702   4.181   4.614   4.383
14254TIP3    H142703   4.260   4.568   4.356
14254TIP3    H242704   4.184   4.612   4.478
14255TIP3   OH242705   4.563   1.937   3.740
14255TIP3    H142706   4.602   1.850   3.736
14255TIP3    H242707   4.517   1.946   3.656
14256TIP3   OH242708   7.175   2.515   3.647
14256TIP3    H142709   7.090   2.522   3.603
14256TIP3    H242710   7.153   2.505   3.740
14257TIP3   OH242711   0.956   0.299   4.805
14257TIP3    H142712   0.873   0.335   4.834
14257TIP3    H242713   0.965   0.328   4.714
14258TIP3   OH242714   4.977   7.129   5.066
14258TIP3    H142715   4.888   7.103   5.039
14258TIP3    H242716   5.035   7.081   5.008
14259TIP3   OH242717   3.105   3.200   0.029
14259TIP3    H142718   3.184   3.150   0.006
14259TIP3    H242719   3.079   3.164   0.114
14260TIP3   OH242720   3.123   4.576   4.574
14260TIP3    H142721   3.180   4.551   4.647
14260TIP3    H242722   3.173   4.556   4.496
14261TIP3   OH242723   0.168   3.443   5.622
14261TIP3    H142724   0.259   3.416   5.636
14261TIP3    H242725   0.117   3.363   5.634
14262TIP3   OH242726   0.331   4.594   3.896
14262TIP3    H142727   0.364   4.664   3.951
14262TIP3    H242728   0.366   4.514   3.935
14263TIP3   OH242729   5.910   1.663   0.594
14263TIP3    H142730   5.910   1.747   0.641
14263TIP3    H242731   5.820   1.653   0.563
14264TIP3   OH242732   6.918   6.808   3.687
14264TIP3    H142733   6.879   6.725   3.659
14264TIP3    H242734   6.851   6.848   3.742
14265TIP3   OH242735   7.131   6.919   4.275
14265TIP3    H142736   7.045   6.922   4.318
14265TIP3    H242737   7.175   6.843   4.314
14266TIP3   OH242738   1.758   3.058   2.984
14266TIP3    H142739   1.690   3.068   3.051
14266TIP3    H242740   1.817   2.992   3.020
14267TIP3   OH242741   5.062   5.286   5.785
14267TIP3    H142742   5.114   5.305   5.707
14267TIP3    H242743   4.983   5.243   5.752
14268TIP3   OH242744   4.555   5.242   6.188
14268TIP3    H142745   4.552   5.146   6.195
14268TIP3    H242746   4.466   5.271   6.210
14269TIP3   OH242747   1.117   4.091   3.095
14269TIP3    H142748   1.171   4.045   3.031
14269TIP3    H242749   1.027   4.072   3.068
14270TIP3   OH242750   4.497   1.718   5.870
14270TIP3    H142751   4.495   1.728   5.775
14270TIP3    H242752   4.407   1.735   5.898
14271TIP3   OH242753   5.901   6.933   5.774
14271TIP3    H142754   5.809   6.917   5.793
14271TIP3    H242755   5.940   6.846   5.767
14272TIP3   OH242756   5.714   4.676   2.047
14272TIP3    H142757   5.758   4.591   2.047
14272TIP3    H242758   5.639   4.663   2.106
14273TIP3   OH242759   6.283   7.579   4.482
14273TIP3    H142760   6.200   7.591   4.529
14273TIP3    H242761   6.350   7.591   4.548
14274TIP3   OH242762   4.659   4.053   3.413
14274TIP3    H142763   4.745   4.067   3.373
14274TIP3    H242764   4.630   4.140   3.440
14275TIP3   OH242765   4.695   6.297   2.482
14275TIP3    H142766   4.713   6.245   2.560
14275TIP3    H242767   4.717   6.239   2.409
14276TIP3   OH242768   1.935   7.390   3.270
14276TIP3    H142769   1.874   7.444   3.221
14276TIP3    H242770   2.013   7.383   3.214
14277TIP3   OH242771   8.224   3.003   6.499
14277TIP3    H142772   8.199   3.092   6.472
14277TIP3    H242773   8.164   2.946   6.451
14278TIP3   OH242774   8.050   0.352   5.679
14278TIP3    H142775   8.144   0.337   5.685
14278TIP3    H242776   8.011   0.284   5.734
14279TIP3   OH242777   8.248   3.785   0.844
14279TIP3    H142778   8.247   3.864   0.899
14279TIP3    H242779   8.341   3.764   0.834
14280TIP3   OH242780   6.641   1.668   6.798
14280TIP3    H142781   6.661   1.758   6.827
14280TIP3    H242782   6.682   1.612   6.864
14281TIP3   OH242783   7.083   1.254   1.557
14281TIP3    H142784   7.018   1.191   1.588
14281TIP3    H242785   7.048   1.284   1.472
14282TIP3   OH242786   5.169   4.493   2.980
14282TIP3    H142787   5.180   4.529   2.892
14282TIP3    H242788   5.078   4.465   2.983
14283TIP3   OH242789   6.093   3.920   5.415
14283TIP3    H142790   6.138   3.845   5.375
14283TIP3    H242791   6.065   3.973   5.341
14284TIP3   OH242792   4.374   7.329   2.289
14284TIP3    H142793   4.426   7.255   2.322
14284TIP3    H242794   4.308   7.344   2.356
14285TIP3   OH242795   3.513   0.341   5.243
14285TIP3    H142796   3.521   0.355   5.337
14285TIP3    H242797   3.602   0.358   5.209
14286TIP3   OH242798   2.883   0.030   5.314
14286TIP3    H142799   2.878  -0.062   5.342
14286TIP3    H242800   2.827   0.076   5.375
14287TIP3   OH242801   5.351   1.643   2.848
14287TIP3    H142802   5.344   1.714   2.785
14287TIP3    H242803   5.441   1.611   2.838
14288TIP3   OH242804   4.654   0.550   3.560
14288TIP3    H142805   4.634   0.456   3.553
14288TIP3    H242806   4.677   0.563   3.652
14289TIP3   OH242807   3.368   3.492   2.340
14289TIP3    H142808   3.295   3.474   2.399
14289TIP3    H242809   3.444   3.499   2.397
14290TIP3   OH242810   0.897   7.501   3.423
14290TIP3    H142811   0.950   7.572   3.459
14290TIP3    H242812   0.851   7.464   3.499
14291TIP3   OH242813   5.521   6.178   6.311
14291TIP3    H142814   5.500   6.132   6.392
14291TIP3    H242815   5.602   6.226   6.331
14292TIP3   OH242816   0.701   2.653   3.192
14292TIP3    H142817   0.635   2.621   3.130
14292TIP3    H242818   0.662   2.639   3.278
14293TIP3   OH242819   0.669   5.415   6.759
14293TIP3    H142820   0.625   5.338   6.793
14293TIP3    H242821   0.693   5.391   6.669
14294TIP3   OH242822   8.311   7.880   6.549
14294TIP3    H142823   8.347   7.948   6.606
14294TIP3    H242824   8.292   7.807   6.608
14295TIP3   OH242825   4.929   4.896   3.397
14295TIP3    H142826   4.882   4.867   3.475
14295TIP3    H242827   4.986   4.823   3.374
14296TIP3   OH242828   6.308   4.097   4.826
14296TIP3    H142829   6.351   4.095   4.911
14296TIP3    H242830   6.228   4.148   4.841
14297TIP3   OH242831   2.185   0.564   2.403
14297TIP3    H142832   2.149   0.609   2.327
14297TIP3    H242833   2.219   0.634   2.458
14298TIP3   OH242834   6.996   4.586   5.772
14298TIP3    H142835   6.992   4.609   5.679
14298TIP3    H242836   7.024   4.495   5.774
14299TIP3   OH242837   1.433   6.871   0.041
14299TIP3    H142838   1.500   6.820   0.087
14299TIP3    H242839   1.479   6.951   0.014
14300TIP3   OH242840   2.214   1.839   4.077
14300TIP3    H142841   2.130   1.864   4.038
14300TIP3    H242842   2.233   1.753   4.039
14301TIP3   OH242843   0.137   2.170   2.563
14301TIP3    H142844   0.055   2.202   2.524
14301TIP3    H242845   0.147   2.220   2.644
14302TIP3   OH242846   7.991   6.343   0.982
14302TIP3    H142847   8.038   6.418   1.019
14302TIP3    H242848   7.900   6.374   0.973
14303TIP3   OH242849   3.658   6.325   5.465
14303TIP3    H142850   3.682   6.248   5.515
14303TIP3    H242851   3.570   6.306   5.431
14304TIP3   OH242852   5.555   1.690   3.715
14304TIP3    H142853   5.516   1.757   3.658
14304TIP3    H242854   5.506   1.697   3.797
14305TIP3   OH242855   7.815   6.095   2.621
14305TIP3    H142856   7.886   6.102   2.558
14305TIP3    H242857   7.846   6.030   2.684
14306TIP3   OH242858   4.920   6.803   2.764
14306TIP3    H142859   4.853   6.865   2.791
14306TIP3    H242860   4.974   6.789   2.842
14307TIP3   OH242861   4.763   6.511   4.757
14307TIP3    H142862   4.765   6.563   4.677
14307TIP3    H242863   4.735   6.424   4.729
14308TIP3   OH242864   6.128   0.226   0.737
14308TIP3    H142865   6.092   0.198   0.821
14308TIP3    H242866   6.058   0.212   0.674
14309TIP3   OH242867   6.631   1.086   4.149
14309TIP3    H142868   6.705   1.090   4.209
14309TIP3    H242869   6.610   1.177   4.131
14310TIP3   OH242870   3.873   7.240   3.819
14310TIP3    H142871   3.880   7.226   3.724
14310TIP3    H242872   3.940   7.182   3.856
14311TIP3   OH242873   4.895   0.687   5.456
14311TIP3    H142874   4.924   0.772   5.491
14311TIP3    H242875   4.966   0.627   5.478
14312TIP3   OH242876   5.935   3.301   6.716
14312TIP3    H142877   5.875   3.369   6.683
14312TIP3    H242878   5.987   3.346   6.783
14313TIP3   OH242879   3.159   1.627   1.062
14313TIP3    H142880   3.241   1.643   1.109
14313TIP3    H242881   3.091   1.649   1.125
14314TIP3   OH242882   2.651   2.464   0.040
14314TIP3    H142883   2.588   2.452  -0.031
14314TIP3    H242884   2.657   2.378   0.082
14315TIP3   OH242885   2.885   2.915   5.164
14315TIP3    H142886   2.813   2.976   5.149
14315TIP3    H242887   2.859   2.868   5.243
14316TIP3   OH242888   2.579   7.751   1.369
14316TIP3    H142889   2.578   7.700   1.288
14316TIP3    H242890   2.498   7.801   1.368
14317TIP3   OH242891   6.070   1.623   0.312
14317TIP3    H142892   6.094   1.535   0.341
14317TIP3    H242893   5.993   1.646   0.365
14318TIP3   OH242894   7.395   1.610   2.546
14318TIP3    H142895   7.337   1.645   2.479
14318TIP3    H242896   7.341   1.603   2.624
14319TIP3   OH242897   2.579   3.762   2.253
14319TIP3    H142898   2.600   3.681   2.299
14319TIP3    H242899   2.603   3.832   2.314
14320TIP3   OH242900   5.414   2.586   1.068
14320TIP3    H142901   5.355   2.616   1.137
14320TIP3    H242902   5.499   2.623   1.092
14321TIP3   OH242903   5.223   6.561   2.547
14321TIP3    H142904   5.230   6.548   2.641
14321TIP3    H242905   5.306   6.527   2.512
14322TIP3   OH242906   0.229   2.069   1.257
14322TIP3    H142907   0.185   2.147   1.289
14322TIP3    H242908   0.159   2.004   1.248
14323TIP3   OH242909   1.303   5.954   6.752
14323TIP3    H142910   1.218   5.944   6.709
14323TIP3    H242911   1.305   6.044   6.783
14324TIP3   OH242912   1.490   5.481   0.702
14324TIP3    H142913   1.476   5.571   0.732
14324TIP3    H242914   1.464   5.427   0.776
14325TIP3   OH242915   1.899   4.129   1.201
14325TIP3    H142916   1.889   4.212   1.154
14325TIP3    H242917   1.969   4.147   1.265
14326TIP3   OH242918   2.010   0.455   4.246
14326TIP3    H142919   2.041   0.371   4.212
14326TIP3    H242920   1.922   0.465   4.210
14327TIP3   OH242921   8.340   6.739   2.372
14327TIP3    H142922   8.435   6.726   2.370
14327TIP3    H242923   8.304   6.655   2.344
14328TIP3   OH242924   4.555   4.888   1.203
14328TIP3    H142925   4.583   4.924   1.119
14328TIP3    H242926   4.615   4.928   1.266
14329TIP3   OH242927   6.454   0.968   3.460
14329TIP3    H142928   6.439   0.884   3.418
14329TIP3    H242929   6.372   0.988   3.504
14330TIP3   OH242930   3.148   6.524   2.330
14330TIP3    H142931   3.178   6.584   2.262
14330TIP3    H242932   3.140   6.578   2.409
14331TIP3   OH242933   4.408   4.630   2.413
14331TIP3    H142934   4.321   4.639   2.452
14331TIP3    H242935   4.423   4.535   2.409
14332TIP3   OH242936   3.912   3.583   3.050
14332TIP3    H142937   3.820   3.607   3.048
14332TIP3    H242938   3.959   3.663   3.025
14333TIP3   OH242939   4.242   0.262   2.321
14333TIP3    H142940   4.334   0.289   2.327
14333TIP3    H242941   4.197   0.337   2.282
14334TIP3   OH242942   4.091   6.195   2.127
14334TIP3    H142943   4.073   6.269   2.185
14334TIP3    H242944   4.143   6.233   2.056
14335TIP3   OH242945   1.393   7.914   0.161
14335TIP3    H142946   1.402   7.860   0.083
14335TIP3    H242947   1.340   7.988   0.132
14336TIP3   OH242948   7.940   1.231   4.152
14336TIP3    H142949   7.940   1.205   4.245
14336TIP3    H242950   8.001   1.170   4.111
14337TIP3   OH242951   3.540   3.887   6.701
14337TIP3    H142952   3.581   3.973   6.710
14337TIP3    H242953   3.518   3.881   6.608
14338TIP3   OH242954   1.749   6.153   1.537
14338TIP3    H142955   1.657   6.177   1.530
14338TIP3    H242956   1.760   6.128   1.629
14339TIP3   OH242957   2.599   6.145   6.436
14339TIP3    H142958   2.613   6.226   6.485
14339TIP3    H242959   2.554   6.087   6.498
14340TIP3   OH242960   3.515   1.129   1.472
14340TIP3    H142961   3.609   1.118   1.459
14340TIP3    H242962   3.476   1.103   1.388
14341TIP3   OH242963   4.791   6.659   4.347
14341TIP3    H142964   4.805   6.572   4.308
14341TIP3    H242965   4.841   6.719   4.291
14342TIP3   OH242966   3.522   2.284   2.399
14342TIP3    H142967   3.438   2.240   2.407
14342TIP3    H242968   3.527   2.341   2.476
14343TIP3   OH242969   3.439   7.748   1.045
14343TIP3    H142970   3.529   7.753   1.078
14343TIP3    H242971   3.411   7.658   1.065
14344TIP3   OH242972   4.872   6.603   5.181
14344TIP3    H142973   4.959   6.637   5.201
14344TIP3    H242974   4.888   6.531   5.120
14345TIP3   OH242975   2.772   7.214   1.724
14345TIP3    H142976   2.788   7.155   1.798
14345TIP3    H242977   2.799   7.300   1.756
14346TIP3   OH242978   6.946   5.190   4.127
14346TIP3    H142979   7.013   5.209   4.192
14346TIP3    H242980   6.915   5.102   4.149
14347TIP3   OH242981   0.482   5.820   5.442
14347TIP3    H142982   0.491   5.801   5.536
14347TIP3    H242983   0.442   5.742   5.405
14348TIP3   OH242984   5.338   4.551   5.409
14348TIP3    H142985   5.387   4.598   5.476
14348TIP3    H242986   5.275   4.615   5.375
14349TIP3   OH242987   2.567   6.237   1.472
14349TIP3    H142988   2.549   6.331   1.467
14349TIP3    H242989   2.568   6.207   1.381
14350TIP3   OH242990   2.188   3.177   1.447
14350TIP3    H142991   2.148   3.093   1.471
14350TIP3    H242992   2.186   3.228   1.528
14351TIP3   OH242993   8.253   6.747   1.409
14351TIP3    H142994   8.163   6.766   1.433
14351TIP3    H242995   8.306   6.793   1.474
14352TIP3   OH242996   7.754   7.632   0.000
14352TIP3    H142997   7.825   7.651   0.061
14352TIP3    H242998   7.746   7.537   0.001
14353TIP3   OH242999   6.488   0.038   5.803
14353TIP3    H143000   6.501   0.057   5.710
14353TIP3    H243001   6.482  -0.057   5.807
14354TIP3   OH243002   3.448   3.543   4.787
14354TIP3    H143003   3.519   3.603   4.808
14354TIP3    H243004   3.490   3.473   4.736
14355TIP3   OH243005   3.614  -0.016   3.504
14355TIP3    H143006   3.574   0.034   3.433
14355TIP3    H243007   3.664   0.050   3.553
14356TIP3   OH243008   6.094   6.403   5.757
14356TIP3    H143009   6.152   6.370   5.688
14356TIP3    H243010   6.025   6.337   5.765
14357TIP3   OH243011   2.688   3.515   2.366
14357TIP3    H143012   2.677   3.421   2.352
14357TIP3    H243013   2.776   3.534   2.336
14358TIP3   OH243014   8.235   6.044   6.382
14358TIP3    H143015   8.261   5.969   6.436
14358TIP3    H243016   8.193   6.004   6.305
14359TIP3   OH243017   2.158   1.767   0.213
14359TIP3    H143018   2.089   1.787   0.148
14359TIP3    H243019   2.232   1.737   0.160
14360TIP3   OH243020   1.833   6.691   0.892
14360TIP3    H143021   1.927   6.708   0.885
14360TIP3    H243022   1.791   6.770   0.857
14361TIP3   OH243023   4.947   3.139   5.532
14361TIP3    H143024   4.885   3.132   5.460
14361TIP3    H243025   4.896   3.118   5.610
14362TIP3   OH243026   3.931   3.565   5.836
14362TIP3    H143027   3.917   3.482   5.882
14362TIP3    H243028   3.937   3.540   5.744
14363TIP3   OH243029   6.810   6.156   6.384
14363TIP3    H143030   6.815   6.108   6.467
14363TIP3    H243031   6.846   6.243   6.404
14364TIP3   OH243032   4.032   3.184   5.145
14364TIP3    H143033   3.994   3.269   5.124
14364TIP3    H243034   4.116   3.184   5.098
14365TIP3   OH243035   3.353   0.860   4.247
14365TIP3    H143036   3.305   0.778   4.240
14365TIP3    H243037   3.333   0.891   4.335
14366TIP3   OH243038   7.835   3.321   2.469
14366TIP3    H143039   7.882   3.280   2.542
14366TIP3    H243040   7.769   3.257   2.444
14367TIP3   OH243041   1.355   3.917   4.118
14367TIP3    H143042   1.286   3.902   4.053
14367TIP3    H243043   1.417   3.975   4.074
14368TIP3   OH243044   0.251   4.426   2.302
14368TIP3    H143045   0.167   4.471   2.288
14368TIP3    H243046   0.245   4.346   2.250
14369TIP3   OH243047   2.920   3.611   1.366
14369TIP3    H143048   3.003   3.659   1.363
14369TIP3    H243049   2.864   3.655   1.302
14370TIP3   OH243050   1.206   6.430   2.757
14370TIP3    H143051   1.226   6.511   2.710
14370TIP3    H243052   1.182   6.459   2.845
14371TIP3   OH243053   2.933   3.410   4.826
14371TIP3    H143054   2.966   3.422   4.915
14371TIP3    H243055   2.871   3.337   4.832
14372TIP3   OH243056   7.989   3.626   1.847
14372TIP3    H143057   8.060   3.574   1.810
14372TIP3    H243058   7.909   3.580   1.820
14373TIP3   OH243059   3.159   6.380   1.978
14373TIP3    H143060   3.066   6.401   1.974
14373TIP3    H243061   3.170   6.308   1.915
14374TIP3   OH243062   7.942   5.446   1.771
14374TIP3    H143063   7.879   5.509   1.736
14374TIP3    H243064   7.892   5.394   1.834
14375TIP3   OH243065   5.027   3.123   6.707
14375TIP3    H143066   4.987   3.067   6.640
14375TIP3    H243067   4.983   3.100   6.788
14376TIP3   OH243068   7.889   3.257   0.132
14376TIP3    H143069   7.897   3.168   0.097
14376TIP3    H243070   7.795   3.273   0.138
14377TIP3   OH243071   0.481   5.857   4.113
14377TIP3    H143072   0.545   5.911   4.068
14377TIP3    H243073   0.497   5.768   4.080
14378TIP3   OH243074   8.143   3.430   1.716
14378TIP3    H143075   8.152   3.336   1.699
14378TIP3    H243076   8.195   3.471   1.647
14379TIP3   OH243077   6.016   6.750   0.778
14379TIP3    H143078   6.025   6.845   0.767
14379TIP3    H243079   5.929   6.730   0.744
14380TIP3   OH243080   6.282   4.957   3.182
14380TIP3    H143081   6.240   5.006   3.111
14380TIP3    H243082   6.217   4.956   3.252
14381TIP3   OH243083   2.221   1.361   1.357
14381TIP3    H143084   2.303   1.409   1.369
14381TIP3    H243085   2.241   1.271   1.385
14382TIP3   OH243086   5.115   6.925   6.034
14382TIP3    H143087   5.022   6.904   6.044
14382TIP3    H243088   5.160   6.847   6.066
14383TIP3   OH243089   2.654   4.691   0.373
14383TIP3    H143090   2.631   4.599   0.384
14383TIP3    H243091   2.570   4.738   0.377
14384TIP3   OH243092   8.251   6.021   2.027
14384TIP3    H143093   8.271   6.062   1.943
14384TIP3    H243094   8.326   6.043   2.083
14385TIP3   OH243095   7.530   3.773   1.315
14385TIP3    H143096   7.614   3.743   1.350
14385TIP3    H243097   7.548   3.796   1.224
14386TIP3   OH243098   6.880   7.874   0.336
14386TIP3    H143099   6.874   7.781   0.316
14386TIP3    H243100   6.812   7.915   0.282
14387TIP3   OH243101   7.589   4.722   2.030
14387TIP3    H143102   7.652   4.755   2.094
14387TIP3    H243103   7.534   4.797   2.009
14388TIP3   OH243104   1.945   2.959   4.094
14388TIP3    H143105   1.949   2.963   3.998
14388TIP3    H243106   1.912   2.872   4.113
14389TIP3   OH243107   6.024   3.479   1.931
14389TIP3    H143108   6.001   3.542   1.999
14389TIP3    H243109   6.066   3.531   1.863
14390TIP3   OH243110   5.045   0.335   0.203
14390TIP3    H143111   4.967   0.280   0.206
14390TIP3    H243112   5.116   0.275   0.181
14391TIP3   OH243113   2.069   6.313   5.968
14391TIP3    H143114   2.043   6.226   5.996
14391TIP3    H243115   2.076   6.364   6.050
14392TIP3   OH243116   8.192   3.149   3.160
14392TIP3    H143117   8.130   3.087   3.124
14392TIP3    H243118   8.139   3.224   3.187
14393TIP3   OH243119   7.002   6.495   1.895
14393TIP3    H143120   6.998   6.438   1.972
14393TIP3    H243121   6.911   6.522   1.881
14394TIP3   OH243122   6.105   3.048   1.929
14394TIP3    H143123   6.157   2.968   1.926
14394TIP3    H243124   6.151   3.109   1.872
14395TIP3   OH243125   0.782   4.358   1.425
14395TIP3    H143126   0.811   4.331   1.338
14395TIP3    H243127   0.803   4.284   1.481
14396TIP3   OH243128   5.458   7.579   3.484
14396TIP3    H143129   5.524   7.635   3.524
14396TIP3    H243130   5.441   7.619   3.398
14397TIP3   OH243131   6.634   0.648   6.553
14397TIP3    H143132   6.620   0.612   6.466
14397TIP3    H243133   6.548   0.676   6.582
14398TIP3   OH243134   0.824   6.250   2.697
14398TIP3    H143135   0.831   6.197   2.776
14398TIP3    H243136   0.733   6.240   2.669
14399TIP3   OH243137   2.924   4.995   4.088
14399TIP3    H143138   2.965   4.949   4.015
14399TIP3    H243139   2.873   4.928   4.133
14400TIP3   OH243140   6.849   2.078   2.440
14400TIP3    H143141   6.895   2.077   2.524
14400TIP3    H243142   6.783   2.146   2.450
14401TIP3   OH243143   2.821   6.857   4.945
14401TIP3    H143144   2.836   6.831   4.854
14401TIP3    H243145   2.866   6.941   4.954
14402TIP3   OH243146   5.228   5.510   2.211
14402TIP3    H143147   5.156   5.559   2.251
14402TIP3    H243148   5.235   5.431   2.264
14403TIP3   OH243149   7.089   0.074   1.629
14403TIP3    H143150   7.083  -0.021   1.639
14403TIP3    H243151   7.184   0.092   1.628
14404TIP3   OH243152   7.336   2.638   1.547
14404TIP3    H143153   7.340   2.652   1.642
14404TIP3    H243154   7.389   2.560   1.532
14405TIP3   OH243155   7.127   0.074   6.712
14405TIP3    H143156   7.109   0.061   6.619
14405TIP3    H243157   7.146  -0.014   6.744
14406TIP3   OH243158   7.908   2.390   5.078
14406TIP3    H143159   7.970   2.324   5.109
14406TIP3    H243160   7.824   2.364   5.116
14407TIP3   OH243161   6.611   4.879   0.859
14407TIP3    H143162   6.631   4.938   0.932
14407TIP3    H243163   6.570   4.803   0.901
14408TIP3   OH243164   2.526   0.374   1.112
14408TIP3    H143165   2.504   0.467   1.105
14408TIP3    H243166   2.498   0.349   1.200
14409TIP3   OH243167   6.910   0.243   1.463
14409TIP3    H143168   6.945   0.175   1.519
14409TIP3    H243169   6.980   0.259   1.398
14410TIP3   OH243170   4.171   5.020   1.902
14410TIP3    H143171   4.152   4.957   1.971
14410TIP3    H243172   4.192   5.101   1.948
14411TIP3   OH243173   6.323   3.369   1.473
14411TIP3    H143174   6.271   3.341   1.549
14411TIP3    H243175   6.380   3.438   1.506
14412TIP3   OH243176   2.581   3.279   3.689
14412TIP3    H143177   2.599   3.358   3.639
14412TIP3    H243178   2.609   3.300   3.778
14413TIP3   OH243179   5.364   2.077   5.666
14413TIP3    H143180   5.310   2.008   5.707
14413TIP3    H243181   5.442   2.031   5.636
14414TIP3   OH243182   5.023   3.367   5.619
14414TIP3    H143183   4.949   3.370   5.679
14414TIP3    H243184   5.017   3.280   5.579
14415TIP3   OH243185   0.732   6.465   1.704
14415TIP3    H143186   0.754   6.381   1.743
14415TIP3    H243187   0.669   6.504   1.764
14416TIP3   OH243188   6.637   5.287   1.398
14416TIP3    H143189   6.595   5.275   1.313
14416TIP3    H243190   6.606   5.373   1.427
14417TIP3   OH243191   0.866   1.049   0.809
14417TIP3    H143192   0.883   1.011   0.896
14417TIP3    H243193   0.946   1.097   0.788
14418TIP3   OH243194   7.192   4.906   5.700
14418TIP3    H143195   7.241   4.988   5.711
14418TIP3    H243196   7.245   4.855   5.639
14419TIP3   OH243197   8.029   5.383   5.065
14419TIP3    H143198   7.975   5.410   5.140
14419TIP3    H243199   8.118   5.377   5.100
14420TIP3   OH243200   1.281   1.391   4.783
14420TIP3    H143201   1.357   1.442   4.811
14420TIP3    H243202   1.223   1.455   4.741
14421TIP3   OH243203   4.473   3.310   6.464
14421TIP3    H143204   4.556   3.314   6.511
14421TIP3    H243205   4.422   3.244   6.511
14422TIP3   OH243206   5.766   4.643   3.260
14422TIP3    H143207   5.821   4.619   3.185
14422TIP3    H243208   5.803   4.726   3.291
14423TIP3   OH243209   0.347   5.321   2.971
14423TIP3    H143210   0.338   5.361   3.058
14423TIP3    H243211   0.314   5.232   2.982
14424TIP3   OH243212   3.993   5.622   2.000
14424TIP3    H143213   3.914   5.665   2.031
14424TIP3    H243214   4.055   5.693   1.986
14425TIP3   OH243215   4.743   3.887   6.113
14425TIP3    H143216   4.823   3.864   6.064
14425TIP3    H243217   4.730   3.815   6.174
14426TIP3   OH243218   5.817   4.248   0.770
14426TIP3    H143219   5.752   4.280   0.707
14426TIP3    H243220   5.882   4.202   0.716
14427TIP3   OH243221   2.144   1.530   1.944
14427TIP3    H143222   2.113   1.463   2.005
14427TIP3    H243223   2.091   1.607   1.962
14428TIP3   OH243224   0.694   1.995   6.317
14428TIP3    H143225   0.653   1.931   6.374
14428TIP3    H243226   0.717   1.946   6.238
14429TIP3   OH243227   3.792   2.960   3.680
14429TIP3    H143228   3.791   2.866   3.698
14429TIP3    H243229   3.781   2.966   3.586
14430TIP3   OH243230   2.457   1.527   4.281
14430TIP3    H143231   2.538   1.553   4.238
14430TIP3    H243232   2.457   1.431   4.274
14431TIP3   OH243233   0.065   6.255   2.580
14431TIP3    H143234   0.018   6.312   2.519
14431TIP3    H243235   0.140   6.224   2.529
14432TIP3   OH243236   3.056   5.258   3.516
14432TIP3    H143237   3.055   5.353   3.512
14432TIP3    H243238   3.093   5.238   3.602
14433TIP3   OH243239   0.979   3.242   1.965
14433TIP3    H143240   0.937   3.177   2.021
14433TIP3    H243241   0.914   3.312   1.956
14434TIP3   OH243242   5.263   4.382   4.970
14434TIP3    H143243   5.325   4.310   4.977
14434TIP3    H243244   5.180   4.340   4.947
14435TIP3   OH243245   4.875   6.638   2.226
14435TIP3    H143246   4.889   6.673   2.137
14435TIP3    H243247   4.952   6.666   2.275
14436TIP3   OH243248   7.730   6.740   2.907
14436TIP3    H143249   7.812   6.786   2.924
14436TIP3    H243250   7.666   6.810   2.895
14437TIP3   OH243251   0.028   5.309   6.866
14437TIP3    H143252   0.072   5.393   6.854
14437TIP3    H243253   0.064   5.253   6.796
14438TIP3   OH243254   7.216   6.553   4.644
14438TIP3    H143255   7.257   6.622   4.696
14438TIP3    H243256   7.125   6.582   4.634
14439TIP3   OH243257   1.679   0.243   5.423
14439TIP3    H143258   1.663   0.312   5.488
14439TIP3    H243259   1.742   0.185   5.465
14440TIP3   OH243260   5.659   7.371   2.705
14440TIP3    H143261   5.698   7.452   2.739
14440TIP3    H243262   5.734   7.317   2.681
14441TIP3   OH243263   5.795   2.170   2.296
14441TIP3    H143264   5.848   2.101   2.255
14441TIP3    H243265   5.712   2.127   2.315
14442TIP3   OH243266   4.844   5.274   1.241
14442TIP3    H143267   4.762   5.312   1.211
14442TIP3    H243268   4.880   5.229   1.165
14443TIP3   OH243269   2.764   7.856   1.985
14443TIP3    H143270   2.840   7.819   2.031
14443TIP3    H243271   2.769   7.950   2.002
14444TIP3   OH243272   6.732   6.427   4.019
14444TIP3    H143273   6.801   6.489   3.995
14444TIP3    H243274   6.732   6.362   3.948
14445TIP3   OH243275   2.814   7.106   2.596
14445TIP3    H143276   2.874   7.056   2.652
14445TIP3    H243277   2.866   7.182   2.568
14446TIP3   OH243278   7.404   5.958   4.853
14446TIP3    H143279   7.423   5.883   4.908
14446TIP3    H243280   7.442   5.936   4.768
14447TIP3   OH243281   2.862   6.620   4.015
14447TIP3    H143282   2.870   6.526   4.000
14447TIP3    H243283   2.936   6.643   4.071
14448TIP3   OH243284   5.114   4.678   3.342
14448TIP3    H143285   5.150   4.660   3.429
14448TIP3    H243286   5.087   4.592   3.309
14449TIP3   OH243287   1.018   0.453   0.343
14449TIP3    H143288   1.083   0.472   0.275
14449TIP3    H243289   0.990   0.538   0.375
14450TIP3   OH243290   3.819   1.403   2.120
14450TIP3    H143291   3.757   1.330   2.118
14450TIP3    H243292   3.897   1.366   2.162
14451TIP3   OH243293   5.448   3.570   2.060
14451TIP3    H143294   5.531   3.546   2.102
14451TIP3    H243295   5.474   3.626   1.987
14452TIP3   OH243296   0.344   4.327   0.898
14452TIP3    H143297   0.352   4.401   0.838
14452TIP3    H243298   0.304   4.365   0.977
14453TIP3   OH243299   4.544   7.484   0.516
14453TIP3    H143300   4.610   7.548   0.490
14453TIP3    H243301   4.589   7.400   0.509
14454TIP3   OH243302   7.833   3.596   2.504
14454TIP3    H143303   7.858   3.503   2.507
14454TIP3    H243304   7.896   3.639   2.562
14455TIP3   OH243305   4.475   1.916   5.028
14455TIP3    H143306   4.442   1.872   4.950
14455TIP3    H243307   4.437   1.867   5.101
14456TIP3   OH243308   1.291   6.612   4.761
14456TIP3    H143309   1.290   6.685   4.700
14456TIP3    H243310   1.291   6.652   4.848
14457TIP3   OH243311   1.582   5.609   4.541
14457TIP3    H143312   1.614   5.592   4.453
14457TIP3    H243313   1.494   5.645   4.528
14458TIP3   OH243314   2.571   1.939   2.135
14458TIP3    H143315   2.503   2.006   2.130
14458TIP3    H243316   2.619   1.947   2.053
14459TIP3   OH243317   4.162   6.623   1.535
14459TIP3    H143318   4.248   6.621   1.493
14459TIP3    H243319   4.153   6.537   1.576
14460TIP3   OH243320   0.121   1.120   2.622
14460TIP3    H143321   0.111   1.215   2.619
14460TIP3    H243322   0.173   1.104   2.701
14461TIP3   OH243323   0.645   3.658   2.340
14461TIP3    H143324   0.727   3.610   2.327
14461TIP3    H243325   0.577   3.593   2.323
14462TIP3   OH243326   8.109   2.717   3.801
14462TIP3    H143327   8.124   2.723   3.895
14462TIP3    H243328   8.090   2.624   3.786
14463TIP3   OH243329   5.568   3.707   1.555
14463TIP3    H143330   5.655   3.745   1.567
14463TIP3    H243331   5.533   3.750   1.477
14464TIP3   OH243332   3.239   4.523   0.578
14464TIP3    H143333   3.253   4.497   0.488
14464TIP3    H243334   3.143   4.530   0.586
14465TIP3   OH243335   3.250   7.532   2.132
14465TIP3    H143336   3.193   7.460   2.160
14465TIP3    H243337   3.252   7.525   2.036
14466TIP3   OH243338   0.852   2.067   2.209
14466TIP3    H143339   0.858   1.999   2.277
14466TIP3    H243340   0.797   2.028   2.141
14467TIP3   OH243341   4.466   3.888   3.515
14467TIP3    H143342   4.530   3.939   3.466
14467TIP3    H243343   4.387   3.890   3.461
14468TIP3   OH243344   6.127   1.071   1.147
14468TIP3    H143345   6.096   0.981   1.147
14468TIP3    H243346   6.192   1.075   1.077
14469TIP3   OH243347   3.080   4.874   0.610
14469TIP3    H143348   3.107   4.963   0.591
14469TIP3    H243349   3.011   4.856   0.547
14470TIP3   OH243350   4.543   1.416   0.313
14470TIP3    H143351   4.484   1.341   0.308
14470TIP3    H243352   4.605   1.393   0.383
14471TIP3   OH243353   1.435   4.378   1.787
14471TIP3    H143354   1.509   4.350   1.841
14471TIP3    H243355   1.395   4.296   1.759
14472TIP3   OH243356   7.922   2.770   5.963
14472TIP3    H143357   7.939   2.864   5.963
14472TIP3    H243358   7.851   2.758   5.901
14473TIP3   OH243359   7.002   3.684   5.114
14473TIP3    H143360   6.978   3.720   5.028
14473TIP3    H243361   7.085   3.728   5.134
14474TIP3   OH243362   7.166   7.603   5.324
14474TIP3    H143363   7.219   7.681   5.343
14474TIP3    H243364   7.096   7.636   5.268
14475TIP3   OH243365   4.286   6.168   2.554
14475TIP3    H143366   4.314   6.142   2.466
14475TIP3    H243367   4.254   6.087   2.594
14476TIP3   OH243368   0.831   4.625   0.347
14476TIP3    H143369   0.821   4.535   0.315
14476TIP3    H243370   0.781   4.678   0.285
14477TIP3   OH243371   1.159   5.790   3.523
14477TIP3    H143372   1.140   5.804   3.615
14477TIP3    H243373   1.092   5.839   3.476
14478TIP3   OH243374   1.695   2.813   3.334
14478TIP3    H143375   1.670   2.726   3.366
14478TIP3    H243376   1.624   2.838   3.275
14479TIP3   OH243377   2.394   1.929   2.384
14479TIP3    H143378   2.361   1.907   2.297
14479TIP3    H243379   2.484   1.958   2.369
14480TIP3   OH243380   5.522   1.971   6.636
14480TIP3    H143381   5.509   1.998   6.727
14480TIP3    H243382   5.588   2.031   6.602
14481TIP3   OH243383   2.964   4.126   2.406
14481TIP3    H143384   2.976   4.106   2.313
14481TIP3    H243385   2.999   4.214   2.417
14482TIP3   OH243386   4.645   3.306   4.077
14482TIP3    H143387   4.568   3.344   4.120
14482TIP3    H243388   4.718   3.361   4.106
14483TIP3   OH243389   1.029   3.889   5.933
14483TIP3    H143390   0.937   3.863   5.942
14483TIP3    H243391   1.026   3.970   5.883
14484TIP3   OH243392   2.711   7.758   0.375
14484TIP3    H143393   2.712   7.713   0.460
14484TIP3    H243394   2.802   7.755   0.346
14485TIP3   OH243395   7.468   3.938   2.852
14485TIP3    H143396   7.417   3.999   2.905
14485TIP3    H243397   7.518   3.993   2.792
14486TIP3   OH243398   5.858   6.283   1.875
14486TIP3    H143399   5.840   6.221   1.806
14486TIP3    H243400   5.946   6.316   1.855
14487TIP3   OH243401   4.837   3.393   0.447
14487TIP3    H143402   4.850   3.477   0.404
14487TIP3    H243403   4.742   3.388   0.462
14488TIP3   OH243404   4.290   7.626   0.534
14488TIP3    H143405   4.378   7.590   0.527
14488TIP3    H243406   4.289   7.700   0.475
14489TIP3   OH243407   5.676   7.543   0.385
14489TIP3    H143408   5.587   7.526   0.418
14489TIP3    H243409   5.721   7.582   0.460
14490TIP3   OH243410   4.633   3.834   4.815
14490TIP3    H143411   4.668   3.801   4.732
14490TIP3    H243412   4.542   3.859   4.794
14491TIP3   OH243413   3.221   7.508   0.666
14491TIP3    H143414   3.270   7.589   0.681
14491TIP3    H243415   3.245   7.481   0.578
14492TIP3   OH243416   0.117   0.911   6.532
14492TIP3    H143417   0.189   0.854   6.503
14492TIP3    H243418   0.116   0.982   6.469
14493TIP3   OH243419   5.564   0.978   2.433
14493TIP3    H143420   5.561   0.891   2.394
14493TIP3    H243421   5.637   0.974   2.495
14494TIP3   OH243422   6.473   5.467   4.418
14494TIP3    H143423   6.449   5.422   4.337
14494TIP3    H243424   6.496   5.556   4.390
14495TIP3   OH243425   3.385   0.413   6.182
14495TIP3    H143426   3.472   0.373   6.182
14495TIP3    H243427   3.345   0.385   6.264
14496TIP3   OH243428   2.493   1.247   5.911
14496TIP3    H143429   2.487   1.335   5.872
14496TIP3    H243430   2.485   1.188   5.837
14497TIP3   OH243431   7.032   2.117   1.443
14497TIP3    H143432   7.068   2.169   1.371
14497TIP3    H243433   7.020   2.181   1.514
14498TIP3   OH243434   0.515   1.440   6.512
14498TIP3    H143435   0.611   1.440   6.513
14498TIP3    H243436   0.492   1.375   6.445
14499TIP3   OH243437   0.050   1.351   1.234
14499TIP3    H143438   0.028   1.419   1.297
14499TIP3    H243439   0.145   1.340   1.242
14500TIP3   OH243440   4.685   0.583   0.174
14500TIP3    H143441   4.736   0.538   0.107
14500TIP3    H243442   4.742   0.585   0.251
14501TIP3   OH243443   1.876   6.999   3.455
14501TIP3    H143444   1.935   6.984   3.381
14501TIP3    H243445   1.934   6.998   3.532
14502TIP3   OH243446   3.675   7.275   3.459
14502TIP3    H143447   3.645   7.186   3.443
14502TIP3    H243448   3.605   7.330   3.424
14503TIP3   OH243449   4.259   3.330   6.037
14503TIP3    H143450   4.333   3.290   6.082
14503TIP3    H243451   4.219   3.257   5.988
14504TIP3   OH243452   8.391   3.963   3.614
14504TIP3    H143453   8.318   3.950   3.553
14504TIP3    H243454   8.382   3.892   3.677
14505TIP3   OH243455   0.273   7.459   2.362
14505TIP3    H143456   0.318   7.536   2.327
14505TIP3    H243457   0.272   7.473   2.457
14506TIP3   OH243458   5.134   2.927   5.642
14506TIP3    H143459   5.118   2.885   5.726
14506TIP3    H243460   5.052   2.916   5.594
14507TIP3   OH243461   1.770   7.392   0.448
14507TIP3    H143462   1.690   7.341   0.438
14507TIP3    H243463   1.801   7.407   0.359
14508TIP3   OH243464   8.220   6.545   3.678
14508TIP3    H143465   8.242   6.467   3.627
14508TIP3    H243466   8.126   6.538   3.695
14509TIP3   OH243467   3.888   4.101   2.363
14509TIP3    H143468   3.917   4.010   2.365
14509TIP3    H243469   3.963   4.149   2.326
14510TIP3   OH243470   5.626   4.485   5.070
14510TIP3    H143471   5.591   4.411   5.119
14510TIP3    H243472   5.576   4.486   4.988
14511TIP3   OH243473   2.817   6.144   5.711
14511TIP3    H143474   2.877   6.215   5.732
14511TIP3    H243475   2.729   6.182   5.719
14512TIP3   OH243476   0.441   5.608   0.462
14512TIP3    H143477   0.361   5.584   0.508
14512TIP3    H243478   0.451   5.539   0.395
14513TIP3   OH243479   0.156   2.659   2.519
14513TIP3    H143480   0.221   2.605   2.565
14513TIP3    H243481   0.117   2.599   2.455
14514TIP3   OH243482   7.429   5.071   4.125
14514TIP3    H143483   7.424   5.045   4.217
14514TIP3    H243484   7.464   5.160   4.127
14515TIP3   OH243485   1.944   2.752   0.707
14515TIP3    H143486   1.932   2.747   0.612
14515TIP3    H243487   1.858   2.777   0.740
14516TIP3   OH243488   2.925   1.650   0.050
14516TIP3    H143489   2.891   1.618  -0.033
14516TIP3    H243490   2.883   1.595   0.116
14517TIP3   OH243491   5.631   7.827   5.136
14517TIP3    H143492   5.556   7.829   5.195
14517TIP3    H243493   5.687   7.899   5.166
14518TIP3   OH243494   0.175   4.153   0.667
14518TIP3    H143495   0.119   4.134   0.743
14518TIP3    H243496   0.177   4.071   0.618
14519TIP3   OH243497   7.567   4.135   0.373
14519TIP3    H143498   7.562   4.124   0.278
14519TIP3    H243499   7.660   4.133   0.393
14520TIP3   OH243500   5.723   5.403   4.286
14520TIP3    H143501   5.630   5.405   4.267
14520TIP3    H243502   5.751   5.494   4.280
14521TIP3   OH243503   6.301   5.819   6.681
14521TIP3    H143504   6.302   5.731   6.642
14521TIP3    H243505   6.394   5.841   6.690
14522TIP3   OH243506   2.017   5.074   5.151
14522TIP3    H143507   2.090   5.018   5.177
14522TIP3    H243508   1.979   5.104   5.234
14523TIP3   OH243509   2.420   5.570   5.694
14523TIP3    H143510   2.350   5.604   5.639
14523TIP3    H243511   2.390   5.483   5.721
14524TIP3   OH243512   2.311   0.487   4.016
14524TIP3    H143513   2.251   0.527   3.953
14524TIP3    H243514   2.396   0.524   3.994
14525TIP3   OH243515   2.378   0.974   5.982
14525TIP3    H143516   2.282   0.966   5.980
14525TIP3    H243517   2.394   1.067   5.997
14526TIP3   OH243518   0.978   5.353   3.708
14526TIP3    H143519   1.048   5.297   3.741
14526TIP3    H243520   0.898   5.302   3.723
14527TIP3   OH243521   0.889   5.357   6.295
14527TIP3    H143522   0.897   5.429   6.233
14527TIP3    H243523   0.901   5.278   6.242
14528TIP3   OH243524   7.975   5.068   5.368
14528TIP3    H143525   8.041   5.109   5.312
14528TIP3    H243526   7.895   5.070   5.316
14529TIP3   OH243527   4.318   2.959   0.842
14529TIP3    H143528   4.231   2.998   0.841
14529TIP3    H243529   4.312   2.886   0.780
14530TIP3   OH243530   0.836   7.882   3.921
14530TIP3    H143531   0.926   7.850   3.912
14530TIP3    H243532   0.781   7.805   3.908
14531TIP3   OH243533   1.625   0.737   3.304
14531TIP3    H143534   1.593   0.776   3.385
14531TIP3    H243535   1.718   0.720   3.321
14532TIP3   OH243536   2.206   3.529   5.426
14532TIP3    H143537   2.150   3.504   5.352
14532TIP3    H243538   2.146   3.558   5.494
14533TIP3   OH243539   6.673   1.686   3.115
14533TIP3    H143540   6.729   1.632   3.170
14533TIP3    H243541   6.584   1.654   3.131
14534TIP3   OH243542   6.874   5.843   4.988
14534TIP3    H143543   6.967   5.822   4.984
14534TIP3    H243544   6.870   5.938   4.973
14535TIP3   OH243545   1.511   1.329   1.892
14535TIP3    H143546   1.580   1.340   1.827
14535TIP3    H243547   1.459   1.256   1.860
14536TIP3   OH243548   3.557   4.619   2.147
14536TIP3    H143549   3.609   4.599   2.069
14536TIP3    H243550   3.468   4.596   2.123
14537TIP3   OH243551   0.367   6.200   6.784
14537TIP3    H143552   0.341   6.159   6.702
14537TIP3    H243553   0.293   6.187   6.842
14538TIP3   OH243554   3.108   2.378   5.693
14538TIP3    H143555   3.096   2.378   5.788
14538TIP3    H243556   3.090   2.288   5.666
14539TIP3   OH243557   4.502   5.281   0.527
14539TIP3    H143558   4.530   5.191   0.547
14539TIP3    H243559   4.407   5.275   0.518
14540TIP3   OH243560   7.230   7.277   1.078
14540TIP3    H143561   7.173   7.354   1.074
14540TIP3    H243562   7.196   7.218   1.010
14541TIP3   OH243563   1.119   3.785   3.986
14541TIP3    H143564   1.122   3.732   4.066
14541TIP3    H243565   1.026   3.791   3.966
14542TIP3   OH243566   1.623   6.494   2.630
14542TIP3    H143567   1.600   6.534   2.713
14542TIP3    H243568   1.643   6.568   2.572
14543TIP3   OH243569   2.263   4.083   1.976
14543TIP3    H143570   2.174   4.069   1.943
14543TIP3    H243571   2.279   4.177   1.965
14544TIP3   OH243572   4.049   2.265   0.242
14544TIP3    H143573   4.014   2.205   0.308
14544TIP3    H243574   4.140   2.236   0.231
14545TIP3   OH243575   6.459   4.183   2.577
14545TIP3    H143576   6.389   4.146   2.632
14545TIP3    H243577   6.532   4.196   2.637
14546TIP3   OH243578   0.920   6.455   5.841
14546TIP3    H143579   0.854   6.504   5.792
14546TIP3    H243580   0.996   6.451   5.784
14547TIP3   OH243581   4.248   6.429   2.587
14547TIP3    H143582   4.274   6.337   2.577
14547TIP3    H243583   4.153   6.426   2.597
14548TIP3   OH243584   6.524   2.015   0.328
14548TIP3    H143585   6.592   1.977   0.383
14548TIP3    H243586   6.572   2.059   0.257
14549TIP3   OH243587   2.436   7.483   4.584
14549TIP3    H143588   2.518   7.512   4.624
14549TIP3    H243589   2.448   7.500   4.491
14550TIP3   OH243590   2.425   7.625   2.761
14550TIP3    H143591   2.431   7.682   2.837
14550TIP3    H243592   2.338   7.585   2.767
14551TIP3   OH243593   3.989   4.526   6.268
14551TIP3    H143594   3.935   4.464   6.219
14551TIP3    H243595   3.940   4.544   6.348
14552TIP3   OH243596   7.175   6.581   2.523
14552TIP3    H143597   7.219   6.618   2.599
14552TIP3    H243598   7.082   6.595   2.539
14553TIP3   OH243599   2.487   4.489   6.540
14553TIP3    H143600   2.429   4.462   6.468
14553TIP3    H243601   2.444   4.565   6.578
14554TIP3   OH243602   5.270   1.496   2.517
14554TIP3    H143603   5.204   1.429   2.499
14554TIP3    H243604   5.346   1.447   2.548
14555TIP3   OH243605   8.357   7.762   3.691
14555TIP3    H143606   8.369   7.789   3.599
14555TIP3    H243607   8.265   7.736   3.697
14556TIP3   OH243608   7.423   5.363   6.565
14556TIP3    H143609   7.385   5.414   6.493
14556TIP3    H243610   7.361   5.291   6.579
14557TIP3   OH243611   4.552   6.099   0.795
14557TIP3    H143612   4.573   6.015   0.835
14557TIP3    H243613   4.621   6.113   0.731
14558TIP3   OH243614   1.572   0.662   5.053
14558TIP3    H143615   1.552   0.569   5.044
14558TIP3    H243616   1.657   0.673   5.010
14559TIP3   OH243617   2.870   5.389   0.608
14559TIP3    H143618   2.848   5.436   0.688
14559TIP3    H243619   2.961   5.362   0.620
14560TIP3   OH243620   1.622   0.747   3.577
14560TIP3    H143621   1.711   0.717   3.560
14560TIP3    H243622   1.576   0.670   3.611
14561TIP3   OH243623   7.466   0.136   0.722
14561TIP3    H143624   7.464   0.150   0.817
14561TIP3    H243625   7.517   0.210   0.689
14562TIP3   OH243626   3.637   2.123   4.912
14562TIP3    H143627   3.705   2.122   4.844
14562TIP3    H243628   3.580   2.195   4.887
14563TIP3   OH243629   7.314   6.517   3.150
14563TIP3    H143630   7.246   6.512   3.084
14563TIP3    H243631   7.297   6.443   3.208
14564TIP3   OH243632   5.511   6.794   0.191
14564TIP3    H143633   5.426   6.754   0.205
14564TIP3    H243634   5.542   6.757   0.108
14565TIP3   OH243635   0.091   4.817   2.466
14565TIP3    H143636   0.170   4.871   2.469
14565TIP3    H243637   0.091   4.770   2.549
14566TIP3   OH243638   2.275   7.871   3.637
14566TIP3    H143639   2.285   7.817   3.715
14566TIP3    H243640   2.187   7.850   3.604
14567TIP3   OH243641   7.557   6.873   4.758
14567TIP3    H143642   7.626   6.807   4.755
14567TIP3    H243643   7.556   6.911   4.670
14568TIP3   OH243644   4.550   6.224   6.182
14568TIP3    H143645   4.529   6.131   6.178
14568TIP3    H243646   4.510   6.254   6.264
14569TIP3   OH243647   2.042   7.421   3.959
14569TIP3    H143648   2.023   7.385   3.872
14569TIP3    H243649   1.991   7.368   4.019
14570TIP3   OH243650   2.940   0.868   5.950
14570TIP3    H143651   2.983   0.953   5.964
14570TIP3    H243652   2.880   0.860   6.024
14571TIP3   OH243653   6.791   5.492   5.485
14571TIP3    H143654   6.719   5.482   5.423
14571TIP3    H243655   6.862   5.531   5.433
14572TIP3   OH243656   1.656   0.718   1.858
14572TIP3    H143657   1.742   0.688   1.887
14572TIP3    H243658   1.605   0.638   1.845
14573TIP3   OH243659   0.620   5.502   4.876
14573TIP3    H143660   0.609   5.416   4.835
14573TIP3    H243661   0.688   5.489   4.942
14574TIP3   OH243662   7.110   6.349   3.952
14574TIP3    H143663   7.066   6.434   3.958
14574TIP3    H243664   7.060   6.301   3.886
14575TIP3   OH243665   3.961   7.599   1.227
14575TIP3    H143666   4.020   7.620   1.155
14575TIP3    H243667   3.975   7.506   1.243
14576TIP3   OH243668   6.967   4.604   6.363
14576TIP3    H143669   6.909   4.566   6.297
14576TIP3    H243670   7.055   4.579   6.335
14577TIP3   OH243671   3.146   3.910   4.151
14577TIP3    H143672   3.123   3.914   4.244
14577TIP3    H243673   3.086   3.973   4.110
14578TIP3   OH243674   4.272   1.577   2.861
14578TIP3    H143675   4.316   1.497   2.890
14578TIP3    H243676   4.244   1.620   2.941
14579TIP3   OH243677   7.328   5.732   5.806
14579TIP3    H143678   7.270   5.685   5.865
14579TIP3    H243679   7.352   5.811   5.854
14580TIP3   OH243680   0.685   2.360   3.822
14580TIP3    H143681   0.750   2.295   3.795
14580TIP3    H243682   0.664   2.336   3.913
14581TIP3   OH243683   1.922   2.483   3.827
14581TIP3    H143684   1.960   2.520   3.907
14581TIP3    H243685   1.998   2.457   3.774
14582TIP3   OH243686   1.307   1.106   4.213
14582TIP3    H143687   1.262   1.184   4.181
14582TIP3    H243688   1.244   1.035   4.203
14583TIP3   OH243689   8.286   5.944   0.038
14583TIP3    H143690   8.210   5.899   0.076
14583TIP3    H243691   8.333   5.979   0.114
14584TIP3   OH243692   6.595   3.159   2.244
14584TIP3    H143693   6.662   3.094   2.223
14584TIP3    H243694   6.541   3.116   2.311
14585TIP3   OH243695   1.421   2.660   3.955
14585TIP3    H143696   1.486   2.675   3.888
14585TIP3    H243697   1.347   2.715   3.930
14586TIP3   OH243698   2.581   6.549   3.590
14586TIP3    H143699   2.508   6.520   3.644
14586TIP3    H243700   2.653   6.560   3.652
14587TIP3   OH243701   2.809   7.068   4.656
14587TIP3    H143702   2.755   7.032   4.586
14587TIP3    H243703   2.870   6.998   4.679
14588TIP3   OH243704   7.282   5.398   3.116
14588TIP3    H143705   7.235   5.323   3.153
14588TIP3    H243706   7.344   5.423   3.184
14589TIP3   OH243707   5.328   3.048   4.621
14589TIP3    H143708   5.235   3.025   4.618
14589TIP3    H243709   5.328   3.142   4.639
14590TIP3   OH243710   2.723   3.417   0.090
14590TIP3    H143711   2.759   3.505   0.079
14590TIP3    H243712   2.774   3.379   0.161
14591TIP3   OH243713   5.091   7.178   3.740
14591TIP3    H143714   5.159   7.245   3.728
14591TIP3    H243715   5.100   7.122   3.663
14592TIP3   OH243716   4.982   0.616   4.270
14592TIP3    H143717   5.025   0.589   4.351
14592TIP3    H243718   4.917   0.680   4.299
14593TIP3   OH243719   5.826   3.778   4.525
14593TIP3    H143720   5.803   3.844   4.459
14593TIP3    H243721   5.745   3.730   4.540
14594TIP3   OH243722   7.267   0.742   0.725
14594TIP3    H143723   7.340   0.721   0.668
14594TIP3    H243724   7.221   0.659   0.737
14595TIP3   OH243725   1.125   2.151   6.739
14595TIP3    H143726   1.160   2.068   6.772
14595TIP3    H243727   1.127   2.141   6.644
14596TIP3   OH243728   3.765   1.508   2.785
14596TIP3    H143729   3.686   1.523   2.732
14596TIP3    H243730   3.734   1.517   2.875
14597TIP3   OH243731   4.723   4.371   5.793
14597TIP3    H143732   4.752   4.295   5.843
14597TIP3    H243733   4.741   4.348   5.702
14598TIP3   OH243734   5.887   2.632   6.134
14598TIP3    H143735   5.868   2.553   6.185
14598TIP3    H243736   5.982   2.639   6.135
14599TIP3   OH243737   7.480   1.280   1.550
14599TIP3    H143738   7.486   1.367   1.512
14599TIP3    H243739   7.445   1.294   1.638
14600TIP3   OH243740   4.352   2.998   1.289
14600TIP3    H143741   4.362   2.926   1.226
14600TIP3    H243742   4.389   3.074   1.245
14601TIP3   OH243743   4.685   0.424   0.503
14601TIP3    H143744   4.698   0.402   0.411
14601TIP3    H243745   4.717   0.513   0.512
14602TIP3   OH243746   1.629   5.664   3.598
14602TIP3    H143747   1.712   5.620   3.579
14602TIP3    H243748   1.654   5.744   3.644
14603TIP3   OH243749   1.254   0.501   0.798
14603TIP3    H143750   1.286   0.583   0.758
14603TIP3    H243751   1.325   0.439   0.782
14604TIP3   OH243752   5.103   1.350   1.360
14604TIP3    H143753   5.174   1.414   1.358
14604TIP3    H243754   5.142   1.272   1.400
14605TIP3   OH243755   2.065   6.016   3.109
14605TIP3    H143756   2.056   6.047   3.199
14605TIP3    H243757   2.048   6.092   3.054
14606TIP3   OH243758   3.643   2.992   3.126
14606TIP3    H143759   3.574   2.929   3.146
14606TIP3    H243760   3.718   2.937   3.102
14607TIP3   OH243761   5.267   1.026   2.495
14607TIP3    H143762   5.362   1.018   2.483
14607TIP3    H243763   5.229   0.970   2.428
14608TIP3   OH243764   0.083   2.532   3.861
14608TIP3    H143765   0.177   2.530   3.880
14608TIP3    H243766   0.066   2.623   3.835
14609TIP3   OH243767   6.931   2.005   1.702
14609TIP3    H143768   6.964   1.972   1.618
14609TIP3    H243769   7.008   2.038   1.747
14610TIP3   OH243770   8.066   0.424   4.567
14610TIP3    H143771   8.061   0.329   4.573
14610TIP3    H243772   8.144   0.441   4.514
14611TIP3   OH243773   1.421   6.098   3.522
14611TIP3    H143774   1.382   6.106   3.609
14611TIP3    H243775   1.421   6.004   3.504
14612TIP3   OH243776   2.455   7.430   5.504
14612TIP3    H143777   2.451   7.520   5.472
14612TIP3    H243778   2.512   7.385   5.442
14613TIP3   OH243779   8.378   3.190   0.243
14613TIP3    H143780   8.332   3.270   0.267
14613TIP3    H243781   8.463   3.219   0.210
14614TIP3   OH243782   3.654   3.844   2.453
14614TIP3    H143783   3.642   3.807   2.365
14614TIP3    H243784   3.741   3.813   2.480
14615TIP3   OH243785   5.109   3.756   5.534
14615TIP3    H143786   5.113   3.851   5.548
14615TIP3    H243787   5.067   3.722   5.612
14616TIP3   OH243788   6.976   4.211   0.243
14616TIP3    H143789   6.989   4.297   0.282
14616TIP3    H243790   6.886   4.214   0.209
14617TIP3   OH243791   7.147   2.473   3.273
14617TIP3    H143792   7.073   2.520   3.234
14617TIP3    H243793   7.208   2.541   3.300
14618TIP3   OH243794   1.801   4.249   3.767
14618TIP3    H143795   1.884   4.201   3.771
14618TIP3    H243796   1.803   4.307   3.843
14619TIP3   OH243797   4.864   5.140   4.646
14619TIP3    H143798   4.837   5.139   4.738
14619TIP3    H243799   4.905   5.054   4.633
14620TIP3   OH243800   0.462   7.475   0.521
14620TIP3    H143801   0.389   7.534   0.503
14620TIP3    H243802   0.426   7.409   0.580
14621TIP3   OH243803   5.763   1.859   2.890
14621TIP3    H143804   5.776   1.953   2.879
14621TIP3    H243805   5.705   1.833   2.819
14622TIP3   OH243806   3.979   0.526   0.175
14622TIP3    H143807   3.954   0.478   0.095
14622TIP3    H243808   4.060   0.484   0.203
14623TIP3   OH243809   5.186   3.266   2.985
14623TIP3    H143810   5.257   3.209   2.958
14623TIP3    H243811   5.204   3.286   3.077
14624TIP3   OH243812   1.732   7.171   3.698
14624TIP3    H143813   1.638   7.189   3.695
14624TIP3    H243814   1.751   7.161   3.791
14625TIP3   OH243815   7.789   2.784   5.589
14625TIP3    H143816   7.738   2.844   5.644
14625TIP3    H243817   7.755   2.697   5.610
14626TIP3   OH243818   0.167   0.476   5.538
14626TIP3    H143819   0.107   0.543   5.505
14626TIP3    H243820   0.186   0.421   5.462
14627TIP3   OH243821   6.904   3.241   3.461
14627TIP3    H143822   6.886   3.307   3.395
14627TIP3    H243823   6.818   3.219   3.497
14628TIP3   OH243824   2.069   7.685   4.319
14628TIP3    H143825   2.006   7.679   4.247
14628TIP3    H243826   2.016   7.711   4.395
14629TIP3   OH243827   4.956   3.183   2.904
14629TIP3    H143828   4.948   3.095   2.939
14629TIP3    H243829   5.042   3.214   2.933
14630TIP3   OH243830   1.586   2.146   0.689
14630TIP3    H143831   1.613   2.227   0.646
14630TIP3    H243832   1.650   2.133   0.759
14631TIP3   OH243833   7.608   4.906   2.441
14631TIP3    H143834   7.610   4.812   2.459
14631TIP3    H243835   7.605   4.912   2.346
14632TIP3   OH243836   4.531   5.934   5.308
14632TIP3    H143837   4.615   5.957   5.269
14632TIP3    H243838   4.552   5.867   5.373
14633TIP3   OH243839   5.737   2.871   5.256
14633TIP3    H143840   5.643   2.887   5.255
14633TIP3    H243841   5.752   2.805   5.189
14634TIP3   OH243842   2.636   0.678   1.514
14634TIP3    H143843   2.578   0.649   1.444
14634TIP3    H243844   2.714   0.623   1.504
14635TIP3   OH243845   1.955   2.835   5.485
14635TIP3    H143846   1.896   2.776   5.533
14635TIP3    H243847   1.970   2.908   5.544
14636TIP3   OH243848   3.100   4.700   3.243
14636TIP3    H143849   3.166   4.643   3.283
14636TIP3    H243850   3.122   4.700   3.150
14637TIP3   OH243851   3.674   2.062   3.952
14637TIP3    H143852   3.681   2.004   3.876
14637TIP3    H243853   3.607   2.021   4.007
14638TIP3   OH243854   7.557   2.916   4.319
14638TIP3    H143855   7.521   3.002   4.300
14638TIP3    H243856   7.564   2.874   4.233
14639TIP3   OH243857   1.800   0.059   0.728
14639TIP3    H143858   1.832  -0.031   0.727
14639TIP3    H243859   1.725   0.059   0.669
14640TIP3   OH243860   4.558   6.310   0.974
14640TIP3    H143861   4.514   6.260   0.905
14640TIP3    H243862   4.650   6.310   0.947
14641TIP3   OH243863   4.686   5.800   5.499
14641TIP3    H143864   4.765   5.821   5.449
14641TIP3    H243865   4.685   5.864   5.570
14642TIP3   OH243866   6.794   1.138   4.642
14642TIP3    H143867   6.840   1.197   4.702
14642TIP3    H243868   6.861   1.074   4.617
14643TIP3   OH243869   7.610   2.697   3.135
14643TIP3    H143870   7.557   2.622   3.111
14643TIP3    H243871   7.550   2.754   3.185
14644TIP3   OH243872   7.797   2.799   6.352
14644TIP3    H143873   7.774   2.730   6.289
14644TIP3    H243874   7.732   2.868   6.337
14645TIP3   OH243875   3.246   6.564   3.229
14645TIP3    H143876   3.288   6.634   3.279
14645TIP3    H243877   3.159   6.556   3.268
14646TIP3   OH243878   0.536   1.958   5.977
14646TIP3    H143879   0.549   1.881   5.923
14646TIP3    H243880   0.447   1.948   6.012
14647TIP3   OH243881   7.968   6.718   5.858
14647TIP3    H143882   8.019   6.638   5.843
14647TIP3    H243883   7.963   6.760   5.772
14648TIP3   OH243884   5.683   6.556   6.549
14648TIP3    H143885   5.598   6.578   6.510
14648TIP3    H243886   5.692   6.617   6.623
14649TIP3   OH243887   5.245   7.336   2.452
14649TIP3    H143888   5.249   7.296   2.364
14649TIP3    H243889   5.319   7.396   2.455
14650TIP3   OH243890   2.833   0.041   2.937
14650TIP3    H143891   2.926   0.029   2.916
14650TIP3    H243892   2.823  -0.002   3.022
14651TIP3   OH243893   5.957   2.569   1.696
14651TIP3    H143894   6.016   2.636   1.732
14651TIP3    H243895   5.870   2.603   1.713
14652TIP3   OH243896   2.666   2.405   3.656
14652TIP3    H143897   2.668   2.461   3.578
14652TIP3    H243898   2.598   2.443   3.711
14653TIP3   OH243899   8.119   3.344   5.408
14653TIP3    H143900   8.062   3.417   5.430
14653TIP3    H243901   8.060   3.271   5.393
14654TIP3   OH243902   8.308   1.212   4.356
14654TIP3    H143903   8.251   1.156   4.408
14654TIP3    H243904   8.393   1.207   4.401
14655TIP3   OH243905   0.426   3.948   6.381
14655TIP3    H143906   0.404   3.911   6.466
14655TIP3    H243907   0.344   3.943   6.331
14656TIP3   OH243908   2.628   6.776   1.026
14656TIP3    H143909   2.670   6.691   1.013
14656TIP3    H243910   2.692   6.840   0.995
14657TIP3   OH243911   0.383   0.655   4.879
14657TIP3    H143912   0.460   0.599   4.884
14657TIP3    H243913   0.309   0.594   4.876
14658TIP3   OH243914   4.035   4.561   3.109
14658TIP3    H143915   4.074   4.605   3.034
14658TIP3    H243916   4.104   4.502   3.140
14659TIP3   OH243917   3.435   6.323   1.489
14659TIP3    H143918   3.491   6.400   1.472
14659TIP3    H243919   3.497   6.252   1.505
14660TIP3   OH243920   1.249   0.254   2.082
14660TIP3    H143921   1.204   0.335   2.060
14660TIP3    H243922   1.330   0.282   2.125
14661TIP3   OH243923   3.825   2.822   0.415
14661TIP3    H143924   3.873   2.747   0.451
14661TIP3    H243925   3.831   2.810   0.320
14662TIP3   OH243926   5.660   3.966   3.872
14662TIP3    H143927   5.668   3.877   3.838
14662TIP3    H243928   5.586   4.003   3.824
14663TIP3   OH243929   7.331   7.431   5.968
14663TIP3    H143930   7.323   7.339   5.944
14663TIP3    H243931   7.355   7.476   5.887
14664TIP3   OH243932   5.844   1.396   2.497
14664TIP3    H143933   5.901   1.473   2.498
14664TIP3    H243934   5.901   1.325   2.467
14665TIP3   OH243935   2.738   1.903   1.305
14665TIP3    H143936   2.834   1.909   1.312
14665TIP3    H243937   2.711   1.990   1.275
14666TIP3   OH243938   4.021   5.790   4.712
14666TIP3    H143939   4.074   5.737   4.652
14666TIP3    H243940   4.084   5.820   4.778
14667TIP3   OH243941   2.123   4.805   2.568
14667TIP3    H143942   2.155   4.720   2.600
14667TIP3    H243943   2.184   4.829   2.499
14668TIP3   OH243944   0.589   2.270   4.091
14668TIP3    H143945   0.495   2.251   4.094
14668TIP3    H243946   0.631   2.187   4.110
14669TIP3   OH243947   7.651   5.671   1.981
14669TIP3    H143948   7.744   5.663   2.002
14669TIP3    H243949   7.646   5.655   1.887
14670TIP3   OH243950   5.665   6.272   6.620
14670TIP3    H143951   5.667   6.272   6.716
14670TIP3    H243952   5.673   6.365   6.597
14671TIP3   OH243953   0.502   3.762   6.149
14671TIP3    H143954   0.510   3.717   6.233
14671TIP3    H243955   0.450   3.702   6.095
14672TIP3   OH243956   6.065   3.926   6.213
14672TIP3    H143957   5.976   3.907   6.241
14672TIP3    H243958   6.080   3.868   6.139
14673TIP3   OH243959   5.809   1.616   4.525
14673TIP3    H143960   5.725   1.612   4.572
14673TIP3    H243961   5.817   1.708   4.499
14674TIP3   OH243962   3.135   6.034   3.027
14674TIP3    H143963   3.061   6.044   2.967
14674TIP3    H243964   3.207   6.081   2.985
14675TIP3   OH243965   7.237   7.734   2.279
14675TIP3    H143966   7.232   7.702   2.369
14675TIP3    H243967   7.324   7.708   2.249
14676TIP3   OH243968   4.537   5.011   0.447
14676TIP3    H143969   4.479   5.065   0.393
14676TIP3    H243970   4.621   5.014   0.402
14677TIP3   OH243971   7.878   1.835   4.857
14677TIP3    H143972   7.858   1.749   4.895
14677TIP3    H243973   7.858   1.825   4.764
14678TIP3   OH243974   7.504   2.386   4.745
14678TIP3    H143975   7.499   2.411   4.653
14678TIP3    H243976   7.451   2.452   4.791
14679TIP3   OH243977   8.299   1.486   4.969
14679TIP3    H143978   8.354   1.464   5.044
14679TIP3    H243979   8.360   1.494   4.896
14680TIP3   OH243980   5.011   0.924   5.537
14680TIP3    H143981   5.059   0.945   5.617
14680TIP3    H243982   5.055   0.975   5.469
14681TIP3   OH243983   8.091   0.864   1.002
14681TIP3    H143984   8.174   0.831   1.034
14681TIP3    H243985   8.074   0.942   1.054
14682TIP3   OH243986   7.393   0.619   2.373
14682TIP3    H143987   7.398   0.555   2.443
14682TIP3    H243988   7.300   0.621   2.350
14683TIP3   OH243989   8.209   4.993   6.643
14683TIP3    H143990   8.158   4.917   6.614
14683TIP3    H243991   8.144   5.053   6.680
14684TIP3   OH243992   1.297   7.689   5.771
14684TIP3    H143993   1.265   7.649   5.852
14684TIP3    H243994   1.242   7.767   5.760
14685TIP3   OH243995   1.943   6.892   4.510
14685TIP3    H143996   1.922   6.946   4.434
14685TIP3    H243997   1.868   6.834   4.520
14686TIP3   OH243998   4.921   6.674   1.967
14686TIP3    H143999   4.877   6.680   1.883
14686TIP3    H244000   4.983   6.746   1.967
14687TIP3   OH244001   5.472   1.370   5.552
14687TIP3    H144002   5.381   1.399   5.562
14687TIP3    H244003   5.473   1.325   5.467
14688TIP3   OH244004   5.486   2.291   4.569
14688TIP3    H144005   5.507   2.384   4.580
14688TIP3    H244006   5.391   2.290   4.556
14689TIP3   OH244007   2.883   0.668   0.864
14689TIP3    H144008   2.879   0.669   0.768
14689TIP3    H244009   2.874   0.760   0.889
14690TIP3   OH244010   6.075   4.000   0.020
14690TIP3    H144011   6.061   4.094   0.025
14690TIP3    H244012   6.009   3.969  -0.042
14691TIP3   OH244013   6.821   5.031   6.517
14691TIP3    H144014   6.804   5.112   6.468
14691TIP3    H244015   6.899   4.994   6.477
14692TIP3   OH244016   4.881   4.677   4.936
14692TIP3    H144017   4.888   4.732   5.014
14692TIP3    H244018   4.971   4.668   4.905
14693TIP3   OH244019   1.019   6.054   2.575
14693TIP3    H144020   0.973   5.986   2.624
14693TIP3    H244021   0.987   6.136   2.612
14694TIP3   OH244022   1.718   0.426   6.273
14694TIP3    H144023   1.661   0.372   6.327
14694TIP3    H244024   1.687   0.411   6.184
14695TIP3   OH244025   7.536   5.978   2.531
14695TIP3    H144026   7.508   6.067   2.508
14695TIP3    H244027   7.616   5.990   2.582
14696TIP3   OH244028   3.639   6.675   4.496
14696TIP3    H144029   3.563   6.640   4.450
14696TIP3    H244030   3.619   6.768   4.506
14697TIP3   OH244031   6.372   7.116   2.095
14697TIP3    H144032   6.371   7.083   2.005
14697TIP3    H244033   6.280   7.122   2.119
14698TIP3   OH244034   7.354   7.521   1.721
14698TIP3    H144035   7.428   7.583   1.726
14698TIP3    H244036   7.306   7.536   1.803
14699TIP3   OH244037   6.489   7.087   2.599
14699TIP3    H144038   6.491   6.998   2.564
14699TIP3    H244039   6.536   7.139   2.534
14700TIP3   OH244040   5.368   7.665   4.262
14700TIP3    H144041   5.437   7.599   4.272
14700TIP3    H244042   5.416   7.747   4.247
14701TIP3   OH244043   2.155   5.167   3.462
14701TIP3    H144044   2.159   5.121   3.545
14701TIP3    H244045   2.235   5.140   3.416
14702TIP3   OH244046   5.400   3.155   2.549
14702TIP3    H144047   5.464   3.199   2.493
14702TIP3    H244048   5.450   3.088   2.595
14703TIP3   OH244049   2.429   1.131   4.779
14703TIP3    H144050   2.397   1.106   4.866
14703TIP3    H244051   2.496   1.197   4.795
14704TIP3   OH244052   7.182   6.158   1.027
14704TIP3    H144053   7.143   6.100   0.962
14704TIP3    H244054   7.116   6.164   1.096
14705TIP3   OH244055   2.068   7.627   6.357
14705TIP3    H144056   2.071   7.539   6.394
14705TIP3    H244057   2.058   7.613   6.262
14706TIP3   OH244058   3.161   1.280   6.706
14706TIP3    H144059   3.166   1.279   6.802
14706TIP3    H244060   3.225   1.346   6.680
14707TIP3   OH244061   5.716   6.051   5.047
14707TIP3    H144062   5.796   6.019   5.006
14707TIP3    H244063   5.742   6.132   5.091
14708TIP3   OH244064   2.318   0.347   0.184
14708TIP3    H144065   2.280   0.260   0.169
14708TIP3    H244066   2.337   0.381   0.097
14709TIP3   OH244067   0.447   0.840   5.395
14709TIP3    H144068   0.434   0.847   5.301
14709TIP3    H244069   0.541   0.821   5.405
14710TIP3   OH244070   5.931   6.710   4.235
14710TIP3    H144071   5.935   6.630   4.287
14710TIP3    H244072   5.867   6.765   4.281
14711TIP3   OH244073   7.820   2.695   0.661
14711TIP3    H144074   7.889   2.749   0.699
14711TIP3    H244075   7.785   2.749   0.589
14712TIP3   OH244076   0.390   3.078   6.734
14712TIP3    H144077   0.378   3.136   6.659
14712TIP3    H244078   0.403   3.137   6.808
14713TIP3   OH244079   4.179   4.318   6.389
14713TIP3    H144080   4.087   4.315   6.363
14713TIP3    H244081   4.205   4.226   6.394
14714TIP3   OH244082   3.030   6.985   1.345
14714TIP3    H144083   3.027   6.903   1.394
14714TIP3    H244084   3.021   7.053   1.412
14715TIP3   OH244085   2.823   3.429   4.252
14715TIP3    H144086   2.868   3.345   4.243
14715TIP3    H244087   2.879   3.479   4.312
14716TIP3   OH244088   6.969   3.821   2.128
14716TIP3    H144089   7.017   3.892   2.170
14716TIP3    H244090   6.993   3.827   2.035
14717TIP3   OH244091   6.800   3.420   2.629
14717TIP3    H144092   6.829   3.402   2.539
14717TIP3    H244093   6.863   3.485   2.661
14718TIP3   OH244094   0.731   6.482   6.672
14718TIP3    H144095   0.678   6.560   6.690
14718TIP3    H244096   0.685   6.411   6.716
14719TIP3   OH244097   6.128   6.712   5.489
14719TIP3    H144098   6.144   6.804   5.469
14719TIP3    H244099   6.073   6.681   5.416
14720TIP3   OH244100   3.235   3.667   2.695
14720TIP3    H144101   3.159   3.663   2.637
14720TIP3    H244102   3.265   3.758   2.688
14721TIP3   OH244103   6.471   6.203   3.971
14721TIP3    H144104   6.492   6.130   3.911
14721TIP3    H244105   6.435   6.160   4.048
14722TIP3   OH244106   0.870   2.767   5.933
14722TIP3    H144107   0.950   2.779   5.883
14722TIP3    H244108   0.878   2.680   5.971
14723TIP3   OH244109   1.407   7.677   0.761
14723TIP3    H144110   1.478   7.662   0.699
14723TIP3    H244111   1.328   7.676   0.707
14724TIP3   OH244112   2.411   3.117   3.853
14724TIP3    H144113   2.484   3.085   3.905
14724TIP3    H244114   2.452   3.163   3.780
14725TIP3   OH244115   5.379   5.640   0.364
14725TIP3    H144116   5.437   5.605   0.432
14725TIP3    H244117   5.340   5.718   0.403
14726TIP3   OH244118   3.008   6.875   4.678
14726TIP3    H144119   3.080   6.935   4.662
14726TIP3    H244120   3.048   6.788   4.672
14727TIP3   OH244121   4.785   6.521   0.236
14727TIP3    H144122   4.841   6.444   0.246
14727TIP3    H244123   4.726   6.499   0.164
14728TIP3   OH244124   4.204   4.282   0.927
14728TIP3    H144125   4.145   4.356   0.938
14728TIP3    H244126   4.156   4.207   0.962
14729TIP3   OH244127   6.209   3.560   4.674
14729TIP3    H144128   6.295   3.600   4.662
14729TIP3    H244129   6.153   3.631   4.706
14730TIP3   OH244130   3.931   0.763   2.583
14730TIP3    H144131   3.963   0.695   2.643
14730TIP3    H244132   3.871   0.718   2.525
14731TIP3   OH244133   7.071   4.613   2.483
14731TIP3    H144134   7.080   4.620   2.578
14731TIP3    H244135   7.147   4.661   2.448
14732TIP3   OH244136   1.828   4.797   6.448
14732TIP3    H144137   1.811   4.826   6.538
14732TIP3    H244138   1.861   4.708   6.457
14733TIP3   OH244139   3.761   7.487   5.480
14733TIP3    H144140   3.814   7.548   5.429
14733TIP3    H244141   3.672   7.499   5.448
14734TIP3   OH244142   0.376   0.338   3.964
14734TIP3    H144143   0.291   0.296   3.951
14734TIP3    H244144   0.432   0.300   3.896
14735TIP3   OH244145   7.337   3.395   3.634
14735TIP3    H144146   7.282   3.425   3.707
14735TIP3    H244147   7.419   3.443   3.645
14736TIP3   OH244148   5.505   2.804   6.330
14736TIP3    H144149   5.525   2.791   6.423
14736TIP3    H244150   5.568   2.869   6.300
14737TIP3   OH244151   4.391   0.111   1.140
14737TIP3    H144152   4.425   0.078   1.056
14737TIP3    H244153   4.468   0.149   1.183
14738TIP3   OH244154   4.150   1.983   4.199
14738TIP3    H144155   4.135   1.926   4.124
14738TIP3    H244156   4.246   1.988   4.206
14739TIP3   OH244157   7.696   6.878   0.023
14739TIP3    H144158   7.704   6.802  -0.035
14739TIP3    H244159   7.776   6.875   0.077
14740TIP3   OH244160   5.905   6.286   0.831
14740TIP3    H144161   5.905   6.270   0.925
14740TIP3    H244162   5.813   6.274   0.805
14741TIP3   OH244163   2.161   3.144   2.828
14741TIP3    H144164   2.191   3.054   2.812
14741TIP3    H244165   2.085   3.154   2.770
14742TIP3   OH244166   5.054   1.525   2.078
14742TIP3    H144167   4.999   1.538   2.156
14742TIP3    H244168   5.027   1.440   2.043
14743TIP3   OH244169   0.413   7.392   6.415
14743TIP3    H144170   0.506   7.374   6.397
14743TIP3    H244171   0.366   7.342   6.350
14744TIP3   OH244172   7.772   3.508   3.306
14744TIP3    H144173   7.740   3.437   3.250
14744TIP3    H244174   7.698   3.569   3.312
14745TIP3   OH244175   6.501   7.243   6.333
14745TIP3    H144176   6.538   7.261   6.246
14745TIP3    H244177   6.571   7.264   6.394
14746TIP3   OH244178   6.641   1.699   1.066
14746TIP3    H144179   6.574   1.702   0.998
14746TIP3    H244180   6.673   1.789   1.072
14747TIP3   OH244181   2.617   0.593   0.578
14747TIP3    H144182   2.663   0.523   0.532
14747TIP3    H244183   2.524   0.576   0.561
14748TIP3   OH244184   0.709   3.740   4.654
14748TIP3    H144185   0.681   3.742   4.562
14748TIP3    H244186   0.777   3.673   4.657
14749TIP3   OH244187   3.746   5.509   2.950
14749TIP3    H144188   3.802   5.438   2.921
14749TIP3    H244189   3.800   5.588   2.943
14750TIP3   OH244190   5.553   7.639   1.148
14750TIP3    H144191   5.575   7.547   1.134
14750TIP3    H244192   5.536   7.646   1.242
14751TIP3   OH244193   7.052   6.969   1.397
14751TIP3    H144194   7.126   7.003   1.347
14751TIP3    H244195   7.007   7.047   1.429
14752TIP3   OH244196   0.763   0.028   3.300
14752TIP3    H144197   0.856   0.036   3.281
14752TIP3    H244198   0.759  -0.028   3.377
14753TIP3   OH244199   8.082   1.276   2.876
14753TIP3    H144200   8.160   1.223   2.895
14753TIP3    H244201   8.103   1.362   2.911
14754TIP3   OH244202   4.024   3.231   2.280
14754TIP3    H144203   3.959   3.244   2.211
14754TIP3    H244204   4.103   3.200   2.234
14755TIP3   OH244205   4.549   4.304   3.439
14755TIP3    H144206   4.490   4.274   3.370
14755TIP3    H244207   4.508   4.384   3.472
14756TIP3   OH244208   6.321   5.649   3.896
14756TIP3    H144209   6.272   5.632   3.976
14756TIP3    H244210   6.319   5.744   3.886
14757TIP3   OH244211   7.841   6.345   4.184
14757TIP3    H144212   7.792   6.263   4.177
14757TIP3    H244213   7.779   6.408   4.221
14758TIP3   OH244214   4.630   1.027   5.935
14758TIP3    H144215   4.662   1.056   5.850
14758TIP3    H244216   4.535   1.033   5.929
14759TIP3   OH244217   5.341   7.731   5.561
14759TIP3    H144218   5.264   7.678   5.540
14759TIP3    H244219   5.412   7.667   5.570
14760TIP3   OH244220   1.269   7.041   3.988
14760TIP3    H144221   1.363   7.063   3.987
14760TIP3    H244222   1.255   6.993   3.907
14761TIP3   OH244223   3.447   6.061   3.140
14761TIP3    H144224   3.446   6.151   3.173
14761TIP3    H244225   3.404   6.067   3.055
14762TIP3   OH244226   1.457   2.667   6.817
14762TIP3    H144227   1.455   2.726   6.893
14762TIP3    H244228   1.381   2.610   6.829
14763TIP3   OH244229   7.533   2.313   0.197
14763TIP3    H144230   7.591   2.295   0.123
14763TIP3    H244231   7.530   2.232   0.247
14764TIP3   OH244232   1.508   4.005   3.057
14764TIP3    H144233   1.499   4.099   3.067
14764TIP3    H244234   1.437   3.980   2.998
14765TIP3   OH244235   1.002   1.457   6.161
14765TIP3    H144236   0.981   1.367   6.137
14765TIP3    H244237   0.941   1.478   6.232
14766TIP3   OH244238   0.463   1.031   0.633
14766TIP3    H144239   0.462   1.109   0.578
14766TIP3    H244240   0.520   0.969   0.587
14767TIP3   OH244241   0.889   1.751   5.561
14767TIP3    H144242   0.857   1.671   5.601
14767TIP3    H244243   0.903   1.811   5.635
14768TIP3   OH244244   7.887   3.547   3.904
14768TIP3    H144245   7.935   3.629   3.891
14768TIP3    H244246   7.855   3.524   3.817
14769TIP3   OH244247   8.038   2.887   1.496
14769TIP3    H144248   7.971   2.820   1.505
14769TIP3    H244249   8.104   2.847   1.439
14770TIP3   OH244250   4.395   2.293   1.764
14770TIP3    H144251   4.385   2.346   1.843
14770TIP3    H244252   4.372   2.352   1.692
14771TIP3   OH244253   0.675   6.479   6.367
14771TIP3    H144254   0.640   6.557   6.324
14771TIP3    H244255   0.747   6.451   6.311
14772TIP3   OH244256   1.167   7.569   5.552
14772TIP3    H144257   1.236   7.573   5.485
14772TIP3    H244258   1.203   7.619   5.626
14773TIP3   OH244259   3.038   5.191   4.622
14773TIP3    H144260   3.130   5.175   4.602
14773TIP3    H244261   2.992   5.175   4.539
14774TIP3   OH244262   5.132   2.676   5.843
14774TIP3    H144263   5.189   2.613   5.798
14774TIP3    H244264   5.160   2.672   5.935
14775TIP3   OH244265   0.094   6.281   3.543
14775TIP3    H144266   0.169   6.262   3.486
14775TIP3    H244267   0.091   6.207   3.604
14776TIP3   OH244268   6.045   2.109   0.294
14776TIP3    H144269   5.978   2.071   0.237
14776TIP3    H244270   6.126   2.066   0.267
14777TIP3   OH244271   6.712   3.099   5.562
14777TIP3    H144272   6.774   3.126   5.630
14777TIP3    H244273   6.726   3.162   5.491
14778TIP3   OH244274   3.229   6.865   4.308
14778TIP3    H144275   3.209   6.958   4.315
14778TIP3    H244276   3.310   6.853   4.358
14779TIP3   OH244277   1.493   3.407   1.581
14779TIP3    H144278   1.516   3.381   1.670
14779TIP3    H244279   1.542   3.346   1.525
14780TIP3   OH244280   0.446   5.195   5.867
14780TIP3    H144281   0.502   5.190   5.944
14780TIP3    H244282   0.426   5.289   5.859
14781TIP3   OH244283   5.335   6.147   2.487
14781TIP3    H144284   5.369   6.217   2.541
14781TIP3    H244285   5.306   6.190   2.407
14782TIP3   OH244286   0.224   4.466   1.111
14782TIP3    H144287   0.192   4.543   1.064
14782TIP3    H244288   0.310   4.492   1.145
14783TIP3   OH244289   1.806   3.999   3.077
14783TIP3    H144290   1.716   3.983   3.047
14783TIP3    H244291   1.797   4.070   3.141
14784TIP3   OH244292   4.920   4.135   4.579
14784TIP3    H144293   4.916   4.081   4.500
14784TIP3    H244294   4.848   4.103   4.634
14785TIP3   OH244295   5.107   4.942   2.001
14785TIP3    H144296   5.021   4.942   1.958
14785TIP3    H244297   5.087   4.960   2.093
14786TIP3   OH244298   4.517   0.598   5.787
14786TIP3    H144299   4.571   0.647   5.848
14786TIP3    H244300   4.579   0.542   5.739
14787TIP3   OH244301   2.144   0.279   1.186
14787TIP3    H144302   2.192   0.329   1.122
14787TIP3    H244303   2.063   0.253   1.142
14788TIP3   OH244304   6.482   6.193   2.330
14788TIP3    H144305   6.398   6.186   2.375
14788TIP3    H244306   6.513   6.102   2.323
14789TIP3   OH244307   2.162   2.052   6.744
14789TIP3    H144308   2.176   2.144   6.721
14789TIP3    H244309   2.247   2.023   6.776
14790TIP3   OH244310   2.124   0.180   5.364
14790TIP3    H144311   2.196   0.122   5.342
14790TIP3    H244312   2.077   0.135   5.435
14791TIP3   OH244313   2.176   0.541   5.700
14791TIP3    H144314   2.150   0.573   5.614
14791TIP3    H244315   2.253   0.486   5.684
14792TIP3   OH244316   3.526   7.103   2.288
14792TIP3    H144317   3.467   7.039   2.250
14792TIP3    H244318   3.589   7.122   2.218
14793TIP3   OH244319   6.773   5.548   2.974
14793TIP3    H144320   6.759   5.612   2.904
14793TIP3    H244321   6.785   5.602   3.052
14794TIP3   OH244322   7.533   4.701   5.926
14794TIP3    H144323   7.612   4.755   5.926
14794TIP3    H244324   7.463   4.760   5.956
14795TIP3   OH244325   2.174   7.446   4.363
14795TIP3    H144326   2.265   7.454   4.335
14795TIP3    H244327   2.137   7.534   4.355
14796TIP3   OH244328   7.937   4.236   1.566
14796TIP3    H144329   7.909   4.203   1.651
14796TIP3    H244330   7.935   4.331   1.575
14797TIP3   OH244331   2.286   2.579   6.706
14797TIP3    H144332   2.242   2.495   6.692
14797TIP3    H244333   2.220   2.645   6.688
14798TIP3   OH244334   3.122   7.325   3.064
14798TIP3    H144335   3.050   7.344   3.004
14798TIP3    H244336   3.082   7.271   3.132
14799TIP3   OH244337   0.552   3.749   3.969
14799TIP3    H144338   0.572   3.843   3.977
14799TIP3    H244339   0.467   3.740   4.013
14800TIP3   OH244340   3.013   3.625   5.738
14800TIP3    H144341   3.104   3.621   5.768
14800TIP3    H244342   2.993   3.718   5.733
14801TIP3   OH244343   0.889   6.531   0.313
14801TIP3    H144344   0.869   6.456   0.258
14801TIP3    H244345   0.856   6.607   0.264
14802TIP3   OH244346   0.558   3.656   4.870
14802TIP3    H144347   0.607   3.713   4.930
14802TIP3    H244348   0.595   3.675   4.784
14803TIP3   OH244349   5.353   7.030   4.354
14803TIP3    H144350   5.378   6.974   4.280
14803TIP3    H244351   5.258   7.039   4.347
14804TIP3   OH244352   5.412   2.896   3.131
14804TIP3    H144353   5.401   2.990   3.148
14804TIP3    H244354   5.442   2.860   3.215
14805TIP3   OH244355   1.147   1.234   1.385
14805TIP3    H144356   1.060   1.218   1.348
14805TIP3    H244357   1.168   1.324   1.357
14806TIP3   OH244358   2.432   1.890   1.027
14806TIP3    H144359   2.482   1.963   0.991
14806TIP3    H244360   2.437   1.901   1.122
14807TIP3   OH244361   4.948   7.025   2.046
14807TIP3    H144362   4.918   7.063   1.964
14807TIP3    H244363   4.985   7.100   2.095
14808TIP3   OH244364   0.067   6.720   3.137
14808TIP3    H144365   0.135   6.660   3.169
14808TIP3    H244366   0.042   6.771   3.214
14809TIP3   OH244367   2.312   6.137   1.672
14809TIP3    H144368   2.251   6.176   1.610
14809TIP3    H244369   2.326   6.048   1.639
14810TIP3   OH244370   0.423   2.705   6.353
14810TIP3    H144371   0.436   2.701   6.447
14810TIP3    H244372   0.337   2.747   6.342
14811TIP3   OH244373   5.952   0.919   6.470
14811TIP3    H144374   5.943   0.982   6.542
14811TIP3    H244375   5.975   0.973   6.394
14812TIP3   OH244376   1.944   0.750   6.292
14812TIP3    H144377   1.895   0.742   6.373
14812TIP3    H244378   1.963   0.660   6.266
14813TIP3   OH244379   7.969   1.129   3.358
14813TIP3    H144380   7.957   1.097   3.268
14813TIP3    H244381   7.889   1.178   3.377
14814TIP3   OH244382   0.159   0.797   4.297
14814TIP3    H144383   0.185   0.756   4.379
14814TIP3    H244384   0.068   0.771   4.284
14815TIP3   OH244385   0.590   6.085   1.051
14815TIP3    H144386   0.611   6.178   1.058
14815TIP3    H244387   0.550   6.076   0.964
14816TIP3   OH244388   6.054   4.821   5.013
14816TIP3    H144389   5.980   4.788   4.964
14816TIP3    H244390   6.085   4.897   4.963
14817TIP3   OH244391   2.927   7.265   3.308
14817TIP3    H144392   2.892   7.352   3.289
14817TIP3    H244393   2.880   7.237   3.387
14818TIP3   OH244394   2.681   2.860   6.529
14818TIP3    H144395   2.764   2.818   6.551
14818TIP3    H244396   2.705   2.937   6.479
14819TIP3   OH244397   2.351   2.905   1.575
14819TIP3    H144398   2.438   2.944   1.573
14819TIP3    H244399   2.316   2.930   1.661
14820TIP3   OH244400   7.540   7.511   4.417
14820TIP3    H144401   7.612   7.480   4.362
14820TIP3    H244402   7.540   7.452   4.492
14821TIP3   OH244403   2.155   6.921   5.951
14821TIP3    H144404   2.080   6.924   5.892
14821TIP3    H244405   2.217   6.863   5.908
14822TIP3   OH244406   6.590   0.555   3.749
14822TIP3    H144407   6.567   0.646   3.769
14822TIP3    H244408   6.527   0.529   3.682
14823TIP3   OH244409   0.930   6.141   1.083
14823TIP3    H144410   0.902   6.139   0.992
14823TIP3    H244411   0.882   6.069   1.125
14824TIP3   OH244412   7.745   2.262   1.279
14824TIP3    H144413   7.663   2.278   1.325
14824TIP3    H244414   7.756   2.167   1.281
14825TIP3   OH244415   6.223   0.664   6.078
14825TIP3    H144416   6.208   0.580   6.036
14825TIP3    H244417   6.309   0.692   6.047
14826TIP3   OH244418   1.897   0.373   3.875
14826TIP3    H144419   1.859   0.285   3.880
14826TIP3    H244420   1.945   0.374   3.792
14827TIP3   OH244421   5.926   3.895   5.626
14827TIP3    H144422   5.939   3.948   5.704
14827TIP3    H244423   6.004   3.914   5.572
14828TIP3   OH244424   6.063   2.746   1.368
14828TIP3    H144425   6.148   2.740   1.411
14828TIP3    H244426   6.050   2.840   1.355
14829TIP3   OH244427   4.363   1.590   4.116
14829TIP3    H144428   4.272   1.601   4.086
14829TIP3    H244429   4.410   1.562   4.038
14830TIP3   OH244430   5.400   4.988   6.213
14830TIP3    H144431   5.488   4.996   6.177
14830TIP3    H244432   5.347   5.046   6.159
14831TIP3   OH244433   8.280   3.553   0.427
14831TIP3    H144434   8.343   3.547   0.355
14831TIP3    H244435   8.224   3.476   0.417
14832TIP3   OH244436   7.274   4.129   4.097
14832TIP3    H144437   7.258   4.081   4.016
14832TIP3    H244438   7.200   4.106   4.153
14833TIP3   OH244439   0.625   0.212   0.903
14833TIP3    H144440   0.656   0.131   0.943
14833TIP3    H244441   0.530   0.210   0.915
14834TIP3   OH244442   4.474   4.647   1.043
14834TIP3    H144443   4.479   4.672   1.135
14834TIP3    H244444   4.490   4.553   1.043
14835TIP3   OH244445   3.994   6.414   3.502
14835TIP3    H144446   4.053   6.375   3.438
14835TIP3    H244447   3.947   6.340   3.540
14836TIP3   OH244448   0.746   6.077   5.518
14836TIP3    H144449   0.809   6.144   5.546
14836TIP3    H244450   0.675   6.126   5.478
14837TIP3   OH244451   7.255   3.541   0.337
14837TIP3    H144452   7.176   3.556   0.284
14837TIP3    H244453   7.244   3.600   0.412
14838TIP3   OH244454   1.330   6.201   4.818
14838TIP3    H144455   1.294   6.136   4.879
14838TIP3    H244456   1.253   6.249   4.787
14839TIP3   OH244457   3.665   5.147   6.316
14839TIP3    H144458   3.612   5.146   6.236
14839TIP3    H244459   3.638   5.068   6.363
14840TIP3   OH244460   5.574   2.479   3.231
14840TIP3    H144461   5.545   2.543   3.296
14840TIP3    H244462   5.568   2.395   3.276
14841TIP3   OH244463   3.812   2.443   5.616
14841TIP3    H144464   3.816   2.508   5.546
14841TIP3    H244465   3.720   2.441   5.641
14842TIP3   OH244466   7.599   6.783   3.577
14842TIP3    H144467   7.548   6.829   3.511
14842TIP3    H244468   7.583   6.831   3.658
14843TIP3   OH244469   2.579   1.845   3.030
14843TIP3    H144470   2.650   1.782   3.023
14843TIP3    H244471   2.610   1.923   2.984
14844TIP3   OH244472   6.702   5.274   3.134
14844TIP3    H144473   6.634   5.228   3.183
14844TIP3    H244474   6.783   5.226   3.153
14845TIP3   OH244475   0.194   3.837   2.266
14845TIP3    H144476   0.248   3.796   2.333
14845TIP3    H244477   0.119   3.777   2.255
14846TIP3   OH244478   7.385   0.795   6.492
14846TIP3    H144479   7.371   0.881   6.531
14846TIP3    H244480   7.299   0.753   6.495
14847TIP3   OH244481   4.552   3.706   1.809
14847TIP3    H144482   4.509   3.635   1.762
14847TIP3    H244483   4.632   3.723   1.761
14848TIP3   OH244484   2.808   6.635   6.805
14848TIP3    H144485   2.731   6.654   6.752
14848TIP3    H244486   2.788   6.551   6.847
14849TIP3   OH244487   5.957   0.341   1.380
14849TIP3    H144488   5.924   0.253   1.403
14849TIP3    H244489   5.902   0.401   1.430
14850TIP3   OH244490   0.944   4.467   6.124
14850TIP3    H144491   0.898   4.550   6.113
14850TIP3    H244492   1.026   4.479   6.077
14851TIP3   OH244493   3.547   1.810   2.394
14851TIP3    H144494   3.517   1.887   2.442
14851TIP3    H244495   3.467   1.773   2.357
14852TIP3   OH244496   3.822   1.896   1.920
14852TIP3    H144497   3.856   1.953   1.989
14852TIP3    H244498   3.818   1.809   1.960
14853TIP3   OH244499   1.588   4.990   5.111
14853TIP3    H144500   1.532   4.965   5.185
14853TIP3    H244501   1.653   4.920   5.105
14854TIP3   OH244502   6.238   6.182   2.101
14854TIP3    H144503   6.330   6.179   2.076
14854TIP3    H244504   6.217   6.275   2.106
14855TIP3   OH244505   4.227   4.673   0.111
14855TIP3    H144506   4.210   4.651   0.019
14855TIP3    H244507   4.283   4.602   0.142
14856TIP3   OH244508   3.436   6.448   0.917
14856TIP3    H144509   3.483   6.520   0.959
14856TIP3    H244510   3.407   6.393   0.990
14857TIP3   OH244511   1.487   6.669   0.896
14857TIP3    H144512   1.526   6.588   0.863
14857TIP3    H244513   1.475   6.724   0.818
14858TIP3   OH244514   0.853   1.014   3.777
14858TIP3    H144515   0.891   0.966   3.850
14858TIP3    H244516   0.787   1.071   3.817
14859TIP3   OH244517   6.701   1.324   0.005
14859TIP3    H144518   6.723   1.409   0.043
14859TIP3    H244519   6.782   1.273   0.011
14860TIP3   OH244520   7.014   3.410   5.051
14860TIP3    H144521   7.010   3.500   5.082
14860TIP3    H244522   7.005   3.357   5.130
14861TIP3   OH244523   3.891   4.135   1.258
14861TIP3    H144524   3.952   4.201   1.289
14861TIP3    H244525   3.899   4.064   1.322
14862TIP3   OH244526   0.262   7.128   4.483
14862TIP3    H144527   0.286   7.218   4.507
14862TIP3    H244528   0.344   7.088   4.455
14863TIP3   OH244529   1.583   0.430   2.581
14863TIP3    H144530   1.566   0.340   2.554
14863TIP3    H244531   1.657   0.458   2.527
14864TIP3   OH244532   2.943   2.243   4.945
14864TIP3    H144533   3.000   2.299   4.892
14864TIP3    H244534   2.859   2.290   4.948
14865TIP3   OH244535   1.457   4.979   0.046
14865TIP3    H144536   1.517   5.014   0.112
14865TIP3    H244537   1.379   5.034   0.053
14866TIP3   OH244538   2.836   2.665   4.883
14866TIP3    H144539   2.778   2.598   4.920
14866TIP3    H244540   2.900   2.616   4.831
14867TIP3   OH244541   6.263   1.353   5.955
14867TIP3    H144542   6.235   1.264   5.932
14867TIP3    H244543   6.346   1.365   5.908
14868TIP3   OH244544   7.966   0.634   4.419
14868TIP3    H144545   8.007   0.577   4.354
14868TIP3    H244546   7.922   0.574   4.479
14869TIP3   OH244547   3.650   5.616   1.629
14869TIP3    H144548   3.576   5.564   1.596
14869TIP3    H244549   3.728   5.568   1.600
14870TIP3   OH244550   6.772   2.933   2.160
14870TIP3    H144551   6.829   2.857   2.149
14870TIP3    H244552   6.815   3.003   2.111
14871TIP3   OH244553   6.986   2.944   5.225
14871TIP3    H144554   7.054   3.007   5.247
14871TIP3    H244555   7.032   2.870   5.186
14872TIP3   OH244556   2.923   2.219   3.226
14872TIP3    H144557   2.882   2.152   3.281
14872TIP3    H244558   2.926   2.297   3.282
14873TIP3   OH244559   3.926   5.429   3.805
14873TIP3    H144560   3.985   5.489   3.850
14873TIP3    H244561   3.848   5.425   3.861
14874TIP3   OH244562   1.091   3.483   4.762
14874TIP3    H144563   1.160   3.489   4.696
14874TIP3    H244564   1.132   3.434   4.834
14875TIP3   OH244565   5.715   7.761   2.141
14875TIP3    H144566   5.794   7.726   2.180
14875TIP3    H244567   5.746   7.811   2.065
14876TIP3   OH244568   7.190   1.476   1.659
14876TIP3    H144569   7.100   1.503   1.676
14876TIP3    H244570   7.182   1.384   1.634
14877TIP3   OH244571   1.632   1.100   2.556
14877TIP3    H144572   1.574   1.152   2.611
14877TIP3    H244573   1.580   1.022   2.533
14878TIP3   OH244574   6.663   4.159   1.931
14878TIP3    H144575   6.613   4.078   1.922
14878TIP3    H244576   6.730   4.155   1.863
14879TIP3   OH244577   6.488   7.676   0.409
14879TIP3    H144578   6.562   7.675   0.470
14879TIP3    H244579   6.519   7.726   0.334
14880TIP3   OH244580   5.716   4.376   5.864
14880TIP3    H144581   5.714   4.360   5.958
14880TIP3    H244582   5.802   4.344   5.837
14881TIP3   OH244583   2.855   7.691   5.143
14881TIP3    H144584   2.780   7.750   5.147
14881TIP3    H244585   2.917   7.736   5.086
14882TIP3   OH244586   6.612   5.402   5.981
14882TIP3    H144587   6.624   5.312   5.952
14882TIP3    H244588   6.614   5.454   5.901
14883TIP3   OH244589   0.453   0.061   0.741
14883TIP3    H144590   0.512   0.134   0.720
14883TIP3    H244591   0.496  -0.016   0.704
14884TIP3   OH244592   2.564   7.070   2.520
14884TIP3    H144593   2.653   7.084   2.552
14884TIP3    H244594   2.544   6.980   2.547
14885TIP3   OH244595   6.127   6.123   6.036
14885TIP3    H144596   6.086   6.071   6.105
14885TIP3    H244597   6.054   6.155   5.983
14886TIP3   OH244598   8.284   1.613   3.256
14886TIP3    H144599   8.341   1.554   3.306
14886TIP3    H244600   8.271   1.569   3.172
14887TIP3   OH244601   0.633   3.230   3.557
14887TIP3    H144602   0.607   3.296   3.621
14887TIP3    H244603   0.571   3.239   3.485
14888TIP3   OH244604   2.306   2.301   5.149
14888TIP3    H144605   2.389   2.252   5.146
14888TIP3    H244606   2.298   2.339   5.061
14889TIP3   OH244607   8.161   4.309   5.857
14889TIP3    H144608   8.169   4.214   5.850
14889TIP3    H244609   8.209   4.332   5.936
14890TIP3   OH244610   1.373   5.029   2.535
14890TIP3    H144611   1.436   5.082   2.583
14890TIP3    H244612   1.294   5.083   2.533
14891TIP3   OH244613   3.298   1.512   4.224
14891TIP3    H144614   3.276   1.532   4.315
14891TIP3    H244615   3.393   1.520   4.219
14892TIP3   OH244616   6.601   5.965   2.276
14892TIP3    H144617   6.636   5.878   2.297
14892TIP3    H244618   6.592   5.965   2.181
14893TIP3   OH244619   6.795   3.540   4.245
14893TIP3    H144620   6.736   3.615   4.244
14893TIP3    H244621   6.873   3.573   4.290
14894TIP3   OH244622   5.572   5.608   5.424
14894TIP3    H144623   5.579   5.637   5.515
14894TIP3    H244624   5.662   5.610   5.392
14895TIP3   OH244625   2.667   0.955   0.059
14895TIP3    H144626   2.757   0.924   0.059
14895TIP3    H244627   2.662   1.012  -0.018
14896TIP3   OH244628   8.354   5.583   0.701
14896TIP3    H144629   8.277   5.596   0.645
14896TIP3    H244630   8.351   5.657   0.762
14897TIP3   OH244631   2.035   0.888   5.046
14897TIP3    H144632   2.028   0.912   4.954
14897TIP3    H244633   1.945   0.889   5.078
14898TIP3   OH244634   4.117   1.040   0.081
14898TIP3    H144635   4.062   1.119   0.082
14898TIP3    H244636   4.072   0.981   0.021
14899TIP3   OH244637   2.043   6.211   4.392
14899TIP3    H144638   2.066   6.277   4.326
14899TIP3    H244639   2.074   6.249   4.474
14900TIP3   OH244640   1.775   5.036   0.731
14900TIP3    H144641   1.845   4.995   0.680
14900TIP3    H244642   1.709   4.967   0.739
14901TIP3   OH244643   4.069   4.968   0.217
14901TIP3    H144644   4.078   4.934   0.128
14901TIP3    H244645   4.122   4.909   0.271
14902TIP3   OH244646   2.953   3.569   2.328
14902TIP3    H144647   2.991   3.534   2.247
14902TIP3    H244648   2.997   3.520   2.398
14903TIP3   OH244649   5.201   6.496   1.247
14903TIP3    H144650   5.173   6.568   1.304
14903TIP3    H244651   5.164   6.517   1.161
14904TIP3   OH244652   4.665   4.664   1.922
14904TIP3    H144653   4.575   4.635   1.905
14904TIP3    H244654   4.673   4.747   1.875
14905TIP3   OH244655   7.237   7.337   3.499
14905TIP3    H144656   7.178   7.386   3.443
14905TIP3    H244657   7.307   7.307   3.441
14906TIP3   OH244658   0.887   3.559   1.925
14906TIP3    H144659   0.966   3.578   1.975
14906TIP3    H244660   0.893   3.615   1.848
14907TIP3   OH244661   4.491   2.560   6.830
14907TIP3    H144662   4.515   2.565   6.922
14907TIP3    H244663   4.468   2.469   6.816
14908TIP3   OH244664   7.953   6.906   0.178
14908TIP3    H144665   8.023   6.903   0.243
14908TIP3    H244666   7.988   6.856   0.104
14909TIP3   OH244667   5.436   1.236   3.440
14909TIP3    H144668   5.362   1.278   3.398
14909TIP3    H244669   5.469   1.301   3.503
14910TIP3   OH244670   4.922   1.793   4.605
14910TIP3    H144671   5.001   1.789   4.659
14910TIP3    H244672   4.914   1.704   4.569
14911TIP3   OH244673   6.781   5.230   0.447
14911TIP3    H144674   6.851   5.294   0.433
14911TIP3    H244675   6.705   5.283   0.470
14912TIP3   OH244676   7.742   4.387   4.981
14912TIP3    H144677   7.800   4.313   4.962
14912TIP3    H244678   7.654   4.355   4.959
14913TIP3   OH244679   6.972   3.898   0.149
14913TIP3    H144680   7.057   3.859   0.128
14913TIP3    H244681   6.980   3.925   0.240
14914TIP3   OH244682   0.495   1.367   0.288
14914TIP3    H144683   0.499   1.396   0.379
14914TIP3    H244684   0.435   1.292   0.291
14915TIP3   OH244685   4.278   5.044   5.939
14915TIP3    H144686   4.272   5.115   5.876
14915TIP3    H244687   4.193   5.000   5.935
14916TIP3   OH244688   3.732   2.982   0.130
14916TIP3    H144689   3.736   3.040   0.206
14916TIP3    H244690   3.687   3.034   0.063
14917TIP3   OH244691   0.898   6.120   6.320
14917TIP3    H144692   0.835   6.123   6.248
14917TIP3    H244693   0.931   6.209   6.327
14918TIP3   OH244694   1.041   3.421   1.578
14918TIP3    H144695   1.042   3.376   1.494
14918TIP3    H244696   0.961   3.473   1.577
14919TIP3   OH244697   0.575   2.174   6.149
14919TIP3    H144698   0.556   2.105   6.085
14919TIP3    H244699   0.586   2.126   6.232
14920TIP3   OH244700   3.908   2.877   2.413
14920TIP3    H144701   3.850   2.933   2.361
14920TIP3    H244702   3.935   2.932   2.487
14921TIP3   OH244703   5.571   4.163   4.586
14921TIP3    H144704   5.611   4.154   4.673
14921TIP3    H244705   5.631   4.117   4.527
14922TIP3   OH244706   1.011   0.402   1.219
14922TIP3    H144707   0.946   0.359   1.164
14922TIP3    H244708   1.070   0.447   1.158
14923TIP3   OH244709   7.452   7.713   0.713
14923TIP3    H144710   7.458   7.643   0.779
14923TIP3    H244711   7.530   7.701   0.659
14924TIP3   OH244712   6.444   5.836   3.005
14924TIP3    H144713   6.464   5.918   3.050
14924TIP3    H244714   6.450   5.769   3.072
14925TIP3   OH244715   1.371   2.439   0.405
14925TIP3    H144716   1.339   2.406   0.320
14925TIP3    H244717   1.361   2.365   0.464
14926TIP3   OH244718   3.767   3.014   2.209
14926TIP3    H144719   3.759   3.020   2.113
14926TIP3    H244720   3.712   3.084   2.242
14927TIP3   OH244721   6.091   6.613   1.013
14927TIP3    H144722   6.177   6.571   1.007
14927TIP3    H244723   6.084   6.665   0.933
14928TIP3   OH244724   5.119   2.550   3.661
14928TIP3    H144725   5.082   2.526   3.576
14928TIP3    H244726   5.081   2.487   3.722
14929TIP3   OH244727   8.252   0.138   6.135
14929TIP3    H144728   8.169   0.108   6.100
14929TIP3    H244729   8.228   0.198   6.206
14930TIP3   OH244730   8.209   2.416   3.957
14930TIP3    H144731   8.296   2.400   3.921
14930TIP3    H244732   8.152   2.421   3.880
14931TIP3   OH244733   1.291   4.081   6.540
14931TIP3    H144734   1.332   4.031   6.611
14931TIP3    H244735   1.356   4.081   6.470
14932TIP3   OH244736   0.455   2.982   2.667
14932TIP3    H144737   0.473   2.911   2.605
14932TIP3    H244738   0.426   2.937   2.746
14933TIP3   OH244739   7.525   0.912   0.658
14933TIP3    H144740   7.589   0.847   0.628
14933TIP3    H244741   7.570   0.996   0.651
14934TIP3   OH244742   1.676   5.197   5.691
14934TIP3    H144743   1.615   5.212   5.763
14934TIP3    H244744   1.758   5.236   5.722
14935TIP3   OH244745   3.119   0.831   5.646
14935TIP3    H144746   3.211   0.845   5.624
14935TIP3    H244747   3.076   0.816   5.562
14936TIP3   OH244748   1.444   2.930   3.266
14936TIP3    H144749   1.374   2.901   3.207
14936TIP3    H244750   1.401   2.937   3.351
14937TIP3   OH244751   6.620   2.629   4.992
14937TIP3    H144752   6.672   2.563   4.946
14937TIP3    H244753   6.648   2.623   5.083
14938TIP3   OH244754   4.869   7.413   1.220
14938TIP3    H144755   4.837   7.324   1.234
14938TIP3    H244756   4.892   7.445   1.307
14939TIP3   OH244757   8.079   5.599   3.282
14939TIP3    H144758   8.033   5.680   3.260
14939TIP3    H244759   8.166   5.628   3.309
14940TIP3   OH244760   0.869   1.227   1.339
14940TIP3    H144761   0.872   1.179   1.257
14940TIP3    H244762   0.789   1.199   1.382
14941TIP3   OH244763   7.569   1.467   2.884
14941TIP3    H144764   7.579   1.479   2.979
14941TIP3    H244765   7.648   1.505   2.847
14942TIP3   OH244766   5.903   3.997   0.370
14942TIP3    H144767   5.954   4.064   0.416
14942TIP3    H244768   5.970   3.942   0.328
14943TIP3   OH244769   8.185   2.408   6.595
14943TIP3    H144770   8.158   2.424   6.685
14943TIP3    H244771   8.224   2.320   6.597
14944TIP3   OH244772   2.646   2.518   3.389
14944TIP3    H144773   2.643   2.607   3.423
14944TIP3    H244774   2.594   2.521   3.309
14945TIP3   OH244775   2.463   6.401   5.214
14945TIP3    H144776   2.475   6.345   5.291
14945TIP3    H244777   2.549   6.400   5.171
14946TIP3   OH244778   2.080   5.433   3.460
14946TIP3    H144779   2.111   5.344   3.479
14946TIP3    H244780   2.076   5.437   3.364
14947TIP3   OH244781   0.757   7.554   1.845
14947TIP3    H144782   0.751   7.488   1.914
14947TIP3    H244783   0.677   7.541   1.793
14948TIP3   OH244784   0.781   1.842   1.060
14948TIP3    H144785   0.853   1.783   1.085
14948TIP3    H244786   0.705   1.806   1.106
14949TIP3   OH244787   0.730   2.158   1.189
14949TIP3    H144788   0.672   2.133   1.261
14949TIP3    H244789   0.791   2.085   1.181
14950TIP3   OH244790   5.234   7.170   1.248
14950TIP3    H144791   5.194   7.087   1.273
14950TIP3    H244792   5.178   7.203   1.178
14951TIP3   OH244793   6.946   3.388   5.569
14951TIP3    H144794   6.940   3.366   5.476
14951TIP3    H244795   6.955   3.304   5.614
14952TIP3   OH244796   0.431   4.396   3.059
14952TIP3    H144797   0.433   4.450   3.138
14952TIP3    H244798   0.457   4.309   3.089
14953TIP3   OH244799   0.609   3.663   5.188
14953TIP3    H144800   0.681   3.705   5.142
14953TIP3    H244801   0.547   3.734   5.206
14954TIP3   OH244802   4.918   6.006   3.594
14954TIP3    H144803   5.005   6.032   3.566
14954TIP3    H244804   4.920   5.910   3.591
14955TIP3   OH244805   1.571   4.906   2.368
14955TIP3    H144806   1.534   4.968   2.431
14955TIP3    H244807   1.520   4.919   2.289
14956TIP3   OH244808   1.414   4.944   5.325
14956TIP3    H144809   1.457   4.979   5.403
14956TIP3    H244810   1.331   4.910   5.357
14957TIP3   OH244811   1.411   4.279   6.321
14957TIP3    H144812   1.332   4.330   6.336
14957TIP3    H244813   1.464   4.294   6.399
14958TIP3   OH244814   5.962   2.539   6.729
14958TIP3    H144815   5.993   2.561   6.816
14958TIP3    H244816   6.042   2.531   6.677
14959TIP3   OH244817   7.266   0.645   2.758
14959TIP3    H144818   7.340   0.650   2.697
14959TIP3    H244819   7.189   0.650   2.702
14960TIP3   OH244820   3.171   5.994   4.883
14960TIP3    H144821   3.118   5.968   4.958
14960TIP3    H244822   3.252   5.943   4.892
14961TIP3   OH244823   3.002   2.130   6.854
14961TIP3    H144824   2.933   2.170   6.801
14961TIP3    H244825   3.076   2.121   6.794
14962TIP3   OH244826   6.225   2.654   5.656
14962TIP3    H144827   6.276   2.702   5.591
14962TIP3    H244828   6.288   2.594   5.696
14963TIP3   OH244829   3.194   0.628   6.280
14963TIP3    H144830   3.285   0.600   6.279
14963TIP3    H244831   3.192   0.706   6.224
14964TIP3   OH244832   1.151   3.834   6.521
14964TIP3    H144833   1.189   3.919   6.500
14964TIP3    H244834   1.097   3.849   6.599
14965TIP3   OH244835   2.558   2.422   2.436
14965TIP3    H144836   2.652   2.408   2.424
14965TIP3    H244837   2.519   2.393   2.353
14966TIP3   OH244838   4.398   2.163   2.373
14966TIP3    H144839   4.487   2.129   2.382
14966TIP3    H244840   4.373   2.187   2.462
14967TIP3   OH244841   4.004   4.121   1.840
14967TIP3    H144842   4.048   4.074   1.769
14967TIP3    H244843   4.067   4.187   1.868
14968TIP3   OH244844   1.819   4.362   6.688
14968TIP3    H144845   1.887   4.410   6.736
14968TIP3    H244846   1.825   4.272   6.721
14969TIP3   OH244847   5.803   7.116   3.553
14969TIP3    H144848   5.839   7.069   3.478
14969TIP3    H244849   5.812   7.209   3.530
14970TIP3   OH244850   7.461   6.941   3.134
14970TIP3    H144851   7.453   6.907   3.045
14970TIP3    H244852   7.371   6.952   3.163
14971TIP3   OH244853   8.031   0.496   4.154
14971TIP3    H144854   8.004   0.586   4.136
14971TIP3    H244855   7.948   0.448   4.162
14972TIP3   OH244856   5.198   3.515   3.816
14972TIP3    H144857   5.216   3.583   3.752
14972TIP3    H244858   5.171   3.439   3.764
14973TIP3   OH244859   0.559   3.330   4.017
14973TIP3    H144860   0.620   3.361   3.950
14973TIP3    H244861   0.528   3.245   3.984
14974TIP3   OH244862   4.349   1.503   0.552
14974TIP3    H144863   4.294   1.425   0.555
14974TIP3    H244864   4.374   1.512   0.460
14975TIP3   OH244865   3.128   1.147   1.913
14975TIP3    H144866   3.172   1.062   1.914
14975TIP3    H244867   3.042   1.129   1.951
14976TIP3   OH244868   1.162   6.134   5.055
14976TIP3    H144869   1.137   6.075   5.126
14976TIP3    H244870   1.229   6.190   5.093
14977TIP3   OH244871   6.032   1.722   2.837
14977TIP3    H144872   5.968   1.793   2.842
14977TIP3    H244873   6.076   1.735   2.753
14978TIP3   OH244874   4.430   5.318   0.907
14978TIP3    H144875   4.454   5.227   0.925
14978TIP3    H244876   4.347   5.312   0.860
14979TIP3   OH244877   5.443   6.690   5.207
14979TIP3    H144878   5.416   6.646   5.126
14979TIP3    H244879   5.483   6.772   5.178
14980TIP3   OH244880   1.558   7.066   4.040
14980TIP3    H144881   1.588   7.046   4.128
14980TIP3    H244882   1.618   7.133   4.008
14981TIP3   OH244883   0.440   5.595   0.914
14981TIP3    H144884   0.470   5.505   0.914
14981TIP3    H244885   0.359   5.593   0.862
14982TIP3   OH244886   1.793   0.414   3.068
14982TIP3    H144887   1.823   0.458   3.148
14982TIP3    H244888   1.758   0.485   3.014
14983TIP3   OH244889   5.414   2.964   5.245
14983TIP3    H144890   5.473   3.038   5.231
14983TIP3    H244891   5.335   2.986   5.194
14984TIP3   OH244892   0.886   1.015   6.245
14984TIP3    H144893   0.864   1.003   6.337
14984TIP3    H244894   0.813   0.977   6.197
14985TIP3   OH244895   4.943   3.907   4.406
14985TIP3    H144896   5.022   3.913   4.460
14985TIP3    H244897   4.975   3.889   4.318
14986TIP3   OH244898   7.980   4.186   4.949
14986TIP3    H144899   8.067   4.172   4.911
14986TIP3    H244900   7.932   4.106   4.928
14987TIP3   OH244901   6.340   0.727   1.480
14987TIP3    H144902   6.420   0.686   1.513
14987TIP3    H244903   6.346   0.721   1.385
14988TIP3   OH244904   4.085   5.473   5.805
14988TIP3    H144905   4.054   5.488   5.895
14988TIP3    H244906   4.085   5.559   5.765
14989TIP3   OH244907   2.876   6.206   2.558
14989TIP3    H144908   2.909   6.137   2.615
14989TIP3    H244909   2.947   6.221   2.495
14990TIP3   OH244910   7.932   0.298   3.565
14990TIP3    H144911   7.964   0.385   3.541
14990TIP3    H244912   7.861   0.314   3.627
14991TIP3   OH244913   1.963   5.728   0.881
14991TIP3    H144914   1.898   5.657   0.880
14991TIP3    H244915   1.937   5.781   0.957
14992TIP3   OH244916   2.373   7.537   3.342
14992TIP3    H144917   2.391   7.631   3.334
14992TIP3    H244918   2.282   7.527   3.313
14993TIP3   OH244919   7.208   3.027   2.672
14993TIP3    H144920   7.167   3.106   2.706
14993TIP3    H244921   7.207   3.038   2.577
14994TIP3   OH244922   3.003   7.430   3.620
14994TIP3    H144923   2.975   7.522   3.623
14994TIP3    H244924   3.097   7.433   3.637
14995TIP3   OH244925   1.912   5.708   4.885
14995TIP3    H144926   1.844   5.772   4.861
14995TIP3    H244927   1.920   5.715   4.980
14996TIP3   OH244928   1.161   5.682   0.600
14996TIP3    H144929   1.174   5.756   0.659
14996TIP3    H244930   1.070   5.657   0.612
14997TIP3   OH244931   6.466   6.392   5.367
14997TIP3    H144932   6.457   6.403   5.461
14997TIP3    H244933   6.560   6.406   5.350
14998TIP3   OH244934   2.938   2.762   5.573
14998TIP3    H144935   2.994   2.791   5.501
14998TIP3    H244936   2.933   2.667   5.563
14999TIP3   OH244937   6.761   0.292   0.441
14999TIP3    H144938   6.836   0.345   0.413
14999TIP3    H244939   6.685   0.337   0.405
15000TIP3   OH244940   6.484   1.702   4.076
15000TIP3    H144941   6.429   1.763   4.126
15000TIP3    H244942   6.561   1.690   4.130
15001TIP3   OH244943   4.569   2.656   1.917
15001TIP3    H144944   4.607   2.730   1.964
15001TIP3    H244945   4.579   2.678   1.824
15002TIP3   OH244946   0.425   3.503   1.090
15002TIP3    H144947   0.421   3.488   1.184
15002TIP3    H244948   0.492   3.441   1.059
15003TIP3   OH244949   4.113   1.759   1.732
15003TIP3    H144950   4.020   1.774   1.749
15003TIP3    H244951   4.140   1.832   1.676
15004TIP3   OH244952   4.531   1.570   1.043
15004TIP3    H144953   4.539   1.538   0.953
15004TIP3    H244954   4.587   1.512   1.094
15005TIP3   OH244955   7.705   7.671   3.182
15005TIP3    H144956   7.755   7.709   3.109
15005TIP3    H244957   7.734   7.719   3.259
15006TIP3   OH244958   7.008   5.972   4.329
15006TIP3    H144959   7.044   6.054   4.295
15006TIP3    H244960   6.997   5.916   4.252
15007TIP3   OH244961   7.776   4.976   0.843
15007TIP3    H144962   7.858   5.000   0.887
15007TIP3    H244963   7.796   4.894   0.798
15008TIP3   OH244964   7.327   5.026   3.556
15008TIP3    H144965   7.280   4.943   3.543
15008TIP3    H244966   7.316   5.045   3.649
15009TIP3   OH244967   7.210   2.079   5.746
15009TIP3    H144968   7.236   1.988   5.761
15009TIP3    H244969   7.147   2.074   5.674
15010TIP3   OH244970   1.524   6.354   4.960
15010TIP3    H144971   1.477   6.290   4.906
15010TIP3    H244972   1.549   6.424   4.899
15011TIP3   OH244973   6.302   5.916   1.678
15011TIP3    H144974   6.380   5.958   1.713
15011TIP3    H244975   6.329   5.826   1.659
15012TIP3   OH244976   6.858   7.687   2.532
15012TIP3    H144977   6.783   7.628   2.534
15012TIP3    H244978   6.878   7.697   2.439
15013TIP3   OH244979   1.497   0.335   3.529
15013TIP3    H144980   1.501   0.387   3.610
15013TIP3    H244981   1.420   0.369   3.484
15014TIP3   OH244982   4.617   7.504   0.211
15014TIP3    H144983   4.660   7.574   0.261
15014TIP3    H244984   4.632   7.528   0.120
15015TIP3   OH244985   5.252   1.527   6.244
15015TIP3    H144986   5.343   1.555   6.248
15015TIP3    H244987   5.256   1.432   6.228
15016TIP3   OH244988   6.827   2.764   0.397
15016TIP3    H144989   6.778   2.825   0.453
15016TIP3    H244990   6.892   2.726   0.456
15017TIP3   OH244991   2.801   1.311   4.057
15017TIP3    H144992   2.845   1.389   4.091
15017TIP3    H244993   2.767   1.339   3.971
15018TIP3   OH244994   1.381   1.571   1.932
15018TIP3    H144995   1.366   1.640   1.868
15018TIP3    H244996   1.386   1.490   1.880
15019TIP3   OH244997   0.224   0.153   4.280
15019TIP3    H144998   0.208   0.242   4.249
15019TIP3    H244999   0.319   0.141   4.272
15020TIP3   OH245000   7.669   3.825   6.676
15020TIP3    H145001   7.623   3.757   6.628
15020TIP3    H245002   7.600   3.884   6.707
15021TIP3   OH245003   1.909   4.808   4.509
15021TIP3    H145004   1.879   4.772   4.593
15021TIP3    H245005   1.963   4.883   4.532
15022TIP3   OH245006   7.011   1.461   1.018
15022TIP3    H145007   7.015   1.411   1.099
15022TIP3    H245008   6.969   1.401   0.956
15023TIP3   OH245009   5.358   5.275   0.360
15023TIP3    H145010   5.416   5.321   0.421
15023TIP3    H245011   5.311   5.212   0.414
15024TIP3   OH245012   6.804   6.892   5.280
15024TIP3    H145013   6.761   6.913   5.363
15024TIP3    H245014   6.875   6.956   5.274
15025TIP3   OH245015   4.728   7.258   4.779
15025TIP3    H145016   4.710   7.212   4.861
15025TIP3    H245017   4.676   7.211   4.713
15026TIP3   OH245018   4.458   0.710   6.480
15026TIP3    H145019   4.403   0.774   6.434
15026TIP3    H245020   4.475   0.750   6.565
15027TIP3   OH245021   0.071   3.156   3.343
15027TIP3    H145022   0.163   3.133   3.358
15027TIP3    H245023   0.069   3.252   3.348
15028TIP3   OH245024   5.529   2.232   3.466
15028TIP3    H145025   5.473   2.201   3.537
15028TIP3    H245026   5.614   2.189   3.482
15029TIP3   OH245027   6.868   1.760   6.420
15029TIP3    H145028   6.897   1.752   6.511
15029TIP3    H245029   6.948   1.777   6.371
15030TIP3   OH245030   5.738   0.339   3.922
15030TIP3    H145031   5.738   0.384   3.838
15030TIP3    H245032   5.679   0.265   3.909
15031TIP3   OH245033   8.154   1.598   4.012
15031TIP3    H145034   8.132   1.583   4.103
15031TIP3    H245035   8.071   1.587   3.965
15032TIP3   OH245036   5.972   4.693   6.450
15032TIP3    H145037   5.945   4.733   6.532
15032TIP3    H245038   5.891   4.687   6.399
15033TIP3   OH245039   8.382   7.867   3.454
15033TIP3    H145040   8.341   7.847   3.370
15033TIP3    H245041   8.375   7.962   3.462
15034TIP3   OH245042   4.284   5.812   0.958
15034TIP3    H145043   4.235   5.884   0.999
15034TIP3    H245044   4.376   5.834   0.972
15035TIP3   OH245045   2.864   6.421   0.308
15035TIP3    H145046   2.958   6.432   0.325
15035TIP3    H245047   2.851   6.463   0.223
15036TIP3   OH245048   2.702   3.346   4.501
15036TIP3    H145049   2.732   3.360   4.411
15036TIP3    H245050   2.697   3.434   4.538
15037TIP3   OH245051   8.406   7.405   0.443
15037TIP3    H145052   8.369   7.353   0.514
15037TIP3    H245053   8.351   7.385   0.367
15038TIP3   OH245054   1.354   0.671   4.836
15038TIP3    H145055   1.377   0.727   4.762
15038TIP3    H245056   1.424   0.684   4.899
15039TIP3   OH245057   0.089   4.673   5.579
15039TIP3    H145058   0.029   4.599   5.593
15039TIP3    H245059   0.156   4.662   5.646
15040TIP3   OH245060   7.547   1.876   2.804
15040TIP3    H145061   7.452   1.878   2.810
15040TIP3    H245062   7.565   1.873   2.710
15041TIP3   OH245063   4.500   0.393   6.224
15041TIP3    H145064   4.512   0.300   6.244
15041TIP3    H245065   4.539   0.404   6.138
15042TIP3   OH245066   5.568   0.566   6.202
15042TIP3    H145067   5.572   0.499   6.271
15042TIP3    H245068   5.480   0.556   6.166
15043TIP3   OH245069   6.299   6.453   2.417
15043TIP3    H145070   6.243   6.393   2.367
15043TIP3    H245071   6.270   6.540   2.392
15044TIP3   OH245072   3.354   6.851   6.037
15044TIP3    H145073   3.408   6.925   6.066
15044TIP3    H245074   3.316   6.880   5.954
15045TIP3   OH245075   7.718   2.732   3.813
15045TIP3    H145076   7.765   2.715   3.731
15045TIP3    H245077   7.759   2.674   3.877
15046TIP3   OH245078   4.114   7.353   4.552
15046TIP3    H145079   4.063   7.279   4.586
15046TIP3    H245080   4.166   7.316   4.481
15047TIP3   OH245081   7.651   5.927   1.690
15047TIP3    H145082   7.694   5.979   1.623
15047TIP3    H245083   7.608   5.992   1.746
15048TIP3   OH245084   3.516   1.902   4.105
15048TIP3    H145085   3.484   1.813   4.088
15048TIP3    H245086   3.512   1.911   4.200
15049TIP3   OH245087   6.584   5.242   0.234
15049TIP3    H145088   6.529   5.164   0.223
15049TIP3    H245089   6.660   5.211   0.284
15050TIP3   OH245090   5.227   1.717   3.834
15050TIP3    H145091   5.184   1.661   3.898
15050TIP3    H245092   5.175   1.797   3.833
15051TIP3   OH245093   1.957   3.906   6.689
15051TIP3    H145094   2.042   3.951   6.683
15051TIP3    H245095   1.959   3.840   6.620
15052TIP3   OH245096   5.764   0.323   5.809
15052TIP3    H145097   5.739   0.315   5.717
15052TIP3    H245098   5.804   0.410   5.816
15053TIP3   OH245099   4.513   5.055   0.785
15053TIP3    H145100   4.419   5.051   0.767
15053TIP3    H245101   4.548   4.977   0.743
15054TIP3   OH245102   3.614   4.272   1.647
15054TIP3    H145103   3.544   4.261   1.711
15054TIP3    H245104   3.638   4.183   1.622
15055TIP3   OH245105   0.274   2.474   1.946
15055TIP3    H145106   0.230   2.556   1.969
15055TIP3    H245107   0.276   2.474   1.851
15056TIP3   OH245108   5.013   3.700   3.971
15056TIP3    H145109   4.941   3.740   3.923
15056TIP3    H245110   5.035   3.622   3.919
15057TIP3   OH245111   4.271   0.559   0.054
15057TIP3    H145112   4.215   0.597  -0.015
15057TIP3    H245113   4.267   0.623   0.125
15058TIP3   OH245114   2.439   6.499   1.917
15058TIP3    H145115   2.477   6.418   1.882
15058TIP3    H245116   2.361   6.513   1.863
15059TIP3   OH245117   6.426   7.602   2.299
15059TIP3    H145118   6.483   7.679   2.304
15059TIP3    H245119   6.392   7.604   2.209
15060TIP3   OH245120   4.704   2.399   5.821
15060TIP3    H145121   4.656   2.329   5.866
15060TIP3    H245122   4.727   2.461   5.890
15061TIP3   OH245123   4.082   3.720   5.013
15061TIP3    H145124   4.142   3.659   5.054
15061TIP3    H245125   4.047   3.673   4.937
15062TIP3   OH245126   0.439   4.704   3.051
15062TIP3    H145127   0.511   4.768   3.054
15062TIP3    H245128   0.447   4.656   3.133
15063TIP3   OH245129   2.008   5.295   0.287
15063TIP3    H145130   1.915   5.305   0.309
15063TIP3    H245131   2.010   5.228   0.220
15064TIP3   OH245132   1.232   7.150   2.853
15064TIP3    H145133   1.243   7.106   2.769
15064TIP3    H245134   1.183   7.088   2.906
15065TIP3   OH245135   4.874   1.839   3.305
15065TIP3    H145136   4.828   1.905   3.253
15065TIP3    H245137   4.917   1.783   3.240
15066TIP3   OH245138   0.475   7.884   3.075
15066TIP3    H145139   0.517   7.960   3.116
15066TIP3    H245140   0.469   7.819   3.145
15067TIP3   OH245141   0.554   1.286   4.482
15067TIP3    H145142   0.478   1.280   4.424
15067TIP3    H245143   0.548   1.207   4.537
15068TIP3   OH245144   3.239   6.191   2.218
15068TIP3    H145145   3.198   6.233   2.143
15068TIP3    H245146   3.230   6.097   2.201
15069TIP3   OH245147   0.148   3.973   3.002
15069TIP3    H145148   0.112   4.047   2.954
15069TIP3    H245149   0.152   4.003   3.093
15070TIP3   OH245150   3.855   0.352   0.880
15070TIP3    H145151   3.853   0.431   0.826
15070TIP3    H245152   3.772   0.352   0.927
15071TIP3   OH245153   7.341   1.833   5.204
15071TIP3    H145154   7.263   1.805   5.251
15071TIP3    H245155   7.314   1.839   5.113
15072TIP3   OH245156   2.951   5.622   1.901
15072TIP3    H145157   2.979   5.692   1.961
15072TIP3    H245158   2.947   5.665   1.816
15073TIP3   OH245159   2.071   0.094   0.755
15073TIP3    H145160   2.090   0.001   0.766
15073TIP3    H245161   1.990   0.095   0.703
15074TIP3   OH245162   2.691   4.568   0.734
15074TIP3    H145163   2.616   4.539   0.785
15074TIP3    H245164   2.696   4.663   0.749
15075TIP3   OH245165   3.669   2.354   3.395
15075TIP3    H145166   3.753   2.386   3.362
15075TIP3    H245167   3.625   2.432   3.430
15076TIP3   OH245168   4.354   1.367   5.293
15076TIP3    H145169   4.403   1.294   5.331
15076TIP3    H245170   4.268   1.330   5.274
15077TIP3   OH245171   4.088   2.570   0.144
15077TIP3    H145172   4.069   2.476   0.151
15077TIP3    H245173   4.031   2.600   0.073
15078TIP3   OH245174   4.249   6.734   6.430
15078TIP3    H145175   4.154   6.727   6.418
15078TIP3    H245176   4.263   6.707   6.521
15079TIP3   OH245177   2.511   7.748   5.893
15079TIP3    H145178   2.556   7.664   5.895
15079TIP3    H245179   2.553   7.796   5.822
15080TIP3   OH245180   5.742   5.884   6.268
15080TIP3    H145181   5.662   5.830   6.270
15080TIP3    H245182   5.747   5.922   6.355
15081TIP3   OH245183   0.199   7.782   5.051
15081TIP3    H145184   0.240   7.868   5.044
15081TIP3    H245185   0.158   7.782   5.138
15082TIP3   OH245186   7.304   5.113   6.563
15082TIP3    H145187   7.222   5.100   6.610
15082TIP3    H245188   7.352   5.031   6.576
15083TIP3   OH245189   4.386   6.327   5.447
15083TIP3    H145190   4.356   6.377   5.523
15083TIP3    H245191   4.359   6.237   5.466
15084TIP3   OH245192   7.137   7.069   5.727
15084TIP3    H145193   7.165   7.104   5.812
15084TIP3    H245194   7.049   7.035   5.743
15085TIP3   OH245195   0.084   3.411   1.348
15085TIP3    H145196   0.148   3.433   1.416
15085TIP3    H245197   0.126   3.342   1.297
15086TIP3   OH245198   8.328   5.389   5.475
15086TIP3    H145199   8.363   5.304   5.501
15086TIP3    H245200   8.395   5.452   5.502
15087TIP3   OH245201   0.149   4.902   3.620
15087TIP3    H145202   0.236   4.903   3.579
15087TIP3    H245203   0.115   4.991   3.605
15088TIP3   OH245204   3.998   1.282   0.157
15088TIP3    H145205   3.944   1.289   0.078
15088TIP3    H245206   4.037   1.369   0.167
15089TIP3   OH245207   3.759   0.376   3.013
15089TIP3    H145208   3.722   0.290   2.993
15089TIP3    H245209   3.848   0.357   3.045
15090TIP3   OH245210   8.172   2.682   4.082
15090TIP3    H145211   8.175   2.604   4.138
15090TIP3    H245212   8.238   2.740   4.119
15091TIP3   OH245213   5.406   0.536   0.852
15091TIP3    H145214   5.425   0.453   0.808
15091TIP3    H245215   5.310   0.545   0.845
15092TIP3   OH245216   5.412   3.745   6.487
15092TIP3    H145217   5.498   3.731   6.447
15092TIP3    H245218   5.378   3.656   6.501
15093TIP3   OH245219   5.456   2.331   5.635
15093TIP3    H145220   5.419   2.243   5.631
15093TIP3    H245221   5.526   2.330   5.569
15094TIP3   OH245222   3.854   7.010   5.295
15094TIP3    H145223   3.831   6.950   5.366
15094TIP3    H245224   3.779   7.007   5.236
15095TIP3   OH245225   0.739   6.762   5.317
15095TIP3    H145226   0.749   6.766   5.412
15095TIP3    H245227   0.761   6.850   5.287
15096TIP3   OH245228   3.562   7.313   2.610
15096TIP3    H145229   3.554   7.404   2.582
15096TIP3    H245230   3.607   7.269   2.538
15097TIP3   OH245231   3.481   6.822   2.471
15097TIP3    H145232   3.424   6.845   2.397
15097TIP3    H245233   3.568   6.853   2.444
15098TIP3   OH245234   7.046   4.819   4.399
15098TIP3    H145235   7.000   4.735   4.395
15098TIP3    H245236   6.988   4.875   4.450
15099TIP3   OH245237   4.038   0.795   4.343
15099TIP3    H145238   3.952   0.807   4.383
15099TIP3    H245239   4.027   0.720   4.284
15100TIP3   OH245240   6.567   5.770   6.673
15100TIP3    H145241   6.569   5.829   6.597
15100TIP3    H245242   6.580   5.683   6.635
15101TIP3   OH245243   0.973   1.524   6.776
15101TIP3    H145244   0.983   1.467   6.852
15101TIP3    H245245   1.063   1.537   6.744
15102TIP3   OH245246   0.921   6.276   4.994
15102TIP3    H145247   0.904   6.309   5.082
15102TIP3    H245248   1.009   6.239   4.999
15103TIP3   OH245249   0.949   1.632   3.788
15103TIP3    H145250   0.962   1.715   3.833
15103TIP3    H245251   0.858   1.635   3.758
15104TIP3   OH245252   1.883   3.075   2.722
15104TIP3    H145253   1.829   3.043   2.794
15104TIP3    H245254   1.898   2.998   2.667
15105TIP3   OH245255   2.628   4.503   5.664
15105TIP3    H145256   2.673   4.436   5.612
15105TIP3    H245257   2.608   4.459   5.747
15106TIP3   OH245258   4.246   7.270   3.106
15106TIP3    H145259   4.185   7.299   3.174
15106TIP3    H245260   4.311   7.340   3.101
15107TIP3   OH245261   3.925   4.258   0.799
15107TIP3    H145262   3.933   4.218   0.885
15107TIP3    H245263   3.924   4.185   0.738
15108TIP3   OH245264   3.760   1.636   1.286
15108TIP3    H145265   3.682   1.681   1.318
15108TIP3    H245266   3.753   1.641   1.190
15109TIP3   OH245267   0.224   2.461   1.093
15109TIP3    H145268   0.233   2.481   1.000
15109TIP3    H245269   0.285   2.388   1.108
15110TIP3   OH245270   3.137   7.886   5.773
15110TIP3    H145271   3.126   7.854   5.863
15110TIP3    H245272   3.112   7.813   5.718
15111TIP3   OH245273   0.933   2.278   6.004
15111TIP3    H145274   0.901   2.365   6.031
15111TIP3    H245275   0.874   2.253   5.933
15112TIP3   OH245276   3.692   1.328   6.793
15112TIP3    H145277   3.657   1.409   6.831
15112TIP3    H245278   3.683   1.263   6.863
15113TIP3   OH245279   5.078   5.780   5.666
15113TIP3    H145280   5.154   5.825   5.630
15113TIP3    H245281   5.003   5.819   5.622
15114TIP3   OH245282   1.287   2.926   0.302
15114TIP3    H145283   1.240   2.843   0.300
15114TIP3    H245284   1.223   2.991   0.275
15115TIP3   OH245285   4.426   2.445   1.995
15115TIP3    H145286   4.464   2.524   1.959
15115TIP3    H245287   4.369   2.475   2.066
15116TIP3   OH245288   1.349   2.445   0.966
15116TIP3    H145289   1.254   2.451   0.961
15116TIP3    H245290   1.366   2.366   1.018
15117TIP3   OH245291   2.961   4.624   1.281
15117TIP3    H145292   3.025   4.582   1.223
15117TIP3    H245293   3.012   4.690   1.329
15118TIP3   OH245294   7.507   3.804   0.936
15118TIP3    H145295   7.504   3.709   0.923
15118TIP3    H245296   7.416   3.828   0.956
15119TIP3   OH245297   5.739   6.093   3.888
15119TIP3    H145298   5.672   6.156   3.860
15119TIP3    H245299   5.781   6.065   3.807
15120TIP3   OH245300   3.153   7.704   1.381
15120TIP3    H145301   3.223   7.727   1.320
15120TIP3    H245302   3.081   7.673   1.324
15121TIP3   OH245303   0.601   7.471   4.103
15121TIP3    H145304   0.574   7.383   4.128
15121TIP3    H245305   0.695   7.464   4.086
15122TIP3   OH245306   5.019   3.143   5.029
15122TIP3    H145307   4.993   3.208   5.094
15122TIP3    H245308   5.036   3.195   4.950
15123TIP3   OH245309   3.746   5.315   1.993
15123TIP3    H145310   3.686   5.351   1.928
15123TIP3    H245311   3.744   5.379   2.065
15124TIP3   OH245312   4.439   0.077   5.765
15124TIP3    H145313   4.512   0.047   5.820
15124TIP3    H245314   4.421   0.002   5.708
15125TIP3   OH245315   1.070   3.942   3.330
15125TIP3    H145316   1.148   3.891   3.355
15125TIP3    H245317   1.100   3.999   3.260
15126TIP3   OH245318   2.796   4.953   6.215
15126TIP3    H145319   2.715   4.943   6.166
15126TIP3    H245320   2.769   4.985   6.301
15127TIP3   OH245321   7.667  -0.026   0.465
15127TIP3    H145322   7.593   0.034   0.458
15127TIP3    H245323   7.743   0.031   0.479
15128TIP3   OH245324   1.497   2.898   4.508
15128TIP3    H145325   1.543   2.817   4.484
15128TIP3    H245326   1.519   2.911   4.600
15129TIP3   OH245327   7.982   0.161   4.533
15129TIP3    H145328   8.059   0.105   4.535
15129TIP3    H245329   7.920   0.119   4.593
15130TIP3   OH245330   5.616   2.995   1.926
15130TIP3    H145331   5.610   3.089   1.945
15130TIP3    H245332   5.695   2.986   1.873
15131TIP3   OH245333   7.028   4.203   1.497
15131TIP3    H145334   6.936   4.216   1.521
15131TIP3    H245335   7.031   4.113   1.463
15132TIP3   OH245336   6.903   2.786   1.274
15132TIP3    H145337   6.972   2.733   1.314
15132TIP3    H245338   6.949   2.858   1.231
15133TIP3   OH245339   6.053   3.390   6.455
15133TIP3    H145340   5.987   3.391   6.386
15133TIP3    H245341   6.025   3.319   6.513
15134TIP3   OH245342   3.935   7.108   5.813
15134TIP3    H145343   3.975   7.025   5.784
15134TIP3    H245344   3.881   7.083   5.888
15135TIP3   OH245345   7.781   3.473   6.563
15135TIP3    H145346   7.693   3.435   6.565
15135TIP3    H245347   7.815   3.456   6.651
15136TIP3   OH245348   2.343   7.741   4.383
15136TIP3    H145349   2.352   7.810   4.448
15136TIP3    H245350   2.250   7.717   4.385
15137TIP3   OH245351   7.391   4.349   4.634
15137TIP3    H145352   7.447   4.304   4.571
15137TIP3    H245353   7.346   4.416   4.583
15138TIP3   OH245354   2.654   7.867   1.750
15138TIP3    H145355   2.686   7.852   1.839
15138TIP3    H245356   2.598   7.791   1.732
15139TIP3   OH245357   4.851   7.179   6.144
15139TIP3    H145358   4.777   7.217   6.192
15139TIP3    H245359   4.886   7.112   6.203
15140TIP3   OH245360   6.433   2.075   1.834
15140TIP3    H145361   6.514   2.052   1.787
15140TIP3    H245362   6.412   1.996   1.883
15141TIP3   OH245363   4.979   3.746   5.152
15141TIP3    H145364   5.055   3.782   5.198
15141TIP3    H245365   4.924   3.709   5.222
15142TIP3   OH245366   0.926   7.317   1.614
15142TIP3    H145367   0.973   7.245   1.657
15142TIP3    H245368   0.992   7.386   1.604
15143TIP3   OH245369   5.544   1.614   5.702
15143TIP3    H145370   5.451   1.606   5.677
15143TIP3    H245371   5.572   1.524   5.715
15144TIP3   OH245372   3.333   3.218   0.919
15144TIP3    H145373   3.284   3.300   0.925
15144TIP3    H245374   3.397   3.223   0.989
15145TIP3   OH245375   4.665   2.723   4.059
15145TIP3    H145376   4.678   2.790   3.993
15145TIP3    H245377   4.671   2.640   4.011
15146TIP3   OH245378   1.842   4.862   1.890
15146TIP3    H145379   1.775   4.930   1.885
15146TIP3    H245380   1.793   4.780   1.901
15147TIP3   OH245381   0.895   1.900   1.477
15147TIP3    H145382   0.919   1.962   1.408
15147TIP3    H245383   0.975   1.850   1.492
15148TIP3   OH245384   0.881   3.047   4.909
15148TIP3    H145385   0.862   3.124   4.856
15148TIP3    H245386   0.923   3.082   4.988
15149TIP3   OH245387   5.845   6.927   0.265
15149TIP3    H145388   5.884   7.001   0.312
15149TIP3    H245389   5.917   6.865   0.253
15150TIP3   OH245390   6.200   3.985   4.069
15150TIP3    H145391   6.175   4.069   4.030
15150TIP3    H245392   6.250   3.941   4.001
15151TIP3   OH245393   4.408   3.314   4.578
15151TIP3    H145394   4.412   3.225   4.542
15151TIP3    H245395   4.484   3.319   4.636
15152TIP3   OH245396   3.475   5.293   3.076
15152TIP3    H145397   3.480   5.236   3.153
15152TIP3    H245398   3.387   5.278   3.041
15153TIP3   OH245399   4.459   0.601   1.641
15153TIP3    H145400   4.499   0.517   1.624
15153TIP3    H245401   4.488   0.657   1.569
15154TIP3   OH245402   7.002   4.511   4.638
15154TIP3    H145403   6.924   4.551   4.599
15154TIP3    H245404   7.006   4.546   4.726
15155TIP3   OH245405   0.239   4.200   5.072
15155TIP3    H145406   0.148   4.225   5.090
15155TIP3    H245407   0.233   4.120   5.020
15156TIP3   OH245408   6.444   7.574   2.905
15156TIP3    H145409   6.449   7.555   2.811
15156TIP3    H245410   6.450   7.488   2.947
15157TIP3   OH245411   3.566   6.144   4.902
15157TIP3    H145412   3.569   6.110   4.992
15157TIP3    H245413   3.480   6.184   4.894
15158TIP3   OH245414   7.614   1.307   0.852
15158TIP3    H145415   7.586   1.277   0.766
15158TIP3    H245416   7.643   1.397   0.838
15159TIP3   OH245417   7.875   6.363   0.182
15159TIP3    H145418   7.838   6.446   0.152
15159TIP3    H245419   7.800   6.309   0.204
15160TIP3   OH245420   6.034   3.695   0.264
15160TIP3    H145421   5.956   3.657   0.225
15160TIP3    H245422   6.096   3.704   0.191
15161TIP3   OH245423   3.245   1.245   3.674
15161TIP3    H145424   3.169   1.239   3.617
15161TIP3    H245425   3.210   1.279   3.757
15162TIP3   OH245426   7.297   1.686   1.492
15162TIP3    H145427   7.272   1.769   1.532
15162TIP3    H245428   7.271   1.620   1.556
15163TIP3   OH245429   1.354   5.642   2.183
15163TIP3    H145430   1.301   5.719   2.203
15163TIP3    H245431   1.330   5.579   2.250
15164TIP3   OH245432   4.872   3.956   0.677
15164TIP3    H145433   4.839   3.939   0.589
15164TIP3    H245434   4.812   3.908   0.734
15165TIP3   OH245435   7.812   2.071   3.805
15165TIP3    H145436   7.844   2.006   3.867
15165TIP3    H245437   7.724   2.041   3.783
15166TIP3   OH245438   8.149   5.789   3.749
15166TIP3    H145439   8.109   5.845   3.815
15166TIP3    H245440   8.111   5.703   3.764
15167TIP3   OH245441   4.886   4.987   2.310
15167TIP3    H145442   4.888   5.057   2.244
15167TIP3    H245443   4.815   4.929   2.282
15168TIP3   OH245444   0.130   1.700   3.059
15168TIP3    H145445   0.107   1.766   3.124
15168TIP3    H245446   0.225   1.692   3.065
15169TIP3   OH245447   5.456   2.071   2.716
15169TIP3    H145448   5.365   2.096   2.704
15169TIP3    H245449   5.472   2.082   2.810
15170TIP3   OH245450   1.119   6.959   5.069
15170TIP3    H145451   1.152   7.013   4.998
15170TIP3    H245452   1.154   6.999   5.148
15171TIP3   OH245453   8.060   7.562   0.668
15171TIP3    H145454   8.076   7.470   0.648
15171TIP3    H245455   7.989   7.561   0.732
15172TIP3   OH245456   1.737   7.235   2.907
15172TIP3    H145457   1.750   7.183   2.986
15172TIP3    H245458   1.643   7.229   2.889
15173TIP3   OH245459   1.070   6.284   2.124
15173TIP3    H145460   1.137   6.253   2.185
15173TIP3    H245461   1.066   6.217   2.055
15174TIP3   OH245462   2.502   0.885   6.407
15174TIP3    H145463   2.482   0.875   6.314
15174TIP3    H245464   2.430   0.937   6.442
15175TIP3   OH245465   0.109   4.556   3.210
15175TIP3    H145466   0.023   4.568   3.251
15175TIP3    H245467   0.170   4.592   3.275
15176TIP3   OH245468   4.774   1.296   6.596
15176TIP3    H145469   4.719   1.324   6.522
15176TIP3    H245470   4.721   1.314   6.673
15177TIP3   OH245471   1.343   0.983   1.379
15177TIP3    H145472   1.259   1.023   1.354
15177TIP3    H245473   1.377   1.040   1.448
15178TIP3   OH245474   1.317   5.716   4.556
15178TIP3    H145475   1.320   5.806   4.525
15178TIP3    H245476   1.226   5.689   4.545
15179TIP3   OH245477   7.056   4.514   1.579
15179TIP3    H145478   6.994   4.441   1.569
15179TIP3    H245479   7.042   4.568   1.502
15180TIP3   OH245480   1.371   7.321   5.374
15180TIP3    H145481   1.326   7.268   5.308
15180TIP3    H245482   1.410   7.394   5.325
15181TIP3   OH245483   3.891   2.245   3.772
15181TIP3    H145484   3.857   2.333   3.758
15181TIP3    H245485   3.825   2.201   3.826
15182TIP3   OH245486   8.217   4.710   1.693
15182TIP3    H145487   8.142   4.665   1.733
15182TIP3    H245488   8.245   4.651   1.623
15183TIP3   OH245489   1.211   7.913   4.215
15183TIP3    H145490   1.287   7.888   4.268
15183TIP3    H245491   1.145   7.938   4.280
15184TIP3   OH245492   6.723   4.856   6.700
15184TIP3    H145493   6.781   4.900   6.637
15184TIP3    H245494   6.769   4.775   6.722
15185TIP3   OH245495   5.329   3.086   0.479
15185TIP3    H145496   5.248   3.109   0.526
15185TIP3    H245497   5.327   2.991   0.473
15186TIP3   OH245498   5.390   4.116   2.165
15186TIP3    H145499   5.416   4.077   2.081
15186TIP3    H245500   5.428   4.203   2.163
15187TIP3   OH245501   3.576   3.215   2.976
15187TIP3    H145502   3.653   3.264   2.945
15187TIP3    H245503   3.613   3.143   3.027
15188TIP3   OH245504   5.762   0.736   6.136
15188TIP3    H145505   5.708   0.668   6.177
15188TIP3    H245506   5.698   0.801   6.105
15189TIP3   OH245507   2.022   1.734   3.345
15189TIP3    H145508   2.071   1.705   3.267
15189TIP3    H245509   1.930   1.720   3.322
15190TIP3   OH245510   6.505   4.664   6.386
15190TIP3    H145511   6.516   4.622   6.301
15190TIP3    H245512   6.589   4.651   6.431
15191TIP3   OH245513   6.960   4.622   4.921
15191TIP3    H145514   7.021   4.691   4.893
15191TIP3    H245515   6.948   4.637   5.014
15192TIP3   OH245516   4.323   4.099   6.390
15192TIP3    H145517   4.343   4.005   6.396
15192TIP3    H245518   4.383   4.132   6.324
15193TIP3   OH245519   0.863   0.141   1.530
15193TIP3    H145520   0.893   0.050   1.540
15193TIP3    H245521   0.926   0.192   1.581
15194TIP3   OH245522   2.659   0.142   3.245
15194TIP3    H145523   2.749   0.170   3.229
15194TIP3    H245524   2.620   0.213   3.296
15195TIP3   OH245525   0.045   3.687   2.901
15195TIP3    H145526   0.038   3.685   2.997
15195TIP3    H245527   0.073   3.598   2.878
15196TIP3   OH245528   6.056   2.682   3.074
15196TIP3    H145529   6.064   2.595   3.114
15196TIP3    H245530   5.982   2.723   3.120
15197TIP3   OH245531   1.811   0.652   1.495
15197TIP3    H145532   1.787   0.660   1.402
15197TIP3    H245533   1.739   0.603   1.534
15198TIP3   OH245534   7.665   3.285   6.214
15198TIP3    H145535   7.705   3.198   6.209
15198TIP3    H245536   7.604   3.288   6.141
15199TIP3   OH245537   6.915   5.107   2.383
15199TIP3    H145538   6.894   5.103   2.476
15199TIP3    H245539   7.011   5.104   2.380
15200TIP3   OH245540   6.246   5.234   4.835
15200TIP3    H145541   6.320   5.294   4.824
15200TIP3    H245542   6.271   5.155   4.787
15201TIP3   OH245543   0.313   6.178   2.429
15201TIP3    H145544   0.278   6.207   2.345
15201TIP3    H245545   0.310   6.083   2.425
15202TIP3   OH245546   7.690   6.020   3.093
15202TIP3    H145547   7.747   5.977   3.157
15202TIP3    H245548   7.702   6.114   3.109
15203TIP3   OH245549   4.934   5.302   5.432
15203TIP3    H145550   5.011   5.326   5.483
15203TIP3    H245551   4.914   5.212   5.459
15204TIP3   OH245552   3.264   5.765   0.658
15204TIP3    H145553   3.269   5.857   0.630
15204TIP3    H245554   3.295   5.716   0.582
15205TIP3   OH245555   6.948   1.284   2.946
15205TIP3    H145556   6.926   1.315   3.034
15205TIP3    H245557   6.975   1.362   2.898
15206TIP3   OH245558   8.192   3.112   2.833
15206TIP3    H145559   8.167   3.054   2.904
15206TIP3    H245560   8.280   3.083   2.807
15207TIP3   OH245561   1.703   1.515   6.145
15207TIP3    H145562   1.717   1.461   6.223
15207TIP3    H245563   1.709   1.453   6.072
15208TIP3   OH245564   7.052   6.786   1.965
15208TIP3    H145565   7.101   6.803   1.885
15208TIP3    H245566   7.025   6.694   1.958
15209TIP3   OH245567   1.223   5.735   5.047
15209TIP3    H145568   1.177   5.756   5.128
15209TIP3    H245569   1.315   5.732   5.071
15210TIP3   OH245570   2.788   0.812   4.474
15210TIP3    H145571   2.863   0.764   4.441
15210TIP3    H245572   2.774   0.882   4.410
15211TIP3   OH245573   1.660   0.161   3.013
15211TIP3    H145574   1.717   0.234   3.037
15211TIP3    H245575   1.710   0.113   2.947
15212TIP3   OH245576   7.288   4.839   2.955
15212TIP3    H145577   7.259   4.799   3.038
15212TIP3    H245578   7.295   4.765   2.895
15213TIP3   OH245579   0.263   3.272   0.727
15213TIP3    H145580   0.203   3.323   0.673
15213TIP3    H245581   0.275   3.326   0.805
15214TIP3   OH245582   0.700   4.398   2.645
15214TIP3    H145583   0.701   4.407   2.740
15214TIP3    H245584   0.785   4.432   2.617
15215TIP3   OH245585   4.789   1.170   2.974
15215TIP3    H145586   4.699   1.153   3.001
15215TIP3    H245587   4.782   1.223   2.895
15216TIP3   OH245588   8.293   2.716   5.460
15216TIP3    H145589   8.311   2.709   5.554
15216TIP3    H245590   8.269   2.627   5.433
15217TIP3   OH245591   6.988   2.226   5.594
15217TIP3    H145592   6.968   2.295   5.531
15217TIP3    H245593   6.933   2.247   5.670
15218TIP3   OH245594   3.328   7.321   4.491
15218TIP3    H145595   3.310   7.373   4.569
15218TIP3    H245596   3.285   7.369   4.420
15219TIP3   OH245597   4.450   4.574   1.664
15219TIP3    H145598   4.511   4.595   1.593
15219TIP3    H245599   4.385   4.644   1.661
15220TIP3   OH245600   0.098   2.664   3.436
15220TIP3    H145601   0.026   2.629   3.489
15220TIP3    H245602   0.054   2.710   3.365
15221TIP3   OH245603   0.679   0.121   6.372
15221TIP3    H145604   0.754   0.164   6.331
15221TIP3    H245605   0.683   0.031   6.340
15222TIP3   OH245606   4.532   3.502   4.234
15222TIP3    H145607   4.474   3.501   4.310
15222TIP3    H245608   4.585   3.581   4.246
15223TIP3   OH245609   1.421   6.055   0.583
15223TIP3    H145610   1.398   6.145   0.559
15223TIP3    H245611   1.469   6.022   0.507
15224TIP3   OH245612   1.591   4.830   3.216
15224TIP3    H145613   1.641   4.807   3.138
15224TIP3    H245614   1.515   4.773   3.214
15225TIP3   OH245615   1.137   5.186   0.507
15225TIP3    H145616   1.173   5.274   0.522
15225TIP3    H245617   1.200   5.145   0.447
15226TIP3   OH245618   0.106   0.341   0.981
15226TIP3    H145619   0.039   0.401   1.013
15226TIP3    H245620   0.114   0.362   0.888
15227TIP3   OH245621   5.543   4.837   5.619
15227TIP3    H145622   5.614   4.785   5.583
15227TIP3    H245623   5.477   4.773   5.645
15228TIP3   OH245624   2.039   1.212   1.661
15228TIP3    H145625   2.108   1.257   1.710
15228TIP3    H245626   2.080   1.188   1.578
15229TIP3   OH245627   5.758   1.925   4.160
15229TIP3    H145628   5.728   2.014   4.177
15229TIP3    H245629   5.801   1.930   4.074
15230TIP3   OH245630   1.684   6.772   0.173
15230TIP3    H145631   1.691   6.730   0.259
15230TIP3    H245632   1.745   6.723   0.118
15231TIP3   OH245633   3.284   1.663   1.676
15231TIP3    H145634   3.194   1.631   1.685
15231TIP3    H245635   3.336   1.583   1.661
15232TIP3   OH245636   5.658   1.154   5.101
15232TIP3    H145637   5.714   1.126   5.029
15232TIP3    H245638   5.622   1.238   5.073
15233TIP3   OH245639   0.797   3.067   3.735
15233TIP3    H145640   0.837   3.007   3.673
15233TIP3    H245641   0.729   3.113   3.685
15234TIP3   OH245642   2.132   2.304   0.545
15234TIP3    H145643   2.064   2.300   0.478
15234TIP3    H245644   2.149   2.397   0.558
15235TIP3   OH245645   6.737   4.598   4.733
15235TIP3    H145646   6.796   4.638   4.797
15235TIP3    H245647   6.705   4.519   4.775
15236TIP3   OH245648   2.650   5.587   2.264
15236TIP3    H145649   2.705   5.540   2.201
15236TIP3    H245650   2.613   5.519   2.319
15237TIP3   OH245651   3.935   2.062   2.124
15237TIP3    H145652   3.957   2.134   2.065
15237TIP3    H245653   3.865   2.096   2.179
15238TIP3   OH245654   4.102   6.214   5.589
15238TIP3    H145655   4.035   6.275   5.616
15238TIP3    H245656   4.147   6.189   5.670
15239TIP3   OH245657   1.946   7.743   1.676
15239TIP3    H145658   1.982   7.778   1.594
15239TIP3    H245659   1.990   7.794   1.744
15240TIP3   OH245660   8.303   1.045   1.732
15240TIP3    H145661   8.227   0.988   1.721
15240TIP3    H245662   8.357   1.001   1.797
15241TIP3   OH245663   3.369   3.111   0.035
15241TIP3    H145664   3.382   3.160   0.116
15241TIP3    H245665   3.455   3.112  -0.008
15242TIP3   OH245666   6.046   1.783   1.975
15242TIP3    H145667   6.091   1.700   1.956
15242TIP3    H245668   6.030   1.822   1.889
15243TIP3   OH245669   5.931   6.734   2.391
15243TIP3    H145670   5.936   6.684   2.472
15243TIP3    H245671   6.019   6.770   2.379
15244TIP3   OH245672   0.285   4.169   6.065
15244TIP3    H145673   0.322   4.125   5.989
15244TIP3    H245674   0.358   4.179   6.125
15245TIP3   OH245675   6.641   6.872   6.604
15245TIP3    H145676   6.554   6.909   6.589
15245TIP3    H245677   6.700   6.947   6.605
15246TIP3   OH245678   0.927   1.476   2.153
15246TIP3    H145679   1.015   1.513   2.163
15246TIP3    H245680   0.869   1.545   2.184
15247TIP3   OH245681   2.365   2.741   5.442
15247TIP3    H145682   2.293   2.788   5.399
15247TIP3    H245683   2.379   2.664   5.388
15248TIP3   OH245684   2.787   1.486   0.926
15248TIP3    H145685   2.699   1.447   0.923
15248TIP3    H245686   2.784   1.545   1.001
15249TIP3   OH245687   1.408   6.986   1.102
15249TIP3    H145688   1.412   6.908   1.156
15249TIP3    H245689   1.347   7.044   1.148
15250TIP3   OH245690   0.237   4.051   2.084
15250TIP3    H145691   0.216   4.117   2.150
15250TIP3    H245692   0.248   3.970   2.134
15251TIP3   OH245693   2.246   4.470   5.635
15251TIP3    H145694   2.191   4.419   5.575
15251TIP3    H245695   2.293   4.532   5.579
15252TIP3   OH245696   6.983   5.212   2.105
15252TIP3    H145697   6.902   5.162   2.092
15252TIP3    H245698   6.965   5.266   2.182
15253TIP3   OH245699   6.929   7.193   3.461
15253TIP3    H145700   6.940   7.283   3.492
15253TIP3    H245701   6.939   7.198   3.366
15254TIP3   OH245702   3.483   6.641   3.844
15254TIP3    H145703   3.532   6.598   3.773
15254TIP3    H245704   3.482   6.576   3.915
15255TIP3   OH245705   5.957   4.169   2.149
15255TIP3    H145706   5.977   4.238   2.212
15255TIP3    H245707   5.902   4.107   2.198
15256TIP3   OH245708   4.282   2.331   5.265
15256TIP3    H145709   4.205   2.367   5.309
15256TIP3    H245710   4.266   2.348   5.172
15257TIP3   OH245711   6.664   0.949   4.942
15257TIP3    H145712   6.593   0.894   4.976
15257TIP3    H245713   6.628   0.987   4.862
15258TIP3   OH245714   3.536   4.435   5.920
15258TIP3    H145715   3.485   4.421   5.999
15258TIP3    H245716   3.546   4.531   5.915
15259TIP3   OH245717   5.827   6.057   3.163
15259TIP3    H145718   5.809   6.005   3.084
15259TIP3    H245719   5.889   6.004   3.213
15260TIP3   OH245720   4.113   1.937   1.468
15260TIP3    H145721   4.114   1.984   1.384
15260TIP3    H245722   4.184   1.976   1.518
15261TIP3   OH245723   3.136   6.992   2.062
15261TIP3    H145724   3.130   7.083   2.032
15261TIP3    H245725   3.152   6.942   1.982
15262TIP3   OH245726   1.732   6.194   2.160
15262TIP3    H145727   1.702   6.239   2.082
15262TIP3    H245728   1.775   6.115   2.128
15263TIP3   OH245729   5.317   4.720   0.932
15263TIP3    H145730   5.363   4.643   0.967
15263TIP3    H245731   5.352   4.794   0.982
15264TIP3   OH245732   0.499   2.871   1.857
15264TIP3    H145733   0.523   2.960   1.831
15264TIP3    H245734   0.578   2.834   1.895
15265TIP3   OH245735   6.108   0.860   4.232
15265TIP3    H145736   6.144   0.877   4.145
15265TIP3    H245737   6.013   0.857   4.218
15266TIP3   OH245738   2.557   2.229   0.181
15266TIP3    H145739   2.468   2.211   0.150
15266TIP3    H245740   2.590   2.144   0.210
15267TIP3   OH245741   3.239   5.753   5.808
15267TIP3    H145742   3.166   5.725   5.752
15267TIP3    H245743   3.235   5.848   5.807
15268TIP3   OH245744   2.003   3.357   0.046
15268TIP3    H145745   2.030   3.429   0.104
15268TIP3    H245746   2.054   3.371  -0.034
15269TIP3   OH245747   8.379   3.881   6.797
15269TIP3    H145748   8.324   3.816   6.754
15269TIP3    H245749   8.371   3.960   6.744
15270TIP3   OH245750   6.745   0.580   1.145
15270TIP3    H145751   6.724   0.528   1.222
15270TIP3    H245752   6.832   0.617   1.163
15271TIP3   OH245753   4.568   1.324   4.359
15271TIP3    H145754   4.487   1.282   4.330
15271TIP3    H245755   4.589   1.280   4.442
15272TIP3   OH245756   6.922   6.427   6.166
15272TIP3    H145757   6.971   6.354   6.204
15272TIP3    H245758   6.835   6.422   6.207
15273TIP3   OH245759   4.571   7.650   3.638
15273TIP3    H145760   4.591   7.558   3.651
15273TIP3    H245761   4.480   7.651   3.608
15274TIP3   OH245762   5.590   7.796   2.397
15274TIP3    H145763   5.639   7.781   2.317
15274TIP3    H245764   5.599   7.890   2.413
15275TIP3   OH245765   1.693   3.816   1.294
15275TIP3    H145766   1.618   3.861   1.254
15275TIP3    H245767   1.661   3.727   1.310
15276TIP3   OH245768   4.930   2.646   1.924
15276TIP3    H145769   4.941   2.635   1.830
15276TIP3    H245770   4.885   2.730   1.933
15277TIP3   OH245771   1.501   6.914   5.974
15277TIP3    H145772   1.439   6.979   6.008
15277TIP3    H245773   1.559   6.965   5.916
15278TIP3   OH245774   3.948   2.842   1.563
15278TIP3    H145775   3.920   2.779   1.496
15278TIP3    H245776   4.016   2.893   1.521
15279TIP3   OH245777   2.555   0.931   1.046
15279TIP3    H145778   2.602   1.013   1.060
15279TIP3    H245779   2.582   0.876   1.119
15280TIP3   OH245780   8.050   3.928   1.028
15280TIP3    H145781   8.123   3.878   1.065
15280TIP3    H245782   7.982   3.864   1.012
15281TIP3   OH245783   7.619   0.201   2.139
15281TIP3    H145784   7.569   0.282   2.140
15281TIP3    H245785   7.649   0.189   2.229
15282TIP3   OH245786   5.288   6.130   5.771
15282TIP3    H145787   5.355   6.077   5.727
15282TIP3    H245788   5.268   6.199   5.708
15283TIP3   OH245789   7.122   0.653   2.530
15283TIP3    H145790   7.150   0.659   2.438
15283TIP3    H245791   7.044   0.598   2.527
15284TIP3   OH245792   0.587   0.111   0.116
15284TIP3    H145793   0.553   0.067   0.194
15284TIP3    H245794   0.511   0.158   0.081
15285TIP3   OH245795   3.538   1.393   5.718
15285TIP3    H145796   3.625   1.410   5.681
15285TIP3    H245797   3.481   1.456   5.675
15286TIP3   OH245798   5.157   7.008   6.336
15286TIP3    H145799   5.074   6.995   6.291
15286TIP3    H245800   5.213   6.937   6.305
15287TIP3   OH245801   2.798   6.363   4.001
15287TIP3    H145802   2.727   6.358   4.065
15287TIP3    H245803   2.791   6.282   3.951
15288TIP3   OH245804   7.225   3.702   5.553
15288TIP3    H145805   7.190   3.790   5.540
15288TIP3    H245806   7.167   3.663   5.619
15289TIP3   OH245807   5.425   4.229   3.629
15289TIP3    H145808   5.360   4.284   3.586
15289TIP3    H245809   5.446   4.274   3.711
15290TIP3   OH245810   4.858   4.081   6.666
15290TIP3    H145811   4.807   4.160   6.648
15290TIP3    H245812   4.816   4.043   6.744
15291TIP3   OH245813   1.434   3.456   3.191
15291TIP3    H145814   1.369   3.390   3.214
15291TIP3    H245815   1.430   3.462   3.096
15292TIP3   OH245816   2.265   6.051   1.327
15292TIP3    H145817   2.173   6.041   1.302
15292TIP3    H245818   2.301   6.109   1.261
15293TIP3   OH245819   4.243   5.234   2.516
15293TIP3    H145820   4.324   5.224   2.565
15293TIP3    H245821   4.261   5.198   2.430
15294TIP3   OH245822   4.248   6.608   0.388
15294TIP3    H145823   4.258   6.685   0.332
15294TIP3    H245824   4.287   6.633   0.472
15295TIP3   OH245825   2.689   6.331   4.447
15295TIP3    H145826   2.655   6.376   4.524
15295TIP3    H245827   2.783   6.323   4.462
15296TIP3   OH245828   0.381   6.532   3.760
15296TIP3    H145829   0.292   6.546   3.727
15296TIP3    H245830   0.412   6.619   3.783
15297TIP3   OH245831   3.364   4.224   3.098
15297TIP3    H145832   3.270   4.219   3.118
15297TIP3    H245833   3.407   4.187   3.174
15298TIP3   OH245834   0.100   2.819   3.018
15298TIP3    H145835   0.081   2.870   2.939
15298TIP3    H245836   0.056   2.867   3.088
15299TIP3   OH245837   5.123   4.264   4.702
15299TIP3    H145838   5.039   4.232   4.671
15299TIP3    H245839   5.166   4.300   4.623
15300TIP3   OH245840   2.514   1.889   4.563
15300TIP3    H145841   2.496   1.981   4.581
15300TIP3    H245842   2.564   1.890   4.481
15301TIP3   OH245843  -0.009   7.444   5.885
15301TIP3    H145844   0.077   7.434   5.845
15301TIP3    H245845  -0.017   7.538   5.904
15302TIP3   OH245846   0.966   3.309   6.498
15302TIP3    H145847   0.953   3.402   6.516
15302TIP3    H245848   0.972   3.304   6.403
15303TIP3   OH245849   7.195   2.129   0.338
15303TIP3    H145850   7.290   2.121   0.338
15303TIP3    H245851   7.178   2.222   0.321
15304TIP3   OH245852   2.138   2.767   3.886
15304TIP3    H145853   2.199   2.727   3.948
15304TIP3    H245854   2.051   2.749   3.922
15305TIP3   OH245855   3.928   0.590   3.634
15305TIP3    H145856   4.012   0.612   3.595
15305TIP3    H245857   3.914   0.657   3.701
15306TIP3   OH245858   1.667   7.649   4.641
15306TIP3    H145859   1.592   7.610   4.596
15306TIP3    H245860   1.629   7.720   4.693
15307TIP3   OH245861   2.939   6.764   6.536
15307TIP3    H145862   2.925   6.671   6.515
15307TIP3    H245863   2.930   6.809   6.452
15308TIP3   OH245864   4.289   2.578   2.224
15308TIP3    H145865   4.262   2.486   2.214
15308TIP3    H245866   4.220   2.617   2.277
15309TIP3   OH245867   1.028   4.123   4.413
15309TIP3    H145868   1.014   4.171   4.495
15309TIP3    H245869   1.119   4.141   4.389
15310TIP3   OH245870   0.884   1.754   6.479
15310TIP3    H145871   0.915   1.770   6.391
15310TIP3    H245872   0.840   1.835   6.505
15311TIP3   OH245873   2.279   3.205   5.801
15311TIP3    H145874   2.334   3.235   5.873
15311TIP3    H245875   2.199   3.257   5.808
15312TIP3   OH245876   0.663   0.326   2.793
15312TIP3    H145877   0.587   0.380   2.816
15312TIP3    H245878   0.670   0.263   2.864
15313TIP3   OH245879   5.025   4.780   3.845
15313TIP3    H145880   5.078   4.851   3.809
15313TIP3    H245881   4.942   4.786   3.797
15314TIP3   OH245882   3.753   3.329   1.933
15314TIP3    H145883   3.749   3.368   1.845
15314TIP3    H245884   3.805   3.391   1.984
15315TIP3   OH245885   2.320   7.195   1.105
15315TIP3    H145886   2.238   7.227   1.143
15315TIP3    H245887   2.306   7.203   1.010
15316TIP3   OH245888   7.180   7.293   4.393
15316TIP3    H145889   7.240   7.219   4.396
15316TIP3    H245890   7.094   7.253   4.378
15317TIP3   OH245891   0.270   1.681   6.240
15317TIP3    H145892   0.252   1.727   6.158
15317TIP3    H245893   0.243   1.743   6.308
15318TIP3   OH245894   2.203   6.802   0.261
15318TIP3    H145895   2.180   6.823   0.351
15318TIP3    H245896   2.284   6.851   0.245
15319TIP3   OH245897   7.454   0.326   1.389
15319TIP3    H145898   7.489   0.406   1.427
15319TIP3    H245899   7.480   0.257   1.450
15320TIP3   OH245900   5.136   0.911   2.930
15320TIP3    H145901   5.213   0.906   2.874
15320TIP3    H245902   5.143   0.835   2.988
15321TIP3   OH245903   5.726   0.502   5.551
15321TIP3    H145904   5.719   0.571   5.617
15321TIP3    H245905   5.821   0.493   5.536
15322TIP3   OH245906   4.487   7.794   4.205
15322TIP3    H145907   4.578   7.821   4.208
15322TIP3    H245908   4.491   7.698   4.203
15323TIP3   OH245909   6.667   1.108   1.559
15323TIP3    H145910   6.605   1.107   1.631
15323TIP3    H245911   6.621   1.154   1.488
15324TIP3   OH245912   5.923   4.552   3.516
15324TIP3    H145913   6.012   4.589   3.510
15324TIP3    H245914   5.886   4.564   3.429
15325TIP3   OH245915   2.174   4.003   3.184
15325TIP3    H145916   2.200   3.954   3.106
15325TIP3    H245917   2.157   4.092   3.152
15326TIP3   OH245918   2.364   4.333   3.922
15326TIP3    H145919   2.458   4.348   3.927
15326TIP3    H245920   2.343   4.338   3.829
15327TIP3   OH245921   8.286   7.791   6.290
15327TIP3    H145922   8.349   7.834   6.231
15327TIP3    H245923   8.309   7.824   6.377
15328TIP3   OH245924   4.446   2.597   3.029
15328TIP3    H145925   4.489   2.525   2.983
15328TIP3    H245926   4.379   2.629   2.969
15329TIP3   OH245927   4.106   2.549   6.578
15329TIP3    H145928   4.110   2.467   6.627
15329TIP3    H245929   4.025   2.542   6.527
15330TIP3   OH245930   8.186   7.416   6.100
15330TIP3    H145931   8.145   7.503   6.100
15330TIP3    H245932   8.217   7.404   6.011
15331TIP3   OH245933   8.112   6.285   4.783
15331TIP3    H145934   8.197   6.306   4.744
15331TIP3    H245935   8.102   6.191   4.770
15332TIP3   OH245936   2.509   2.948   5.167
15332TIP3    H145937   2.527   2.856   5.153
15332TIP3    H245938   2.595   2.991   5.163
15333TIP3   OH245939   5.386   7.242   5.394
15333TIP3    H145940   5.338   7.178   5.342
15333TIP3    H245941   5.456   7.191   5.436
15334TIP3   OH245942   4.319   3.112   1.914
15334TIP3    H145943   4.242   3.056   1.920
15334TIP3    H245944   4.360   3.106   2.000
15335TIP3   OH245945   4.895   0.785   5.816
15335TIP3    H145946   4.929   0.867   5.782
15335TIP3    H245947   4.807   0.806   5.848
15336TIP3   OH245948   7.967   6.924   2.441
15336TIP3    H145949   7.886   6.877   2.459
15336TIP3    H245950   8.023   6.905   2.516
15337TIP3   OH245951   0.366   1.325   2.997
15337TIP3    H145952   0.375   1.362   3.085
15337TIP3    H245953   0.411   1.241   3.001
15338TIP3   OH245954   3.347   2.557   4.399
15338TIP3    H145955   3.285   2.630   4.401
15338TIP3    H245956   3.329   2.513   4.316
15339TIP3   OH245957   0.434   1.721   1.728
15339TIP3    H145958   0.375   1.666   1.676
15339TIP3    H245959   0.494   1.659   1.768
15340TIP3   OH245960   1.627   3.447   6.017
15340TIP3    H145961   1.538   3.474   6.041
15340TIP3    H245962   1.684   3.511   6.059
15341TIP3   OH245963   6.239   1.483   4.198
15341TIP3    H145964   6.220   1.389   4.195
15341TIP3    H245965   6.274   1.503   4.111
15342TIP3   OH245966   2.607   2.131   4.748
15342TIP3    H145967   2.603   2.090   4.834
15342TIP3    H245968   2.699   2.124   4.723
15343TIP3   OH245969   7.482   5.718   4.987
15343TIP3    H145970   7.504   5.635   5.029
15343TIP3    H245971   7.484   5.783   5.057
15344TIP3   OH245972   7.983   4.914   3.553
15344TIP3    H145973   7.994   4.821   3.575
15344TIP3    H245974   7.888   4.928   3.556
15345TIP3   OH245975   2.488   1.235   5.202
15345TIP3    H145976   2.399   1.256   5.175
15345TIP3    H245977   2.497   1.141   5.186
15346TIP3   OH245978   3.189   2.653   0.310
15346TIP3    H145979   3.162   2.628   0.398
15346TIP3    H245980   3.154   2.584   0.254
15347TIP3   OH245981   3.153   2.402   0.435
15347TIP3    H145982   3.082   2.371   0.379
15347TIP3    H245983   3.127   2.377   0.524
15348TIP3   OH245984   2.721   7.805   6.782
15348TIP3    H145985   2.810   7.806   6.817
15348TIP3    H245986   2.727   7.852   6.699
15349TIP3   OH245987   4.179   0.143   1.521
15349TIP3    H145988   4.158   0.163   1.429
15349TIP3    H245989   4.112   0.190   1.571
15350TIP3   OH245990   1.895   2.254   6.658
15350TIP3    H145991   1.863   2.199   6.730
15350TIP3    H245992   1.817   2.302   6.628
15351TIP3   OH245993   5.260   5.093   1.066
15351TIP3    H145994   5.248   5.084   1.160
15351TIP3    H245995   5.348   5.060   1.050
15352TIP3   OH245996   0.849   3.215   0.937
15352TIP3    H145997   0.901   3.135   0.942
15352TIP3    H245998   0.844   3.234   0.843
15353TIP3   OH245999   8.392   0.867   6.761
15353TIP3    H146000   8.459   0.889   6.697
15353TIP3    H246001   8.332   0.809   6.715
15354TIP3   OH246002   4.515   0.953   2.313
15354TIP3    H146003   4.457   0.979   2.241
15354TIP3    H246004   4.459   0.958   2.391
15355TIP3   OH246005   4.318   7.637   3.869
15355TIP3    H146006   4.371   7.717   3.871
15355TIP3    H246007   4.279   7.637   3.781
15356TIP3   OH246008   6.946   1.636   6.670
15356TIP3    H146009   6.942   1.564   6.733
15356TIP3    H246010   7.027   1.682   6.690
15357TIP3   OH246011   5.231   4.214   2.565
15357TIP3    H146012   5.253   4.284   2.503
15357TIP3    H246013   5.313   4.197   2.612
15358TIP3   OH246014   3.771   2.938   1.165
15358TIP3    H146015   3.715   2.860   1.166
15358TIP3    H246016   3.802   2.944   1.075
15359TIP3   OH246017   8.137   5.427   4.400
15359TIP3    H146018   8.121   5.419   4.494
15359TIP3    H246019   8.215   5.374   4.384
15360TIP3   OH246020   3.741   1.838   4.460
15360TIP3    H146021   3.765   1.795   4.542
15360TIP3    H246022   3.648   1.860   4.470
15361TIP3   OH246023   6.643   3.614   4.922
15361TIP3    H146024   6.564   3.578   4.883
15361TIP3    H246025   6.666   3.689   4.867
15362TIP3   OH246026   6.818   6.542   2.920
15362TIP3    H146027   6.807   6.625   2.874
15362TIP3    H246028   6.871   6.489   2.860
15363TIP3   OH246029   2.678   3.630   0.688
15363TIP3    H146030   2.673   3.604   0.596
15363TIP3    H246031   2.772   3.637   0.706
15364TIP3   OH246032   3.602   1.371   0.712
15364TIP3    H146033   3.563   1.374   0.624
15364TIP3    H246034   3.601   1.279   0.736
15365TIP3   OH246035   0.331   3.771   2.878
15365TIP3    H146036   0.294   3.831   2.814
15365TIP3    H246037   0.263   3.765   2.946
15366TIP3   OH246038   6.812   6.831   6.062
15366TIP3    H146039   6.827   6.881   6.143
15366TIP3    H246040   6.876   6.760   6.066
15367TIP3   OH246041   2.520   4.139   0.148
15367TIP3    H146042   2.603   4.182   0.169
15367TIP3    H246043   2.544   4.065   0.093
15368TIP3   OH246044   2.587   0.712   4.648
15368TIP3    H146045   2.649   0.762   4.594
15368TIP3    H246046   2.508   0.707   4.595
15369TIP3   OH246047   2.209   6.810   5.549
15369TIP3    H146048   2.225   6.903   5.531
15369TIP3    H246049   2.260   6.764   5.482
15370TIP3   OH246050   4.191   5.933   3.802
15370TIP3    H146051   4.155   5.993   3.867
15370TIP3    H246052   4.274   5.974   3.776
15371TIP3   OH246053   2.168   5.767   5.238
15371TIP3    H146054   2.073   5.775   5.240
15371TIP3    H246055   2.199   5.856   5.222
   8.40157   7.92108   6.85986   0.00000   0.00000  -2.80052   0.00000  -2.80052  -3.96054
